Generated by trjconv : Martini system from ../2_Creating_coordinates/TYR-HIS-TYR_aa.pdb t=   0.00000
  960
    1TYR     BB    1   1.561   3.954   4.209 -0.1505 -0.1457 -0.0937
    1TYR    SC1    2   1.586   4.121   3.916  0.0212 -0.0661 -0.2163
    1TYR    SC2    3   1.571   4.354   3.781 -0.0757 -0.1482 -0.3500
    1TYR    SC3    4   1.716   4.149   3.681 -0.0166 -0.1564 -0.2489
    2HIS     BB    5   1.475   4.190   4.450 -0.3517 -0.0516  0.2138
    2HIS    SC1    6   1.302   4.361   4.262  0.3352  0.2718  0.0762
    2HIS    SC2    7   1.235   4.531   4.064  0.1791  0.0224 -0.0909
    2HIS    SC3    8   1.044   4.432   4.226  0.2545 -0.0620 -0.0525
    3TYR     BB    9   1.553   4.123   4.710 -0.1555 -0.1398 -0.0348
    3TYR    SC1   10   1.734   4.059   4.911 -0.1464  0.4143 -0.1099
    3TYR    SC2   11   1.976   3.989   5.005 -0.2475 -0.2166 -0.2638
    3TYR    SC3   12   1.868   4.227   5.074  0.2423 -0.0818  0.1105
    1TYR     BB   13   1.593   4.393   3.276  0.2827 -0.0682 -0.0769
    1TYR    SC1   14   1.304   4.307   3.230  0.1818 -0.1478 -0.1027
    1TYR    SC2   15   1.081   4.169   3.167 -0.0109  0.0999  0.0119
    1TYR    SC3   16   1.142   4.396   3.034  0.1811  0.0293 -0.0250
    2HIS     BB   17   1.824   4.355   3.172  0.1180 -0.1544 -0.1189
    2HIS    SC1   18   1.875   4.260   2.877 -0.0519 -0.0853 -0.0236
    2HIS    SC2   19   1.904   4.086   2.673  0.0133  0.0945 -0.1719
    2HIS    SC3   20   1.962   4.347   2.637 -0.0356  0.1406  0.0607
    3TYR     BB   21   2.140   4.246   3.270  0.2141 -0.0568 -0.1730
    3TYR    SC1   22   2.357   4.298   3.054  0.1067 -0.0668 -0.0403
    3TYR    SC2   23   2.420   4.347   2.796  0.0957  0.2544  0.0132
    3TYR    SC3   24   2.614   4.285   2.974  0.1035  0.0338 -0.0690
    1TYR     BB   25   3.601   2.484   2.964  0.1175 -0.2781  0.1616
    1TYR    SC1   26   3.405   2.270   2.859 -0.1048  0.1446 -0.0171
    1TYR    SC2   27   3.258   2.045   2.887 -0.2343  0.2174 -0.1000
    1TYR    SC3   28   3.331   2.129   2.641 -0.0777  0.1987 -0.0614
    2HIS     BB   29   3.870   2.385   3.145 -0.0380 -0.0412 -0.2163
    2HIS    SC1   30   3.790   2.284   3.401 -0.0461  0.1266 -0.1808
    2HIS    SC2   31   3.600   2.189   3.567  0.0456 -0.0665 -0.1829
    2HIS    SC3   32   3.788   2.358   3.660  0.0088 -0.0571 -0.1252
    3TYR     BB   33   4.101   2.438   3.087 -0.0351 -0.0271  0.0518
    3TYR    SC1   34   4.388   2.535   3.061 -0.0548 -0.0614  0.0866
    3TYR    SC2   35   4.535   2.697   2.902 -0.0275 -0.1575  0.0132
    3TYR    SC3   36   4.617   2.644   3.153 -0.2677  0.3080  0.2042
    1TYR     BB   37   5.724   3.377   4.028 -0.3986 -0.0827  0.1978
    1TYR    SC1   38   5.762   3.112   3.874  0.0832  0.1425 -0.0671
    1TYR    SC2   39   5.559   2.934   3.884  0.1678  0.0426 -0.1092
    1TYR    SC3   40   5.761   2.897   3.710  0.2972  0.0613  0.0352
    2HIS     BB   41   5.669   3.620   4.158  0.0318  0.0313  0.1321
    2HIS    SC1   42   5.879   3.701   4.381  0.0629  0.0394 -0.0848
    2HIS    SC2   43   6.131   3.762   4.457  0.0157  0.1974 -0.0486
    2HIS    SC3   44   5.960   3.650   4.634  0.1208 -0.1087 -0.1324
    3TYR     BB   45   5.424   3.770   4.161  0.3456  0.1015 -0.2096
    3TYR    SC1   46   5.239   3.920   3.962 -0.1450 -0.0473 -0.1062
    3TYR    SC2   47   5.030   3.950   3.793 -0.2705  0.0932  0.0685
    3TYR    SC3   48   5.141   4.166   3.910 -0.0878  0.0102  0.0526
    1TYR     BB   49   3.965   2.782   4.045  0.0426 -0.1293  0.2513
    1TYR    SC1   50   3.889   2.779   3.764 -0.0296  0.1154  0.2028
    1TYR    SC2   51   3.771   2.879   3.543 -0.1280 -0.0948  0.1567
    1TYR    SC3   52   3.993   2.728   3.519 -0.0639 -0.0103  0.2131
    2HIS     BB   53   3.791   2.672   4.262 -0.1429 -0.2061  0.1396
    2HIS    SC1   54   3.991   2.568   4.519 -0.0525  0.0920  0.2051
    2HIS    SC2   55   4.211   2.503   4.662 -0.1337  0.1697  0.3692
    2HIS    SC3   56   4.030   2.676   4.764 -0.0393  0.4762  0.0419
    3TYR     BB   57   3.498   2.643   4.348 -0.3060  0.1763  0.0181
    3TYR    SC1   58   3.532   2.448   4.616  0.2808  0.2641  0.3012
    3TYR    SC2   59   3.671   2.374   4.836  0.2747  0.2253  0.2920
    3TYR    SC3   60   3.401   2.388   4.845  0.2514 -0.0758  0.2021
    1TYR     BB   61   2.961   2.634   2.037 -0.0267 -0.3848  0.2352
    1TYR    SC1   62   3.275   2.662   1.947 -0.1533 -0.3598 -0.2716
    1TYR    SC2   63   3.525   2.630   2.042 -0.1229 -0.2014 -0.2939
    1TYR    SC3   64   3.479   2.616   1.777 -0.0511  0.2340 -0.3391
    2HIS     BB   65   2.872   2.387   1.853  0.1487  0.1623 -0.2495
    2HIS    SC1   66   3.100   2.329   1.652  0.3122  0.0550  0.3697
    2HIS    SC2   67   3.230   2.359   1.418 -0.1941 -0.1019  0.0486
    2HIS    SC3   68   3.236   2.121   1.545 -0.0683 -0.0705  0.1033
    3TYR     BB   69   2.839   2.041   1.978 -0.0307 -0.1616  0.1233
    3TYR    SC1   70   3.143   2.113   2.108 -0.2071  0.1971 -0.0662
    3TYR    SC2   71   3.398   2.068   2.028 -0.1810  0.0215  0.1070
    3TYR    SC3   72   3.345   2.264   2.206 -0.1051 -0.1986  0.3819
    1TYR     BB   73   5.380   4.639   3.799  0.0282  0.2110  0.0288
    1TYR    SC1   74   5.281   4.511   3.526  0.2344 -0.1829  0.0024
    1TYR    SC2   75   5.208   4.280   3.407 -0.0915 -0.0783 -0.0133
    1TYR    SC3   76   5.237   4.504   3.259  0.0559 -0.0708  0.0260
    2HIS     BB   77   5.290   4.944   3.772  0.2255 -0.0960 -0.2048
    2HIS    SC1   78   5.095   4.981   3.548  0.1318 -0.1063  0.0011
    2HIS    SC2   79   5.058   4.924   3.287  0.0638  0.0341 -0.0212
    2HIS    SC3   80   4.848   4.995   3.440  0.1114  0.0017  0.0601
    3TYR     BB   81   5.217   5.120   3.993 -0.0124 -0.0432  0.3048
    3TYR    SC1   82   5.371   5.188   4.279  0.1644 -0.4922  0.0634
    3TYR    SC2   83   5.316   5.218   4.542  0.0456  0.2624 -0.0193
    3TYR    SC3   84   5.564   5.273   4.448  0.0978 -0.0392 -0.0716
    1TYR     BB   85   4.536   1.674   3.217 -0.2344  0.2225 -0.1391
    1TYR    SC1   86   4.841   1.635   3.155  0.2834  0.3299  0.2171
    1TYR    SC2   87   5.041   1.643   2.974  0.1248 -0.0200  0.0117
    1TYR    SC3   88   5.049   1.804   3.191  0.2746  0.4833 -0.3423
    2HIS     BB   89   4.443   1.331   3.224 -0.1175 -0.1979 -0.1423
    2HIS    SC1   90   4.564   1.256   2.959 -0.2727  0.1213  0.0665
    2HIS    SC2   91   4.813   1.267   2.856 -0.2694  0.0139  0.0622
    2HIS    SC3   92   4.610   1.167   2.709 -0.3327  0.1773  0.0348
    3TYR     BB   93   4.149   1.331   3.442 -0.0724  0.0374 -0.0450
    3TYR    SC1   94   4.084   1.010   3.507  0.0632 -0.1255 -0.0304
    3TYR    SC2   95   4.056   0.742   3.493  0.0563 -0.1171 -0.1949
    3TYR    SC3   96   3.928   0.880   3.686  0.0624 -0.2318 -0.1069
    1TYR     BB   97   2.606   3.587   4.323 -0.3377 -0.0113  0.1734
    1TYR    SC1   98   2.420   3.594   4.579 -0.0527 -0.0569 -0.1388
    1TYR    SC2   99   2.299   3.697   4.797 -0.0070 -0.0246 -0.1285
    1TYR    SC3  100   2.206   3.470   4.686 -0.1449  0.0587 -0.1867
    2HIS     BB  101   2.516   3.858   4.127  0.0054 -0.3774 -0.0750
    2HIS    SC1  102   2.538   3.698   3.885  0.0626 -0.2633  0.0698
    2HIS    SC2  103   2.687   3.609   3.678 -0.0992  0.0617 -0.1975
    2HIS    SC3  104   2.425   3.544   3.695 -0.0705 -0.0197 -0.0563
    3TYR     BB  105   2.448   4.073   4.293  0.1375 -0.1269  0.1638
    3TYR    SC1  106   2.423   4.106   4.619  0.0185 -0.0164 -0.0001
    3TYR    SC2  107   2.543   4.055   4.855  0.1943 -0.1014 -0.1053
    3TYR    SC3  108   2.311   4.193   4.848  0.1489 -0.1619  0.1215
    1TYR     BB  109   5.324   3.485   3.737 -0.4138 -0.1006  0.0481
    1TYR    SC1  110   5.357   3.267   3.527 -0.2176 -0.2683  0.1208
    1TYR    SC2  111   5.493   3.166   3.316  0.0010 -0.1272  0.1885
    1TYR    SC3  112   5.243   3.265   3.283 -0.0653 -0.3321  0.0485
    2HIS     BB  113   5.151   3.382   3.961 -0.2112  0.0218  0.0179
    2HIS    SC1  114   4.951   3.580   4.090  0.2652 -0.1269 -0.0175
    2HIS    SC2  115   4.891   3.824   4.188  0.3307 -0.0285 -0.2145
    2HIS    SC3  116   4.956   3.623   4.356 -0.0486 -0.0041 -0.0266
    3TYR     BB  117   5.238   3.225   4.172 -0.5668 -0.3651  0.1378
    3TYR    SC1  118   5.114   3.137   4.427 -0.0758  0.2113 -0.0287
    3TYR    SC2  119   4.967   3.217   4.638 -0.0147 -0.0467  0.1177
    3TYR    SC3  120   5.144   3.014   4.666  0.1864  0.0887 -0.1181
    1TYR     BB  121   6.362   5.363   3.309 -0.2309 -0.1561 -0.3427
    1TYR    SC1  122   6.416   5.239   3.073 -0.0966 -0.0626 -0.1708
    1TYR    SC2  123   6.393   5.064   2.868 -0.3324  0.0938 -0.2821
    1TYR    SC3  124   6.604   5.232   2.879 -0.0720 -0.2281 -0.1435
    2HIS     BB  125   6.397   5.439   3.531  0.0246 -0.2807 -0.3376
    2HIS    SC1  126   6.215   5.559   3.761  0.1003 -0.0526  0.2112
    2HIS    SC2  127   5.998   5.719   3.767  0.0330 -0.1326  0.0162
    2HIS    SC3  128   6.193   5.750   3.951  0.0491  0.2118 -0.0505
    3TYR     BB  129   6.701   5.561   3.744 -0.1297  0.0926 -0.1425
    3TYR    SC1  130   6.868   5.481   3.481  0.2186 -0.1536  0.0101
    3TYR    SC2  131   7.000   5.519   3.249  0.1737 -0.0593 -0.0010
    3TYR    SC3  132   6.879   5.282   3.299  0.2496 -0.1068 -0.0395
    1TYR     BB  133   1.998   5.023   4.027  0.3163 -0.0767  0.1173
    1TYR    SC1  134   1.821   4.814   4.197 -0.1983  0.0663  0.1866
    1TYR    SC2  135   1.661   4.605   4.134 -0.1231  0.0403  0.0786
    1TYR    SC3  136   1.660   4.705   4.384 -0.3229  0.0537  0.0750
    2HIS     BB  137   1.805   5.284   3.966  0.0664  0.1087 -0.1244
    2HIS    SC1  138   1.658   5.532   4.124 -0.0347 -0.1154  0.2932
    2HIS    SC2  139   1.755   5.749   4.253  0.2360  0.1826 -0.3535
    2HIS    SC3  140   1.615   5.780   4.025 -0.0760 -0.3243 -0.2507
    3TYR     BB  141   1.581   5.310   3.671 -0.0427 -0.1607 -0.2590
    3TYR    SC1  142   1.330   5.481   3.764  0.1509 -0.1925  0.2244
    3TYR    SC2  143   1.183   5.707   3.755  0.3374 -0.0741 -0.0893
    3TYR    SC3  144   1.225   5.583   3.990 -0.1051 -0.0139  0.0340
    1TYR     BB  145   2.437   4.619   4.514  0.1502 -0.0342  0.0744
    1TYR    SC1  146   2.370   4.617   4.194  0.2311  0.1022  0.1200
    1TYR    SC2  147   2.385   4.736   3.952 -0.3584  0.0996  0.0647
    1TYR    SC3  148   2.508   4.500   3.994 -0.1220  0.1736 -0.1800
    2HIS     BB  149   2.663   4.515   4.580  0.2249  0.2118  0.0570
    2HIS    SC1  150   2.878   4.503   4.315 -0.0257 -0.2638 -0.0856
    2HIS    SC2  151   2.975   4.610   4.087  0.0417  0.0281  0.0742
    2HIS    SC3  152   3.121   4.428   4.224  0.1089  0.0363  0.0142
    3TYR     BB  153   2.802   4.435   4.854 -0.0583  0.1704  0.1101
    3TYR    SC1  154   2.911   4.565   5.074  0.0536  0.0986 -0.1652
    3TYR    SC2  155   3.066   4.669   5.268 -0.1335  0.2155 -0.0752
    3TYR    SC3  156   2.799   4.710   5.272 -0.2692 -0.5163  0.1423
    1TYR     BB  157   1.290   3.713   4.678 -0.0842  0.0686  0.1113
    1TYR    SC1  158   1.508   3.532   4.541  0.0533  0.2529 -0.0209
    1TYR    SC2  159   1.716   3.362   4.514 -0.3270 -0.2402 -0.0351
    1TYR    SC3  160   1.622   3.497   4.299  0.0735  0.1294  0.0057
    2HIS     BB  161   1.126   3.440   4.810  0.1884  0.3296 -0.0337
    2HIS    SC1  162   1.312   3.204   4.825  0.1838  0.1118 -0.1674
    2HIS    SC2  163   1.501   3.011   4.809  0.1238  0.0119  0.1855
    2HIS    SC3  164   1.239   2.944   4.806  0.0899  0.1322 -0.0982
    3TYR     BB  165   0.815   3.481   4.876  0.0951  0.0862 -0.0323
    3TYR    SC1  166   0.698   3.370   4.584  0.1331 -0.1454  0.0690
    3TYR    SC2  167   0.476   3.323   4.439  0.1616 -0.0806  0.0040
    3TYR    SC3  168   0.719   3.255   4.342  0.1940  0.0961 -0.0445
    1TYR     BB  169   6.001   5.053   3.191  0.0620  0.0795 -0.0858
    1TYR    SC1  170   5.958   5.125   2.956  0.3064  0.5852 -0.2782
    1TYR    SC2  171   5.732   5.189   2.823 -0.0537 -0.0885 -0.0457
    1TYR    SC3  172   5.926   5.047   2.700  0.1617  0.3071 -0.1810
    2HIS     BB  173   6.204   4.726   3.265  0.0424  0.0275 -0.1528
    2HIS    SC1  174   6.191   4.660   2.984  0.1150  0.1960 -0.0782
    2HIS    SC2  175   6.027   4.602   2.777  0.1295 -0.3549  0.0455
    2HIS    SC3  176   6.294   4.619   2.738  0.0984  0.0026 -0.0550
    3TYR     BB  177   6.189   4.486   3.513  0.0210 -0.1958  0.2210
    3TYR    SC1  178   6.490   4.484   3.615 -0.0051  0.4547  0.1919
    3TYR    SC2  179   6.735   4.510   3.503  0.0729 -0.2171  0.1548
    3TYR    SC3  180   6.712   4.426   3.759 -0.1269  0.1755  0.2754
    1TYR     BB  181   1.237   4.695   3.583  0.0942  0.0389 -0.0878
    1TYR    SC1  182   1.005   4.595   3.457  0.0499  0.0518  0.0910
    1TYR    SC2  183   0.793   4.463   3.356  0.1211  0.0163 -0.0139
    1TYR    SC3  184   0.855   4.709   3.264 -0.0026  0.1202  0.1706
    2HIS     BB  185   1.219   4.945   3.756  0.0747 -0.0574  0.2415
    2HIS    SC1  186   1.068   5.154   3.597 -0.0948 -0.1954  0.0968
    2HIS    SC2  187   0.866   5.164   3.418  0.2368  0.5125 -0.2911
    2HIS    SC3  188   0.877   5.343   3.619  0.1011 -0.0052  0.2092
    3TYR     BB  189   1.396   5.033   4.026 -0.2663  0.0346 -0.0848
    3TYR    SC1  190   1.246   4.940   4.311 -0.0161  0.0493 -0.2024
    3TYR    SC2  191   1.168   5.044   4.548 -0.2328  0.0157 -0.2561
    3TYR    SC3  192   1.007   4.871   4.416 -0.2076  0.1897 -0.5248
    1TYR     BB  193   2.411   5.844   3.425 -0.0720  0.1817 -0.1016
    1TYR    SC1  194   2.149   5.774   3.633  0.2401  0.1908  0.2517
    1TYR    SC2  195   2.048   5.678   3.864 -0.1711 -0.3727 -0.1287
    1TYR    SC3  196   1.882   5.742   3.661  0.1916 -0.1206 -0.3597
    2HIS     BB  197   2.503   5.769   3.157  0.0773 -0.1638  0.3850
    2HIS    SC1  198   2.420   5.895   2.911  0.5082 -0.1637 -0.3326
    2HIS    SC2  199   2.176   5.949   2.808  0.0899 -0.0805  0.5784
    2HIS    SC3  200   2.389   6.100   2.737 -0.2341  0.2242  0.1872
    3TYR     BB  201   2.808   5.710   3.139 -0.0245  0.2839 -0.1302
    3TYR    SC1  202   2.945   5.727   2.848  0.1521 -0.0493  0.0254
    3TYR    SC2  203   3.029   5.634   2.608  0.0960 -0.1567  0.0468
    3TYR    SC3  204   2.824   5.809   2.621  0.1244 -0.1210  0.0140
    1TYR     BB  205   4.754   4.923   4.026  0.0701  0.1421 -0.2195
    1TYR    SC1  206   4.784   4.743   3.818 -0.2623 -0.0038  0.2464
    1TYR    SC2  207   4.690   4.588   3.618 -0.0205 -0.0990  0.2010
    1TYR    SC3  208   4.896   4.502   3.770  0.2926  0.2781  0.0129
    2HIS     BB  209   4.667   5.208   3.937 -0.1733 -0.2346  0.1097
    2HIS    SC1  210   4.529   5.300   4.183 -0.1983  0.0801 -0.0615
    2HIS    SC2  211   4.502   5.303   4.451  0.4935  0.0771  0.0285
    2HIS    SC3  212   4.403   5.507   4.304 -0.3317 -0.1503  0.2057
    3TYR     BB  213   4.693   5.374   3.768 -0.0961 -0.0433  0.2620
    3TYR    SC1  214   4.765   5.677   3.856 -0.1300 -0.0812 -0.1139
    3TYR    SC2  215   4.840   5.936   3.877  0.3378 -0.1987 -0.1790
    3TYR    SC3  216   4.803   5.788   4.099 -0.3642  0.0187 -0.1197
    1TYR     BB  217   2.534   3.154   3.473  0.0038 -0.1732  0.2619
    1TYR    SC1  218   2.605   3.140   3.777  0.2810  0.1451 -0.0418
    1TYR    SC2  219   2.755   3.256   3.970  0.3549 -0.6532  0.4368
    1TYR    SC3  220   2.505   3.169   4.026 -0.1044  0.0980 -0.1816
    2HIS     BB  221   2.280   2.921   3.480 -0.0943 -0.0981 -0.2448
    2HIS    SC1  222   2.073   2.933   3.271 -0.0383  0.1150  0.1388
    2HIS    SC2  223   1.820   2.950   3.178  0.1129  0.2253 -0.2794
    2HIS    SC3  224   2.007   2.817   3.036  0.2130 -0.1962  0.2129
    3TYR     BB  225   2.330   2.760   3.693  0.0234 -0.0489 -0.2029
    3TYR    SC1  226   2.042   2.599   3.751  0.1125 -0.2635  0.1867
    3TYR    SC2  227   1.830   2.523   3.898 -0.2180 -0.1067 -0.1840
    3TYR    SC3  228   1.908   2.374   3.687 -0.1634  0.0040 -0.2429
    1TYR     BB  229   6.504   4.974   3.517 -0.0410  0.3143  0.0790
    1TYR    SC1  230   6.659   4.897   3.279  0.0599 -0.0760  0.0016
    1TYR    SC2  231   6.853   4.898   3.092  0.4502 -0.3684  0.3783
    1TYR    SC3  232   6.680   4.691   3.106  0.0204 -0.0628 -0.0189
    2HIS     BB  233   6.711   4.988   3.737 -0.0432  0.0814  0.3215
    2HIS    SC1  234   6.566   5.079   3.996 -0.2700  0.1969 -0.2677
    2HIS    SC2  235   6.431   5.056   4.229 -0.2622 -0.2048 -0.2940
    2HIS    SC3  236   6.424   5.288   4.091 -0.1858  0.0746  0.1491
    3TYR     BB  237   6.993   4.989   3.722  0.0254  0.1453 -0.2779
    3TYR    SC1  238   7.175   5.231   3.692  0.0239 -0.1049  0.1187
    3TYR    SC2  239   7.293   5.408   3.525  0.0218 -0.3174 -0.1163
    3TYR    SC3  240   7.253   5.473   3.784  0.1154 -0.0178 -0.1715
    1TYR     BB  241   2.876   1.292   3.705  0.1000  0.1936 -0.0764
    1TYR    SC1  242   2.606   1.252   3.597  0.0527 -0.0122 -0.2375
    1TYR    SC2  243   2.457   1.211   3.376 -0.2032  0.3415 -0.1431
    1TYR    SC3  244   2.402   1.419   3.539  0.0243  0.1321  0.2199
    2HIS     BB  245   3.121   1.225   3.521 -0.0534  0.0562 -0.0987
    2HIS    SC1  246   3.000   0.921   3.467 -0.1254  0.0932  0.2541
    2HIS    SC2  247   2.884   0.682   3.417 -0.0843  0.1389 -0.0871
    2HIS    SC3  248   3.143   0.724   3.350 -0.0456  0.2335  0.1115
    3TYR     BB  249   3.311   1.303   3.336 -0.3830  0.0611 -0.0457
    3TYR    SC1  250   3.516   1.069   3.274  0.0028  0.1239  0.0155
    3TYR    SC2  251   3.729   0.904   3.270 -0.0637  0.0359  0.0580
    3TYR    SC3  252   3.532   0.874   3.088 -0.0750  0.0701  0.0644
    1TYR     BB  253   1.508   6.498   2.756 -0.0291  0.0568  0.4853
    1TYR    SC1  254   1.440   6.444   3.070  0.1886  0.0146 -0.2532
    1TYR    SC2  255   1.502   6.459   3.332  0.0422  0.4489 -0.2337
    1TYR    SC3  256   1.331   6.270   3.245  0.2697  0.1535 -0.0598
    2HIS     BB  257   1.839   6.421   2.743 -0.1175  0.0770 -0.3169
    2HIS    SC1  258   1.883   6.217   2.525  0.0113  0.0396  0.0298
    2HIS    SC2  259   1.762   6.115   2.306 -0.1039  0.2815 -0.0233
    2HIS    SC3  260   1.994   6.008   2.394  0.1026  0.3644 -0.4409
    3TYR     BB  261   1.933   6.420   2.989 -0.1610 -0.1153  0.1826
    3TYR    SC1  262   1.848   6.139   3.131 -0.3985 -0.2931 -0.1842
    3TYR    SC2  263   1.737   6.080   3.370 -0.1211  0.1713  0.0786
    3TYR    SC3  264   1.907   5.905   3.254 -0.0897  0.0298  0.3272
    1TYR     BB  265   1.711   4.811   3.671 -0.0465 -0.0549 -0.4026
    1TYR    SC1  266   1.952   4.612   3.736  0.2991  0.1286  0.1622
    1TYR    SC2  267   2.122   4.410   3.676 -0.1774 -0.2346 -0.0472
    1TYR    SC3  268   1.999   4.416   3.916 -0.0143 -0.0719  0.0356
    2HIS     BB  269   1.773   4.882   3.355 -0.1907 -0.1061 -0.0302
    2HIS    SC1  270   1.480   4.923   3.236 -0.1705 -0.0076  0.7229
    2HIS    SC2  271   1.265   4.834   3.100  0.2471 -0.1880  0.1330
    2HIS    SC3  272   1.274   5.090   3.186  0.0330  0.0032 -0.3673
    3TYR     BB  273   1.962   4.837   3.166 -0.3499  0.0853  0.0540
    3TYR    SC1  274   2.076   4.777   2.901  0.1989  0.0357  0.1854
    3TYR    SC2  275   2.314   4.775   2.772  0.2188  0.0572  0.2221
    3TYR    SC3  276   2.088   4.832   2.637  0.1738 -0.4130  0.0803
    1TYR     BB  277   2.473   3.870   3.289 -0.3199  0.3901 -0.1333
    1TYR    SC1  278   2.438   3.801   3.009 -0.0122 -0.2054 -0.1459
    1TYR    SC2  279   2.265   3.911   2.834 -0.0302  0.1179  0.0645
    1TYR    SC3  280   2.526   3.884   2.768 -0.0697  0.0715 -0.0759
    2HIS     BB  281   2.680   4.037   3.444  0.2249 -0.0332  0.2443
    2HIS    SC1  282   2.958   3.920   3.418 -0.0893  0.0517  0.3340
    2HIS    SC2  283   3.222   3.893   3.370 -0.1539  0.1698 -0.1648
    2HIS    SC3  284   3.074   3.676   3.436  0.1442  0.1804  0.6958
    3TYR     BB  285   2.608   4.334   3.499 -0.0715 -0.0904 -0.0391
    3TYR    SC1  286   2.772   4.577   3.553 -0.2955  0.0754  0.0737
    3TYR    SC2  287   2.943   4.779   3.501 -0.0868 -0.1092  0.0284
    3TYR    SC3  288   2.787   4.787   3.721 -0.0588  0.0863  0.0425
    1TYR     BB  289   5.104   4.611   4.220  0.1112 -0.1268 -0.1338
    1TYR    SC1  290   5.067   4.857   4.421 -0.0128  0.3874  0.1148
    1TYR    SC2  291   5.114   4.873   4.687  0.0583  0.0198  0.1305
    1TYR    SC3  292   4.892   4.985   4.581 -0.0125  0.0967  0.3558
    2HIS     BB  293   5.038   4.385   4.401 -0.2812  0.0627 -0.0296
    2HIS    SC1  294   5.004   4.469   4.692  0.0591 -0.0846  0.1487
    2HIS    SC2  295   4.873   4.494   4.927  0.1424 -0.2548  0.2153
    2HIS    SC3  296   5.083   4.325   4.907  0.2819 -0.0699  0.0797
    3TYR     BB  297   5.187   4.072   4.464  0.0774 -0.0642 -0.0517
    3TYR    SC1  298   5.181   3.886   4.713  0.0546 -0.1413 -0.3743
    3TYR    SC2  299   5.169   3.830   4.976 -0.1372  0.2055 -0.3012
    3TYR    SC3  300   5.038   3.674   4.799  0.0244 -0.0526 -0.2012
    1TYR     BB  301   2.694   2.777   2.574 -0.1319  0.0978 -0.0315
    1TYR    SC1  302   2.797   2.632   2.851  0.4425 -0.1440 -0.2441
    1TYR    SC2  303   2.898   2.382   2.873  0.6834 -0.0328  0.0000
    1TYR    SC3  304   3.029   2.590   2.984  0.2868  0.1520  0.1447
    2HIS     BB  305   2.501   2.449   2.542  0.0774  0.2631  0.1338
    2HIS    SC1  306   2.249   2.496   2.662 -0.2218  0.2794  0.0665
    2HIS    SC2  307   2.040   2.370   2.780 -0.1174 -0.1043 -0.1367
    2HIS    SC3  308   2.011   2.483   2.535 -0.2300  0.3559  0.0729
    3TYR     BB  309   2.805   2.334   2.408 -0.0274 -0.1328  0.2621
    3TYR    SC1  310   2.873   2.048   2.592 -0.0996 -0.0313 -0.1377
    3TYR    SC2  311   2.754   1.807   2.619  0.1296 -0.1262  0.0708
    3TYR    SC3  312   2.823   1.951   2.838  0.0544  0.1023 -0.0503
    1TYR     BB  313   6.505   3.651   4.026  0.1098  0.1706  0.0059
    1TYR    SC1  314   6.545   3.764   3.768 -0.3893  0.2002 -0.0687
    1TYR    SC2  315   6.628   3.955   3.595 -0.0919  0.1169 -0.0246
    1TYR    SC3  316   6.534   3.720   3.502 -0.1941  0.1773 -0.0752
    2HIS     BB  317   6.754   3.700   4.180  0.0841 -0.2371  0.1114
    2HIS    SC1  318   7.018   3.586   4.166  0.2618  0.1273  0.1234
    2HIS    SC2  319   7.255   3.518   4.053  0.1555 -0.0285 -0.0129
    2HIS    SC3  320   7.187   3.418   4.294  0.3073  0.1663  0.1153
    3TYR     BB  321   6.677   3.781   4.478 -0.0482 -0.3689  0.1363
    3TYR    SC1  322   6.871   3.648   4.614  0.0170  0.0656 -0.1476
    3TYR    SC2  323   6.903   3.467   4.813 -0.1473 -0.0178 -0.1950
    3TYR    SC3  324   7.113   3.615   4.730 -0.1175  0.1645  0.1799
    1TYR     BB  325   2.470   6.002   3.923 -0.0200 -0.0308  0.2058
    1TYR    SC1  326   2.744   5.968   4.049 -0.1886  0.2764 -0.0529
    1TYR    SC2  327   2.990   6.011   3.944 -0.1380  0.0521 -0.0317
    1TYR    SC3  328   2.961   5.971   4.210 -0.1413 -0.3088 -0.0798
    2HIS     BB  329   2.556   6.249   3.673  0.1570  0.2642  0.1943
    2HIS    SC1  330   2.840   6.173   3.534 -0.0040  0.1183 -0.0664
    2HIS    SC2  331   3.063   6.081   3.413 -0.0507  0.1284 -0.1616
    2HIS    SC3  332   3.009   6.345   3.411 -0.1585  0.1068 -0.3028
    3TYR     BB  333   2.578   6.537   3.687  0.4302 -0.0432 -0.1374
    3TYR    SC1  334   2.352   6.731   3.519  0.3744  0.3252 -0.0509
    3TYR    SC2  335   2.133   6.889   3.513  0.1383  0.0093 -0.1407
    3TYR    SC3  336   2.201   6.747   3.295  0.1407 -0.2782  0.0424
    1TYR     BB  337   5.604   5.336   3.773 -0.1486  0.0004 -0.4131
    1TYR    SC1  338   5.774   5.451   3.991  0.0326  0.1414  0.3623
    1TYR    SC2  339   5.990   5.387   4.140  0.2026  0.1672  0.1354
    1TYR    SC3  340   5.828   5.590   4.216  0.2763  0.1708  0.2888
    2HIS     BB  341   5.691   5.304   3.543 -0.0541 -0.2958  0.1260
    2HIS    SC1  342   5.885   5.507   3.379 -0.1769 -0.1516 -0.1258
    2HIS    SC2  343   6.000   5.748   3.339  0.0615 -0.1531  0.4285
    2HIS    SC3  344   5.953   5.583   3.130 -0.1056  0.3608  0.0366
    3TYR     BB  345   5.490   5.207   3.322 -0.3062 -0.1529 -0.0855
    3TYR    SC1  346   5.523   4.894   3.301  0.0828 -0.0750  0.1036
    3TYR    SC2  347   5.685   4.749   3.141 -0.0911 -0.0799 -0.0729
    3TYR    SC3  348   5.688   4.709   3.409  0.4920  0.2019 -0.0169
    1TYR     BB  349   3.193   4.190   5.028 -0.0027 -0.0188  0.0492
    1TYR    SC1  350   3.419   4.194   5.262  0.5294  0.0180 -0.2447
    1TYR    SC2  351   3.570   4.337   5.434  0.4201 -0.0547 -0.0852
    1TYR    SC3  352   3.564   4.068   5.452 -0.0176 -0.0403  0.1650
    2HIS     BB  353   3.345   3.919   4.766  0.3573  0.1388 -0.1079
    2HIS    SC1  354   3.097   4.005   4.584 -0.1335 -0.1522  0.0953
    2HIS    SC2  355   2.972   3.984   4.346  0.2587 -0.6741 -0.0906
    2HIS    SC3  356   2.834   4.059   4.566 -0.0653  0.0779 -0.5017
    3TYR     BB  357   3.629   4.006   4.504 -0.2367  0.4154 -0.3808
    3TYR    SC1  358   3.765   4.131   4.741 -0.1430 -0.1101  0.2932
    3TYR    SC2  359   3.991   4.199   4.873 -0.2087  0.2800  0.2213
    3TYR    SC3  360   3.763   4.151   5.010 -0.0558 -0.2923  0.3092
    1TYR     BB  361   7.267   4.437   4.119 -0.1171 -0.0975 -0.1627
    1TYR    SC1  362   6.976   4.592   4.098  0.4134  0.0856  0.2295
    1TYR    SC2  363   6.870   4.827   4.182  0.1123 -0.0361  0.2038
    1TYR    SC3  364   6.727   4.598   4.204  0.1879 -0.1385 -0.2499
    2HIS     BB  365   7.258   4.122   3.988  0.0566  0.0063  0.2522
    2HIS    SC1  366   7.554   3.972   3.902  0.2220  0.1337  0.3274
    2HIS    SC2  367   7.767   3.837   3.997 -0.0621 -0.1944  0.5291
    2HIS    SC3  368   7.623   3.735   3.792  0.1891  0.2154  0.1250
    3TYR     BB  369   7.047   4.028   3.846  0.0719 -0.0210  0.1305
    3TYR    SC1  370   7.045   3.798   3.670 -0.0684  0.0231 -0.0984
    3TYR    SC2  371   7.217   3.594   3.629  0.1886  0.2359 -0.1092
    3TYR    SC3  372   7.000   3.623   3.470  0.1190 -0.0562 -0.0730
    1TYR     BB  373   6.509   4.343   4.664  0.1911  0.0809  0.0046
    1TYR    SC1  374   6.651   4.419   4.903  0.1227  0.3255 -0.1295
    1TYR    SC2  375   6.668   4.656   5.031 -0.0167 -0.0398  0.6403
    1TYR    SC3  376   6.891   4.510   4.986  0.1163  0.3364 -0.1228
    2HIS     BB  377   6.392   3.997   4.812 -0.2819  0.0382 -0.0011
    2HIS    SC1  378   6.706   3.952   4.930 -0.0354 -0.2028  0.0949
    2HIS    SC2  379   6.962   4.029   4.887 -0.0867 -0.0614  0.0321
    2HIS    SC3  380   6.902   3.866   5.094  0.1157 -0.4569 -0.2060
    3TYR     BB  381   6.151   4.041   4.897 -0.0417 -0.3508 -0.1104
    3TYR    SC1  382   5.817   4.056   4.823  0.0411  0.0493  0.1488
    3TYR    SC2  383   5.606   3.935   4.708  0.0514  0.2328 -0.0722
    3TYR    SC3  384   5.578   4.055   4.948 -0.0110 -0.0174  0.0498
    1TYR     BB  385   4.334   3.020   3.270 -0.1833 -0.0713  0.0282
    1TYR    SC1  386   4.079   3.152   3.196 -0.0671  0.0814 -0.0468
    1TYR    SC2  387   3.809   3.148   3.207 -0.0754 -0.0222 -0.2376
    1TYR    SC3  388   3.943   3.381   3.232 -0.1940  0.0599 -0.3554
    2HIS     BB  389   4.468   3.034   3.522 -0.1219  0.0901  0.1828
    2HIS    SC1  390   4.787   2.949   3.569 -0.0629  0.2874  0.4973
    2HIS    SC2  391   5.021   2.986   3.698  0.2361  0.3560 -0.0253
    2HIS    SC3  392   5.021   2.918   3.437 -0.3339 -0.0397  0.0547
    3TYR     BB  393   4.397   2.848   3.798 -0.2905 -0.0083 -0.1151
    3TYR    SC1  394   4.597   2.648   3.802  0.2926  0.3133  0.2820
    3TYR    SC2  395   4.706   2.425   3.908  0.0992  0.1803  0.2106
    3TYR    SC3  396   4.766   2.497   3.655 -0.2176 -0.0754  0.0546
    1TYR     BB  397   2.527   5.270   3.310 -0.1812  0.0502  0.2801
    1TYR    SC1  398   2.422   4.957   3.317 -0.0271  0.1373  0.0891
    1TYR    SC2  399   2.400   4.695   3.253 -0.2486  0.0857  0.3523
    1TYR    SC3  400   2.320   4.782   3.496  0.1683  0.3389  0.4113
    2HIS     BB  401   2.768   5.234   3.442 -0.1242 -0.1605 -0.0545
    2HIS    SC1  402   2.872   5.471   3.568  0.0289 -0.0467  0.1530
    2HIS    SC2  403   2.863   5.731   3.644  0.0339 -0.0825  0.2807
    2HIS    SC3  404   3.085   5.632   3.525 -0.1564  0.1041 -0.2776
    3TYR     BB  405   3.072   5.237   3.177 -0.1510  0.1611 -0.1045
    3TYR    SC1  406   2.860   5.271   2.884  0.0727  0.1347 -0.8504
    3TYR    SC2  407   2.633   5.131   2.844  0.0011  0.0469 -0.2450
    3TYR    SC3  408   2.638   5.396   2.794 -0.2884  0.0802 -0.1278
    1TYR     BB  409   4.455   3.597   4.092  0.1522 -0.0065 -0.2214
    1TYR    SC1  410   4.516   3.553   4.376  0.0199 -0.0387  0.0320
    1TYR    SC2  411   4.627   3.450   4.600  0.0092 -0.0922  0.0130
    1TYR    SC3  412   4.379   3.556   4.608 -0.0731 -0.2782 -0.0159
    2HIS     BB  413   4.590   3.286   3.983 -0.2987 -0.0618  0.0877
    2HIS    SC1  414   4.749   3.374   3.748 -0.1875  0.0127  0.0443
    2HIS    SC2  415   4.845   3.382   3.495 -0.0946  0.2031  0.0829
    2HIS    SC3  416   4.758   3.609   3.614 -0.0990  0.1225  0.2365
    3TYR     BB  417   4.657   3.150   4.169  0.0710  0.4076  0.2869
    3TYR    SC1  418   4.862   2.891   4.150 -0.1771  0.0642  0.0994
    3TYR    SC2  419   5.073   2.747   4.061 -0.1094  0.2902 -0.1230
    3TYR    SC3  420   4.980   2.710   4.312 -0.0318 -0.0619 -0.1391
    1TYR     BB  421   3.492   1.469   4.631  0.1211  0.0695 -0.1710
    1TYR    SC1  422   3.215   1.325   4.568 -0.0691  0.1711  0.2611
    1TYR    SC2  423   2.947   1.297   4.549 -0.0221 -0.1452 -0.0796
    1TYR    SC3  424   3.100   1.088   4.623  0.1317  0.0573  0.2005
    2HIS     BB  425   3.415   1.800   4.462 -0.0777  0.1690  0.2635
    2HIS    SC1  426   3.205   1.692   4.239 -0.3126 -0.3383  0.1618
    2HIS    SC2  427   2.984   1.825   4.160 -0.1093 -0.1942 -0.1944
    2HIS    SC3  428   3.024   1.570   4.080 -0.1239 -0.2037 -0.1712
    3TYR     BB  429   3.282   1.912   4.728  0.1552  0.0375 -0.0074
    3TYR    SC1  430   2.963   1.890   4.634  0.1185 -0.0527  0.0200
    3TYR    SC2  431   2.810   1.690   4.537  0.0621  0.1053 -0.2293
    3TYR    SC3  432   2.693   1.908   4.646  0.1243 -0.0583  0.1889
    1TYR     BB  433   3.806   1.469   3.102  0.0356  0.3867 -0.2664
    1TYR    SC1  434   3.979   1.707   3.156 -0.4552 -0.0133  0.0854
    1TYR    SC2  435   4.097   1.944   3.104 -0.0495 -0.1804  0.1969
    1TYR    SC3  436   3.999   1.894   3.350 -0.3969 -0.0298  0.0957
    2HIS     BB  437   3.557   1.487   2.890 -0.0837  0.1365  0.0335
    2HIS    SC1  438   3.646   1.758   2.738  0.1848 -0.1217 -0.2850
    2HIS    SC2  439   3.760   2.000   2.778 -0.4165  0.1177  0.1868
    2HIS    SC3  440   3.781   1.878   2.538  0.4400  0.3162  0.1233
    3TYR     BB  441   3.262   1.500   2.846 -0.2201  0.1462 -0.2391
    3TYR    SC1  442   3.202   1.674   2.639 -0.0944  0.0261  0.0679
    3TYR    SC2  443   3.068   1.592   2.419  0.0306 -0.0877  0.0324
    3TYR    SC3  444   3.251   1.789   2.400 -0.0296 -0.0292  0.0541
    1TYR     BB  445   6.023   4.486   4.644  0.1585  0.0985  0.2468
    1TYR    SC1  446   5.712   4.529   4.651 -0.0068 -0.2700 -0.1621
    1TYR    SC2  447   5.518   4.717   4.660  0.0350 -0.2308 -0.0734
    1TYR    SC3  448   5.458   4.459   4.709  0.0283 -0.1999  0.0861
    2HIS     BB  449   6.148   4.581   4.288  0.0728 -0.1208  0.2094
    2HIS    SC1  450   5.832   4.726   4.222 -0.1760 -0.2747  0.1397
    2HIS    SC2  451   5.727   4.948   4.110  0.3611 -0.1156 -0.0879
    2HIS    SC3  452   5.568   4.776   4.242 -0.1096  0.2764 -0.1093
    3TYR     BB  453   6.257   4.603   4.009  0.2307 -0.1707 -0.0488
    3TYR    SC1  454   6.160   4.849   3.869  0.1997 -0.0701 -0.2172
    3TYR    SC2  455   6.087   5.106   3.830 -0.0535 -0.0198  0.4153
    3TYR    SC3  456   5.931   4.906   3.738  0.1084  0.0397 -0.0182
    1TYR     BB  457   4.911   1.191   3.425  0.1369 -0.2342 -0.0324
    1TYR    SC1  458   5.190   1.154   3.554  0.1354 -0.2306  0.0438
    1TYR    SC2  459   5.368   1.319   3.672  0.0359 -0.2442  0.2170
    1TYR    SC3  460   5.451   1.137   3.490  0.1073  0.2196 -0.2445
    2HIS     BB  461   4.750   1.414   3.624 -0.0917 -0.3082  0.0983
    2HIS    SC1  462   4.963   1.570   3.734 -0.0338  0.0144 -0.1404
    2HIS    SC2  463   5.079   1.786   3.846 -0.3316  0.1905 -0.1595
    2HIS    SC3  464   5.176   1.686   3.616  0.0356  0.0722  0.0354
    3TYR     BB  465   4.496   1.459   3.779  0.0464 -0.1074  0.0653
    3TYR    SC1  466   4.547   1.736   3.958  0.1072 -0.0494  0.1069
    3TYR    SC2  467   4.698   1.939   4.054  0.3148 -0.0416 -0.2160
    3TYR    SC3  468   4.495   1.990   3.884 -0.3654 -0.0034  0.5318
    1TYR     BB  469   4.466   4.030   3.902  0.2333  0.0281  0.0861
    1TYR    SC1  470   4.597   4.070   3.610 -0.1623 -0.0379 -0.0158
    1TYR    SC2  471   4.791   4.144   3.438 -0.1562  0.0948  0.0465
    1TYR    SC3  472   4.605   3.964   3.362 -0.2085  0.2212 -0.1314
    2HIS     BB  473   4.597   4.202   4.124 -0.1605 -0.2480  0.1594
    2HIS    SC1  474   4.613   4.079   4.399 -0.0851 -0.2033 -0.2195
    2HIS    SC2  475   4.684   3.916   4.600  0.1620 -0.1202 -0.2344
    2HIS    SC3  476   4.576   4.157   4.654  0.2050 -0.1080 -0.2022
    3TYR     BB  477   4.541   4.448   4.127 -0.0025 -0.2417 -0.1129
    3TYR    SC1  478   4.543   4.617   4.374  0.0502  0.0188 -0.0781
    3TYR    SC2  479   4.566   4.615   4.643 -0.0221 -0.0346 -0.0720
    3TYR    SC3  480   4.503   4.844   4.516 -0.3964 -0.0917 -0.0055
    1TYR     BB  481   2.752   2.679   4.016 -0.6782 -0.0372  0.0599
    1TYR    SC1  482   2.470   2.619   4.117 -0.1246  0.1635 -0.3100
    1TYR    SC2  483   2.229   2.503   4.162  0.0878 -0.1313  0.1754
    1TYR    SC3  484   2.256   2.770   4.184 -0.3159  0.0013 -0.5286
    2HIS     BB  485   2.995   2.808   4.177 -0.2064 -0.3730 -0.3097
    2HIS    SC1  486   3.031   2.788   4.507  0.0676  0.1717 -0.2043
    2HIS    SC2  487   3.199   2.743   4.713  0.0266 -0.0515 -0.2167
    2HIS    SC3  488   2.956   2.856   4.757  0.0238 -0.0851 -0.1446
    3TYR     BB  489   3.148   3.056   4.073 -0.1042  0.0739  0.1321
    3TYR    SC1  490   3.132   3.061   3.751 -0.1479 -0.0946  0.0236
    3TYR    SC2  491   3.339   3.121   3.588 -0.2712  0.0004 -0.1002
    3TYR    SC3  492   3.093   3.216   3.534 -0.3787 -0.2324 -0.0370
    1TYR     BB  493   7.500   4.844   3.788  0.1762  0.0419 -0.2190
    1TYR    SC1  494   7.704   4.819   3.568 -0.0074 -0.2260 -0.0666
    1TYR    SC2  495   7.951   4.889   3.652 -0.0476 -0.0369 -0.1016
    1TYR    SC3  496   7.911   4.819   3.395 -0.0991  0.3292 -0.2022
    2HIS     BB  497   7.487   4.990   4.022  0.2425 -0.1988 -0.1391
    2HIS    SC1  498   7.198   5.162   4.150 -0.1650 -0.0156 -0.0645
    2HIS    SC2  499   6.968   5.302   4.149  0.0525  0.3625 -0.0647
    2HIS    SC3  500   7.045   5.170   4.372 -0.2679  0.0330 -0.1366
    3TYR     BB  501   7.710   5.245   4.002 -0.1171 -0.0229 -0.0350
    3TYR    SC1  502   7.735   5.316   3.699  0.2572 -0.1145 -0.2577
    3TYR    SC2  503   7.687   5.265   3.437 -0.4553  0.1670 -0.2104
    3TYR    SC3  504   7.743   5.517   3.517 -0.0616  0.0526 -0.0975
    1TYR     BB  505   3.710   2.162   4.143  0.2187  0.4071 -0.1105
    1TYR    SC1  506   3.855   2.085   4.430 -0.0012 -0.0043  0.0673
    1TYR    SC2  507   4.008   2.128   4.648 -0.0608 -0.1373  0.1371
    1TYR    SC3  508   3.799   1.957   4.661 -0.0912 -0.1136 -0.0130
    2HIS     BB  509   3.370   2.236   4.131  0.2204  0.0105  0.1287
    2HIS    SC1  510   3.322   2.459   3.936 -0.1470  0.0070  0.0675
    2HIS    SC2  511   3.480   2.634   3.804  0.0064 -0.3340 -0.2195
    2HIS    SC3  512   3.214   2.630   3.757 -0.0885  0.1529  0.1683
    3TYR     BB  513   3.121   2.300   4.347  0.0239 -0.0978  0.0369
    3TYR    SC1  514   2.858   2.310   4.325  0.0659  0.2681 -0.3750
    3TYR    SC2  515   2.609   2.209   4.302 -0.0129  0.3101  0.1538
    3TYR    SC3  516   2.660   2.404   4.482  0.4497  0.1348  0.2290
    1TYR     BB  517   7.212   3.997   2.738  0.0996 -0.4100  0.0232
    1TYR    SC1  518   7.073   4.041   3.056 -0.0429 -0.0388  0.2218
    1TYR    SC2  519   7.012   4.276   3.173 -0.1579  0.1784 -0.2480
    1TYR    SC3  520   6.870   4.056   3.234 -0.1368  0.2539  0.0985
    2HIS     BB  521   6.953   4.141   2.539 -0.0834  0.1517 -0.5065
    2HIS    SC1  522   7.044   4.289   2.328  0.2013 -0.2493 -0.0856
    2HIS    SC2  523   7.081   4.532   2.215 -0.2415 -0.1336 -0.0067
    2HIS    SC3  524   7.148   4.308   2.080  0.4789  0.0205  0.0417
    3TYR     BB  525   6.718   4.337   2.722  0.1946 -0.0760  0.1973
    3TYR    SC1  526   6.586   4.224   2.957 -0.3026 -0.0851 -0.3652
    3TYR    SC2  527   6.449   4.035   3.091 -0.0721  0.1472  0.2407
    3TYR    SC3  528   6.399   4.296   3.136  0.0937  0.2364 -0.0555
    1TYR     BB  529   3.711   1.328   3.642 -0.2156  0.0575  0.2608
    1TYR    SC1  530   3.866   1.606   3.722 -0.4333  0.0536 -0.4075
    1TYR    SC2  531   3.869   1.873   3.763  0.0700  0.0019  0.0033
    1TYR    SC3  532   4.101   1.739   3.725 -0.1502 -0.4105  0.0407
    2HIS     BB  533   3.564   1.185   3.827 -0.0544 -0.2468 -0.0516
    2HIS    SC1  534   3.431   0.890   3.792 -0.4404 -0.0027 -0.0213
    2HIS    SC2  535   3.433   0.630   3.862 -0.2910  0.0014 -0.0060
    2HIS    SC3  536   3.510   0.703   3.614 -0.3204  0.0327 -0.0060
    3TYR     BB  537   3.464   1.317   4.084 -0.0582 -0.2180  0.0458
    3TYR    SC1  538   3.550   1.082   4.295 -0.0643 -0.3411 -0.2689
    3TYR    SC2  539   3.592   0.973   4.539  0.1923  0.1585 -0.0721
    3TYR    SC3  540   3.719   0.873   4.323  0.0175 -0.2451  0.0014
    1TYR     BB  541   5.653   2.989   4.372 -0.1097 -0.0219  0.1202
    1TYR    SC1  542   5.892   2.838   4.323 -0.3239 -0.0335 -0.0440
    1TYR    SC2  543   6.107   2.676   4.294 -0.2436  0.0855 -0.1283
    1TYR    SC3  544   5.958   2.743   4.080 -0.1847  0.2462 -0.1209
    2HIS     BB  545   5.706   3.261   4.499  0.0523  0.4422 -0.0284
    2HIS    SC1  546   5.923   3.189   4.680  0.0459  0.1426  0.2411
    2HIS    SC2  547   6.123   3.008   4.694  0.2071  0.3127  0.1872
    2HIS    SC3  548   5.999   3.092   4.920  0.0748  0.0776  0.2058
    3TYR     BB  549   5.430   3.480   4.626  0.0433  0.2907  0.2968
    3TYR    SC1  550   5.606   3.521   4.896  0.3612 -0.4159 -0.1964
    3TYR    SC2  551   5.812   3.603   5.051 -0.0562  0.3397  0.0158
    3TYR    SC3  552   5.557   3.663   5.119 -0.3261 -0.0614 -0.5351
    1TYR     BB  553   3.168   2.299   3.363  0.0269 -0.1894 -0.0382
    1TYR    SC1  554   2.970   2.547   3.385  0.1500  0.1513 -0.3631
    1TYR    SC2  555   2.810   2.759   3.334 -0.0760 -0.0109 -0.3445
    1TYR    SC3  556   2.721   2.556   3.488  0.2086 -0.0312 -0.1979
    2HIS     BB  557   3.061   2.142   3.660  0.1890 -0.0981  0.2838
    2HIS    SC1  558   3.243   1.924   3.763 -0.1093 -0.0457  0.1578
    2HIS    SC2  559   3.287   1.658   3.757 -0.0042 -0.0267 -0.2404
    2HIS    SC3  560   3.450   1.818   3.901  0.0025 -0.1632 -0.0920
    3TYR     BB  561   2.871   2.212   3.867 -0.3534  0.2230 -0.0363
    3TYR    SC1  562   2.598   2.253   3.833  0.1309  0.2972 -0.0336
    3TYR    SC2  563   2.375   2.270   3.683 -0.0636 -0.1544  0.1800
    3TYR    SC3  564   2.373   2.127   3.912  0.3419  0.1654  0.3998
    1TYR     BB  565   6.057   3.762   3.909 -0.0653  0.0856  0.0121
    1TYR    SC1  566   6.184   3.503   3.745  0.0574  0.1084 -0.0836
    1TYR    SC2  567   6.200   3.441   3.483  0.0787  0.4498 -0.1686
    1TYR    SC3  568   6.387   3.349   3.655 -0.0492  0.0509 -0.2304
    2HIS     BB  569   6.130   4.000   3.772  0.1033  0.2418  0.1393
    2HIS    SC1  570   6.354   4.150   3.964  0.0017  0.6598 -0.1526
    2HIS    SC2  571   6.343   4.110   4.231 -0.1629  0.0073 -0.2379
    2HIS    SC3  572   6.577   4.178   4.114 -0.0849  0.2807  0.0611
    3TYR     BB  573   6.112   3.960   3.457 -0.0594 -0.1914  0.0679
    3TYR    SC1  574   6.101   3.771   3.269 -0.0602  0.1417  0.1494
    3TYR    SC2  575   6.034   3.825   3.012  0.1987  0.3548  0.1215
    3TYR    SC3  576   6.212   3.629   3.067 -0.1796  0.0110  0.1740
    1TYR     BB  577   4.413   2.745   4.294  0.1923  0.2071  0.0599
    1TYR    SC1  578   4.519   2.808   4.586 -0.1700 -0.3982  0.1039
    1TYR    SC2  579   4.477   2.893   4.839  0.0346 -0.2357  0.0868
    1TYR    SC3  580   4.727   2.832   4.757  0.0896  0.3679 -0.2622
    2HIS     BB  581   4.336   2.388   4.190  0.1590  0.3087  0.0636
    2HIS    SC1  582   4.609   2.319   4.355 -0.0697 -0.0005 -0.0107
    2HIS    SC2  583   4.769   2.372   4.566 -0.1902 -0.1277  0.1155
    2HIS    SC3  584   4.801   2.143   4.427  0.2689  0.2010 -0.3711
    3TYR     BB  585   4.176   2.339   4.045 -0.0552 -0.3755  0.0282
    3TYR    SC1  586   4.209   2.351   3.734 -0.3018 -0.2734  0.1618
    3TYR    SC2  587   4.258   2.188   3.524 -0.0065 -0.1100  0.0965
    3TYR    SC3  588   4.350   2.442   3.523  0.2645 -0.1913  0.5458
    1TYR     BB  589   5.828   4.413   3.809 -0.1151 -0.0625  0.1868
    1TYR    SC1  590   5.749   4.279   4.044 -0.1625 -0.1188 -0.0181
    1TYR    SC2  591   5.738   4.147   4.280 -0.0151  0.3894  0.2929
    1TYR    SC3  592   5.535   4.308   4.204  0.0019  0.3416  0.1407
    2HIS     BB  593   5.657   4.180   3.584  0.5494  0.2413 -0.3409
    2HIS    SC1  594   5.735   4.269   3.284 -0.0352  0.4706 -0.0347
    2HIS    SC2  595   5.947   4.304   3.122  0.2501 -0.1943  0.1550
    2HIS    SC3  596   5.716   4.201   3.024  0.3423 -0.3709  0.1179
    3TYR     BB  597   5.607   3.922   3.675 -0.0517  0.0355 -0.2333
    3TYR    SC1  598   5.662   3.724   3.465 -0.3816 -0.3375  0.1223
    3TYR    SC2  599   5.771   3.477   3.461  0.0983 -0.1392  0.1312
    3TYR    SC3  600   5.672   3.584   3.234  0.1535 -0.2293  0.0634
    1TYR     BB  601   4.193   4.508   3.798 -0.1245 -0.0389 -0.1676
    1TYR    SC1  602   4.248   4.450   3.540 -0.3033 -0.0441  0.0659
    1TYR    SC2  603   4.266   4.548   3.289 -0.3115 -0.0066  0.0797
    1TYR    SC3  604   4.251   4.281   3.330 -0.0438 -0.0291  0.0535
    2HIS     BB  605   4.274   4.800   3.880  0.1323 -0.1986 -0.1397
    2HIS    SC1  606   4.218   4.960   4.162 -0.0320  0.2372 -0.1191
    2HIS    SC2  607   4.058   5.168   4.227 -0.3706 -0.0140 -0.1200
    2HIS    SC3  608   4.081   4.957   4.395 -0.0263  0.0192 -0.1162
    3TYR     BB  609   4.319   5.018   3.687  0.0270 -0.4515  0.0642
    3TYR    SC1  610   4.183   5.282   3.749  0.0256 -0.3113  0.0123
    3TYR    SC2  611   4.209   5.517   3.880  0.0077 -0.3148  0.0222
    3TYR    SC3  612   3.963   5.423   3.819  0.0172 -0.2833 -0.0678
    1TYR     BB  613   0.583   4.283   4.286 -0.0739  0.1546  0.1373
    1TYR    SC1  614   0.645   4.368   4.563  0.1292 -0.2638 -0.0650
    1TYR    SC2  615   0.605   4.316   4.824 -0.0579 -0.0915 -0.0562
    1TYR    SC3  616   0.694   4.559   4.748 -0.2750 -0.0451 -0.1693
    2HIS     BB  617   0.452   4.413   4.075 -0.1811  0.1287  0.1095
    2HIS    SC1  618   0.156   4.504   4.095 -0.0002 -0.2059 -0.2209
    2HIS    SC2  619   0.004   4.713   4.021  0.3406  0.0672 -0.1758
    2HIS    SC3  620  -0.110   4.500   4.141 -0.0126  0.2246 -0.2165
    3TYR     BB  621   0.605   4.264   3.808 -0.1364  0.0025 -0.0296
    3TYR    SC1  622   0.947   4.279   3.827 -0.0517  0.1735  0.0302
    3TYR    SC2  623   1.132   4.213   3.642 -0.1441  0.4620 -0.1746
    3TYR    SC3  624   1.134   4.092   3.884 -0.2104 -0.1578 -0.4589
    1TYR     BB  625   1.906   3.834   3.183 -0.3806 -0.0350 -0.1149
    1TYR    SC1  626   2.007   3.567   3.178 -0.0489  0.0704  0.2692
    1TYR    SC2  627   2.257   3.464   3.185  0.0169  0.1115 -0.4590
    1TYR    SC3  628   2.061   3.332   3.055 -0.3355  0.1265  0.0218
    2HIS     BB  629   1.641   3.895   3.232 -0.3305  0.0487  0.1658
    2HIS    SC1  630   1.537   3.983   2.938  0.0685  0.1539 -0.0418
    2HIS    SC2  631   1.503   3.868   2.696 -0.2631  0.1063  0.0215
    2HIS    SC3  632   1.423   4.123   2.737  0.1061  0.2353 -0.0075
    3TYR     BB  633   1.469   3.831   3.417 -0.4676 -0.0156 -0.0806
    3TYR    SC1  634   1.161   3.785   3.453 -0.0615 -0.3038  0.2004
    3TYR    SC2  635   0.972   3.617   3.547 -0.3110 -0.1327  0.0197
    3TYR    SC3  636   0.906   3.870   3.479 -0.0207 -0.0787 -0.0783
    1TYR     BB  637   7.284   4.982   3.238  0.0369 -0.2067  0.2698
    1TYR    SC1  638   7.566   4.983   3.065 -0.1019  0.0266  0.2745
    1TYR    SC2  639   7.778   4.882   2.931 -0.1762  0.1089  0.0910
    1TYR    SC3  640   7.635   5.085   2.825 -0.3077  0.0987  0.2442
    2HIS     BB  641   7.255   4.680   3.321  0.0748 -0.1799  0.1260
    2HIS    SC1  642   7.490   4.525   3.188  0.1076 -0.1218 -0.0764
    2HIS    SC2  643   7.701   4.402   3.074  0.0798 -0.2538  0.0133
    2HIS    SC3  644   7.454   4.297   3.050  0.0314 -0.1280 -0.0465
    3TYR     BB  645   7.245   4.415   3.611 -0.3661  0.1950  0.0196
    3TYR    SC1  646   7.378   4.206   3.508  0.0252  0.0043 -0.0560
    3TYR    SC2  647   7.367   3.973   3.374  0.1913 -0.1071  0.1194
    3TYR    SC3  648   7.603   4.061   3.472  0.1473  0.1818 -0.0248
    1TYR     BB  649   3.341   3.583   4.412  0.2118  0.0960 -0.3189
    1TYR    SC1  650   3.271   3.591   4.096 -0.0810  0.0029  0.1356
    1TYR    SC2  651   3.055   3.569   3.935 -0.1338  0.4886  0.1189
    1TYR    SC3  652   3.297   3.623   3.829 -0.0073  0.0317  0.1459
    2HIS     BB  653   3.045   3.562   4.569 -0.3884  0.3405  0.2538
    2HIS    SC1  654   2.950   3.660   4.820  0.0034 -0.3393  0.1207
    2HIS    SC2  655   2.955   3.752   5.073 -0.1977  0.1619 -0.0424
    2HIS    SC3  656   2.720   3.689   4.956 -0.1226  0.0924 -0.1591
    3TYR     BB  657   2.939   3.260   4.446 -0.2539  0.1086 -0.2865
    3TYR    SC1  658   2.679   3.135   4.432  0.1324 -0.0923  0.1315
    3TYR    SC2  659   2.560   2.901   4.495 -0.0860 -0.0186  0.0079
    3TYR    SC3  660   2.411   3.124   4.466  0.1098  0.1209  0.0468
    1TYR     BB  661   1.137   3.524   5.290  0.1511 -0.1446 -0.2214
    1TYR    SC1  662   1.326   3.296   5.297  0.1177  0.1442 -0.3711
    1TYR    SC2  663   1.417   3.047   5.245 -0.0606  0.0063 -0.0514
    1TYR    SC3  664   1.580   3.229   5.362  0.0778  0.0528 -0.3082
    2HIS     BB  665   1.400   3.757   5.219  0.1462 -0.3226  0.1160
    2HIS    SC1  666   1.615   3.599   5.056  0.0251  0.0203  0.1195
    2HIS    SC2  667   1.814   3.622   4.876 -0.0722  0.2449  0.0372
    2HIS    SC3  668   1.701   3.380   4.921 -0.0891  0.1940 -0.2487
    3TYR     BB  669   1.451   3.999   5.374 -0.3330  0.1716  0.4514
    3TYR    SC1  670   1.341   4.240   5.224  0.1852 -0.0228 -0.2778
    3TYR    SC2  671   1.484   4.454   5.140  0.2267  0.0918  0.0636
    3TYR    SC3  672   1.235   4.488   5.240  0.3094  0.0105  0.3055
    1TYR     BB  673   3.592   3.172   4.002 -0.3468 -0.1342 -0.0386
    1TYR    SC1  674   3.866   3.209   3.846  0.1557  0.4378 -0.0478
    1TYR    SC2  675   4.063   3.183   3.664  0.1615 -0.5682  0.0313
    1TYR    SC3  676   4.122   3.259   3.916  0.3530 -0.3811 -0.0654
    2HIS     BB  677   3.650   3.228   4.291  0.1161  0.1879  0.0989
    2HIS    SC1  678   3.919   3.201   4.354  0.0719 -0.4035  0.1667
    2HIS    SC2  679   4.186   3.235   4.378  0.0113  0.0916  0.2731
    2HIS    SC3  680   4.057   3.060   4.539  0.2458 -0.0323  0.3323
    3TYR     BB  681   3.427   3.120   4.488  0.1937 -0.0319 -0.2260
    3TYR    SC1  682   3.549   3.051   4.703  0.1550  0.2544 -0.0611
    3TYR    SC2  683   3.688   3.077   4.934 -0.0713 -0.0428  0.1192
    3TYR    SC3  684   3.632   2.832   4.838  0.1426  0.0738 -0.3398
    1TYR     BB  685   3.383   4.431   4.652 -0.0662 -0.0320  0.2066
    1TYR    SC1  686   3.479   4.543   4.872 -0.0552 -0.0848  0.2960
    1TYR    SC2  687   3.724   4.597   4.970  0.0099 -0.3788  0.3070
    1TYR    SC3  688   3.505   4.684   5.101  0.1030  0.0164  0.2178
    2HIS     BB  689   3.126   4.769   4.622  0.2024  0.1032  0.0931
    2HIS    SC1  690   3.186   4.934   4.919  0.1057 -0.0997 -0.1482
    2HIS    SC2  691   3.263   5.048   5.151 -0.3653  0.0240 -0.0411
    2HIS    SC3  692   3.191   5.203   4.943 -0.1940 -0.0874 -0.1867
    3TYR     BB  693   3.189   4.984   4.430 -0.1838 -0.1405 -0.2460
    3TYR    SC1  694   3.172   5.287   4.486 -0.0198  0.2384 -0.0640
    3TYR    SC2  695   3.125   5.541   4.411 -0.1423  0.2845  0.1576
    3TYR    SC3  696   3.303   5.489   4.607  0.2673  0.1572 -0.2270
    1TYR     BB  697   1.180   3.627   4.069 -0.1644  0.5897 -0.4837
    1TYR    SC1  698   0.904   3.663   4.010  0.0577 -0.2115 -0.0934
    1TYR    SC2  699   0.707   3.788   3.873 -0.1628 -0.5426 -0.0955
    1TYR    SC3  700   0.646   3.587   4.043  0.1398 -0.3711  0.2347
    2HIS     BB  701   1.389   3.551   3.860 -0.0346 -0.0117 -0.0211
    2HIS    SC1  702   1.368   3.356   3.662  0.1246  0.1327  0.0070
    2HIS    SC2  703   1.437   3.098   3.625 -0.2662 -0.0083  0.1907
    2HIS    SC3  704   1.270   3.221   3.451 -0.0111  0.1563  0.0534
    3TYR     BB  705   1.680   3.663   3.809  0.1253  0.1680 -0.0167
    3TYR    SC1  706   1.860   3.527   3.618  0.0475 -0.1505  0.2158
    3TYR    SC2  707   1.810   3.304   3.475  0.0403 -0.0181  0.0059
    3TYR    SC3  708   2.044   3.330   3.608 -0.0144 -0.2048  0.1441
    1TYR     BB  709   4.505   1.412   4.390  0.0811 -0.1818  0.0772
    1TYR    SC1  710   4.369   1.691   4.380  0.1138 -0.1601  0.0419
    1TYR    SC2  711   4.219   1.886   4.268 -0.4279 -0.5244  0.0913
    1TYR    SC3  712   4.387   1.945   4.470 -0.3396 -0.0659 -0.1032
    2HIS     BB  713   4.797   1.431   4.252  0.0536  0.1538  0.1907
    2HIS    SC1  714   4.942   1.221   4.062  0.0253  0.1869 -0.1587
    2HIS    SC2  715   4.992   0.956   4.056 -0.0081  0.1829 -0.3283
    2HIS    SC3  716   5.191   1.131   4.012  0.0748  0.1973  0.0544
    3TYR     BB  717   4.988   1.607   4.322  0.1371 -0.0862 -0.1885
    3TYR    SC1  718   5.266   1.551   4.218 -0.0319 -0.0690 -0.0989
    3TYR    SC2  719   5.501   1.527   4.086  0.0305 -0.1101  0.0178
    3TYR    SC3  720   5.475   1.427   4.335 -0.0956 -0.0599  0.0261
    1TYR     BB  721   5.316   5.649   4.095 -0.0887 -0.0329 -0.2144
    1TYR    SC1  722   5.122   5.568   4.316  0.1013 -0.1584 -0.0153
    1TYR    SC2  723   4.916   5.407   4.384 -0.2030  0.1637 -0.1363
    1TYR    SC3  724   5.001   5.599   4.555  0.0326  0.0066 -0.0697
    2HIS     BB  725   5.236   5.695   3.817 -0.0166  0.0068 -0.1262
    2HIS    SC1  726   5.439   5.832   3.661 -0.0754  0.0902  0.0571
    2HIS    SC2  727   5.524   5.787   3.408 -0.2388  0.2131 -0.0217
    2HIS    SC3  728   5.655   5.962   3.567 -0.2865  0.3313 -0.1109
    3TYR     BB  729   5.175   5.468   3.640  0.3065  0.1159  0.2965
    3TYR    SC1  730   4.993   5.660   3.433  0.2459  0.1963 -0.2328
    3TYR    SC2  731   4.774   5.810   3.383  0.0857  0.0414 -0.0183
    3TYR    SC3  732   5.019   5.918   3.354 -0.0175  0.2458 -0.1724
    1TYR     BB  733   2.082   3.494   4.132 -0.1620 -0.1189  0.0222
    1TYR    SC1  734   1.958   3.242   4.015  0.0261 -0.0118  0.1889
    1TYR    SC2  735   1.703   3.157   4.008 -0.0415  0.1820  0.2348
    1TYR    SC3  736   1.899   3.002   3.908 -0.1485 -0.0655  0.3957
    2HIS     BB  737   2.033   3.799   4.177  0.1212  0.2174 -0.0499
    2HIS    SC1  738   2.096   3.987   3.907  0.0645  0.1147 -0.1150
    2HIS    SC2  739   2.123   3.915   3.649  0.2044  0.1690 -0.1165
    2HIS    SC3  740   2.315   4.063   3.768  0.0958  0.2243 -0.0082
    3TYR     BB  741   1.956   3.882   4.447 -0.0306 -0.0160 -0.3471
    3TYR    SC1  742   2.011   4.176   4.529 -0.0851  0.0161  0.0432
    3TYR    SC2  743   1.993   4.421   4.640  0.1445  0.1041 -0.1060
    3TYR    SC3  744   1.985   4.394   4.372 -0.8009 -0.1378 -0.0956
    1TYR     BB  745   2.715   4.971   4.781  0.1305 -0.3968  0.1126
    1TYR    SC1  746   2.774   5.259   4.739 -0.2613  0.0417  0.1338
    1TYR    SC2  747   2.844   5.515   4.786  0.0974  0.0116 -0.1808
    1TYR    SC3  748   2.706   5.451   4.563 -0.1301 -0.0538 -0.0251
    2HIS     BB  749   2.481   4.957   5.002  0.2130 -0.1467  0.0134
    2HIS    SC1  750   2.286   5.211   4.960 -0.0458 -0.0737  0.0524
    2HIS    SC2  751   2.291   5.418   4.786  0.0064 -0.2015 -0.1009
    2HIS    SC3  752   2.065   5.362   4.923  0.0006 -0.0269 -0.0368
    3TYR     BB  753   2.373   4.665   5.018  0.0793 -0.1064 -0.0142
    3TYR    SC1  754   2.071   4.696   5.101  0.0434  0.0601  0.1205
    3TYR    SC2  755   1.918   4.769   5.312 -0.2118 -0.4615  0.1360
    3TYR    SC3  756   1.936   4.930   5.095 -0.4190 -0.1860  0.3150
    1TYR     BB  757   0.431   2.838   4.553 -0.3137 -0.1336  0.2082
    1TYR    SC1  758   0.340   2.888   4.245  0.0122  0.0242  0.0942
    1TYR    SC2  759   0.156   2.973   4.066  0.2066 -0.1649 -0.2080
    1TYR    SC3  760   0.407   3.074   4.060  0.1542  0.0063  0.1265
    2HIS     BB  761   0.749   2.852   4.618 -0.4315  0.1110 -0.0086
    2HIS    SC1  762   0.795   2.972   4.877  0.1574  0.1622 -0.3020
    2HIS    SC2  763   0.690   2.932   5.123  0.0313  0.3732 -0.3169
    2HIS    SC3  764   0.937   3.038   5.097  0.1738  0.0654 -0.2831
    3TYR     BB  765   0.900   2.781   4.320 -0.0648 -0.0678 -0.3589
    3TYR    SC1  766   1.147   2.984   4.379  0.0908  0.1132  0.1806
    3TYR    SC2  767   1.395   3.089   4.353  0.0181  0.2598  0.0623
    3TYR    SC3  768   1.180   3.252   4.372 -0.0849  0.1336  0.0038
    1TYR     BB  769   4.602   1.772   2.720  0.1704 -0.3792  0.0446
    1TYR    SC1  770   4.320   1.568   2.743  0.2276 -0.4826  0.4348
    1TYR    SC2  771   4.187   1.347   2.664 -0.1790 -0.2128  0.3249
    1TYR    SC3  772   4.051   1.574   2.719  0.2572  0.2455 -0.3070
    2HIS     BB  773   4.516   2.057   2.897  0.1546 -0.1107  0.0052
    2HIS    SC1  774   4.310   2.161   2.730  0.1416 -0.1806 -0.1176
    2HIS    SC2  775   4.089   2.216   2.585  0.0465  0.0888  0.1164
    2HIS    SC3  776   4.282   2.403   2.614  0.1210 -0.0047  0.2344
    3TYR     BB  777   4.686   2.155   3.119 -0.0611 -0.1693  0.1332
    3TYR    SC1  778   4.789   2.096   3.381 -0.0748  0.0857  0.3211
    3TYR    SC2  779   4.970   2.088   3.582  0.4137 -0.2439 -0.0957
    3TYR    SC3  780   4.769   1.908   3.574  0.1748 -0.0115  0.2582
    1TYR     BB  781   8.049   4.725   4.124 -0.1453 -0.2781  0.0149
    1TYR    SC1  782   7.904   4.521   3.938 -0.1365  0.3399 -0.2064
    1TYR    SC2  783   7.913   4.271   3.835 -0.0604  0.1941  0.1399
    1TYR    SC3  784   7.676   4.396   3.864 -0.1109  0.1119  0.0822
    2HIS     BB  785   7.984   4.941   4.318 -0.0030 -0.1831  0.0385
    2HIS    SC1  786   8.140   5.228   4.235  0.2816 -0.3774 -0.0004
    2HIS    SC2  787   8.219   5.405   4.422 -0.1955  0.0189 -0.1450
    2HIS    SC3  788   8.345   5.394   4.184 -0.1329  0.1349 -0.1183
    3TYR     BB  789   7.826   5.038   4.535 -0.1650  0.0157 -0.2807
    3TYR    SC1  790   7.559   4.900   4.551 -0.1830  0.2146 -0.2608
    3TYR    SC2  791   7.311   4.820   4.478 -0.1888 -0.2378  0.1947
    3TYR    SC3  792   7.384   4.816   4.739  0.2784 -0.0421  0.0791
    1TYR     BB  793   1.896   7.305   3.086 -0.3672 -0.0232 -0.2735
    1TYR    SC1  794   1.783   7.084   3.300 -0.0824  0.2110  0.0231
    1TYR    SC2  795   1.737   6.837   3.201  0.3531  0.0416  0.2196
    1TYR    SC3  796   1.678   6.892   3.459 -0.3895  0.3613  0.0132
    2HIS     BB  797   2.182   7.134   2.918 -0.0655  0.2581 -0.1177
    2HIS    SC1  798   2.400   7.172   3.124  0.4782  0.0273 -0.3464
    2HIS    SC2  799   2.352   7.226   3.384  0.0753  0.0127 -0.4112
    2HIS    SC3  800   2.552   7.057   3.316 -0.0543 -0.2892 -0.0856
    3TYR     BB  801   2.110   6.822   2.779 -0.0049  0.0398 -0.2177
    3TYR    SC1  802   1.792   6.891   2.733  0.2765  0.3953  0.3521
    3TYR    SC2  803   1.719   7.093   2.569  0.1606  0.0993  0.0239
    3TYR    SC3  804   1.559   7.021   2.774  0.0971  0.1980  0.0097
    1TYR     BB  805   3.435   4.535   3.734  0.0656 -0.0728 -0.1034
    1TYR    SC1  806   3.285   4.822   3.774  0.0008  0.3647 -0.2849
    1TYR    SC2  807   3.164   4.983   3.954  0.1408  0.2444 -0.0781
    1TYR    SC3  808   3.250   5.084   3.720  0.2168  0.4694  0.0432
    2HIS     BB  809   3.223   4.351   3.607  0.2363 -0.1742  0.2799
    2HIS    SC1  810   3.029   4.203   3.829 -0.1632 -0.2217 -0.4271
    2HIS    SC2  811   2.804   4.188   3.979  0.3457  0.0647  0.4599
    2HIS    SC3  812   2.915   3.963   3.879 -0.2775 -0.0857  0.0355
    3TYR     BB  813   3.095   4.366   3.242 -0.0951  0.2604  0.1513
    3TYR    SC1  814   2.982   4.588   3.113  0.2468 -0.1431 -0.1839
    3TYR    SC2  815   2.798   4.730   2.978  0.0982  0.1716  0.3150
    3TYR    SC3  816   3.060   4.794   2.957  0.1016  0.0831  0.0330
    1TYR     BB  817   1.664   5.460   3.235  0.2604  0.3126 -0.0410
    1TYR    SC1  818   1.439   5.620   3.301 -0.0710 -0.1716  0.4900
    1TYR    SC2  819   1.292   5.843   3.341  0.1646  0.0505  0.1775
    1TYR    SC3  820   1.174   5.600   3.348 -0.1644  0.2038  0.1862
    2HIS     BB  821   1.946   5.423   3.308  0.1008 -0.0971 -0.0668
    2HIS    SC1  822   2.105   5.475   3.054 -0.2982  0.1998 -0.3433
    2HIS    SC2  823   2.214   5.259   2.935  0.0094  0.1008  0.0859
    2HIS    SC3  824   2.215   5.498   2.809  0.1080 -0.0420 -0.1957
    3TYR     BB  825   2.053   5.218   3.560  0.3096 -0.0887  0.1143
    3TYR    SC1  826   2.278   5.260   3.696  0.0051  0.1119  0.0390
    3TYR    SC2  827   2.453   5.451   3.773 -0.1935  0.3288 -0.0335
    3TYR    SC3  828   2.481   5.198   3.864 -0.0378  0.4314  0.2192
    1TYR     BB  829   4.310   3.584   3.542  0.3006  0.1770  0.0337
    1TYR    SC1  830   4.446   3.507   3.263  0.1264  0.2716  0.0023
    1TYR    SC2  831   4.658   3.594   3.120 -0.0091  0.2176 -0.2386
    1TYR    SC3  832   4.431   3.522   2.994 -0.1063  0.0883  0.0016
    2HIS     BB  833   4.055   3.751   3.663 -0.1804 -0.2568  0.5693
    2HIS    SC1  834   3.800   3.616   3.611 -0.1659 -0.1401 -0.1710
    2HIS    SC2  835   3.621   3.435   3.523 -0.0161 -0.1532 -0.4644
    2HIS    SC3  836   3.615   3.688   3.428 -0.2637  0.0260 -0.0115
    3TYR     BB  837   3.997   4.036   3.782  0.0487  0.0578 -0.0427
    3TYR    SC1  838   3.827   4.124   3.516 -0.1091  0.3952  0.2400
    3TYR    SC2  839   3.621   4.125   3.342 -0.1548  0.2734  0.2916
    3TYR    SC3  840   3.792   4.333   3.349 -0.1146  0.2529  0.0577
    1TYR     BB  841   0.913   3.928   5.019 -0.2754 -0.2453  0.2852
    1TYR    SC1  842   0.946   4.005   5.334  0.0570  0.3144  0.1266
    1TYR    SC2  843   1.020   4.086   5.582  0.0595  0.0648  0.2099
    1TYR    SC3  844   0.861   3.869   5.551 -0.2500  0.3102  0.0085
    2HIS     BB  845   1.082   4.185   4.842  0.4309 -0.0576 -0.2307
    2HIS    SC1  846   0.960   4.071   4.574  0.2665 -0.1136  0.2033
    2HIS    SC2  847   1.018   4.008   4.317  0.1488  0.0748  0.1287
    2HIS    SC3  848   0.850   3.852   4.460  0.1628  0.0055  0.0695
    3TYR     BB  849   1.169   4.451   4.736 -0.1078 -0.1362 -0.0814
    3TYR    SC1  850   1.427   4.662   4.744  0.1191  0.2432 -0.0711
    3TYR    SC2  851   1.684   4.688   4.821  0.1072  0.4107 -0.0818
    3TYR    SC3  852   1.522   4.904   4.820 -0.1319  0.2460  0.2646
    1TYR     BB  853   2.562   6.648   2.924  0.0140 -0.3922  0.1212
    1TYR    SC1  854   2.496   6.533   2.662 -0.1553  0.1799  0.1252
    1TYR    SC2  855   2.334   6.441   2.467  0.1253 -0.1826  0.0448
    1TYR    SC3  856   2.478   6.666   2.428 -0.2420  0.0691  0.0677
    2HIS     BB  857   2.514   6.356   3.145 -0.0611 -0.3424 -0.1420
    2HIS    SC1  858   2.746   6.215   3.011  0.0192  0.3502  0.2259
    2HIS    SC2  859   2.845   6.222   2.760 -0.3270 -0.8083 -0.0247
    2HIS    SC3  860   3.012   6.191   2.971 -0.0363  0.1291 -0.0608
    3TYR     BB  861   2.302   6.236   3.224 -0.1501 -0.1601  0.1186
    3TYR    SC1  862   2.127   6.341   3.464  0.1874 -0.0982 -0.0307
    3TYR    SC2  863   2.048   6.187   3.672 -0.0920 -0.0060 -0.0639
    3TYR    SC3  864   1.949   6.436   3.643  0.0167  0.0175 -0.2566
    1TYR     BB  865   2.703   4.968   4.283  0.2062  0.0874 -0.1804
    1TYR    SC1  866   2.821   5.244   4.202 -0.1472 -0.2125 -0.3053
    1TYR    SC2  867   2.759   5.495   4.127  0.0510 -0.1972 -0.4246
    1TYR    SC3  868   2.941   5.353   3.988  0.0118 -0.3732 -0.3008
    2HIS     BB  869   2.387   5.061   4.369  0.2335  0.1281 -0.2137
    2HIS    SC1  870   2.334   5.327   4.287 -0.1711 -0.0447  0.1808
    2HIS    SC2  871   2.119   5.484   4.326 -0.2173 -0.1176  0.2222
    2HIS    SC3  872   2.344   5.589   4.223 -0.3206 -0.0716  0.0358
    3TYR     BB  873   2.082   4.924   4.594  0.1208  0.0120  0.0350
    3TYR    SC1  874   1.875   5.099   4.551 -0.4223 -0.2066  0.4530
    3TYR    SC2  875   1.639   5.159   4.434 -0.1306  0.1502 -0.0050
    3TYR    SC3  876   1.785   5.354   4.547 -0.0058 -0.0510  0.1923
    1TYR     BB  877   3.763   3.634   4.097  0.0466  0.0059 -0.0433
    1TYR    SC1  878   3.605   3.886   4.001  0.1626  0.3709  0.1049
    1TYR    SC2  879   3.489   4.021   3.797 -0.3083 -0.0369  0.0812
    1TYR    SC3  880   3.459   4.109   4.051 -0.0600  0.2489  0.0171
    2HIS     BB  881   4.007   3.730   4.314 -0.3547  0.1906  0.1591
    2HIS    SC1  882   3.907   3.605   4.599 -0.4125  0.1167 -0.0057
    2HIS    SC2  883   3.744   3.448   4.746  0.1531 -0.3527  0.1662
    2HIS    SC3  884   3.883   3.646   4.865 -0.1396 -0.0685  0.0527
    3TYR     BB  885   4.191   3.945   4.329  0.0478  0.0192  0.3636
    3TYR    SC1  886   4.122   4.272   4.369  0.1968 -0.0157 -0.0298
    3TYR    SC2  887   4.107   4.533   4.300 -0.3572 -0.0052  0.0781
    3TYR    SC3  888   4.129   4.462   4.560 -0.4281 -0.0672  0.0674
    1TYR     BB  889   2.503   1.597   3.091 -0.0725  0.1209 -0.1756
    1TYR    SC1  890   2.414   1.839   2.933 -0.1484  0.1238  0.3230
    1TYR    SC2  891   2.415   2.089   2.829 -0.2033 -0.0550 -0.1314
    1TYR    SC3  892   2.219   2.014   2.998 -0.2489  0.1749 -0.0797
    2HIS     BB  893   2.809   1.523   3.077 -0.1334  0.1395  0.0913
    2HIS    SC1  894   2.898   1.191   3.066 -0.1785  0.1676 -0.5499
    2HIS    SC2  895   2.752   0.970   3.122  0.2116  0.0171 -0.0183
    2HIS    SC3  896   2.999   0.945   3.014  0.5392  0.1069  0.6460
    3TYR     BB  897   3.039   1.709   3.274 -0.0540 -0.1536  0.4248
    3TYR    SC1  898   3.309   1.802   3.256 -0.0309  0.0323 -0.5743
    3TYR    SC2  899   3.534   1.775   3.403 -0.3369  0.0165 -0.0795
    3TYR    SC3  900   3.527   1.948   3.197  0.0923  0.0904 -0.0427
    1TYR     BB  901   6.657   3.230   4.304 -0.1322  0.1422 -0.1324
    1TYR    SC1  902   6.726   3.208   4.008  0.1085 -0.2286  0.2156
    1TYR    SC2  903   6.827   3.033   3.828 -0.4050 -0.0197 -0.3174
    1TYR    SC3  904   6.899   3.293   3.818  0.2824 -0.1333  0.4115
    2HIS     BB  905   6.390   3.320   4.384 -0.1940 -0.3318 -0.0316
    2HIS    SC1  906   6.331   3.412   4.716 -0.0599 -0.1994  0.1302
    2HIS    SC2  907   6.227   3.442   4.964  0.0801 -0.3137  0.2042
    2HIS    SC3  908   6.490   3.485   4.922  0.0117 -0.0465  0.0223
    3TYR     BB  909   6.161   3.304   4.229  0.0286  0.0584  0.2302
    3TYR    SC1  910   6.246   3.069   4.010  0.0571 -0.1816  0.1657
    3TYR    SC2  911   6.277   2.911   3.793 -0.0918 -0.3309  0.2509
    3TYR    SC3  912   6.419   2.862   4.017 -0.0240 -0.2476  0.2269
    1TYR     BB  913   7.330   4.319   4.774 -0.0132 -0.2338 -0.0338
    1TYR    SC1  914   7.591   4.360   4.568  0.3826 -0.2911  0.0032
    1TYR    SC2  915   7.682   4.535   4.383 -0.1497  0.0659  0.0546
    1TYR    SC3  916   7.696   4.269   4.336  0.2341  0.1279 -0.2407
    2HIS     BB  917   7.061   4.375   4.551 -0.1140  0.0051 -0.0528
    2HIS    SC1  918   6.938   4.639   4.583  0.0276  0.0423  0.0013
    2HIS    SC2  919   6.936   4.876   4.715  0.2162 -0.0295  0.1368
    2HIS    SC3  920   6.710   4.784   4.600  0.0191 -0.0081  0.4922
    3TYR     BB  921   6.974   4.158   4.422  0.0472  0.2374  0.3570
    3TYR    SC1  922   7.270   3.945   4.429 -0.1733 -0.1709  0.2537
    3TYR    SC2  923   7.473   3.804   4.320 -0.1472 -0.0677  0.1665
    3TYR    SC3  924   7.493   3.896   4.573 -0.1681 -0.2261  0.2274
    1TYR     BB  925   4.479   0.946   4.170  0.1122  0.2344 -0.1657
    1TYR    SC1  926   4.589   0.953   3.905 -0.0585 -0.2857 -0.0614
    1TYR    SC2  927   4.492   0.950   3.653 -0.1848 -0.0559 -0.0187
    1TYR    SC3  928   4.707   0.799   3.717 -0.0131  0.0511 -0.3197
    2HIS     BB  929   4.183   1.059   4.170 -0.1056  0.2787 -0.1133
    2HIS    SC1  930   4.110   1.087   4.468  0.5618 -0.0722  0.1762
    2HIS    SC2  931   4.009   0.975   4.692 -0.1384 -0.0248 -0.0874
    2HIS    SC3  932   3.981   1.240   4.649 -0.3183 -0.0840 -0.3702
    3TYR     BB  933   4.117   1.250   4.011  0.1077 -0.2113  0.3294
    3TYR    SC1  934   3.996   1.474   4.158  0.2523  0.0930  0.0067
    3TYR    SC2  935   3.796   1.654   4.144  0.0783 -0.0948  0.0097
    3TYR    SC3  936   3.904   1.591   4.383 -0.0010 -0.1424  0.0335
    1TYR     BB  937   2.711   2.136   3.256 -0.1112 -0.0696  0.1860
    1TYR    SC1  938   2.446   2.336   3.211 -0.3379 -0.0564 -0.3765
    1TYR    SC2  939   2.205   2.444   3.266 -0.2710 -0.0277 -0.1258
    1TYR    SC3  940   2.366   2.561   3.084 -0.2634  0.2119  0.0286
    2HIS     BB  941   2.633   1.897   3.444  0.0958  0.1145 -0.0488
    2HIS    SC1  942   2.323   1.863   3.469  0.0445  0.0448  0.1880
    2HIS    SC2  943   2.106   1.758   3.592 -0.0039 -0.2562 -0.1350
    2HIS    SC3  944   2.092   2.003   3.478 -0.0932 -0.1674  0.0623
    3TYR     BB  945   2.746   1.753   3.678 -0.0901  0.0637  0.1004
    3TYR    SC1  946   2.589   1.734   3.902  0.2708 -0.0894  0.2517
    3TYR    SC2  947   2.336   1.685   3.982  0.0662  0.1633 -0.1972
    3TYR    SC3  948   2.517   1.781   4.158 -0.2031  0.1747  0.0850
    1TYR     BB  949   3.854   4.780   3.549 -0.1667 -0.1084 -0.1445
    1TYR    SC1  950   3.610   4.796   3.347 -0.2169  0.0412  0.1839
    1TYR    SC2  951   3.359   4.883   3.297 -0.1437  0.1660  0.0229
    1TYR    SC3  952   3.462   4.680   3.154 -0.1893  0.0431  0.1618
    2HIS     BB  953   3.751   5.001   3.747  0.2029 -0.0977 -0.2008
    2HIS    SC1  954   3.643   5.208   3.573  0.2197  0.1328  0.1089
    2HIS    SC2  955   3.558   5.299   3.333 -0.2753  0.0075  0.2231
    2HIS    SC3  956   3.497   5.436   3.557 -0.2240 -0.1203  0.3167
    3TYR     BB  957   3.689   4.928   4.036  0.2674  0.2226  0.0151
    3TYR    SC1  958   3.725   4.641   4.082  0.0710 -0.1980  0.0003
    3TYR    SC2  959   3.806   4.385   4.061  0.0906 -0.2174  0.2608
    3TYR    SC3  960   3.709   4.476   4.295 -0.0474 -0.0219  0.1319
   7.68218   7.68218   7.68218
