Generated by trjconv : Martini system from ../2_Creating_coordinates/TYR-ARG-TYR_aa.pdb t=   0.00000
 1100
    1TYR     BB    1   5.598   2.165   5.493  0.1707 -0.1779  0.0135
    1TYR    SC1    2   5.527   1.870   5.354 -0.0457 -0.1100  0.1930
    1TYR    SC2    3   5.494   1.602   5.356  0.3420 -0.1734 -0.1598
    1TYR    SC3    4   5.348   1.755   5.188 -0.0231 -0.1266  0.1802
    2ARG     BB    5   5.912   2.293   5.552  0.1675 -0.2285  0.0014
    2ARG    SC1    6   6.007   2.215   5.827  0.2641 -0.1082  0.1744
    2ARG    SC2    7   6.189   2.451   6.042 -0.1127  0.1137 -0.0635
    3TYR     BB    8   6.124   2.567   5.511  0.3066  0.0516 -0.1861
    3TYR    SC1    9   6.353   2.529   5.339  0.2301 -0.1557  0.1452
    3TYR    SC2   10   6.501   2.630   5.137 -0.0556  0.1169  0.0621
    3TYR    SC3   11   6.514   2.367   5.197  0.4382  0.1275  0.0465
    1TYR     BB   12   4.866   3.881   5.255  0.0031 -0.1565 -0.1599
    1TYR    SC1   13   4.618   3.850   5.058  0.0189 -0.0243  0.0241
    1TYR    SC2   14   4.370   3.771   4.984  0.0925 -0.4410  0.1878
    1TYR    SC3   15   4.549   3.849   4.797 -0.1473 -0.1619  0.0661
    2ARG     BB   16   5.131   4.015   5.073  0.1931 -0.0955 -0.2561
    2ARG    SC1   17   5.022   3.976   4.775 -0.1067  0.2399 -0.2657
    2ARG    SC2   18   4.951   4.196   4.536  0.1622 -0.0184 -0.2526
    3TYR     BB   19   5.282   4.318   5.111  0.3018 -0.0678 -0.1735
    3TYR    SC1   20   5.337   4.494   4.876  0.2951 -0.0558 -0.0711
    3TYR    SC2   21   5.258   4.692   4.709  0.6131  0.2435  0.1167
    3TYR    SC3   22   5.357   4.461   4.608  0.0902  0.0989 -0.1084
    1TYR     BB   23   5.396   4.602   5.570 -0.1371  0.1420  0.4346
    1TYR    SC1   24   5.324   4.291   5.639 -0.1189 -0.0385 -0.0146
    1TYR    SC2   25   5.482   4.079   5.585  0.0180  0.0800 -0.0899
    1TYR    SC3   26   5.214   4.047   5.602  0.0347 -0.0929 -0.1246
    2ARG     BB   27   5.689   4.578   5.653  0.0349 -0.0281 -0.0188
    2ARG    SC1   28   5.903   4.804   5.577  0.0787 -0.1560 -0.2839
    2ARG    SC2   29   5.936   5.055   5.340  0.2704  0.0311 -0.2369
    3TYR     BB   30   5.809   4.454   5.924 -0.0101 -0.1515  0.2248
    3TYR    SC1   31   6.034   4.633   6.037  0.0871  0.2197 -0.0567
    3TYR    SC2   32   6.211   4.825   5.967 -0.0496  0.2909 -0.2169
    3TYR    SC3   33   6.251   4.679   6.190  0.1850  0.3373 -0.2258
    1TYR     BB   34   6.211   2.854   1.446  0.1952  0.0159 -0.2828
    1TYR    SC1   35   6.213   2.811   1.135 -0.4271  0.1621 -0.0897
    1TYR    SC2   36   6.206   2.651   0.917  0.0589  0.2245 -0.1661
    1TYR    SC3   37   6.024   2.849   0.945 -0.3238 -0.0978 -0.2515
    2ARG     BB   38   6.030   2.667   1.573  0.1920  0.0709 -0.0449
    2ARG    SC1   39   6.020   2.358   1.420 -0.1869  0.0547  0.3430
    2ARG    SC2   40   6.046   2.212   1.125  0.0788 -0.3007 -0.0090
    3TYR     BB   41   5.908   2.633   1.780 -0.1589 -0.2164  0.1541
    3TYR    SC1   42   5.952   2.554   2.075  0.2338  0.1478 -0.0219
    3TYR    SC2   43   5.927   2.653   2.326 -0.4615 -0.1436  0.0528
    3TYR    SC3   44   5.922   2.386   2.284  0.3702 -0.1528 -0.2357
    1TYR     BB   45   2.485   3.210   3.572 -0.2671 -0.1998 -0.2983
    1TYR    SC1   46   2.618   3.456   3.561  0.0776 -0.1909  0.4072
    1TYR    SC2   47   2.595   3.725   3.541 -0.2586 -0.2433 -0.2465
    1TYR    SC3   48   2.821   3.616   3.641 -0.2162  0.2698  0.2824
    2ARG     BB   49   2.514   3.032   3.808  0.2331  0.0899  0.2687
    2ARG    SC1   50   2.456   2.744   3.757  0.2511  0.1659  0.0038
    2ARG    SC2   51   2.244   2.641   3.601  0.2555 -0.1047  0.0915
    3TYR     BB   52   2.412   3.098   4.086  0.1790 -0.0535  0.0501
    3TYR    SC1   53   2.507   3.397   4.136  0.1842 -0.0539  0.3146
    3TYR    SC2   54   2.519   3.610   3.971 -0.3955 -0.1323  0.1404
    3TYR    SC3   55   2.718   3.564   4.147 -0.0509  0.3000 -0.1089
    1TYR     BB   56   2.301   6.136   0.661  0.1600 -0.0638 -0.1399
    1TYR    SC1   57   2.477   5.975   0.819  0.1155  0.2451 -0.1815
    1TYR    SC2   58   2.708   5.852   0.886  0.2665  0.3270 -0.5214
    1TYR    SC3   59   2.581   6.008   1.066  0.3506  0.1018 -0.2564
    2ARG     BB   60   2.042   6.021   0.561 -0.0654 -0.1409 -0.2041
    2ARG    SC1   61   1.817   6.059   0.796 -0.0239  0.0467 -0.1438
    2ARG    SC2   62   1.554   5.901   0.905 -0.0431 -0.3288  0.0262
    3TYR     BB   63   1.941   5.730   0.468  0.0853 -0.1537 -0.2047
    3TYR    SC1   64   1.767   5.539   0.637  0.2569  0.0599  0.1475
    3TYR    SC2   65   1.538   5.413   0.708  0.3574 -0.2369 -0.0316
    3TYR    SC3   66   1.737   5.443   0.888  0.0579  0.3392  0.2365
    1TYR     BB   67   5.149   2.952   6.536 -0.3417  0.4317 -0.2126
    1TYR    SC1   68   5.333   3.168   6.584  0.0257  0.0951  0.2134
    1TYR    SC2   69   5.599   3.194   6.624  0.0410  0.1810  0.0639
    1TYR    SC3   70   5.433   3.401   6.676  0.0025  0.1272  0.1581
    2ARG     BB   71   5.157   2.679   6.606  0.2707 -0.0346 -0.2246
    2ARG    SC1   72   4.905   2.586   6.801 -0.3127  0.1285 -0.0352
    2ARG    SC2   73   4.707   2.424   7.005  0.2825 -0.0892 -0.1624
    3TYR     BB   74   5.190   2.453   6.310  0.3428 -0.1974  0.1448
    3TYR    SC1   75   4.891   2.537   6.251 -0.2121  0.5275  0.0200
    3TYR    SC2   76   4.675   2.544   6.089 -0.0640 -0.0575 -0.2351
    3TYR    SC3   77   4.643   2.548   6.357 -0.4118 -0.3028 -0.2640
    1TYR     BB   78   5.864   3.157   1.287 -0.2080  0.0053 -0.0528
    1TYR    SC1   79   5.674   2.886   1.247 -0.1273 -0.0906  0.0452
    1TYR    SC2   80   5.449   2.756   1.321  0.1096 -0.2603  0.5204
    1TYR    SC3   81   5.650   2.621   1.200 -0.0856 -0.0784 -0.0476
    2ARG     BB   82   5.780   3.403   1.381 -0.0100  0.3465 -0.4158
    2ARG    SC1   83   5.875   3.661   1.186  0.1787 -0.1522 -0.1011
    2ARG    SC2   84   5.805   3.925   0.972  0.0694 -0.0082 -0.1401
    3TYR     BB   85   5.662   3.544   1.604  0.1514  0.2841  0.0421
    3TYR    SC1   86   5.790   3.633   1.829 -0.1055 -0.1529  0.1541
    3TYR    SC2   87   5.932   3.602   2.057  0.2556 -0.0604 -0.0477
    3TYR    SC3   88   6.012   3.781   1.871 -0.1268 -0.0139 -0.1791
    1TYR     BB   89   1.680   3.525   1.765 -0.0824 -0.1586 -0.2709
    1TYR    SC1   90   1.823   3.302   1.895 -0.4953 -0.2501  0.5209
    1TYR    SC2   91   2.007   3.292   2.092 -0.1359 -0.3441  0.1956
    1TYR    SC3   92   1.977   3.082   1.925  0.0472 -0.0288 -0.2578
    2ARG     BB   93   1.371   3.561   1.785  0.1314  0.0406 -0.0896
    2ARG    SC1   94   1.210   3.300   1.901  0.3111 -0.1300 -0.3278
    2ARG    SC2   95   1.070   3.200   2.189  0.0374 -0.1427  0.1366
    3TYR     BB   96   1.172   3.767   1.888  0.2748 -0.1599 -0.0512
    3TYR    SC1   97   1.024   3.707   2.157 -0.2605  0.2575  0.1620
    3TYR    SC2   98   1.103   3.630   2.404 -0.1482  0.1131  0.0832
    3TYR    SC3   99   0.984   3.870   2.369 -0.0014  0.2133  0.2499
    1TYR     BB  100   6.316   2.305   1.786  0.2677  0.0852  0.0820
    1TYR    SC1  101   6.595   2.424   1.751  0.0095  0.0633 -0.3316
    1TYR    SC2  102   6.861   2.400   1.793 -0.0699 -0.0504  0.1925
    1TYR    SC3  103   6.746   2.644   1.797 -0.0056 -0.0199  0.2000
    2ARG     BB  104   6.334   2.062   1.940 -0.0572 -0.2400 -0.0237
    2ARG    SC1  105   6.564   1.871   1.965  0.2794 -0.0742 -0.1761
    2ARG    SC2  106   6.657   1.575   2.107  0.0226  0.0895  0.1763
    3TYR     BB  107   6.122   1.949   2.170 -0.0800  0.1633 -0.2030
    3TYR    SC1  108   6.313   1.923   2.420 -0.1849  0.0668 -0.0691
    3TYR    SC2  109   6.292   1.853   2.680  0.0159  0.3733  0.0361
    3TYR    SC3  110   6.531   1.838   2.555 -0.0880  0.1871 -0.1468
    1TYR     BB  111   5.418   3.115   4.512  0.2707  0.2582  0.1931
    1TYR    SC1  112   5.141   3.059   4.568  0.0018  0.1652 -0.3729
    1TYR    SC2  113   4.928   3.069   4.734  0.1700 -0.0966 -0.1287
    1TYR    SC3  114   5.001   2.835   4.620  0.3418 -0.0156 -0.1907
    2ARG     BB  115   5.631   2.979   4.263  0.0329  0.1685 -0.0643
    2ARG    SC1  116   5.569   3.116   3.995 -0.1134  0.0982  0.2574
    2ARG    SC2  117   5.787   3.006   3.751 -0.2866  0.1179  0.1829
    3TYR     BB  118   5.742   2.719   4.169  0.1047 -0.2157  0.1184
    3TYR    SC1  119   5.962   2.600   4.051 -0.1253 -0.1489 -0.1679
    3TYR    SC2  120   6.065   2.354   4.009  0.0859 -0.1133  0.1079
    3TYR    SC3  121   6.201   2.573   3.930 -0.2207 -0.0793 -0.3783
    1TYR     BB  122   4.534   2.479   1.241 -0.1016  0.0722  0.0865
    1TYR    SC1  123   4.339   2.287   1.425  0.3980 -0.1901 -0.0414
    1TYR    SC2  124   4.354   2.089   1.607 -0.1429 -0.1422  0.0765
    1TYR    SC3  125   4.195   2.062   1.391  0.2506 -0.0710 -0.2385
    2ARG     BB  126   4.434   2.777   1.271  0.1113 -0.0773  0.0158
    2ARG    SC1  127   4.346   2.992   1.007  0.0890  0.0338 -0.0722
    2ARG    SC2  128   4.263   3.176   0.729  0.1949 -0.0639 -0.1880
    3TYR     BB  129   4.548   2.947   1.536 -0.2061  0.0423  0.0542
    3TYR    SC1  130   4.726   3.197   1.433  0.0543  0.0987 -0.3775
    3TYR    SC2  131   4.692   3.443   1.538 -0.2624  0.0308 -0.3073
    3TYR    SC3  132   4.821   3.413   1.303  0.4352  0.1906  0.0251
    1TYR     BB  133   5.717   1.593   1.359 -0.0302 -0.1265 -0.1452
    1TYR    SC1  134   5.700   1.658   1.674  0.0415 -0.0016  0.2109
    1TYR    SC2  135   5.734   1.701   1.938  0.1632  0.1663  0.1702
    1TYR    SC3  136   5.504   1.775   1.817 -0.0214 -0.1912  0.2837
    2ARG     BB  137   5.628   1.882   1.292 -0.0156 -0.1146  0.2585
    2ARG    SC1  138   5.618   1.899   0.946  0.0290 -0.1685 -0.3310
    2ARG    SC2  139   5.624   1.943   0.645 -0.0110 -0.1744 -0.1626
    3TYR     BB  140   5.553   2.199   1.415  0.2201 -0.1397 -0.0634
    3TYR    SC1  141   5.616   2.187   1.692 -0.1127  0.2438  0.1704
    3TYR    SC2  142   5.604   2.193   1.962 -0.0547 -0.1802  0.1913
    3TYR    SC3  143   5.831   2.113   1.839 -0.1181 -0.0991  0.0175
    1TYR     BB  144   1.109   3.632   0.850  0.0428 -0.0347 -0.0496
    1TYR    SC1  145   1.028   3.539   1.125  0.0278  0.1247  0.0597
    1TYR    SC2  146   0.909   3.665   1.332 -0.0957  0.0006  0.0655
    1TYR    SC3  147   1.021   3.422   1.368 -0.0130  0.0307  0.0140
    2ARG     BB  148   1.377   3.610   0.791  0.0644 -0.0906  0.0265
    2ARG    SC1  149   1.528   3.376   0.623 -0.0651  0.0273 -0.0775
    2ARG    SC2  150   1.530   3.067   0.492  0.1025 -0.2784 -0.0632
    3TYR     BB  151   1.574   3.875   0.756 -0.1673  0.2365  0.0208
    3TYR    SC1  152   1.605   4.044   0.546  0.0556 -0.1048 -0.0812
    3TYR    SC2  153   1.795   4.126   0.372  0.1505 -0.1432  0.0030
    3TYR    SC3  154   1.559   4.032   0.280  0.0633  0.1590 -0.0978
    1TYR     BB  155   5.588   3.054   1.729  0.0199  0.0029  0.0455
    1TYR    SC1  156   5.468   2.817   1.860 -0.1700  0.0107  0.2626
    1TYR    SC2  157   5.385   2.569   1.792 -0.0946  0.0469  0.0231
    1TYR    SC3  158   5.479   2.617   2.041  0.1848 -0.2424 -0.0180
    2ARG     BB  159   5.841   3.141   1.865  0.1007  0.0668 -0.1847
    2ARG    SC1  160   6.062   3.245   1.718  0.0694  0.1668  0.1655
    2ARG    SC2  161   6.250   3.425   1.533 -0.1210 -0.1103  0.1475
    3TYR     BB  162   5.869   3.134   2.193  0.0391 -0.0188  0.1271
    3TYR    SC1  163   5.723   3.322   2.351 -0.1110 -0.1852  0.1114
    3TYR    SC2  164   5.734   3.543   2.505 -0.0910 -0.0673 -0.0559
    3TYR    SC3  165   5.562   3.345   2.566 -0.1311  0.0075  0.0782
    1TYR     BB  166   5.108   1.920   1.182  0.1510  0.1443 -0.1256
    1TYR    SC1  167   5.139   1.680   1.361 -0.2215 -0.2286 -0.0183
    1TYR    SC2  168   5.131   1.618   1.624 -0.0456 -0.0527  0.0314
    1TYR    SC3  169   5.026   1.449   1.442 -0.0706 -0.2283  0.2053
    2ARG     BB  170   5.108   2.215   1.252  0.1032 -0.1855  0.2742
    2ARG    SC1  171   5.309   2.358   1.000  0.0812  0.1035 -0.1971
    2ARG    SC2  172   5.022   2.458   0.798  0.0089 -0.1759 -0.1561
    3TYR     BB  173   5.010   2.484   1.394 -0.4498 -0.0850  0.2048
    3TYR    SC1  174   4.803   2.483   1.636 -0.1963  0.4269  0.0654
    3TYR    SC2  175   4.578   2.518   1.782 -0.2735 -0.1406  0.1116
    3TYR    SC3  176   4.742   2.310   1.835 -0.0309 -0.0638 -0.2859
    1TYR     BB  177   5.540   1.604   2.817  0.0431  0.1978  0.2160
    1TYR    SC1  178   5.849   1.507   2.853  0.2196  0.0527 -0.0859
    1TYR    SC2  179   6.105   1.437   2.905  0.2868  0.0129 -0.4355
    1TYR    SC3  180   5.906   1.352   3.067  0.4685 -0.1562 -0.2942
    2ARG     BB  181   5.396   1.349   2.719 -0.0026 -0.2475 -0.0619
    2ARG    SC1  182   5.475   1.152   2.935  0.0632 -0.1217  0.2385
    2ARG    SC2  183   5.623   0.858   2.937  0.0871 -0.1137 -0.0079
    3TYR     BB  184   5.307   1.363   2.387  0.2010 -0.1529 -0.1621
    3TYR    SC1  185   5.387   1.336   2.091 -0.2000 -0.0645  0.1903
    3TYR    SC2  186   5.358   1.305   1.824  0.2277 -0.0680  0.1367
    3TYR    SC3  187   5.555   1.174   1.955  0.0587 -0.0226  0.4480
    1TYR     BB  188   5.898   3.097   7.468 -0.2961 -0.2498 -0.1650
    1TYR    SC1  189   5.894   2.811   7.421  0.1169 -0.0465  0.1512
    1TYR    SC2  190   5.942   2.558   7.343  0.1854  0.0700 -0.2069
    1TYR    SC3  191   5.702   2.623   7.446  0.1942 -0.1532 -0.0350
    2ARG     BB  192   5.956   3.170   7.800 -0.1437  0.0183 -0.0588
    2ARG    SC1  193   6.124   2.865   7.863  0.2337 -0.1147 -0.3055
    2ARG    SC2  194   5.979   2.565   7.871  0.0123 -0.4891  0.3115
    3TYR     BB  195   5.746   3.409   7.969 -0.0850  0.0185  0.2138
    3TYR    SC1  196   5.937   3.604   8.043 -0.1789 -0.0193 -0.2318
    3TYR    SC2  197   6.173   3.732   8.013 -0.1568  0.0033  0.0102
    3TYR    SC3  198   6.093   3.652   8.258 -0.2224 -0.3509 -0.1182
    1TYR     BB  199   4.094   3.731   5.384  0.0103 -0.1592  0.2163
    1TYR    SC1  200   4.374   3.662   5.436 -0.1446 -0.1570  0.2598
    1TYR    SC2  201   4.583   3.510   5.359 -0.0419  0.0929  0.0245
    1TYR    SC3  202   4.549   3.571   5.620  0.0769 -0.0923  0.0857
    2ARG     BB  203   3.942   4.000   5.603  0.1309  0.1060 -0.3323
    2ARG    SC1  204   3.694   3.826   5.714  0.1252 -0.3813 -0.1949
    2ARG    SC2  205   3.429   3.785   5.866 -0.1737 -0.0220 -0.1451
    3TYR     BB  206   3.859   4.267   5.483 -0.2947  0.0171  0.0362
    3TYR    SC1  207   3.977   4.252   5.175  0.0924 -0.1597 -0.0775
    3TYR    SC2  208   4.153   4.152   4.997  0.2108  0.1592 -0.1484
    3TYR    SC3  209   3.957   4.319   4.915 -0.0859 -0.1306 -0.0580
    1TYR     BB  210   1.524   5.195   1.298 -0.1208  0.5815  0.2528
    1TYR    SC1  211   1.384   5.085   1.050  0.1825  0.0461 -0.0447
    1TYR    SC2  212   1.438   4.997   0.800 -0.2288 -0.0896 -0.0954
    1TYR    SC3  213   1.183   5.001   0.890 -0.0769 -0.1786  0.3767
    2ARG     BB  214   1.466   5.521   1.306 -0.1711  0.1041 -0.2870
    2ARG    SC1  215   1.248   5.565   1.515  0.0011  0.3191 -0.1541
    2ARG    SC2  216   1.094   5.758   1.717  0.0680 -0.1605  0.3088
    3TYR     BB  217   1.809   5.705   1.365  0.4541 -0.0233 -0.1050
    3TYR    SC1  218   2.040   5.668   1.150  0.1934  0.2666  0.1914
    3TYR    SC2  219   2.306   5.628   1.134  0.1837  0.2891 -0.0814
    3TYR    SC3  220   2.159   5.645   0.909 -0.0988 -0.0473  0.0663
    1TYR     BB  221   2.204   6.035   0.106 -0.1550  0.0985  0.0724
    1TYR    SC1  222   2.207   6.213  -0.145 -0.0857  0.1646  0.2004
    1TYR    SC2  223   2.193   6.343  -0.382 -0.3117  0.3069  0.2876
    1TYR    SC3  224   2.408   6.189  -0.325 -0.2447  0.2868  0.0007
    2ARG     BB  225   2.442   5.824   0.210 -0.0513 -0.0666  0.0691
    2ARG    SC1  226   2.627   5.766  -0.017  0.1197 -0.1864  0.3635
    2ARG    SC2  227   2.591   5.725  -0.343  0.4698 -0.0546  0.2922
    3TYR     BB  228   2.448   5.702   0.436 -0.1350 -0.0474 -0.1625
    3TYR    SC1  229   2.626   5.523   0.606 -0.3084 -0.1045 -0.0150
    3TYR    SC2  230   2.526   5.323   0.757 -0.1790  0.0029  0.2201
    3TYR    SC3  231   2.768   5.428   0.816 -0.1599  0.0993 -0.0192
    1TYR     BB  232   2.742   2.887   3.265  0.2517  0.1390  0.5156
    1TYR    SC1  233   2.582   2.615   3.244  0.0768  0.0898  0.0732
    1TYR    SC2  234   2.659   2.370   3.161  0.1143  0.1686 -0.1329
    1TYR    SC3  235   2.401   2.448   3.134  0.0705  0.1017  0.0653
    2ARG     BB  236   2.924   3.079   3.388  0.1121  0.2249  0.0997
    2ARG    SC1  237   3.019   3.100   3.691 -0.0903 -0.3273 -0.0608
    2ARG    SC2  238   2.977   3.148   4.006  0.3068 -0.1954  0.0961
    3TYR     BB  239   3.085   3.221   3.170  0.0479 -0.0210 -0.1638
    3TYR    SC1  240   3.201   3.490   3.351  0.1485 -0.1849  0.0436
    3TYR    SC2  241   3.338   3.722   3.374  0.0224 -0.1216  0.1746
    3TYR    SC3  242   3.280   3.577   3.594 -0.2011 -0.0999  0.1334
    1TYR     BB  243   1.814   4.277   0.899 -0.1982  0.0770  0.2116
    1TYR    SC1  244   2.030   4.124   0.772 -0.2676  0.2631 -0.1367
    1TYR    SC2  245   2.159   3.991   0.576 -0.1671  0.0075  0.0951
    1TYR    SC3  246   2.255   3.986   0.828 -0.1026  0.6098  0.1011
    2ARG     BB  247   1.523   4.293   1.003 -0.2798 -0.3393  0.1752
    2ARG    SC1  248   1.344   4.083   1.096 -0.0596  0.0615  0.1561
    2ARG    SC2  249   1.371   3.838   1.268  0.1177 -0.1010 -0.0119
    3TYR     BB  250   1.515   4.573   1.144  0.2002  0.4863  0.0241
    3TYR    SC1  251   1.272   4.714   1.235  0.2016  0.0862  0.1396
    3TYR    SC2  252   1.037   4.630   1.338 -0.0145  0.1755 -0.2562
    3TYR    SC3  253   1.162   4.845   1.444 -0.0116  0.0197  0.0721
    1TYR     BB  254   2.835   4.593   1.933 -0.1782  0.1017 -0.1298
    1TYR    SC1  255   2.623   4.771   2.020 -0.1890 -0.2925 -0.1974
    1TYR    SC2  256   2.366   4.845   1.985 -0.0944  0.0886 -0.1369
    1TYR    SC3  257   2.493   4.902   2.217 -0.0576 -0.4281 -0.0156
    2ARG     BB  258   3.082   4.573   2.050 -0.0946  0.3262  0.1791
    2ARG    SC1  259   3.360   4.682   1.949 -0.0326  0.0627 -0.0017
    2ARG    SC2  260   3.560   4.929   1.917 -0.0073 -0.4681 -0.1015
    3TYR     BB  261   3.180   4.436   2.335 -0.2221 -0.0959  0.1275
    3TYR    SC1  262   3.136   4.629   2.584  0.1817 -0.0415 -0.1411
    3TYR    SC2  263   3.153   4.860   2.722  0.0555  0.0918 -0.3432
    3TYR    SC3  264   3.083   4.632   2.849 -0.0449  0.2082 -0.1842
    1TYR     BB  265   2.216   4.231   2.750  0.1641 -0.0158 -0.1359
    1TYR    SC1  266   2.180   4.592   2.793  0.3355  0.0033  0.1134
    1TYR    SC2  267   2.167   4.852   2.719  0.0646 -0.0310  0.0282
    1TYR    SC3  268   2.357   4.770   2.893  0.4670  0.1293 -0.3158
    2ARG     BB  269   1.981   4.166   2.584  0.3316  0.0972 -0.1673
    2ARG    SC1  270   1.738   4.401   2.644 -0.0121 -0.1469 -0.3925
    2ARG    SC2  271   1.436   4.414   2.765 -0.0949  0.0192  0.1447
    3TYR     BB  272   1.979   4.020   2.316  0.1000 -0.1209 -0.4102
    3TYR    SC1  273   2.276   3.973   2.251 -0.0244 -0.2053 -0.1322
    3TYR    SC2  274   2.492   4.045   2.396 -0.2607 -0.0241  0.1435
    3TYR    SC3  275   2.497   4.067   2.127  0.0791 -0.0744  0.1405
    1TYR     BB  276   4.154   3.568   5.902  0.2871 -0.1431  0.3839
    1TYR    SC1  277   4.034   3.779   6.039  0.2148  0.0904  0.0843
    1TYR    SC2  278   3.839   3.901   6.181  0.1361  0.1901 -0.1061
    1TYR    SC3  279   4.099   3.943   6.244  0.0997 -0.1038  0.2821
    2ARG     BB  280   4.390   3.454   6.080  0.1503  0.2755  0.5430
    2ARG    SC1  281   4.221   3.376   6.329 -0.1114 -0.0204 -0.1395
    2ARG    SC2  282   3.988   3.488   6.522 -0.0937  0.3005 -0.1702
    3TYR     BB  283   4.654   3.544   6.133 -0.0349  0.1274  0.0927
    3TYR    SC1  284   4.896   3.500   5.934  0.1367  0.3637  0.4090
    3TYR    SC2  285   5.134   3.401   5.850 -0.0218  0.1428  0.2026
    3TYR    SC3  286   4.997   3.575   5.695 -0.1512  0.0068  0.1612
    1TYR     BB  287   3.986   3.179   2.179  0.2606 -0.1534  0.2886
    1TYR    SC1  288   3.881   2.991   2.364  0.2083 -0.2377 -0.2141
    1TYR    SC2  289   3.644   2.922   2.473  0.2179  0.2125  0.1309
    1TYR    SC3  290   3.868   2.789   2.543  0.1690  0.2600  0.3893
    2ARG     BB  291   3.998   3.484   2.198 -0.0894  0.0229 -0.0826
    2ARG    SC1  292   4.281   3.627   2.271  0.0716 -0.0315  0.0654
    2ARG    SC2  293   4.414   3.830   2.509  0.1907  0.1413  0.0818
    3TYR     BB  294   3.818   3.691   2.082 -0.1933  0.3254  0.0605
    3TYR    SC1  295   3.900   3.951   2.167  0.3813 -0.0157  0.1166
    3TYR    SC2  296   4.054   4.139   2.285  0.0976  0.2993  0.0058
    3TYR    SC3  297   4.017   4.143   2.018  0.0771  0.0878  0.0028
    1TYR     BB  298   5.809   3.803   6.884 -0.0575  0.0878  0.0927
    1TYR    SC1  299   5.830   3.707   6.580 -0.1397 -0.0371 -0.0348
    1TYR    SC2  300   5.776   3.559   6.360 -0.3026 -0.0485  0.0109
    1TYR    SC3  301   5.659   3.801   6.393  0.2395  0.2738 -0.2438
    2ARG     BB  302   5.518   3.915   6.936 -0.0298 -0.0660 -0.0624
    2ARG    SC1  303   5.524   3.975   7.265 -0.2927 -0.0030  0.1326
    2ARG    SC2  304   5.373   4.179   7.481  0.2085 -0.0356  0.2910
    3TYR     BB  305   5.229   3.862   6.729 -0.2320  0.0390  0.1119
    3TYR    SC1  306   5.061   3.659   6.751 -0.0013  0.1212  0.1612
    3TYR    SC2  307   4.840   3.553   6.863 -0.0980  0.1649  0.0153
    3TYR    SC3  308   4.930   3.459   6.626  0.1597  0.0082  0.1693
    1TYR     BB  309   1.518   5.431   0.155 -0.1287  0.2152 -0.0332
    1TYR    SC1  310   1.263   5.241   0.304 -0.1321  0.1366  0.0952
    1TYR    SC2  311   1.008   5.268   0.221 -0.1697 -0.2596  0.0574
    1TYR    SC3  312   1.063   5.132   0.448 -0.0134  0.1789  0.2971
    2ARG     BB  313   1.683   5.388  -0.153  0.1221  0.3975  0.1918
    2ARG    SC1  314   1.605   5.615  -0.308  0.1259  0.1370  0.0680
    2ARG    SC2  315   1.633   5.752  -0.616 -0.0162 -0.0795 -0.0637
    3TYR     BB  316   1.858   5.163  -0.268  0.2128  0.2839  0.1478
    3TYR    SC1  317   1.978   4.980  -0.051  0.2469  0.1910 -0.1674
    3TYR    SC2  318   2.107   4.829   0.132 -0.0251  0.0394 -0.0947
    3TYR    SC3  319   2.170   4.808  -0.130  0.1129 -0.0128 -0.0580
    1TYR     BB  320   2.488   4.774   0.792 -0.2606 -0.0987 -0.2272
    1TYR    SC1  321   2.765   4.698   0.834  0.0180  0.1696 -0.3212
    1TYR    SC2  322   3.008   4.668   0.947 -0.1302  0.0710 -0.0161
    1TYR    SC3  323   2.960   4.566   0.702  0.1086  0.0143 -0.0425
    2ARG     BB  324   2.374   4.532   0.664  0.1344  0.0158  0.1055
    2ARG    SC1  325   2.546   4.315   0.622 -0.0676  0.2753  0.1430
    2ARG    SC2  326   2.643   4.033   0.506 -0.0853 -0.0870  0.0737
    3TYR     BB  327   2.095   4.507   0.505  0.0158 -0.0245  0.0093
    3TYR    SC1  328   2.177   4.381   0.267 -0.2285  0.1144 -0.2016
    3TYR    SC2  329   2.199   4.357  -0.001  0.4935  0.0775 -0.1637
    3TYR    SC3  330   2.302   4.167   0.160 -0.1465 -0.0288  0.1630
    1TYR     BB  331   5.399   3.681   5.308  0.0043  0.3578  0.1722
    1TYR    SC1  332   5.428   3.392   5.405 -0.1154  0.1104  0.2820
    1TYR    SC2  333   5.295   3.163   5.457  0.0391 -0.0803 -0.1135
    1TYR    SC3  334   5.522   3.221   5.592  0.1096 -0.2631 -0.1506
    2ARG     BB  335   5.662   3.843   5.122  0.0370 -0.1449  0.3607
    2ARG    SC1  336   6.019   3.903   5.032  0.1154 -0.0042  0.3582
    2ARG    SC2  337   6.255   3.703   5.050  0.4248 -0.0273  0.4211
    3TYR     BB  338   5.606   4.026   4.843 -0.1871 -0.1656 -0.1064
    3TYR    SC1  339   5.758   4.267   4.767 -0.0192  0.3097 -0.2163
    3TYR    SC2  340   5.842   4.487   4.636  0.1278  0.3428 -0.0717
    3TYR    SC3  341   6.021   4.326   4.758  0.0284  0.1079 -0.2258
    1TYR     BB  342   3.998   3.017   3.361  0.0958 -0.1104  0.0258
    1TYR    SC1  343   3.832   2.914   3.144  0.1254  0.1510 -0.2425
    1TYR    SC2  344   3.678   2.964   2.928  0.1335  0.1517 -0.2482
    1TYR    SC3  345   3.768   2.714   2.974 -0.0199  0.1142 -0.1459
    2ARG     BB  346   4.184   2.724   3.415  0.1359  0.0138  0.0143
    2ARG    SC1  347   4.082   2.648   3.727 -0.1296 -0.0814  0.0698
    2ARG    SC2  348   3.870   2.587   3.964  0.3628  0.1384 -0.1249
    3TYR     BB  349   4.313   2.670   3.136 -0.0228 -0.1802 -0.1970
    3TYR    SC1  350   4.156   2.519   2.907  0.0019  0.0804  0.0698
    3TYR    SC2  351   3.987   2.355   2.776  0.0141 -0.0873  0.2591
    3TYR    SC3  352   4.150   2.519   2.638 -0.1635 -0.0648  0.0716
    1TYR     BB  353   4.778   2.631   2.626  0.0346  0.0672  0.0123
    1TYR    SC1  354   4.712   2.469   2.900 -0.0071 -0.0428 -0.2489
    1TYR    SC2  355   4.676   2.293   3.102 -0.1400  0.1337 -0.1151
    1TYR    SC3  356   4.540   2.262   2.870  0.0496 -0.0972 -0.2005
    2ARG     BB  357   4.539   2.917   2.537 -0.1599 -0.1958 -0.2023
    2ARG    SC1  358   4.619   3.060   2.839 -0.2239  0.1029 -0.0028
    2ARG    SC2  359   4.468   3.149   3.133  0.0263  0.1000  0.0674
    3TYR     BB  360   4.427   2.984   2.349 -0.0400 -0.3413  0.4326
    3TYR    SC1  361   4.544   3.181   2.144  0.2177 -0.1554  0.1492
    3TYR    SC2  362   4.571   3.382   1.966 -0.0425 -0.0575  0.2137
    3TYR    SC3  363   4.758   3.187   1.980  0.0480  0.0024 -0.0743
    1TYR     BB  364   1.756   5.929   0.045  0.1521 -0.0610  0.1236
    1TYR    SC1  365   1.759   6.108  -0.226 -0.1087  0.2292  0.2185
    1TYR    SC2  366   1.804   6.235  -0.460 -0.0103 -0.3246 -0.0855
    1TYR    SC3  367   1.551   6.200  -0.372 -0.0708 -0.3913 -0.2798
    2ARG     BB  368   1.638   6.084   0.294  0.0285 -0.3066  0.0965
    2ARG    SC1  369   1.432   5.854   0.385 -0.2377 -0.2496  0.1208
    2ARG    SC2  370   1.145   5.733   0.369 -0.2054  0.2396  0.0270
    3TYR     BB  371   1.765   6.401   0.270  0.0364 -0.0738 -0.0625
    3TYR    SC1  372   1.717   6.498  -0.014  0.2246  0.0498  0.1580
    3TYR    SC2  373   1.897   6.596  -0.189  0.2933 -0.0792  0.1551
    3TYR    SC3  374   1.641   6.683  -0.196  0.3516  0.0978  0.1530
    1TYR     BB  375   6.664   2.810   6.656 -0.1031 -0.1099  0.0897
    1TYR    SC1  376   6.640   2.765   6.956  0.1421  0.1875 -0.0689
    1TYR    SC2  377   6.769   2.892   7.156 -0.0874  0.1565  0.1050
    1TYR    SC3  378   6.760   2.622   7.151 -0.4958  0.1558  0.3393
    2ARG     BB  379   6.661   3.092   6.612  0.2778 -0.0776 -0.1734
    2ARG    SC1  380   6.993   3.213   6.638 -0.1720 -0.0507  0.1630
    2ARG    SC2  381   7.138   3.290   6.907 -0.1872 -0.1796 -0.2904
    3TYR     BB  382   6.547   3.258   6.903 -0.2640  0.0915  0.2378
    3TYR    SC1  383   6.636   3.530   6.963 -0.3859 -0.3854 -0.1137
    3TYR    SC2  384   6.805   3.675   6.811  0.0250 -0.4010  0.3015
    3TYR    SC3  385   6.629   3.799   6.974 -0.0699 -0.3805  0.1848
    1TYR     BB  386   5.082   1.754   2.090  0.1684  0.0699  0.5386
    1TYR    SC1  387   5.058   1.973   1.926 -0.0235 -0.1012  0.1097
    1TYR    SC2  388   5.193   2.060   1.709 -0.2149 -0.2252 -0.0626
    1TYR    SC3  389   5.175   2.217   1.928 -0.0890 -0.0640 -0.1650
    2ARG     BB  390   4.889   1.448   2.015  0.2607  0.1377 -0.0410
    2ARG    SC1  391   4.925   1.177   2.146  0.1127 -0.0832  0.1025
    2ARG    SC2  392   5.056   0.898   2.192 -0.2222  0.0015  0.0152
    3TYR     BB  393   4.684   1.475   1.806 -0.2454 -0.1818 -0.1623
    3TYR    SC1  394   4.667   1.724   1.657  0.0399  0.0473 -0.1639
    3TYR    SC2  395   4.636   1.795   1.399 -0.1304  0.4491 -0.0424
    3TYR    SC3  396   4.788   1.945   1.563  0.1164  0.1033  0.0593
    1TYR     BB  397   1.683   4.521   2.135 -0.1153  0.3905  0.1161
    1TYR    SC1  398   1.679   4.213   2.046 -0.1160 -0.0028 -0.3224
    1TYR    SC2  399   1.561   3.986   1.960  0.3491 -0.2958 -0.2304
    1TYR    SC3  400   1.808   4.052   1.873  0.3091  0.0705 -0.0908
    2ARG     BB  401   2.001   4.595   2.265  0.0703  0.1894  0.0286
    2ARG    SC1  402   1.983   4.933   2.298  0.1105 -0.0895  0.0598
    2ARG    SC2  403   1.859   5.213   2.302 -0.0141  0.0923  0.1026
    3TYR     BB  404   2.243   4.450   2.267 -0.1134  0.0922 -0.0252
    3TYR    SC1  405   2.452   4.506   2.438 -0.1764  0.1814 -0.1891
    3TYR    SC2  406   2.700   4.417   2.377 -0.1039  0.1267  0.1578
    3TYR    SC3  407   2.669   4.630   2.540 -0.2871  0.1202  0.1344
    1TYR     BB  408   3.990   3.124   6.000 -0.0417 -0.1316 -0.0957
    1TYR    SC1  409   4.052   3.090   5.689 -0.1962 -0.0711 -0.1381
    1TYR    SC2  410   4.087   3.007   5.435 -0.5235  0.3394 -0.3319
    1TYR    SC3  411   4.199   3.238   5.518  0.1653 -0.1084  0.1228
    2ARG     BB  412   3.688   3.374   6.083  0.0022  0.0664 -0.2041
    2ARG    SC1  413   3.552   3.230   6.339  0.0422  0.1127  0.1880
    2ARG    SC2  414   3.501   3.145   6.666 -0.0949  0.2122  0.2052
    3TYR     BB  415   3.525   3.313   5.849  0.1248 -0.3120  0.0493
    3TYR    SC1  416   3.669   3.305   5.597  0.1608  0.3219 -0.0177
    3TYR    SC2  417   3.749   3.437   5.375  0.1000  0.1170 -0.1648
    3TYR    SC3  418   3.703   3.171   5.365 -0.2085  0.1570  0.0146
    1TYR     BB  419   5.173   3.493   1.702  0.0054 -0.3115 -0.1509
    1TYR    SC1  420   4.999   3.664   1.899 -0.2088  0.0060 -0.3747
    1TYR    SC2  421   4.997   3.920   1.986 -0.2584 -0.1248  0.0344
    1TYR    SC3  422   4.764   3.787   1.951 -0.2255 -0.2413  0.2374
    2ARG     BB  423   5.164   3.302   1.662 -0.1013 -0.0455 -0.0091
    2ARG    SC1  424   5.258   3.249   1.324 -0.3662  0.2015  0.2074
    2ARG    SC2  425   5.320   3.347   1.040 -0.0322  0.1786  0.0521
    3TYR     BB  426   5.072   2.938   1.621 -0.0854 -0.1550 -0.1045
    3TYR    SC1  427   4.990   2.744   1.917 -0.1683  0.0812 -0.2974
    3TYR    SC2  428   5.064   2.583   2.121 -0.0473 -0.0113 -0.4124
    3TYR    SC3  429   4.844   2.739   2.145  0.1183  0.1884 -0.1045
    1TYR     BB  430   1.764   4.282   1.434  0.1337 -0.1488  0.3061
    1TYR    SC1  431   1.531   4.305   1.557  0.1238 -0.1053 -0.2582
    1TYR    SC2  432   1.366   4.411   1.743  0.1077 -0.0788 -0.2874
    1TYR    SC3  433   1.286   4.198   1.598  0.2931 -0.3970  0.0558
    2ARG     BB  434   1.940   4.057   1.326 -0.1541  0.0841 -0.0217
    2ARG    SC1  435   1.832   3.823   1.148  0.0539 -0.0998 -0.2019
    2ARG    SC2  436   1.902   3.608   1.008 -0.0499  0.0217  0.0460
    3TYR     BB  437   2.223   4.043   1.433 -0.2175 -0.2503  0.0667
    3TYR    SC1  438   2.200   3.895   1.728  0.3319  0.3626  0.3537
    3TYR    SC2  439   2.377   3.726   1.843  0.1069  0.0068  0.1985
    3TYR    SC3  440   2.113   3.702   1.896  0.0557  0.2140  0.0525
    1TYR     BB  441   1.122   4.144   0.617 -0.1387 -0.0030 -0.2034
    1TYR    SC1  442   1.123   3.906   0.453  0.0075  0.0409 -0.1886
    1TYR    SC2  443   1.014   3.702   0.313  0.1332  0.0447 -0.2944
    1TYR    SC3  444   1.283   3.727   0.329  0.1250 -0.0181  0.0401
    2ARG     BB  445   0.818   4.069   0.832  0.0574  0.1450 -0.0989
    2ARG    SC1  446   0.560   3.908   0.721  0.0577  0.0484 -0.1042
    2ARG    SC2  447   0.372   4.107   0.534  0.2495 -0.2146 -0.0811
    3TYR     BB  448   0.866   4.128   1.045 -0.1934  0.1533 -0.2540
    3TYR    SC1  449   0.885   4.083   1.355 -0.0671 -0.0691  0.3500
    3TYR    SC2  450   0.863   4.021   1.617 -0.5108  0.0479  0.3516
    3TYR    SC3  451   0.854   4.279   1.539  0.3366  0.0859  0.2649
    1TYR     BB  452   5.643   2.456   5.129  0.1947 -0.1565 -0.0165
    1TYR    SC1  453   5.718   2.147   4.950 -0.0302 -0.1666  0.2333
    1TYR    SC2  454   5.505   2.025   4.837 -0.0626 -0.0807  0.2007
    1TYR    SC3  455   5.730   1.885   4.886  0.0980 -0.0395 -0.3352
    2ARG     BB  456   5.686   2.630   4.836 -0.0145 -0.3375  0.0177
    2ARG    SC1  457   5.465   2.578   4.610  0.0019  0.0598 -0.4011
    2ARG    SC2  458   5.213   2.350   4.583  0.3373 -0.2353  0.2400
    3TYR     BB  459   5.846   2.862   4.682 -0.2067  0.0736  0.0117
    3TYR    SC1  460   6.085   2.970   4.810 -0.2693  0.1014 -0.0660
    3TYR    SC2  461   6.214   3.207   4.791 -0.1737  0.0309 -0.3714
    3TYR    SC3  462   6.352   2.983   4.853 -0.2843  0.0667  0.0420
    1TYR     BB  463   5.830   4.340   5.259  0.0456  0.1845  0.1069
    1TYR    SC1  464   5.953   4.167   5.477  0.0484 -0.3772 -0.2182
    1TYR    SC2  465   6.161   4.000   5.518  0.1622 -0.1502  0.2108
    1TYR    SC3  466   5.998   4.066   5.724 -0.0784  0.0139 -0.0237
    2ARG     BB  467   6.101   4.550   5.228 -0.1187 -0.0136 -0.0732
    2ARG    SC1  468   6.376   4.323   5.106  0.1218 -0.2127 -0.1217
    2ARG    SC2  469   6.630   4.460   5.130  0.1618 -0.1987  0.0394
    3TYR     BB  470   6.086   4.775   4.991 -0.1443  0.0151 -0.0935
    3TYR    SC1  471   5.806   4.798   4.939  0.0080  0.3434  0.1387
    3TYR    SC2  472   5.592   4.738   5.092 -0.1917 -0.0937 -0.2776
    3TYR    SC3  473   5.575   4.933   4.906  0.0161  0.3604  0.1511
    1TYR     BB  474   5.231   3.490   7.126 -0.2410 -0.0527  0.2643
    1TYR    SC1  475   5.045   3.625   7.308 -0.0182 -0.0590  0.3108
    1TYR    SC2  476   5.015   3.866   7.424 -0.2164  0.0650  0.0160
    1TYR    SC3  477   4.826   3.676   7.457 -0.1676  0.0260  0.0708
    2ARG     BB  478   5.475   3.432   7.174 -0.1214  0.0296 -0.0589
    2ARG    SC1  479   5.536   3.450   7.475 -0.1979 -0.1982  0.0736
    2ARG    SC2  480   5.307   3.408   7.680 -0.3114 -0.0242 -0.0496
    3TYR     BB  481   5.798   3.338   7.054  0.2487  0.0181 -0.2605
    3TYR    SC1  482   6.064   3.429   7.124  0.1801 -0.3189 -0.0597
    3TYR    SC2  483   6.203   3.647   7.048 -0.2391  0.0589  0.1969
    3TYR    SC3  484   6.291   3.496   7.254  0.0759 -0.0489 -0.0081
    1TYR     BB  485   2.698   4.128   1.618 -0.1493 -0.0923  0.0911
    1TYR    SC1  486   2.973   4.254   1.550 -0.0626 -0.2634  0.1971
    1TYR    SC2  487   3.225   4.347   1.582 -0.1232  0.0206 -0.0833
    1TYR    SC3  488   3.128   4.304   1.334 -0.3760 -0.0198  0.0188
    2ARG     BB  489   2.770   3.839   1.469 -0.1733  0.2267  0.2065
    2ARG    SC1  490   2.972   3.770   1.229 -0.1774 -0.0907 -0.0286
    2ARG    SC2  491   3.263   3.762   1.104  0.2215 -0.3464 -0.2976
    3TYR     BB  492   2.777   3.571   1.603  0.5036  0.2065  0.0872
    3TYR    SC1  493   2.683   3.300   1.415 -0.0534 -0.6565 -0.1517
    3TYR    SC2  494   2.494   3.166   1.276 -0.0790 -0.3337 -0.4474
    3TYR    SC3  495   2.702   3.278   1.146 -0.1470  0.0533 -0.2403
    1TYR     BB  496   3.394   3.725   2.891  0.0560  0.1602 -0.1486
    1TYR    SC1  497   3.065   3.639   2.942 -0.0462  0.2660 -0.1073
    1TYR    SC2  498   2.873   3.653   3.132  0.1050  0.1569  0.0571
    1TYR    SC3  499   2.807   3.592   2.877 -0.0548 -0.1000  0.1552
    2ARG     BB  500   3.502   3.436   2.903 -0.2353 -0.0123 -0.2855
    2ARG    SC1  501   3.687   3.441   3.157 -0.3021 -0.0568 -0.0203
    2ARG    SC2  502   3.999   3.544   3.143  0.0724 -0.0773  0.2043
    3TYR     BB  503   3.641   3.383   2.638  0.2825 -0.1769  0.0301
    3TYR    SC1  504   3.947   3.343   2.697 -0.0282 -0.0708 -0.2155
    3TYR    SC2  505   4.054   3.130   2.823 -0.1791 -0.1317 -0.1878
    3TYR    SC3  506   4.214   3.328   2.733 -0.0847  0.0689  0.3764
    1TYR     BB  507   5.460   4.190   6.121 -0.1346  0.0581 -0.3076
    1TYR    SC1  508   5.513   3.906   6.009 -0.0791 -0.1860  0.2722
    1TYR    SC2  509   5.454   3.700   5.843  0.1202 -0.0357  0.0049
    1TYR    SC3  510   5.711   3.777   5.877  0.0355  0.2900 -0.0514
    2ARG     BB  511   5.495   4.355   6.517  0.1602 -0.0141 -0.0313
    2ARG    SC1  512   5.182   4.353   6.507 -0.0112  0.0007 -0.0522
    2ARG    SC2  513   4.892   4.287   6.553 -0.0803  0.0049  0.0115
    3TYR     BB  514   5.710   4.229   6.666 -0.0679  0.1525  0.1131
    3TYR    SC1  515   5.976   4.346   6.755  0.0144 -0.0722  0.1881
    3TYR    SC2  516   6.134   4.507   6.607 -0.4180  0.1060 -0.1048
    3TYR    SC3  517   6.095   4.561   6.868 -0.2164  0.2168 -0.0946
    1TYR     BB  518   1.533   3.367   1.208  0.3039 -0.0602 -0.0611
    1TYR    SC1  519   1.362   3.144   1.100 -0.0427  0.2324 -0.0993
    1TYR    SC2  520   1.350   2.903   0.978  0.0443  0.1993 -0.0438
    1TYR    SC3  521   1.162   3.090   0.927 -0.0650  0.0940 -0.0320
    2ARG     BB  522   1.831   3.304   1.364 -0.0440  0.2027 -0.0367
    2ARG    SC1  523   2.042   3.010   1.364 -0.1414  0.1360  0.0269
    2ARG    SC2  524   1.912   2.713   1.477 -0.0750 -0.0245  0.1707
    3TYR     BB  525   2.056   3.465   1.483 -0.0353 -0.1280 -0.0232
    3TYR    SC1  526   2.276   3.301   1.663 -0.0921 -0.0695  0.3541
    3TYR    SC2  527   2.365   3.057   1.736 -0.0973 -0.1375  0.1428
    3TYR    SC3  528   2.439   3.276   1.877  0.2971 -0.2054  0.0558
    1TYR     BB  529   3.041   2.598   3.531  0.4053  0.0366 -0.3804
    1TYR    SC1  530   3.145   2.621   3.785 -0.1943 -0.1665 -0.0090
    1TYR    SC2  531   3.187   2.439   3.979 -0.0513 -0.0960  0.0284
    1TYR    SC3  532   3.342   2.659   3.966 -0.1502 -0.0318 -0.0832
    2ARG     BB  533   3.142   2.482   3.279 -0.2446  0.2875  0.0904
    2ARG    SC1  534   3.096   2.178   3.204  0.2520  0.0912  0.1901
    2ARG    SC2  535   2.895   1.972   3.287  0.1491  0.0578  0.0200
    3TYR     BB  536   3.247   2.670   3.115 -0.1316 -0.1085  0.4783
    3TYR    SC1  537   3.427   2.876   3.329  0.1131  0.1747 -0.1250
    3TYR    SC2  538   3.448   3.116   3.450  0.0577  0.1589 -0.0837
    3TYR    SC3  539   3.556   2.898   3.565  0.0656  0.1557 -0.0972
    1TYR     BB  540   3.184   3.302   1.496  0.3278 -0.1230 -0.2103
    1TYR    SC1  541   3.236   3.554   1.616 -0.2722 -0.0931  0.0409
    1TYR    SC2  542   3.355   3.669   1.829  0.0164 -0.1282 -0.0960
    1TYR    SC3  543   3.215   3.820   1.656  0.0438 -0.0494 -0.0502
    2ARG     BB  544   3.078   2.997   1.512 -0.1561  0.0395  0.1394
    2ARG    SC1  545   3.375   2.845   1.411  0.1761  0.0556  0.0688
    2ARG    SC2  546   3.608   3.021   1.246 -0.3051 -0.0585 -0.1350
    3TYR     BB  547   2.795   2.895   1.697 -0.0273 -0.0457 -0.2366
    3TYR    SC1  548   2.592   2.771   1.485 -0.3656 -0.0758 -0.1744
    3TYR    SC2  549   2.412   2.578   1.425  0.2048 -0.5463 -0.5095
    3TYR    SC3  550   2.548   2.702   1.228 -0.0308  0.1172 -0.2906
    1TYR     BB  551   5.787   2.949   5.293 -0.0567  0.0996 -0.1964
    1TYR    SC1  552   6.066   3.020   5.331  0.1209  0.1006 -0.1635
    1TYR    SC2  553   6.288   3.051   5.482  0.2989 -0.0252 -0.3914
    1TYR    SC3  554   6.256   3.197   5.258 -0.1135  0.3967 -0.0833
    2ARG     BB  555   5.666   3.135   5.054 -0.0401  0.1472 -0.0515
    2ARG    SC1  556   5.411   3.026   4.999 -0.0123  0.1469  0.1262
    2ARG    SC2  557   5.202   2.802   5.102 -0.0788  0.0391 -0.1817
    3TYR     BB  558   5.761   3.378   5.086 -0.0547  0.0900  0.4636
    3TYR    SC1  559   5.886   3.469   5.318  0.0490 -0.4001  0.0414
    3TYR    SC2  560   5.851   3.630   5.532  0.1274  0.0605 -0.2750
    3TYR    SC3  561   5.997   3.404   5.556 -0.1665 -0.0960  0.2339
    1TYR     BB  562   5.226   3.130   2.152 -0.1624  0.2106  0.1141
    1TYR    SC1  563   5.301   3.400   2.202 -0.2294  0.0398  0.0581
    1TYR    SC2  564   5.279   3.658   2.279  0.1127  0.0526  0.1336
    1TYR    SC3  565   5.453   3.589   2.084 -0.1491 -0.0943 -0.0576
    2ARG     BB  566   5.215   2.954   2.421 -0.0784 -0.0906  0.1930
    2ARG    SC1  567   5.490   2.840   2.480  0.1203  0.2537 -0.1587
    2ARG    SC2  568   5.699   2.918   2.695 -0.1834 -0.1445  0.1942
    3TYR     BB  569   5.121   3.148   2.650  0.0549 -0.0346  0.1464
    3TYR    SC1  570   4.943   3.365   2.514 -0.3489 -0.5724  0.0504
    3TYR    SC2  571   4.854   3.520   2.311 -0.2140 -0.0818  0.3441
    3TYR    SC3  572   4.682   3.434   2.501 -0.2750 -0.2347  0.2228
    1TYR     BB  573   2.805   2.616   2.171  0.0920  0.1469  0.4325
    1TYR    SC1  574   2.772   2.442   1.903 -0.2196 -0.1046 -0.0847
    1TYR    SC2  575   3.001   2.426   1.761 -0.1550 -0.1842  0.0263
    1TYR    SC3  576   2.763   2.416   1.635 -0.1007  0.1769 -0.1202
    2ARG     BB  577   2.670   2.872   2.237  0.3993  0.1307 -0.0971
    2ARG    SC1  578   2.814   3.145   2.182 -0.1579 -0.0242  0.0192
    2ARG    SC2  579   3.003   3.305   1.973 -0.1398  0.2214 -0.0770
    3TYR     BB  580   2.389   2.921   2.223 -0.1944 -0.0045 -0.0992
    3TYR    SC1  581   2.264   3.115   2.406  0.0054  0.4304 -0.2359
    3TYR    SC2  582   2.242   3.246   2.640 -0.1242 -0.0878  0.0631
    3TYR    SC3  583   2.020   3.164   2.510 -0.0466  0.0086 -0.1359
    1TYR     BB  584   1.244   5.900  -0.152 -0.1202 -0.2091  0.0687
    1TYR    SC1  585   1.256   6.152  -0.020  0.0142 -0.1323  0.3225
    1TYR    SC2  586   1.265   6.415  -0.083  0.2034 -0.2290 -0.0924
    1TYR    SC3  587   1.235   6.339   0.174 -0.2721  0.1942 -0.0037
    2ARG     BB  588   1.152   5.907  -0.464 -0.2755 -0.0293 -0.4218
    2ARG    SC1  589   0.977   6.120  -0.484 -0.0522 -0.1372  0.2157
    2ARG    SC2  590   0.645   6.058  -0.533 -0.2063 -0.1455  0.0715
    3TYR     BB  591   1.139   5.646  -0.617  0.2389 -0.0749  0.0126
    3TYR    SC1  592   1.093   5.466  -0.415 -0.3148  0.2705  0.0553
    3TYR    SC2  593   1.173   5.293  -0.224 -0.1599  0.3114  0.0290
    3TYR    SC3  594   0.925   5.399  -0.214 -0.2035  0.2031  0.1273
    1TYR     BB  595   5.571   2.868   7.023 -0.0220  0.3786  0.1313
    1TYR    SC1  596   5.616   2.555   6.890 -0.0254 -0.0833 -0.0715
    1TYR    SC2  597   5.771   2.343   6.825 -0.1026 -0.1432 -0.0630
    1TYR    SC3  598   5.529   2.374   6.709 -0.1421 -0.1239  0.0230
    2ARG     BB  599   5.263   2.997   7.020 -0.0718  0.0173 -0.1712
    2ARG    SC1  600   5.252   3.037   7.355 -0.0040 -0.0246  0.0944
    2ARG    SC2  601   5.004   2.973   7.589 -0.0805  0.1912  0.0717
    3TYR     BB  602   4.928   3.078   6.969  0.1411 -0.1449 -0.3153
    3TYR    SC1  603   4.791   3.205   7.234  0.1309 -0.3275 -0.0739
    3TYR    SC2  604   4.586   3.378   7.265  0.3290 -0.0531 -0.2344
    3TYR    SC3  605   4.655   3.213   7.467  0.0326 -0.0636 -0.1351
    1TYR     BB  606   1.549   4.576   0.583 -0.2902 -0.3948  0.0320
    1TYR    SC1  607   1.239   4.593   0.704 -0.0158  0.0199 -0.2295
    1TYR    SC2  608   1.010   4.663   0.579  0.0694  0.2559 -0.2605
    1TYR    SC3  609   1.004   4.581   0.836 -0.0781  0.0008 -0.3409
    2ARG     BB  610   1.659   4.746   0.368 -0.2371  0.0603 -0.0708
    2ARG    SC1  611   1.710   4.544   0.114 -0.0074  0.1319  0.0796
    2ARG    SC2  612   1.735   4.500  -0.186  0.2458  0.0229  0.0843
    3TYR     BB  613   1.677   5.041   0.378 -0.2008  0.1453  0.2481
    3TYR    SC1  614   1.933   5.168   0.445 -0.3195 -0.1173  0.2226
    3TYR    SC2  615   2.121   5.294   0.592 -0.2230  0.2028 -0.1529
    3TYR    SC3  616   2.150   5.033   0.530 -0.0619  0.1695  0.0495
    1TYR     BB  617   6.464   4.250   6.151  0.3183  0.0551  0.1320
    1TYR    SC1  618   6.341   4.309   5.870 -0.2828  0.0128 -0.1092
    1TYR    SC2  619   6.230   4.437   5.660 -0.0512 -0.0768 -0.2928
    1TYR    SC3  620   6.458   4.296   5.627 -0.0160 -0.1030  0.0192
    2ARG     BB  621   6.462   4.118   6.453 -0.4489 -0.0321 -0.2317
    2ARG    SC1  622   6.715   4.125   6.584 -0.2883  0.4113 -0.0042
    2ARG    SC2  623   7.071   4.058   6.588 -0.1988  0.1634 -0.0291
    3TYR     BB  624   6.249   3.949   6.658 -0.1285 -0.0863 -0.1538
    3TYR    SC1  625   6.303   3.648   6.613  0.1531 -0.2157 -0.1052
    3TYR    SC2  626   6.171   3.421   6.676  0.0779 -0.0930  0.2032
    3TYR    SC3  627   6.186   3.501   6.419  0.3075 -0.5654  0.0556
    1TYR     BB  628   3.304   5.576   0.768  0.0075  0.1519  0.1343
    1TYR    SC1  629   3.109   5.651   0.568  0.1892  0.1985  0.0340
    1TYR    SC2  630   3.053   5.663   0.304 -0.1830 -0.2094  0.0781
    1TYR    SC3  631   2.912   5.813   0.479  0.0266  0.0193  0.0587
    2ARG     BB  632   3.222   5.386   1.056 -0.1431 -0.1115 -0.0924
    2ARG    SC1  633   3.260   5.624   1.314 -0.3624  0.0945  0.1270
    2ARG    SC2  634   3.462   5.669   1.581 -0.0238 -0.0885 -0.1065
    3TYR     BB  635   3.154   5.132   1.036  0.0451 -0.3775 -0.0240
    3TYR    SC1  636   3.079   5.079   0.719  0.1454  0.1991  0.2523
    3TYR    SC2  637   2.869   5.005   0.566  0.3044  0.0155  0.1163
    3TYR    SC3  638   3.024   5.214   0.492  0.2061  0.1145  0.1862
    1TYR     BB  639   6.525   3.840   5.938  0.0906 -0.1158 -0.4117
    1TYR    SC1  640   6.612   3.720   6.191 -0.1760 -0.1166 -0.2397
    1TYR    SC2  641   6.652   3.513   6.360 -0.4146  0.1521  0.1696
    1TYR    SC3  642   6.847   3.696   6.321 -0.1668 -0.1791 -0.2674
    2ARG     BB  643   6.243   3.682   5.935  0.0477  0.0107  0.0672
    2ARG    SC1  644   6.106   3.882   6.149 -0.1049 -0.1367 -0.1342
    2ARG    SC2  645   5.979   4.140   6.241 -0.1347  0.2548  0.1671
    3TYR     BB  646   6.309   3.300   5.949  0.1434 -0.0549 -0.1698
    3TYR    SC1  647   6.293   3.102   6.188 -0.2233 -0.7574 -0.2115
    3TYR    SC2  648   6.180   3.045   6.426 -0.0757 -0.3669 -0.0384
    3TYR    SC3  649   6.334   2.861   6.302  0.3851 -0.3733  0.4919
    1TYR     BB  650   5.051   5.249   6.044 -0.3264  0.2507 -0.1515
    1TYR    SC1  651   4.829   5.447   5.993  0.1477  0.1900  0.2946
    1TYR    SC2  652   4.646   5.642   6.029 -0.1545  0.0325 -0.2505
    1TYR    SC3  653   4.566   5.389   5.980  0.2303 -0.2118  0.2670
    2ARG     BB  654   5.156   5.005   5.701  0.1141  0.0766 -0.2600
    2ARG    SC1  655   4.867   5.056   5.573 -0.0219 -0.1539 -0.1919
    2ARG    SC2  656   4.784   5.190   5.298  0.1037 -0.1552 -0.0898
    3TYR     BB  657   5.442   5.057   5.499  0.0844 -0.0151 -0.0295
    3TYR    SC1  658   5.549   5.276   5.680 -0.1120  0.1592 -0.2407
    3TYR    SC2  659   5.763   5.352   5.826 -0.2711  0.0649  0.0506
    3TYR    SC3  660   5.514   5.412   5.910 -0.3669  0.0586 -0.2165
    1TYR     BB  661   4.126   3.914   6.736 -0.0467 -0.0179 -0.3344
    1TYR    SC1  662   4.395   3.906   6.601 -0.0808 -0.2891 -0.1321
    1TYR    SC2  663   4.659   3.851   6.593 -0.0034  0.0384 -0.0372
    1TYR    SC3  664   4.536   3.952   6.375 -0.0441 -0.0767 -0.0687
    2ARG     BB  665   4.048   4.100   6.952  0.2870  0.3802 -0.1583
    2ARG    SC1  666   4.195   4.093   7.271 -0.1177 -0.2953  0.1235
    2ARG    SC2  667   4.417   4.161   7.433 -0.3965  0.2545  0.0970
    3TYR     BB  668   3.909   4.432   6.922 -0.2660  0.1180  0.3037
    3TYR    SC1  669   4.093   4.603   7.083  0.0718  0.0323 -0.1811
    3TYR    SC2  670   4.126   4.838   7.212  0.0624 -0.0001 -0.1191
    3TYR    SC3  671   4.275   4.624   7.281  0.0121 -0.0350 -0.1186
    1TYR     BB  672   5.772   1.319   1.007 -0.4637  0.2454 -0.1751
    1TYR    SC1  673   5.932   1.499   0.843  0.3851 -0.3066  0.3973
    1TYR    SC2  674   6.053   1.730   0.913 -0.2372  0.0860  0.2777
    1TYR    SC3  675   6.087   1.631   0.665  0.1544 -0.0511  0.3769
    2ARG     BB  676   5.443   1.315   1.083  0.2098 -0.1960  0.3218
    2ARG    SC1  677   5.443   1.190   1.376  0.2242  0.1107 -0.0481
    2ARG    SC2  678   5.293   0.950   1.512 -0.2497  0.1273  0.2338
    3TYR     BB  679   5.306   1.529   0.889 -0.3298 -0.2271 -0.2907
    3TYR    SC1  680   5.016   1.544   0.919  0.0884 -0.1847  0.1080
    3TYR    SC2  681   4.801   1.673   0.816  0.1962 -0.1345 -0.0589
    3TYR    SC3  682   4.790   1.569   1.065  0.1121  0.2154  0.0907
    1TYR     BB  683   5.468   4.091   4.301  0.2387 -0.2620  0.1623
    1TYR    SC1  684   5.252   3.958   4.094 -0.0068  0.0277  0.0605
    1TYR    SC2  685   5.153   4.060   3.864  0.0078 -0.2909 -0.0938
    1TYR    SC3  686   5.020   3.863   3.993  0.1370 -0.3033  0.0241
    2ARG     BB  687   5.780   4.082   4.250  0.0530  0.0357  0.0936
    2ARG    SC1  688   5.743   3.959   3.932  0.4251  0.2856  0.0509
    2ARG    SC2  689   5.671   3.858   3.679  0.1520 -0.0384 -0.0029
    3TYR     BB  690   6.004   4.010   4.331 -0.1821 -0.0481  0.1934
    3TYR    SC1  691   6.170   3.754   4.299  0.0750 -0.0406 -0.2384
    3TYR    SC2  692   6.253   3.563   4.471 -0.0938  0.3093  0.2635
    3TYR    SC3  693   6.371   3.588   4.229  0.1505 -0.2065  0.3111
    1TYR     BB  694   5.109   1.487   3.095 -0.1615 -0.0611  0.1803
    1TYR    SC1  695   4.890   1.413   3.221  0.2078 -0.3782 -0.2297
    1TYR    SC2  696   4.744   1.498   3.431  0.3997  0.2662 -0.3305
    1TYR    SC3  697   4.631   1.340   3.244  0.0488  0.1801 -0.0594
    2ARG     BB  698   5.311   1.691   3.246  0.3042  0.2146  0.0005
    2ARG    SC1  699   5.175   1.893   3.422 -0.2275 -0.0279 -0.0260
    2ARG    SC2  700   4.831   2.002   3.476 -0.0406 -0.0739  0.1809
    3TYR     BB  701   5.631   1.650   3.340 -0.4431 -0.0634 -0.1640
    3TYR    SC1  702   5.716   1.823   3.578  0.2515 -0.2960  0.1396
    3TYR    SC2  703   5.929   1.961   3.669 -0.0955  0.2411  0.1947
    3TYR    SC3  704   5.746   1.865   3.843 -0.3168  0.5151  0.1223
    1TYR     BB  705   5.924   4.197   7.192 -0.0383 -0.2398 -0.1145
    1TYR    SC1  706   5.726   4.416   7.119 -0.1315  0.0222  0.4208
    1TYR    SC2  707   5.516   4.563   7.205 -0.3563  0.0055 -0.0597
    1TYR    SC3  708   5.628   4.614   6.965  0.1116 -0.0772  0.1264
    2ARG     BB  709   6.199   4.138   7.122  0.0207  0.0016  0.3522
    2ARG    SC1  710   6.453   4.270   7.005 -0.2012 -0.1402 -0.2891
    2ARG    SC2  711   6.618   4.554   6.995  0.0659  0.3031  0.1109
    3TYR     BB  712   6.422   3.980   7.388  0.3524  0.1410 -0.1058
    3TYR    SC1  713   6.189   3.809   7.564  0.2014 -0.0764  0.0809
    3TYR    SC2  714   5.940   3.910   7.586  0.2372  0.0170  0.0624
    3TYR    SC3  715   5.978   3.643   7.589  0.1262 -0.0007 -0.0396
    1TYR     BB  716   6.159   1.813   1.484 -0.0658 -0.1121 -0.2432
    1TYR    SC1  717   6.241   1.604   1.656  0.4866  0.1092  0.0396
    1TYR    SC2  718   6.367   1.371   1.707 -0.1037 -0.2653 -0.1033
    1TYR    SC3  719   6.230   1.496   1.903  0.2540  0.0057 -0.0134
    2ARG     BB  720   6.355   1.875   1.271  0.1162 -0.2259 -0.2117
    2ARG    SC1  721   6.537   1.687   1.066  0.2763 -0.1154 -0.3376
    2ARG    SC2  722   6.675   1.506   1.283  0.1129 -0.0099  0.1254
    3TYR     BB  723   6.603   2.031   1.475 -0.0484 -0.0706  0.1052
    3TYR    SC1  724   6.672   2.354   1.337 -0.2866  0.1219  0.1851
    3TYR    SC2  725   6.615   2.617   1.356 -0.2336  0.1391  0.1098
    3TYR    SC3  726   6.457   2.455   1.209 -0.1314  0.1741 -0.0419
    1TYR     BB  727   6.806   2.435   5.564 -0.1217  0.2733  0.3365
    1TYR    SC1  728   6.548   2.240   5.662  0.0212 -0.2947 -0.2801
    1TYR    SC2  729   6.496   2.043   5.839 -0.5006 -0.0018 -0.0775
    1TYR    SC3  730   6.402   2.025   5.587 -0.4462 -0.0608 -0.0940
    2ARG     BB  731   6.679   2.804   5.590  0.1243 -0.0554 -0.0488
    2ARG    SC1  732   6.814   2.984   5.438 -0.2273  0.1027  0.0636
    2ARG    SC2  733   6.793   3.088   5.168  0.1162 -0.2554  0.1456
    3TYR     BB  734   6.526   2.830   5.858  0.4005 -0.0565  0.0784
    3TYR    SC1  735   6.658   2.669   6.076 -0.1405 -0.1250  0.1915
    3TYR    SC2  736   6.601   2.506   6.284 -0.3141 -0.0512  0.2044
    3TYR    SC3  737   6.766   2.422   6.087  0.1995  0.0275  0.5776
    1TYR     BB  738   2.955   3.946   2.538 -0.0291  0.3316 -0.0611
    1TYR    SC1  739   2.927   3.946   2.228  0.0661 -0.1213 -0.1114
    1TYR    SC2  740   2.979   4.071   1.994  0.0052  0.0618 -0.0292
    1TYR    SC3  741   2.868   3.825   1.994  0.0481  0.0412 -0.1923
    2ARG     BB  742   2.964   4.113   2.705 -0.0309  0.2047 -0.0284
    2ARG    SC1  743   2.698   4.263   2.877  0.0254 -0.0801 -0.0523
    2ARG    SC2  744   2.688   4.475   3.107  0.1328  0.1766  0.0446
    3TYR     BB  745   3.172   4.129   2.971  0.1787 -0.0969 -0.0254
    3TYR    SC1  746   3.002   4.079   3.252  0.2839  0.4771  0.2265
    3TYR    SC2  747   2.812   4.135   3.436 -0.2644 -0.3003 -0.0399
    3TYR    SC3  748   3.047   4.026   3.513 -0.2804 -0.1550  0.2278
    1TYR     BB  749   4.475   2.402   2.302 -0.3060  0.0141  0.4478
    1TYR    SC1  750   4.368   2.139   2.427  0.1196  0.1887  0.1273
    1TYR    SC2  751   4.359   1.966   2.634  0.1256  0.1263  0.0757
    1TYR    SC3  752   4.148   1.988   2.467  0.0078  0.3787  0.2498
    2ARG     BB  753   4.241   2.538   2.178  0.1816 -0.0974 -0.1231
    2ARG    SC1  754   4.101   2.310   2.009  0.0796 -0.1129  0.0496
    2ARG    SC2  755   3.920   2.181   1.825  0.0473 -0.0056 -0.4651
    3TYR     BB  756   4.216   2.857   1.946 -0.1003 -0.0595 -0.2998
    3TYR    SC1  757   4.087   2.773   1.746  0.1597 -0.0184 -0.3480
    3TYR    SC2  758   4.025   2.850   1.495  0.3016 -0.1338 -0.4207
    3TYR    SC3  759   4.015   2.589   1.562  0.3578 -0.1141 -0.3337
    1TYR     BB  760   6.776   3.163   6.072 -0.1803 -0.4116  0.0671
    1TYR    SC1  761   6.981   2.960   6.113  0.1463  0.2517  0.1467
    1TYR    SC2  762   7.099   2.793   6.288  0.1815  0.3702  0.2378
    1TYR    SC3  763   7.125   2.751   6.022  0.0302  0.1206  0.2581
    2ARG     BB  764   6.768   3.424   5.827 -0.1178  0.0636  0.0622
    2ARG    SC1  765   6.978   3.598   5.797 -0.0976 -0.0627 -0.1905
    2ARG    SC2  766   7.268   3.710   5.653  0.0644 -0.2048 -0.1769
    3TYR     BB  767   6.575   3.468   5.565 -0.0672  0.2922 -0.2321
    3TYR    SC1  768   6.553   3.755   5.453  0.2058 -0.1495  0.0690
    3TYR    SC2  769   6.739   3.933   5.533 -0.1757  0.3130 -0.0135
    3TYR    SC3  770   6.621   3.962   5.292 -0.0852 -0.2043 -0.1345
    1TYR     BB  771   3.374   5.145   1.496  0.1437 -0.4229  0.1661
    1TYR    SC1  772   3.663   5.237   1.361  0.2610  0.4455  0.1646
    1TYR    SC2  773   3.919   5.168   1.311  0.1192 -0.2396  0.2555
    1TYR    SC3  774   3.751   5.222   1.106  0.1661 -0.4963  0.1452
    2ARG     BB  775   3.321   4.843   1.478  0.0917  0.2851 -0.2992
    2ARG    SC1  776   3.465   4.687   1.226  0.0721 -0.0328 -0.1538
    2ARG    SC2  777   3.569   4.719   0.910 -0.1023 -0.2225  0.0932
    3TYR     BB  778   2.992   4.781   1.462 -0.0857 -0.0787  0.3143
    3TYR    SC1  779   2.897   5.033   1.650  0.0669  0.2027 -0.0691
    3TYR    SC2  780   3.013   5.156   1.860  0.0545  0.1543 -0.0337
    3TYR    SC3  781   2.747   5.179   1.821  0.0514  0.1354 -0.0245
    1TYR     BB  782   5.136   4.819   5.181  0.0812 -0.1023  0.1263
    1TYR    SC1  783   5.138   5.090   5.015  0.0489  0.0683  0.1266
    1TYR    SC2  784   5.154   5.112   4.746  0.0483  0.0711  0.1268
    1TYR    SC3  785   5.088   5.327   4.896 -0.0754  0.0391  0.1197
    2ARG     BB  786   4.854   4.676   5.084  0.0930 -0.1637  0.0728
    2ARG    SC1  787   4.524   4.772   5.069 -0.0593 -0.2080  0.1619
    2ARG    SC2  788   4.345   4.684   4.844  0.1406 -0.2230  0.1608
    3TYR     BB  789   4.803   4.360   4.996 -0.0557 -0.3106 -0.1251
    3TYR    SC1  790   4.547   4.284   5.183 -0.0649  0.2534  0.0646
    3TYR    SC2  791   4.498   4.158   5.417 -0.0285  0.2313  0.0605
    3TYR    SC3  792   4.361   4.382   5.353 -0.0196  0.2525  0.1149
    1TYR     BB  793   3.067   3.461   2.480 -0.1220  0.2391 -0.0067
    1TYR    SC1  794   3.105   3.223   2.663  0.1321  0.1446 -0.1610
    1TYR    SC2  795   3.044   2.960   2.680 -0.3492  0.2460 -0.1370
    1TYR    SC3  796   3.300   3.041   2.704 -0.1775 -0.2246 -0.2443
    2ARG     BB  797   3.269   3.547   2.322 -0.0396  0.1143 -0.0203
    2ARG    SC1  798   3.416   3.840   2.385 -0.1721  0.0494 -0.0515
    2ARG    SC2  799   3.553   4.107   2.497 -0.1065 -0.1130  0.1489
    3TYR     BB  800   3.452   3.334   2.201  0.2470  0.1174 -0.2303
    3TYR    SC1  801   3.309   3.045   2.215  0.2476 -0.0671 -0.3176
    3TYR    SC2  802   3.235   2.802   2.307  0.4733  0.0012  0.0726
    3TYR    SC3  803   3.272   2.841   2.042 -0.0073 -0.2608 -0.0470
    1TYR     BB  804   5.520   3.577   4.232 -0.1294  0.0115 -0.1748
    1TYR    SC1  805   5.787   3.525   4.399  0.4950  0.1129  0.0285
    1TYR    SC2  806   5.859   3.342   4.584  0.4736  0.2777  0.2033
    1TYR    SC3  807   5.853   3.604   4.648  0.2042  0.3143  0.0474
    2ARG     BB  808   5.299   3.678   4.499 -0.0186 -0.1352 -0.0704
    2ARG    SC1  809   5.051   3.533   4.390 -0.0822  0.2782  0.1309
    2ARG    SC2  810   5.026   3.350   4.083 -0.0996  0.2686 -0.0710
    3TYR     BB  811   5.381   3.577   4.802 -0.0769  0.1343  0.0285
    3TYR    SC1  812   5.135   3.462   4.939 -0.0321 -0.2920 -0.2914
    3TYR    SC2  813   4.867   3.482   4.920 -0.0278  0.5109  0.0075
    3TYR    SC3  814   4.979   3.374   5.141 -0.0908  0.1764 -0.1168
    1TYR     BB  815   5.059   1.726   2.577  0.2109 -0.2131 -0.0585
    1TYR    SC1  816   5.146   1.895   2.805 -0.1602 -0.1245 -0.0960
    1TYR    SC2  817   5.106   2.084   2.994 -0.0128 -0.2570  0.0722
    1TYR    SC3  818   5.355   2.035   2.903 -0.0954 -0.1106 -0.2505
    2ARG     BB  819   4.820   1.629   2.519 -0.3357 -0.3887 -0.1656
    2ARG    SC1  820   4.814   1.309   2.662  0.0656  0.1271  0.1319
    2ARG    SC2  821   4.650   1.041   2.842 -0.0128 -0.4218  0.1395
    3TYR     BB  822   4.578   1.618   2.373  0.0595 -0.2975 -0.3796
    3TYR    SC1  823   4.478   1.744   2.162 -0.0030  0.0760  0.0777
    3TYR    SC2  824   4.560   1.967   2.033 -0.0934  0.0292 -0.0635
    3TYR    SC3  825   4.306   1.879   2.004 -0.0777 -0.0551  0.0450
    1TYR     BB  826   2.212   4.439   1.139  0.0977  0.3866 -0.0347
    1TYR    SC1  827   2.487   4.319   1.091  0.3127  0.0746  0.0238
    1TYR    SC2  828   2.752   4.339   1.137  0.3296 -0.1740  0.0504
    1TYR    SC3  829   2.644   4.100   1.074  0.0629 -0.1435  0.3591
    2ARG     BB  830   2.029   4.648   1.096 -0.3070 -0.1192  0.1559
    2ARG    SC1  831   1.925   4.750   1.369  0.0718 -0.0160 -0.2756
    2ARG    SC2  832   1.662   4.757   1.587 -0.1468 -0.2195 -0.0182
    3TYR     BB  833   1.865   4.807   0.856  0.0225  0.2482 -0.3793
    3TYR    SC1  834   1.955   5.078   0.963 -0.1799  0.2063 -0.0881
    3TYR    SC2  835   2.200   5.177   1.019  0.0466 -0.4068  0.1199
    3TYR    SC3  836   1.992   5.231   1.183  0.0618  0.0034  0.0192
    1TYR     BB  837   3.391   2.517   2.674  0.0470  0.1671 -0.0627
    1TYR    SC1  838   3.047   2.525   2.660  0.0940 -0.1972 -0.3695
    1TYR    SC2  839   2.856   2.628   2.821  0.4424  0.1497 -0.1572
    1TYR    SC3  840   2.819   2.387   2.705  0.0207  0.0591  0.1357
    2ARG     BB  841   3.523   2.423   2.354  0.0591 -0.2787  0.2115
    2ARG    SC1  842   3.290   2.298   2.168  0.1014 -0.3436  0.2345
    2ARG    SC2  843   3.293   1.990   2.004 -0.1011 -0.3142  0.1766
    3TYR     BB  844   3.760   2.309   2.363 -0.1960 -0.1643  0.0544
    3TYR    SC1  845   3.687   1.999   2.449 -0.1330 -0.0865 -0.3120
    3TYR    SC2  846   3.673   1.896   2.698 -0.0971  0.0411 -0.2565
    3TYR    SC3  847   3.563   1.763   2.491  0.1375 -0.2171 -0.2224
    1TYR     BB  848   4.717   5.260   6.466  0.2893  0.2171 -0.1081
    1TYR    SC1  849   4.578   5.294   6.746 -0.1216 -0.4332 -0.0339
    1TYR    SC2  850   4.379   5.199   6.901  0.0773 -0.4441  0.2225
    1TYR    SC3  851   4.523   5.412   6.982 -0.1115 -0.1538 -0.1662
    2ARG     BB  852   4.559   5.032   6.308  0.1137 -0.1086  0.0078
    2ARG    SC1  853   4.347   4.884   6.495  0.1310 -0.1992 -0.0589
    2ARG    SC2  854   4.073   4.914   6.644 -0.1943 -0.0286 -0.3335
    3TYR     BB  855   4.707   4.921   6.055 -0.2407 -0.0411  0.1522
    3TYR    SC1  856   4.475   4.871   5.880 -0.0052  0.2100 -0.2686
    3TYR    SC2  857   4.418   4.940   5.625 -0.0359  0.0810 -0.2975
    3TYR    SC3  858   4.236   4.981   5.821  0.0463  0.3243 -0.2678
    1TYR     BB  859   5.514   5.234   6.398  0.0927  0.1324 -0.2665
    1TYR    SC1  860   5.457   5.008   6.176  0.0410  0.2014 -0.2718
    1TYR    SC2  861   5.629   4.880   6.013  0.2394 -0.1401  0.1784
    1TYR    SC3  862   5.383   4.777   6.058  0.1160  0.0509 -0.0337
    2ARG     BB  863   5.278   5.329   6.529  0.0699  0.2415  0.0731
    2ARG    SC1  864   5.209   5.586   6.318  0.2688 -0.0278 -0.0355
    2ARG    SC2  865   5.227   5.758   6.032 -0.0344  0.0596  0.0788
    3TYR     BB  866   5.050   5.292   6.809 -0.2188 -0.1542  0.0804
    3TYR    SC1  867   5.273   5.196   6.999 -0.3363 -0.0423 -0.3694
    3TYR    SC2  868   5.284   4.931   7.052 -0.3234  0.0234 -0.0183
    3TYR    SC3  869   5.511   5.069   7.005 -0.3331 -0.0314 -0.2370
    1TYR     BB  870   4.574   3.036   6.539 -0.1193 -0.0151  0.0814
    1TYR    SC1  871   4.483   3.255   6.731 -0.1287  0.1012 -0.2973
    1TYR    SC2  872   4.294   3.305   6.917  0.0998 -0.1736  0.0257
    1TYR    SC3  873   4.421   3.510   6.794  0.0206  0.0172  0.2532
    2ARG     BB  874   4.672   3.048   6.289 -0.1903  0.0702 -0.1493
    2ARG    SC1  875   4.414   2.965   6.080  0.2841 -0.2913  0.3444
    2ARG    SC2  876   4.202   2.760   6.202 -0.1919  0.1360 -0.0437
    3TYR     BB  877   4.879   2.980   6.048 -0.1585 -0.0284 -0.1855
    3TYR    SC1  878   4.811   3.007   5.742  0.1927 -0.2467 -0.0385
    3TYR    SC2  879   4.804   3.157   5.517 -0.0380 -0.2221 -0.0175
    3TYR    SC3  880   4.586   3.141   5.676  0.1324 -0.2132  0.2234
    1TYR     BB  881   2.528   5.176   0.241  0.4138 -0.0312  0.2094
    1TYR    SC1  882   2.512   4.838   0.232 -0.0578 -0.1209  0.0632
    1TYR    SC2  883   2.703   4.662   0.305 -0.2283 -0.2341  0.2525
    1TYR    SC3  884   2.523   4.595   0.115  0.0838 -0.0203 -0.1394
    2ARG     BB  885   2.392   5.283   0.047  0.0386 -0.1035  0.0001
    2ARG    SC1  886   2.413   5.222  -0.253  0.0390  0.1073  0.0092
    2ARG    SC2  887   2.353   5.111  -0.533 -0.2299 -0.0609  0.1182
    3TYR     BB  888   2.093   5.434   0.080 -0.1404  0.0708 -0.0932
    3TYR    SC1  889   2.110   5.611  -0.197  0.1022 -0.3202 -0.1551
    3TYR    SC2  890   2.102   5.532  -0.455 -0.6160 -0.1155 -0.2209
    3TYR    SC3  891   2.094   5.794  -0.394  0.4326 -0.0846  0.0243
    1TYR     BB  892   4.167   3.322   1.728 -0.2871  0.2405  0.0295
    1TYR    SC1  893   4.249   3.624   1.712  0.0709 -0.0934  0.2720
    1TYR    SC2  894   4.413   3.808   1.603 -0.0604 -0.2283 -0.1773
    1TYR    SC3  895   4.314   3.846   1.851  0.2275  0.1064 -0.1037
    2ARG     BB  896   3.829   3.345   1.599 -0.2307 -0.0594  0.2141
    2ARG    SC1  897   3.810   3.641   1.530 -0.1923 -0.2764 -0.1195
    2ARG    SC2  898   3.801   3.956   1.597 -0.0540 -0.1236 -0.1896
    3TYR     BB  899   3.614   3.152   1.770  0.0246 -0.2504  0.1062
    3TYR    SC1  900   3.643   2.865   1.841 -0.0797  0.0931  0.1230
    3TYR    SC2  901   3.744   2.716   2.042 -0.1481 -0.2980 -0.1173
    3TYR    SC3  902   3.631   2.595   1.829  0.1407  0.0908 -0.5118
    1TYR     BB  903   5.501   1.804   2.353 -0.2488 -0.1865  0.3325
    1TYR    SC1  904   5.739   1.585   2.345 -0.0846 -0.1005 -0.3445
    1TYR    SC2  905   5.928   1.413   2.258 -0.0960 -0.2729 -0.0455
    1TYR    SC3  906   5.981   1.578   2.464 -0.1355 -0.0161 -0.2347
    2ARG     BB  907   5.583   2.054   2.447 -0.2248 -0.2293  0.0394
    2ARG    SC1  908   5.801   1.992   2.702 -0.0653 -0.4553  0.1117
    2ARG    SC2  909   5.835   1.980   3.028 -0.0923  0.0262  0.0699
    3TYR     BB  910   5.437   2.295   2.443 -0.2456 -0.0874 -0.0113
    3TYR    SC1  911   5.126   2.177   2.379 -0.0013  0.0324 -0.0814
    3TYR    SC2  912   4.934   2.183   2.569  0.1685 -0.1422  0.1013
    3TYR    SC3  913   4.868   2.130   2.313 -0.1068  0.3946  0.0431
    1TYR     BB  914   4.749   4.481   7.236  0.0753 -0.1293 -0.0245
    1TYR    SC1  915   5.008   4.404   7.131  0.0286 -0.0321  0.0592
    1TYR    SC2  916   5.203   4.269   7.003 -0.0372 -0.0064 -0.0697
    1TYR    SC3  917   5.161   4.530   6.948 -0.3600 -0.1062 -0.3379
    2ARG     BB  918   4.677   4.743   7.053 -0.1780  0.1067  0.3798
    2ARG    SC1  919   4.839   4.987   7.192 -0.3287 -0.0715  0.1571
    2ARG    SC2  920   4.887   5.198   7.505  0.1405  0.0417  0.1125
    3TYR     BB  921   4.703   4.752   6.763 -0.0150 -0.3878  0.0567
    3TYR    SC1  922   4.980   4.865   6.649 -0.1430  0.0597  0.0024
    3TYR    SC2  923   5.245   4.859   6.596 -0.1553  0.3125 -0.1084
    3TYR    SC3  924   5.069   4.901   6.396 -0.3125 -0.2286 -0.1038
    1TYR     BB  925   1.487   3.993   2.466 -0.0735  0.1422  0.2682
    1TYR    SC1  926   1.319   4.198   2.306  0.4377  0.0337  0.0133
    1TYR    SC2  927   1.258   4.438   2.198  0.1903 -0.0095  0.0505
    1TYR    SC3  928   1.150   4.212   2.096  0.2916 -0.0905  0.1199
    2ARG     BB  929   1.621   3.699   2.416  0.2358  0.0385  0.0225
    2ARG    SC1  930   1.719   3.526   2.672 -0.0287  0.0997  0.0009
    2ARG    SC2  931   1.845   3.402   2.914  0.4445  0.0530  0.0764
    3TYR     BB  932   1.535   3.575   2.230  0.1416  0.2628  0.1203
    3TYR    SC1  933   1.598   3.262   2.261  0.0618  0.0038  0.0160
    3TYR    SC2  934   1.573   3.007   2.176 -0.2827  0.0021  0.1041
    3TYR    SC3  935   1.589   3.060   2.440  0.0379  0.0601  0.0787
    1TYR     BB  936   6.317   1.886   4.735  0.1586 -0.0262  0.5147
    1TYR    SC1  937   6.204   2.140   4.868 -0.1470 -0.1924  0.0828
    1TYR    SC2  938   6.118   2.140   5.124 -0.4555 -0.4751 -0.0117
    1TYR    SC3  939   6.110   2.367   4.979 -0.2963 -0.3169  0.2173
    2ARG     BB  940   6.048   1.795   4.534 -0.3011 -0.1985  0.1382
    2ARG    SC1  941   6.027   1.480   4.546  0.3633  0.0301 -0.2313
    2ARG    SC2  942   6.096   1.199   4.417  0.3577 -0.1873  0.1199
    3TYR     BB  943   6.102   1.874   4.249 -0.1206 -0.0522  0.1834
    3TYR    SC1  944   6.335   2.029   4.178  0.0170  0.2226  0.0372
    3TYR    SC2  945   6.562   2.066   4.319  0.3074 -0.1673 -0.2960
    3TYR    SC3  946   6.504   2.230   4.113  0.0010  0.2568  0.1003
    1TYR     BB  947   3.544   2.243   3.030 -0.1089 -0.1738 -0.2861
    1TYR    SC1  948   3.519   1.966   3.139 -0.0387  0.1332  0.1802
    1TYR    SC2  949   3.327   1.778   3.116  0.1157  0.0207 -0.3554
    1TYR    SC3  950   3.584   1.704   3.151  0.0861  0.1706  0.3698
    2ARG     BB  951   3.678   2.391   3.301  0.2311 -0.2220 -0.0244
    2ARG    SC1  952   4.004   2.279   3.303  0.0027 -0.0817  0.0723
    2ARG    SC2  953   4.019   2.036   3.101 -0.2481 -0.2949 -0.2088
    3TYR     BB  954   3.544   2.370   3.549 -0.0182 -0.5124  0.1932
    3TYR    SC1  955   3.352   2.166   3.643  0.0046  0.0162 -0.0287
    3TYR    SC2  956   3.162   2.014   3.761  0.2527 -0.1749  0.1378
    3TYR    SC3  957   3.335   1.902   3.586  0.1193  0.0304 -0.1338
    1TYR     BB  958   5.571   1.811   4.346 -0.4878  0.2460  0.0716
    1TYR    SC1  959   5.457   1.642   4.106  0.1634  0.3615  0.0377
    1TYR    SC2  960   5.431   1.430   3.942  0.0331  0.3119  0.1201
    1TYR    SC3  961   5.283   1.652   3.900  0.3791  0.5053 -0.1428
    2ARG     BB  962   5.686   2.149   4.336  0.1599 -0.0566  0.0399
    2ARG    SC1  963   5.573   2.278   4.110  0.1663  0.1432 -0.0316
    2ARG    SC2  964   5.380   2.149   3.819 -0.0195 -0.1151  0.0631
    3TYR     BB  965   5.882   2.253   4.500 -0.1567 -0.1479  0.1091
    3TYR    SC1  966   6.167   2.395   4.481  0.1759 -0.2399  0.1388
    3TYR    SC2  967   6.387   2.509   4.590  0.1611 -0.0309 -0.0421
    3TYR    SC3  968   6.282   2.608   4.362 -0.0908 -0.1622  0.0116
    1TYR     BB  969   2.254   3.464   3.138 -0.0955 -0.1585 -0.0561
    1TYR    SC1  970   2.171   3.630   3.424 -0.0137 -0.2019  0.2190
    1TYR    SC2  971   2.150   3.559   3.684 -0.0761 -0.0435  0.2594
    1TYR    SC3  972   2.155   3.820   3.616 -0.0777 -0.0839  0.0989
    2ARG     BB  973   2.319   3.685   2.936 -0.0009  0.2638 -0.0738
    2ARG    SC1  974   2.432   3.897   3.129 -0.0714 -0.0478 -0.0682
    2ARG    SC2  975   2.290   4.128   3.249 -0.0092 -0.0532  0.1747
    3TYR     BB  976   2.249   3.717   2.701 -0.2549 -0.2228  0.1658
    3TYR    SC1  977   2.406   3.629   2.455 -0.0628 -0.2070  0.0886
    3TYR    SC2  978   2.386   3.463   2.243  0.0344 -0.2731  0.1302
    3TYR    SC3  979   2.613   3.603   2.283 -0.1080  0.0033 -0.0005
    1TYR     BB  980   5.051   3.889   6.264 -0.1936 -0.0249  0.0771
    1TYR    SC1  981   5.164   3.640   6.231 -0.2322  0.1409  0.5247
    1TYR    SC2  982   5.365   3.460   6.214 -0.2499  0.1412  0.2690
    1TYR    SC3  983   5.114   3.377   6.269 -0.2572  0.0852  0.1571
    2ARG     BB  984   4.889   4.116   6.072 -0.3613  0.0793  0.0805
    2ARG    SC1  985   4.763   3.989   5.806 -0.0591  0.2725  0.0052
    2ARG    SC2  986   4.418   3.993   5.871 -0.0076 -0.0250  0.5341
    3TYR     BB  987   4.965   4.422   5.997 -0.1541 -0.0763 -0.0657
    3TYR    SC1  988   4.903   4.510   5.729  0.1098  0.0512 -0.0802
    3TYR    SC2  989   4.927   4.415   5.477 -0.2543  0.0732 -0.1301
    3TYR    SC3  990   4.712   4.563   5.545 -0.0680  0.2270  0.1480
    1TYR     BB  991   1.452   4.928  -0.061 -0.0364  0.3207 -0.0055
    1TYR    SC1  992   1.447   4.924  -0.323 -0.1058 -0.0354  0.1024
    1TYR    SC2  993   1.434   5.103  -0.525  0.1628  0.1519  0.2433
    1TYR    SC3  994   1.574   4.874  -0.556 -0.1761 -0.0413  0.0650
    2ARG     BB  995   1.231   4.771   0.146  0.1668 -0.0788 -0.1357
    2ARG    SC1  996   0.921   4.826  -0.058 -0.0398  0.0739  0.2780
    2ARG    SC2  997   0.648   4.962  -0.171  0.2032 -0.1105 -0.0098
    3TYR     BB  998   1.258   4.425   0.196 -0.1317  0.4174 -0.0413
    3TYR    SC1  999   1.011   4.282   0.128  0.0682 -0.0930  0.2054
    3TYR    SC2 1000   0.768   4.213   0.222 -0.1680  0.3402 -0.0430
    3TYR    SC3 1001   0.858   4.108  -0.010 -0.0078  0.0101  0.1581
    1TYR     BB 1002   6.107   2.906   6.982 -0.2263  0.1472  0.0348
    1TYR    SC1 1003   6.332   2.966   7.204  0.1091  0.0660  0.0752
    1TYR    SC2 1004   6.430   3.103   7.416 -0.4626 -0.2195  0.5612
    1TYR    SC3 1005   6.376   2.839   7.438  0.0349 -0.4196 -0.1597
    2ARG     BB 1006   6.202   2.596   6.868  0.1384  0.2485  0.1289
    2ARG    SC1 1007   6.309   2.405   7.075 -0.1410  0.0065 -0.0085
    2ARG    SC2 1008   6.376   2.045   7.146 -0.2375  0.1426  0.0877
    3TYR     BB 1009   6.172   2.524   6.593 -0.2057 -0.2991 -0.1838
    3TYR    SC1 1010   5.915   2.656   6.471 -0.1528 -0.2122  0.0416
    3TYR    SC2 1011   5.690   2.803   6.497 -0.0445  0.0052 -0.1993
    3TYR    SC3 1012   5.699   2.601   6.318 -0.0552 -0.0204 -0.1711
    1TYR     BB 1013   5.913   5.323   6.771  0.1045 -0.2671  0.0455
    1TYR    SC1 1014   5.665   5.548   6.865 -0.1226 -0.2705  0.1065
    1TYR    SC2 1015   5.461   5.606   7.031  0.1645  0.1099  0.3471
    1TYR    SC3 1016   5.463   5.707   6.781 -0.2824 -0.4863  0.0690
    2ARG     BB 1017   6.021   5.456   6.535 -0.0817 -0.0002 -0.0355
    2ARG    SC1 1018   6.323   5.429   6.521  0.1797 -0.0956 -0.2846
    2ARG    SC2 1019   6.627   5.520   6.623  0.0574  0.0049 -0.0678
    3TYR     BB 1020   6.019   5.185   6.242 -0.0952  0.0837  0.1455
    3TYR    SC1 1021   5.924   4.975   6.417 -0.0047 -0.0093 -0.2933
    3TYR    SC2 1022   5.757   4.764   6.420  0.2323 -0.2025 -0.1675
    3TYR    SC3 1023   5.798   4.906   6.645 -0.0466  0.0845 -0.2873
    1TYR     BB 1024   2.633   6.273   0.365  0.0235  0.2459  0.1105
    1TYR    SC1 1025   2.433   6.458   0.316  0.4465  0.0336 -0.2569
    1TYR    SC2 1026   2.214   6.546   0.184  0.2301  0.0609  0.1039
    1TYR    SC3 1027   2.384   6.723   0.296  0.0397  0.0422  0.4401
    2ARG     BB 1028   2.817   6.326   0.631 -0.1603 -0.1054  0.3337
    2ARG    SC1 1029   2.630   6.566   0.786 -0.0145 -0.3462  0.0481
    2ARG    SC2 1030   2.479   6.782   0.972  0.2206  0.3280 -0.1088
    3TYR     BB 1031   3.146   6.220   0.583  0.2452 -0.1617  0.2322
    3TYR    SC1 1032   3.192   6.071   0.805 -0.0060 -0.0669 -0.0052
    3TYR    SC2 1033   3.328   6.063   1.038 -0.1865 -0.2844  0.0981
    3TYR    SC3 1034   3.083   5.951   1.021 -0.2778 -0.0617 -0.1342
    1TYR     BB 1035   5.563   2.686   5.667 -0.1096  0.1039 -0.0314
    1TYR    SC1 1036   5.789   2.795   5.821  0.2031  0.1703 -0.1876
    1TYR    SC2 1037   5.996   2.843   5.988 -0.0189  0.0870  0.1237
    1TYR    SC3 1038   5.965   2.992   5.765  0.3232  0.1573  0.1158
    2ARG     BB 1039   5.287   2.779   5.836  0.4092 -0.1367 -0.1483
    2ARG    SC1 1040   5.076   2.601   5.800  0.1266  0.0450  0.1132
    2ARG    SC2 1041   5.080   2.287   5.725 -0.0834  0.4297  0.4312
    3TYR     BB 1042   5.355   2.975   6.038 -0.1789 -0.1044  0.2997
    3TYR    SC1 1043   5.611   3.173   5.996  0.2215 -0.0663  0.0276
    3TYR    SC2 1044   5.800   3.200   6.187  0.0906  0.0773  0.1399
    3TYR    SC3 1045   5.804   3.360   5.970  0.2204 -0.0640  0.0357
    1TYR     BB 1046   2.549   4.628   1.481  0.0187  0.0959  0.0734
    1TYR    SC1 1047   2.336   4.514   1.636  0.0015  0.3232  0.3620
    1TYR    SC2 1048   2.260   4.334   1.821 -0.2371 -0.2854 -0.2719
    1TYR    SC3 1049   2.093   4.533   1.751 -0.1694 -0.0866  0.0971
    2ARG     BB 1050   2.492   4.867   1.305 -0.1952 -0.1310  0.1700
    2ARG    SC1 1051   2.337   5.032   1.517  0.0564  0.0256  0.0936
    2ARG    SC2 1052   2.333   5.345   1.494 -0.3315 -0.1507 -0.1890
    3TYR     BB 1053   2.674   5.091   1.159  0.2216  0.2984 -0.1041
    3TYR    SC1 1054   2.732   5.318   1.305  0.1275 -0.1416 -0.0606
    3TYR    SC2 1055   2.824   5.476   1.504 -0.0162 -0.1455  0.0104
    3TYR    SC3 1056   2.714   5.586   1.283 -0.1273 -0.1444  0.0653
    1TYR     BB 1057   4.505   4.439   6.309  0.1224 -0.1123 -0.1752
    1TYR    SC1 1058   4.337   4.433   6.040 -0.1672  0.3138  0.0490
    1TYR    SC2 1059   4.243   4.485   5.792 -0.2208  0.2214  0.0494
    1TYR    SC3 1060   4.104   4.324   5.958  0.1222 -0.2463 -0.0895
    2ARG     BB 1061   4.352   4.401   6.591 -0.1537 -0.0805  0.1486
    2ARG    SC1 1062   4.056   4.351   6.496 -0.0019 -0.0115 -0.0311
    2ARG    SC2 1063   3.792   4.373   6.376  0.2677  0.0695  0.0357
    3TYR     BB 1064   4.471   4.335   6.871  0.0183 -0.0264  0.0272
    3TYR    SC1 1065   4.573   4.084   6.976 -0.1451  0.0194 -0.2501
    3TYR    SC2 1066   4.583   3.836   7.083  0.0251  0.2218  0.2381
    3TYR    SC3 1067   4.810   3.978   7.049 -0.0493  0.2520 -0.2152
    1TYR     BB 1068   0.933   5.249   1.275  0.3341 -0.0150 -0.0128
    1TYR    SC1 1069   1.045   5.414   1.034 -0.0421 -0.2554  0.1177
    1TYR    SC2 1070   1.160   5.629   0.918  0.1695 -0.2474  0.3334
    1TYR    SC3 1071   1.095   5.414   0.769  0.4606 -0.2487  0.2007
    2ARG     BB 1072   0.690   4.953   1.078  0.0749  0.0887 -0.3468
    2ARG    SC1 1073   0.709   5.022   0.769 -0.1065  0.1100 -0.1701
    2ARG    SC2 1074   0.564   5.107   0.510 -0.2175 -0.1104  0.0373
    3TYR     BB 1075   0.600   4.589   1.202 -0.3437 -0.2426 -0.2698
    3TYR    SC1 1076   0.502   4.519   0.875  0.0783 -0.4399 -0.0061
    3TYR    SC2 1077   0.629   4.460   0.644  0.1742  0.2934 -0.1722
    3TYR    SC3 1078   0.426   4.637   0.644  0.0536  0.1725  0.2905
    1TYR     BB 1079   4.353   1.431   2.803  0.1764 -0.0778 -0.2518
    1TYR    SC1 1080   4.533   1.634   2.917  0.2073  0.0496  0.1451
    1TYR    SC2 1081   4.756   1.777   2.973  0.2273  0.0205  0.1402
    1TYR    SC3 1082   4.520   1.844   3.086  0.2085  0.1425  0.0311
    2ARG     BB 1083   4.073   1.516   2.720 -0.1142 -0.3919  0.0480
    2ARG    SC1 1084   3.832   1.383   2.905 -0.1891 -0.0924  0.2145
    2ARG    SC2 1085   3.743   1.200   3.141 -0.1340  0.2707 -0.0198
    3TYR     BB 1086   4.060   1.478   2.361 -0.0653  0.0160  0.1753
    3TYR    SC1 1087   4.264   1.315   2.225  0.1942 -0.2198  0.1877
    3TYR    SC2 1088   4.389   1.159   2.043 -0.2622 -0.3081 -0.0689
    3TYR    SC3 1089   4.467   1.155   2.302  0.1121 -0.5156 -0.1763
    1TYR     BB 1090   2.226   2.961   3.231  0.1930  0.1982 -0.1436
    1TYR    SC1 1091   2.007   3.023   3.401  0.1412 -0.0404  0.0526
    1TYR    SC2 1092   1.891   3.260   3.460  0.1473  0.0140 -0.1449
    1TYR    SC3 1093   1.975   3.097   3.659 -0.0756  0.0676 -0.0022
    2ARG     BB 1094   2.153   2.897   2.954 -0.1146  0.2258  0.1176
    2ARG    SC1 1095   1.830   2.925   2.895 -0.1272 -0.1659 -0.2952
    2ARG    SC2 1096   1.649   2.694   2.833  0.0130  0.0291 -0.0771
    3TYR     BB 1097   2.422   2.757   2.732  0.6067 -0.1684 -0.0657
    3TYR    SC1 1098   2.570   3.014   2.690  0.2351  0.1309 -0.0942
    3TYR    SC2 1099   2.675   3.251   2.614 -0.0687  0.3585  0.1619
    3TYR    SC3 1100   2.674   3.181   2.875 -0.0269  0.0934  0.0940
   7.64069   7.64069   7.64069
