Generated by trjconv : Martini system from ../2_Creating_coordinates/TYR-THR-TYR_aa.pdb t=   0.00000
  630
    1TYR     BB    1   2.771   2.398   3.573  0.1964  0.0289 -0.0514
    1TYR    SC1    2   2.660   2.533   3.844 -0.0492 -0.0812  0.1396
    1TYR    SC2    3   2.706   2.608   4.099  0.2865  0.0624  0.0445
    1TYR    SC3    4   2.459   2.532   4.023  0.0819  0.4202  0.3122
    2THR     BB    5   2.919   2.494   3.249  0.0115 -0.1160 -0.0114
    2THR    SC1    6   2.886   2.280   3.104 -0.1376 -0.3075  0.2927
    3TYR     BB    7   3.191   2.670   3.164  0.4884 -0.2518  0.0292
    3TYR    SC1    8   3.313   2.412   2.990 -0.3001  0.0782 -0.3392
    3TYR    SC2    9   3.376   2.152   2.956 -0.6361 -0.0500 -0.0544
    3TYR    SC3   10   3.503   2.341   2.811  0.1605 -0.3017  0.2522
    1TYR     BB   11   1.671   3.306   4.254  0.0878  0.1420 -0.0573
    1TYR    SC1   12   1.517   3.447   4.472  0.0177 -0.1353 -0.0635
    1TYR    SC2   13   1.450   3.425   4.732  0.0767 -0.4211 -0.0690
    1TYR    SC3   14   1.290   3.561   4.563 -0.0215 -0.3321  0.0927
    2THR     BB   15   1.894   3.479   4.106  0.2082  0.2004 -0.1891
    2THR    SC1   16   2.136   3.400   4.160  0.0331 -0.0864  0.2367
    3TYR     BB   17   1.817   3.732   3.980 -0.0556  0.3492 -0.1416
    3TYR    SC1   18   1.674   3.880   4.208 -0.0743  0.0328 -0.1951
    3TYR    SC2   19   1.605   4.131   4.280  0.2030  0.0672 -0.0318
    3TYR    SC3   20   1.610   3.935   4.465  0.3849  0.0331 -0.0709
    1TYR     BB   21   3.146   3.237   3.127 -0.0857 -0.0080  0.2111
    1TYR    SC1   22   3.104   3.203   2.825 -0.2483 -0.2443  0.2704
    1TYR    SC2   23   3.010   3.215   2.572  0.0029  0.1343  0.1849
    1TYR    SC3   24   3.144   2.995   2.657  0.1779  0.1189 -0.1118
    2THR     BB   25   3.449   3.101   3.180  0.2120 -0.2691 -0.1627
    2THR    SC1   26   3.645   3.045   3.018  0.2060 -0.2255 -0.1854
    3TYR     BB   27   3.483   3.023   3.486  0.0771  0.1249 -0.0260
    3TYR    SC1   28   3.739   3.202   3.548 -0.2842 -0.0733  0.1788
    3TYR    SC2   29   3.759   3.397   3.735 -0.4903  0.0314  0.0958
    3TYR    SC3   30   3.889   3.422   3.500 -0.3315 -0.0421  0.1737
    1TYR     BB   31   3.377   5.269   4.339  0.1201 -0.0753  0.0796
    1TYR    SC1   32   3.218   5.490   4.472  0.0100 -0.0240  0.0833
    1TYR    SC2   33   2.985   5.563   4.588 -0.1562 -0.4418  0.0356
    1TYR    SC3   34   3.152   5.751   4.491 -0.3817 -0.1236  0.2381
    2THR     BB   35   3.654   5.262   4.468  0.0121  0.4306 -0.1878
    2THR    SC1   36   3.888   5.375   4.458  0.0626  0.3113 -0.5465
    3TYR     BB   37   3.677   5.026   4.692 -0.1167  0.0263  0.0065
    3TYR    SC1   38   3.606   5.046   4.989  0.2648  0.2096 -0.0944
    3TYR    SC2   39   3.429   5.066   5.192 -0.0792  0.2130 -0.3820
    3TYR    SC3   40   3.666   4.943   5.231 -0.1589  0.1655  0.0022
    1TYR     BB   41   3.343   3.927   3.234  0.0505 -0.3156 -0.1358
    1TYR    SC1   42   3.278   4.092   3.517 -0.0438  0.4523 -0.3406
    1TYR    SC2   43   3.218   4.079   3.779  0.1894 -0.1000 -0.2968
    1TYR    SC3   44   3.354   4.292   3.682  0.3101  0.0056  0.0780
    2THR     BB   45   3.450   3.646   3.330 -0.1591 -0.1060 -0.0277
    2THR    SC1   46   3.356   3.537   3.546  0.0414 -0.1308  0.0505
    3TYR     BB   47   3.678   3.503   3.084  0.4175 -0.1863  0.0672
    3TYR    SC1   48   3.579   3.482   2.816 -0.4755 -0.2125  0.2718
    3TYR    SC2   49   3.521   3.312   2.615  0.0963 -0.0944 -0.0237
    3TYR    SC3   50   3.565   3.573   2.562 -0.1353  0.0245  0.3274
    1TYR     BB   51   5.524   4.757   4.013  0.1575  0.3576 -0.1482
    1TYR    SC1   52   5.672   4.949   4.113  0.1312 -0.4153 -0.1019
    1TYR    SC2   53   5.865   5.134   4.077 -0.0840 -0.1423  0.0816
    1TYR    SC3   54   5.624   5.208   4.171 -0.1681 -0.5273  0.1933
    2THR     BB   55   5.302   4.619   4.238 -0.0743  0.1383 -0.2303
    2THR    SC1   56   5.217   4.385   4.167  0.0694 -0.0552  0.1937
    3TYR     BB   57   5.449   4.679   4.491 -0.1034  0.3936 -0.2353
    3TYR    SC1   58   5.435   4.427   4.675 -0.0140  0.1186 -0.2077
    3TYR    SC2   59   5.477   4.174   4.760  0.0612  0.1308 -0.2075
    3TYR    SC3   60   5.598   4.380   4.885  0.0407  0.1627 -0.2400
    1TYR     BB   61   4.401   3.300   5.018  0.1414  0.0224 -0.3606
    1TYR    SC1   62   4.216   3.571   5.046  0.1725  0.2755  0.0335
    1TYR    SC2   63   4.230   3.825   4.952  0.0990  0.2359 -0.0884
    1TYR    SC3   64   4.156   3.779   5.208  0.3381  0.3478  0.0045
    2THR     BB   65   4.618   3.338   4.756  0.1191  0.0140  0.2552
    2THR    SC1   66   4.675   3.113   4.637 -0.3964  0.0531 -0.1036
    3TYR     BB   67   4.887   3.440   4.940  0.2997 -0.0356 -0.1182
    3TYR    SC1   68   4.860   3.708   5.051 -0.0883  0.2613 -0.3019
    3TYR    SC2   69   4.976   3.921   5.169 -0.0528  0.1043 -0.0426
    3TYR    SC3   70   4.722   3.938   5.078 -0.1770  0.1589  0.2953
    1TYR     BB   71   1.210   3.683   4.069 -0.1054  0.0817  0.1774
    1TYR    SC1   72   0.934   3.617   4.187  0.0297 -0.0811 -0.4122
    1TYR    SC2   73   0.717   3.594   4.346  0.1942  0.1904 -0.1338
    1TYR    SC3   74   0.740   3.440   4.126 -0.0355 -0.2112  0.1077
    2THR     BB   75   1.189   4.038   3.966 -0.2116  0.2204 -0.1894
    2THR    SC1   76   0.938   4.088   4.013 -0.1422  0.2431  0.1931
    3TYR     BB   77   1.398   4.051   3.747  0.2925 -0.2342 -0.1316
    3TYR    SC1   78   1.631   4.248   3.841 -0.0837 -0.2993  0.2019
    3TYR    SC2   79   1.884   4.261   3.936  0.0059 -0.1731 -0.0436
    3TYR    SC3   80   1.718   4.472   3.962  0.0462 -0.1200 -0.2035
    1TYR     BB   81   2.582   3.589   4.097  0.1179 -0.0408 -0.1339
    1TYR    SC1   82   2.616   3.523   4.358 -0.1754 -0.1643  0.0013
    1TYR    SC2   83   2.650   3.634   4.601 -0.0043  0.1588 -0.1618
    1TYR    SC3   84   2.668   3.367   4.572 -0.1471  0.1031  0.1966
    2THR     BB   85   2.779   3.783   3.883  0.1588 -0.0746  0.0810
    2THR    SC1   86   2.984   3.623   3.886  0.2919  0.0674 -0.3617
    3TYR     BB   87   2.636   4.028   3.707 -0.0737  0.0442  0.0777
    3TYR    SC1   88   2.815   4.153   3.472 -0.0695  0.1210 -0.0483
    3TYR    SC2   89   2.876   4.107   3.214  0.1692 -0.0212  0.0289
    3TYR    SC3   90   2.978   4.322   3.340 -0.2364  0.2561 -0.0869
    1TYR     BB   91   1.139   2.690   4.320 -0.0449 -0.0794 -0.0413
    1TYR    SC1   92   1.068   2.985   4.199 -0.3894 -0.2278  0.0563
    1TYR    SC2   93   1.149   3.236   4.256 -0.3462 -0.2190 -0.0392
    1TYR    SC3   94   1.143   3.153   4.000  0.1602 -0.4876  0.0187
    2THR     BB   95   1.352   2.739   4.582  0.0657  0.1579 -0.0562
    2THR    SC1   96   1.282   2.551   4.748  0.2615  0.0436 -0.0985
    3TYR     BB   97   1.603   2.890   4.590  0.0690 -0.0957  0.0243
    3TYR    SC1   98   1.630   3.016   4.874  0.1667 -0.0060 -0.1604
    3TYR    SC2   99   1.813   3.107   5.049  0.2371 -0.0763 -0.1970
    3TYR    SC3  100   1.557   3.083   5.125  0.1700  0.3602 -0.2485
    1TYR     BB  101   4.492   4.631   4.649  0.0847 -0.2637  0.0031
    1TYR    SC1  102   4.577   4.723   4.897  0.1452 -0.1263 -0.1359
    1TYR    SC2  103   4.758   4.844   5.056  0.1755 -0.0649 -0.2162
    1TYR    SC3  104   4.514   4.955   5.020  0.0687 -0.2167  0.0007
    2THR     BB  105   4.768   4.656   4.427  0.2062  0.3284  0.0170
    2THR    SC1  106   4.958   4.747   4.579  0.4236 -0.0677  0.0007
    3TYR     BB  107   4.773   4.672   4.139 -0.0625  0.0911  0.0139
    3TYR    SC1  108   4.491   4.617   4.035 -0.0942 -0.2918  0.1172
    3TYR    SC2  109   4.295   4.603   3.852 -0.0898 -0.0924  0.0937
    3TYR    SC3  110   4.234   4.615   4.115 -0.1150  0.0674  0.0817
    1TYR     BB  111   2.843   4.841   2.414  0.1241 -0.2734  0.0208
    1TYR    SC1  112   3.126   4.722   2.420  0.0835  0.2410  0.2632
    1TYR    SC2  113   3.392   4.755   2.398  0.0947  0.0579  0.0793
    1TYR    SC3  114   3.291   4.564   2.561  0.0866 -0.0281 -0.0245
    2THR     BB  115   2.650   4.537   2.378  0.0232  0.2349  0.0829
    2THR    SC1  116   2.840   4.360   2.379  0.0829  0.2984  0.2035
    3TYR     BB  117   2.390   4.420   2.589 -0.0586 -0.2901  0.2156
    3TYR    SC1  118   2.519   4.156   2.725 -0.3566  0.0673  0.2086
    3TYR    SC2  119   2.495   3.888   2.739  0.0019  0.0301  0.1810
    3TYR    SC3  120   2.728   4.000   2.661 -0.2429  0.3441 -0.1354
    1TYR     BB  121   3.264   4.728   3.473  0.0137  0.0247 -0.0073
    1TYR    SC1  122   3.401   4.761   3.219 -0.1348  0.3162  0.0490
    1TYR    SC2  123   3.653   4.821   3.137  0.0075 -0.1349  0.1248
    1TYR    SC3  124   3.448   4.825   2.960  0.1570 -0.2404 -0.0544
    2THR     BB  125   3.145   5.026   3.627  0.0344  0.4485 -0.1082
    2THR    SC1  126   3.347   5.089   3.778  0.2053 -0.1604 -0.0529
    3TYR     BB  127   2.885   5.185   3.616 -0.1664 -0.0966  0.2707
    3TYR    SC1  128   2.836   5.367   3.402 -0.1584 -0.1308  0.0660
    3TYR    SC2  129   2.788   5.478   3.161 -0.0656 -0.1058  0.0592
    3TYR    SC3  130   2.748   5.622   3.386 -0.2572 -0.1643  0.0641
    1TYR     BB  131   5.227   3.506   2.386 -0.2104 -0.0375  0.1577
    1TYR    SC1  132   4.998   3.465   2.588  0.1303 -0.2624 -0.0326
    1TYR    SC2  133   4.853   3.324   2.768  0.1399  0.0374  0.2185
    1TYR    SC3  134   4.900   3.587   2.808  0.4631  0.0255 -0.0351
    2THR     BB  135   5.288   3.840   2.371 -0.3016 -0.1370 -0.1864
    2THR    SC1  136   5.081   3.967   2.463  0.0250  0.2976 -0.0031
    3TYR     BB  137   5.548   4.118   2.398 -0.0556 -0.1065  0.1367
    3TYR    SC1  138   5.708   4.115   2.660  0.1810  0.0989 -0.1253
    3TYR    SC2  139   5.769   3.986   2.890 -0.1992  0.0436 -0.0464
    3TYR    SC3  140   5.836   4.245   2.860 -0.0613  0.0249  0.0863
    1TYR     BB  141   4.060   4.410   4.597  0.1291  0.1219 -0.0741
    1TYR    SC1  142   4.248   4.244   4.782 -0.0454  0.0710  0.0582
    1TYR    SC2  143   4.509   4.177   4.772  0.0753  0.5310 -0.2822
    1TYR    SC3  144   4.403   4.278   5.000 -0.0139 -0.3335  0.1085
    2THR     BB  145   3.735   4.488   4.593 -0.0152 -0.2103  0.1271
    2THR    SC1  146   3.675   4.586   4.360  0.1654  0.1222  0.2111
    3TYR     BB  147   3.555   4.580   4.851 -0.0484  0.0573 -0.2798
    3TYR    SC1  148   3.262   4.622   4.997 -0.0997  0.0640  0.0266
    3TYR    SC2  149   3.000   4.609   4.936 -0.0183  0.1229 -0.3683
    3TYR    SC3  150   3.077   4.670   5.188 -0.3802  0.1948 -0.2676
    1TYR     BB  151   1.151   4.472   3.633  0.2187 -0.2308  0.1587
    1TYR    SC1  152   0.990   4.230   3.506 -0.0817 -0.0037  0.0105
    1TYR    SC2  153   0.742   4.132   3.468 -0.1499  0.1500  0.0500
    1TYR    SC3  154   0.954   3.965   3.475 -0.2360  0.0305 -0.1165
    2THR     BB  155   1.412   4.470   3.427  0.1261  0.0151 -0.1431
    2THR    SC1  156   1.472   4.712   3.350 -0.2981  0.2070  0.0823
    3TYR     BB  157   1.372   4.262   3.140 -0.1906  0.1152 -0.3980
    3TYR    SC1  158   1.164   4.093   3.000  0.2112 -0.3660  0.1414
    3TYR    SC2  159   0.910   4.000   3.022 -0.0501  0.2349 -0.0473
    3TYR    SC3  160   1.047   3.967   2.791 -0.0093  0.0483  0.0008
    1TYR     BB  161   4.814   2.180   3.168  0.1238  0.1646 -0.2314
    1TYR    SC1  162   5.008   2.032   3.371 -0.1923  0.2523  0.1008
    1TYR    SC2  163   4.946   1.804   3.502 -0.3516  0.0677 -0.2782
    1TYR    SC3  164   5.205   1.865   3.452 -0.2949  0.0891  0.0197
    2THR     BB  165   4.693   2.454   3.211 -0.1882  0.0142 -0.0014
    2THR    SC1  166   4.691   2.611   3.419 -0.1100  0.0945 -0.0606
    3TYR     BB  167   4.500   2.537   2.944  0.1560 -0.2325  0.0810
    3TYR    SC1  168   4.691   2.548   2.660  0.3409  0.1950 -0.0046
    3TYR    SC2  169   4.885   2.645   2.498  0.2921  0.3339  0.0189
    3TYR    SC3  170   4.950   2.533   2.735  0.3971 -0.1841 -0.2365
    1TYR     BB  171   4.126   2.077   3.677  0.1281  0.0765 -0.3316
    1TYR    SC1  172   4.041   1.767   3.719 -0.0580  0.0362  0.4012
    1TYR    SC2  173   3.924   1.525   3.698  0.0484  0.0161 -0.0838
    1TYR    SC3  174   4.187   1.542   3.754 -0.0084  0.0348  0.1955
    2THR     BB  175   4.450   2.074   3.569 -0.2301  0.0531  0.0052
    2THR    SC1  176   4.498   1.888   3.393  0.0735  0.0301  0.1063
    3TYR     BB  177   4.644   2.242   3.711 -0.2028  0.0984  0.2364
    3TYR    SC1  178   4.895   2.087   3.848  0.4384 -0.2097 -0.2063
    3TYR    SC2  179   4.926   2.036   4.110  0.0631  0.1431 -0.0796
    3TYR    SC3  180   5.139   2.028   3.946  0.2665 -0.3227  0.1805
    1TYR     BB  181   3.178   3.416   4.302  0.0233 -0.0410 -0.2537
    1TYR    SC1  182   3.071   3.669   4.385 -0.1959 -0.1364  0.0945
    1TYR    SC2  183   3.057   3.887   4.544 -0.1301  0.0309 -0.1216
    1TYR    SC3  184   3.072   3.916   4.276  0.2529 -0.2245 -0.1376
    2THR     BB  185   3.259   3.174   4.434  0.2351  0.2085 -0.1304
    2THR    SC1  186   3.473   3.160   4.580  0.1205  0.4867  0.0794
    3TYR     BB  187   3.001   2.954   4.533 -0.0126 -0.0738 -0.2072
    3TYR    SC1  188   2.955   2.624   4.539 -0.0703 -0.1760 -0.2171
    3TYR    SC2  189   2.990   2.399   4.685 -0.3181 -0.1053 -0.0426
    3TYR    SC3  190   2.997   2.387   4.415  0.2377 -0.2233 -0.0359
    1TYR     BB  191   4.561   4.340   3.335 -0.0564  0.1342 -0.1522
    1TYR    SC1  192   4.338   4.267   3.472 -0.0045  0.0223 -0.2155
    1TYR    SC2  193   4.091   4.304   3.575 -0.0665 -0.0701 -0.3290
    1TYR    SC3  194   4.259   4.122   3.685 -0.1014 -0.1082 -0.3385
    2THR     BB  195   4.474   4.477   3.019 -0.2762 -0.0284 -0.1625
    2THR    SC1  196   4.660   4.570   2.863 -0.3061 -0.0003 -0.1816
    3TYR     BB  197   4.219   4.233   2.912  0.2141  0.0007  0.3309
    3TYR    SC1  198   4.233   4.327   2.622  0.1239 -0.1584 -0.1013
    3TYR    SC2  199   4.198   4.334   2.356  0.0446 -0.2327 -0.0933
    3TYR    SC3  200   4.404   4.467   2.467 -0.2439  0.2825 -0.1336
    1TYR     BB  201   3.032   3.347   4.875 -0.2468  0.2685 -0.1938
    1TYR    SC1  202   2.780   3.136   4.965  0.0402 -0.0951 -0.5428
    1TYR    SC2  203   2.680   2.891   4.910 -0.1522 -0.1016 -0.2029
    1TYR    SC3  204   2.515   3.105   4.921  0.0239  0.0631 -0.5656
    2THR     BB  205   3.023   3.615   5.059 -0.4161  0.1233  0.2805
    2THR    SC1  206   3.176   3.823   5.022 -0.0962 -0.1728 -0.2461
    3TYR     BB  207   2.756   3.623   5.229  0.5268  0.0490  0.0428
    3TYR    SC1  208   2.504   3.503   5.105 -0.0191 -0.3002  0.1879
    3TYR    SC2  209   2.253   3.422   5.165 -0.0597 -0.1671  0.2047
    3TYR    SC3  210   2.300   3.563   4.939 -0.0400  0.0040  0.3135
    1TYR     BB  211   4.043   6.036   3.946 -0.0970  0.1351  0.4110
    1TYR    SC1  212   4.074   6.003   3.631  0.1151  0.3148  0.0490
    1TYR    SC2  213   4.085   5.852   3.406  0.0788  0.0949  0.1916
    1TYR    SC3  214   4.072   6.122   3.387  0.0262  0.0772 -0.0705
    2THR     BB  215   4.190   5.697   3.988  0.0870 -0.0553  0.1072
    2THR    SC1  216   4.211   5.675   4.246  0.0244  0.0141  0.1181
    3TYR     BB  217   4.156   5.480   3.732  0.0226  0.1145  0.0968
    3TYR    SC1  218   4.383   5.461   3.529 -0.1663 -0.1851  0.0025
    3TYR    SC2  219   4.328   5.487   3.267  0.4143  0.2792 -0.0963
    3TYR    SC3  220   4.572   5.403   3.346  0.1296 -0.2309  0.3109
    1TYR     BB  221   2.022   2.935   4.216 -0.1636  0.0811 -0.0087
    1TYR    SC1  222   1.790   2.864   4.037 -0.0224  0.0380 -0.1738
    1TYR    SC2  223   1.584   2.692   4.048  0.0681 -0.0607  0.0557
    1TYR    SC3  224   1.539   2.950   3.985 -0.0901 -0.1308 -0.1347
    2THR     BB  225   2.020   2.669   4.450  0.2084  0.0258  0.1445
    2THR    SC1  226   2.080   2.449   4.325  0.1292  0.0110  0.1323
    3TYR     BB  227   2.102   2.794   4.787  0.1307  0.6188  0.0769
    3TYR    SC1  228   2.136   3.078   4.726 -0.7384  0.1833  0.1889
    3TYR    SC2  229   2.214   3.308   4.609 -0.2944 -0.0641 -0.0365
    3TYR    SC3  230   1.953   3.268   4.670 -0.4402  0.3360 -0.3415
    1TYR     BB  231   4.398   2.773   4.367  0.2017 -0.0512 -0.3005
    1TYR    SC1  232   4.277   2.679   4.102  0.2583  0.0496  0.0043
    1TYR    SC2  233   4.198   2.448   3.988 -0.0311  0.0816  0.1296
    1TYR    SC3  234   4.328   2.632   3.840  0.5009 -0.2857  0.1029
    2THR     BB  235   4.695   2.637   4.385 -0.0313 -0.1292  0.0220
    2THR    SC1  236   4.671   2.433   4.225 -0.3373  0.0025 -0.1112
    3TYR     BB  237   5.003   2.689   4.508  0.0411  0.0121  0.1561
    3TYR    SC1  238   5.122   2.413   4.539 -0.0029  0.0842  0.3630
    3TYR    SC2  239   5.218   2.200   4.403  0.1402  0.1968  0.2843
    3TYR    SC3  240   5.125   2.169   4.655 -0.1393 -0.0175  0.1607
    1TYR     BB  241   3.026   5.945   3.675  0.1450 -0.2225  0.0366
    1TYR    SC1  242   3.152   6.208   3.742 -0.0487  0.1417  0.0049
    1TYR    SC2  243   3.137   6.478   3.736  0.0983  0.1612  0.2977
    1TYR    SC3  244   3.375   6.357   3.774  0.1223 -0.0304 -0.3294
    2THR     BB  245   3.156   5.677   3.717  0.1238  0.0539  0.0407
    2THR    SC1  246   3.315   5.530   3.573  0.0481  0.1752 -0.1735
    3TYR     BB  247   3.069   5.478   4.003  0.1710 -0.1562 -0.0029
    3TYR    SC1  248   2.873   5.679   4.185 -0.3796  0.0741  0.3626
    3TYR    SC2  249   2.852   5.948   4.175 -0.1290  0.0899 -0.0312
    3TYR    SC3  250   2.635   5.797   4.230 -0.2755  0.3661  0.1805
    1TYR     BB  251   2.868   3.114   4.076 -0.1066  0.1284 -0.0492
    1TYR    SC1  252   2.913   3.049   3.821 -0.0282  0.1051  0.0766
    1TYR    SC2  253   2.947   2.896   3.602  0.0897  0.0952  0.1015
    1TYR    SC3  254   3.029   3.154   3.602  0.1075  0.0896  0.1405
    2THR     BB  255   2.528   3.067   4.132  0.0729 -0.0244 -0.0029
    2THR    SC1  256   2.402   3.020   3.908 -0.0319  0.0010  0.0500
    3TYR     BB  257   2.490   2.938   4.389  0.1466 -0.1893  0.0692
    3TYR    SC1  258   2.533   2.719   4.524  0.1692 -0.0353 -0.0354
    3TYR    SC2  259   2.549   2.456   4.463  0.0757  0.0256 -0.3508
    3TYR    SC3  260   2.521   2.535   4.720  0.1045 -0.2694 -0.2526
    1TYR     BB  261   2.407   2.722   3.509  0.1697 -0.3008  0.0615
    1TYR    SC1  262   2.133   2.597   3.711 -0.3449  0.3181 -0.0585
    1TYR    SC2  263   1.910   2.465   3.787 -0.0956 -0.1856 -0.1462
    1TYR    SC3  264   2.027   2.408   3.549  0.0879  0.1242 -0.1365
    2THR     BB  265   2.146   2.981   3.433  0.1394 -0.1293  0.0651
    2THR    SC1  266   2.057   2.974   3.191  0.0677 -0.0415  0.0887
    3TYR     BB  267   1.993   3.168   3.692 -0.0856  0.0293 -0.1172
    3TYR    SC1  268   2.066   3.432   3.609 -0.2369  0.1493  0.2242
    3TYR    SC2  269   1.975   3.675   3.532 -0.2109  0.1878  0.3128
    3TYR    SC3  270   2.210   3.654   3.663 -0.1515  0.1012  0.1947
    1TYR     BB  271   4.887   3.484   3.821  0.2604 -0.1549 -0.2749
    1TYR    SC1  272   5.148   3.454   3.852  0.0321  0.0442  0.0040
    1TYR    SC2  273   5.365   3.427   3.694 -0.1171 -0.0216 -0.1961
    1TYR    SC3  274   5.382   3.377   3.959  0.1217  0.0249 -0.2006
    2THR     BB  275   4.828   3.850   3.848 -0.0836 -0.1616 -0.2259
    2THR    SC1  276   4.712   3.972   3.649 -0.2388  0.3769  0.1662
    3TYR     BB  277   4.953   3.989   4.049  0.0658  0.2512 -0.2533
    3TYR    SC1  278   5.232   3.880   4.098 -0.0044  0.0457 -0.0759
    3TYR    SC2  279   5.422   3.967   4.269  0.0964 -0.1468 -0.0871
    3TYR    SC3  280   5.344   3.708   4.273 -0.1808 -0.0668 -0.0704
    1TYR     BB  281   3.986   4.665   5.058 -0.2573 -0.1311  0.2617
    1TYR    SC1  282   4.231   4.677   5.246 -0.2933 -0.0291  0.1387
    1TYR    SC2  283   4.472   4.584   5.324 -0.2903 -0.0679  0.0849
    1TYR    SC3  284   4.390   4.829   5.403 -0.1164  0.0603 -0.1174
    2THR     BB  285   4.089   4.924   4.829  0.2811  0.1323 -0.1041
    2THR    SC1  286   4.094   5.168   4.921 -0.0038  0.0090  0.2679
    3TYR     BB  287   4.082   4.899   4.467  0.0809 -0.1460 -0.2784
    3TYR    SC1  288   4.318   5.111   4.392  0.1130  0.1473  0.0702
    3TYR    SC2  289   4.505   5.306   4.402  0.1048  0.1552  0.0697
    3TYR    SC3  290   4.522   5.093   4.568  0.1581  0.1164  0.0147
    1TYR     BB  291   5.900   4.740   4.576  0.0126  0.1683 -0.2633
    1TYR    SC1  292   6.048   4.959   4.422 -0.5097  0.0947 -0.0538
    1TYR    SC2  293   6.250   5.129   4.366 -0.2641 -0.0924  0.2254
    1TYR    SC3  294   6.032   5.218   4.498 -0.1344  0.0046  0.3768
    2THR     BB  295   5.897   4.524   4.336 -0.3343 -0.0298 -0.1747
    2THR    SC1  296   5.830   4.285   4.414 -0.1610 -0.1438 -0.3653
    3TYR     BB  297   6.015   4.581   4.082  0.4714  0.1825 -0.0275
    3TYR    SC1  298   6.146   4.837   3.981 -0.0080  0.2563  0.0849
    3TYR    SC2  299   6.369   4.989   3.973  0.0931  0.1043 -0.0387
    3TYR    SC3  300   6.208   4.975   3.757  0.2475 -0.1993 -0.1419
    1TYR     BB  301   3.880   2.042   4.158 -0.6056 -0.0555  0.0312
    1TYR    SC1  302   3.992   2.281   4.396 -0.0583  0.0673  0.1016
    1TYR    SC2  303   4.226   2.337   4.520  0.1286  0.1891 -0.2836
    1TYR    SC3  304   3.998   2.461   4.598  0.1471 -0.0500  0.2037
    2THR     BB  305   4.185   1.856   4.241 -0.0056 -0.0900  0.2770
    2THR    SC1  306   4.123   1.604   4.241 -0.0052 -0.0951 -0.0160
    3TYR     BB  307   4.462   1.938   4.126 -0.0590 -0.0653  0.1132
    3TYR    SC1  308   4.558   1.723   3.919 -0.1153  0.1390 -0.2808
    3TYR    SC2  309   4.612   1.460   3.948  0.4823  0.2640 -0.0405
    3TYR    SC3  310   4.629   1.576   3.705  0.0826  0.0702 -0.1724
    1TYR     BB  311   4.390   3.547   3.576  0.1278 -0.0624 -0.0299
    1TYR    SC1  312   4.338   3.700   3.822  0.0288  0.0047 -0.0264
    1TYR    SC2  313   4.206   3.805   4.033  0.1652  0.2525 -0.0593
    1TYR    SC3  314   4.444   3.682   4.069  0.0840  0.0982 -0.0424
    2THR     BB  315   4.379   3.558   3.266 -0.0384 -0.4354  0.0902
    2THR    SC1  316   4.517   3.432   3.085  0.0840 -0.1560 -0.0179
    3TYR     BB  317   4.439   3.895   3.159  0.0057  0.5406 -0.1407
    3TYR    SC1  318   4.699   3.939   3.081  0.0873 -0.0487 -0.0818
    3TYR    SC2  319   4.957   3.995   3.139 -0.0630  0.3350  0.2696
    3TYR    SC3  320   4.848   4.086   2.909  0.1565  0.0055  0.0236
    1TYR     BB  321   3.682   5.702   3.163 -0.1628 -0.0581 -0.2278
    1TYR    SC1  322   3.619   5.871   3.405  0.2025  0.0023 -0.1134
    1TYR    SC2  323   3.555   5.965   3.650  0.6848 -0.1462  0.0825
    1TYR    SC3  324   3.631   6.136   3.456 -0.1122  0.0237 -0.1234
    2THR     BB  325   3.812   5.435   3.304  0.1317  0.0303  0.0041
    2THR    SC1  326   3.731   5.291   3.506 -0.3532  0.0767 -0.1422
    3TYR     BB  327   3.907   5.251   3.047  0.2452  0.1386  0.3425
    3TYR    SC1  328   3.738   5.134   2.832 -0.0226 -0.0114  0.0450
    3TYR    SC2  329   3.530   5.133   2.660 -0.0835 -0.0604  0.1182
    3TYR    SC3  330   3.751   4.986   2.606  0.0594  0.2246 -0.1096
    1TYR     BB  331   4.454   3.760   4.542  0.1449  0.1018  0.1859
    1TYR    SC1  332   4.472   3.998   4.342 -0.3192  0.0591 -0.0088
    1TYR    SC2  333   4.423   4.264   4.336  0.0651  0.1429  0.1699
    1TYR    SC3  334   4.464   4.129   4.106 -0.4117  0.1722  0.0556
    2THR     BB  335   4.191   3.451   4.533  0.0327  0.0447 -0.1822
    2THR    SC1  336   4.303   3.264   4.392 -0.3124 -0.0641 -0.3254
    3TYR     BB  337   3.975   3.403   4.672  0.0757  0.1716 -0.5167
    3TYR    SC1  338   3.910   3.256   4.901 -0.2672  0.2219  0.2280
    3TYR    SC2  339   3.723   3.085   4.997 -0.0004 -0.2819 -0.0895
    3TYR    SC3  340   3.959   3.114   5.126 -0.0758 -0.0756  0.0084
    1TYR     BB  341   5.373   4.459   3.572 -0.1208 -0.0945 -0.2873
    1TYR    SC1  342   5.495   4.596   3.305 -0.0875  0.0450 -0.2860
    1TYR    SC2  343   5.531   4.804   3.136 -0.0205 -0.0473 -0.3880
    1TYR    SC3  344   5.657   4.570   3.089 -0.1507 -0.1337 -0.3140
    2THR     BB  345   5.068   4.409   3.578  0.3316 -0.0331  0.3278
    2THR    SC1  346   4.876   4.429   3.752  0.0805 -0.2776  0.0916
    3TYR     BB  347   4.994   4.442   3.250  0.0191 -0.1867  0.0915
    3TYR    SC1  348   5.204   4.376   3.066  0.4584  0.2645  0.1458
    3TYR    SC2  349   5.397   4.190   3.094  0.3223  0.0591 -0.1955
    3TYR    SC3  350   5.328   4.277   2.848 -0.2750 -0.1625 -0.1263
    1TYR     BB  351   3.703   5.808   4.413  0.0217 -0.1299 -0.0401
    1TYR    SC1  352   3.562   5.771   4.679  0.2784 -0.1375  0.2797
    1TYR    SC2  353   3.550   5.546   4.829 -0.0093 -0.0908  0.3349
    1TYR    SC3  354   3.432   5.773   4.916 -0.5169 -0.1561 -0.1144
    2THR     BB  355   3.544   5.695   4.131 -0.0896  0.0483  0.0351
    2THR    SC1  356   3.372   5.882   4.073 -0.0152  0.1416  0.1112
    3TYR     BB  357   3.682   5.526   3.945 -0.0493  0.1694  0.0014
    3TYR    SC1  358   3.816   5.239   3.984  0.3617 -0.0540 -0.1309
    3TYR    SC2  359   3.954   5.008   4.005  0.1153 -0.1943 -0.0057
    3TYR    SC3  360   3.699   5.022   4.094  0.1107  0.1139 -0.0548
    1TYR     BB  361   3.984   3.920   4.503 -0.0167  0.0307 -0.0783
    1TYR    SC1  362   3.822   4.013   4.742  0.0123  0.0671 -0.1633
    1TYR    SC2  363   3.871   4.149   4.971 -0.0849  0.4356 -0.3511
    1TYR    SC3  364   3.617   4.088   4.902 -0.0502  0.2550 -0.3268
    2THR     BB  365   3.803   4.101   4.253  0.1877  0.1388  0.2293
    2THR    SC1  366   3.964   4.223   4.090  0.0278 -0.2305 -0.2302
    3TYR     BB  367   3.486   4.183   4.169  0.0993  0.0243  0.2045
    3TYR    SC1  368   3.276   4.274   4.438  0.1153 -0.2277  0.0949
    3TYR    SC2  369   3.042   4.341   4.554  0.0944 -0.0902 -0.0230
    3TYR    SC3  370   3.240   4.234   4.703  0.1751  0.3527  0.2043
    1TYR     BB  371   4.668   4.860   3.574 -0.1794 -0.0070 -0.5031
    1TYR    SC1  372   4.651   4.966   3.299 -0.0408 -0.1050 -0.1452
    1TYR    SC2  373   4.740   5.051   3.058  0.0464  0.2934  0.0184
    1TYR    SC3  374   4.477   5.004   3.097  0.0009  0.4411 -0.0972
    2THR     BB  375   4.667   5.129   3.764  0.0412 -0.2680  0.1864
    2THR    SC1  376   4.490   5.134   3.954  0.0353  0.1393  0.1802
    3TYR     BB  377   4.907   5.332   3.706  0.4698 -0.2271  0.4331
    3TYR    SC1  378   4.857   5.547   3.906 -0.0298 -0.2061 -0.0118
    3TYR    SC2  379   4.808   5.784   4.027 -0.1272 -0.1810 -0.0989
    3TYR    SC3  380   4.786   5.554   4.167 -0.1689 -0.1480 -0.0508
    1TYR     BB  381   2.368   4.426   3.919  0.3737 -0.0280 -0.1290
    1TYR    SC1  382   2.171   4.651   3.982 -0.1763 -0.2378 -0.0303
    1TYR    SC2  383   1.965   4.819   3.937  0.2022  0.2688  0.0259
    1TYR    SC3  384   2.042   4.765   4.190  0.1438  0.0813  0.0052
    2THR     BB  385   2.598   4.558   3.636  0.2369 -0.1599  0.0793
    2THR    SC1  386   2.825   4.651   3.724  0.1263  0.1635  0.0378
    3TYR     BB  387   2.385   4.792   3.490 -0.0921  0.1951 -0.2604
    3TYR    SC1  388   2.116   4.615   3.467 -0.0481  0.1385 -0.3632
    3TYR    SC2  389   1.890   4.499   3.561  0.0173  0.1896 -0.1396
    3TYR    SC3  390   1.953   4.478   3.300 -0.0659 -0.1245 -0.1390
    1TYR     BB  391   3.681   3.993   2.915  0.2143  0.2036 -0.2363
    1TYR    SC1  392   3.770   4.006   2.625  0.2214  0.1737  0.0161
    1TYR    SC2  393   3.959   3.999   2.433 -0.0392  0.2410 -0.2531
    1TYR    SC3  394   3.703   3.942   2.371 -0.0838 -0.0462  0.1446
    2THR     BB  395   3.804   4.082   3.170  0.2374  0.3062  0.1351
    2THR    SC1  396   3.977   3.928   3.287 -0.0721 -0.0415  0.1624
    3TYR     BB  397   3.656   4.378   3.325 -0.0772 -0.0698  0.1504
    3TYR    SC1  398   3.699   4.547   3.570 -0.0391 -0.1007  0.0775
    3TYR    SC2  399   3.697   4.791   3.685  0.0296 -0.1642  0.2156
    3TYR    SC3  400   3.801   4.580   3.818  0.0447 -0.2532  0.0649
    1TYR     BB  401   4.864   3.551   4.359 -0.2761  0.1962  0.1671
    1TYR    SC1  402   5.126   3.338   4.409 -0.0079 -0.0392  0.0350
    1TYR    SC2  403   5.381   3.324   4.493 -0.0169  0.0846  0.0848
    1TYR    SC3  404   5.198   3.150   4.588  0.1499 -0.3498 -0.3340
    2THR     BB  405   4.989   3.802   4.550  0.0513 -0.1263  0.1413
    2THR    SC1  406   5.186   3.795   4.720  0.1699  0.0745  0.0171
    3TYR     BB  407   4.929   4.174   4.494 -0.1975 -0.3228  0.2359
    3TYR    SC1  408   5.004   4.297   4.764  0.0209  0.1700 -0.1370
    3TYR    SC2  409   4.895   4.399   4.989 -0.1681 -0.0507 -0.1237
    3TYR    SC3  410   5.145   4.300   4.994 -0.0786  0.1706 -0.0749
    1TYR     BB  411   5.488   5.110   3.636  0.1888  0.0295 -0.0651
    1TYR    SC1  412   5.693   4.909   3.561 -0.1354  0.0098  0.1548
    1TYR    SC2  413   5.812   4.688   3.663 -0.1297 -0.0546  0.0108
    1TYR    SC3  414   5.893   4.789   3.426 -0.1474  0.0901  0.0647
    2THR     BB  415   5.171   4.899   3.580 -0.1907  0.0314  0.1004
    2THR    SC1  416   5.137   4.998   3.343  0.0259  0.1854  0.1300
    3TYR     BB  417   5.098   4.864   3.837 -0.2103  0.0604 -0.0244
    3TYR    SC1  418   5.109   5.058   4.045 -0.0889 -0.1303 -0.1352
    3TYR    SC2  419   4.960   5.167   4.242 -0.0010  0.1859 -0.2358
    3TYR    SC3  420   5.214   5.089   4.292 -0.0915 -0.0592 -0.1426
    1TYR     BB  421   3.735   2.590   4.147 -0.0458 -0.2006  0.0799
    1TYR    SC1  422   3.900   2.769   4.292  0.1526 -0.0014 -0.1319
    1TYR    SC2  423   3.895   3.038   4.314  0.1333 -0.0146  0.0457
    1TYR    SC3  424   3.893   2.885   4.536 -0.1850 -0.1675 -0.0538
    2THR     BB  425   3.484   2.401   4.400 -0.2248  0.0028 -0.1059
    2THR    SC1  426   3.461   2.142   4.397  0.1527 -0.0360 -0.2377
    3TYR     BB  427   3.462   2.625   4.573 -0.1947 -0.0301 -0.2962
    3TYR    SC1  428   3.306   2.703   4.825  0.2214 -0.1105  0.2267
    3TYR    SC2  429   3.296   2.922   4.983  0.1124  0.0775 -0.0305
    3TYR    SC3  430   3.087   2.754   4.974  0.0740  0.1267 -0.0575
    1TYR     BB  431   4.711   2.924   5.145  0.1268  0.3326  0.4745
    1TYR    SC1  432   4.989   2.856   4.990  0.0974 -0.3020  0.0789
    1TYR    SC2  433   5.241   2.948   5.012  0.0285 -0.1111  0.0820
    1TYR    SC3  434   5.198   2.690   4.948  0.2242 -0.1566  0.1268
    2THR     BB  435   4.509   2.694   4.894 -0.1192 -0.1487 -0.0643
    2THR    SC1  436   4.267   2.787   4.885 -0.0678 -0.0134 -0.0679
    3TYR     BB  437   4.724   2.463   4.883  0.0777  0.0157  0.0576
    3TYR    SC1  438   4.645   2.218   4.762  0.1750 -0.0285 -0.0145
    3TYR    SC2  439   4.481   2.007   4.796  0.1962 -0.0123  0.2044
    3TYR    SC3  440   4.621   2.033   4.567 -0.2680  0.0890 -0.0865
    1TYR     BB  441   3.162   3.685   2.877  0.3136 -0.0431 -0.0340
    1TYR    SC1  442   3.144   3.725   2.574 -0.0302  0.2314 -0.0577
    1TYR    SC2  443   3.072   3.599   2.346  0.1055 -0.1877  0.1178
    1TYR    SC3  444   3.054   3.869   2.364 -0.1791 -0.1697 -0.2811
    2THR     BB  445   2.901   3.653   3.029 -0.1739 -0.1200  0.1281
    2THR    SC1  446   2.708   3.502   2.939 -0.1424 -0.1750  0.1530
    3TYR     BB  447   2.943   3.640   3.334  0.0674 -0.2192  0.1750
    3TYR    SC1  448   2.742   3.469   3.427 -0.0798  0.1696 -0.0779
    3TYR    SC2  449   2.493   3.380   3.372 -0.1068  0.1812  0.0233
    3TYR    SC3  450   2.597   3.342   3.618  0.0307  0.0856 -0.0483
    1TYR     BB  451   3.663   2.300   3.781  0.2158  0.1114 -0.0422
    1TYR    SC1  452   3.582   1.991   3.794  0.2605  0.0591  0.2070
    1TYR    SC2  453   3.523   1.797   3.615  0.0521  0.1671  0.1555
    1TYR    SC3  454   3.541   1.738   3.878  0.2534  0.0284  0.1133
    2THR     BB  455   3.786   2.482   3.619  0.0212 -0.1790 -0.0196
    2THR    SC1  456   3.849   2.720   3.703 -0.0896 -0.1452 -0.0321
    3TYR     BB  457   3.684   2.575   3.260 -0.1814  0.4341 -0.0583
    3TYR    SC1  458   3.874   2.564   3.036  0.3531 -0.3174  0.0494
    3TYR    SC2  459   4.043   2.701   2.875 -0.0699  0.0856 -0.0779
    3TYR    SC3  460   3.944   2.464   2.794 -0.0737  0.1588 -0.2969
    1TYR     BB  461   3.453   3.728   4.058  0.2198 -0.0198 -0.0483
    1TYR    SC1  462   3.613   3.817   3.857  0.0870 -0.0665 -0.0230
    1TYR    SC2  463   3.869   3.853   3.776  0.0166  0.1187 -0.1739
    1TYR    SC3  464   3.669   3.988   3.656 -0.2020 -0.3283 -0.3434
    2THR     BB  465   3.648   3.573   4.311  0.0243 -0.2258 -0.0548
    2THR    SC1  466   3.862   3.492   4.188  0.2060 -0.2389  0.2577
    3TYR     BB  467   3.503   3.666   4.625  0.1171 -0.0462  0.0527
    3TYR    SC1  468   3.574   3.553   4.892 -0.1022  0.1626 -0.1058
    3TYR    SC2  469   3.750   3.617   5.087 -0.0447 -0.0266 -0.0929
    3TYR    SC3  470   3.549   3.443   5.138 -0.0244 -0.0828 -0.2038
    1TYR     BB  471   4.441   3.459   2.484  0.0737 -0.0265 -0.1144
    1TYR    SC1  472   4.464   3.222   2.631 -0.1099 -0.0568  0.0266
    1TYR    SC2  473   4.497   3.038   2.826 -0.1584  0.0144  0.1029
    1TYR    SC3  474   4.406   2.962   2.584 -0.1958 -0.0592  0.1395
    2THR     BB  475   4.419   3.714   2.640 -0.0170  0.1182  0.0762
    2THR    SC1  476   4.486   3.956   2.576 -0.0920  0.0028 -0.5144
    3TYR     BB  477   4.158   3.695   2.774  0.4181 -0.1239 -0.0832
    3TYR    SC1  478   4.046   3.414   2.807  0.1180  0.2083 -0.0240
    3TYR    SC2  479   4.111   3.178   2.920 -0.1004  0.0618 -0.1936
    3TYR    SC3  480   3.967   3.183   2.691  0.3566  0.3457 -0.4957
    1TYR     BB  481   5.801   4.186   3.393 -0.5147  0.1130  0.3406
    1TYR    SC1  482   6.072   4.017   3.447  0.1277  0.1229  0.2803
    1TYR    SC2  483   6.337   3.973   3.423  0.0635 -0.1279 -0.0584
    1TYR    SC3  484   6.175   3.777   3.514 -0.0044  0.0474  0.2162
    2THR     BB  485   5.579   3.917   3.441  0.2826 -0.2438  0.1990
    2THR    SC1  486   5.661   3.722   3.289 -0.0351 -0.0572 -0.2365
    3TYR     BB  487   5.261   3.951   3.564  0.2020  0.2507  0.1837
    3TYR    SC1  488   5.091   3.725   3.460 -0.0008 -0.0599  0.1073
    3TYR    SC2  489   5.157   3.512   3.307  0.1141  0.1989 -0.2173
    3TYR    SC3  490   4.903   3.601   3.311  0.1516  0.3276 -0.4470
    1TYR     BB  491   5.199   2.924   3.606  0.2750 -0.3633  0.0792
    1TYR    SC1  492   5.200   2.650   3.564  0.0931  0.2620 -0.3204
    1TYR    SC2  493   5.235   2.390   3.628 -0.2926  0.3003  0.1049
    1TYR    SC3  494   5.159   2.458   3.377  0.0975  0.0396 -0.0986
    2THR     BB  495   4.964   3.081   3.502  0.1497  0.2861  0.0566
    2THR    SC1  496   4.715   3.131   3.560  0.1519  0.3053  0.0494
    3TYR     BB  497   4.882   2.992   3.098 -0.0270  0.1008  0.2292
    3TYR    SC1  498   5.146   2.823   3.088  0.2451  0.3195  0.1866
    3TYR    SC2  499   5.325   2.636   3.011  0.0263  0.0668  0.2728
    3TYR    SC3  500   5.409   2.862   3.134  0.2818 -0.0603  0.3401
    1TYR     BB  501   3.818   2.092   3.256 -0.1111 -0.3325 -0.1371
    1TYR    SC1  502   3.873   1.807   3.304  0.2023  0.0412  0.0305
    1TYR    SC2  503   3.874   1.539   3.268 -0.1645  0.0304  0.0630
    1TYR    SC3  504   4.107   1.673   3.278  0.0193 -0.2380 -0.2997
    2THR     BB  505   4.151   2.226   3.213 -0.0882  0.2208 -0.0758
    2THR    SC1  506   4.294   2.105   3.034  0.0484  0.3304 -0.0431
    3TYR     BB  507   4.203   2.454   3.392  0.1739 -0.2756  0.1291
    3TYR    SC1  508   4.193   2.739   3.291  0.2288  0.1580 -0.1530
    3TYR    SC2  509   4.071   2.980   3.286  0.1706  0.1277 -0.1957
    3TYR    SC3  510   4.341   2.967   3.293  0.1716  0.1953 -0.0352
    1TYR     BB  511   3.789   4.505   2.804  0.0112 -0.0687  0.0581
    1TYR    SC1  512   3.766   4.550   2.487 -0.0767  0.1690  0.0687
    1TYR    SC2  513   3.704   4.437   2.249 -0.3137  0.1227  0.1497
    1TYR    SC3  514   3.854   4.660   2.257  0.1119 -0.1432 -0.0175
    2THR     BB  515   4.054   4.712   2.924 -0.1289  0.3758  0.2213
    2THR    SC1  516   4.207   4.805   2.735 -0.0474 -0.2680 -0.0614
    3TYR     BB  517   4.075   4.628   3.245  0.2399  0.0111 -0.3877
    3TYR    SC1  518   4.087   4.831   3.421  0.3100 -0.4150 -0.2675
    3TYR    SC2  519   4.170   5.082   3.369  0.1696 -0.3397 -0.1388
    3TYR    SC3  520   4.129   5.004   3.625 -0.1798 -0.3628 -0.1975
    1TYR     BB  521   2.836   4.546   2.852 -0.0591 -0.0277 -0.1363
    1TYR    SC1  522   3.070   4.337   2.860  0.1176 -0.0208 -0.1473
    1TYR    SC2  523   3.266   4.169   2.780  0.2566 -0.0656  0.2576
    1TYR    SC3  524   3.320   4.368   2.953 -0.0220  0.0421  0.2288
    2THR     BB  525   2.935   4.760   3.040 -0.0014  0.0401  0.0811
    2THR    SC1  526   2.814   4.840   3.255 -0.1094  0.3038 -0.0730
    3TYR     BB  527   2.999   5.022   2.817  0.0215  0.3604 -0.2594
    3TYR    SC1  528   3.191   5.189   2.946  0.0639 -0.1755 -0.2188
    3TYR    SC2  529   3.323   5.212   3.181 -0.1577  0.1336 -0.1162
    3TYR    SC3  530   3.375   5.384   2.980  0.1055 -0.1921 -0.3414
    1TYR     BB  531   5.739   3.490   2.754  0.1683 -0.1510 -0.0890
    1TYR    SC1  532   5.935   3.511   2.962 -0.2736  0.0420  0.1307
    1TYR    SC2  533   6.062   3.440   3.189 -0.1550 -0.2512 -0.0207
    1TYR    SC3  534   6.165   3.635   3.032 -0.2793  0.0081  0.2102
    2THR     BB  535   5.420   3.517   2.864 -0.1222 -0.0242 -0.1842
    2THR    SC1  536   5.326   3.758   2.895  0.0165  0.0296 -0.1695
    3TYR     BB  537   5.306   3.260   2.927  0.0485 -0.3146  0.0723
    3TYR    SC1  538   5.346   3.050   2.703 -0.0734  0.0947 -0.0227
    3TYR    SC2  539   5.327   2.812   2.578 -0.1490  0.1167 -0.0543
    3TYR    SC3  540   5.233   3.034   2.458 -0.1196  0.1557 -0.0059
    1TYR     BB  541   3.265   4.787   4.523  0.1509 -0.2503 -0.2596
    1TYR    SC1  542   3.128   4.999   4.759 -0.3177 -0.0595 -0.0772
    1TYR    SC2  543   3.007   5.085   4.985 -0.0850  0.1387 -0.0230
    1TYR    SC3  544   3.160   5.255   4.840  0.1472 -0.1054 -0.0763
    2THR     BB  545   3.186   4.836   4.187  0.0160  0.1123 -0.2268
    2THR    SC1  546   3.292   4.670   4.019  0.0995 -0.1252  0.0500
    3TYR     BB  547   2.961   5.027   4.104  0.0664  0.0267  0.1112
    3TYR    SC1  548   2.836   5.164   4.329 -0.0460 -0.0488 -0.1435
    3TYR    SC2  549   2.730   5.146   4.576 -0.0305 -0.0791 -0.1390
    3TYR    SC3  550   2.611   5.300   4.390  0.0317  0.0520 -0.0726
    1TYR     BB  551   6.155   4.094   3.991  0.1602  0.0304  0.1517
    1TYR    SC1  552   6.302   3.837   4.014 -0.0736  0.0152 -0.0010
    1TYR    SC2  553   6.396   3.610   3.904  0.2362  0.1368  0.0027
    1TYR    SC3  554   6.280   3.603   4.147  0.0384 -0.0479 -0.0922
    2THR     BB  555   5.817   4.063   3.926  0.1312  0.1420  0.3652
    2THR    SC1  556   5.644   4.257   3.928 -0.0908 -0.0486  0.1944
    3TYR     BB  557   5.745   3.745   3.955  0.0074  0.1084 -0.1211
    3TYR    SC1  558   5.821   3.718   4.260 -0.1693 -0.0969  0.1972
    3TYR    SC2  559   5.715   3.751   4.506 -0.0830 -0.2929  0.2639
    3TYR    SC3  560   5.982   3.766   4.472 -0.0953 -0.2597  0.1801
    1TYR     BB  561   5.939   3.378   3.719  0.1954 -0.1396  0.2280
    1TYR    SC1  562   5.750   3.289   3.471  0.0600  0.2028 -0.2482
    1TYR    SC2  563   5.750   3.077   3.304  0.0661  0.0068 -0.0070
    1TYR    SC3  564   5.529   3.230   3.330 -0.0666 -0.1970  0.0922
    2THR     BB  565   5.813   3.179   3.957  0.0745  0.2686  0.0145
    2THR    SC1  566   5.708   2.954   3.882  0.1351  0.2428  0.0059
    3TYR     BB  567   5.837   3.245   4.300 -0.0303  0.0811  0.0137
    3TYR    SC1  568   5.663   3.001   4.437 -0.2354  0.3437  0.0075
    3TYR    SC2  569   5.536   2.879   4.640 -0.1350  0.1605 -0.0374
    3TYR    SC3  570   5.561   2.754   4.402 -0.3181  0.4027 -0.1895
    1TYR     BB  571   5.199   2.964   4.101  0.2970 -0.0355  0.0729
    1TYR    SC1  572   5.324   2.687   4.018 -0.1591 -0.1202  0.2208
    1TYR    SC2  573   5.169   2.473   4.072  0.1617 -0.2816  0.5576
    1TYR    SC3  574   5.435   2.443   4.040  0.1420 -0.0171 -0.0438
    2THR     BB  575   4.889   2.934   4.051  0.1127 -0.1442 -0.1079
    2THR    SC1  576   4.820   2.748   3.883 -0.2043 -0.0464 -0.0940
    3TYR     BB  577   4.682   3.126   4.129 -0.1478 -0.2052 -0.0960
    3TYR    SC1  578   4.392   3.076   3.961 -0.1619 -0.2728 -0.1391
    3TYR    SC2  579   4.259   3.072   3.726  0.0928  0.0565 -0.3010
    3TYR    SC3  580   4.153   3.199   3.941 -0.0997 -0.1676 -0.2589
    1TYR     BB  581   2.247   3.946   4.149  0.1347  0.2036  0.4797
    1TYR    SC1  582   2.150   3.866   4.384  0.2634  0.0484 -0.1003
    1TYR    SC2  583   1.988   3.704   4.524  0.0904  0.1698 -0.1568
    1TYR    SC3  584   2.148   3.878   4.654  0.3528 -0.1111 -0.0913
    2THR     BB  585   2.558   4.058   4.208 -0.3407  0.1425  0.1535
    2THR    SC1  586   2.561   4.088   4.466  0.2601 -0.0219  0.1871
    3TYR     BB  587   2.840   4.304   4.075 -0.2494 -0.1324 -0.0105
    3TYR    SC1  588   2.740   4.541   4.304  0.2763  0.2485 -0.2100
    3TYR    SC2  589   2.784   4.690   4.524  0.3026  0.0771 -0.0958
    3TYR    SC3  590   2.534   4.672   4.422  0.2596  0.0290  0.0160
    1TYR     BB  591   6.537   4.541   4.080 -0.1491 -0.0182  0.1260
    1TYR    SC1  592   6.619   4.258   3.973  0.2074  0.2167  0.2104
    1TYR    SC2  593   6.672   4.047   3.815  0.1352  0.2790  0.1008
    1TYR    SC3  594   6.742   4.041   4.075 -0.0458  0.0383  0.1492
    2THR     BB  595   6.421   4.428   4.379 -0.1218  0.0615 -0.1036
    2THR    SC1  596   6.364   4.622   4.543  0.1971 -0.2759  0.4464
    3TYR     BB  597   6.380   4.093   4.421 -0.1180  0.0221  0.1537
    3TYR    SC1  598   6.197   4.141   4.678 -0.0242 -0.1527  0.0627
    3TYR    SC2  599   6.026   4.024   4.850 -0.1790  0.2398  0.1886
    3TYR    SC3  600   6.047   4.294   4.843 -0.0758  0.2295 -0.3157
    1TYR     BB  601   3.093   2.191   3.886 -0.1163 -0.2194 -0.1510
    1TYR    SC1  602   3.166   2.141   3.606  0.1821  0.1332 -0.0935
    1TYR    SC2  603   3.180   2.000   3.375  0.1842 -0.0073 -0.0090
    1TYR    SC3  604   3.350   2.205   3.419  0.1556  0.0475 -0.1498
    2THR     BB  605   3.178   2.515   3.921 -0.5294  0.0594 -0.2749
    2THR    SC1  606   3.300   2.611   3.713  0.1768  0.4420  0.2574
    3TYR     BB  607   3.204   2.750   4.138 -0.3056  0.0148 -0.1031
    3TYR    SC1  608   3.409   2.949   4.030 -0.3936  0.1751 -0.0797
    3TYR    SC2  609   3.648   3.051   3.957 -0.2340 -0.2772 -0.2354
    3TYR    SC3  610   3.428   3.207   3.957  0.0726  0.1844  0.0295
    1TYR     BB  611   2.451   3.867   3.239  0.0017 -0.0304 -0.2308
    1TYR    SC1  612   2.252   3.705   3.107 -0.2477  0.1000  0.0555
    1TYR    SC2  613   2.101   3.485   3.151 -0.4978  0.2279 -0.1393
    1TYR    SC3  614   2.196   3.536   2.904 -0.0246  0.0869  0.0009
    2THR     BB  615   2.336   4.136   3.350 -0.2178  0.1101 -0.1341
    2THR    SC1  616   2.177   4.125   3.556 -0.0960 -0.0353 -0.0450
    3TYR     BB  617   2.492   4.402   3.186 -0.1385 -0.1835  0.2327
    3TYR    SC1  618   2.309   4.597   3.038 -0.2759 -0.0127  0.1123
    3TYR    SC2  619   2.090   4.726   2.946 -0.2533 -0.0617 -0.0134
    3TYR    SC3  620   2.336   4.799   2.862 -0.2130  0.0414  0.1833
    1TYR     BB  621   1.724   4.027   3.370 -0.1005  0.1063  0.2223
    1TYR    SC1  622   1.896   4.067   3.095 -0.1078  0.0040  0.1743
    1TYR    SC2  623   2.048   4.003   2.882 -0.4632 -0.1566 -0.0432
    1TYR    SC3  624   1.985   4.261   2.930 -0.4997 -0.1308 -0.2204
    2THR     BB  625   1.469   3.758   3.219  0.0207  0.2141 -0.2861
    2THR    SC1  626   1.337   3.663   3.422  0.4546  0.2139  0.0156
    3TYR     BB  627   1.610   3.764   2.901 -0.2296 -0.0958 -0.0129
    3TYR    SC1  628   1.568   3.989   2.707  0.1895 -0.1713 -0.0731
    3TYR    SC2  629   1.634   4.196   2.545 -0.1516  0.0067  0.0036
    3TYR    SC3  630   1.489   3.989   2.448 -0.1775  0.0127  0.0292
   7.65673   7.65673   7.65673
