Generated by trjconv : Martini system from ../2_Creating_coordinates/TYR-GLN-TYR_aa.pdb t=   0.00000
 1000
    1TYR     BB    1   3.233   1.632   3.270  0.0948  0.4205  0.0455
    1TYR    SC1    2   3.317   1.490   3.049  0.2222  0.1049  0.0834
    1TYR    SC2    3   3.279   1.253   2.925  0.0597  0.0473  0.2376
    1TYR    SC3    4   3.365   1.467   2.784 -0.4296  0.0712 -0.0524
    2GLN     BB    5   2.995   1.638   3.386  0.0298  0.0598  0.0407
    2GLN    SC1    6   2.798   1.602   3.078  0.0089  0.2234  0.2501
    3TYR     BB    7   2.947   1.770   3.656  0.0834  0.0890 -0.3512
    3TYR    SC1    8   2.966   1.525   3.864 -0.0433  0.0339 -0.0338
    3TYR    SC2    9   2.977   1.318   4.036 -0.3163  0.1334  0.1134
    3TYR    SC3   10   3.077   1.292   3.787  0.1572  0.0090  0.3012
    1TYR     BB   11   4.392   5.061   4.248 -0.1688  0.0822  0.0343
    1TYR    SC1   12   4.411   5.093   3.966 -0.1843  0.1451 -0.1124
    1TYR    SC2   13   4.499   4.975   3.740 -0.2827 -0.0913 -0.0302
    1TYR    SC3   14   4.478   5.244   3.752  0.4057 -0.0149 -0.0624
    2GLN     BB   15   4.677   4.906   4.420  0.1869 -0.0334 -0.0684
    2GLN    SC1   16   4.611   4.537   4.563  0.3121 -0.0670 -0.1312
    3TYR     BB   17   4.931   4.929   4.340 -0.0139  0.1373 -0.0937
    3TYR    SC1   18   4.985   4.867   4.029  0.0963  0.0451  0.1217
    3TYR    SC2   19   4.949   4.734   3.796 -0.0084  0.0736  0.1213
    3TYR    SC3   20   4.956   5.004   3.799 -0.0055  0.0733  0.1509
    1TYR     BB   21   5.406   2.814   3.737  0.5099  0.3041 -0.1982
    1TYR    SC1   22   5.548   2.692   3.474 -0.1625 -0.2695  0.0112
    1TYR    SC2   23   5.605   2.705   3.211  0.1130 -0.1895  0.0706
    1TYR    SC3   24   5.738   2.532   3.369  0.1865 -0.0057  0.2138
    2GLN     BB   25   5.445   2.637   4.007  0.0263 -0.0876 -0.0067
    2GLN    SC1   26   5.472   2.290   3.765 -0.0448  0.1248 -0.2063
    3TYR     BB   27   5.382   2.799   4.312 -0.0669 -0.2313 -0.0454
    3TYR    SC1   28   5.120   2.689   4.418  0.1010  0.1008 -0.0862
    3TYR    SC2   29   4.863   2.770   4.402  0.0733  0.0863  0.2154
    3TYR    SC3   30   4.967   2.695   4.640  0.5291  0.6675  0.2295
    1TYR     BB   31   3.508   3.712   3.763  0.2610  0.1186 -0.1205
    1TYR    SC1   32   3.633   3.669   3.486  0.0267  0.2808 -0.0540
    1TYR    SC2   33   3.838   3.607   3.322 -0.1920 -0.1736 -0.1747
    1TYR    SC3   34   3.584   3.584   3.235 -0.3094  0.3215 -0.0076
    2GLN     BB   35   3.671   4.040   3.810 -0.1666  0.1645 -0.3233
    2GLN    SC1   36   3.996   4.056   3.675  0.1182 -0.2464 -0.0296
    3TYR     BB   37   3.624   4.355   3.713  0.4247 -0.1789  0.1909
    3TYR    SC1   38   3.592   4.571   3.518  0.0620 -0.0644  0.1758
    3TYR    SC2   39   3.438   4.699   3.338 -0.0020 -0.2513  0.0949
    3TYR    SC3   40   3.700   4.662   3.289  0.0871  0.1155  0.2574
    1TYR     BB   41   3.610   1.242   3.493  0.3470 -0.1474 -0.4654
    1TYR    SC1   42   3.864   1.347   3.707  0.1244  0.0328 -0.0295
    1TYR    SC2   43   4.074   1.486   3.806  0.0743  0.1099 -0.0302
    1TYR    SC3   44   4.007   1.247   3.913  0.1560  0.0897 -0.0234
    2GLN     BB   45   3.563   1.064   3.302 -0.1349 -0.3182  0.0861
    2GLN    SC1   46   3.155   1.076   3.327  0.0251  0.0725 -0.0213
    3TYR     BB   47   3.670   0.773   3.218 -0.3386  0.1369  0.5799
    3TYR    SC1   48   3.885   0.762   3.003 -0.0644 -0.2003 -0.0376
    3TYR    SC2   49   4.152   0.718   3.014 -0.0111  0.0400 -0.2412
    3TYR    SC3   50   4.046   0.852   2.805 -0.2985 -0.0771 -0.1766
    1TYR     BB   51   6.379   3.930   4.302 -0.0843  0.0866 -0.2469
    1TYR    SC1   52   6.405   3.878   4.010 -0.1689 -0.1179  0.0720
    1TYR    SC2   53   6.272   3.676   3.891 -0.0206 -0.1423 -0.0560
    1TYR    SC3   54   6.274   3.922   3.778 -0.1639 -0.0783  0.0765
    2GLN     BB   55   6.173   4.036   4.477  0.0319 -0.2805 -0.1013
    2GLN    SC1   56   5.894   3.996   4.199  0.1398 -0.0591  0.0931
    3TYR     BB   57   6.222   4.261   4.701 -0.0294  0.0104 -0.1473
    3TYR    SC1   58   6.210   4.548   4.625 -0.1247  0.3220 -0.0545
    3TYR    SC2   59   6.209   4.814   4.671 -0.0327  0.3368 -0.1315
    3TYR    SC3   60   6.333   4.716   4.453 -0.2858  0.2525 -0.2430
    1TYR     BB   61   2.685   3.563   3.151 -0.2054  0.0863 -0.0916
    1TYR    SC1   62   2.901   3.593   3.425  0.1262 -0.2434 -0.1521
    1TYR    SC2   63   3.163   3.660   3.435  0.0770 -0.0693  0.1596
    1TYR    SC3   64   3.021   3.635   3.664 -0.2488  0.1250 -0.0118
    2GLN     BB   65   2.402   3.730   3.258  0.0202 -0.0891 -0.0298
    2GLN    SC1   66   2.279   3.991   2.963 -0.1369  0.0088  0.2621
    3TYR     BB   67   2.253   3.703   3.507 -0.1259 -0.0664 -0.1102
    3TYR    SC1   68   2.429   3.674   3.738 -0.1836  0.0495  0.1757
    3TYR    SC2   69   2.645   3.607   3.885  0.1068  0.1325 -0.1920
    3TYR    SC3   70   2.428   3.715   4.004  0.1883 -0.1206  0.2119
    1TYR     BB   71   4.539   1.258   3.799  0.2443  0.2002  0.0359
    1TYR    SC1   72   4.838   1.302   3.703  0.0297 -0.2995 -0.0655
    1TYR    SC2   73   5.045   1.392   3.555 -0.2451  0.3759 -0.0824
    1TYR    SC3   74   5.084   1.325   3.813  0.0891 -0.0809 -0.2352
    2GLN     BB   75   4.453   0.952   3.889  0.1244 -0.3615  0.0866
    2GLN    SC1   76   4.803   0.784   3.871  0.0624  0.1340  0.1744
    3TYR     BB   77   4.331   0.818   4.076 -0.1910 -0.1913 -0.0255
    3TYR    SC1   78   4.260   0.606   4.267  0.2183  0.2124  0.0923
    3TYR    SC2   79   4.303   0.460   4.490 -0.0465  0.2729  0.1877
    3TYR    SC3   80   4.050   0.516   4.413  0.0325  0.1115 -0.2217
    1TYR     BB   81   6.955   4.638   3.957  0.0957  0.4203 -0.0728
    1TYR    SC1   82   6.659   4.657   3.861  0.0155  0.3064  0.0642
    1TYR    SC2   83   6.429   4.711   3.993  0.0473  0.0808  0.2197
    1TYR    SC3   84   6.421   4.624   3.738 -0.0395  0.0640  0.2278
    2GLN     BB   85   7.082   4.742   4.125  0.2323  0.1482  0.0855
    2GLN    SC1   86   6.812   4.872   4.372  0.0419 -0.2127 -0.0508
    3TYR     BB   87   7.383   4.819   4.204  0.0494 -0.0255  0.2734
    3TYR    SC1   88   7.595   4.596   4.167 -0.2793 -0.1165 -0.1376
    3TYR    SC2   89   7.739   4.437   4.330 -0.0677  0.0784 -0.1282
    3TYR    SC3   90   7.707   4.371   4.072 -0.0572 -0.0220 -0.1044
    1TYR     BB   91   2.897   2.425   4.109  0.0804  0.3696 -0.1950
    1TYR    SC1   92   2.921   2.106   4.161  0.1919  0.0848  0.4730
    1TYR    SC2   93   2.707   1.951   4.219  0.0566  0.0382 -0.0794
    1TYR    SC3   94   2.955   1.844   4.221 -0.0043 -0.1088 -0.1580
    2GLN     BB   95   2.712   2.567   3.971  0.1584 -0.1001 -0.2692
    2GLN    SC1   96   2.481   2.487   4.328 -0.1892 -0.4764  0.2440
    3TYR     BB   97   2.693   2.715   3.729  0.0005  0.0175  0.2160
    3TYR    SC1   98   2.696   3.010   3.673 -0.0234 -0.0492 -0.0014
    3TYR    SC2   99   2.842   3.236   3.692 -0.1399  0.0214  0.0600
    3TYR    SC3  100   2.637   3.222   3.516  0.0164 -0.1208 -0.1150
    1TYR     BB  101   4.321   1.871   5.144 -0.1289 -0.1794  0.2733
    1TYR    SC1  102   4.563   1.992   4.980 -0.0917  0.2648 -0.0692
    1TYR    SC2  103   4.801   1.983   4.852 -0.0063 -0.0276  0.0967
    1TYR    SC3  104   4.776   2.121   5.082  0.0468 -0.1182  0.1578
    2GLN     BB  105   4.092   2.058   5.066 -0.2131 -0.1852  0.4331
    2GLN    SC1  106   4.239   2.310   5.309  0.0813 -0.0244 -0.0855
    3TYR     BB  107   4.140   2.290   4.793 -0.0186  0.4611  0.1628
    3TYR    SC1  108   4.436   2.369   4.777  0.0478 -0.0879 -0.1595
    3TYR    SC2  109   4.680   2.364   4.662  0.1418  0.0383  0.0276
    3TYR    SC3  110   4.639   2.511   4.884 -0.0952 -0.0167  0.0234
    1TYR     BB  111   6.579   5.520   4.237  0.1449 -0.1712  0.1570
    1TYR    SC1  112   6.329   5.637   4.196 -0.0385 -0.2942 -0.1268
    1TYR    SC2  113   6.061   5.623   4.163 -0.0416 -0.3039 -0.0987
    1TYR    SC3  114   6.192   5.855   4.112 -0.0408 -0.3295 -0.2155
    2GLN     BB  115   6.463   5.186   4.200  0.3010 -0.0315 -0.1989
    2GLN    SC1  116   6.206   5.244   4.489 -0.0473  0.1187 -0.0861
    3TYR     BB  117   6.731   5.103   3.932  0.3205 -0.0674 -0.2356
    3TYR    SC1  118   6.935   5.288   3.964 -0.0381  0.2972  0.1475
    3TYR    SC2  119   7.137   5.261   4.140 -0.0937 -0.1425  0.1593
    3TYR    SC3  120   7.072   5.506   4.045  0.3799  0.0211  0.2207
    1TYR     BB  121   5.705   4.983   3.595 -0.0797  0.1284 -0.2045
    1TYR    SC1  122   5.857   5.071   3.865  0.0487  0.3827 -0.1923
    1TYR    SC2  123   5.983   4.915   4.046 -0.2014 -0.0097 -0.3418
    1TYR    SC3  124   5.905   5.164   4.114 -0.1784 -0.1025  0.0507
    2GLN     BB  125   5.497   4.775   3.779  0.1566 -0.1126  0.1704
    2GLN    SC1  126   5.495   4.835   4.129 -0.1649 -0.1657 -0.2234
    3TYR     BB  127   5.362   4.592   3.668 -0.2362 -0.0176  0.0507
    3TYR    SC1  128   5.373   4.321   3.514 -0.1160 -0.0199  0.1848
    3TYR    SC2  129   5.206   4.111   3.480 -0.4420  0.2991 -0.3971
    3TYR    SC3  130   5.439   4.122   3.343 -0.1421  0.0743  0.0627
    1TYR     BB  131   3.272   4.270   4.077  0.0636 -0.0226  0.0166
    1TYR    SC1  132   3.509   4.393   4.240 -0.0536  0.3395 -0.2007
    1TYR    SC2  133   3.674   4.474   4.438  0.2285 -0.1409 -0.2204
    1TYR    SC3  134   3.711   4.566   4.187 -0.0819  0.4092 -0.0843
    2GLN     BB  135   3.268   3.990   4.113 -0.2706 -0.0262  0.2226
    2GLN    SC1  136   2.965   3.827   4.142  0.0630  0.0878 -0.0429
    3TYR     BB  137   3.486   3.823   4.244  0.2331 -0.3377 -0.1249
    3TYR    SC1  138   3.562   3.993   4.488  0.0969  0.3251 -0.3332
    3TYR    SC2  139   3.648   4.093   4.724  0.0956 -0.0623 -0.1588
    3TYR    SC3  140   3.401   4.155   4.633  0.1228  0.1468 -0.0986
    1TYR     BB  141   1.610   4.685   3.251 -0.3729  0.0822 -0.0530
    1TYR    SC1  142   1.610   4.982   3.160 -0.0678  0.1322  0.1070
    1TYR    SC2  143   1.671   5.244   3.141  0.0675  0.0865 -0.1341
    1TYR    SC3  144   1.497   5.132   2.967 -0.0265  0.0247 -0.0023
    2GLN     BB  145   1.386   4.398   3.207  0.1418 -0.1749 -0.1327
    2GLN    SC1  146   1.626   4.214   3.535  0.0054  0.2838 -0.1354
    3TYR     BB  147   1.144   4.395   3.082 -0.0131  0.0078 -0.0364
    3TYR    SC1  148   1.009   4.652   2.995 -0.1445  0.0798  0.0512
    3TYR    SC2  149   1.113   4.901   3.019 -0.0233  0.0400 -0.0487
    3TYR    SC3  150   0.895   4.860   2.865 -0.0315  0.0808 -0.0478
    1TYR     BB  151   3.970   0.322   3.251  0.2379  0.2375 -0.1080
    1TYR    SC1  152   3.910   0.324   2.950 -0.2379 -0.1706  0.0417
    1TYR    SC2  153   3.839   0.273   2.694 -0.1735 -0.4618  0.0768
    1TYR    SC3  154   4.092   0.227   2.775 -0.0651  0.0647  0.0846
    2GLN     BB  155   3.743   0.056   3.297  0.1907 -0.1623 -0.0971
    2GLN    SC1  156   3.906  -0.194   3.121 -0.0813 -0.0093  0.1107
    3TYR     BB  157   3.697  -0.143   3.555  0.1679 -0.0853 -0.1635
    3TYR    SC1  158   3.459  -0.071   3.731 -0.2735  0.1098  0.0231
    3TYR    SC2  159   3.284   0.133   3.758 -0.2099  0.1260  0.3699
    3TYR    SC3  160   3.412   0.036   3.975  0.0247 -0.0532  0.1576
    1TYR     BB  161   5.770   4.015   3.706 -0.0894 -0.0485  0.0714
    1TYR    SC1  162   5.587   4.194   3.880 -0.2821 -0.2366  0.0457
    1TYR    SC2  163   5.342   4.171   3.988 -0.2933  0.0605  0.0941
    1TYR    SC3  164   5.521   4.339   4.099 -0.0319 -0.2243  0.1169
    2GLN     BB  165   5.862   4.281   3.520 -0.3489  0.0311 -0.0927
    2GLN    SC1  166   5.903   4.146   3.175 -0.0213 -0.0903  0.1274
    3TYR     BB  167   5.973   4.532   3.639  0.3624  0.0250  0.1398
    3TYR    SC1  168   6.032   4.482   3.928  0.0398 -0.0063 -0.0880
    3TYR    SC2  169   6.002   4.473   4.196 -0.0065 -0.0145 -0.0933
    3TYR    SC3  170   6.213   4.351   4.079  0.0928  0.1110 -0.0481
    1TYR     BB  171   5.435   5.784   3.394 -0.2497  0.1249  0.0476
    1TYR    SC1  172   5.180   5.915   3.398  0.2499  0.1987 -0.0499
    1TYR    SC2  173   5.030   6.114   3.501 -0.1459 -0.1433  0.0726
    1TYR    SC3  174   5.046   6.081   3.234  0.1734  0.2236  0.0361
    2GLN     BB  175   5.471   5.581   3.172 -0.1037  0.2108 -0.0506
    2GLN    SC1  176   5.168   5.665   2.969  0.3728 -0.3272 -0.0471
    3TYR     BB  177   5.727   5.519   3.084  0.3903  0.3259 -0.0285
    3TYR    SC1  178   5.822   5.261   3.082  0.1457  0.1352  0.3145
    3TYR    SC2  179   5.930   5.150   2.860  0.0461  0.0162  0.3240
    3TYR    SC3  180   5.838   4.992   3.059 -0.3457  0.1019  0.2228
    1TYR     BB  181   5.088   2.622   3.352  0.1528  0.0173  0.0679
    1TYR    SC1  182   4.747   2.666   3.398  0.1687 -0.2850 -0.1877
    1TYR    SC2  183   4.559   2.724   3.215  0.2352 -0.1869 -0.2254
    1TYR    SC3  184   4.530   2.810   3.468  0.3306  0.0115 -0.2795
    2GLN     BB  185   5.001   2.662   2.977 -0.1027 -0.0808 -0.1489
    2GLN    SC1  186   5.331   2.613   2.771  0.1459 -0.2096  0.0032
    3TYR     BB  187   4.778   2.751   2.735  0.3074  0.3188 -0.5225
    3TYR    SC1  188   4.947   2.916   2.560  0.1410 -0.0575 -0.1317
    3TYR    SC2  189   5.173   3.062   2.579  0.0611  0.0320  0.1888
    3TYR    SC3  190   5.063   3.018   2.337  0.0854  0.5106  0.0782
    1TYR     BB  191   0.549   4.304   4.580 -0.3048  0.0083  0.0756
    1TYR    SC1  192   0.734   4.392   4.813  0.3326  0.2116 -0.3401
    1TYR    SC2  193   0.961   4.389   4.958  0.0415  0.2858  0.1481
    1TYR    SC3  194   0.737   4.276   5.058 -0.1626  0.2838 -0.2865
    2GLN     BB  195   0.284   4.376   4.650  0.0413  0.1841 -0.1968
    2GLN    SC1  196   0.234   4.296   4.993  0.3292  0.3252 -0.0018
    3TYR     BB  197   0.038   4.303   4.511 -0.1560  0.0861 -0.2139
    3TYR    SC1  198  -0.229   4.364   4.469  0.0995  0.1100  0.0178
    3TYR    SC2  199  -0.460   4.437   4.351  0.0662 -0.1054 -0.0544
    3TYR    SC3  200  -0.453   4.221   4.513  0.1324  0.1298  0.2685
    1TYR     BB  201   3.833   2.217   3.887 -0.0453 -0.0923 -0.0338
    1TYR    SC1  202   3.563   2.142   3.914  0.1084 -0.1571  0.1083
    1TYR    SC2  203   3.335   2.002   3.950  0.0302 -0.0700 -0.0349
    1TYR    SC3  204   3.392   2.211   4.111 -0.1105  0.0558 -0.1446
    2GLN     BB  205   4.105   2.224   3.937 -0.0786  0.0918 -0.3466
    2GLN    SC1  206   4.383   1.969   3.903 -0.0283 -0.3017 -0.2867
    3TYR     BB  207   4.223   2.296   4.261 -0.1458 -0.0703  0.3034
    3TYR    SC1  208   4.397   2.102   4.413  0.0483  0.2528  0.2118
    3TYR    SC2  209   4.372   1.888   4.574 -0.1091  0.0036 -0.1271
    3TYR    SC3  210   4.601   1.927   4.437 -0.2207 -0.1867 -0.3776
    1TYR     BB  211   3.563   3.085   3.141  0.1930  0.0337  0.1135
    1TYR    SC1  212   3.394   3.157   2.889  0.2789  0.3023  0.1955
    1TYR    SC2  213   3.332   3.302   2.671 -0.0036  0.0829  0.1206
    1TYR    SC3  214   3.149   3.134   2.776  0.3515 -0.3215  0.1210
    2GLN     BB  215   3.773   2.877   3.138  0.0441 -0.1178 -0.0800
    2GLN    SC1  216   3.780   2.779   2.813 -0.2514 -0.2190 -0.0186
    3TYR     BB  217   4.042   2.824   3.282 -0.0069  0.1740  0.3246
    3TYR    SC1  218   3.997   2.857   3.571  0.0615  0.0647  0.0581
    3TYR    SC2  219   4.063   2.877   3.832 -0.0875 -0.0553  0.1067
    3TYR    SC3  220   3.938   2.656   3.741  0.0544 -0.0585 -0.0879
    1TYR     BB  221   3.999   0.842   3.599 -0.0903 -0.0623  0.2458
    1TYR    SC1  222   4.089   1.074   3.383  0.2265 -0.1998 -0.1254
    1TYR    SC2  223   4.108   1.166   3.130 -0.0218  0.0534 -0.0585
    1TYR    SC3  224   4.169   1.328   3.338  0.0099 -0.0964  0.0507
    2GLN     BB  225   4.160   0.631   3.604 -0.0636 -0.0209  0.3772
    2GLN    SC1  226   4.487   0.763   3.421 -0.1267 -0.1846  0.0706
    3TYR     BB  227   4.338   0.303   3.529 -0.2542 -0.0517 -0.0672
    3TYR    SC1  228   4.495   0.186   3.793  0.2969  0.1343 -0.2835
    3TYR    SC2  229   4.714   0.181   3.951  0.1028 -0.2536 -0.0069
    3TYR    SC3  230   4.473   0.245   4.055  0.0498 -0.0012 -0.2693
    1TYR     BB  231   3.788   2.193   4.449 -0.3267  0.3679 -0.0731
    1TYR    SC1  232   3.661   2.163   4.698 -0.0851  0.0323  0.0149
    1TYR    SC2  233   3.503   2.213   4.911 -0.1634 -0.1964  0.0137
    1TYR    SC3  234   3.581   1.960   4.857 -0.1268 -0.1386 -0.2177
    2GLN     BB  235   3.848   1.924   4.314  0.3041  0.1934  0.2168
    2GLN    SC1  236   3.514   1.703   4.339  0.2875  0.1874 -0.0768
    3TYR     BB  237   4.018   1.758   4.191  0.0080  0.0689  0.0251
    3TYR    SC1  238   4.273   1.616   4.231 -0.0908  0.1253  0.0003
    3TYR    SC2  239   4.527   1.545   4.176 -0.1125 -0.0366  0.1012
    3TYR    SC3  240   4.346   1.357   4.244 -0.2155  0.0975  0.2051
    1TYR     BB  241   0.979   3.002   4.489  0.1779  0.0988  0.1921
    1TYR    SC1  242   0.950   2.944   4.770 -0.0563  0.0659 -0.1178
    1TYR    SC2  243   0.835   2.925   5.014 -0.2792 -0.3055 -0.2426
    1TYR    SC3  244   1.087   2.834   4.976 -0.0500  0.2009 -0.0483
    2GLN     BB  245   1.224   3.240   4.490  0.1885 -0.2071  0.1165
    2GLN    SC1  246   1.453   3.175   4.797  0.1126 -0.1178  0.0910
    3TYR     BB  247   1.165   3.535   4.458  0.2532  0.0396 -0.1398
    3TYR    SC1  248   1.230   3.595   4.183  0.0903 -0.0108 -0.1200
    3TYR    SC2  249   1.194   3.630   3.918  0.0828 -0.1852 -0.1441
    3TYR    SC3  250   1.428   3.532   4.011  0.2115  0.1852 -0.0556
    1TYR     BB  251   1.164   5.298   3.305  0.2686  0.1289 -0.0647
    1TYR    SC1  252   1.150   5.315   3.604  0.1411 -0.0299  0.0980
    1TYR    SC2  253   0.994   5.250   3.815  0.0894 -0.2091  0.0075
    1TYR    SC3  254   1.233   5.370   3.855  0.1197 -0.3200  0.1725
    2GLN     BB  255   0.922   5.464   3.172  0.1695 -0.0015 -0.0679
    2GLN    SC1  256   0.731   5.608   3.500  0.1873  0.0066 -0.3151
    3TYR     BB  257   0.902   5.445   2.894 -0.2978 -0.1680 -0.3434
    3TYR    SC1  258   0.732   5.309   2.687  0.0771  0.0955  0.1791
    3TYR    SC2  259   0.752   5.129   2.487  0.2050 -0.0446  0.3146
    3TYR    SC3  260   0.510   5.200   2.581  0.1565 -0.4585  0.5294
    1TYR     BB  261   3.727   4.121   3.232  0.3722  0.0178  0.0630
    1TYR    SC1  262   3.782   4.272   2.986  0.1605  0.0905 -0.0136
    1TYR    SC2  263   3.836   4.488   2.833  0.0691 -0.0686 -0.2786
    1TYR    SC3  264   3.990   4.267   2.816  0.2119 -0.0030  0.0512
    2GLN     BB  265   3.424   4.123   3.297 -0.0974 -0.1406 -0.0175
    2GLN    SC1  266   3.323   4.345   3.038 -0.0255 -0.0353 -0.2946
    3TYR     BB  267   3.253   4.097   3.588  0.2028  0.1986 -0.0495
    3TYR    SC1  268   3.064   4.376   3.526 -0.1544 -0.1577 -0.2792
    3TYR    SC2  269   2.883   4.558   3.611  0.0685 -0.0296 -0.0629
    3TYR    SC3  270   3.015   4.597   3.378 -0.0989 -0.0695 -0.1669
    1TYR     BB  271   4.457   4.043   2.809 -0.0690  0.0812  0.0757
    1TYR    SC1  272   4.524   3.950   2.479 -0.0177  0.1005 -0.0197
    1TYR    SC2  273   4.533   3.967   2.210 -0.0070 -0.4132 -0.0644
    1TYR    SC3  274   4.580   3.731   2.332  0.1482 -0.1569  0.4038
    2GLN     BB  275   4.651   4.034   3.009  0.0167 -0.3436  0.0696
    2GLN    SC1  276   4.823   3.730   2.850 -0.1998 -0.1635 -0.0891
    3TYR     BB  277   4.789   4.133   3.268  0.1226  0.0796 -0.3586
    3TYR    SC1  278   4.582   4.327   3.406  0.4424 -0.1671 -0.1541
    3TYR    SC2  279   4.450   4.299   3.640  0.4988 -0.2114 -0.1272
    3TYR    SC3  280   4.542   4.542   3.565  0.2395 -0.1427 -0.2353
    1TYR     BB  281   6.402   2.682   3.702 -0.0201 -0.1547 -0.1339
    1TYR    SC1  282   6.545   2.862   3.521  0.0047 -0.0108 -0.1731
    1TYR    SC2  283   6.676   3.097   3.487 -0.4283  0.2606 -0.0654
    1TYR    SC3  284   6.577   2.965   3.274  0.2867 -0.1346 -0.1937
    2GLN     BB  285   6.362   2.630   3.978  0.0761  0.1698 -0.0864
    2GLN    SC1  286   6.632   2.422   4.186 -0.0116  0.0099  0.3229
    3TYR     BB  287   6.328   2.780   4.233 -0.3635  0.1136  0.0176
    3TYR    SC1  288   6.364   3.008   4.463  0.0964 -0.1441  0.3222
    3TYR    SC2  289   6.466   3.193   4.630 -0.3155  0.2715  0.1418
    3TYR    SC3  290   6.222   3.086   4.680 -0.1442 -0.1272  0.1645
    1TYR     BB  291   6.712   4.941   3.406  0.0929 -0.2243 -0.1238
    1TYR    SC1  292   6.437   4.974   3.500 -0.1381 -0.0877  0.3104
    1TYR    SC2  293   6.277   5.039   3.707 -0.2756 -0.3108  0.2776
    1TYR    SC3  294   6.175   5.017   3.457 -0.0842  0.1005  0.1524
    2GLN     BB  295   6.897   4.725   3.213  0.0155 -0.2627 -0.0212
    2GLN    SC1  296   6.617   4.605   2.987 -0.0829 -0.4321  0.4055
    3TYR     BB  297   6.884   4.505   3.462  0.1095  0.1316  0.0789
    3TYR    SC1  298   6.612   4.372   3.424 -0.1245  0.0956  0.1636
    3TYR    SC2  299   6.598   4.106   3.378 -0.0176  0.1193 -0.0228
    3TYR    SC3  300   6.374   4.258   3.367 -0.0811  0.0364  0.0975
    1TYR     BB  301   1.234   4.252   2.567 -0.0796 -0.0315 -0.1775
    1TYR    SC1  302   1.423   4.482   2.640 -0.3200  0.0575  0.0443
    1TYR    SC2  303   1.416   4.699   2.801 -0.4835 -0.0576  0.1975
    1TYR    SC3  304   1.610   4.675   2.615 -0.3365  0.1159  0.3240
    2GLN     BB  305   1.045   4.427   2.376  0.1701  0.1150  0.0738
    2GLN    SC1  306   0.997   4.164   2.055 -0.0648  0.0011  0.3327
    3TYR     BB  307   0.938   4.699   2.403  0.2038  0.1018  0.0942
    3TYR    SC1  308   1.158   4.913   2.525  0.0202 -0.2471  0.0420
    3TYR    SC2  309   1.382   5.061   2.497  0.0233 -0.2152  0.2169
    3TYR    SC3  310   1.180   5.153   2.650 -0.1559 -0.1941 -0.0257
    1TYR     BB  311   7.618   3.508   3.920 -0.0016 -0.0735  0.0166
    1TYR    SC1  312   7.594   3.553   3.616  0.0846 -0.1896 -0.0043
    1TYR    SC2  313   7.441   3.516   3.397 -0.0702 -0.0122  0.0699
    1TYR    SC3  314   7.708   3.540   3.373 -0.0430 -0.3769 -0.0561
    2GLN     BB  315   7.444   3.524   4.133  0.3315  0.0151  0.2963
    2GLN    SC1  316   7.479   3.217   4.284 -0.1792  0.0446  0.0043
    3TYR     BB  317   7.152   3.599   4.105  0.1354  0.1369  0.0290
    3TYR    SC1  318   7.095   3.809   4.349  0.0952  0.1579 -0.1269
    3TYR    SC2  319   7.088   3.892   4.605  0.2139  0.0040 -0.0722
    3TYR    SC3  320   6.881   3.946   4.440  0.0865  0.0078  0.0854
    1TYR     BB  321   7.328   4.520   3.162  0.0513 -0.2821 -0.0404
    1TYR    SC1  322   7.472   4.723   3.034  0.0695  0.0696  0.1296
    1TYR    SC2  323   7.586   4.841   2.818 -0.0537  0.1194  0.0910
    1TYR    SC3  324   7.741   4.755   3.022  0.0533  0.1812  0.0371
    2GLN     BB  325   7.475   4.231   3.070 -0.2131 -0.3496 -0.0261
    2GLN    SC1  326   7.489   4.319   2.722  0.2399  0.2791 -0.0757
    3TYR     BB  327   7.596   4.028   3.286  0.1520  0.1365 -0.1131
    3TYR    SC1  328   7.327   3.997   3.491 -0.3620 -0.4400 -0.2369
    3TYR    SC2  329   7.076   4.038   3.581 -0.1014  0.0095  0.3833
    3TYR    SC3  330   7.220   3.829   3.672 -0.2070 -0.1994  0.0918
    1TYR     BB  331   5.315   3.208   3.966  0.0320  0.0171 -0.2425
    1TYR    SC1  332   5.364   3.502   3.869  0.1087  0.1352  0.2284
    1TYR    SC2  333   5.368   3.761   3.944 -0.1108  0.2486 -0.1244
    1TYR    SC3  334   5.396   3.695   3.684 -0.2670 -0.0677 -0.0670
    2GLN     BB  335   5.050   3.054   3.991 -0.5082  0.3341 -0.1887
    2GLN    SC1  336   4.931   3.236   4.263  0.4365 -0.2646 -0.0960
    3TYR     BB  337   4.909   2.842   3.864 -0.3683  0.2311 -0.0556
    3TYR    SC1  338   4.633   2.730   3.936  0.0284  0.0424  0.2078
    3TYR    SC2  339   4.406   2.761   4.078 -0.0798  0.0829  0.0294
    3TYR    SC3  340   4.417   2.581   3.878  0.0181  0.1408 -0.0183
    1TYR     BB  341   4.977   3.182   3.508 -0.0874  0.2387 -0.0220
    1TYR    SC1  342   4.989   3.445   3.614 -0.2537  0.1527 -0.1815
    1TYR    SC2  343   4.995   3.715   3.618 -0.3204  0.1565 -0.2823
    1TYR    SC3  344   4.898   3.579   3.830  0.0983  0.1961 -0.0525
    2GLN     BB  345   4.919   3.106   3.183  0.2213 -0.0500  0.2439
    2GLN    SC1  346   5.300   3.032   3.071 -0.1553 -0.0506 -0.4355
    3TYR     BB  347   4.769   3.229   3.020 -0.1684  0.0792  0.4596
    3TYR    SC1  348   4.758   3.268   2.720 -0.4566  0.2403  0.1436
    3TYR    SC2  349   4.859   3.395   2.504  0.2055 -0.3130  0.0835
    3TYR    SC3  350   4.629   3.255   2.483 -0.0607  0.1226 -0.0775
    1TYR     BB  351   8.087   3.956   3.359  0.0286  0.0526 -0.2255
    1TYR    SC1  352   8.069   4.217   3.170 -0.0988 -0.1381 -0.0604
    1TYR    SC2  353   8.248   4.408   3.104 -0.3088  0.0469 -0.1112
    1TYR    SC3  354   8.032   4.364   2.947 -0.3255 -0.1523 -0.0365
    2GLN     BB  355   8.021   3.983   3.616 -0.3262 -0.2442 -0.1206
    2GLN    SC1  356   8.132   3.652   3.717 -0.0572 -0.0740  0.2428
    3TYR     BB  357   7.762   4.013   3.776 -0.0591  0.2162 -0.3867
    3TYR    SC1  358   7.830   3.937   4.036  0.1108 -0.2181 -0.0429
    3TYR    SC2  359   7.791   3.929   4.303  0.1020 -0.3685 -0.0481
    3TYR    SC3  360   7.958   3.752   4.186  0.2181 -0.2105 -0.1240
    1TYR     BB  361   6.746   4.141   4.921 -0.1357  0.0445 -0.0419
    1TYR    SC1  362   6.561   3.910   4.781 -0.1092 -0.0143  0.0749
    1TYR    SC2  363   6.421   3.684   4.737  0.1016 -0.1089 -0.1319
    1TYR    SC3  364   6.688   3.673   4.773  0.0814  0.0845  0.1122
    2GLN     BB  365   6.833   3.976   5.174  0.0219  0.2589 -0.2411
    2GLN    SC1  366   7.216   4.020   5.253  0.0357 -0.2314 -0.2149
    3TYR     BB  367   6.736   4.061   5.414  0.2979 -0.0153  0.2073
    3TYR    SC1  368   6.489   4.246   5.357  0.3078  0.1287 -0.1705
    3TYR    SC2  369   6.315   4.378   5.198  0.0279 -0.2685 -0.2128
    3TYR    SC3  370   6.436   4.506   5.403 -0.1125  0.0828 -0.3405
    1TYR     BB  371  -0.074   4.770   4.254  0.1026 -0.5280  0.0003
    1TYR    SC1  372  -0.370   4.869   4.211  0.1064  0.3049  0.0082
    1TYR    SC2  373  -0.544   4.997   4.050  0.1097  0.0445 -0.2109
    1TYR    SC3  374  -0.579   5.002   4.317 -0.2050  0.0405 -0.2469
    2GLN     BB  375   0.021   4.599   4.090  0.0114 -0.1839  0.1692
    2GLN    SC1  376  -0.180   4.372   3.852 -0.1959 -0.4648  0.1087
    3TYR     BB  377   0.294   4.405   4.080 -0.0078  0.0607 -0.4570
    3TYR    SC1  378   0.362   4.225   3.855  0.3278  0.2150 -0.1000
    3TYR    SC2  379   0.228   4.047   3.704  0.1722 -0.0103  0.2854
    3TYR    SC3  380   0.497   4.051   3.699  0.1780 -0.2455  0.2535
    1TYR     BB  381   0.063   4.491   3.300 -0.3358  0.0346 -0.2400
    1TYR    SC1  382  -0.014   4.697   3.166  0.2977  0.0756 -0.2507
    1TYR    SC2  383  -0.137   4.936   3.145  0.0521  0.0024  0.2033
    1TYR    SC3  384  -0.156   4.756   2.945 -0.1707  0.1791  0.0595
    2GLN     BB  385   0.068   4.182   3.298 -0.3116 -0.2862  0.0414
    2GLN    SC1  386  -0.218   4.030   3.487  0.1629  0.0642 -0.0842
    3TYR     BB  387   0.250   4.043   3.216 -0.0937  0.1215  0.0065
    3TYR    SC1  388   0.336   3.792   3.305  0.0957 -0.3052 -0.0197
    3TYR    SC2  389   0.545   3.629   3.359  0.2078 -0.1308  0.0863
    3TYR    SC3  390   0.328   3.532   3.231  0.3116 -0.3384  0.0615
    1TYR     BB  391   0.287   5.428   4.942  0.0140  0.0603  0.1758
    1TYR    SC1  392   0.170   5.649   4.783  0.1747  0.1624  0.1268
    1TYR    SC2  393   0.216   5.871   4.637 -0.1787  0.1911  0.0481
    1TYR    SC3  394   0.002   5.716   4.583  0.1507 -0.2690 -0.0095
    2GLN     BB  395   0.026   5.320   5.060  0.0176  0.0827 -0.3306
    2GLN    SC1  396   0.015   5.564   5.406 -0.1616  0.1039 -0.0071
    3TYR     BB  397  -0.140   5.111   5.179  0.1667  0.1196 -0.0229
    3TYR    SC1  398  -0.053   4.809   5.257  0.0530  0.1841 -0.1878
    3TYR    SC2  399   0.003   4.551   5.315 -0.0748  0.2166  0.1023
    3TYR    SC3  400  -0.028   4.731   5.514 -0.0690  0.4413 -0.0936
    1TYR     BB  401   3.977   3.699   4.169 -0.0511 -0.2368  0.0944
    1TYR    SC1  402   3.972   3.982   4.211  0.2080 -0.0308 -0.0401
    1TYR    SC2  403   4.011   4.245   4.161  0.0718  0.0282  0.1518
    1TYR    SC3  404   4.012   4.154   4.416  0.4989 -0.2216  0.0718
    2GLN     BB  405   4.198   3.456   4.271  0.2990  0.0867 -0.0895
    2GLN    SC1  406   4.405   3.499   4.601  0.0607  0.0606 -0.1527
    3TYR     BB  407   4.134   3.125   4.297  0.0208  0.6818 -0.0737
    3TYR    SC1  408   4.304   2.989   4.488  0.0578  0.2248  0.0490
    3TYR    SC2  409   4.491   2.952   4.679  0.0576  0.0242  0.0123
    3TYR    SC3  410   4.404   2.743   4.533  0.0706  0.1778 -0.2216
    1TYR     BB  411   5.350   5.337   3.691 -0.0538 -0.5404 -0.0198
    1TYR    SC1  412   5.112   5.395   3.537  0.0562 -0.2216  0.0874
    1TYR    SC2  413   4.925   5.259   3.398  0.0086 -0.0098 -0.0612
    1TYR    SC3  414   4.931   5.529   3.387  0.2074 -0.0060  0.0925
    2GLN     BB  415   5.342   5.296   3.973 -0.0029  0.1438 -0.0542
    2GLN    SC1  416   5.554   5.612   4.023  0.0488 -0.0921  0.1590
    3TYR     BB  417   5.293   5.261   4.230 -0.1163  0.1893 -0.1620
    3TYR    SC1  418   5.223   5.543   4.392 -0.0300  0.2250 -0.0008
    3TYR    SC2  419   5.052   5.744   4.450 -0.0541  0.1290  0.2775
    3TYR    SC3  420   5.313   5.767   4.513 -0.0094  0.1700  0.0862
    1TYR     BB  421   0.365   3.796   2.790  0.2059  0.0283 -0.0607
    1TYR    SC1  422   0.521   3.725   2.531 -0.1240  0.1809 -0.1157
    1TYR    SC2  423   0.701   3.701   2.331  0.2127  0.2057  0.1700
    1TYR    SC3  424   0.467   3.566   2.319  0.1940  0.2557 -0.2618
    2GLN     BB  425   0.178   4.039   2.699 -0.0027  0.0937 -0.1636
    2GLN    SC1  426   0.140   3.981   2.308  0.3423 -0.0072  0.1865
    3TYR     BB  427   0.166   4.317   2.791  0.0258 -0.0963  0.1489
    3TYR    SC1  428   0.255   4.612   2.677 -0.0499  0.3823  0.5003
    3TYR    SC2  429   0.237   4.846   2.544  0.0473  0.1701  0.0948
    3TYR    SC3  430   0.478   4.758   2.627  0.1579 -0.1731 -0.5181
    1TYR     BB  431   1.198   4.820   3.456 -0.0882  0.0915 -0.0154
    1TYR    SC1  432   0.931   4.912   3.491  0.0975  0.0024 -0.0379
    1TYR    SC2  433   0.794   4.995   3.274 -0.1220  0.0840  0.1290
    1TYR    SC3  434   0.712   5.065   3.523  0.3022  0.2551  0.2317
    2GLN     BB  435   1.282   4.549   3.679  0.1459 -0.3448 -0.1645
    2GLN    SC1  436   1.333   4.840   3.948  0.0018  0.4010  0.2575
    3TYR     BB  437   1.275   4.358   3.971  0.6100  0.2494 -0.0851
    3TYR    SC1  438   0.986   4.172   4.030  0.3042 -0.1853 -0.0704
    3TYR    SC2  439   0.726   4.134   4.090  0.1569  0.2185 -0.3961
    3TYR    SC3  440   0.880   3.924   4.021 -0.0464 -0.0408 -0.0981
    1TYR     BB  441   5.876   6.008   3.782 -0.0252 -0.0540 -0.2705
    1TYR    SC1  442   5.987   5.730   3.717 -0.0847 -0.1741  0.1013
    1TYR    SC2  443   6.107   5.489   3.740  0.2036 -0.0577 -0.1004
    1TYR    SC3  444   5.899   5.521   3.571  0.0610 -0.1965  0.0438
    2GLN     BB  445   5.990   6.207   3.785  0.3404 -0.1457 -0.1824
    2GLN    SC1  446   6.324   6.328   3.638  0.1532 -0.1782 -0.1285
    3TYR     BB  447   5.928   6.387   4.064  0.0430  0.3406  0.2741
    3TYR    SC1  448   5.992   6.639   4.150 -0.2675 -0.0348  0.0279
    3TYR    SC2  449   6.002   6.783   4.378  0.0438  0.1026 -0.0658
    3TYR    SC3  450   5.896   6.892   4.155  0.3005  0.2040 -0.1428
    1TYR     BB  451   1.430   4.359   4.792 -0.1121  0.3052  0.0361
    1TYR    SC1  452   1.533   4.651   4.705  0.3314 -0.0165 -0.1781
    1TYR    SC2  453   1.480   4.874   4.561  0.1443  0.0066 -0.0769
    1TYR    SC3  454   1.516   4.891   4.828  0.0535 -0.0930 -0.0571
    2GLN     BB  455   1.505   4.220   4.489  0.1513  0.1732  0.0745
    2GLN    SC1  456   1.682   4.462   4.243 -0.0287  0.2159  0.1279
    3TYR     BB  457   1.341   4.021   4.452  0.1774 -0.0285 -0.0452
    3TYR    SC1  458   1.034   3.997   4.504 -0.0839  0.3702  0.2746
    3TYR    SC2  459   0.792   3.877   4.513  0.0161  0.1138 -0.1129
    3TYR    SC3  460   0.900   3.981   4.737 -0.3086 -0.0519  0.1311
    1TYR     BB  461   0.438   3.869   4.844  0.0886 -0.2329  0.0357
    1TYR    SC1  462   0.114   3.869   4.789  0.1656  0.0644 -0.1181
    1TYR    SC2  463  -0.136   3.957   4.838  0.1406  0.0916 -0.2889
    1TYR    SC3  464  -0.089   3.798   4.624  0.2004 -0.2387 -0.0382
    2GLN     BB  465   0.529   3.833   5.092  0.0596 -0.2057 -0.1650
    2GLN    SC1  466   0.441   4.059   5.401  0.1890 -0.0831 -0.1861
    3TYR     BB  467   0.790   3.728   5.312 -0.0467  0.0708  0.0379
    3TYR    SC1  468   1.034   3.914   5.246  0.0997 -0.1751  0.1080
    3TYR    SC2  469   1.189   4.095   5.118 -0.1406 -0.0163  0.0345
    3TYR    SC3  470   1.239   4.034   5.377  0.0493  0.0225  0.0091
    1TYR     BB  471   4.674   4.874   3.216  0.1821 -0.0529 -0.1775
    1TYR    SC1  472   4.349   4.881   3.354  0.0118 -0.0438 -0.0067
    1TYR    SC2  473   4.081   4.876   3.390  0.0131 -0.0025  0.0090
    1TYR    SC3  474   4.218   5.106   3.424  0.0740 -0.0598  0.1672
    2GLN     BB  475   4.726   4.655   3.074  0.0643  0.0556  0.2672
    2GLN    SC1  476   5.018   4.543   3.322  0.2264 -0.1553  0.1497
    3TYR     BB  477   4.672   4.476   2.815  0.2148 -0.2249 -0.2012
    3TYR    SC1  478   4.755   4.481   2.505 -0.0762  0.3076  0.0517
    3TYR    SC2  479   4.958   4.536   2.335 -0.0379 -0.0892 -0.0432
    3TYR    SC3  480   4.713   4.477   2.237 -0.1015  0.0071  0.0558
    1TYR     BB  481   4.860   4.054   4.481  0.1553  0.0449 -0.0082
    1TYR    SC1  482   5.046   4.307   4.369 -0.1013  0.0107 -0.0601
    1TYR    SC2  483   5.154   4.534   4.468 -0.0977  0.0410 -0.1327
    1TYR    SC3  484   5.134   4.500   4.201  0.0793 -0.1263 -0.1270
    2GLN     BB  485   4.958   3.781   4.349  0.4590 -0.0394 -0.1148
    2GLN    SC1  486   4.944   3.536   4.701 -0.1852 -0.1742 -0.0187
    3TYR     BB  487   4.662   3.640   4.239  0.0646 -0.0205 -0.0358
    3TYR    SC1  488   4.467   3.862   4.180  0.0821  0.2772  0.1136
    3TYR    SC2  489   4.454   4.125   4.237 -0.3878  0.2707  0.0890
    3TYR    SC3  490   4.386   4.038   3.991  0.3764  0.1728 -0.1202
    1TYR     BB  491   4.797   5.393   4.129 -0.1714 -0.0224 -0.0341
    1TYR    SC1  492   4.750   5.409   4.426  0.1577 -0.1669  0.1607
    1TYR    SC2  493   4.666   5.477   4.674  0.0208 -0.3340  0.1617
    1TYR    SC3  494   4.904   5.353   4.641  0.2340  0.0555  0.1677
    2GLN     BB  495   4.888   5.584   3.894 -0.1610 -0.0562 -0.0745
    2GLN    SC1  496   4.555   5.698   3.823 -0.1039  0.0793  0.1397
    3TYR     BB  497   5.086   5.799   3.957 -0.1923  0.0361 -0.0535
    3TYR    SC1  498   4.946   6.058   3.970 -0.0268 -0.1362  0.0507
    3TYR    SC2  499   4.831   6.297   4.021 -0.0639 -0.1235 -0.0870
    3TYR    SC3  500   4.764   6.160   3.798  0.0015 -0.2348 -0.0389
    1TYR     BB  501   3.876   1.365   4.400 -0.0396  0.0262 -0.1923
    1TYR    SC1  502   3.976   1.444   4.671 -0.2187  0.1382  0.0139
    1TYR    SC2  503   3.967   1.699   4.758  0.1914  0.1593  0.0163
    1TYR    SC3  504   4.179   1.543   4.819 -0.1039 -0.2228  0.1101
    2GLN     BB  505   3.922   0.997   4.344  0.3147  0.0673 -0.0933
    2GLN    SC1  506   3.823   0.920   4.696 -0.0785  0.1295 -0.0308
    3TYR     BB  507   3.804   0.795   4.086  0.1142 -0.3611  0.0383
    3TYR    SC1  508   3.614   0.585   4.196 -0.3406 -0.0915 -0.0544
    3TYR    SC2  509   3.409   0.416   4.145 -0.4336 -0.0673  0.2194
    3TYR    SC3  510   3.520   0.423   4.392 -0.3079  0.1412  0.1598
    1TYR     BB  511   5.563   6.258   3.425  0.3251  0.0524  0.0465
    1TYR    SC1  512   5.573   6.215   3.135  0.0254 -0.0101 -0.0797
    1TYR    SC2  513   5.598   6.000   2.975 -0.2157 -0.1450  0.0575
    1TYR    SC3  514   5.426   6.197   2.910 -0.1474 -0.0921  0.0368
    2GLN     BB  515   5.689   6.504   3.510 -0.2484 -0.0116 -0.1184
    2GLN    SC1  516   5.990   6.432   3.255 -0.0751  0.2295 -0.5141
    3TYR     BB  517   5.748   6.647   3.672 -0.3480 -0.1822  0.0374
    3TYR    SC1  518   6.047   6.772   3.669  0.4161 -0.4212  0.1356
    3TYR    SC2  519   6.187   6.973   3.785 -0.0325  0.0345 -0.0621
    3TYR    SC3  520   6.311   6.797   3.623  0.4014  0.0425  0.2399
    1TYR     BB  521   5.810   3.156   3.098  0.1752 -0.0360 -0.0735
    1TYR    SC1  522   5.706   3.086   2.842 -0.1510 -0.4333 -0.0725
    1TYR    SC2  523   5.653   3.295   2.679  0.4470  0.0146  0.2562
    1TYR    SC3  524   5.621   3.043   2.589 -0.2726  0.2173 -0.1660
    2GLN     BB  525   5.722   3.376   3.261  0.0615 -0.0675  0.0234
    2GLN    SC1  526   5.531   3.210   3.518 -0.0539  0.1676 -0.1124
    3TYR     BB  527   5.648   3.642   3.243 -0.0367 -0.0728 -0.1189
    3TYR    SC1  528   5.368   3.664   3.252 -0.0422  0.0461 -0.1743
    3TYR    SC2  529   5.174   3.497   3.169 -0.1066  0.1774 -0.2934
    3TYR    SC3  530   5.124   3.760   3.189  0.0392  0.2033 -0.2562
    1TYR     BB  531   5.794   3.001   4.022  0.0221  0.1341  0.0783
    1TYR    SC1  532   5.843   3.304   3.909  0.0603  0.1876  0.0703
    1TYR    SC2  533   5.831   3.570   3.955  0.0405  0.2397 -0.2080
    1TYR    SC3  534   5.871   3.479   3.705  0.0465 -0.0222 -0.1158
    2GLN     BB  535   5.931   2.842   3.823  0.0682 -0.0459 -0.1903
    2GLN    SC1  536   5.934   2.443   3.887  0.0568  0.0179  0.1881
    3TYR     BB  537   5.989   2.921   3.554 -0.3359 -0.0164  0.0607
    3TYR    SC1  538   6.179   3.150   3.527  0.1486 -0.0328  0.1349
    3TYR    SC2  539   6.327   3.375   3.558  0.4173 -0.1512 -0.2061
    3TYR    SC3  540   6.263   3.288   3.310 -0.2799 -0.0833 -0.0751
    1TYR     BB  541   5.575   6.421   4.424 -0.0653  0.0201  0.2632
    1TYR    SC1  542   5.482   6.656   4.241 -0.1007 -0.2894 -0.0423
    1TYR    SC2  543   5.405   6.788   4.018  0.0780 -0.1277 -0.0115
    1TYR    SC3  544   5.229   6.749   4.220  0.0510  0.1682  0.0275
    2GLN     BB  545   5.481   6.217   4.113  0.0809  0.0559 -0.1198
    2GLN    SC1  546   5.744   5.964   4.241  0.2005  0.0510 -0.4788
    3TYR     BB  547   5.383   6.224   3.874  0.1285 -0.1273 -0.2233
    3TYR    SC1  548   5.216   6.445   3.770 -0.0296  0.0582 -0.1646
    3TYR    SC2  549   5.151   6.532   3.523  0.1231  0.1666 -0.1683
    3TYR    SC3  550   5.088   6.680   3.740  0.0945  0.1288 -0.1506
    1TYR     BB  551   0.472   4.646   5.295 -0.1414 -0.0865 -0.0183
    1TYR    SC1  552   0.717   4.529   5.452 -0.2454 -0.2779  0.0374
    1TYR    SC2  553   0.901   4.331   5.446  0.1790  0.0948  0.1340
    1TYR    SC3  554   0.755   4.373   5.669  0.1506 -0.0521  0.1438
    2GLN     BB  555   0.588   4.918   5.164 -0.0331 -0.0542 -0.2352
    2GLN    SC1  556   0.764   5.073   5.457 -0.1025  0.0491 -0.0908
    3TYR     BB  557   0.426   4.986   4.921  0.0495  0.2279  0.0636
    3TYR    SC1  558   0.502   4.857   4.675 -0.0747  0.1353 -0.0673
    3TYR    SC2  559   0.615   4.762   4.449 -0.1063 -0.2692  0.0778
    3TYR    SC3  560   0.347   4.795   4.462 -0.0955 -0.1541  0.0283
    1TYR     BB  561   5.731   4.353   4.604 -0.0088 -0.0751  0.0648
    1TYR    SC1  562   5.509   4.173   4.555 -0.2588 -0.1290 -0.0562
    1TYR    SC2  563   5.420   3.987   4.381  0.0720 -0.1907 -0.1693
    1TYR    SC3  564   5.316   4.000   4.630 -0.2040 -0.2905 -0.2741
    2GLN     BB  565   5.714   4.664   4.581 -0.0254  0.0578  0.0104
    2GLN    SC1  566   5.835   4.741   4.954 -0.1495 -0.1858  0.0283
    3TYR     BB  567   5.762   4.953   4.524 -0.0350  0.1000 -0.0850
    3TYR    SC1  568   5.683   5.226   4.571 -0.1075  0.0135  0.0332
    3TYR    SC2  569   5.574   5.442   4.691 -0.2622 -0.0916  0.0840
    3TYR    SC3  570   5.708   5.472   4.460 -0.3469  0.0491  0.0509
    1TYR     BB  571   0.629   5.826   4.919  0.1476 -0.2106 -0.2553
    1TYR    SC1  572   0.644   5.957   5.180 -0.2678 -0.4311 -0.0532
    1TYR    SC2  573   0.828   5.931   5.375 -0.2031  0.2147  0.0025
    1TYR    SC3  574   0.630   6.111   5.401 -0.5353 -0.0862 -0.2961
    2GLN     BB  575   0.886   5.855   4.774 -0.1668 -0.0827 -0.1656
    2GLN    SC1  576   1.193   6.044   4.921  0.1455 -0.3109  0.1427
    3TYR     BB  577   0.920   5.705   4.550 -0.0874  0.1486  0.0037
    3TYR    SC1  578   0.672   5.503   4.495  0.0260  0.1193 -0.1249
    3TYR    SC2  579   0.421   5.503   4.394  0.0345 -0.0119 -0.1477
    3TYR    SC3  580   0.547   5.269   4.445  0.0311  0.0492  0.1700
    1TYR     BB  581   5.517   3.958   2.856  0.0671  0.1303  0.2412
    1TYR    SC1  582   5.357   3.708   2.762 -0.1432  0.1516 -0.2683
    1TYR    SC2  583   5.222   3.475   2.764  0.2091 -0.0756  0.2771
    1TYR    SC3  584   5.329   3.567   2.535 -0.2704 -0.2291 -0.0284
    2GLN     BB  585   5.828   3.906   2.772  0.0408  0.2853 -0.1873
    2GLN    SC1  586   5.915   4.233   2.631 -0.0758  0.0295  0.2752
    3TYR     BB  587   5.977   3.660   2.890 -0.0768 -0.1860  0.1520
    3TYR    SC1  588   6.100   3.676   3.162  0.0231  0.0368 -0.0442
    3TYR    SC2  589   6.327   3.751   3.289 -0.0373  0.1544 -0.0038
    3TYR    SC3  590   6.092   3.750   3.422 -0.0781  0.1385 -0.0758
    1TYR     BB  591   6.672   3.490   4.253  0.2758 -0.0021 -0.3288
    1TYR    SC1  592   6.498   3.292   4.157 -0.0182 -0.1357  0.2671
    1TYR    SC2  593   6.478   3.121   3.949 -0.1487  0.1105  0.0708
    1TYR    SC3  594   6.257   3.240   4.048 -0.0589  0.1730  0.1985
    2GLN     BB  595   6.914   3.259   4.404  0.0998  0.0501  0.0985
    2GLN    SC1  596   6.805   2.888   4.296 -0.3257 -0.0872 -0.0418
    3TYR     BB  597   7.124   3.319   4.596  0.0528 -0.0701 -0.0831
    3TYR    SC1  598   7.208   2.960   4.661 -0.2149 -0.1688  0.2992
    3TYR    SC2  599   7.145   2.698   4.683 -0.0195 -0.2412  0.0590
    3TYR    SC3  600   7.305   2.781   4.481  0.0767  0.0355  0.2432
    1TYR     BB  601   0.130   3.345   2.807 -0.0276  0.0134  0.1301
    1TYR    SC1  602   0.022   3.524   2.577 -0.0625  0.1873 -0.2066
    1TYR    SC2  603  -0.191   3.681   2.524 -0.0158  0.2414 -0.2346
    1TYR    SC3  604  -0.141   3.466   2.370 -0.2641  0.0111 -0.0037
    2GLN     BB  605   0.415   3.233   2.790 -0.1295 -0.1096 -0.0399
    2GLN    SC1  606   0.342   3.028   2.443 -0.0271 -0.2040  0.3422
    3TYR     BB  607   0.691   3.370   2.804  0.0439 -0.2429  0.0841
    3TYR    SC1  608   0.883   3.140   2.831 -0.0901 -0.1982  0.0443
    3TYR    SC2  609   0.994   2.902   2.769 -0.0111 -0.1073 -0.1736
    3TYR    SC3  610   1.032   3.008   3.014  0.1475 -0.2105 -0.1512
    1TYR     BB  611   3.756   1.600   3.123  0.0374  0.0649  0.3205
    1TYR    SC1  612   3.794   1.358   2.936 -0.3347  0.0326 -0.0183
    1TYR    SC2  613   3.683   1.132   2.838  0.1183 -0.4283  0.4604
    1TYR    SC3  614   3.869   1.264   2.694 -0.0216 -0.4550  0.2493
    2GLN     BB  615   3.930   1.877   3.017 -0.0884  0.1354 -0.1505
    2GLN    SC1  616   3.761   1.790   2.660  0.1523  0.2348 -0.1058
    3TYR     BB  617   4.219   1.915   3.037 -0.1670  0.0967  0.0276
    3TYR    SC1  618   4.369   1.829   3.311  0.1052 -0.1978  0.0844
    3TYR    SC2  619   4.381   1.685   3.539  0.1680  0.4594  0.5350
    3TYR    SC3  620   4.584   1.850   3.473  0.2306  0.1663 -0.1129
    1TYR     BB  621   0.760   4.010   3.114 -0.0628  0.1133 -0.0712
    1TYR    SC1  622   0.730   4.109   2.853  0.1513 -0.0557 -0.2843
    1TYR    SC2  623   0.734   4.361   2.755 -0.2184  0.1470  0.1776
    1TYR    SC3  624   0.714   4.152   2.586 -0.0033  0.4241 -0.2110
    2GLN     BB  625   0.975   3.756   3.089  0.2846 -0.2044  0.2410
    2GLN    SC1  626   1.335   3.905   2.992 -0.0926  0.1145 -0.0799
    3TYR     BB  627   0.997   3.498   3.159 -0.0361  0.2241 -0.2672
    3TYR    SC1  628   1.122   3.382   3.416  0.2216 -0.4308  0.1439
    3TYR    SC2  629   1.350   3.347   3.554  0.1561 -0.1455  0.3337
    3TYR    SC3  630   1.114   3.277   3.664  0.1166 -0.0499  0.3112
    1TYR     BB  631   5.376   7.021   3.576 -0.1506  0.0437 -0.1695
    1TYR    SC1  632   5.584   7.176   3.798 -0.0249  0.2940 -0.0713
    1TYR    SC2  633   5.852   7.208   3.815 -0.0054  0.1107 -0.0035
    1TYR    SC3  634   5.690   7.325   3.996  0.0593 -0.1100  0.2039
    2GLN     BB  635   5.307   7.156   3.342  0.3562  0.0297 -0.0926
    2GLN    SC1  636   5.191   7.440   3.583  0.2507  0.2656  0.1697
    3TYR     BB  637   5.215   7.163   3.099  0.1872  0.1019 -0.0657
    3TYR    SC1  638   5.381   7.156   2.858 -0.0748  0.0182 -0.1258
    3TYR    SC2  639   5.549   6.977   2.745 -0.3094 -0.2172 -0.1151
    3TYR    SC3  640   5.648   7.196   2.870 -0.0220 -0.2768 -0.2282
    1TYR     BB  641   5.135   4.325   2.945  0.1013  0.0867 -0.0467
    1TYR    SC1  642   5.414   4.514   3.036  0.1224 -0.1231  0.0329
    1TYR    SC2  643   5.567   4.657   3.209 -0.1386 -0.0217  0.1886
    1TYR    SC3  644   5.669   4.572   2.974  0.0959  0.2106  0.2029
    2GLN     BB  645   5.114   4.184   2.723  0.1670  0.3249 -0.3723
    2GLN    SC1  646   5.425   4.353   2.551  0.2529  0.2849 -0.2240
    3TYR     BB  647   5.022   4.018   2.504  0.0190  0.2764 -0.1524
    3TYR    SC1  648   4.970   4.094   2.260  0.2758 -0.4351 -0.0118
    3TYR    SC2  649   5.085   4.239   2.062 -0.3789 -0.0214 -0.1275
    3TYR    SC3  650   4.880   4.072   2.006 -0.3794 -0.1284  0.1680
    1TYR     BB  651  -0.100   5.252   4.004  0.2203 -0.1994 -0.0144
    1TYR    SC1  652  -0.080   5.035   3.811 -0.1654  0.1784  0.0742
    1TYR    SC2  653   0.007   4.943   3.572  0.1288 -0.0093  0.2453
    1TYR    SC3  654  -0.231   4.861   3.670 -0.0843  0.2164 -0.0612
    2GLN     BB  655  -0.111   5.280   4.366  0.3644  0.3165  0.2583
    2GLN    SC1  656  -0.362   5.572   4.306 -0.3030  0.1786 -0.0922
    3TYR     BB  657   0.055   5.181   4.590 -0.2759  0.0516 -0.1800
    3TYR    SC1  658  -0.081   4.958   4.740 -0.0171 -0.0437  0.0970
    3TYR    SC2  659  -0.264   4.760   4.716  0.0145 -0.0585 -0.0356
    3TYR    SC3  660  -0.029   4.713   4.842 -0.1253 -0.0013  0.2589
    1TYR     BB  661   5.791   3.784   4.676 -0.0827 -0.0166  0.1043
    1TYR    SC1  662   5.959   3.606   4.499 -0.0222 -0.0025  0.0170
    1TYR    SC2  663   6.167   3.538   4.341  0.1637  0.1380  0.1935
    1TYR    SC3  664   5.967   3.361   4.387  0.2160  0.0196 -0.0193
    2GLN     BB  665   5.923   3.883   4.970 -0.2976  0.0389 -0.0568
    2GLN    SC1  666   5.749   4.177   5.044 -0.0788  0.3666 -0.1562
    3TYR     BB  667   6.198   3.913   5.119 -0.0601 -0.0040 -0.0155
    3TYR    SC1  668   6.411   3.689   5.205  0.1337 -0.1468 -0.0963
    3TYR    SC2  669   6.553   3.463   5.163  0.1713 -0.1621  0.0985
    3TYR    SC3  670   6.581   3.598   5.395  0.1174  0.0208  0.0013
    1TYR     BB  671   4.341   3.654   3.702  0.2112  0.0176  0.0996
    1TYR    SC1  672   4.447   3.385   3.789 -0.0608 -0.1347  0.0260
    1TYR    SC2  673   4.548   3.244   3.996  0.1856 -0.1691 -0.1133
    1TYR    SC3  674   4.458   3.115   3.777  0.1200 -0.1237 -0.1132
    2GLN     BB  675   4.313   3.785   3.433  0.1942  0.2509  0.0786
    2GLN    SC1  676   4.645   3.665   3.316 -0.0207  0.3062  0.2491
    3TYR     BB  677   4.218   3.904   3.207  0.0690 -0.1311  0.1965
    3TYR    SC1  678   4.203   4.200   3.224 -0.2893  0.1456  0.0991
    3TYR    SC2  679   4.116   4.434   3.324  0.1277  0.3171  0.0891
    3TYR    SC3  680   4.279   4.433   3.109  0.5105  0.0564  0.3654
    1TYR     BB  681   4.077   3.943   2.464 -0.0275 -0.0399 -0.2785
    1TYR    SC1  682   4.131   4.242   2.375 -0.0758 -0.2003 -0.1620
    1TYR    SC2  683   4.303   4.404   2.505  0.0338 -0.2541 -0.2397
    1TYR    SC3  684   4.276   4.424   2.236 -0.2749 -0.0650 -0.1995
    2GLN     BB  685   4.126   3.695   2.684  0.0673 -0.1070 -0.2550
    2GLN    SC1  686   3.805   3.794   2.838  0.2393  0.2088 -0.3760
    3TYR     BB  687   4.339   3.586   2.789  0.2038  0.0419 -0.1174
    3TYR    SC1  688   4.306   3.439   3.065 -0.2524  0.1095  0.1637
    3TYR    SC2  689   4.074   3.325   3.143 -0.1997  0.0182  0.1893
    3TYR    SC3  690   4.305   3.253   3.262 -0.1252 -0.0791 -0.0094
    1TYR     BB  691   2.679   3.016   2.960 -0.1244 -0.4405 -0.2738
    1TYR    SC1  692   2.895   3.086   3.155 -0.3915  0.1260  0.0408
    1TYR    SC2  693   3.108   3.219   3.255 -0.1458  0.0818 -0.3973
    1TYR    SC3  694   3.042   2.977   3.354 -0.0313  0.1227 -0.2164
    2GLN     BB  695   2.488   2.731   3.086  0.0741 -0.0699  0.3822
    2GLN    SC1  696   2.416   2.571   2.711 -0.0786 -0.3134 -0.0729
    3TYR     BB  697   2.706   2.525   3.212 -0.1314  0.0426 -0.0734
    3TYR    SC1  698   3.022   2.574   3.174  0.3320 -0.1023  0.0644
    3TYR    SC2  699   3.278   2.655   3.203  0.2372  0.2942 -0.1247
    3TYR    SC3  700   3.129   2.748   2.997  0.0164 -0.1412 -0.1759
    1TYR     BB  701   2.926   4.091   3.053 -0.3074 -0.0655 -0.0501
    1TYR    SC1  702   3.108   3.852   3.008  0.1531 -0.3622  0.1959
    1TYR    SC2  703   3.210   3.601   3.013  0.0613 -0.4024  0.1129
    1TYR    SC3  704   3.344   3.800   2.889  0.1211 -0.4163  0.1549
    2GLN     BB  705   2.743   4.100   3.270  0.1334  0.0211 -0.0171
    2GLN    SC1  706   2.562   4.427   3.147 -0.2737 -0.0289  0.1399
    3TYR     BB  707   2.677   4.052   3.541 -0.2182 -0.0293  0.3474
    3TYR    SC1  708   2.701   4.136   3.806 -0.0792 -0.0375 -0.1250
    3TYR    SC2  709   2.784   4.302   4.002  0.0396 -0.1220 -0.1025
    3TYR    SC3  710   2.542   4.184   4.018 -0.0146 -0.0092 -0.0825
    1TYR     BB  711   0.661   5.561   3.980  0.2948 -0.2869  0.0863
    1TYR    SC1  712   0.925   5.708   4.017 -0.3917  0.2101  0.0249
    1TYR    SC2  713   1.109   5.842   3.873  0.1983 -0.2637  0.2777
    1TYR    SC3  714   1.047   5.925   4.123 -0.4119  0.2355 -0.0038
    2GLN     BB  715   0.510   5.298   3.908  0.2132 -0.2746 -0.3617
    2GLN    SC1  716   0.283   5.398   3.632 -0.0905  0.1050  0.3174
    3TYR     BB  717   0.373   4.993   3.989 -0.3073  0.3793  0.0194
    3TYR    SC1  718   0.629   4.831   4.037  0.2233  0.1674 -0.0001
    3TYR    SC2  719   0.862   4.795   3.905  0.3792 -0.1787  0.3458
    3TYR    SC3  720   0.766   4.600   4.065 -0.0172  0.0636  0.4211
    1TYR     BB  721   5.495   2.509   4.719 -0.0454  0.2327 -0.4353
    1TYR    SC1  722   5.744   2.620   4.594  0.1118  0.2255  0.1702
    1TYR    SC2  723   6.004   2.637   4.667  0.2568 -0.1239 -0.2184
    1TYR    SC3  724   5.911   2.784   4.460  0.1687 -0.0744 -0.1445
    2GLN     BB  725   5.398   2.261   4.529  0.1218 -0.0318 -0.0299
    2GLN    SC1  726   5.656   2.285   4.252  0.2165  0.1944  0.1287
    3TYR     BB  727   5.152   2.121   4.551  0.0067  0.1707  0.1873
    3TYR    SC1  728   4.983   2.261   4.323 -0.2567 -0.1470  0.1437
    3TYR    SC2  729   4.770   2.350   4.183 -0.1388  0.0466  0.0830
    3TYR    SC3  730   5.021   2.398   4.093 -0.0636  0.0709  0.2984
    1TYR     BB  731   7.212   4.917   3.545  0.1226  0.1323 -0.0427
    1TYR    SC1  732   7.134   5.192   3.480  0.1838  0.0562  0.1449
    1TYR    SC2  733   7.151   5.451   3.554  0.3464  0.1251 -0.1174
    1TYR    SC3  734   7.149   5.385   3.291  0.0142 -0.1237 -0.0602
    2GLN     BB  735   7.399   4.693   3.640 -0.1323  0.1227 -0.0510
    2GLN    SC1  736   7.743   4.882   3.784  0.0480 -0.2690  0.1638
    3TYR     BB  737   7.363   4.447   3.724 -0.1854  0.0199  0.1541
    3TYR    SC1  738   7.316   4.267   3.952  0.0529 -0.3205  0.1212
    3TYR    SC2  739   7.259   4.277   4.216  0.0070 -0.3901  0.1145
    3TYR    SC3  740   7.338   4.044   4.104  0.1353 -0.3356  0.0882
    1TYR     BB  741   4.272   2.319   3.496 -0.0198 -0.0949 -0.1286
    1TYR    SC1  742   4.506   2.271   3.269  0.2356 -0.3327  0.0329
    1TYR    SC2  743   4.775   2.245   3.263  0.2686 -0.0187 -0.1072
    1TYR    SC3  744   4.642   2.330   3.043  0.1073  0.2515  0.0881
    2GLN     BB  745   4.004   2.254   3.391  0.2517  0.1269  0.1237
    2GLN    SC1  746   4.004   1.940   3.561  0.0142  0.0590  0.0409
    3TYR     BB  747   3.813   2.362   3.210 -0.1900  0.0734 -0.3696
    3TYR    SC1  748   3.587   2.244   3.071 -0.1803  0.2372  0.0205
    3TYR    SC2  749   3.325   2.246   3.006 -0.2559 -0.1710  0.2684
    3TYR    SC3  750   3.468   2.018   2.985  0.1299  0.0819 -0.0184
    1TYR     BB  751   0.770   5.322   4.926  0.0072  0.0454  0.1678
    1TYR    SC1  752   0.924   5.446   5.139  0.2922 -0.2509 -0.2394
    1TYR    SC2  753   1.074   5.422   5.363  0.2094 -0.2255 -0.1806
    1TYR    SC3  754   1.131   5.615   5.182  0.2836 -0.2533 -0.1874
    2GLN     BB  755   0.952   5.127   4.784 -0.0559  0.1184  0.1708
    2GLN    SC1  756   1.247   5.348   4.714 -0.1092  0.1060  0.2197
    3TYR     BB  757   0.993   4.896   4.770  0.1805 -0.1768 -0.3605
    3TYR    SC1  758   1.054   4.678   4.586  0.0738  0.2590  0.0173
    3TYR    SC2  759   1.184   4.646   4.351 -0.1663 -0.1701 -0.0716
    3TYR    SC3  760   1.002   4.463   4.430 -0.2578  0.0852  0.3482
    1TYR     BB  761   4.300   2.988   2.813  0.0140  0.0792  0.3513
    1TYR    SC1  762   4.253   2.628   2.774  0.2228 -0.1480  0.4279
    1TYR    SC2  763   4.157   2.457   2.958 -0.1393 -0.0962  0.2953
    1TYR    SC3  764   4.306   2.364   2.754  0.0709 -0.1834  0.4834
    2GLN     BB  765   4.067   3.131   2.720  0.2125 -0.2006 -0.1044
    2GLN    SC1  766   4.114   3.087   2.345  0.1125 -0.0689 -0.2945
    3TYR     BB  767   3.847   3.296   2.709 -0.1297  0.2490  0.1444
    3TYR    SC1  768   3.740   3.434   2.446  0.1175 -0.2598 -0.2157
    3TYR    SC2  769   3.548   3.403   2.259 -0.2085  0.2299  0.0092
    3TYR    SC3  770   3.655   3.647   2.301  0.3315  0.0055  0.0330
    1TYR     BB  771   0.678   3.354   4.352  0.1862  0.0730  0.0557
    1TYR    SC1  772   0.418   3.437   4.452  0.0673 -0.3875  0.1464
    1TYR    SC2  773   0.157   3.426   4.383  0.1253 -0.3571 -0.0874
    1TYR    SC3  774   0.229   3.410   4.642 -0.1405  0.1108  0.0292
    2GLN     BB  775   0.809   3.356   4.077  0.2279 -0.4252 -0.0588
    2GLN    SC1  776   0.867   2.995   3.965  0.1167  0.2979  0.0594
    3TYR     BB  777   0.609   3.467   3.830  0.1532  0.0407 -0.0982
    3TYR    SC1  778   0.311   3.511   3.914  0.0138 -0.1127 -0.3070
    3TYR    SC2  779   0.131   3.612   3.738 -0.1297 -0.1519 -0.1858
    3TYR    SC3  780   0.047   3.456   3.942  0.0003  0.1062  0.0739
    1TYR     BB  781   3.463   2.011   3.484 -0.0027 -0.1740 -0.2038
    1TYR    SC1  782   3.544   1.771   3.645 -0.2347  0.5094  0.3646
    1TYR    SC2  783   3.408   1.604   3.809 -0.1639  0.2870  0.2025
    1TYR    SC3  784   3.658   1.685   3.873  0.0028 -0.0800  0.0480
    2GLN     BB  785   3.161   2.211   3.494 -0.3298  0.1110  0.0782
    2GLN    SC1  786   2.867   2.082   3.215 -0.0482  0.0754 -0.0879
    3TYR     BB  787   2.974   2.267   3.692 -0.2152 -0.3703  0.0702
    3TYR    SC1  788   2.712   2.156   3.709 -0.1203 -0.1276 -0.4051
    3TYR    SC2  789   2.472   2.220   3.603 -0.2526  0.0647 -0.0127
    3TYR    SC3  790   2.486   2.094   3.842  0.0394 -0.1349 -0.1264
    1TYR     BB  791   0.490   6.268   4.803 -0.1960 -0.1263  0.1479
    1TYR    SC1  792   0.657   6.389   5.011 -0.0215 -0.1347  0.4124
    1TYR    SC2  793   0.691   6.554   5.222 -0.1269  0.3264  0.0899
    1TYR    SC3  794   0.905   6.468   5.082 -0.0832  0.3694  0.1300
    2GLN     BB  795   0.644   6.126   4.471 -0.0494  0.2318 -0.1237
    2GLN    SC1  796   1.001   6.327   4.568 -0.1725 -0.0882  0.0601
    3TYR     BB  797   0.521   5.972   4.217 -0.1525 -0.0544 -0.1216
    3TYR    SC1  798   0.243   5.906   4.180  0.1725 -0.1884  0.0515
    3TYR    SC2  799   0.103   5.681   4.132  0.1502 -0.2303  0.2968
    3TYR    SC3  800  -0.022   5.920   4.130  0.2400 -0.1659 -0.3424
    1TYR     BB  801   7.142   4.557   4.634  0.0398  0.0181 -0.1169
    1TYR    SC1  802   7.385   4.338   4.659  0.3390  0.1844 -0.1372
    1TYR    SC2  803   7.512   4.117   4.572 -0.0938 -0.1251 -0.0175
    1TYR    SC3  804   7.430   4.133   4.828  0.2058  0.3166  0.0631
    2GLN     BB  805   6.912   4.427   4.547  0.1327  0.4526  0.0528
    2GLN    SC1  806   6.704   4.658   4.818 -0.0322  0.3949 -0.0299
    3TYR     BB  807   6.673   4.369   4.347 -0.1642  0.2482  0.1075
    3TYR    SC1  808   6.725   4.202   4.132  0.1130  0.2475 -0.0638
    3TYR    SC2  809   6.698   4.207   3.864  0.1229  0.1398 -0.0674
    3TYR    SC3  810   6.925   4.113   3.975  0.0996  0.1386 -0.0202
    1TYR     BB  811   1.355   3.368   2.792  0.0667  0.0242  0.3639
    1TYR    SC1  812   1.215   3.587   2.580  0.2392  0.0284  0.3429
    1TYR    SC2  813   1.027   3.782   2.588  0.2215  0.0244  0.1175
    1TYR    SC3  814   1.191   3.761   2.375  0.2187 -0.2131  0.1340
    2GLN     BB  815   1.584   3.419   2.995  0.0600 -0.1923  0.0911
    2GLN    SC1  816   1.855   3.682   3.027 -0.3621 -0.0918 -0.0999
    3TYR     BB  817   1.686   3.271   3.255  0.1673  0.0436 -0.1100
    3TYR    SC1  818   2.032   3.255   3.252  0.0826  0.0722  0.0374
    3TYR    SC2  819   2.292   3.199   3.208  0.0102 -0.0803 -0.2325
    3TYR    SC3  820   2.196   3.210   3.461  0.2478 -0.1556 -0.1353
    1TYR     BB  821   3.200   3.008   4.348 -0.1785 -0.1840 -0.0751
    1TYR    SC1  822   3.240   2.718   4.492 -0.0407 -0.1445 -0.0746
    1TYR    SC2  823   3.372   2.484   4.470  0.0777 -0.0683 -0.1930
    1TYR    SC3  824   3.250   2.549   4.702  0.0350 -0.2507 -0.1622
    2GLN     BB  825   2.901   2.991   4.263  0.1273 -0.0532  0.0512
    2GLN    SC1  826   2.684   2.917   4.587  0.2635  0.0231 -0.0969
    3TYR     BB  827   2.774   3.237   4.207  0.2562 -0.2154  0.1756
    3TYR    SC1  828   2.496   3.184   4.063 -0.2061 -0.0834  0.2939
    3TYR    SC2  829   2.319   3.268   3.878 -0.0197  0.1356  0.2075
    3TYR    SC3  830   2.348   3.004   3.928 -0.0845  0.0729 -0.0644
    1TYR     BB  831   5.657   3.116   4.645 -0.0477 -0.0550 -0.1275
    1TYR    SC1  832   5.543   3.292   4.428  0.1338 -0.1187  0.3322
    1TYR    SC2  833   5.565   3.517   4.279  0.1768 -0.3775 -0.0691
    1TYR    SC3  834   5.330   3.456   4.398  0.2164 -0.0335  0.2020
    2GLN     BB  835   5.489   3.055   4.856 -0.0689  0.2884 -0.0409
    2GLN    SC1  836   5.172   3.086   4.700  0.0758  0.2553 -0.1562
    3TYR     BB  837   5.436   2.808   5.131  0.0716 -0.1785 -0.0092
    3TYR    SC1  838   5.237   2.576   5.205 -0.1208  0.0546  0.2137
    3TYR    SC2  839   5.096   2.383   5.332 -0.4565  0.2578  0.1629
    3TYR    SC3  840   5.030   2.455   5.080  0.2367 -0.1843 -0.1854
    1TYR     BB  841   0.071   2.543   3.459  0.0848 -0.3955  0.3558
    1TYR    SC1  842   0.301   2.598   3.264 -0.1579  0.1068 -0.3196
    1TYR    SC2  843   0.553   2.504   3.236 -0.2101 -0.0950 -0.1349
    1TYR    SC3  844   0.505   2.769   3.211  0.0111 -0.0606 -0.2217
    2GLN     BB  845   0.052   2.840   3.604  0.0077 -0.1777 -0.0739
    2GLN    SC1  846  -0.116   2.669   3.889  0.0184  0.1352  0.0022
    3TYR     BB  847   0.190   3.098   3.616  0.0854 -0.1431  0.1089
    3TYR    SC1  848   0.439   3.173   3.427 -0.0363 -0.1957 -0.2417
    3TYR    SC2  849   0.651   3.182   3.260  0.2169 -0.1063  0.0714
    3TYR    SC3  850   0.683   3.096   3.513 -0.1409 -0.1570  0.1056
    1TYR     BB  851   5.090   1.591   4.457  0.1557 -0.0841 -0.0713
    1TYR    SC1  852   4.821   1.599   4.620  0.0651 -0.0616  0.2875
    1TYR    SC2  853   4.574   1.492   4.596  0.1356 -0.1414 -0.2403
    1TYR    SC3  854   4.672   1.553   4.840 -0.3674 -0.1814 -0.0127
    2GLN     BB  855   4.999   1.752   4.166  0.0122 -0.1095 -0.1956
    2GLN    SC1  856   5.317   1.980   4.131 -0.0108 -0.0534 -0.1647
    3TYR     BB  857   4.885   1.760   3.929  0.2217 -0.0524  0.0936
    3TYR    SC1  858   4.873   2.038   3.751 -0.0720 -0.0428 -0.0792
    3TYR    SC2  859   4.990   2.261   3.652 -0.1695  0.0418 -0.0064
    3TYR    SC3  860   4.726   2.259   3.708 -0.1396 -0.0412  0.1411
    1TYR     BB  861   6.167   3.367   5.487  0.0337 -0.1052  0.0886
    1TYR    SC1  862   6.089   3.357   5.173 -0.0721 -0.4542 -0.1600
    1TYR    SC2  863   6.134   3.431   4.918 -0.0088  0.0168 -0.0240
    1TYR    SC3  864   5.885   3.360   4.995 -0.1417  0.3613 -0.1118
    2GLN     BB  865   6.120   3.568   5.660 -0.1044 -0.2081 -0.0483
    2GLN    SC1  866   5.847   3.498   5.916  0.1205  0.0132  0.0669
    3TYR     BB  867   6.220   3.859   5.650  0.2362 -0.2325 -0.0399
    3TYR    SC1  868   6.138   4.195   5.608  0.0582  0.1240 -0.3102
    3TYR    SC2  869   6.055   4.442   5.680 -0.1605 -0.0500  0.0772
    3TYR    SC3  870   5.911   4.297   5.502  0.0088  0.1202 -0.2093
    1TYR     BB  871  -0.106   4.017   4.156  0.1008  0.0827 -0.2880
    1TYR    SC1  872   0.127   3.865   4.185 -0.0462 -0.0647  0.0687
    1TYR    SC2  873   0.389   3.857   4.121 -0.0198  0.2208  0.1238
    1TYR    SC3  874   0.313   3.859   4.380 -0.0794  0.1039  0.1080
    2GLN     BB  875  -0.326   3.877   3.943  0.1936 -0.1317  0.0659
    2GLN    SC1  876  -0.631   4.065   4.060 -0.2311  0.0058  0.2868
    3TYR     BB  877  -0.409   3.637   3.764 -0.0264  0.1554  0.0103
    3TYR    SC1  878  -0.441   3.355   3.838  0.0510 -0.0917 -0.1434
    3TYR    SC2  879  -0.301   3.127   3.795 -0.0653 -0.1177 -0.4147
    3TYR    SC3  880  -0.568   3.116   3.839 -0.0158 -0.0565 -0.0596
    1TYR     BB  881   5.929   2.866   5.104  0.1240 -0.0805 -0.1726
    1TYR    SC1  882   5.775   3.027   5.312  0.4245  0.2728  0.1135
    1TYR    SC2  883   5.662   3.253   5.408 -0.2447 -0.0247  0.0943
    1TYR    SC3  884   5.673   3.031   5.562  0.5828  0.0416  0.1863
    2GLN     BB  885   6.163   2.864   5.142 -0.0646  0.1452  0.0598
    2GLN    SC1  886   6.205   2.483   5.099  0.2190  0.0445  0.0401
    3TYR     BB  887   6.410   2.991   5.139  0.2510 -0.1318  0.2591
    3TYR    SC1  888   6.649   3.057   5.030 -0.1951 -0.1041  0.0396
    3TYR    SC2  889   6.858   2.983   4.874  0.0646  0.2288  0.2130
    3TYR    SC3  890   6.820   3.244   4.934 -0.2254  0.1413  0.4391
    1TYR     BB  891   0.772   3.478   4.787 -0.2549 -0.1390 -0.0936
    1TYR    SC1  892   0.603   3.318   4.969  0.0753  0.3974  0.1900
    1TYR    SC2  893   0.639   3.248   5.227  0.0606  0.0248  0.0998
    1TYR    SC3  894   0.389   3.280   5.129  0.0512 -0.1875  0.0497
    2GLN     BB  895   1.084   3.517   4.919  0.3060  0.1347  0.0133
    2GLN    SC1  896   1.096   3.362   5.266 -0.1089 -0.0264 -0.3039
    3TYR     BB  897   1.384   3.755   4.838 -0.2520  0.0337 -0.2175
    3TYR    SC1  898   1.620   3.877   4.851  0.0408 -0.0977 -0.1866
    3TYR    SC2  899   1.885   3.918   4.815  0.0793 -0.1909 -0.0213
    3TYR    SC3  900   1.756   4.043   5.016 -0.0262 -0.0638 -0.1657
    1TYR     BB  901   4.089   4.593   3.799 -0.2456  0.0018 -0.1984
    1TYR    SC1  902   3.948   4.815   3.894 -0.1506  0.1361 -0.2056
    1TYR    SC2  903   3.723   4.965   3.889 -0.2542  0.0062  0.1318
    1TYR    SC3  904   3.910   5.006   4.079 -0.2066 -0.1839  0.1298
    2GLN     BB  905   4.359   4.592   4.072 -0.0908 -0.2553  0.3354
    2GLN    SC1  906   4.174   4.685   4.399 -0.1267 -0.1977  0.3139
    3TYR     BB  907   4.622   4.557   4.069  0.1172 -0.2440  0.0116
    3TYR    SC1  908   4.784   4.321   3.969 -0.2012  0.0877 -0.7256
    3TYR    SC2  909   4.879   4.073   3.920  0.0437  0.0568 -0.1759
    3TYR    SC3  910   4.935   4.274   3.750  0.4503 -0.1245 -0.2705
    1TYR     BB  911   4.659   4.944   2.509 -0.1393 -0.0700 -0.2069
    1TYR    SC1  912   4.422   4.887   2.685 -0.1464  0.0707 -0.0905
    1TYR    SC2  913   4.193   4.783   2.781 -0.2855  0.3062 -0.1563
    1TYR    SC3  914   4.330   4.965   2.926  0.1519 -0.2091  0.1248
    2GLN     BB  915   4.908   4.973   2.686  0.0707  0.1015 -0.0281
    2GLN    SC1  916   4.805   5.270   2.931  0.3698  0.0175  0.2022
    3TYR     BB  917   5.087   4.827   2.820 -0.2197  0.3763  0.0955
    3TYR    SC1  918   5.166   4.973   3.101 -0.4711  0.0517 -0.0533
    3TYR    SC2  919   5.381   5.094   3.211 -0.1441 -0.2846 -0.2898
    3TYR    SC3  920   5.213   4.950   3.366 -0.1296 -0.1231 -0.1209
    1TYR     BB  921   3.632   0.398   3.605 -0.0001 -0.0539 -0.0574
    1TYR    SC1  922   3.820   0.351   3.850  0.0932 -0.1604 -0.1729
    1TYR    SC2  923   3.817   0.200   4.075 -0.0407  0.1785  0.0632
    1TYR    SC3  924   4.049   0.310   3.988  0.0272 -0.0237 -0.0191
    2GLN     BB  925   3.407   0.586   3.634  0.1989  0.4258  0.3562
    2GLN    SC1  926   3.125   0.614   3.461 -0.1630 -0.2719 -0.2978
    3TYR     BB  927   3.398   0.875   3.782 -0.2446 -0.4973  0.2551
    3TYR    SC1  928   3.397   1.052   4.030  0.1956 -0.0212  0.0170
    3TYR    SC2  929   3.403   1.278   4.179 -0.2569  0.1541 -0.2027
    3TYR    SC3  930   3.414   1.036   4.298  0.0523  0.2843  0.0504
    1TYR     BB  931   3.659   2.965   4.788 -0.1370 -0.0189  0.1571
    1TYR    SC1  932   3.680   3.123   4.498  0.3136 -0.0294  0.0025
    1TYR    SC2  933   3.659   3.249   4.261 -0.0364 -0.0457  0.0184
    1TYR    SC3  934   3.634   3.389   4.490 -0.0348 -0.0827  0.0411
    2GLN     BB  935   3.847   2.655   4.704  0.2541 -0.0833  0.1449
    2GLN    SC1  936   3.904   2.639   5.093 -0.1226  0.1013 -0.1509
    3TYR     BB  937   3.937   2.634   4.445  0.1927  0.0164  0.1510
    3TYR    SC1  938   3.756   2.720   4.224  0.0627  0.1590 -0.0674
    3TYR    SC2  939   3.644   2.869   4.029 -0.1757  0.0889  0.0115
    3TYR    SC3  940   3.589   2.605   4.046 -0.2856  0.1252  0.2653
    1TYR     BB  941   6.678   5.420   3.575  0.0092 -0.4096 -0.1785
    1TYR    SC1  942   6.561   5.660   3.754  0.1427 -0.1160  0.0783
    1TYR    SC2  943   6.391   5.840   3.646  0.2066  0.0216  0.2024
    1TYR    SC3  944   6.612   5.924   3.777  0.1670 -0.1414  0.3799
    2GLN     BB  945   6.529   5.438   3.338 -0.1393 -0.0003 -0.3094
    2GLN    SC1  946   6.755   5.346   3.033 -0.0715  0.3733 -0.0185
    3TYR     BB  947   6.255   5.480   3.234 -0.0123 -0.1107  0.0875
    3TYR    SC1  948   6.141   5.780   3.272  0.2256 -0.0557 -0.1841
    3TYR    SC2  949   6.016   5.900   3.063 -0.0323 -0.0426 -0.0254
    3TYR    SC3  950   5.933   5.946   3.316  0.2900 -0.0431  0.0857
    1TYR     BB  951   0.844   4.399   3.526 -0.0190 -0.1407  0.3018
    1TYR    SC1  952   0.992   4.137   3.545 -0.2328  0.1432 -0.1907
    1TYR    SC2  953   0.975   3.875   3.609 -0.1218  0.1898  0.0437
    1TYR    SC3  954   1.200   3.972   3.496 -0.1986  0.1692 -0.1331
    2GLN     BB  955   0.587   4.446   3.379  0.0525  0.1442  0.2918
    2GLN    SC1  956   0.442   4.665   3.647 -0.0316 -0.2324 -0.0472
    3TYR     BB  957   0.508   4.544   3.143 -0.3486 -0.4503 -0.0633
    3TYR    SC1  958   0.433   4.842   3.068 -0.0770  0.0366 -0.0702
    3TYR    SC2  959   0.273   5.017   2.939 -0.0028 -0.0230 -0.2457
    3TYR    SC3  960   0.341   5.061   3.198 -0.2152  0.0573 -0.2012
    1TYR     BB  961   6.991   4.136   3.072  0.2973  0.1388 -0.0837
    1TYR    SC1  962   6.700   4.131   2.966  0.1140 -0.1469 -0.4454
    1TYR    SC2  963   6.431   4.151   2.936 -0.0466 -0.0007  0.5957
    1TYR    SC3  964   6.553   3.910   2.913 -0.1798 -0.0241 -0.1854
    2GLN     BB  965   7.078   3.829   3.100  0.2940 -0.2321 -0.1468
    2GLN    SC1  966   7.341   3.774   2.861  0.0751 -0.1177  0.0959
    3TYR     BB  967   6.874   3.680   3.264  0.2518 -0.4047 -0.0602
    3TYR    SC1  968   6.773   3.669   3.552  0.2818  0.2012  0.4150
    3TYR    SC2  969   6.748   3.479   3.742 -0.0509 -0.0560  0.1308
    3TYR    SC3  970   6.726   3.740   3.809 -0.4097 -0.1469  0.4134
    1TYR     BB  971  -0.108   3.409   3.394  0.1739  0.0114 -0.2798
    1TYR    SC1  972  -0.072   3.147   3.219 -0.1093 -0.3924  0.1107
    1TYR    SC2  973  -0.113   2.947   3.041  0.0952 -0.2657 -0.0852
    1TYR    SC3  974   0.138   3.007   3.123  0.1229  0.2998 -0.5070
    2GLN     BB  975  -0.189   3.632   3.206  0.0479 -0.0633  0.2026
    2GLN    SC1  976  -0.568   3.668   3.294  0.0959  0.4258  0.0041
    3TYR     BB  977  -0.114   3.712   2.998 -0.1510 -0.1155 -0.0871
    3TYR    SC1  978  -0.257   3.987   2.918  0.0745  0.1561  0.1868
    3TYR    SC2  979  -0.324   4.120   2.692  0.1592 -0.2067 -0.0619
    3TYR    SC3  980  -0.266   4.257   2.917  0.0155  0.1616 -0.2393
    1TYR     BB  981   3.397   3.231   3.617 -0.0240 -0.3060 -0.1216
    1TYR    SC1  982   3.741   3.235   3.609 -0.2253 -0.1173  0.2224
    1TYR    SC2  983   3.815   3.351   3.841 -0.0655  0.0559  0.0888
    1TYR    SC3  984   3.999   3.306   3.647 -0.2619  0.2863 -0.1621
    2GLN     BB  985   3.272   3.149   3.835 -0.1749  0.1851 -0.0621
    2GLN    SC1  986   3.205   3.420   4.042  0.1753 -0.0772 -0.0931
    3TYR     BB  987   3.151   2.843   3.857  0.1032 -0.0031  0.2471
    3TYR    SC1  988   3.319   2.690   3.679  0.1617 -0.4435  0.2312
    3TYR    SC2  989   3.544   2.785   3.567 -0.1152 -0.1068 -0.0663
    3TYR    SC3  990   3.507   2.519   3.589  0.1006 -0.1807 -0.4660
    1TYR     BB  991   5.867   7.333   3.380 -0.0386 -0.1176  0.1420
    1TYR    SC1  992   6.148   7.287   3.426 -0.0435 -0.1711 -0.1972
    1TYR    SC2  993   6.385   7.171   3.371  0.1188  0.0469  0.0152
    1TYR    SC3  994   6.378   7.415   3.486 -0.2130  0.1649 -0.2360
    2GLN     BB  995   5.797   6.990   3.301  0.2951  0.3332  0.0024
    2GLN    SC1  996   6.039   6.915   3.000 -0.1357 -0.0670  0.0580
    3TYR     BB  997   5.554   6.766   3.162  0.2323 -0.0568  0.1585
    3TYR    SC1  998   5.300   6.675   3.068 -0.1714  0.3227  0.0075
    3TYR    SC2  999   5.040   6.681   3.141 -0.0748  0.0768  0.4091
    3TYR    SC3 1000   5.126   6.495   2.964 -0.2389  0.4315 -0.0709
   7.63548   7.63548   7.63548
