Generated by trjconv : Martini system from ../2_Creating_coordinates/TYR-LEU-TYR_aa.pdb t=   0.00000
  910
    1TYR     BB    1   2.364   5.613   4.665 -0.2524 -0.1890 -0.2853
    1TYR    SC1    2   2.314   5.371   4.503  0.1898 -0.0130 -0.0795
    1TYR    SC2    3   2.123   5.259   4.348 -0.0631  0.0418  0.1814
    1TYR    SC3    4   2.349   5.122   4.404  0.1205  0.0898 -0.3746
    2LEU     BB    5   2.680   5.619   4.744 -0.0706  0.2410 -0.0433
    2LEU    SC1    6   2.752   5.294   4.723  0.0877 -0.0666 -0.0603
    3TYR     BB    7   2.757   5.780   4.947  0.1862  0.1013 -0.1060
    3TYR    SC1    8   2.947   5.690   5.190 -0.0623 -0.0880  0.3508
    3TYR    SC2    9   2.970   5.532   5.408 -0.0546  0.0966  0.4870
    3TYR    SC3   10   3.175   5.692   5.335  0.0248 -0.1211  0.2156
    1TYR     BB   11   3.238   5.688   4.780 -0.2206  0.1820 -0.2209
    1TYR    SC1   12   3.125   5.904   4.619  0.0480 -0.1695 -0.1728
    1TYR    SC2   13   3.004   6.119   4.509  0.0862 -0.1663 -0.2084
    1TYR    SC3   14   2.981   5.877   4.393  0.0191 -0.1870 -0.1524
    2LEU     BB   15   3.198   5.404   4.566  0.0926  0.3034 -0.3327
    2LEU    SC1   16   3.495   5.246   4.588 -0.0441  0.3190 -0.0214
    3TYR     BB   17   3.016   5.215   4.372  0.2896 -0.3067  0.0235
    3TYR    SC1   18   3.168   4.983   4.237 -0.1359 -0.0281 -0.0621
    3TYR    SC2   19   3.319   4.908   4.027  0.1447  0.2168  0.0443
    3TYR    SC3   20   3.188   4.722   4.172  0.0749  0.0312 -0.2458
    1TYR     BB   21   3.689   3.297   5.143  0.1922 -0.1305  0.2263
    1TYR    SC1   22   3.971   3.210   5.121 -0.0560  0.0541  0.1484
    1TYR    SC2   23   4.226   3.271   5.056 -0.0905  0.0083 -0.0326
    1TYR    SC3   24   4.156   3.014   5.098 -0.0035  0.0575  0.4780
    2LEU     BB   25   3.433   3.207   5.105  0.1433  0.2921  0.2361
    2LEU    SC1   26   3.431   3.163   4.764  0.0344  0.2443  0.0740
    3TYR     BB   27   3.178   2.969   5.125 -0.3583 -0.2997  0.1009
    3TYR    SC1   28   3.141   2.790   4.841  0.0652 -0.1305  0.1996
    3TYR    SC2   29   3.037   2.701   4.608  0.1570 -0.0215  0.1154
    3TYR    SC3   30   2.895   2.679   4.837 -0.0125  0.0394  0.0192
    1TYR     BB   31   2.310   5.652   3.261  0.1574 -0.2020 -0.0050
    1TYR    SC1   32   2.445   5.509   3.055 -0.1014 -0.1367  0.3911
    1TYR    SC2   33   2.644   5.533   2.873  0.1270  0.1648  0.6633
    1TYR    SC3   34   2.504   5.302   2.893  0.1874  0.0782  0.2089
    2LEU     BB   35   2.296   5.528   3.561  0.1041 -0.2175 -0.1608
    2LEU    SC1   36   2.134   5.809   3.670  0.0400  0.1890  0.1927
    3TYR     BB   37   2.381   5.417   3.828 -0.1277  0.1947 -0.0774
    3TYR    SC1   38   2.578   5.520   3.996 -0.0735  0.0300 -0.0341
    3TYR    SC2   39   2.811   5.641   4.059  0.0329 -0.1323 -0.1049
    3TYR    SC3   40   2.644   5.559   4.254 -0.1504  0.3248 -0.0557
    1TYR     BB   41   3.640   2.650   3.912  0.1100  0.3042  0.1187
    1TYR    SC1   42   3.467   2.812   4.141 -0.1798 -0.1724  0.1815
    1TYR    SC2   43   3.410   3.026   4.296 -0.0074 -0.0612  0.0957
    1TYR    SC3   44   3.210   2.879   4.189 -0.1286  0.0903  0.1090
    2LEU     BB   45   3.766   2.382   3.989  0.1970 -0.2353  0.1754
    2LEU    SC1   46   3.922   2.246   3.749 -0.0366 -0.1735  0.0043
    3TYR     BB   47   3.788   2.263   4.243  0.2741 -0.0362 -0.3338
    3TYR    SC1   48   4.022   2.099   4.319 -0.0169  0.0279 -0.0156
    3TYR    SC2   49   4.201   1.984   4.486 -0.1572 -0.0457  0.0870
    3TYR    SC3   50   4.260   2.014   4.225 -0.0579 -0.2144  0.0887
    1TYR     BB   51   5.261   1.962   3.482  0.2042  0.1045 -0.3157
    1TYR    SC1   52   5.204   1.659   3.452 -0.0153  0.0711 -0.3104
    1TYR    SC2   53   5.279   1.446   3.598  0.1552  0.2951 -0.0592
    1TYR    SC3   54   5.025   1.462   3.505  0.0621  0.1123  0.1478
    2LEU     BB   55   5.338   1.957   3.798  0.1410  0.1308  0.2448
    2LEU    SC1   56   5.090   1.829   3.936 -0.0809  0.5254 -0.0192
    3TYR     BB   57   5.537   2.110   3.982  0.3834  0.2058 -0.2764
    3TYR    SC1   58   5.760   2.316   3.998  0.1182  0.0047 -0.0681
    3TYR    SC2   59   5.982   2.430   3.891  0.0021  0.0713 -0.2442
    3TYR    SC3   60   5.838   2.562   4.076  0.1315  0.0099 -0.0970
    1TYR     BB   61   2.388   4.795   5.341 -0.1323  0.1007  0.0704
    1TYR    SC1   62   2.202   4.612   5.145 -0.1278 -0.0670  0.2368
    1TYR    SC2   63   1.991   4.515   5.009  0.0257  0.0780 -0.1174
    1TYR    SC3   64   2.068   4.398   5.240 -0.2080 -0.2081 -0.1776
    2LEU     BB   65   2.697   4.749   5.201  0.2142  0.0345  0.2353
    2LEU    SC1   66   2.761   5.090   5.170 -0.1275  0.1186 -0.0299
    3TYR     BB   67   2.824   4.600   5.072  0.0183 -0.1109 -0.0571
    3TYR    SC1   68   3.006   4.660   4.845  0.1181 -0.0330 -0.1593
    3TYR    SC2   69   2.961   4.717   4.586 -0.1936  0.5258 -0.0012
    3TYR    SC3   70   3.115   4.880   4.735  0.1432  0.1078  0.1324
    1TYR     BB   71   5.387   4.494   3.034 -0.2237 -0.0414  0.5316
    1TYR    SC1   72   5.644   4.526   2.871  0.0823 -0.0651  0.2809
    1TYR    SC2   73   5.725   4.759   2.763 -0.0851 -0.0234  0.2402
    1TYR    SC3   74   5.906   4.585   2.861  0.0389  0.1429  0.3120
    2LEU     BB   75   5.305   4.833   3.159  0.0216  0.0197  0.0167
    2LEU    SC1   76   5.112   4.758   3.441 -0.0948  0.1360  0.1941
    3TYR     BB   77   5.474   5.052   3.165  0.4781 -0.0493 -0.0610
    3TYR    SC1   78   5.446   5.258   3.397 -0.3303 -0.1900  0.1028
    3TYR    SC2   79   5.312   5.265   3.631 -0.1616  0.0477  0.1980
    3TYR    SC3   80   5.511   5.442   3.584  0.0615 -0.2373  0.0269
    1TYR     BB   81   3.981   2.529   4.622  0.1427 -0.1947 -0.1214
    1TYR    SC1   82   4.069   2.316   4.863 -0.0689 -0.0860 -0.1244
    1TYR    SC2   83   4.088   2.057   4.933 -0.0148 -0.0434  0.0208
    1TYR    SC3   84   3.986   2.237   5.107 -0.0446  0.0340 -0.0761
    2LEU     BB   85   3.803   2.701   4.807  0.0243 -0.2349  0.1325
    2LEU    SC1   86   3.552   2.681   4.601  0.0368 -0.0161 -0.2809
    3TYR     BB   87   3.735   2.790   5.052  0.2437  0.1784  0.1557
    3TYR    SC1   88   3.933   2.625   5.303 -0.0602 -0.0245 -0.0678
    3TYR    SC2   89   4.128   2.746   5.445 -0.0068 -0.2082  0.0180
    3TYR    SC3   90   4.084   2.480   5.473 -0.4541 -0.1257  0.2144
    1TYR     BB   91   5.834   5.063   3.621  0.3538  0.3010  0.2302
    1TYR    SC1   92   5.864   5.196   3.907 -0.1164 -0.2203 -0.0413
    1TYR    SC2   93   6.061   5.346   4.016 -0.0354 -0.2699 -0.1176
    1TYR    SC3   94   5.816   5.453   3.976 -0.0134 -0.1961 -0.0574
    2LEU     BB   95   5.627   4.814   3.636  0.0676 -0.4897 -0.2440
    2LEU    SC1   96   5.713   4.697   3.322 -0.2786  0.0197 -0.0650
    3TYR     BB   97   5.618   4.753   3.935 -0.1178 -0.4018  0.1572
    3TYR    SC1   98   5.546   4.996   4.177  0.1187  0.2210  0.1860
    3TYR    SC2   99   5.416   5.207   4.071 -0.0813  0.0949  0.1754
    3TYR    SC3  100   5.404   5.160   4.337  0.1344  0.2126  0.2090
    1TYR     BB  101   4.851   2.994   2.645 -0.3835 -0.1980  0.0506
    1TYR    SC1  102   4.825   2.874   2.379 -0.3058  0.2968  0.0191
    1TYR    SC2  103   4.635   2.909   2.190 -0.0261  0.1385 -0.3074
    1TYR    SC3  104   4.792   2.690   2.184 -0.1377  0.0240  0.2384
    2LEU     BB  105   5.036   2.967   2.857 -0.4063 -0.1814 -0.3111
    2LEU    SC1  106   4.947   2.933   3.165 -0.4659  0.1251 -0.0555
    3TYR     BB  107   5.368   3.024   2.851 -0.3186 -0.1650  0.0964
    3TYR    SC1  108   5.590   2.794   2.943  0.2805  0.3615  0.0517
    3TYR    SC2  109   5.824   2.706   2.843  0.0570 -0.2142 -0.0074
    3TYR    SC3  110   5.720   2.591   3.065 -0.1369  0.0824  0.0614
    1TYR     BB  111   5.376   2.536   4.125  0.3650 -0.0725 -0.2860
    1TYR    SC1  112   5.454   2.648   4.379 -0.5745  0.7659 -0.0272
    1TYR    SC2  113   5.538   2.691   4.632  0.1645  0.0054 -0.0883
    1TYR    SC3  114   5.640   2.838   4.430  0.3034 -0.0014 -0.0250
    2LEU     BB  115   5.112   2.320   4.240  0.0818 -0.1410 -0.0703
    2LEU    SC1  116   5.221   2.116   4.448  0.0441  0.1073 -0.2349
    3TYR     BB  117   4.785   2.264   4.228 -0.1739 -0.0187 -0.1629
    3TYR    SC1  118   4.641   2.275   4.476 -0.0194  0.0666  0.2212
    3TYR    SC2  119   4.407   2.376   4.565 -0.3097 -0.2830 -0.1064
    3TYR    SC3  120   4.567   2.239   4.733 -0.2073  0.1661  0.1837
    1TYR     BB  121   4.034   4.560   4.680  0.2553  0.1820 -0.1022
    1TYR    SC1  122   4.052   4.834   4.527  0.3418 -0.0431 -0.5587
    1TYR    SC2  123   4.000   5.087   4.607 -0.3546 -0.2655 -0.2040
    1TYR    SC3  124   4.032   5.032   4.345 -0.0172  0.2011 -0.2751
    2LEU     BB  125   3.649   4.410   4.790 -0.0498  0.1248  0.4100
    2LEU    SC1  126   3.698   4.079   4.671 -0.1138  0.0273 -0.0324
    3TYR     BB  127   3.366   4.461   4.591  0.0148  0.1823  0.3431
    3TYR    SC1  128   3.580   4.558   4.358  0.0779  0.0469 -0.0586
    3TYR    SC2  129   3.616   4.826   4.363 -0.2765  0.1000 -0.0175
    3TYR    SC3  130   3.789   4.669   4.227 -0.0468  0.3437 -0.0166
    1TYR     BB  131   2.511   4.190   4.904  0.2384 -0.1684  0.2181
    1TYR    SC1  132   2.704   4.274   4.704 -0.2356  0.1583  0.1807
    1TYR    SC2  133   2.886   4.294   4.505 -0.1388 -0.0317  0.2465
    1TYR    SC3  134   2.626   4.254   4.446 -0.1122 -0.0762  0.1577
    2LEU     BB  135   2.284   3.951   4.858 -0.3498  0.0358  0.1957
    2LEU    SC1  136   2.127   3.914   5.097 -0.1254  0.0270 -0.3991
    3TYR     BB  137   2.220   3.829   4.586  0.0989  0.2490  0.1829
    3TYR    SC1  138   2.273   3.535   4.480 -0.2121  0.1181 -0.1264
    3TYR    SC2  139   2.486   3.419   4.362 -0.1159  0.2132 -0.0480
    3TYR    SC3  140   2.268   3.272   4.422  0.0264  0.0577  0.1036
    1TYR     BB  141   2.592   1.702   3.812 -0.0872 -0.1514  0.0511
    1TYR    SC1  142   2.456   1.738   3.578  0.3351  0.0910 -0.1428
    1TYR    SC2  143   2.374   1.957   3.441 -0.4343  0.0464  0.1824
    1TYR    SC3  144   2.220   1.736   3.448  0.1991 -0.4362  0.0824
    2LEU     BB  145   2.887   1.898   3.877 -0.2102  0.0166  0.2078
    2LEU    SC1  146   3.109   1.686   3.808  0.2933 -0.1048 -0.2411
    3TYR     BB  147   2.892   2.104   3.786  0.0724  0.1618 -0.0820
    3TYR    SC1  148   2.788   2.217   3.543  0.0383  0.3456  0.0890
    3TYR    SC2  149   2.816   2.458   3.425  0.2083  0.1613 -0.2625
    3TYR    SC3  150   2.669   2.265   3.306  0.1589  0.0557 -0.0358
    1TYR     BB  151   2.464   2.175   3.986 -0.2912  0.2572  0.1276
    1TYR    SC1  152   2.404   2.359   3.730  0.0532 -0.0153 -0.3364
    1TYR    SC2  153   2.272   2.394   3.497 -0.3867 -0.0540 -0.1064
    1TYR    SC3  154   2.380   2.606   3.625 -0.2999 -0.0081 -0.2523
    2LEU     BB  155   2.614   2.194   4.263  0.1086 -0.0615  0.3713
    2LEU    SC1  156   2.654   1.837   4.351  0.2487 -0.1580 -0.2341
    3TYR     BB  157   2.799   2.374   4.352 -0.3300  0.0950  0.1814
    3TYR    SC1  158   3.043   2.404   4.238  0.1210  0.3745 -0.1644
    3TYR    SC2  159   3.258   2.350   4.084  0.2181  0.2591  0.0066
    3TYR    SC3  160   3.289   2.391   4.349  0.0497  0.4243  0.0034
    1TYR     BB  161   1.888   3.650   4.216 -0.1139 -0.0986  0.0050
    1TYR    SC1  162   1.757   3.694   4.444 -0.1054  0.1626  0.3391
    1TYR    SC2  163   1.749   3.764   4.704 -0.2649  0.0851  0.3568
    1TYR    SC3  164   1.526   3.675   4.582 -0.1178 -0.1969  0.2811
    2LEU     BB  165   1.991   4.024   4.041 -0.0746  0.2192 -0.0930
    2LEU    SC1  166   2.296   3.996   4.144  0.2511  0.0623  0.1163
    3TYR     BB  167   1.820   4.059   3.852  0.2440 -0.2687  0.3609
    3TYR    SC1  168   1.540   4.000   3.918 -0.1034  0.2356  0.0702
    3TYR    SC2  169   1.441   3.798   4.066 -0.1978  0.1857 -0.0589
    3TYR    SC3  170   1.273   3.965   3.936 -0.1223 -0.0724 -0.5120
    1TYR     BB  171   1.297   3.429   3.234  0.1544  0.1907  0.0402
    1TYR    SC1  172   1.282   3.346   3.542 -0.0322  0.2655 -0.1263
    1TYR    SC2  173   1.300   3.508   3.757 -0.2136  0.1835 -0.0462
    1TYR    SC3  174   1.178   3.268   3.779 -0.3064  0.2081 -0.2597
    2LEU     BB  175   1.474   3.250   3.076  0.1276 -0.2912  0.0451
    2LEU    SC1  176   1.679   3.070   3.290  0.0905 -0.0774  0.0192
    3TYR     BB  177   1.580   3.226   2.820 -0.0714 -0.3125  0.1770
    3TYR    SC1  178   1.718   2.995   2.665  0.2344  0.0980 -0.4526
    3TYR    SC2  179   1.890   2.834   2.536  0.0923 -0.0898 -0.4133
    3TYR    SC3  180   1.741   2.737   2.738  0.1551  0.1459 -0.2488
    1TYR     BB  181   5.913   3.847   5.323  0.3165  0.1669  0.0525
    1TYR    SC1  182   6.121   3.980   5.126 -0.1763  0.1829 -0.2542
    1TYR    SC2  183   6.379   3.981   5.047 -0.0531 -0.0912  0.1073
    1TYR    SC3  184   6.182   3.928   4.869  0.1570 -0.1142 -0.1244
    2LEU     BB  185   5.642   3.977   5.245 -0.0785 -0.0303  0.1446
    2LEU    SC1  186   5.366   3.853   5.437 -0.0862 -0.0356 -0.4234
    3TYR     BB  187   5.679   4.191   4.994  0.0556  0.0369  0.1455
    3TYR    SC1  188   5.731   4.490   4.936  0.3265 -0.2620 -0.1319
    3TYR    SC2  189   5.856   4.676   4.786  0.1321  0.2151  0.2635
    3TYR    SC3  190   5.694   4.752   4.988 -0.2353 -0.3899  0.2278
    1TYR     BB  191   4.403   4.471   3.534  0.1333 -0.1570 -0.2050
    1TYR    SC1  192   4.516   4.196   3.377  0.0715 -0.2831 -0.0881
    1TYR    SC2  193   4.574   4.123   3.124 -0.0741 -0.2830 -0.1222
    1TYR    SC3  194   4.585   3.941   3.324  0.1225 -0.2642 -0.1136
    2LEU     BB  195   4.499   4.720   3.407 -0.1643 -0.0387 -0.3208
    2LEU    SC1  196   4.657   4.670   3.147 -0.2706 -0.1080  0.0632
    3TYR     BB  197   4.414   5.007   3.461  0.0095  0.0872  0.1017
    3TYR    SC1  198   4.434   5.164   3.217  0.0660 -0.0860 -0.2111
    3TYR    SC2  199   4.551   5.198   2.976  0.2772  0.0476 -0.0945
    3TYR    SC3  200   4.384   5.386   3.072 -0.0098 -0.1228 -0.2417
    1TYR     BB  201   1.929   2.362   4.104 -0.0002 -0.1613  0.1460
    1TYR    SC1  202   2.055   2.219   4.383  0.0061 -0.1388  0.0187
    1TYR    SC2  203   2.174   1.985   4.448 -0.0418 -0.1753 -0.0237
    1TYR    SC3  204   1.964   2.075   4.593 -0.1962 -0.2937 -0.1697
    2LEU     BB  205   2.003   2.626   4.161 -0.0301 -0.0826  0.1474
    2LEU    SC1  206   2.320   2.729   4.093  0.0768  0.0670 -0.0060
    3TYR     BB  207   1.966   2.842   4.388 -0.2832  0.1665 -0.5757
    3TYR    SC1  208   1.774   2.891   4.597 -0.2409 -0.3090 -0.3099
    3TYR    SC2  209   1.736   2.873   4.864 -0.1976 -0.3623 -0.3070
    3TYR    SC3  210   1.527   2.921   4.700 -0.1815 -0.0287 -0.2386
    1TYR     BB  211   2.689   2.967   5.233 -0.2078 -0.0485  0.1634
    1TYR    SC1  212   2.687   2.958   5.547 -0.0773 -0.2199  0.1902
    1TYR    SC2  213   2.813   3.043   5.771  0.0237 -0.3152  0.1705
    1TYR    SC3  214   2.545   3.011   5.771 -0.0244  0.0432  0.1652
    2LEU     BB  215   2.453   3.272   5.294  0.1604 -0.2950 -0.1714
    2LEU    SC1  216   2.431   3.479   5.011  0.3551  0.0049 -0.0784
    3TYR     BB  217   2.210   3.248   5.466 -0.2121  0.0405  0.0956
    3TYR    SC1  218   2.015   3.492   5.540  0.1205  0.0015 -0.3226
    3TYR    SC2  219   1.957   3.754   5.568 -0.0713 -0.0517 -0.1981
    3TYR    SC3  220   1.778   3.588   5.452 -0.0742 -0.1776 -0.0194
    1TYR     BB  221   4.938   2.504   2.687 -0.0981  0.1476 -0.0427
    1TYR    SC1  222   5.033   2.208   2.717  0.1668  0.0819  0.1294
    1TYR    SC2  223   4.935   2.027   2.891  0.0756 -0.2176 -0.2163
    1TYR    SC3  224   5.192   2.010   2.809  0.0691 -0.1838 -0.2440
    2LEU     BB  225   4.658   2.501   2.897  0.0248  0.2622 -0.2292
    2LEU    SC1  226   4.515   2.789   2.971 -0.1357  0.1242 -0.1744
    3TYR     BB  227   4.382   2.192   2.917 -0.0089 -0.0423  0.0497
    3TYR    SC1  228   4.305   2.256   3.203  0.2898 -0.2014  0.1877
    3TYR    SC2  229   4.171   2.465   3.309  0.0004 -0.2436 -0.0783
    3TYR    SC3  230   4.334   2.315   3.464  0.0813  0.0738  0.1529
    1TYR     BB  231   2.033   4.793   4.646 -0.1876 -0.0786 -0.2365
    1TYR    SC1  232   1.706   4.643   4.617  0.2147  0.0294  0.0174
    1TYR    SC2  233   1.437   4.635   4.612  0.2082  0.1446  0.1084
    1TYR    SC3  234   1.571   4.521   4.816  0.2454 -0.1886 -0.0924
    2LEU     BB  235   2.212   4.629   4.591  0.1189 -0.0108 -0.2180
    2LEU    SC1  236   2.498   4.711   4.696 -0.0898 -0.3200 -0.0001
    3TYR     BB  237   2.175   4.380   4.433  0.0603 -0.2293 -0.1385
    3TYR    SC1  238   1.935   4.195   4.495 -0.2159 -0.0255 -0.1310
    3TYR    SC2  239   1.854   4.197   4.752 -0.0953 -0.2757 -0.0872
    3TYR    SC3  240   1.673   4.166   4.554 -0.1637 -0.3158 -0.0194
    1TYR     BB  241   6.032   4.543   4.138 -0.1605  0.1939  0.0836
    1TYR    SC1  242   6.028   4.303   4.308 -0.0909 -0.2821 -0.1705
    1TYR    SC2  243   5.894   4.183   4.510  0.1616  0.1369  0.2727
    1TYR    SC3  244   6.143   4.102   4.445  0.0024 -0.1375 -0.0320
    2LEU     BB  245   6.153   4.857   4.235  0.0283  0.1037 -0.1651
    2LEU    SC1  246   5.932   5.011   4.433 -0.0198 -0.0199  0.2473
    3TYR     BB  247   6.370   4.833   4.558 -0.0897  0.1548 -0.1438
    3TYR    SC1  248   6.334   4.532   4.666 -0.1719 -0.1068 -0.1775
    3TYR    SC2  249   6.422   4.288   4.737  0.2865  0.0815 -0.0562
    3TYR    SC3  250   6.201   4.390   4.854  0.3170 -0.1158  0.1851
    1TYR     BB  251   3.654   2.109   3.355 -0.0649 -0.2235 -0.4907
    1TYR    SC1  252   3.695   2.388   3.287 -0.0464 -0.0105 -0.3148
    1TYR    SC2  253   3.804   2.604   3.168 -0.0931  0.0687 -0.2147
    1TYR    SC3  254   3.778   2.596   3.436 -0.0732 -0.0699 -0.2162
    2LEU     BB  255   3.413   2.144   3.680 -0.1722 -0.1442  0.2942
    2LEU    SC1  256   3.528   1.991   3.964 -0.0996 -0.1885  0.3671
    3TYR     BB  257   3.294   2.443   3.587  0.1755 -0.1816 -0.1260
    3TYR    SC1  258   3.063   2.580   3.790 -0.0313  0.0580 -0.1166
    3TYR    SC2  259   2.941   2.810   3.861 -0.2644 -0.0456 -0.1686
    3TYR    SC3  260   2.809   2.576   3.880  0.0945 -0.2338  0.2569
    1TYR     BB  261   3.376   6.032   4.130 -0.4364 -0.2067 -0.1278
    1TYR    SC1  262   3.392   6.241   4.316 -0.0108 -0.2371  0.4062
    1TYR    SC2  263   3.394   6.390   4.541  0.1992  0.0622  0.2160
    1TYR    SC3  264   3.366   6.509   4.302  0.0293 -0.2459  0.0758
    2LEU     BB  265   3.629   6.010   3.939 -0.0665  0.0741 -0.1501
    2LEU    SC1  266   3.701   5.738   3.846 -0.2057  0.0063  0.1012
    3TYR     BB  267   3.870   6.267   3.711  0.3186 -0.0267 -0.0921
    3TYR    SC1  268   4.032   6.039   3.614 -0.0173 -0.0919 -0.0338
    3TYR    SC2  269   4.199   5.849   3.707  0.1178  0.0111 -0.0631
    3TYR    SC3  270   4.036   5.795   3.499  0.2921 -0.0166 -0.1965
    1TYR     BB  271   3.562   2.105   4.627  0.0421  0.2526  0.2547
    1TYR    SC1  272   3.381   1.956   4.415 -0.2931 -0.0377  0.2394
    1TYR    SC2  273   3.293   1.715   4.333  0.3647 -0.3230  0.2892
    1TYR    SC3  274   3.142   1.935   4.291  0.0280 -0.6390 -0.3631
    2LEU     BB  275   3.277   2.239   4.834 -0.0412  0.0659 -0.1021
    2LEU    SC1  276   3.453   2.395   5.094 -0.4160 -0.2524  0.0332
    3TYR     BB  277   3.046   2.165   4.775 -0.2384 -0.1019 -0.0878
    3TYR    SC1  278   3.035   1.860   4.750  0.2064  0.1161 -0.1129
    3TYR    SC2  279   3.057   1.597   4.691 -0.1272 -0.0330  0.3450
    3TYR    SC3  280   3.264   1.727   4.805  0.0757 -0.0606  0.0250
    1TYR     BB  281   2.468   3.423   2.701 -0.2002  0.1127  0.0382
    1TYR    SC1  282   2.220   3.335   2.823 -0.0516 -0.0266 -0.0617
    1TYR    SC2  283   2.023   3.352   3.008  0.0401 -0.2286  0.0589
    1TYR    SC3  284   2.074   3.117   2.885  0.2056 -0.1790  0.0284
    2LEU     BB  285   2.385   3.747   2.620 -0.0047 -0.1135  0.0810
    2LEU    SC1  286   2.090   3.797   2.759  0.2476 -0.3849 -0.1094
    3TYR     BB  287   2.591   3.839   2.451 -0.1353  0.3886  0.1436
    3TYR    SC1  288   2.556   4.108   2.223  0.0528 -0.1994 -0.0643
    3TYR    SC2  289   2.601   4.225   1.983 -0.1914  0.0782  0.0182
    3TYR    SC3  290   2.348   4.171   2.062 -0.1287  0.1721  0.2956
    1TYR     BB  291   4.112   4.700   3.125 -0.0340 -0.1900  0.1868
    1TYR    SC1  292   4.213   4.401   3.049  0.0220 -0.1583 -0.0001
    1TYR    SC2  293   4.138   4.165   3.156  0.1871 -0.1766  0.0800
    1TYR    SC3  294   4.148   4.194   2.888 -0.0833 -0.1775  0.0669
    2LEU     BB  295   4.122   4.864   2.859  0.4457  0.3007 -0.0902
    2LEU    SC1  296   4.391   4.761   2.751 -0.0399 -0.0101 -0.0149
    3TYR     BB  297   4.048   5.164   2.785 -0.0011 -0.1020 -0.2096
    3TYR    SC1  298   3.826   5.206   2.592  0.1785  0.2723  0.0640
    3TYR    SC2  299   3.588   5.319   2.537  0.1721  0.1681 -0.1365
    3TYR    SC3  300   3.759   5.263   2.337  0.0378 -0.4773 -0.0970
    1TYR     BB  301   2.894   3.525   3.014  0.0854 -0.2775  0.1439
    1TYR    SC1  302   3.135   3.542   3.200 -0.0250  0.0029  0.1221
    1TYR    SC2  303   3.296   3.407   3.370  0.2108 -0.0716 -0.1507
    1TYR    SC3  304   3.311   3.676   3.355  0.1098 -0.0547  0.0214
    2LEU     BB  305   2.704   3.744   3.033  0.2163  0.1233  0.2530
    2LEU    SC1  306   2.810   3.985   2.831 -0.0410  0.0806  0.3094
    3TYR     BB  307   2.382   3.698   3.123 -0.0619 -0.2895  0.0034
    3TYR    SC1  308   2.332   3.474   3.309 -0.1835  0.0261  0.1471
    3TYR    SC2  309   2.183   3.284   3.430  0.0166 -0.3228 -0.1317
    3TYR    SC3  310   2.406   3.216   3.295  0.3481  0.1664  0.1294
    1TYR     BB  311   5.442   3.857   3.007 -0.4107  0.0169  0.0665
    1TYR    SC1  312   5.553   4.014   2.809 -0.2514 -0.2187 -0.1809
    1TYR    SC2  313   5.620   4.152   2.587 -0.1061  0.1264  0.0661
    1TYR    SC3  314   5.802   3.992   2.707 -0.0837  0.1828  0.1080
    2LEU     BB  315   5.438   3.587   2.967 -0.1840 -0.1407  0.1407
    2LEU    SC1  316   5.409   3.351   3.180  0.1363  0.0564  0.0622
    3TYR     BB  317   5.684   3.474   2.769 -0.2133 -0.0862  0.0757
    3TYR    SC1  318   5.857   3.243   2.879  0.1158 -0.1065 -0.0984
    3TYR    SC2  319   6.104   3.150   2.935  0.0331 -0.1535  0.2106
    3TYR    SC3  320   5.897   3.091   3.099 -0.2151 -0.2344 -0.1175
    1TYR     BB  321   5.146   3.452   2.561  0.0123 -0.1169 -0.5769
    1TYR    SC1  322   5.007   3.418   2.284 -0.0047  0.2016  0.0256
    1TYR    SC2  323   5.139   3.496   2.062  0.0070  0.3727  0.0909
    1TYR    SC3  324   4.991   3.270   2.059  0.0665  0.3343 -0.0681
    2LEU     BB  325   5.084   3.787   2.613 -0.1494 -0.1623 -0.0254
    2LEU    SC1  326   5.191   3.970   2.362  0.0928 -0.2043  0.1260
    3TYR     BB  327   5.058   4.095   2.778  0.0066 -0.0198  0.0310
    3TYR    SC1  328   5.004   4.072   3.089 -0.3119  0.0425 -0.1497
    3TYR    SC2  329   5.005   4.046   3.358 -0.1554 -0.1002 -0.1623
    3TYR    SC3  330   4.989   4.291   3.246 -0.2151 -0.0398 -0.0236
    1TYR     BB  331   3.188   2.141   3.202 -0.0385 -0.4699  0.1789
    1TYR    SC1  332   3.116   1.897   3.359 -0.0454  0.0784  0.0796
    1TYR    SC2  333   3.135   1.630   3.318 -0.0233  0.0918  0.0000
    1TYR    SC3  334   2.897   1.740   3.381  0.0459 -0.0050  0.4749
    2LEU     BB  335   3.011   2.147   2.929 -0.1571  0.1472  0.2368
    2LEU    SC1  336   2.909   1.855   2.850 -0.1276 -0.0998 -0.0598
    3TYR     BB  337   3.045   2.276   2.568  0.1136  0.1856 -0.4235
    3TYR    SC1  338   2.779   2.195   2.453  0.2383 -0.3330 -0.1468
    3TYR    SC2  339   2.720   2.012   2.262 -0.2123 -0.5003  0.1355
    3TYR    SC3  340   2.544   2.062   2.462  0.0770 -0.0446  0.2956
    1TYR     BB  341   4.398   4.135   3.894 -0.1219  0.0753 -0.2531
    1TYR    SC1  342   4.627   3.985   4.122 -0.1798 -0.0886  0.2342
    1TYR    SC2  343   4.661   3.822   4.335 -0.0478 -0.2925  0.0636
    1TYR    SC3  344   4.876   3.916   4.202 -0.1301 -0.2887 -0.0689
    2LEU     BB  345   4.170   4.063   3.785  0.0564 -0.0252 -0.1256
    2LEU    SC1  346   3.964   4.316   3.698 -0.0739  0.0635  0.2194
    3TYR     BB  347   4.099   3.902   3.604 -0.0611  0.3430  0.0391
    3TYR    SC1  348   3.839   3.726   3.625  0.2984  0.1490 -0.2389
    3TYR    SC2  349   3.606   3.621   3.714  0.3328  0.3914  0.1763
    3TYR    SC3  350   3.727   3.518   3.495 -0.0324  0.1020  0.0975
    1TYR     BB  351   2.958   3.403   4.965  0.0776  0.1306  0.0914
    1TYR    SC1  352   2.962   3.388   5.278 -0.1108  0.0065 -0.0452
    1TYR    SC2  353   2.837   3.477   5.500 -0.2235 -0.0611 -0.0809
    1TYR    SC3  354   3.052   3.314   5.522  0.2602  0.5413  0.0037
    2LEU     BB  355   3.257   3.625   4.949  0.0468  0.1266 -0.0511
    2LEU    SC1  356   3.456   3.601   4.677  0.1197  0.0328  0.0312
    3TYR     BB  357   3.342   3.721   5.188  0.2004  0.1623 -0.0870
    3TYR    SC1  358   3.179   3.807   5.458  0.2614 -0.1084  0.1385
    3TYR    SC2  359   3.211   4.013   5.630  0.1602 -0.1117  0.1618
    3TYR    SC3  360   2.991   3.856   5.646 -0.0341  0.1081 -0.1968
    1TYR     BB  361   1.551   3.938   3.381  0.1500 -0.3978 -0.0816
    1TYR    SC1  362   1.670   3.669   3.532  0.2988  0.2918  0.1707
    1TYR    SC2  363   1.796   3.429   3.526 -0.0533  0.1019 -0.1583
    1TYR    SC3  364   1.770   3.563   3.760  0.3011 -0.0917  0.0005
    2LEU     BB  365   1.267   4.062   3.347 -0.0044 -0.4109  0.0946
    2LEU    SC1  366   1.035   3.826   3.372 -0.0509 -0.0891  0.0849
    3TYR     BB  367   1.285   4.029   3.003  0.2297 -0.3611 -0.0891
    3TYR    SC1  368   1.167   3.793   2.906  0.2048 -0.1013 -0.0197
    3TYR    SC2  369   1.197   3.618   2.704 -0.2798 -0.0972 -0.1112
    3TYR    SC3  370   0.953   3.656   2.814 -0.0476 -0.0244  0.4121
    1TYR     BB  371   1.791   5.374   3.410  0.0076  0.1153 -0.2221
    1TYR    SC1  372   1.786   5.332   3.721 -0.0604  0.0727  0.1664
    1TYR    SC2  373   1.903   5.321   3.964 -0.0219  0.1733  0.1534
    1TYR    SC3  374   1.638   5.281   3.941 -0.0397  0.2489  0.2235
    2LEU     BB  375   1.928   5.296   3.162  0.0576  0.0169 -0.0501
    2LEU    SC1  376   1.780   5.414   2.917 -0.0578  0.1912  0.0554
    3TYR     BB  377   2.160   5.110   3.180 -0.0349  0.4414  0.1349
    3TYR    SC1  378   2.316   4.880   3.039  0.0474  0.2982  0.1039
    3TYR    SC2  379   2.469   4.657   3.054 -0.0475  0.2406  0.2424
    3TYR    SC3  380   2.437   4.784   2.817  0.1135  0.1829  0.1882
    1TYR     BB  381   4.552   3.339   2.444 -0.1478  0.1329  0.1046
    1TYR    SC1  382   4.578   3.366   2.165 -0.0389 -0.0883 -0.1660
    1TYR    SC2  383   4.416   3.307   1.958  0.0558 -0.0816 -0.2426
    1TYR    SC3  384   4.588   3.515   1.940  0.2128 -0.2089 -0.2393
    2LEU     BB  385   4.621   3.662   2.587  0.0724 -0.1185  0.5561
    2LEU    SC1  386   4.651   3.822   2.322 -0.1050  0.0296 -0.0019
    3TYR     BB  387   4.591   3.807   2.820  0.0698  0.1100  0.1018
    3TYR    SC1  388   4.782   3.656   3.053  0.2387 -0.0408 -0.0735
    3TYR    SC2  389   4.939   3.593   3.263  0.3450  0.1210 -0.1024
    3TYR    SC3  390   4.939   3.437   3.043 -0.0316 -0.2538  0.1458
    1TYR     BB  391   3.628   4.001   5.830 -0.2760 -0.1934  0.1831
    1TYR    SC1  392   3.494   3.714   5.754 -0.1820  0.1700 -0.0909
    1TYR    SC2  393   3.461   3.473   5.637  0.1670  0.0573  0.0267
    1TYR    SC3  394   3.315   3.539   5.856  0.2054 -0.1281  0.1112
    2LEU     BB  395   3.828   4.057   5.574 -0.1792 -0.0384 -0.3897
    2LEU    SC1  396   3.641   4.093   5.341  0.1168 -0.0398  0.3338
    3TYR     BB  397   4.087   4.127   5.518  0.2910 -0.1229  0.1388
    3TYR    SC1  398   4.183   4.218   5.239 -0.0132  0.0983  0.1273
    3TYR    SC2  399   4.295   4.338   5.025  0.4536 -0.2342  0.1644
    3TYR    SC3  400   4.081   4.178   4.992  0.1559  0.1673  0.0434
    1TYR     BB  401   6.203   3.896   3.462  0.2322 -0.2756  0.2133
    1TYR    SC1  402   6.442   3.789   3.323 -0.1016  0.2450 -0.0799
    1TYR    SC2  403   6.708   3.827   3.351 -0.0943  0.2948 -0.2090
    1TYR    SC3  404   6.614   3.685   3.142 -0.1636  0.1869 -0.1057
    2LEU     BB  405   6.037   4.159   3.454 -0.0105  0.0602  0.3325
    2LEU    SC1  406   5.890   4.188   3.150 -0.1516 -0.3139  0.2285
    3TYR     BB  407   5.913   4.396   3.689 -0.0352  0.1388 -0.4444
    3TYR    SC1  408   6.146   4.627   3.683  0.3315  0.2564 -0.3565
    3TYR    SC2  409   6.395   4.642   3.783  0.2457  0.1845 -0.1241
    3TYR    SC3  410   6.264   4.868   3.712  0.2366  0.2583  0.1143
    1TYR     BB  411   2.263   3.562   3.919  0.2210  0.1061 -0.0110
    1TYR    SC1  412   2.234   3.743   3.690 -0.1649 -0.0972  0.0875
    1TYR    SC2  413   2.268   3.999   3.613  0.2445 -0.2159 -0.1664
    1TYR    SC3  414   2.075   3.849   3.499 -0.0570 -0.0044  0.0476
    2LEU     BB  415   2.573   3.435   3.756 -0.3028 -0.0050 -0.0091
    2LEU    SC1  416   2.576   3.108   3.824  0.0046 -0.2494 -0.2439
    3TYR     BB  417   2.749   3.573   3.514 -0.0657 -0.0036  0.0475
    3TYR    SC1  418   2.822   3.815   3.457  0.0292 -0.2420 -0.0564
    3TYR    SC2  419   2.948   4.021   3.336 -0.3290 -0.1423 -0.2801
    3TYR    SC3  420   2.722   4.065   3.477 -0.1664 -0.3255  0.0541
    1TYR     BB  421   3.847   4.528   5.240 -0.1457  0.0677 -0.0234
    1TYR    SC1  422   4.026   4.673   5.466 -0.0726 -0.0639 -0.2261
    1TYR    SC2  423   4.074   4.735   5.724  0.2684 -0.0486 -0.2880
    1TYR    SC3  424   4.160   4.899   5.527  0.0677 -0.0928 -0.4160
    2LEU     BB  425   3.866   4.834   5.046 -0.1302  0.1643 -0.3332
    2LEU    SC1  426   3.589   4.862   4.876  0.0040 -0.1182 -0.1271
    3TYR     BB  427   3.966   5.149   5.164 -0.1685 -0.0779  0.1751
    3TYR    SC1  428   3.804   5.189   5.358  0.0171 -0.1611 -0.2549
    3TYR    SC2  429   3.727   5.036   5.568 -0.1745 -0.3553 -0.4602
    3TYR    SC3  430   3.605   5.273   5.521  0.4107  0.1089  0.1170
    1TYR     BB  431   4.167   4.634   1.816  0.3969 -0.0359  0.0033
    1TYR    SC1  432   4.409   4.716   1.967  0.1314 -0.0829  0.1518
    1TYR    SC2  433   4.527   4.735   2.210  0.0613  0.0815  0.1750
    1TYR    SC3  434   4.678   4.733   1.985  0.1272 -0.0828  0.2183
    2LEU     BB  435   3.910   4.800   1.835  0.2794 -0.1398  0.2347
    2LEU    SC1  436   3.632   4.563   1.865  0.3353  0.1418  0.0387
    3TYR     BB  437   3.890   5.107   1.823  0.3512  0.1012  0.1584
    3TYR    SC1  438   4.117   5.237   1.958 -0.2149 -0.1900 -0.1253
    3TYR    SC2  439   4.365   5.215   2.062 -0.1699 -0.0054 -0.1897
    3TYR    SC3  440   4.281   5.451   1.961 -0.3091 -0.1115 -0.3280
    1TYR     BB  441   2.711   2.923   4.260 -0.1443  0.0800 -0.2839
    1TYR    SC1  442   2.858   3.206   4.313  0.2459 -0.4153  0.2363
    1TYR    SC2  443   2.924   3.449   4.410 -0.2137 -0.2864  0.2568
    1TYR    SC3  444   3.071   3.233   4.478  0.0650 -0.0543  0.4264
    2LEU     BB  445   2.496   2.864   4.561 -0.1912  0.1468  0.1075
    2LEU    SC1  446   2.622   3.092   4.726  0.1036  0.0337 -0.2435
    3TYR     BB  447   2.335   2.572   4.583 -0.1707 -0.0787 -0.1120
    3TYR    SC1  448   2.394   2.317   4.688 -0.2169 -0.1304 -0.1794
    3TYR    SC2  449   2.590   2.328   4.873 -0.3783  0.2358 -0.0170
    3TYR    SC3  450   2.540   2.097   4.743 -0.0519  0.0545  0.1631
    1TYR     BB  451   3.676   3.443   2.940 -0.0127 -0.1767 -0.0278
    1TYR    SC1  452   3.696   3.744   3.059  0.1981  0.2045  0.0982
    1TYR    SC2  453   3.753   3.998   2.986 -0.0108  0.2493  0.0839
    1TYR    SC3  454   3.741   3.933   3.247  0.1274  0.2324  0.0872
    2LEU     BB  455   3.890   3.291   3.044  0.1574 -0.3457  0.0068
    2LEU    SC1  456   3.693   3.085   3.277 -0.2049  0.1183 -0.2032
    3TYR     BB  457   4.084   3.111   2.876  0.0617  0.2100 -0.0865
    3TYR    SC1  458   4.177   3.049   2.612  0.0860  0.0303  0.0150
    3TYR    SC2  459   4.105   3.104   2.358  0.0663  0.1135  0.0382
    3TYR    SC3  460   4.276   2.901   2.409  0.1371  0.1501 -0.0492
    1TYR     BB  461   5.568   2.409   3.568  0.0154  0.0887  0.2530
    1TYR    SC1  462   5.382   2.417   3.292 -0.0456  0.2652  0.1097
    1TYR    SC2  463   5.383   2.298   3.049  0.4945  0.1270  0.1646
    1TYR    SC3  464   5.213   2.502   3.099  0.0880 -0.1063 -0.1874
    2LEU     BB  465   5.591   2.712   3.635  0.2429 -0.2257  0.0815
    2LEU    SC1  466   5.499   2.905   3.403  0.1310 -0.2022 -0.1523
    3TYR     BB  467   5.553   3.000   3.918 -0.2938  0.0858 -0.1336
    3TYR    SC1  468   5.713   3.212   3.810 -0.2009 -0.1101  0.0114
    3TYR    SC2  469   5.702   3.391   3.608  0.1083 -0.1954 -0.0881
    3TYR    SC3  470   5.857   3.440   3.824 -0.0161 -0.2249  0.0101
    1TYR     BB  471   3.811   3.725   4.932 -0.2643 -0.0978 -0.0845
    1TYR    SC1  472   3.944   3.482   4.759  0.2037 -0.1237  0.0842
    1TYR    SC2  473   3.885   3.280   4.591 -0.1211  0.1083 -0.0964
    1TYR    SC3  474   4.140   3.366   4.616 -0.0112 -0.1817 -0.1716
    2LEU     BB  475   3.978   3.737   5.170 -0.2490  0.0571  0.1863
    2LEU    SC1  476   4.314   3.779   5.163 -0.0359 -0.0599  0.1763
    3TYR     BB  477   3.947   3.584   5.503 -0.1441  0.1153  0.3471
    3TYR    SC1  478   4.153   3.387   5.542  0.0470  0.3885 -0.0363
    3TYR    SC2  479   4.416   3.422   5.498  0.0602  0.1848 -0.1290
    3TYR    SC3  480   4.325   3.187   5.597 -0.0394  0.4090  0.3459
    1TYR     BB  481   3.679   3.112   1.980  0.2268 -0.0532 -0.0176
    1TYR    SC1  482   3.988   3.065   1.920  0.1025  0.2311 -0.0440
    1TYR    SC2  483   4.217   2.922   1.912  0.0740  0.1765  0.0853
    1TYR    SC3  484   4.108   3.016   1.683  0.0377 -0.0967 -0.0146
    2LEU     BB  485   3.587   3.211   2.277  0.1017 -0.0886  0.2187
    2LEU    SC1  486   3.279   3.118   2.348  0.1180 -0.0071  0.1077
    3TYR     BB  487   3.727   3.370   2.461  0.0097 -0.0536 -0.1603
    3TYR    SC1  488   3.943   3.551   2.301 -0.3347  0.1606 -0.3146
    3TYR    SC2  489   3.966   3.813   2.244  0.0780  0.2523  0.1827
    3TYR    SC3  490   4.181   3.652   2.225 -0.0613  0.0464  0.3082
    1TYR     BB  491   4.762   4.469   4.894 -0.1547  0.2071  0.1051
    1TYR    SC1  492   4.604   4.708   5.023 -0.0847  0.1467 -0.1369
    1TYR    SC2  493   4.659   4.950   5.132 -0.1724  0.0998  0.0151
    1TYR    SC3  494   4.408   4.892   5.052 -0.1421  0.0745 -0.0634
    2LEU     BB  495   4.800   4.154   5.068 -0.1598 -0.2865 -0.0396
    2LEU    SC1  496   4.738   3.939   4.837  0.1211 -0.4485 -0.1588
    3TYR     BB  497   4.949   3.985   5.298  0.4985  0.2828 -0.0458
    3TYR    SC1  498   4.915   3.697   5.251 -0.4663 -0.0154 -0.0040
    3TYR    SC2  499   4.955   3.557   5.022 -0.0144 -0.1571  0.1496
    3TYR    SC3  500   4.754   3.489   5.189 -0.2680 -0.1340 -0.1377
    1TYR     BB  501   6.276   4.701   3.180  0.2012  0.0854 -0.2338
    1TYR    SC1  502   6.458   4.458   3.339 -0.0031  0.1504  0.1017
    1TYR    SC2  503   6.550   4.308   3.543 -0.0864  0.0373  0.0573
    1TYR    SC3  504   6.602   4.235   3.289 -0.0728  0.1192  0.0364
    2LEU     BB  505   6.204   4.954   3.222 -0.0862  0.0348 -0.1998
    2LEU    SC1  506   6.053   5.043   2.928 -0.0776  0.0349  0.1008
    3TYR     BB  507   6.330   5.182   3.331  0.3088 -0.1911 -0.2587
    3TYR    SC1  508   6.567   5.331   3.251  0.0829 -0.0620 -0.1147
    3TYR    SC2  509   6.722   5.551   3.239  0.0070 -0.0059 -0.0780
    3TYR    SC3  510   6.813   5.316   3.143  0.1442  0.0092  0.0129
    1TYR     BB  511   6.144   3.392   3.378 -0.1712  0.1890 -0.3345
    1TYR    SC1  512   6.086   3.098   3.537  0.0770 -0.1120 -0.0780
    1TYR    SC2  513   6.015   2.839   3.510 -0.1138 -0.0481 -0.2233
    1TYR    SC3  514   6.075   2.938   3.754 -0.1744 -0.1948 -0.1474
    2LEU     BB  515   6.004   3.589   3.159 -0.1437 -0.0654  0.1055
    2LEU    SC1  516   5.775   3.768   3.321 -0.1028  0.0976 -0.2270
    3TYR     BB  517   6.214   3.661   2.882 -0.2869  0.3498 -0.0302
    3TYR    SC1  518   6.277   3.970   2.828  0.2890 -0.1731  0.3452
    3TYR    SC2  519   6.280   4.178   2.656 -0.2599 -0.3911  0.0419
    3TYR    SC3  520   6.318   4.221   2.920 -0.0048  0.0344 -0.0526
    1TYR     BB  521   3.360   2.920   3.535  0.5535  0.2144  0.1825
    1TYR    SC1  522   3.067   2.896   3.440  0.1197 -0.4574 -0.3427
    1TYR    SC2  523   2.799   2.872   3.457  0.0978 -0.1067 -0.0382
    1TYR    SC3  524   2.908   3.080   3.324  0.2109 -0.0561  0.1310
    2LEU     BB  525   3.374   3.165   3.765 -0.0090  0.1990 -0.0701
    2LEU    SC1  526   3.089   3.266   3.797 -0.1773 -0.2316 -0.3179
    3TYR     BB  527   3.694   3.146   3.815  0.1954 -0.2432 -0.0023
    3TYR    SC1  528   3.825   3.077   4.062 -0.0472  0.0287  0.3745
    3TYR    SC2  529   3.910   2.884   4.232 -0.0970 -0.0736  0.2842
    3TYR    SC3  530   4.075   3.085   4.163 -0.1087  0.0251  0.5319
    1TYR     BB  531   4.661   2.749   4.224  0.2893  0.2770  0.2140
    1TYR    SC1  532   4.812   2.754   4.485  0.1931 -0.4231 -0.2528
    1TYR    SC2  533   5.066   2.778   4.574 -0.0288  0.0070  0.3503
    1TYR    SC3  534   4.896   2.607   4.696 -0.1371  0.0128  0.2116
    2LEU     BB  535   4.545   2.978   4.120 -0.1473 -0.3377 -0.0349
    2LEU    SC1  536   4.765   3.227   4.272  0.0823 -0.2352  0.3042
    3TYR     BB  537   4.567   3.063   3.876  0.3382  0.0517  0.3301
    3TYR    SC1  538   4.659   2.803   3.715 -0.1732  0.1234 -0.1059
    3TYR    SC2  539   4.627   2.655   3.493  0.1396 -0.1446  0.0170
    3TYR    SC3  540   4.667   2.534   3.730 -0.3041  0.1326  0.2491
    1TYR     BB  541   2.759   3.807   5.170  0.0245 -0.1149  0.0344
    1TYR    SC1  542   2.944   4.047   5.094  0.1861 -0.6104 -0.1018
    1TYR    SC2  543   3.178   4.166   5.159 -0.2194  0.0103  0.3701
    1TYR    SC3  544   3.084   4.182   4.905  0.0939  0.0260  0.2486
    2LEU     BB  545   2.592   3.949   5.362  0.2498 -0.1003  0.1430
    2LEU    SC1  546   2.409   3.752   5.512  0.0964  0.0547  0.2309
    3TYR     BB  547   2.509   4.257   5.400 -0.1160 -0.0470 -0.1138
    3TYR    SC1  548   2.781   4.394   5.515  0.0329  0.3697 -0.0472
    3TYR    SC2  549   2.922   4.339   5.738 -0.0742 -0.1725 -0.0987
    3TYR    SC3  550   3.030   4.492   5.545  0.1093  0.1117  0.2162
    1TYR     BB  551   4.068   5.503   4.063 -0.0058 -0.1425  0.1073
    1TYR    SC1  552   4.350   5.589   4.056  0.0979 -0.1542  0.1443
    1TYR    SC2  553   4.498   5.814   4.033  0.1548 -0.2208 -0.2195
    1TYR    SC3  554   4.576   5.618   4.202  0.1313  0.0053  0.0644
    2LEU     BB  555   3.934   5.505   4.381  0.2694 -0.3196  0.2366
    2LEU    SC1  556   4.207   5.574   4.517 -0.0571 -0.2101 -0.0351
    3TYR     BB  557   3.699   5.667   4.406  0.1528  0.2197  0.1170
    3TYR    SC1  558   3.639   5.934   4.542 -0.1260 -0.1641  0.1111
    3TYR    SC2  559   3.634   6.040   4.790 -0.0537  0.0005  0.0440
    3TYR    SC3  560   3.767   6.166   4.592  0.2415 -0.3366  0.0154
    1TYR     BB  561   6.355   2.651   4.154 -0.0940  0.0469  0.0345
    1TYR    SC1  562   6.188   2.674   4.417 -0.0975 -0.0226 -0.0300
    1TYR    SC2  563   6.227   2.602   4.674 -0.1707 -0.0178 -0.0173
    1TYR    SC3  564   5.988   2.555   4.556 -0.1580  0.0379 -0.0647
    2LEU     BB  565   6.599   2.858   4.144 -0.1769  0.0506 -0.1652
    2LEU    SC1  566   6.576   3.088   4.365  0.1570  0.2798 -0.0638
    3TYR     BB  567   6.586   3.033   3.847  0.0617 -0.1666 -0.0830
    3TYR    SC1  568   6.475   3.317   3.795  0.1201  0.1119  0.6585
    3TYR    SC2  569   6.311   3.526   3.849 -0.0770  0.0836  0.2150
    3TYR    SC3  570   6.532   3.563   3.697 -0.0318 -0.0032  0.2586
    1TYR     BB  571   4.848   4.526   5.407 -0.1237 -0.0105 -0.0609
    1TYR    SC1  572   4.761   4.816   5.571 -0.1577 -0.1573  0.1311
    1TYR    SC2  573   4.624   4.998   5.716 -0.1148  0.2455 -0.3068
    1TYR    SC3  574   4.889   5.030   5.675 -0.0489 -0.0731 -0.1633
    2LEU     BB  575   4.617   4.262   5.512  0.0592 -0.0679 -0.3980
    2LEU    SC1  576   4.467   4.447   5.692  0.2381 -0.3490 -0.3846
    3TYR     BB  577   4.570   3.922   5.599  0.1541 -0.1061  0.1407
    3TYR    SC1  578   4.323   3.773   5.768 -0.0020 -0.0168 -0.0010
    3TYR    SC2  579   4.095   3.789   5.913 -0.2433 -0.0470 -0.3626
    3TYR    SC3  580   4.239   3.559   5.911 -0.2181 -0.0356 -0.1523
    1TYR     BB  581   2.206   4.679   2.301 -0.1041  0.1985 -0.2914
    1TYR    SC1  582   2.039   4.689   2.630  0.0695 -0.4090  0.2587
    1TYR    SC2  583   1.781   4.610   2.647 -0.0115 -0.1815  0.1424
    1TYR    SC3  584   1.906   4.708   2.865 -0.0852 -0.1142  0.1551
    2LEU     BB  585   2.559   4.588   2.351  0.1030  0.0216 -0.1046
    2LEU    SC1  586   2.791   4.741   2.173  0.4539 -0.5125 -0.2311
    3TYR     BB  587   2.788   4.409   2.593  0.0112  0.1525  0.4177
    3TYR    SC1  588   3.063   4.471   2.470 -0.1001  0.4780 -0.2040
    3TYR    SC2  589   3.286   4.576   2.581  0.1479 -0.0009 -0.2102
    3TYR    SC3  590   3.300   4.452   2.342 -0.1029 -0.1413 -0.1571
    1TYR     BB  591   2.063   2.478   5.017  0.2249  0.2143  0.1201
    1TYR    SC1  592   1.849   2.457   4.804 -0.2514  0.5869 -0.0995
    1TYR    SC2  593   1.725   2.442   4.565 -0.2219  0.3418 -0.1034
    1TYR    SC3  594   1.580   2.462   4.792 -0.2947 -0.1907 -0.0890
    2LEU     BB  595   2.146   2.738   5.150 -0.2117  0.1801 -0.0810
    2LEU    SC1  596   2.236   2.755   5.436  0.0709 -0.0698 -0.0733
    3TYR     BB  597   2.239   2.956   4.979  0.0094 -0.1102 -0.3364
    3TYR    SC1  598   2.064   3.193   4.833 -0.1398 -0.1480  0.0263
    3TYR    SC2  599   1.978   3.436   4.914  0.4890  0.1176 -0.0318
    3TYR    SC3  600   1.899   3.336   4.676  0.1045  0.1853  0.0600
    1TYR     BB  601   2.569   4.293   3.888 -0.1757  0.0594  0.0391
    1TYR    SC1  602   2.622   4.553   4.061 -0.1015 -0.2472  0.3449
    1TYR    SC2  603   2.693   4.723   4.259 -0.1780 -0.0650  0.2206
    1TYR    SC3  604   2.441   4.727   4.162 -0.0632  0.0639 -0.0855
    2LEU     BB  605   2.769   4.066   3.980  0.0429  0.4568  0.2460
    2LEU    SC1  606   3.032   4.260   4.034 -0.1902  0.1133  0.0118
    3TYR     BB  607   2.718   3.807   4.144 -0.2084  0.0572 -0.0812
    3TYR    SC1  608   2.725   3.842   4.469 -0.0231  0.4124  0.3334
    3TYR    SC2  609   2.672   3.700   4.693  0.0060  0.0376  0.1165
    3TYR    SC3  610   2.885   3.866   4.685  0.1090 -0.0806  0.3086
    1TYR     BB  611   5.266   3.405   4.058 -0.0296  0.0684 -0.0739
    1TYR    SC1  612   5.281   3.619   3.809 -0.1318 -0.0627  0.0083
    1TYR    SC2  613   5.297   3.682   3.547 -0.0937  0.0564  0.0383
    1TYR    SC3  614   5.126   3.815   3.707  0.0810  0.1767  0.1297
    2LEU     BB  615   5.027   3.167   3.862 -0.2190  0.0864 -0.0801
    2LEU    SC1  616   5.123   3.170   3.576  0.0985 -0.2065  0.0167
    3TYR     BB  617   5.060   2.901   4.024 -0.2641  0.0109  0.0034
    3TYR    SC1  618   5.096   2.681   3.813  0.0642  0.2059  0.0967
    3TYR    SC2  619   5.073   2.612   3.553  0.2923  0.3047  0.0464
    3TYR    SC3  620   5.087   2.421   3.744  0.1672  0.2311 -0.0163
    1TYR     BB  621   6.722   3.562   4.208 -0.1063  0.1919  0.0550
    1TYR    SC1  622   6.828   3.768   3.988  0.1206 -0.2737  0.0293
    1TYR    SC2  623   6.797   3.962   3.802  0.1394 -0.2296  0.0720
    1TYR    SC3  624   6.968   3.758   3.757  0.2877 -0.1192  0.1200
    2LEU     BB  625   6.422   3.612   4.339  0.0462 -0.4866  0.2652
    2LEU    SC1  626   6.552   3.836   4.566  0.1949  0.0744  0.2320
    3TYR     BB  627   6.159   3.573   4.528 -0.0250  0.1169  0.1667
    3TYR    SC1  628   6.095   3.291   4.622 -0.2544 -0.2271 -0.1792
    3TYR    SC2  629   6.158   3.043   4.710 -0.0702 -0.1997 -0.2294
    3TYR    SC3  630   5.906   3.134   4.735 -0.0650 -0.2618  0.1044
    1TYR     BB  631   5.197   4.487   2.534  0.4587  0.0627 -0.1506
    1TYR    SC1  632   5.319   4.798   2.583 -0.1250  0.0960  0.1762
    1TYR    SC2  633   5.368   5.054   2.652  0.1668  0.0931  0.0007
    1TYR    SC3  634   5.339   4.987   2.392 -0.2426 -0.0036  0.0630
    2LEU     BB  635   4.889   4.553   2.683 -0.2172  0.3590 -0.1491
    2LEU    SC1  636   4.878   4.853   2.765  0.0350  0.2132 -0.2525
    3TYR     BB  637   4.644   4.355   2.716 -0.0163  0.0385  0.1473
    3TYR    SC1  638   4.411   4.310   2.492 -0.3234  0.2483  0.1352
    3TYR    SC2  639   4.246   4.130   2.377 -0.0515  0.1166 -0.0651
    3TYR    SC3  640   4.325   4.348   2.239  0.0725  0.0922 -0.0339
    1TYR     BB  641   3.361   4.655   5.231  0.3316  0.1436  0.0719
    1TYR    SC1  642   3.515   4.542   5.528  0.2503 -0.2646 -0.1186
    1TYR    SC2  643   3.436   4.415   5.753  0.0829 -0.2135 -0.1465
    1TYR    SC3  644   3.680   4.531   5.741 -0.1027  0.2592  0.2135
    2LEU     BB  645   3.213   4.956   5.263 -0.0808  0.2939  0.0911
    2LEU    SC1  646   3.136   5.010   5.566 -0.1335 -0.0185 -0.2445
    3TYR     BB  647   3.261   5.228   5.112 -0.1077  0.0452  0.0927
    3TYR    SC1  648   3.556   5.408   5.061 -0.1172 -0.3079  0.2281
    3TYR    SC2  649   3.699   5.637   5.078 -0.1861 -0.2234 -0.1918
    3TYR    SC3  650   3.760   5.453   4.891 -0.0635 -0.6123  0.2058
    1TYR     BB  651   2.536   5.075   2.397  0.2242  0.1857  0.2770
    1TYR    SC1  652   2.276   5.134   2.518 -0.1492  0.0593 -0.4325
    1TYR    SC2  653   2.170   5.352   2.635  0.1550 -0.1922  0.4062
    1TYR    SC3  654   2.048   5.113   2.662  0.2739 -0.2713  0.2587
    2LEU     BB  655   2.837   5.013   2.682  0.1071 -0.3042  0.0391
    2LEU    SC1  656   3.150   5.033   2.538 -0.1277 -0.2089  0.4126
    3TYR     BB  657   2.918   4.972   2.936 -0.0498  0.1130  0.0352
    3TYR    SC1  658   2.896   4.685   3.086  0.0938 -0.1155 -0.3770
    3TYR    SC2  659   2.838   4.422   3.113  0.0606 -0.1080 -0.3743
    3TYR    SC3  660   3.085   4.514   3.176 -0.0180 -0.0885 -0.0780
    1TYR     BB  661   2.095   4.489   3.876 -0.1871 -0.3139  0.3079
    1TYR    SC1  662   1.980   4.465   3.619  0.2343 -0.1239 -0.1791
    1TYR    SC2  663   1.937   4.279   3.429  0.3019 -0.1075 -0.2108
    1TYR    SC3  664   2.008   4.529   3.358 -0.3400  0.1006 -0.2055
    2LEU     BB  665   1.817   4.531   4.084 -0.0475 -0.2094  0.1529
    2LEU    SC1  666   1.916   4.839   4.189  0.1104 -0.0458 -0.0163
    3TYR     BB  667   1.492   4.441   4.148  0.2858 -0.2638  0.2284
    3TYR    SC1  668   1.429   4.458   3.817 -0.2254  0.1225 -0.0664
    3TYR    SC2  669   1.538   4.411   3.574  0.0315 -0.2894  0.1149
    3TYR    SC3  670   1.301   4.539   3.594  0.0840 -0.0998 -0.3368
    1TYR     BB  671   3.722   5.000   3.345  0.1598 -0.1751 -0.2050
    1TYR    SC1  672   3.606   4.973   3.030  0.0272 -0.0080 -0.1808
    1TYR    SC2  673   3.365   4.870   2.963 -0.0469  0.1401 -0.1447
    1TYR    SC3  674   3.556   4.901   2.774 -0.0644  0.0462 -0.1783
    2LEU     BB  675   3.945   5.218   3.333  0.0176  0.0123 -0.0275
    2LEU    SC1  676   3.853   5.446   3.182  0.0881 -0.1814  0.1305
    3TYR     BB  677   4.043   5.309   3.616  0.0139  0.1012 -0.1875
    3TYR    SC1  678   4.310   5.461   3.534  0.0098  0.0399 -0.2574
    3TYR    SC2  679   4.454   5.646   3.401  0.0746  0.0873 -0.1234
    3TYR    SC3  680   4.549   5.541   3.632 -0.1446  0.1879  0.0170
    1TYR     BB  681   4.666   4.721   3.908 -0.1569  0.0792  0.3860
    1TYR    SC1  682   4.803   4.418   3.828 -0.1154  0.0863 -0.0244
    1TYR    SC2  683   4.827   4.162   3.744 -0.1116  0.1488 -0.2167
    1TYR    SC3  684   5.039   4.329   3.731 -0.1836  0.2333 -0.3401
    2LEU     BB  685   4.866   4.919   3.837  0.1581  0.2719 -0.0292
    2LEU    SC1  686   5.111   4.794   4.006 -0.0646 -0.0601  0.2908
    3TYR     BB  687   4.859   5.228   3.820  0.0770 -0.2024  0.2022
    3TYR    SC1  688   4.854   5.249   3.501  0.0017 -0.1241 -0.0837
    3TYR    SC2  689   4.914   5.134   3.264 -0.0005 -0.0473 -0.1218
    3TYR    SC3  690   4.864   5.400   3.277  0.1343 -0.0259 -0.0129
    1TYR     BB  691   1.830   4.173   2.974  0.3281 -0.0916  0.0837
    1TYR    SC1  692   1.666   4.094   2.731  0.3049  0.2169 -0.2080
    1TYR    SC2  693   1.510   3.949   2.566  0.1323  0.0137  0.1200
    1TYR    SC3  694   1.498   4.218   2.559 -0.0302  0.0049 -0.0482
    2LEU     BB  695   2.140   4.249   2.884 -0.0741 -0.1065  0.0005
    2LEU    SC1  696   2.339   4.189   3.151  0.1608 -0.0691  0.3432
    3TYR     BB  697   2.295   4.262   2.639 -0.1233 -0.1145  0.0054
    3TYR    SC1  698   2.117   4.154   2.434  0.0493 -0.1285 -0.0841
    3TYR    SC2  699   1.961   3.992   2.285  0.0847 -0.0292 -0.2322
    3TYR    SC3  700   1.907   4.255   2.300  0.0320 -0.0500  0.0009
    1TYR     BB  701   4.327   5.061   3.941  0.0804  0.0703  0.2205
    1TYR    SC1  702   4.485   5.130   4.183  0.2574 -0.2224 -0.1120
    1TYR    SC2  703   4.531   5.233   4.428 -0.4833  0.0068 -0.0402
    1TYR    SC3  704   4.725   5.093   4.303 -0.0038  0.0755  0.5640
    2LEU     BB  705   4.198   4.789   3.891 -0.2221  0.2340 -0.2166
    2LEU    SC1  706   4.036   4.748   3.624  0.0143 -0.0770  0.3257
    3TYR     BB  707   4.234   4.555   4.111 -0.3385 -0.3385 -0.3166
    3TYR    SC1  708   4.430   4.701   4.330  0.0715 -0.1765 -0.1811
    3TYR    SC2  709   4.473   4.804   4.575 -0.1293  0.4892 -0.3977
    3TYR    SC3  710   4.679   4.702   4.434 -0.0119  0.0920  0.0297
    1TYR     BB  711   2.664   2.543   2.840  0.0339 -0.1021 -0.0397
    1TYR    SC1  712   2.473   2.301   2.876  0.2160 -0.0055  0.1003
    1TYR    SC2  713   2.271   2.170   2.997  0.0213  0.1939  0.0013
    1TYR    SC3  714   2.477   2.032   2.891 -0.1524 -0.0272 -0.0590
    2LEU     BB  715   2.495   2.788   3.067 -0.1601  0.2485 -0.0132
    2LEU    SC1  716   2.202   2.679   3.065 -0.0130  0.0828  0.3654
    3TYR     BB  717   2.655   3.036   2.933  0.2427 -0.0565 -0.0936
    3TYR    SC1  718   2.806   2.970   2.704  0.0373  0.1974  0.0170
    3TYR    SC2  719   2.869   2.841   2.476  0.2132  0.2157  0.0531
    3TYR    SC3  720   3.044   2.845   2.681 -0.0791 -0.1005  0.3255
    1TYR     BB  721   2.606   5.058   3.375 -0.2775 -0.0917  0.0771
    1TYR    SC1  722   2.733   5.347   3.420 -0.1700 -0.0865  0.2671
    1TYR    SC2  723   2.789   5.586   3.533  0.3957 -0.1452  0.1493
    1TYR    SC3  724   2.869   5.535   3.281 -0.5419 -0.1383 -0.1979
    2LEU     BB  725   2.436   4.934   3.622  0.0569  0.0940  0.1504
    2LEU    SC1  726   2.504   4.605   3.553 -0.1190  0.0573 -0.1930
    3TYR     BB  727   2.180   4.996   3.725  0.0726 -0.1319  0.0777
    3TYR    SC1  728   1.883   4.924   3.637  0.1861 -0.1848  0.1749
    3TYR    SC2  729   1.651   4.827   3.735 -0.1840  0.4135 -0.0333
    3TYR    SC3  730   1.693   4.833   3.469  0.1911  0.1009  0.0067
    1TYR     BB  731   4.633   3.296   3.420 -0.2603 -0.1633 -0.1717
    1TYR    SC1  732   4.652   3.462   3.678  0.0931 -0.2099  0.5778
    1TYR    SC2  733   4.600   3.721   3.737  0.0720 -0.0397 -0.0885
    1TYR    SC3  734   4.783   3.584   3.880  0.3217  0.4426  0.0820
    2LEU     BB  735   4.367   3.435   3.214  0.0208 -0.1433  0.1834
    2LEU    SC1  736   4.490   3.286   2.931  0.0740  0.2926 -0.0896
    3TYR     BB  737   4.188   3.686   3.186 -0.2408  0.2507 -0.1162
    3TYR    SC1  738   4.143   3.705   2.907 -0.1171  0.0165  0.1649
    3TYR    SC2  739   4.128   3.552   2.685  0.0473 -0.0991  0.2309
    3TYR    SC3  740   4.034   3.806   2.681 -0.0185 -0.1242  0.0524
    1TYR     BB  741   5.021   3.568   4.548  0.3109  0.1598 -0.2287
    1TYR    SC1  742   5.149   3.297   4.642  0.3619  0.1529  0.4205
    1TYR    SC2  743   5.312   3.138   4.497 -0.0769 -0.1516  0.2356
    1TYR    SC3  744   5.274   3.089   4.760 -0.1794 -0.3377  0.1885
    2LEU     BB  745   5.209   3.826   4.598  0.1378  0.4276  0.2152
    2LEU    SC1  746   5.301   3.857   4.899  0.1432 -0.1496 -0.0240
    3TYR     BB  747   5.353   3.857   4.308 -0.2846  0.2197 -0.3584
    3TYR    SC1  748   5.408   4.107   4.192 -0.0479 -0.0529 -0.1635
    3TYR    SC2  749   5.333   4.352   4.110  0.0836 -0.0471 -0.2690
    3TYR    SC3  750   5.590   4.273   4.082  0.0850 -0.1237 -0.0543
    1TYR     BB  751   2.985   4.659   3.683 -0.1767 -0.1954  0.0299
    1TYR    SC1  752   2.860   4.890   3.864  0.0323  0.0793  0.0369
    1TYR    SC2  753   2.714   5.069   4.005  0.0093  0.0769  0.0162
    1TYR    SC3  754   2.888   5.155   3.817  0.3484  0.1067  0.3305
    2LEU     BB  755   3.307   4.796   3.556  0.0533  0.1182  0.3351
    2LEU    SC1  756   3.562   4.627   3.680  0.0160 -0.2103 -0.1060
    3TYR     BB  757   3.157   5.078   3.366 -0.0116  0.3799  0.0040
    3TYR    SC1  758   3.267   5.246   3.207 -0.1132  0.0058  0.2478
    3TYR    SC2  759   3.340   5.506   3.201 -0.0726 -0.0076  0.1286
    3TYR    SC3  760   3.383   5.348   2.985 -0.1405 -0.1015  0.1827
    1TYR     BB  761   3.284   3.720   2.800  0.0220  0.1829  0.1105
    1TYR    SC1  762   3.244   3.941   3.016 -0.1391  0.0494  0.1372
    1TYR    SC2  763   3.346   4.117   3.193  0.0274 -0.0010  0.0936
    1TYR    SC3  764   3.316   4.188   2.934  0.4225 -0.1410  0.0005
    2LEU     BB  765   3.126   3.648   2.554 -0.1214  0.1914  0.2228
    2LEU    SC1  766   2.917   3.450   2.424 -0.0186  0.0513 -0.2250
    3TYR     BB  767   3.030   4.019   2.387  0.0538 -0.0016 -0.0386
    3TYR    SC1  768   3.078   4.139   2.112  0.0871 -0.1630 -0.2039
    3TYR    SC2  769   3.042   4.380   1.997  0.2121 -0.0948 -0.1028
    3TYR    SC3  770   3.252   4.226   1.925  0.1669 -0.1470 -0.1234
    1TYR     BB  771   5.136   4.774   4.506 -0.1544 -0.1698 -0.0537
    1TYR    SC1  772   5.384   4.628   4.487  0.0802  0.1535 -0.1609
    1TYR    SC2  773   5.639   4.559   4.432  0.2209  0.3214  0.2333
    1TYR    SC3  774   5.479   4.388   4.567  0.0484  0.1323 -0.1862
    2LEU     BB  775   5.077   4.885   4.782 -0.1063  0.1836 -0.3225
    2LEU    SC1  776   4.979   5.182   4.717  0.0858 -0.0362 -0.2108
    3TYR     BB  777   5.117   4.860   5.162 -0.2661 -0.0058  0.3396
    3TYR    SC1  778   5.257   4.582   5.090  0.1220 -0.1304  0.3096
    3TYR    SC2  779   5.241   4.369   4.924  0.0791  0.3591 -0.3665
    3TYR    SC3  780   5.256   4.331   5.191 -0.0816 -0.4680 -0.4415
    1TYR     BB  781   3.790   4.505   2.703  0.3302  0.0592  0.1872
    1TYR    SC1  782   3.718   4.473   2.997  0.0846  0.1869  0.1442
    1TYR    SC2  783   3.529   4.546   3.175  0.0563  0.4485  0.0142
    1TYR    SC3  784   3.738   4.394   3.254 -0.2885  0.0048  0.1253
    2LEU     BB  785   3.788   4.236   2.564  0.0009  0.2513  0.2700
    2LEU    SC1  786   3.845   4.293   2.215  0.4715 -0.1044  0.0004
    3TYR     BB  787   3.532   4.028   2.535  0.0220  0.0498  0.0070
    3TYR    SC1  788   3.509   3.909   2.235 -0.1044 -0.3919  0.0640
    3TYR    SC2  789   3.431   3.708   2.071  0.1166 -0.1882 -0.3085
    3TYR    SC3  790   3.546   3.930   1.968 -0.0790  0.1173  0.0963
    1TYR     BB  791   1.527   3.278   4.281 -0.0878  0.0406  0.2272
    1TYR    SC1  792   1.264   3.370   4.214 -0.1298 -0.2024 -0.2024
    1TYR    SC2  793   1.125   3.596   4.263  0.0520 -0.1222 -0.0370
    1TYR    SC3  794   0.996   3.375   4.174 -0.1643 -0.0265  0.0277
    2LEU     BB  795   1.654   3.101   3.994 -0.2106  0.1214  0.1535
    2LEU    SC1  796   1.547   2.834   4.115  0.0899 -0.0627 -0.1529
    3TYR     BB  797   1.953   3.154   3.940 -0.0950 -0.0025 -0.1350
    3TYR    SC1  798   2.031   2.951   3.715  0.2861 -0.2931  0.1174
    3TYR    SC2  799   2.048   2.844   3.468  0.1459 -0.2767  0.1000
    3TYR    SC3  800   1.931   2.705   3.667 -0.2525 -0.0707  0.0223
    1TYR     BB  801   4.130   2.826   3.741  0.0208  0.3686 -0.1046
    1TYR    SC1  802   4.261   2.604   3.930 -0.1910 -0.0850 -0.0758
    1TYR    SC2  803   4.376   2.404   4.068  0.2243  0.2680  0.1209
    1TYR    SC3  804   4.206   2.572   4.192 -0.0406  0.1114 -0.0175
    2LEU     BB  805   4.138   3.071   3.596  0.0973  0.0873  0.0372
    2LEU    SC1  806   4.179   2.938   3.292  0.1828 -0.0787 -0.2232
    3TYR     BB  807   4.198   3.423   3.686  0.1740 -0.0644  0.0390
    3TYR    SC1  808   4.324   3.505   3.967  0.2605  0.1545 -0.2300
    3TYR    SC2  809   4.357   3.450   4.229  0.3112  0.0290 -0.2619
    3TYR    SC3  810   4.289   3.699   4.152 -0.1870 -0.0392 -0.0937
    1TYR     BB  811   3.504   2.327   2.800  0.0116  0.1459 -0.0599
    1TYR    SC1  812   3.361   2.542   2.902  0.2282  0.0147  0.0086
    1TYR    SC2  813   3.145   2.618   3.048  0.0381 -0.0095 -0.2513
    1TYR    SC3  814   3.393   2.693   3.123 -0.0756  0.1711 -0.0459
    2LEU     BB  815   3.836   2.282   2.756 -0.0035 -0.1235 -0.4155
    2LEU    SC1  816   3.918   2.010   2.938  0.1259  0.1890  0.0117
    3TYR     BB  817   4.100   2.559   2.760 -0.1301 -0.4303 -0.1679
    3TYR    SC1  818   4.267   2.457   2.527 -0.1947 -0.3166  0.0417
    3TYR    SC2  819   4.517   2.414   2.437 -0.1939 -0.1404 -0.0438
    3TYR    SC3  820   4.310   2.422   2.262 -0.1913  0.2084 -0.0390
    1TYR     BB  821   4.647   1.743   3.338  0.0133 -0.0095  0.0289
    1TYR    SC1  822   4.319   1.817   3.330  0.1414 -0.0360 -0.0832
    1TYR    SC2  823   4.102   1.656   3.312  0.1424 -0.0376 -0.0799
    1TYR    SC3  824   4.074   1.915   3.384  0.1315 -0.0137 -0.1688
    2LEU     BB  825   4.741   1.953   3.534  0.0688 -0.0919  0.1681
    2LEU    SC1  826   4.844   2.215   3.347 -0.1815  0.3485 -0.1005
    3TYR     BB  827   4.570   2.014   3.807 -0.4221  0.1521  0.3432
    3TYR    SC1  828   4.330   1.813   3.776  0.1629  0.0121  0.0247
    3TYR    SC2  829   4.072   1.786   3.851  0.1089  0.0697 -0.1361
    3TYR    SC3  830   4.238   1.574   3.861  0.1204  0.0882  0.1981
    1TYR     BB  831   3.369   3.507   4.173  0.1811  0.2656 -0.1580
    1TYR    SC1  832   3.653   3.521   4.189  0.0375  0.3038 -0.1848
    1TYR    SC2  833   3.907   3.531   4.100  0.2419  0.0765  0.3286
    1TYR    SC3  834   3.817   3.716   4.277 -0.0351  0.2926 -0.0196
    2LEU     BB  835   3.244   3.801   4.137 -0.0861  0.2037  0.2329
    2LEU    SC1  836   3.292   3.979   4.377 -0.0436  0.1138 -0.4086
    3TYR     BB  837   3.135   3.772   3.823 -0.0189 -0.0833  0.0033
    3TYR    SC1  838   3.318   3.967   3.699 -0.0175 -0.0631  0.0338
    3TYR    SC2  839   3.508   4.113   3.574  0.1367 -0.3346 -0.0581
    3TYR    SC3  840   3.255   4.206   3.589  0.1997 -0.1246 -0.2394
    1TYR     BB  841   3.248   5.280   2.141 -0.2029  0.1040 -0.1331
    1TYR    SC1  842   3.293   5.483   1.943 -0.3316 -0.0460 -0.1084
    1TYR    SC2  843   3.494   5.535   1.770 -0.2348 -0.0676 -0.0038
    1TYR    SC3  844   3.264   5.674   1.755 -0.1968 -0.0141 -0.0984
    2LEU     BB  845   3.443   5.008   2.089  0.0907 -0.3040 -0.0146
    2LEU    SC1  846   3.195   4.864   1.941 -0.1139  0.0507  0.2651
    3TYR     BB  847   3.551   4.835   2.263  0.0966  0.0341 -0.2414
    3TYR    SC1  848   3.858   4.850   2.311  0.1395 -0.4880 -0.1787
    3TYR    SC2  849   4.071   4.690   2.355  0.2737 -0.2014  0.3190
    3TYR    SC3  850   4.104   4.957   2.340 -0.0459 -0.1544  0.3589
    1TYR     BB  851   4.012   4.179   4.341  0.1176  0.2889 -0.2063
    1TYR    SC1  852   3.795   4.177   4.146  0.1586 -0.2359 -0.0701
    1TYR    SC2  853   3.576   4.257   4.011 -0.0798 -0.1266  0.3584
    1TYR    SC3  854   3.667   4.004   3.983  0.1105 -0.0089 -0.2783
    2LEU     BB  855   4.286   4.132   4.447 -0.2548 -0.3839 -0.3516
    2LEU    SC1  856   4.207   3.884   4.643 -0.1006  0.2483  0.1287
    3TYR     BB  857   4.480   4.295   4.567 -0.1213  0.0984  0.0845
    3TYR    SC1  858   4.760   4.263   4.461 -0.2401  0.6484  0.2028
    3TYR    SC2  859   4.902   4.359   4.252 -0.1798  0.1388 -0.0059
    3TYR    SC3  860   5.025   4.305   4.486 -0.1272  0.1578 -0.0293
    1TYR     BB  861   5.566   3.507   5.069  0.0484  0.1351  0.4492
    1TYR    SC1  862   5.325   3.410   5.213  0.0857  0.1383  0.0897
    1TYR    SC2  863   5.178   3.188   5.255 -0.1344  0.2965  0.1747
    1TYR    SC3  864   5.218   3.363   5.456  0.5164  0.0652  0.2778
    2LEU     BB  865   5.603   3.512   4.682 -0.1054  0.0282  0.2687
    2LEU    SC1  866   5.733   3.772   4.658 -0.1599  0.1328 -0.1422
    3TYR     BB  867   5.664   3.393   4.336 -0.0464  0.1645 -0.0527
    3TYR    SC1  868   5.906   3.250   4.215 -0.0022  0.0633  0.1321
    3TYR    SC2  869   6.149   3.182   4.117  0.0490  0.2351  0.1351
    3TYR    SC3  870   5.978   2.990   4.201  0.0784  0.0956 -0.1129
    1TYR     BB  871   4.343   2.913   4.683  0.1259 -0.1558  0.3529
    1TYR    SC1  872   4.374   2.699   4.912  0.0326 -0.0739 -0.0099
    1TYR    SC2  873   4.329   2.535   5.122  0.1442  0.0057  0.0779
    1TYR    SC3  874   4.581   2.604   5.056  0.1040  0.0601 -0.0226
    2LEU     BB  875   4.593   3.159   4.733  0.0230  0.0764  0.1480
    2LEU    SC1  876   4.556   3.499   4.729 -0.1714  0.3828  0.0551
    3TYR     BB  877   4.802   3.057   4.888  0.4051 -0.2318 -0.0034
    3TYR    SC1  878   4.667   3.041   5.182 -0.0800 -0.4104 -0.1358
    3TYR    SC2  879   4.555   2.884   5.369  0.0470 -0.0824  0.2311
    3TYR    SC3  880   4.788   3.009   5.420  0.2190 -0.1818 -0.2488
    1TYR     BB  881   5.683   3.929   3.773  0.1062  0.2404 -0.2674
    1TYR    SC1  882   5.502   4.126   3.649 -0.1463  0.0025  0.1285
    1TYR    SC2  883   5.420   4.163   3.395  0.0924 -0.0261  0.0438
    1TYR    SC3  884   5.427   4.372   3.566  0.0903  0.0282 -0.0216
    2LEU     BB  885   5.938   3.945   3.896 -0.1957 -0.1728  0.0794
    2LEU    SC1  886   5.889   3.797   4.166  0.0187 -0.0401 -0.0389
    3TYR     BB  887   6.229   4.048   3.913 -0.2401 -0.2086  0.1829
    3TYR    SC1  888   6.450   4.141   4.102 -0.2524  0.1422 -0.0265
    3TYR    SC2  889   6.701   4.121   4.199 -0.2401 -0.0593 -0.0945
    3TYR    SC3  890   6.532   4.308   4.298 -0.0092  0.1979 -0.1704
    1TYR     BB  891   3.834   2.737   2.243 -0.0259  0.2479  0.1815
    1TYR    SC1  892   3.832   2.431   2.208  0.1704 -0.1814  0.4768
    1TYR    SC2  893   3.677   2.235   2.309  0.2751 -0.4476  0.1456
    1TYR    SC3  894   3.664   2.296   2.046  0.1973  0.0454  0.2511
    2LEU     BB  895   3.660   2.763   2.503  0.0451 -0.0657  0.2235
    2LEU    SC1  896   3.363   2.655   2.431 -0.3337 -0.0437 -0.1297
    3TYR     BB  897   3.692   2.920   2.747 -0.3766  0.1049  0.2796
    3TYR    SC1  898   3.408   3.033   2.852 -0.0377 -0.0984 -0.0320
    3TYR    SC2  899   3.216   3.092   3.032  0.0334  0.1810 -0.0418
    3TYR    SC3  900   3.229   3.227   2.798  0.1687  0.0806 -0.0944
    1TYR     BB  901   3.179   5.852   3.684 -0.0870  0.1892 -0.1463
    1TYR    SC1  902   3.386   5.903   3.505  0.0843  0.3011  0.1345
    1TYR    SC2  903   3.603   5.829   3.362  0.1605  0.1413  0.3268
    1TYR    SC3  904   3.517   6.085   3.353  0.0902  0.1128 -0.0950
    2LEU     BB  905   3.211   5.496   3.773 -0.2764 -0.1095 -0.0220
    2LEU    SC1  906   3.302   5.561   4.054 -0.2819  0.3108 -0.2854
    3TYR     BB  907   3.497   5.359   3.621  0.2078 -0.0835  0.1130
    3TYR    SC1  908   3.593   5.167   3.842 -0.0213 -0.1360  0.0107
    3TYR    SC2  909   3.668   5.208   4.099 -0.0364  0.0350 -0.0107
    3TYR    SC3  910   3.798   5.026   3.946 -0.1044 -0.1546  0.1525
   7.66661   7.66661   7.66661
