Generated by trjconv : Martini system from ../2_Creating_coordinates/TYR-THR-TYR_aa.pdb t=   0.00000
 1000
    1TYR     BB    1   1.898   5.477   4.868  0.1893  0.0414 -0.0671
    1TYR    SC1    2   1.859   5.246   5.089 -0.0769 -0.1486 -0.0228
    1TYR    SC2    3   1.936   5.007   5.189  0.2865 -0.0527 -0.0555
    1TYR    SC3    4   1.679   5.085   5.209  0.2572 -0.2313  0.4014
    2THR     BB    5   2.068   5.802   4.825 -0.0390 -0.0118 -0.1098
    2THR    SC1    6   1.945   5.905   4.620 -0.2507 -0.3352 -0.1549
    3TYR     BB    7   2.387   5.899   4.850  0.3357 -0.1125 -0.4212
    3TYR    SC1    8   2.386   6.011   4.535 -0.2436  0.3690  0.1255
    3TYR    SC2    9   2.332   5.990   4.271 -0.5979  0.0904  0.2107
    3TYR    SC3   10   2.525   6.158   4.356  0.0210 -0.3163 -0.2827
    1TYR     BB   11   3.823   2.191   1.991 -0.3684  0.0468 -0.0184
    1TYR    SC1   12   3.715   2.322   2.220 -0.4956  0.0948  0.3791
    1TYR    SC2   13   3.725   2.284   2.487 -0.2012  0.4419  0.4262
    1TYR    SC3   14   3.607   2.505   2.386 -0.1946  0.3781  0.2752
    2THR     BB   15   4.165   2.117   2.017 -0.1294 -0.3023  0.0624
    2THR    SC1   16   4.178   2.197   2.264  0.1593 -0.1069 -0.0098
    3TYR     BB   17   4.327   1.849   1.930  0.0821 -0.1818  0.0508
    3TYR    SC1   18   4.304   1.695   2.179 -0.2243 -0.0124  0.1266
    3TYR    SC2   19   4.187   1.567   2.386 -0.2622 -0.0920  0.0565
    3TYR    SC3   20   4.381   1.445   2.243 -0.1600  0.0034  0.1119
    1TYR     BB   21   1.297   5.065   6.271  0.1389  0.0768  0.0772
    1TYR    SC1   22   1.221   4.890   6.505 -0.0423  0.0350 -0.1401
    1TYR    SC2   23   1.155   4.636   6.566 -0.1103 -0.0186 -0.4189
    1TYR    SC3   24   1.065   4.839   6.719 -0.1590 -0.1526 -0.2660
    2THR     BB   25   1.571   5.226   6.301  0.2707  0.2081  0.0517
    2THR    SC1   26   1.757   5.141   6.140 -0.0032 -0.2506 -0.0420
    3TYR     BB   27   1.606   5.404   6.531  0.0957  0.2094  0.3034
    3TYR    SC1   28   1.543   5.219   6.769 -0.0563  0.2027  0.0203
    3TYR    SC2   29   1.588   5.202   7.034  0.2118  0.0291 -0.0319
    3TYR    SC3   30   1.512   4.983   6.896  0.3614  0.0475 -0.1462
    1TYR     BB   31   2.587   6.047   5.363 -0.0778 -0.2019  0.0719
    1TYR    SC1   32   2.530   6.339   5.289 -0.3244 -0.2931 -0.0572
    1TYR    SC2   33   2.446   6.596   5.287  0.0624 -0.1555  0.1554
    1TYR    SC3   34   2.475   6.461   5.054  0.2098  0.1191  0.0080
    2THR     BB   35   2.804   5.947   5.127  0.0753  0.0923 -0.3601
    2THR    SC1   36   2.955   6.080   4.962  0.0880  0.1233 -0.3236
    3TYR     BB   37   2.807   5.630   5.106  0.1224  0.0437  0.0730
    3TYR    SC1   38   3.115   5.584   5.170 -0.2857 -0.1682  0.0905
    3TYR    SC2   39   3.219   5.437   5.372 -0.4291 -0.0518  0.2524
    3TYR    SC3   40   3.344   5.662   5.292 -0.3154 -0.1537  0.1369
    1TYR     BB   41   3.676   5.231   7.312  0.0780 -0.1011 -0.1006
    1TYR    SC1   42   3.628   5.155   7.602  0.0001 -0.0869 -0.0084
    1TYR    SC2   43   3.450   5.073   7.787 -0.3284 -0.1078 -0.3184
    1TYR    SC3   44   3.680   5.191   7.864 -0.3945 -0.2287  0.0989
    2THR     BB   45   3.926   5.084   7.216  0.1909  0.2652  0.3377
    2THR    SC1   46   4.186   5.098   7.216  0.1806  0.5898  0.1378
    3TYR     BB   47   3.850   4.818   7.044 -0.0944  0.0072  0.0734
    3TYR    SC1   48   3.799   4.536   7.152  0.3273  0.1130  0.0555
    3TYR    SC2   49   3.650   4.354   7.285  0.0130  0.4204  0.1437
    3TYR    SC3   50   3.813   4.275   7.085 -0.0736  0.0411  0.2134
    1TYR     BB   51   3.060   6.059   5.913 -0.0903  0.0689 -0.3282
    1TYR    SC1   52   3.075   5.819   6.144  0.1472  0.4230  0.3491
    1TYR    SC2   53   3.019   5.564   6.211  0.1246  0.2575 -0.2283
    1TYR    SC3   54   3.231   5.690   6.323  0.2843 -0.0980 -0.1088
    2THR     BB   55   3.038   5.904   5.639 -0.1894  0.0185 -0.0329
    2THR    SC1   56   2.910   5.678   5.626 -0.0173 -0.0775 -0.1228
    3TYR     BB   57   3.181   6.100   5.367  0.2999 -0.1320 -0.3258
    3TYR    SC1   58   3.078   6.366   5.335 -0.5166 -0.2718  0.0663
    3TYR    SC2   59   2.950   6.535   5.168  0.0468 -0.0019 -0.1287
    3TYR    SC3   60   3.100   6.633   5.370 -0.1072 -0.3059  0.1451
    1TYR     BB   61   6.113   1.494   2.651  0.0533 -0.2084 -0.2712
    1TYR    SC1   62   6.360   1.654   2.719  0.0088  0.0877 -0.2664
    1TYR    SC2   63   6.559   1.754   2.565  0.2435  0.3227  0.1657
    1TYR    SC3   64   6.614   1.657   2.811 -0.1158 -0.0740  0.1058
    2THR     BB   65   5.927   1.278   2.779 -0.4036  0.4583  0.0218
    2THR    SC1   66   5.943   1.202   3.027  0.0441  0.1534 -0.0860
    3TYR     BB   67   5.641   1.131   2.591  0.1261 -0.2431 -0.0272
    3TYR    SC1   68   5.520   1.006   2.843  0.0059 -0.1164 -0.1945
    3TYR    SC2   69   5.297   0.984   2.993 -0.1393  0.0126 -0.3867
    3TYR    SC3   70   5.535   0.911   3.096 -0.2466  0.0178 -0.1250
    1TYR     BB   71   4.371   1.253   0.447  0.3652  0.1383 -0.2044
    1TYR    SC1   72   4.097   1.357   0.559  0.0208 -0.3180 -0.0949
    1TYR    SC2   73   3.891   1.259   0.704 -0.0789  0.1298  0.0864
    1TYR    SC3   74   3.912   1.525   0.662  0.6188  0.1382  0.3236
    2THR     BB   75   4.454   1.486   0.192  0.3251 -0.0075 -0.1511
    2THR    SC1   76   4.259   1.651   0.141  0.3450  0.1679  0.2882
    3TYR     BB   77   4.655   1.343   0.077 -0.3914  0.0963  0.1750
    3TYR    SC1   78   4.789   1.136   0.276 -0.1093 -0.0454  0.1102
    3TYR    SC2   79   5.026   1.038   0.358 -0.0393  0.0566  0.0324
    3TYR    SC3   80   4.830   1.082   0.538 -0.0678 -0.2076  0.0712
    1TYR     BB   81   5.166   2.459   3.530 -0.2529  0.0020 -0.0863
    1TYR    SC1   82   5.378   2.279   3.681  0.4144  0.1777 -0.1566
    1TYR    SC2   83   5.358   2.013   3.726 -0.1402  0.2157 -0.0898
    1TYR    SC3   84   5.575   2.149   3.812  0.0949 -0.1879 -0.0123
    2THR     BB   85   5.236   2.665   3.294 -0.5924 -0.0082 -0.1171
    2THR    SC1   86   5.255   2.657   3.034 -0.2780  0.2018 -0.1075
    3TYR     BB   87   4.936   2.940   3.305 -0.1439  0.2123 -0.1172
    3TYR    SC1   88   4.706   2.739   3.426 -0.0015 -0.0948  0.0754
    3TYR    SC2   89   4.529   2.536   3.411  0.2976 -0.3778  0.2110
    3TYR    SC3   90   4.691   2.558   3.626  0.3340 -0.0425  0.1561
    1TYR     BB   91   5.398   5.295   5.895  0.2922  0.2018  0.2204
    1TYR    SC1   92   5.615   5.223   6.023 -0.0590  0.0108 -0.4433
    1TYR    SC2   93   5.868   5.280   6.098 -0.1352 -0.1009 -0.0742
    1TYR    SC3   94   5.682   5.219   6.284 -0.3731 -0.2776 -0.3569
    2THR     BB   95   5.142   5.065   5.911 -0.0120  0.2573  0.1065
    2THR    SC1   96   4.964   5.096   5.725  0.0423 -0.2052 -0.0383
    3TYR     BB   97   5.304   4.818   5.954  0.0699  0.3131  0.3436
    3TYR    SC1   98   5.187   4.591   5.775  0.0345  0.2270  0.0684
    3TYR    SC2   99   5.119   4.456   5.551  0.1078  0.2236  0.0478
    3TYR    SC3  100   5.318   4.364   5.708  0.1023  0.2630  0.0780
    1TYR     BB  101   5.736   2.450   0.927 -0.2357  0.1881 -0.0213
    1TYR    SC1  102   5.854   2.652   1.137 -0.0957  0.1950 -0.0083
    1TYR    SC2  103   5.859   2.887   1.271  0.2013  0.1982 -0.0178
    1TYR    SC3  104   6.090   2.770   1.194  0.0526 -0.0443 -0.1100
    2THR     BB  105   5.933   2.260   0.812  0.1773  0.2204 -0.0538
    2THR    SC1  106   6.173   2.322   0.737  0.3054  0.0841  0.2243
    3TYR     BB  107   5.937   1.883   0.776 -0.2411 -0.0623  0.0382
    3TYR    SC1  108   5.921   1.808   0.474 -0.1425  0.0492 -0.1772
    3TYR    SC2  109   5.961   1.689   0.235 -0.0119  0.1355 -0.2003
    3TYR    SC3  110   5.722   1.667   0.360 -0.0675  0.0556 -0.3186
    1TYR     BB  111   3.778   4.116   5.280  0.1321  0.3469 -0.1129
    1TYR    SC1  112   3.726   4.154   5.603  0.2736  0.0072  0.1785
    1TYR    SC2  113   3.845   4.293   5.802  0.1884  0.1243  0.1494
    1TYR    SC3  114   3.762   4.039   5.845  0.4538  0.0372  0.1673
    2THR     BB  115   3.987   4.363   5.169  0.1176 -0.2559  0.0147
    2THR    SC1  116   3.941   4.433   4.922 -0.3379  0.1407  0.1917
    3TYR     BB  117   4.276   4.183   5.185  0.2544  0.0869 -0.1810
    3TYR    SC1  118   4.367   4.128   5.456  0.0265  0.3519  0.2066
    3TYR    SC2  119   4.564   4.044   5.620 -0.0042  0.0655  0.1057
    3TYR    SC3  120   4.340   4.155   5.723 -0.0884 -0.2457  0.2750
    1TYR     BB  121   5.216   0.916   2.434 -0.0072 -0.3702  0.0100
    1TYR    SC1  122   5.111   1.139   2.641 -0.4209 -0.1008 -0.2560
    1TYR    SC2  123   5.165   1.375   2.761  0.1166 -0.1360 -0.3954
    1TYR    SC3  124   4.922   1.261   2.790 -0.0249  0.2328  0.0022
    2THR     BB  125   5.415   0.689   2.516  0.1629 -0.4055 -0.2821
    2THR    SC1  126   5.366   0.539   2.722  0.0193  0.0330  0.0196
    3TYR     BB  127   5.689   0.676   2.321 -0.1534 -0.0666  0.1774
    3TYR    SC1  128   5.934   0.836   2.338 -0.2449  0.1666  0.2415
    3TYR    SC2  129   6.183   0.828   2.444 -0.1565  0.0220  0.0303
    3TYR    SC3  130   6.099   1.049   2.313 -0.1484  0.0798  0.1220
    1TYR     BB  131   1.038   5.352   6.760 -0.0581 -0.1503  0.1526
    1TYR    SC1  132   0.761   5.244   6.841 -0.0137  0.3858 -0.1684
    1TYR    SC2  133   0.557   5.100   6.944  0.2546  0.1531  0.0600
    1TYR    SC3  134   0.510   5.284   6.753 -0.1202 -0.1432 -0.1501
    2THR     BB  135   1.168   5.522   7.062 -0.1009  0.2430  0.2449
    2THR    SC1  136   0.962   5.504   7.221 -0.0227 -0.1321  0.3141
    3TYR     BB  137   1.359   5.724   6.941  0.1635  0.0626 -0.3565
    3TYR    SC1  138   1.655   5.652   7.037 -0.1998 -0.2487 -0.1887
    3TYR    SC2  139   1.891   5.543   6.962 -0.0688  0.0092 -0.1646
    3TYR    SC3  140   1.831   5.570   7.224 -0.0122  0.1729 -0.1671
    1TYR     BB  141   2.240   5.206   6.108  0.0874  0.1146 -0.1128
    1TYR    SC1  142   2.247   4.935   6.089 -0.2285 -0.0198 -0.0718
    1TYR    SC2  143   2.328   4.716   6.223  0.0611  0.1890  0.1093
    1TYR    SC3  144   2.231   4.692   5.973 -0.0865 -0.1619  0.1929
    2THR     BB  145   2.498   5.438   6.154  0.1133 -0.1052 -0.1159
    2THR    SC1  146   2.615   5.389   5.927  0.2874  0.3455 -0.1363
    3TYR     BB  147   2.469   5.667   6.395 -0.0468 -0.0622  0.0858
    3TYR    SC1  148   2.681   5.908   6.383 -0.0123  0.0755  0.1263
    3TYR    SC2  149   2.713   6.148   6.264  0.1446 -0.0447 -0.0836
    3TYR    SC3  150   2.898   6.058   6.437 -0.1066  0.1513  0.3078
    1TYR     BB  151   0.555   4.922   5.962 -0.0750  0.0286 -0.0599
    1TYR    SC1  152   0.615   5.102   6.228 -0.4484 -0.0700 -0.0272
    1TYR    SC2  153   0.795   5.088   6.428 -0.4070  0.0219 -0.0570
    1TYR    SC3  154   0.751   5.323   6.305 -0.0616 -0.1232 -0.4948
    2THR     BB  155   0.773   4.659   5.969  0.1257  0.0804  0.1008
    2THR    SC1  156   0.632   4.466   5.866  0.2538  0.0856 -0.0909
    3TYR     BB  157   1.064   4.662   6.000  0.0222 -0.0471 -0.1086
    3TYR    SC1  158   1.147   4.406   6.158  0.1460  0.1436 -0.1078
    3TYR    SC2  159   1.354   4.238   6.198  0.1793  0.1609 -0.2069
    3TYR    SC3  160   1.113   4.178   6.299  0.3031  0.2996  0.1970
    1TYR     BB  161   4.420   4.724   6.344 -0.0352 -0.0596 -0.2682
    1TYR    SC1  162   4.539   4.493   6.441  0.0758  0.0982 -0.2003
    1TYR    SC2  163   4.757   4.347   6.505  0.1281  0.1863 -0.1750
    1TYR    SC3  164   4.583   4.422   6.698 -0.0298 -0.0471 -0.2204
    2THR     BB  165   4.677   4.926   6.206  0.3263  0.0310  0.2079
    2THR    SC1  166   4.890   4.781   6.238  0.3548 -0.0447 -0.2370
    3TYR     BB  167   4.684   5.211   6.159 -0.0177  0.0084  0.1096
    3TYR    SC1  168   4.404   5.323   6.207 -0.2074 -0.1636 -0.1949
    3TYR    SC2  169   4.217   5.514   6.239 -0.1191 -0.1028 -0.0251
    3TYR    SC3  170   4.171   5.263   6.329 -0.0743 -0.0587  0.1244
    1TYR     BB  171   2.983   7.073   6.764 -0.0034 -0.0817 -0.2896
    1TYR    SC1  172   3.188   7.024   6.541  0.1818 -0.2177  0.2321
    1TYR    SC2  173   3.443   7.032   6.455  0.1115 -0.0735  0.0278
    1TYR    SC3  174   3.273   6.843   6.361  0.0661  0.0123 -0.0661
    2THR     BB  175   2.678   7.064   6.568  0.1219 -0.0380  0.2151
    2THR    SC1  176   2.775   7.016   6.332  0.2047 -0.1483  0.2710
    3TYR     BB  177   2.396   6.855   6.616 -0.1729 -0.2622 -0.1882
    3TYR    SC1  178   2.403   6.662   6.357 -0.2912 -0.1652  0.2513
    3TYR    SC2  179   2.268   6.598   6.132  0.0172 -0.1716  0.0628
    3TYR    SC3  180   2.525   6.679   6.118 -0.0759  0.2161  0.3785
    1TYR     BB  181   4.868   1.477   1.407 -0.1419  0.4150 -0.2262
    1TYR    SC1  182   4.742   1.436   1.696 -0.2530 -0.3876  0.0565
    1TYR    SC2  183   4.494   1.436   1.803 -0.3366  0.2770 -0.0853
    1TYR    SC3  184   4.700   1.548   1.938 -0.0798 -0.3116  0.0535
    2THR     BB  185   4.660   1.293   1.209 -0.2663  0.0466 -0.2630
    2THR    SC1  186   4.806   1.133   1.066  0.0683  0.0432  0.0631
    3TYR     BB  187   4.327   1.327   1.023  0.0809  0.0663  0.2334
    3TYR    SC1  188   4.254   1.051   0.964 -0.3205 -0.1110  0.2125
    3TYR    SC2  189   4.260   0.786   1.011 -0.0189 -0.1554 -0.0319
    3TYR    SC3  190   4.042   0.898   0.899 -0.3175 -0.2199  0.4471
    1TYR     BB  191   3.332   5.984   6.704  0.0228  0.0109  0.0146
    1TYR    SC1  192   3.466   6.229   6.624  0.0129  0.0223  0.3462
    1TYR    SC2  193   3.718   6.302   6.555 -0.0486 -0.1485 -0.0970
    1TYR    SC3  194   3.532   6.491   6.608  0.0393 -0.0042 -0.2896
    2THR     BB  195   3.353   5.899   7.049  0.2199  0.1891  0.3605
    2THR    SC1  196   3.564   5.748   7.051  0.1170  0.0061 -0.2386
    3TYR     BB  197   3.185   5.959   7.296 -0.1876 -0.2712  0.0394
    3TYR    SC1  198   3.214   6.207   7.434 -0.1979 -0.0780 -0.0360
    3TYR    SC2  199   3.214   6.468   7.503 -0.1034 -0.0733 -0.0541
    3TYR    SC3  200   3.242   6.278   7.693 -0.3016 -0.0753 -0.0247
    1TYR     BB  201   4.574   6.670   4.579 -0.2040 -0.1461  0.0870
    1TYR    SC1  202   4.352   6.482   4.680  0.0061 -0.0278 -0.2934
    1TYR    SC2  203   4.164   6.289   4.653  0.1458 -0.2170  0.0192
    1TYR    SC3  204   4.319   6.297   4.874  0.4296  0.0052 -0.1783
    2THR     BB  205   4.771   6.745   4.846 -0.3340  0.1784 -0.0332
    2THR    SC1  206   4.638   6.694   5.064  0.1489  0.0581  0.2523
    3TYR     BB  207   5.124   6.752   4.989 -0.0935 -0.1501 -0.0431
    3TYR    SC1  208   5.272   6.483   4.973  0.2040  0.1283 -0.0138
    3TYR    SC2  209   5.276   6.229   4.880 -0.1625  0.0684  0.1124
    3TYR    SC3  210   5.446   6.303   5.075 -0.0436 -0.0752  0.0653
    1TYR     BB  211   4.333   3.038   2.251 -0.2953  0.0972 -0.0699
    1TYR    SC1  212   4.188   2.853   2.399 -0.0386  0.1926  0.1306
    1TYR    SC2  213   4.035   2.638   2.458  0.4443 -0.1211  0.3187
    1TYR    SC3  214   4.079   2.829   2.645  0.0735  0.1201  0.1742
    2THR     BB  215   4.535   3.221   2.471  0.0359  0.0118  0.1487
    2THR    SC1  216   4.396   3.242   2.690 -0.0503  0.1588  0.0815
    3TYR     BB  217   4.828   3.181   2.348  0.0520  0.1099  0.0435
    3TYR    SC1  218   5.068   3.355   2.413  0.3611 -0.1590  0.2422
    3TYR    SC2  219   5.134   3.558   2.577  0.3555  0.0449 -0.0001
    3TYR    SC3  220   5.327   3.415   2.455  0.3594 -0.1004  0.1714
    1TYR     BB  221   3.934   4.765   6.319  0.1675  0.0864  0.0388
    1TYR    SC1  222   4.036   4.538   6.131 -0.0101 -0.0401  0.0937
    1TYR    SC2  223   4.244   4.516   5.961  0.2893  0.3722  0.3809
    1TYR    SC3  224   4.195   4.320   6.141 -0.1525 -0.1689 -0.2672
    2THR     BB  225   3.673   4.807   6.523 -0.1011 -0.1635 -0.1538
    2THR    SC1  226   3.657   5.059   6.587  0.2048 -0.1954  0.0821
    3TYR     BB  227   3.553   4.586   6.732 -0.0237  0.2884  0.0138
    3TYR    SC1  228   3.308   4.472   6.922 -0.0627 -0.0065  0.1038
    3TYR    SC2  229   3.064   4.549   7.008  0.0301  0.3853  0.0412
    3TYR    SC3  230   3.163   4.308   7.081 -0.2655  0.3271  0.2768
    1TYR     BB  231   1.312   5.934   7.394  0.1024 -0.2155 -0.2633
    1TYR    SC1  232   1.062   6.024   7.221 -0.0754 -0.0050  0.0330
    1TYR    SC2  233   0.795   6.060   7.230 -0.0713 -0.0093  0.2057
    1TYR    SC3  234   0.916   6.006   6.995 -0.2025  0.1372  0.1019
    2THR     BB  235   1.545   6.116   7.241  0.1184  0.1337 -0.0686
    2THR    SC1  236   1.701   6.233   7.414 -0.1808 -0.0191  0.3247
    3TYR     BB  237   1.416   6.360   7.015 -0.1296  0.4256  0.1004
    3TYR    SC1  238   1.154   6.480   6.924  0.0380 -0.2238 -0.3834
    3TYR    SC2  239   0.885   6.459   6.952  0.0536  0.0949  0.2192
    3TYR    SC3  240   0.991   6.669   6.819  0.0121  0.0091  0.0468
    1TYR     BB  241   3.649   5.682   3.738  0.1785  0.2489  0.0467
    1TYR    SC1  242   3.765   5.441   3.567 -0.0655 -0.0363  0.3243
    1TYR    SC2  243   3.614   5.274   3.418 -0.2937  0.3110  0.1502
    1TYR    SC3  244   3.873   5.315   3.354 -0.2289  0.0194  0.2062
    2THR     BB  245   3.656   5.701   4.040 -0.1644  0.0179  0.0910
    2THR    SC1  246   3.724   5.528   4.222 -0.0604  0.0854  0.1173
    3TYR     BB  247   3.513   5.993   4.140  0.0438 -0.1352 -0.2545
    3TYR    SC1  248   3.686   6.259   4.011  0.3913  0.0168  0.0291
    3TYR    SC2  249   3.900   6.421   3.983  0.4064  0.0239  0.1772
    3TYR    SC3  250   3.915   6.163   3.905  0.2779  0.1672 -0.3773
    1TYR     BB  251   2.990   5.215   4.038  0.1435  0.3298 -0.0536
    1TYR    SC1  252   2.782   5.120   3.808 -0.0311 -0.3815  0.1382
    1TYR    SC2  253   2.573   5.104   3.639  0.0494  0.0816 -0.0231
    1TYR    SC3  254   2.819   5.033   3.555  0.0101 -0.1841  0.0742
    2THR     BB  255   3.280   5.296   3.878 -0.1857  0.0219  0.1443
    2THR    SC1  256   3.242   5.429   3.658  0.0809 -0.1037  0.0176
    3TYR     BB  257   3.529   5.175   3.975 -0.1383 -0.1977  0.2202
    3TYR    SC1  258   3.693   4.993   3.761  0.3048  0.1297 -0.4111
    3TYR    SC2  259   3.703   4.724   3.756  0.1167  0.1006  0.0840
    3TYR    SC3  260   3.890   4.868   3.626  0.1070 -0.2579 -0.3602
    1TYR     BB  261   5.960   2.818   3.425  0.2074 -0.0713 -0.1662
    1TYR    SC1  262   6.249   2.769   3.477  0.0933  0.2563  0.0989
    1TYR    SC2  263   6.511   2.789   3.415  0.0649 -0.0005 -0.1264
    1TYR    SC3  264   6.429   2.610   3.599  0.0494  0.1089 -0.0252
    2THR     BB  265   5.688   2.592   3.507  0.0913 -0.1056  0.0579
    2THR    SC1  266   5.597   2.713   3.718 -0.1667  0.2100 -0.2201
    3TYR     BB  267   5.654   2.341   3.304 -0.0836 -0.2207 -0.2219
    3TYR    SC1  268   5.429   2.203   3.131  0.0072 -0.2427  0.0110
    3TYR    SC2  269   5.185   2.088   3.148 -0.1601  0.0854 -0.0532
    3TYR    SC3  270   5.345   2.035   2.937 -0.2339 -0.0226 -0.0832
    1TYR     BB  271   2.709   4.928   5.748 -0.0001  0.2388 -0.0978
    1TYR    SC1  272   2.721   4.903   6.033 -0.2338 -0.1042 -0.0195
    1TYR    SC2  273   2.803   4.790   6.265 -0.1065  0.1345  0.0570
    1TYR    SC3  274   2.825   5.057   6.230  0.1316  0.0732 -0.3325
    2THR     BB  275   2.682   4.747   5.527  0.2994  0.1502  0.0596
    2THR    SC1  276   2.872   4.586   5.454  0.3169  0.0064  0.3966
    3TYR     BB  277   2.356   4.627   5.460 -0.0458  0.1896 -0.1023
    3TYR    SC1  278   2.175   4.561   5.188 -0.1416  0.1840 -0.1707
    3TYR    SC2  279   2.113   4.373   5.005 -0.3333  0.0449  0.0311
    3TYR    SC3  280   2.110   4.634   4.936  0.1199 -0.0250 -0.3044
    1TYR     BB  281   4.339   5.950   5.790  0.0036  0.1788  0.1113
    1TYR    SC1  282   4.108   5.818   5.847  0.0022  0.2155 -0.0224
    1TYR    SC2  283   3.902   5.742   6.003 -0.0949  0.3135 -0.1014
    1TYR    SC3  284   3.978   5.588   5.795 -0.1428  0.3181 -0.1224
    2THR     BB  285   4.314   6.292   5.883 -0.2645  0.1739  0.0572
    2THR    SC1  286   4.519   6.449   5.856 -0.2800  0.2002  0.0907
    3TYR     BB  287   3.978   6.369   5.752  0.1991 -0.3395 -0.0214
    3TYR    SC1  288   4.026   6.669   5.770  0.0434  0.0598 -0.2127
    3TYR    SC2  289   3.993   6.934   5.737 -0.0598  0.0436 -0.2436
    3TYR    SC3  290   4.238   6.835   5.791 -0.1029  0.2027  0.3248
    1TYR     BB  291   2.557   4.365   5.865 -0.1124  0.2591  0.3013
    1TYR    SC1  292   2.240   4.255   5.802 -0.0121  0.5102 -0.2118
    1TYR    SC2  293   2.045   4.269   5.616 -0.1840  0.1904 -0.0677
    1TYR    SC3  294   1.986   4.312   5.876  0.0399  0.5639 -0.0696
    2THR     BB  295   2.665   4.237   6.143 -0.3202 -0.2205  0.3404
    2THR    SC1  296   2.891   4.301   6.256 -0.1641  0.2149 -0.1629
    3TYR     BB  297   2.429   4.091   6.297  0.4984 -0.0712 -0.1682
    3TYR    SC1  298   2.148   4.208   6.271 -0.1419 -0.2399 -0.2193
    3TYR    SC2  299   1.887   4.153   6.316 -0.1219 -0.2279 -0.0812
    3TYR    SC3  300   1.986   4.397   6.375 -0.0298 -0.3032  0.0843
    1TYR     BB  301   5.346   1.401   2.284 -0.2698 -0.1676 -0.0052
    1TYR    SC1  302   5.609   1.534   2.154 -0.1398  0.1956  0.2956
    1TYR    SC2  303   5.816   1.631   2.010 -0.1551 -0.1774  0.0010
    1TYR    SC3  304   5.862   1.462   2.216 -0.1521  0.0910  0.2283
    2THR     BB  305   5.186   1.405   2.006  0.1305  0.0256  0.1232
    2THR    SC1  306   5.231   1.503   1.770  0.0359  0.0499  0.1148
    3TYR     BB  307   5.000   1.091   1.947 -0.0065 -0.0355 -0.2036
    3TYR    SC1  308   5.221   0.888   1.935  0.2650  0.1580 -0.0559
    3TYR    SC2  309   5.255   0.644   2.045 -0.0242  0.1981  0.1351
    3TYR    SC3  310   5.436   0.738   1.869  0.2440 -0.0321  0.2768
    1TYR     BB  311   6.462   1.311   3.072  0.2012  0.3260  0.0480
    1TYR    SC1  312   6.325   1.079   3.257  0.0177  0.3345  0.1189
    1TYR    SC2  313   6.142   0.922   3.378  0.1964  0.1312  0.1318
    1TYR    SC3  314   6.404   0.891   3.434  0.2710  0.1342 -0.1944
    2THR     BB  315   6.447   1.088   2.798  0.0298  0.3659  0.2708
    2THR    SC1  316   6.491   1.189   2.563 -0.0800  0.3503  0.2430
    3TYR     BB  317   6.407   0.766   2.895 -0.0946  0.1585  0.1713
    3TYR    SC1  318   6.089   0.771   2.861  0.0060 -0.1703 -0.0982
    3TYR    SC2  319   5.916   0.653   3.031 -0.0400 -0.0108 -0.0320
    3TYR    SC3  320   5.846   0.691   2.773  0.0561 -0.3149 -0.1077
    1TYR     BB  321   4.599   5.714   7.632 -0.0243 -0.3694  0.2440
    1TYR    SC1  322   4.608   6.014   7.526  0.2386  0.0037  0.2405
    1TYR    SC2  323   4.551   6.204   7.342  0.1145 -0.1752  0.0901
    1TYR    SC3  324   4.653   6.275   7.582  0.0554  0.0818  0.0430
    2THR     BB  325   4.589   5.597   7.279  0.0569 -0.1219 -0.0634
    2THR    SC1  326   4.603   5.339   7.304  0.0299 -0.1147  0.0264
    3TYR     BB  327   4.462   5.809   7.049  0.0705 -0.0745  0.1116
    3TYR    SC1  328   4.656   5.987   6.896 -0.2291 -0.0256 -0.0937
    3TYR    SC2  329   4.614   6.253   6.888  0.4921  0.1172  0.0542
    3TYR    SC3  330   4.800   6.141   6.728  0.0240 -0.3579 -0.1951
    1TYR     BB  331   1.457   5.005   5.788 -0.1138  0.0360  0.1384
    1TYR    SC1  332   1.214   5.184   5.786 -0.0068  0.1790  0.0075
    1TYR    SC2  333   0.955   5.156   5.722  0.0367 -0.0711 -0.0708
    1TYR    SC3  334   1.023   5.270   5.956 -0.1391  0.1135 -0.1056
    2THR     BB  335   1.346   4.726   5.601  0.2018 -0.1518 -0.0349
    2THR    SC1  336   1.305   4.802   5.356  0.1236 -0.1369 -0.0173
    3TYR     BB  337   1.478   4.414   5.746  0.3821  0.0334  0.5087
    3TYR    SC1  338   1.629   4.525   5.971 -0.5879 -0.0957  0.5097
    3TYR    SC2  339   1.795   4.678   6.118 -0.2943  0.0451  0.0590
    3TYR    SC3  340   1.543   4.630   6.204 -0.2610  0.4308  0.4118
    1TYR     BB  341   6.895   2.248   2.532  0.1639  0.2379  0.1115
    1TYR    SC1  342   6.640   2.220   2.690 -0.1407 -0.0214 -0.2114
    1TYR    SC2  343   6.441   2.088   2.816  0.1394 -0.2371  0.0227
    1TYR    SC3  344   6.524   2.328   2.908 -0.1029 -0.0756 -0.1640
    2THR     BB  345   6.994   1.975   2.433  0.1177  0.1642  0.0522
    2THR    SC1  346   7.054   1.939   2.183 -0.3090 -0.3802  0.0055
    3TYR     BB  347   7.147   1.813   2.718 -0.1675 -0.1277  0.2497
    3TYR    SC1  348   7.034   1.980   2.945  0.5225  0.0566  0.0371
    3TYR    SC2  349   6.952   2.221   3.035  0.3163 -0.0515  0.1489
    3TYR    SC3  350   6.808   2.000   3.092  0.4212 -0.1831 -0.0794
    1TYR     BB  351   4.040   1.780   2.819 -0.1492  0.0768  0.1203
    1TYR    SC1  352   3.854   1.812   2.584  0.1470  0.0864 -0.4570
    1TYR    SC2  353   3.813   1.847   2.320  0.0448  0.2262 -0.4246
    1TYR    SC3  354   3.605   1.862   2.491  0.0688 -0.1039 -0.3571
    2THR     BB  355   4.297   2.001   2.738 -0.2147  0.2295 -0.3139
    2THR    SC1  356   4.518   1.905   2.640 -0.0611  0.2793 -0.0291
    3TYR     BB  357   4.361   2.341   2.796  0.0860 -0.0865 -0.1325
    3TYR    SC1  358   4.574   2.369   3.031  0.1423  0.3256  0.2278
    3TYR    SC2  359   4.708   2.218   3.210  0.0137 -0.0039  0.0553
    3TYR    SC3  360   4.818   2.446   3.117  0.2565 -0.0371  0.2478
    1TYR     BB  361   4.175   3.167   1.755  0.0106  0.1483 -0.0101
    1TYR    SC1  362   4.307   3.431   1.930 -0.0720  0.1949  0.0369
    1TYR    SC2  363   4.258   3.620   2.117  0.1560  0.1656  0.1301
    1TYR    SC3  364   4.511   3.540   2.068  0.1078  0.2131 -0.2340
    2THR     BB  365   4.040   2.767   1.906  0.0638  0.2934  0.1508
    2THR    SC1  366   3.831   2.832   2.045 -0.0779  0.2322 -0.0295
    3TYR     BB  367   4.258   2.606   1.941  0.1064 -0.1068 -0.2500
    3TYR    SC1  368   4.475   2.627   2.119 -0.0876  0.1613  0.0722
    3TYR    SC2  369   4.590   2.569   2.356 -0.1853 -0.0075  0.0804
    3TYR    SC3  370   4.731   2.698   2.165 -0.0664  0.0171  0.1833
    1TYR     BB  371   3.542   4.652   4.682  0.1564  0.2696 -0.1910
    1TYR    SC1  372   3.389   4.903   4.595  0.2550 -0.0137 -0.0633
    1TYR    SC2  373   3.217   4.976   4.400  0.0084 -0.1090  0.1117
    1TYR    SC3  374   3.411   5.146   4.479  0.3338 -0.1921 -0.4414
    2THR     BB  375   3.753   4.587   4.441 -0.0828 -0.0439 -0.0968
    2THR    SC1  376   3.643   4.706   4.238 -0.3060  0.1341  0.1206
    3TYR     BB  377   4.056   4.454   4.383  0.0447 -0.1535  0.0254
    3TYR    SC1  378   4.047   4.362   4.095  0.0385 -0.3390  0.1498
    3TYR    SC2  379   4.042   4.447   3.839  0.2147 -0.2510  0.1736
    3TYR    SC3  380   3.948   4.202   3.902 -0.1311 -0.1504  0.0756
    1TYR     BB  381   6.029   1.891   2.394 -0.0492 -0.0820 -0.1620
    1TYR    SC1  382   6.324   2.011   2.287 -0.0884  0.1338  0.2539
    1TYR    SC2  383   6.531   2.182   2.258 -0.1627  0.1738 -0.1001
    1TYR    SC3  384   6.537   1.942   2.136 -0.2125  0.0651  0.1067
    2THR     BB  385   5.821   1.903   2.677 -0.0487 -0.2493  0.0810
    2THR    SC1  386   5.913   2.021   2.890  0.0953 -0.3153  0.0574
    3TYR     BB  387   5.658   1.646   2.698  0.2311 -0.1010 -0.1786
    3TYR    SC1  388   5.561   1.595   2.978 -0.0834 -0.0692  0.2791
    3TYR    SC2  389   5.316   1.634   3.084 -0.0619 -0.0480  0.3214
    3TYR    SC3  390   5.434   1.392   3.103 -0.2085 -0.1486  0.0309
    1TYR     BB  391   3.636   6.036   7.922  0.0374 -0.0890 -0.2501
    1TYR    SC1  392   3.862   6.012   8.116  0.0161  0.0259  0.1468
    1TYR    SC2  393   3.963   6.070   8.360  0.1619 -0.2678  0.1623
    1TYR    SC3  394   4.128   5.993   8.161  0.0929  0.3076 -0.1453
    2THR     BB  395   3.640   5.935   7.639  0.1356 -0.0386  0.0042
    2THR    SC1  396   3.720   6.036   7.413  0.1153  0.1998  0.0995
    3TYR     BB  397   3.481   5.623   7.558  0.0885 -0.0396 -0.2104
    3TYR    SC1  398   3.392   5.498   7.854 -0.3068 -0.3129  0.2984
    3TYR    SC2  399   3.487   5.560   8.099 -0.0791  0.0572  0.1272
    3TYR    SC3  400   3.227   5.494   8.068 -0.0914 -0.0865  0.4761
    1TYR     BB  401   4.683   1.940   0.304 -0.0200  0.1885 -0.3081
    1TYR    SC1  402   4.409   2.109   0.310  0.0689  0.2014 -0.4643
    1TYR    SC2  403   4.154   2.147   0.392  0.1580  0.0683 -0.0994
    1TYR    SC3  404   4.221   2.189   0.133 -0.2818 -0.1211 -0.2561
    2THR     BB  405   4.799   1.859   0.023  0.1779 -0.5530  0.4838
    2THR    SC1  406   5.027   1.903  -0.094 -0.1574 -0.0520 -0.0449
    3TYR     BB  407   4.496   1.862  -0.202  0.0259 -0.1531  0.2245
    3TYR    SC1  408   4.627   2.034  -0.472  0.1682  0.0904  0.2049
    3TYR    SC2  409   4.866   2.067  -0.593  0.0039  0.1927 -0.1073
    3TYR    SC3  410   4.644   2.173  -0.703 -0.2059 -0.0042  0.1125
    1TYR     BB  411   2.297   5.115   5.564 -0.0428  0.0805  0.1482
    1TYR    SC1  412   2.306   5.348   5.436  0.0202 -0.0528  0.1205
    1TYR    SC2  413   2.269   5.531   5.241  0.1231 -0.0877  0.0675
    1TYR    SC3  414   2.453   5.574   5.435  0.1375 -0.1283  0.0630
    2THR     BB  415   1.970   5.076   5.676  0.0556 -0.0072 -0.0527
    2THR    SC1  416   1.833   5.295   5.642 -0.0277 -0.0464  0.0244
    3TYR     BB  417   1.885   4.802   5.630  0.0534 -0.1147 -0.2147
    3TYR    SC1  418   1.833   4.625   5.446  0.1377  0.0155 -0.1093
    3TYR    SC2  419   1.735   4.633   5.194  0.0742  0.3427 -0.0806
    3TYR    SC3  420   1.747   4.399   5.328 -0.0235  0.1881 -0.3337
    1TYR     BB  421   1.705   5.628   5.294  0.0269 -0.1301 -0.3247
    1TYR    SC1  422   1.407   5.427   5.339 -0.1781  0.1434  0.4139
    1TYR    SC2  423   1.150   5.344   5.331 -0.1675  0.1147 -0.1541
    1TYR    SC3  424   1.228   5.557   5.184  0.1302  0.1509  0.0453
    2THR     BB  425   1.577   5.771   5.617  0.0723 -0.0987 -0.1595
    2THR    SC1  426   1.490   6.014   5.599  0.0450 -0.0997 -0.0469
    3TYR     BB  427   1.522   5.565   5.899 -0.0668  0.1266  0.0378
    3TYR    SC1  428   1.699   5.691   6.086 -0.1477 -0.1735  0.2770
    3TYR    SC2  429   1.719   5.820   6.323 -0.1065 -0.2548  0.3183
    3TYR    SC3  430   1.924   5.670   6.233 -0.0913 -0.1601  0.1927
    1TYR     BB  431   4.278   5.287   4.995  0.1659  0.2204 -0.3021
    1TYR    SC1  432   4.502   5.232   4.866  0.0479  0.0022  0.0265
    1TYR    SC2  433   4.685   5.365   4.719 -0.1181  0.1964 -0.0102
    1TYR    SC3  434   4.683   5.095   4.721  0.1177  0.1922 -0.0698
    2THR     BB  435   4.381   5.335   5.349 -0.1477  0.1964 -0.1542
    2THR    SC1  436   4.324   5.561   5.465 -0.0537 -0.0731  0.4674
    3TYR     BB  437   4.556   5.155   5.461  0.1624  0.2911  0.1431
    3TYR    SC1  438   4.763   5.066   5.258  0.0143  0.0834  0.0268
    3TYR    SC2  439   4.974   4.901   5.290  0.0237  0.0501 -0.1880
    3TYR    SC3  440   4.794   4.853   5.094 -0.1931  0.0694  0.0021
    1TYR     BB  441   3.982   4.368   6.670 -0.2847 -0.2623  0.0450
    1TYR    SC1  442   4.212   4.168   6.616 -0.2758 -0.1198  0.1252
    1TYR    SC2  443   4.392   4.056   6.449 -0.2904 -0.0748  0.0787
    1TYR    SC3  444   4.423   4.032   6.716 -0.0815  0.1350  0.0781
    2THR     BB  445   4.182   4.634   6.809  0.3091  0.1066 -0.0217
    2THR    SC1  446   4.291   4.590   7.042  0.0044 -0.2602  0.0642
    3TYR     BB  447   4.160   4.984   6.716  0.0071  0.2387 -0.2199
    3TYR    SC1  448   4.462   5.081   6.790  0.1659 -0.0489  0.0974
    3TYR    SC2  449   4.714   5.094   6.886  0.1618 -0.0463  0.1078
    3TYR    SC3  450   4.642   4.890   6.724  0.1928 -0.0037  0.0399
    1TYR     BB  451   5.740   4.713   5.837  0.0789  0.2889  0.0899
    1TYR    SC1  452   5.964   4.895   5.938 -0.4221  0.1082  0.2860
    1TYR    SC2  453   6.219   4.968   5.992 -0.2749 -0.2189  0.0747
    1TYR    SC3  454   6.061   4.871   6.189 -0.1141 -0.3581  0.1372
    2THR     BB  455   5.642   4.907   5.598 -0.3179  0.1898  0.0778
    2THR    SC1  456   5.481   4.790   5.430 -0.2123  0.3419 -0.1345
    3TYR     BB  457   5.769   5.158   5.547  0.5038  0.0272 -0.0412
    3TYR    SC1  458   5.995   5.296   5.699  0.1028 -0.0335  0.2475
    3TYR    SC2  459   6.261   5.317   5.738  0.1280  0.0510  0.0455
    3TYR    SC3  460   6.106   5.537   5.749  0.1374  0.0826 -0.3089
    1TYR     BB  461   4.696   2.820   2.796 -0.1957  0.0390 -0.0574
    1TYR    SC1  462   4.467   2.880   3.049 -0.0349 -0.3418  0.0303
    1TYR    SC2  463   4.228   2.866   3.174 -0.1080  0.1444 -0.0312
    1TYR    SC3  464   4.425   3.018   3.277  0.0049  0.1453 -0.2415
    2THR     BB  465   4.901   3.117   2.849  0.0919 -0.1475  0.1154
    2THR    SC1  466   4.788   3.287   3.010  0.1484  0.1489 -0.1449
    3TYR     BB  467   5.245   3.104   2.846  0.2223  0.1413  0.1134
    3TYR    SC1  468   5.369   3.116   3.142 -0.1237  0.0806 -0.2133
    3TYR    SC2  469   5.357   3.205   3.396  0.1306  0.4726 -0.3262
    3TYR    SC3  470   5.588   3.105   3.299 -0.0956 -0.1666 -0.2653
    1TYR     BB  471   4.913   3.121   1.438  0.3010 -0.1374 -0.1393
    1TYR    SC1  472   5.068   3.291   1.276 -0.2451 -0.1713 -0.3435
    1TYR    SC2  473   5.012   3.497   1.110 -0.0018  0.3806  0.2122
    1TYR    SC3  474   5.260   3.389   1.113 -0.1121  0.1034 -0.0345
    2THR     BB  475   4.767   2.979   1.632 -0.1044  0.0809  0.0105
    2THR    SC1  476   4.705   3.072   1.867  0.0946  0.1905  0.0224
    3TYR     BB  477   4.495   2.798   1.531  0.3977  0.1188 -0.0575
    3TYR    SC1  478   4.628   2.522   1.613  0.3974  0.4414 -0.2901
    3TYR    SC2  479   4.613   2.283   1.738 -0.1155  0.5628 -0.0873
    3TYR    SC3  480   4.798   2.465   1.815 -0.1242  0.4627  0.1857
    1TYR     BB  481   2.760   4.755   4.209 -0.5714  0.0033  0.2106
    1TYR    SC1  482   2.966   4.560   4.422 -0.0227 -0.0823  0.1047
    1TYR    SC2  483   3.203   4.432   4.399  0.1925  0.3043  0.0557
    1TYR    SC3  484   3.051   4.396   4.620  0.1150 -0.2197 -0.0642
    2THR     BB  485   2.958   4.616   3.934 -0.0391 -0.2879 -0.0208
    2THR    SC1  486   2.795   4.572   3.736 -0.0453 -0.0021 -0.0853
    3TYR     BB  487   3.242   4.724   3.867 -0.0794 -0.1189 -0.0100
    3TYR    SC1  488   3.234   4.878   3.594 -0.0496  0.3099  0.1139
    3TYR    SC2  489   3.172   4.796   3.345  0.5481  0.0547  0.0236
    3TYR    SC3  490   3.233   5.055   3.390  0.1020  0.1761 -0.0076
    1TYR     BB  491   5.328   2.468   1.211 -0.1035 -0.1103 -0.0122
    1TYR    SC1  492   5.389   2.198   1.195 -0.3701 -0.2664  0.2273
    1TYR    SC2  493   5.336   1.934   1.211 -0.1429 -0.3301  0.0006
    1TYR    SC3  494   5.579   2.018   1.129 -0.3302 -0.0520 -0.3015
    2THR     BB  495   5.081   2.566   1.362 -0.2829  0.1493  0.4173
    2THR    SC1  496   4.873   2.663   1.241 -0.1399  0.0524  0.0802
    3TYR     BB  497   5.188   2.766   1.634  0.1790 -0.1441  0.0770
    3TYR    SC1  498   5.375   2.942   1.534 -0.4362  0.4373 -0.2044
    3TYR    SC2  499   5.477   3.101   1.341 -0.2456  0.6540  0.0665
    3TYR    SC3  500   5.559   3.128   1.597 -0.0672 -0.0048  0.1016
    1TYR     BB  501   5.056   2.359  -0.267  0.1691  0.0357  0.2313
    1TYR    SC1  502   5.314   2.227  -0.337  0.0062  0.0135  0.0423
    1TYR    SC2  503   5.563   2.123  -0.321  0.0191  0.0019 -0.1887
    1TYR    SC3  504   5.512   2.325  -0.493 -0.1103  0.0708 -0.0721
    2THR     BB  505   4.904   2.348   0.077  0.0086 -0.2274  0.2696
    2THR    SC1  506   4.655   2.401   0.029  0.0623  0.1959  0.4112
    3TYR     BB  507   5.069   2.270   0.298  0.1689 -0.0436  0.1525
    3TYR    SC1  508   5.143   2.474   0.539  0.3165 -0.4477  0.5821
    3TYR    SC2  509   5.107   2.630   0.756  0.0345 -0.2279  0.3850
    3TYR    SC3  510   5.349   2.618   0.638  0.0303  0.1932  0.3133
    1TYR     BB  511   6.015   1.651   3.160  0.0480 -0.2583  0.0282
    1TYR    SC1  512   5.782   1.666   3.328 -0.1269 -0.2399 -0.0009
    1TYR    SC2  513   5.595   1.856   3.365  0.1014 -0.0098  0.0060
    1TYR    SC3  514   5.667   1.697   3.571  0.4089  0.3723  0.2111
    2THR     BB  515   6.249   1.669   3.436 -0.2039 -0.1086  0.1956
    2THR    SC1  516   6.471   1.725   3.313 -0.2495  0.2176  0.2501
    3TYR     BB  517   6.226   1.397   3.615 -0.2744 -0.2904 -0.0345
    3TYR    SC1  518   5.949   1.254   3.558 -0.0321  0.2555 -0.0234
    3TYR    SC2  519   5.734   1.108   3.482  0.1060 -0.0746  0.1939
    3TYR    SC3  520   5.751   1.203   3.735  0.0644  0.2449  0.0828
    1TYR     BB  521   3.851   5.575   5.209  0.0888  0.0080 -0.1148
    1TYR    SC1  522   3.873   5.367   5.416  0.0277  0.0246 -0.0133
    1TYR    SC2  523   3.801   5.190   5.607  0.2558  0.0942  0.1423
    1TYR    SC3  524   3.965   5.114   5.406  0.1171  0.0541  0.0431
    2THR     BB  525   3.841   5.881   5.160 -0.2182 -0.1687 -0.3509
    2THR    SC1  526   3.910   6.024   4.954  0.0096 -0.0185 -0.1769
    3TYR     BB  527   4.037   6.046   5.411  0.2325  0.2406  0.4474
    3TYR    SC1  528   4.290   6.112   5.325  0.0572  0.0644 -0.0963
    3TYR    SC2  529   4.548   6.047   5.279  0.0892 -0.1953  0.3779
    3TYR    SC3  530   4.485   6.297   5.358  0.1444 -0.0335 -0.0558
    1TYR     BB  531   4.086   1.846   1.115 -0.2269 -0.0913  0.0689
    1TYR    SC1  532   4.259   1.882   0.866  0.0139 -0.0944 -0.4679
    1TYR    SC2  533   4.386   1.744   0.672  0.6403 -0.1720 -0.0426
    1TYR    SC3  534   4.483   1.982   0.752  0.2077  0.0085 -0.0236
    2THR     BB  535   4.251   1.657   1.351  0.0517 -0.0648  0.0959
    2THR    SC1  536   4.462   1.781   1.439 -0.0805  0.2331  0.0074
    3TYR     BB  537   4.108   1.402   1.472 -0.0659 -0.0990 -0.4444
    3TYR    SC1  538   4.060   1.418   1.739 -0.0368 -0.2872  0.0399
    3TYR    SC2  539   4.029   1.319   1.988  0.4221 -0.0288  0.2158
    3TYR    SC3  540   3.933   1.564   1.927  0.1606 -0.1600  0.0781
    1TYR     BB  541   6.470   1.943   1.261 -0.0791 -0.2199 -0.2814
    1TYR    SC1  542   6.359   1.709   1.222 -0.0676 -0.0075 -0.1239
    1TYR    SC2  543   6.216   1.589   1.027 -0.3111  0.1215 -0.0298
    1TYR    SC3  544   6.343   1.440   1.214 -0.3985  0.0060 -0.0612
    2THR     BB  545   6.338   2.258   1.232 -0.1891  0.0220 -0.1997
    2THR    SC1  546   6.083   2.217   1.262 -0.1972  0.2161  0.0305
    3TYR     BB  547   6.504   2.556   1.245 -0.0492  0.0750  0.2427
    3TYR    SC1  548   6.728   2.554   1.428 -0.0614  0.2010  0.2501
    3TYR    SC2  549   6.925   2.422   1.558  0.1568 -0.1171 -0.3551
    3TYR    SC3  550   6.901   2.689   1.586  0.2758 -0.1492  0.2001
    1TYR     BB  551   4.119   6.443   7.328 -0.1754  0.2238 -0.0298
    1TYR    SC1  552   4.137   6.243   7.553  0.1826  0.0966 -0.1058
    1TYR    SC2  553   4.123   6.026   7.713  0.5592 -0.1589 -0.3990
    1TYR    SC3  554   4.261   6.243   7.793 -0.0934  0.1335  0.0427
    2THR     BB  555   4.125   6.244   7.066  0.1322 -0.0079 -0.0274
    2THR    SC1  556   3.994   6.025   7.014 -0.2893  0.1798  0.1866
    3TYR     BB  557   4.129   6.454   6.811  0.2859 -0.3268  0.0900
    3TYR    SC1  558   3.923   6.654   6.734 -0.0246 -0.0446  0.0085
    3TYR    SC2  559   3.732   6.838   6.785 -0.0995 -0.1211  0.0056
    3TYR    SC3  560   3.869   6.846   6.552  0.1475  0.1458  0.1516
    1TYR     BB  561   5.295   2.682   0.109  0.2098 -0.3114 -0.1266
    1TYR    SC1  562   5.561   2.601   0.008 -0.1325  0.2692 -0.0592
    1TYR    SC2  563   5.778   2.722  -0.098 -0.1196  0.3898  0.1010
    1TYR    SC3  564   5.757   2.453  -0.104  0.1258  0.3634  0.2514
    2THR     BB  565   5.401   3.009   0.324 -0.0030 -0.0146 -0.2814
    2THR    SC1  566   5.657   3.015   0.369 -0.0577 -0.1015  0.0835
    3TYR     BB  567   5.187   3.171   0.474  0.1471  0.1040 -0.1613
    3TYR    SC1  568   5.295   3.073   0.785  0.3084  0.0159 -0.0346
    3TYR    SC2  569   5.246   2.946   1.018 -0.0602 -0.0349 -0.1326
    3TYR    SC3  570   5.495   2.946   0.915  0.0449 -0.2728  0.1063
    1TYR     BB  571   4.014   4.666   5.568  0.1772 -0.1732  0.0674
    1TYR    SC1  572   4.128   4.905   5.730 -0.2640  0.0433  0.1840
    1TYR    SC2  573   4.197   4.966   5.985  0.1221 -0.1438  0.1339
    1TYR    SC3  574   4.173   5.162   5.801 -0.2988  0.0087  0.3360
    2THR     BB  575   3.645   4.634   5.402  0.0458  0.1845 -0.0113
    2THR    SC1  576   3.665   4.729   5.161 -0.3149  0.3292  0.0075
    3TYR     BB  577   3.431   4.505   5.478  0.1336  0.5330  0.0147
    3TYR    SC1  578   3.313   4.258   5.422 -0.1443 -0.1612  0.3547
    3TYR    SC2  579   3.073   4.145   5.369 -0.1213  0.0338 -0.2676
    3TYR    SC3  580   3.301   4.007   5.322 -0.1006 -0.0171 -0.0335
    1TYR     BB  581   5.128   5.681   5.604 -0.1538  0.2720 -0.0917
    1TYR    SC1  582   5.293   5.960   5.619 -0.0644  0.2950  0.0180
    1TYR    SC2  583   5.411   6.162   5.754 -0.0444  0.3723 -0.1125
    1TYR    SC3  584   5.425   6.154   5.485 -0.1979  0.2929 -0.1194
    2THR     BB  585   4.831   5.688   5.688  0.2911 -0.3515 -0.1011
    2THR    SC1  586   4.668   5.536   5.822 -0.0436 -0.1486 -0.2607
    3TYR     BB  587   4.773   6.021   5.682 -0.0606 -0.1266 -0.1545
    3TYR    SC1  588   4.932   6.173   5.498  0.5294 -0.1258  0.0721
    3TYR    SC2  589   5.029   6.096   5.258  0.3140  0.1790 -0.1224
    3TYR    SC3  590   5.000   6.358   5.314 -0.3198  0.1128 -0.0546
    1TYR     BB  591   4.201   5.238   7.668 -0.0361  0.0128 -0.1322
    1TYR    SC1  592   4.062   4.981   7.749  0.1979 -0.3205 -0.1811
    1TYR    SC2  593   3.958   4.792   7.585 -0.0419 -0.3445 -0.0081
    1TYR    SC3  594   3.949   4.759   7.853 -0.5359  0.1201  0.0547
    2THR     BB  595   4.005   5.504   7.577 -0.0601 -0.0186  0.0874
    2THR    SC1  596   3.928   5.609   7.803  0.0480 -0.0807  0.1544
    3TYR     BB  597   4.056   5.644   7.332  0.0273  0.0346  0.1708
    3TYR    SC1  598   4.056   5.541   7.030  0.3026  0.0913 -0.2258
    3TYR    SC2  599   4.083   5.466   6.772  0.0218 -0.0400 -0.2214
    3TYR    SC3  600   3.859   5.401   6.909  0.1477  0.0673  0.0433
    1TYR     BB  601   3.656   4.769   5.898 -0.0032  0.0837  0.0182
    1TYR    SC1  602   3.552   4.564   6.097  0.0372  0.1718  0.0209
    1TYR    SC2  603   3.658   4.363   6.243  0.1028  0.4331  0.3494
    1TYR    SC3  604   3.401   4.437   6.282  0.0579  0.3723  0.1800
    2THR     BB  605   3.565   5.061   6.083  0.2323 -0.2117  0.0911
    2THR    SC1  606   3.760   5.232   6.090 -0.0761  0.1792 -0.2626
    3TYR     BB  607   3.312   5.182   6.271  0.1033 -0.2028  0.0217
    3TYR    SC1  608   3.164   4.952   6.494  0.0092 -0.1449 -0.2304
    3TYR    SC2  609   2.982   4.868   6.675  0.0468 -0.0016 -0.1240
    3TYR    SC3  610   3.119   4.688   6.528  0.3113 -0.1454  0.2806
    1TYR     BB  611   6.203   1.212   1.782 -0.2772 -0.0414  0.2955
    1TYR    SC1  612   5.879   1.180   1.859 -0.0084 -0.1529  0.0887
    1TYR    SC2  613   5.635   1.156   1.747  0.0498 -0.3592 -0.0005
    1TYR    SC3  614   5.669   1.101   2.009 -0.0584 -0.0162  0.0927
    2THR     BB  615   6.315   1.461   1.900  0.4433  0.0458 -0.0162
    2THR    SC1  616   6.371   1.453   2.153  0.2223  0.1601  0.0393
    3TYR     BB  617   6.346   1.725   1.690 -0.1007  0.1114  0.2880
    3TYR    SC1  618   6.053   1.683   1.569  0.0081 -0.1158  0.0564
    3TYR    SC2  619   5.914   1.679   1.338  0.1744 -0.0883 -0.0458
    3TYR    SC3  620   5.831   1.531   1.548  0.0124 -0.1002 -0.1166
    1TYR     BB  621   6.031   2.060   1.901  0.0391  0.1464 -0.0090
    1TYR    SC1  622   6.048   2.334   2.017  0.1258  0.3576 -0.1041
    1TYR    SC2  623   5.915   2.524   2.154 -0.0374  0.2545 -0.1166
    1TYR    SC3  624   6.185   2.519   2.158 -0.0364  0.1712  0.3176
    2THR     BB  625   5.724   2.085   1.735  0.0507 -0.1283  0.2240
    2THR    SC1  626   5.555   1.911   1.643 -0.1007  0.0036  0.2467
    3TYR     BB  627   5.713   2.386   1.566 -0.1768  0.1631 -0.1299
    3TYR    SC1  628   5.919   2.608   1.640 -0.0007  0.0589 -0.4093
    3TYR    SC2  629   5.980   2.830   1.782 -0.1497 -0.2468  0.1737
    3TYR    SC3  630   6.156   2.733   1.601  0.1176  0.0845  0.2430
    1TYR     BB  631   4.660   5.807   6.254 -0.1729  0.5043 -0.0339
    1TYR    SC1  632   4.686   6.098   6.299 -0.0837  0.1251 -0.1055
    1TYR    SC2  633   4.799   6.344   6.288  0.1668  0.0346  0.2440
    1TYR    SC3  634   4.541   6.316   6.364  0.1866  0.1794  0.3702
    2THR     BB  635   4.776   5.673   6.531 -0.0737 -0.2367 -0.2164
    2THR    SC1  636   4.621   5.501   6.649  0.0938 -0.1524  0.1453
    3TYR     BB  637   5.079   5.751   6.599  0.3354 -0.5018 -0.3091
    3TYR    SC1  638   5.128   5.600   6.851 -0.1146 -0.0256 -0.1724
    3TYR    SC2  639   5.186   5.530   7.106 -0.1935  0.0716 -0.1272
    3TYR    SC3  640   5.070   5.351   6.940 -0.2165  0.0338 -0.0707
    1TYR     BB  641   2.399   5.556   6.902  0.3245  0.0935 -0.2074
    1TYR    SC1  642   2.317   5.551   7.197 -0.2610 -0.0028 -0.1429
    1TYR    SC2  643   2.201   5.643   7.423  0.2975  0.0112  0.1586
    1TYR    SC3  644   2.252   5.379   7.394  0.1648 -0.0001  0.0129
    2THR     BB  645   2.659   5.841   6.865  0.1478 -0.1256 -0.2244
    2THR    SC1  646   2.905   5.756   6.871  0.1843 -0.0150  0.0996
    3TYR     BB  647   2.563   6.044   7.132 -0.0045  0.2989  0.1581
    3TYR    SC1  648   2.244   6.053   7.083  0.0098  0.3855  0.0686
    3TYR    SC2  649   1.992   5.955   7.094  0.0941  0.1716  0.1321
    3TYR    SC3  650   2.036   6.202   6.996 -0.1146  0.1171 -0.1110
    1TYR     BB  651   3.389   6.359   5.765  0.2769  0.2545  0.0423
    1TYR    SC1  652   3.471   6.639   5.680  0.2744  0.0012  0.0644
    1TYR    SC2  653   3.636   6.812   5.555  0.0630  0.2967  0.1780
    1TYR    SC3  654   3.379   6.880   5.600 -0.0933 -0.1442  0.0237
    2THR     BB  655   3.542   6.118   5.844  0.3469 -0.0912  0.1993
    2THR    SC1  656   3.635   5.961   5.660 -0.0805 -0.1616  0.0266
    3TYR     BB  657   3.536   6.033   6.200 -0.0973 -0.1549  0.0012
    3TYR    SC1  658   3.650   5.823   6.382 -0.0770 -0.0922 -0.0570
    3TYR    SC2  659   3.754   5.757   6.622 -0.0397 -0.2446 -0.1137
    3TYR    SC3  660   3.760   5.579   6.419 -0.0660 -0.1152 -0.2296
    1TYR     BB  661   4.438   3.223   1.330  0.0964 -0.0207  0.0802
    1TYR    SC1  662   4.180   3.331   1.221  0.0430 -0.1271 -0.0305
    1TYR    SC2  663   3.915   3.282   1.230  0.0174  0.0234  0.0913
    1TYR    SC3  664   4.013   3.461   1.054  0.1001 -0.3746 -0.2897
    2THR     BB  665   4.547   3.038   1.088 -0.0287  0.3369 -0.2629
    2THR    SC1  666   4.409   2.821   1.051  0.2128  0.0288  0.4355
    3TYR     BB  667   4.784   3.075   0.916 -0.1678  0.0074  0.2749
    3TYR    SC1  668   4.778   2.931   0.654  0.0206  0.0482 -0.1705
    3TYR    SC2  669   4.593   2.838   0.481  0.2236 -0.0114 -0.3618
    3TYR    SC3  670   4.855   2.811   0.425  0.3014 -0.2172  0.0525
    1TYR     BB  671   4.294   4.775   5.174 -0.1642 -0.1058  0.3232
    1TYR    SC1  672   4.441   4.666   4.886 -0.0233 -0.0412 -0.0242
    1TYR    SC2  673   4.668   4.562   4.784  0.0219 -0.0656  0.0993
    1TYR    SC3  674   4.430   4.449   4.726 -0.0178  0.2491 -0.4405
    2THR     BB  675   4.516   4.626   5.383 -0.0050 -0.1662 -0.1044
    2THR    SC1  676   4.694   4.444   5.329  0.1857 -0.0150 -0.0016
    3TYR     BB  677   4.619   4.757   5.726 -0.3123 -0.2781 -0.1549
    3TYR    SC1  678   4.743   4.510   5.858  0.0890  0.1651  0.1138
    3TYR    SC2  679   4.691   4.318   6.040 -0.1756  0.1237  0.0002
    3TYR    SC3  680   4.876   4.276   5.849  0.0001  0.1117  0.1686
    1TYR     BB  681   5.275   2.304   1.718 -0.0583 -0.2687 -0.2422
    1TYR    SC1  682   5.081   2.126   1.586  0.0445 -0.2839 -0.1448
    1TYR    SC2  683   4.935   2.029   1.381 -0.1782  0.0288 -0.1416
    1TYR    SC3  684   4.906   1.924   1.628 -0.0501 -0.2200 -0.2282
    2THR     BB  685   5.307   2.417   2.014 -0.0429 -0.2338 -0.1998
    2THR    SC1  686   5.486   2.598   2.066 -0.2457 -0.0936  0.0394
    3TYR     BB  687   5.101   2.360   2.189  0.1435  0.0574 -0.1643
    3TYR    SC1  688   4.867   2.185   2.132  0.0090 -0.2031 -0.0956
    3TYR    SC2  689   4.627   2.099   2.223 -0.2636  0.3227 -0.2676
    3TYR    SC3  690   4.760   1.956   2.036 -0.2670 -0.1496  0.0710
    1TYR     BB  691   4.361   0.971   1.443  0.2472  0.0179 -0.2540
    1TYR    SC1  692   4.080   0.852   1.545 -0.0754 -0.2812 -0.1641
    1TYR    SC2  693   3.896   1.006   1.668  0.0814  0.0166 -0.2886
    1TYR    SC3  694   3.915   0.743   1.729  0.0068  0.1032  0.1553
    2THR     BB  695   4.589   0.935   1.646 -0.2261 -0.2232  0.0443
    2THR    SC1  696   4.805   0.851   1.528 -0.0691  0.1650  0.0343
    3TYR     BB  697   4.492   0.953   1.944  0.1945  0.0121  0.0509
    3TYR    SC1  698   4.189   0.913   2.075 -0.3249 -0.1961  0.0570
    3TYR    SC2  699   3.934   0.900   2.164 -0.3773 -0.1316 -0.0806
    3TYR    SC3  700   4.122   1.027   2.310 -0.4435 -0.1016 -0.0211
    1TYR     BB  701   4.191   2.397   0.859  0.3315  0.2324 -0.0333
    1TYR    SC1  702   4.453   2.441   0.727  0.2870 -0.1859 -0.4233
    1TYR    SC2  703   4.710   2.465   0.806  0.2368 -0.0252 -0.3017
    1TYR    SC3  704   4.652   2.428   0.545  0.3794  0.0201 -0.3406
    2THR     BB  705   4.275   2.376   1.217 -0.0442  0.1178 -0.1592
    2THR    SC1  706   4.500   2.252   1.177  0.0062  0.2393 -0.2613
    3TYR     BB  707   4.131   2.322   1.544  0.1400 -0.0136 -0.0271
    3TYR    SC1  708   3.890   2.125   1.518 -0.3125 -0.0842 -0.0265
    3TYR    SC2  709   3.827   1.867   1.571  0.0806 -0.2191 -0.1690
    3TYR    SC3  710   3.660   2.020   1.424 -0.1000 -0.4282 -0.1866
    1TYR     BB  711   5.510   5.734   6.145  0.1825  0.0555 -0.0662
    1TYR    SC1  712   5.609   5.754   5.866 -0.1161 -0.1397  0.0969
    1TYR    SC2  713   5.624   5.604   5.642 -0.1404 -0.0115  0.0081
    1TYR    SC3  714   5.737   5.849   5.648 -0.0943 -0.0353  0.1546
    2THR     BB  715   5.132   5.772   6.079 -0.1578 -0.0783  0.1280
    2THR    SC1  716   5.140   6.026   6.133  0.1041 -0.0937  0.1798
    3TYR     BB  717   5.055   5.519   6.131 -0.1651  0.0509  0.1364
    3TYR    SC1  718   5.151   5.352   6.341 -0.1378  0.1140 -0.1057
    3TYR    SC2  719   5.065   5.191   6.540  0.0745  0.2664  0.1168
    3TYR    SC3  720   5.262   5.108   6.375 -0.1101  0.1350 -0.0432
    1TYR     BB  721   5.528   1.243   0.464 -0.0390  0.0665 -0.2385
    1TYR    SC1  722   5.727   1.244   0.279 -0.1086  0.2092 -0.1362
    1TYR    SC2  723   5.856   1.098   0.092 -0.1681  0.3311 -0.2748
    1TYR    SC3  724   5.993   1.274   0.245 -0.0464 -0.0498  0.0781
    2THR     BB  725   5.356   1.041   0.739 -0.1709 -0.0004  0.1460
    2THR    SC1  726   5.207   1.237   0.822  0.0739  0.2335  0.0560
    3TYR     BB  727   5.579   0.901   0.926  0.4222  0.0548 -0.0714
    3TYR    SC1  728   5.793   1.031   1.129  0.0635  0.0415 -0.2804
    3TYR    SC2  729   5.855   1.123   1.375  0.0162  0.2763 -0.3540
    3TYR    SC3  730   6.017   1.177   1.166  0.1153 -0.0175 -0.3578
    1TYR     BB  731   2.861   4.881   4.752 -0.1254 -0.1132 -0.1421
    1TYR    SC1  732   3.088   4.761   4.871  0.1356  0.1176 -0.0920
    1TYR    SC2  733   3.198   4.792   5.116  0.1152 -0.0573 -0.0594
    1TYR    SC3  734   3.135   4.545   5.026 -0.2394  0.0342 -0.0818
    2THR     BB  735   2.557   4.616   4.742 -0.2039  0.1207  0.0749
    2THR    SC1  736   2.426   4.571   4.521  0.1194  0.2146 -0.1442
    3TYR     BB  737   2.635   4.491   4.984 -0.1935  0.2985 -0.0057
    3TYR    SC1  738   2.530   4.271   5.170  0.1569 -0.2593 -0.1441
    3TYR    SC2  739   2.617   4.159   5.400  0.1342  0.0364  0.0154
    3TYR    SC3  740   2.356   4.151   5.337  0.1199  0.0751  0.0694
    1TYR     BB  741   3.901   3.897   4.843  0.2631 -0.4102  0.3382
    1TYR    SC1  742   4.121   4.015   4.635 -0.0388 -0.1421 -0.2919
    1TYR    SC2  743   4.389   3.993   4.616 -0.0201 -0.1036 -0.0935
    1TYR    SC3  744   4.239   4.009   4.392  0.1384 -0.1705 -0.2065
    2THR     BB  745   3.617   4.113   4.673 -0.1720  0.0433 -0.0949
    2THR    SC1  746   3.437   4.158   4.855 -0.0681  0.0689  0.0026
    3TYR     BB  747   3.713   4.064   4.376  0.0779 -0.0591 -0.0069
    3TYR    SC1  748   3.536   4.142   4.168  0.1461 -0.0041 -0.1014
    3TYR    SC2  749   3.298   4.080   4.057  0.1755 -0.2168 -0.0512
    3TYR    SC3  750   3.433   4.299   3.974 -0.2062  0.1213  0.1732
    1TYR     BB  751   2.788   6.376   5.702  0.2651  0.0020 -0.1763
    1TYR    SC1  752   2.784   6.681   5.683  0.0700  0.1029  0.2057
    1TYR    SC2  753   2.662   6.886   5.555  0.0176 -0.1589 -0.1862
    1TYR    SC3  754   2.760   6.921   5.805 -0.2384  0.2559 -0.1327
    2THR     BB  755   2.540   6.240   5.814 -0.2065 -0.1356 -0.0073
    2THR    SC1  756   2.300   6.313   5.742 -0.2009 -0.1727 -0.0641
    3TYR     BB  757   2.577   5.936   5.847 -0.0294 -0.2181 -0.1865
    3TYR    SC1  758   2.324   5.827   5.798 -0.0014  0.1145  0.1676
    3TYR    SC2  759   2.060   5.882   5.813 -0.0194  0.0197  0.2098
    3TYR    SC3  760   2.142   5.626   5.786  0.0634  0.0614  0.0531
    1TYR     BB  761   2.667   5.189   4.451  0.2420  0.0467 -0.0003
    1TYR    SC1  762   2.463   5.124   4.214  0.2640 -0.2104 -0.0144
    1TYR    SC2  763   2.324   5.266   4.031  0.1204 -0.1241  0.1578
    1TYR    SC3  764   2.319   4.996   4.024  0.2432 -0.1241 -0.0577
    2THR     BB  765   2.853   5.374   4.527 -0.0571 -0.0166 -0.1713
    2THR    SC1  766   3.012   5.332   4.729 -0.1432  0.0102 -0.0976
    3TYR     BB  767   2.795   5.750   4.579  0.0191  0.1533  0.4482
    3TYR    SC1  768   2.959   5.954   4.444  0.1857 -0.1349 -0.4185
    3TYR    SC2  769   3.168   6.125   4.462 -0.0281  0.0977  0.0891
    3TYR    SC3  770   2.976   6.166   4.277 -0.0038  0.3264  0.1108
    1TYR     BB  771   5.432   1.460   1.267  0.0269 -0.2103  0.1352
    1TYR    SC1  772   5.396   1.167   1.338 -0.2138 -0.0848  0.1228
    1TYR    SC2  773   5.277   0.926   1.313 -0.1106 -0.1602  0.3331
    1TYR    SC3  774   5.263   1.059   1.547 -0.1933  0.0549  0.2089
    2THR     BB  775   5.641   1.521   0.943  0.1281  0.0491 -0.1139
    2THR    SC1  776   5.466   1.627   0.782 -0.0303  0.0671  0.0656
    3TYR     BB  777   5.923   1.355   0.735  0.2179 -0.1858 -0.1041
    3TYR    SC1  778   6.001   1.026   0.654 -0.0814 -0.1272 -0.1144
    3TYR    SC2  779   5.969   0.776   0.556 -0.0781 -0.1620 -0.0291
    3TYR    SC3  780   6.115   0.815   0.779  0.0213 -0.0693 -0.1085
    1TYR     BB  781   5.151   1.398   0.080 -0.1077 -0.1728  0.0611
    1TYR    SC1  782   5.406   1.484  -0.038 -0.0079  0.0994 -0.3119
    1TYR    SC2  783   5.511   1.730  -0.079  0.1013  0.1221  0.0578
    1TYR    SC3  784   5.672   1.514  -0.072  0.0437  0.0777  0.0297
    2THR     BB  785   5.154   1.574   0.371  0.1053 -0.0679 -0.0242
    2THR    SC1  786   5.219   1.826   0.370 -0.0135 -0.0366 -0.0923
    3TYR     BB  787   4.830   1.560   0.551  0.1012 -0.1319  0.0044
    3TYR    SC1  788   4.805   1.633   0.842  0.0613 -0.2326  0.0474
    3TYR    SC2  789   4.762   1.841   1.008  0.0925  0.1811 -0.4323
    3TYR    SC3  790   5.006   1.725   0.997  0.0166 -0.0463 -0.0026
    1TYR     BB  791   3.087   5.207   5.859  0.1899  0.0274 -0.1193
    1TYR    SC1  792   3.267   5.409   5.830  0.0502  0.0034 -0.0999
    1TYR    SC2  793   3.512   5.476   5.738  0.0628  0.1917  0.0626
    1TYR    SC3  794   3.387   5.634   5.917 -0.3274  0.2882 -0.2762
    2THR     BB  795   3.201   4.915   5.692 -0.0746  0.0087 -0.2212
    2THR    SC1  796   3.359   5.004   5.506  0.0890 -0.3130 -0.2450
    3TYR     BB  797   3.114   4.636   5.899  0.0872 -0.0690 -0.0791
    3TYR    SC1  798   3.135   4.348   5.824 -0.0251  0.1421  0.1651
    3TYR    SC2  799   3.324   4.156   5.847 -0.0531  0.0891 -0.0238
    3TYR    SC3  800   3.069   4.088   5.787 -0.0603  0.1855 -0.1047
    1TYR     BB  801   5.816   2.490   0.391  0.0298 -0.2338 -0.1344
    1TYR    SC1  802   6.007   2.323   0.224 -0.3955  0.0121 -0.0893
    1TYR    SC2  803   6.014   2.146   0.021 -0.1059  0.1434 -0.2002
    1TYR    SC3  804   6.206   2.142   0.210 -0.3191  0.0862  0.0217
    2THR     BB  805   5.593   2.205   0.413 -0.0356 -0.2949 -0.0163
    2THR    SC1  806   5.551   2.120   0.171 -0.2456 -0.1701 -0.0273
    3TYR     BB  807   5.494   2.108   0.663 -0.0755 -0.0985  0.1115
    3TYR    SC1  808   5.224   2.107   0.796 -0.0228  0.0857 -0.0100
    3TYR    SC2  809   5.030   2.183   0.967 -0.0477 -0.6311  0.3269
    3TYR    SC3  810   4.964   2.079   0.727 -0.0295 -0.1661  0.1053
    1TYR     BB  811   3.844   6.623   4.887  0.0538  0.1015 -0.0776
    1TYR    SC1  812   3.766   6.432   4.697 -0.1232 -0.0288  0.0011
    1TYR    SC2  813   3.721   6.204   4.560 -0.1357 -0.0863  0.1000
    1TYR    SC3  814   3.603   6.433   4.482 -0.2003 -0.1335  0.0580
    2THR     BB  815   3.934   6.521   5.153  0.0359 -0.0508  0.1273
    2THR    SC1  816   4.097   6.625   5.326 -0.0898  0.5108 -0.0641
    3TYR     BB  817   3.692   6.405   5.273  0.3247  0.0271 -0.3015
    3TYR    SC1  818   3.472   6.328   5.078  0.1949  0.0546  0.1301
    3TYR    SC2  819   3.432   6.167   4.865 -0.0676  0.2087  0.0572
    3TYR    SC3  820   3.301   6.403   4.883  0.4621  0.5251  0.0556
    1TYR     BB  821   5.397   5.773   5.147 -0.4129 -0.2740  0.3848
    1TYR    SC1  822   5.572   5.668   4.895  0.1720 -0.2602  0.1126
    1TYR    SC2  823   5.793   5.663   4.740  0.0023  0.0281 -0.1517
    1TYR    SC3  824   5.564   5.549   4.653  0.0194 -0.2022  0.0879
    2THR     BB  825   5.083   5.691   5.011  0.1554 -0.2621 -0.2934
    2THR    SC1  826   5.072   5.796   4.773 -0.0596  0.2231 -0.0842
    3TYR     BB  827   4.811   5.600   5.200  0.2920 -0.1467  0.1749
    3TYR    SC1  828   4.560   5.671   5.049 -0.0245 -0.1164 -0.0308
    3TYR    SC2  829   4.527   5.775   4.802  0.1845  0.2423  0.0840
    3TYR    SC3  830   4.335   5.807   4.988  0.2696  0.4890  0.1353
    1TYR     BB  831   4.320   5.367   4.325  0.0960 -0.1671 -0.4204
    1TYR    SC1  832   4.204   5.356   4.073  0.1907  0.3568  0.1275
    1TYR    SC2  833   4.126   5.241   3.842 -0.1359 -0.0238  0.4096
    1TYR    SC3  834   4.082   5.505   3.883  0.1036  0.0969 -0.0259
    2THR     BB  835   4.172   5.516   4.541  0.2578 -0.0117  0.2021
    2THR    SC1  836   3.969   5.487   4.701  0.2678 -0.0012  0.2168
    3TYR     BB  837   4.054   5.901   4.414  0.0218 -0.2031  0.1473
    3TYR    SC1  838   4.221   5.859   4.152  0.3603 -0.1396  0.2183
    3TYR    SC2  839   4.303   5.885   3.896  0.0562 -0.2562  0.1038
    3TYR    SC3  840   4.476   5.802   4.086  0.2346 -0.3651 -0.1018
    1TYR     BB  841   2.711   5.652   4.095 -0.2438  0.0788 -0.2758
    1TYR    SC1  842   2.641   5.547   3.829  0.2011 -0.0368 -0.0419
    1TYR    SC2  843   2.527   5.531   3.584 -0.1351 -0.0438  0.1086
    1TYR    SC3  844   2.795   5.529   3.608 -0.0880  0.2465 -0.2799
    2THR     BB  845   3.069   5.695   4.065  0.0127  0.1229  0.2169
    2THR    SC1  846   3.144   5.837   3.862  0.1834  0.1018  0.2634
    3TYR     BB  847   3.215   5.560   4.282  0.0424 -0.1918 -0.2903
    3TYR    SC1  848   3.326   5.714   4.518  0.2719  0.1632  0.0129
    3TYR    SC2  849   3.317   5.774   4.781  0.2057  0.2034  0.0017
    3TYR    SC3  850   3.556   5.745   4.658  0.2377  0.0592  0.0939
    1TYR     BB  851   3.702   6.558   6.150 -0.0181 -0.0708 -0.0536
    1TYR    SC1  852   3.696   6.878   6.135  0.0033 -0.0293  0.1957
    1TYR    SC2  853   3.588   7.094   6.013 -0.2297 -0.1001  0.2704
    1TYR    SC3  854   3.819   7.118   6.149  0.0403 -0.0184 -0.1771
    2THR     BB  855   4.032   6.460   6.247  0.0461 -0.1354  0.4317
    2THR    SC1  856   4.207   6.652   6.227 -0.1576  0.0124 -0.2299
    3TYR     BB  857   4.020   6.129   6.229  0.2161  0.3640 -0.1697
    3TYR    SC1  858   4.120   5.994   6.440  0.1005  0.1598 -0.5516
    3TYR    SC2  859   4.301   6.087   6.617  0.0073  0.0585 -0.3999
    3TYR    SC3  860   4.234   5.825   6.617 -0.3197  0.1372 -0.2862
    1TYR     BB  861   2.858   6.589   6.595 -0.0673  0.1325 -0.0276
    1TYR    SC1  862   2.981   6.524   6.314  0.0954  0.1316 -0.0977
    1TYR    SC2  863   3.086   6.556   6.067  0.2083 -0.2835 -0.1128
    1TYR    SC3  864   3.222   6.420   6.256  0.0014 -0.2143  0.0932
    2THR     BB  865   3.041   6.438   6.781  0.0170 -0.0716  0.0526
    2THR    SC1  866   2.968   6.252   6.947  0.0288  0.1375  0.2997
    3TYR     BB  867   3.207   6.702   6.941  0.1685  0.3212  0.2570
    3TYR    SC1  868   3.453   6.593   7.035 -0.0199  0.1760 -0.2267
    3TYR    SC2  869   3.586   6.358   7.048 -0.0878  0.1508  0.1605
    3TYR    SC3  870   3.703   6.584   7.138  0.0089  0.2897 -0.2838
    1TYR     BB  871   5.036   6.270   4.426  0.0870  0.0459 -0.2222
    1TYR    SC1  872   5.226   6.056   4.405 -0.2279 -0.0998  0.1783
    1TYR    SC2  873   5.314   5.811   4.335 -0.2472 -0.0164 -0.1617
    1TYR    SC3  874   5.487   5.994   4.433 -0.2463 -0.1837  0.1669
    2THR     BB  875   4.761   6.191   4.606 -0.1237  0.1846 -0.0079
    2THR    SC1  876   4.778   6.213   4.865  0.0250  0.1704 -0.0153
    3TYR     BB  877   4.549   6.088   4.439 -0.0885 -0.1344 -0.2840
    3TYR    SC1  878   4.493   6.265   4.191 -0.0266  0.0457  0.1099
    3TYR    SC2  879   4.373   6.343   3.962 -0.0862  0.0864  0.1545
    3TYR    SC3  880   4.380   6.510   4.174 -0.0423  0.0443  0.1866
    1TYR     BB  881   3.373   4.968   6.970  0.0265  0.1952 -0.3376
    1TYR    SC1  882   3.343   4.787   7.263 -0.3140  0.0875  0.0645
    1TYR    SC2  883   3.273   4.591   7.436 -0.0184  0.0552  0.1536
    1TYR    SC3  884   3.481   4.754   7.493  0.0874  0.0438 -0.1704
    2THR     BB  885   3.317   5.312   6.978  0.0588  0.2423  0.0464
    2THR    SC1  886   3.340   5.437   6.752  0.0377 -0.0802 -0.1422
    3TYR     BB  887   3.194   5.446   7.224  0.0731 -0.1086  0.0186
    3TYR    SC1  888   3.142   5.261   7.444 -0.0645  0.1345 -0.0533
    3TYR    SC2  889   3.042   5.023   7.522 -0.0633  0.1232 -0.0856
    3TYR    SC3  890   2.997   5.244   7.670  0.0497  0.0787  0.0179
    1TYR     BB  891   5.688   5.144   5.039  0.1602 -0.1544 -0.0091
    1TYR    SC1  892   5.712   5.061   4.755 -0.0602  0.0093  0.0440
    1TYR    SC2  893   5.699   5.119   4.492  0.2719  0.0062  0.0228
    1TYR    SC3  894   5.595   4.888   4.584  0.0131  0.0783 -0.0773
    2THR     BB  895   5.368   5.226   5.140  0.1845 -0.3400  0.1454
    2THR    SC1  896   5.293   5.274   5.385 -0.0999 -0.1929  0.0346
    3TYR     BB  897   5.168   5.142   4.894  0.0509  0.1387  0.0681
    3TYR    SC1  898   5.230   4.833   4.901 -0.1915 -0.1991  0.0253
    3TYR    SC2  899   5.151   4.606   5.025 -0.1955 -0.3082 -0.1706
    3TYR    SC3  900   5.399   4.623   4.920 -0.1938 -0.2189 -0.1532
    1TYR     BB  901   5.184   5.289   4.440  0.1211 -0.2642 -0.1588
    1TYR    SC1  902   4.972   5.529   4.390  0.1367  0.2773  0.1037
    1TYR    SC2  903   4.879   5.652   4.168  0.0626  0.0033 -0.0230
    1TYR    SC3  904   4.744   5.672   4.401 -0.1425 -0.1230 -0.1277
    2THR     BB  905   4.989   5.027   4.366  0.1817  0.0317  0.2095
    2THR    SC1  906   4.797   5.065   4.195  0.2255  0.0307  0.1596
    3TYR     BB  907   5.044   4.702   4.484  0.0072  0.0043  0.0872
    3TYR    SC1  908   4.785   4.535   4.369 -0.0671  0.0756  0.4042
    3TYR    SC2  909   4.621   4.322   4.355 -0.0547  0.0772  0.1909
    3TYR    SC3  910   4.587   4.529   4.186 -0.1199  0.2858  0.4508
    1TYR     BB  911   4.344   4.890   4.462  0.2549 -0.0999 -0.1408
    1TYR    SC1  912   4.339   4.910   4.147 -0.1918 -0.2274  0.0052
    1TYR    SC2  913   4.108   4.827   4.034  0.0352 -0.6115 -0.2030
    1TYR    SC3  914   4.336   4.833   3.889  0.1206  0.0292 -0.0835
    2THR     BB  915   4.050   4.956   4.554  0.0392  0.0698 -0.1968
    2THR    SC1  916   3.906   5.090   4.384 -0.2061  0.0981  0.0252
    3TYR     BB  917   3.945   4.932   4.827 -0.2223  0.0656 -0.1394
    3TYR    SC1  918   3.659   5.108   4.869 -0.2644  0.0959 -0.2021
    3TYR    SC2  919   3.533   5.347   4.874  0.1035  0.2986 -0.0503
    3TYR    SC3  920   3.494   5.169   5.074 -0.1653  0.2287 -0.1595
    1TYR     BB  921   2.089   5.248   6.575  0.2155 -0.4405  0.2218
    1TYR    SC1  922   1.971   5.010   6.593  0.2575  0.0881 -0.0878
    1TYR    SC2  923   1.757   4.853   6.546  0.1516  0.1793  0.0805
    1TYR    SC3  924   1.978   4.748   6.659  0.2709  0.0423 -0.2645
    2THR     BB  925   2.419   5.188   6.556 -0.2457 -0.0980  0.3000
    2THR    SC1  926   2.438   4.941   6.634  0.2290 -0.2064 -0.0900
    3TYR     BB  927   2.777   5.345   6.629 -0.2821  0.0033 -0.0150
    3TYR    SC1  928   2.790   5.173   6.927  0.3525  0.2328  0.0615
    3TYR    SC2  929   2.897   4.983   7.086  0.3052  0.0863 -0.0779
    3TYR    SC3  930   2.661   5.098   7.153  0.2476 -0.0292 -0.0797
    1TYR     BB  931   6.224   5.114   5.293 -0.1408 -0.1159  0.0720
    1TYR    SC1  932   6.177   5.159   4.987  0.2829 -0.1798  0.1480
    1TYR    SC2  933   6.133   5.269   4.745  0.2423 -0.0553  0.2110
    1TYR    SC3  934   6.198   5.008   4.764 -0.0230 -0.1354  0.0835
    2THR     BB  935   6.076   4.808   5.303 -0.0857  0.1221  0.0842
    2THR    SC1  936   6.109   4.689   5.532  0.0680 -0.5041 -0.2355
    3TYR     BB  937   5.897   4.706   5.032 -0.0951 -0.1376  0.1003
    3TYR    SC1  938   5.756   4.477   5.203 -0.0858 -0.0888 -0.1122
    3TYR    SC2  939   5.554   4.299   5.207 -0.0575 -0.1257  0.3256
    3TYR    SC3  940   5.687   4.356   5.435  0.0240  0.3584  0.1704
    1TYR     BB  941   5.244   1.872   2.499 -0.1402  0.1569  0.0890
    1TYR    SC1  942   5.037   2.090   2.601 -0.0417 -0.0462  0.0557
    1TYR    SC2  943   4.830   2.263   2.592 -0.0388 -0.0484 -0.0922
    1TYR    SC3  944   5.031   2.301   2.768 -0.1443 -0.0234  0.0244
    2THR     BB  945   5.396   1.946   2.246 -0.1098 -0.2720  0.1235
    2THR    SC1  946   5.256   1.914   2.029 -0.0531 -0.0083  0.0429
    3TYR     BB  947   5.654   2.113   2.222 -0.1398  0.1155  0.2506
    3TYR    SC1  948   5.648   2.306   2.449 -0.0329 -0.1901  0.0150
    3TYR    SC2  949   5.689   2.374   2.707  0.0370 -0.1588 -0.0041
    3TYR    SC3  950   5.441   2.387   2.603  0.0462  0.0616 -0.0044
    1TYR     BB  951   2.106   5.108   4.614 -0.2007  0.1144 -0.1764
    1TYR    SC1  952   2.147   5.367   4.482  0.2200  0.1036  0.0226
    1TYR    SC2  953   2.096   5.565   4.305  0.1635 -0.0061 -0.0853
    1TYR    SC3  954   2.338   5.549   4.424  0.1588  0.1443 -0.0536
    2THR     BB  955   2.321   5.129   4.873 -0.4582  0.3193  0.2179
    2THR    SC1  956   2.469   5.342   4.864  0.3515 -0.1805  0.3698
    3TYR     BB  957   2.448   4.960   5.114 -0.2719  0.1262  0.1199
    3TYR    SC1  958   2.716   5.088   5.182 -0.2832  0.1403  0.3033
    3TYR    SC2  959   2.975   5.162   5.158 -0.3330  0.1946 -0.1955
    3TYR    SC3  960   2.842   5.208   5.388  0.1444  0.0010  0.1389
    1TYR     BB  961   2.227   6.108   6.234 -0.0148  0.2200 -0.0748
    1TYR    SC1  962   1.976   6.221   6.147 -0.1810 -0.0170  0.2035
    1TYR    SC2  963   1.746   6.147   6.025 -0.3560  0.2164  0.3815
    1TYR    SC3  964   1.850   6.392   5.980  0.0146  0.0175  0.0874
    2THR     BB  965   2.238   6.060   6.543 -0.1525  0.1683  0.1612
    2THR    SC1  966   2.093   5.868   6.642 -0.1026  0.0443 -0.0003
    3TYR     BB  967   2.490   6.260   6.680 -0.1998 -0.2527 -0.0570
    3TYR    SC1  968   2.405   6.455   6.899 -0.2535 -0.0921  0.1271
    3TYR    SC2  969   2.260   6.586   7.086 -0.2557  0.0199  0.0486
    3TYR    SC3  970   2.512   6.664   7.030 -0.1725 -0.1559  0.1632
    1TYR     BB  971   1.638   6.064   6.707 -0.0426 -0.1899  0.1815
    1TYR    SC1  972   1.807   6.328   6.614 -0.0933 -0.1619  0.0842
    1TYR    SC2  973   1.914   6.513   6.450 -0.4865  0.0464  0.0463
    1TYR    SC3  974   1.967   6.520   6.715 -0.5112  0.2274  0.0482
    2THR     BB  975   1.291   6.179   6.544  0.1053  0.3194  0.1225
    2THR    SC1  976   1.134   5.972   6.557  0.5026 -0.0078  0.0023
    3TYR     BB  977   1.416   6.481   6.426 -0.2487  0.0112  0.0086
    3TYR    SC1  978   1.471   6.717   6.603  0.0978  0.0249 -0.2458
    3TYR    SC2  979   1.616   6.910   6.725 -0.1343  0.0089  0.0701
    3TYR    SC3  980   1.396   6.976   6.583 -0.1549 -0.0131  0.0915
    1TYR     BB  981   6.095   2.454   3.106 -0.0794 -0.3683 -0.2087
    1TYR    SC1  982   6.088   2.504   2.811  0.2130 -0.0393  0.0784
    1TYR    SC2  983   6.130   2.619   2.570  0.0166  0.0557  0.0872
    1TYR    SC3  984   6.179   2.356   2.604  0.2385  0.0827  0.0004
    2THR     BB  985   6.160   2.202   3.278 -0.2700  0.1444  0.2133
    2THR    SC1  986   6.401   2.187   3.376 -0.2364  0.1024  0.1258
    3TYR     BB  987   5.976   2.120   3.555 -0.1802  0.1310 -0.0778
    3TYR    SC1  988   6.041   2.367   3.767  0.2187  0.1871  0.1486
    3TYR    SC2  989   6.179   2.519   3.943  0.1685  0.1102  0.2558
    3TYR    SC3  990   5.912   2.489   3.971  0.0485  0.5864 -0.1805
    1TYR     BB  991   5.184   2.961   2.092  0.2087  0.1483  0.0633
    1TYR    SC1  992   5.163   3.237   1.939 -0.0361  0.0925 -0.0914
    1TYR    SC2  993   5.004   3.455   1.929  0.0942  0.2330  0.4690
    1TYR    SC3  994   5.173   3.401   1.725 -0.2490  0.4011  0.1245
    2THR     BB  995   5.288   2.890   2.397  0.0084 -0.4085 -0.5723
    2THR    SC1  996   5.089   2.760   2.503  0.0222 -0.0424 -0.0493
    3TYR     BB  997   5.679   2.862   2.476  0.2625 -0.2974 -0.0297
    3TYR    SC1  998   5.749   2.837   2.758 -0.1914  0.1005 -0.0679
    3TYR    SC2  999   5.734   2.766   3.018  0.1498 -0.0626 -0.0855
    3TYR    SC3 1000   5.922   2.942   2.937  0.2815 -0.2812 -0.2710
   7.65673   7.65673   7.65673
