Generated by trjconv : Martini system from ../2_Creating_coordinates/TYR-ALA-TYR_aa.pdb t=   0.00000
  558
    1TYR     BB    1   3.077   3.023   4.900 -0.1846  0.2465 -0.0871
    1TYR    SC1    2   3.067   3.338   4.970 -0.0646  0.1274 -0.2397
    1TYR    SC2    3   2.907   3.507   5.107  0.0170  0.0132  0.0039
    1TYR    SC3    4   3.151   3.589   5.028  0.0208  0.0382  0.0411
    2ALA     BB    5   2.846   2.858   5.017  0.0280  0.1812 -0.0614
    3TYR     BB    6   2.619   2.698   4.888  0.1270 -0.2127 -0.2041
    3TYR    SC1    7   2.684   2.568   4.649 -0.2316  0.1853 -0.3413
    3TYR    SC2    8   2.601   2.577   4.392  0.1047  0.1083 -0.4598
    3TYR    SC3    9   2.864   2.587   4.448  0.0695 -0.3609 -0.1489
    1TYR     BB   10   4.743   4.950   2.757 -0.1453 -0.0048 -0.0327
    1TYR    SC1   11   4.649   5.253   2.787  0.2161 -0.1273 -0.1836
    1TYR    SC2   12   4.543   5.439   2.951  0.3631 -0.2697  0.0818
    1TYR    SC3   13   4.463   5.425   2.694 -0.0230 -0.1688  0.1874
    2ALA     BB   14   4.777   4.754   2.855 -0.2343  0.2530 -0.2464
    3TYR     BB   15   5.020   4.493   2.921  0.0676 -0.1944  0.0758
    3TYR    SC1   16   5.040   4.197   2.869  0.4835 -0.0285 -0.1664
    3TYR    SC2   17   5.106   3.943   2.806  0.0909 -0.1823  0.0004
    3TYR    SC3   18   4.862   3.997   2.906  0.2605  0.2268  0.2189
    1TYR     BB   19   3.994   3.876   2.482  0.0386 -0.2537 -0.1435
    1TYR    SC1   20   3.990   3.572   2.405  0.1304 -0.0419 -0.1223
    1TYR    SC2   21   4.104   3.330   2.373  0.0727 -0.0955  0.0637
    1TYR    SC3   22   3.984   3.451   2.163  0.0659 -0.2457 -0.0213
    2ALA     BB   23   4.079   4.038   2.610 -0.1927  0.2711 -0.2289
    3TYR     BB   24   3.924   4.347   2.749  0.3783  0.1470 -0.0014
    3TYR    SC1   25   3.879   4.505   2.513 -0.3675  0.2243  0.1866
    3TYR    SC2   26   3.807   4.750   2.426 -0.3397  0.1542 -0.0387
    3TYR    SC3   27   3.852   4.551   2.249  0.0718  0.1012  0.1107
    1TYR     BB   28   3.520   5.336   2.952 -0.0847  0.0599  0.0148
    1TYR    SC1   29   3.691   5.278   3.201  0.0222 -0.0502 -0.0503
    1TYR    SC2   30   3.789   5.065   3.335  0.1234  0.0107 -0.0263
    1TYR    SC3   31   3.764   5.303   3.460  0.2384  0.0736 -0.1199
    2ALA     BB   32   3.418   5.140   2.654 -0.0996  0.1112 -0.1192
    3TYR     BB   33   3.058   5.085   2.617 -0.0510 -0.0270 -0.0325
    3TYR    SC1   34   2.965   5.271   2.806 -0.0076 -0.1811  0.0432
    3TYR    SC2   35   3.034   5.496   2.939  0.0147  0.0458 -0.3322
    3TYR    SC3   36   2.811   5.360   3.009  0.1144  0.0585  0.0361
    1TYR     BB   37   4.582   4.780   4.627 -0.1223  0.1354  0.2138
    1TYR    SC1   38   4.785   4.920   4.469  0.3137 -0.2445 -0.2680
    1TYR    SC2   39   5.009   5.070   4.449  0.1390  0.0500 -0.1203
    1TYR    SC3   40   4.838   5.054   4.240  0.0783  0.1920 -0.0825
    2ALA     BB   41   4.374   4.731   4.895 -0.1330 -0.2077 -0.1664
    3TYR     BB   42   4.453   4.567   5.112  0.2256 -0.1892 -0.0147
    3TYR    SC1   43   4.289   4.505   5.372  0.1760  0.2864  0.2605
    3TYR    SC2   44   4.060   4.527   5.512 -0.1461  0.0129 -0.1887
    3TYR    SC3   45   4.296   4.513   5.642 -0.4102 -0.1281  0.3111
    1TYR     BB   46   3.672   4.539   4.215  0.0052 -0.0502  0.2796
    1TYR    SC1   47   3.854   4.411   4.004  0.0412  0.1729 -0.0585
    1TYR    SC2   48   4.031   4.230   3.909  0.0119  0.0295  0.1524
    1TYR    SC3   49   3.913   4.405   3.741  0.2940  0.0766 -0.0029
    2ALA     BB   50   3.504   4.831   4.169 -0.0630  0.2388 -0.0863
    3TYR     BB   51   3.185   4.856   4.160 -0.0220 -0.0989 -0.1067
    3TYR    SC1   52   3.066   4.750   3.873  0.0092 -0.0826  0.0137
    3TYR    SC2   53   2.827   4.807   3.762 -0.0662 -0.0937  0.1677
    3TYR    SC3   54   3.011   4.669   3.621  0.0090  0.2649 -0.1051
    1TYR     BB   55   4.300   1.995   4.070 -0.0844 -0.0066 -0.1082
    1TYR    SC1   56   4.612   1.991   3.966  0.0781 -0.0846  0.1369
    1TYR    SC2   57   4.717   1.983   3.717  0.0409  0.0142  0.1170
    1TYR    SC3   58   4.880   1.979   3.932  0.0918  0.2285  0.0859
    2ALA     BB   59   4.211   2.198   3.863  0.1284  0.4379  0.2187
    3TYR     BB   60   3.947   2.369   3.777 -0.1834 -0.3098  0.0104
    3TYR    SC1   61   3.724   2.241   3.665  0.1288  0.1479 -0.4123
    3TYR    SC2   62   3.461   2.267   3.607 -0.0048  0.1702  0.1296
    3TYR    SC3   63   3.554   2.036   3.714  0.1725  0.2116  0.0697
    1TYR     BB   64   4.668   3.533   2.948  0.1032  0.1912 -0.0213
    1TYR    SC1   65   4.542   3.250   3.117 -0.1266  0.1423 -0.2663
    1TYR    SC2   66   4.409   3.041   3.008 -0.0116  0.1263 -0.3807
    1TYR    SC3   67   4.439   3.059   3.277 -0.0733  0.0281 -0.3669
    2ALA     BB   68   4.884   3.509   2.846 -0.0842 -0.0297 -0.2324
    3TYR     BB   69   5.143   3.449   2.771  0.1063 -0.0452  0.2784
    3TYR    SC1   70   5.404   3.309   2.931 -0.3598 -0.1481  0.2762
    3TYR    SC2   71   5.661   3.371   2.987 -0.3020 -0.0006 -0.1196
    3TYR    SC3   72   5.542   3.164   3.113 -0.0425  0.0262  0.1838
    1TYR     BB   73   4.336   3.091   4.919  0.2872 -0.0587  0.0220
    1TYR    SC1   74   4.468   2.846   4.940  0.5767  0.3062 -0.3835
    1TYR    SC2   75   4.512   2.615   4.807 -0.1342 -0.0867 -0.0162
    1TYR    SC3   76   4.653   2.671   5.030 -0.0920 -0.2699  0.0051
    2ALA     BB   77   4.077   3.059   5.130 -0.2208  0.0581  0.3704
    3TYR     BB   78   3.873   3.175   5.112  0.0466 -0.1241  0.1097
    3TYR    SC1   79   3.633   3.272   4.914  0.2203 -0.0597 -0.2861
    3TYR    SC2   80   3.684   3.411   4.687 -0.1152  0.0782 -0.2851
    3TYR    SC3   81   3.436   3.316   4.735  0.1039 -0.5676 -0.3019
    1TYR     BB   82   3.863   2.498   4.685 -0.1876 -0.1717 -0.1883
    1TYR    SC1   83   4.112   2.321   4.677 -0.1254 -0.1327  0.1524
    1TYR    SC2   84   4.296   2.143   4.590 -0.4214 -0.4044  0.0566
    1TYR    SC3   85   4.269   2.192   4.854 -0.0012 -0.1146  0.0573
    2ALA     BB   86   3.982   2.799   4.710  0.3509 -0.3550  0.2793
    3TYR     BB   87   3.940   3.036   4.573 -0.0412 -0.0729 -0.1911
    3TYR    SC1   88   3.755   3.027   4.323  0.0180 -0.0330 -0.2690
    3TYR    SC2   89   3.511   3.141   4.292  0.0298  0.0796  0.0078
    3TYR    SC3   90   3.624   3.003   4.088 -0.1801  0.1875 -0.1866
    1TYR     BB   91   2.795   3.428   2.915  0.0820  0.0116  0.2408
    1TYR    SC1   92   2.825   3.405   2.616 -0.4208  0.1527 -0.1190
    1TYR    SC2   93   2.733   3.499   2.380 -0.2906  0.3609 -0.0902
    1TYR    SC3   94   2.981   3.391   2.395 -0.3605  0.1977 -0.0797
    2ALA     BB   95   2.934   3.464   3.139  0.2921  0.1901  0.3007
    3TYR     BB   96   2.816   3.578   3.397  0.0853 -0.1020 -0.0439
    3TYR    SC1   97   2.819   3.365   3.598 -0.0241 -0.0187  0.1759
    3TYR    SC2   98   2.881   3.113   3.672  0.1939  0.0379  0.1949
    3TYR    SC3   99   2.798   3.292   3.857  0.1776  0.0192  0.2057
    1TYR     BB  100   5.163   2.820   3.992 -0.3863 -0.1377 -0.5759
    1TYR    SC1  101   5.205   2.521   4.076 -0.0770 -0.1359 -0.0216
    1TYR    SC2  102   5.182   2.266   4.160  0.1736 -0.2545 -0.2918
    1TYR    SC3  103   5.427   2.379   4.135  0.1035 -0.1752 -0.6956
    2ALA     BB  104   4.974   2.996   4.136  0.1206  0.0978  0.2479
    3TYR     BB  105   4.732   3.073   4.047  0.1793 -0.1769 -0.0843
    3TYR    SC1  106   4.617   3.359   4.004 -0.0263  0.1172 -0.1496
    3TYR    SC2  107   4.516   3.589   4.105  0.0157  0.1163 -0.1056
    3TYR    SC3  108   4.729   3.596   3.939  0.2247  0.0889  0.1525
    1TYR     BB  109   5.128   3.316   3.790  0.3418 -0.0468  0.2771
    1TYR    SC1  110   5.323   3.137   3.655  0.0001 -0.2786  0.1547
    1TYR    SC2  111   5.577   3.069   3.592  0.0147 -0.2362  0.1667
    1TYR    SC3  112   5.369   2.946   3.470  0.0424 -0.1674  0.0478
    2ALA     BB  113   5.251   3.623   3.760 -0.1527 -0.1432  0.0492
    3TYR     BB  114   5.220   3.819   3.833  0.0443 -0.1145  0.0510
    3TYR    SC1  115   5.108   4.097   3.763  0.2315  0.2507  0.1798
    3TYR    SC2  116   5.152   4.359   3.809  0.2256  0.2512  0.1826
    3TYR    SC3  117   4.901   4.270   3.761  0.2977  0.3567 -0.5132
    1TYR     BB  118   3.793   5.976   3.212 -0.0503 -0.2080  0.2032
    1TYR    SC1  119   3.979   5.729   3.151 -0.1780  0.0748  0.0971
    1TYR    SC2  120   4.009   5.520   2.985  0.0458  0.2002 -0.0249
    1TYR    SC3  121   4.098   5.504   3.239  0.3373  0.2454 -0.1189
    2ALA     BB  122   3.476   5.743   3.290  0.2555  0.3092  0.1969
    3TYR     BB  123   3.267   5.593   3.430  0.0350 -0.0667  0.3074
    3TYR    SC1  124   3.315   5.361   3.620 -0.2535  0.1901  0.0615
    3TYR    SC2  125   3.286   5.141   3.774 -0.0384 -0.3027 -0.5567
    3TYR    SC3  126   3.497   5.306   3.813 -0.4755  0.1393  0.2620
    1TYR     BB  127   3.711   4.016   4.720  0.0379  0.3985 -0.0972
    1TYR    SC1  128   3.912   3.923   4.494 -0.2862  0.0312 -0.1182
    1TYR    SC2  129   4.117   3.866   4.329  0.0076  0.1595  0.1896
    1TYR    SC3  130   3.980   4.096   4.297 -0.0692  0.0909  0.0063
    2ALA     BB  131   3.445   3.897   4.702 -0.1412 -0.1630 -0.2716
    3TYR     BB  132   3.282   3.771   4.527  0.1141 -0.0222 -0.3548
    3TYR    SC1  133   2.994   3.784   4.665  0.1442 -0.4008  0.0712
    3TYR    SC2  134   2.773   3.879   4.787  0.1623  0.0326 -0.2098
    3TYR    SC3  135   2.766   3.638   4.667 -0.1049 -0.0331 -0.0740
    1TYR     BB  136   4.525   5.295   4.880  0.0527  0.0423 -0.1185
    1TYR    SC1  137   4.234   5.166   4.906  0.0587 -0.0486 -0.0115
    1TYR    SC2  138   4.070   5.082   4.709  0.0560 -0.3194  0.1002
    1TYR    SC3  139   3.968   5.205   4.926 -0.0034 -0.4967  0.1744
    2ALA     BB  140   4.753   5.154   4.984  0.1901 -0.0701 -0.1379
    3TYR     BB  141   4.864   4.895   5.042 -0.2479 -0.2705  0.4650
    3TYR    SC1  142   5.122   4.805   4.838 -0.0701 -0.0392 -0.1299
    3TYR    SC2  143   5.330   4.876   4.682  0.1860 -0.0162  0.2078
    3TYR    SC3  144   5.181   4.661   4.618  0.1125  0.1457 -0.2066
    1TYR     BB  145   3.262   4.962   3.092  0.1454 -0.1057 -0.2796
    1TYR    SC1  146   3.544   4.829   3.052  0.3194 -0.1585 -0.0867
    1TYR    SC2  147   3.770   4.683   3.083  0.4824  0.1052  0.0176
    1TYR    SC3  148   3.723   4.811   2.850  0.3794 -0.0407 -0.0447
    2ALA     BB  149   3.109   5.104   3.277  0.0480  0.0932  0.2065
    3TYR     BB  150   2.896   5.200   3.508  0.3401 -0.1373  0.0996
    3TYR    SC1  151   2.870   5.306   3.765  0.0303 -0.0751 -0.0061
    3TYR    SC2  152   2.943   5.243   4.017 -0.1938 -0.0365  0.0716
    3TYR    SC3  153   2.977   5.495   3.926  0.1798 -0.1213 -0.0489
    1TYR     BB  154   3.856   3.773   2.976 -0.1492 -0.0320  0.2072
    1TYR    SC1  155   4.106   3.646   2.892  0.2339  0.0780  0.0506
    1TYR    SC2  156   4.151   3.384   2.941 -0.2584 -0.0967 -0.3287
    1TYR    SC3  157   4.265   3.503   2.726  0.2412  0.1120  0.0283
    2ALA     BB  158   3.623   3.916   2.812  0.1404  0.2307  0.1677
    3TYR     BB  159   3.476   4.134   2.928  0.0975  0.0149 -0.0387
    3TYR    SC1  160   3.433   4.449   2.798 -0.1419 -0.2260  0.0845
    3TYR    SC2  161   3.259   4.651   2.755 -0.1081 -0.2001  0.0696
    3TYR    SC3  162   3.455   4.601   2.577  0.1251  0.0023  0.2606
    1TYR     BB  163   2.473   2.218   3.919 -0.3111 -0.0611 -0.2728
    1TYR    SC1  164   2.227   2.318   4.074 -0.2623  0.0584  0.0281
    1TYR    SC2  165   2.166   2.332   4.336 -0.5034  0.0449 -0.0242
    1TYR    SC3  166   1.981   2.397   4.151 -0.2788  0.2327 -0.1906
    2ALA     BB  167   2.788   2.275   4.022  0.3239 -0.0203 -0.1761
    3TYR     BB  168   3.142   2.404   3.950  0.2597 -0.0992 -0.0589
    3TYR    SC1  169   3.111   2.707   4.055 -0.1911  0.2515  0.1784
    3TYR    SC2  170   2.924   2.891   4.115 -0.2736  0.2280 -0.0000
    3TYR    SC3  171   3.164   2.969   4.017 -0.2793  0.2447 -0.0006
    1TYR     BB  172   5.616   4.652   3.717  0.0070 -0.3351  0.0130
    1TYR    SC1  173   5.786   4.887   3.894  0.1235 -0.1167 -0.0995
    1TYR    SC2  174   6.029   4.909   4.010 -0.0197  0.1200  0.1683
    1TYR    SC3  175   5.922   5.119   3.878 -0.0087 -0.0382 -0.0987
    2ALA     BB  176   5.610   4.401   3.790 -0.1528  0.1409  0.0611
    3TYR     BB  177   5.685   4.158   3.859 -0.1792  0.3237  0.1282
    3TYR    SC1  178   5.673   3.949   4.068 -0.2911  0.0674 -0.2202
    3TYR    SC2  179   5.713   3.682   4.070  0.3381  0.1372  0.3083
    3TYR    SC3  180   5.562   3.797   4.262 -0.0503  0.1663  0.0008
    1TYR     BB  181   4.479   4.968   3.184  0.0187  0.2498 -0.1194
    1TYR    SC1  182   4.632   5.175   3.344 -0.2187 -0.5925  0.4966
    1TYR    SC2  183   4.804   5.268   3.532  0.3043 -0.1878 -0.1242
    1TYR    SC3  184   4.667   5.441   3.376 -0.4864 -0.5080  0.1489
    2ALA     BB  185   4.251   5.028   3.123  0.0230  0.0593  0.1393
    3TYR     BB  186   4.140   5.075   2.848  0.0227  0.2865 -0.2283
    3TYR    SC1  187   4.282   4.920   2.631 -0.1895  0.0085  0.1209
    3TYR    SC2  188   4.264   4.730   2.439  0.5584 -0.2712  0.2821
    3TYR    SC3  189   4.399   4.958   2.390 -0.3124  0.2660  0.0981
    1TYR     BB  190   3.574   4.169   3.469  0.0406  0.0230 -0.1831
    1TYR    SC1  191   3.314   4.307   3.339  0.0498  0.1006  0.0986
    1TYR    SC2  192   3.179   4.465   3.167 -0.1508  0.0272  0.1840
    1TYR    SC3  193   3.099   4.210   3.206  0.1125 -0.0694  0.1184
    2ALA     BB  194   3.794   4.212   3.250  0.3152 -0.0819 -0.0498
    3TYR     BB  195   4.059   4.280   3.252  0.2054 -0.2096  0.0445
    3TYR    SC1  196   4.271   4.063   3.203  0.0590 -0.1443  0.0449
    3TYR    SC2  197   4.343   3.803   3.214  0.0614 -0.1426  0.0709
    3TYR    SC3  198   4.441   3.962   3.019 -0.0917 -0.2077 -0.0622
    1TYR     BB  199   2.365   3.501   3.166  0.0148 -0.3062 -0.0726
    1TYR    SC1  200   2.264   3.769   3.048 -0.0648 -0.0265 -0.0223
    1TYR    SC2  201   2.135   4.006   3.064  0.1226  0.0713  0.0879
    1TYR    SC3  202   2.139   3.869   2.830  0.1462  0.2541 -0.0214
    2ALA     BB  203   2.204   3.520   3.471 -0.2523 -0.1621  0.2090
    3TYR     BB  204   2.053   3.665   3.659 -0.0334  0.1787  0.3040
    3TYR    SC1  205   2.020   3.620   3.976 -0.1247  0.1558  0.0156
    3TYR    SC2  206   1.895   3.459   4.152  0.1832  0.0681  0.1639
    3TYR    SC3  207   1.987   3.699   4.231 -0.0312  0.2053  0.0127
    1TYR     BB  208   3.902   4.915   3.899  0.0176  0.0968  0.3474
    1TYR    SC1  209   3.659   4.817   3.707 -0.2334 -0.2538  0.2080
    1TYR    SC2  210   3.449   4.831   3.539 -0.1354 -0.0342  0.0995
    1TYR    SC3  211   3.647   4.653   3.493 -0.1728 -0.0649  0.0562
    2ALA     BB  212   4.045   4.835   4.096 -0.3366  0.0112  0.1195
    3TYR     BB  213   4.310   4.903   4.216  0.0194 -0.0847 -0.3322
    3TYR    SC1  214   4.395   5.173   4.280 -0.0745 -0.1307 -0.1856
    3TYR    SC2  215   4.442   5.420   4.180 -0.2327 -0.0726 -0.1206
    3TYR    SC3  216   4.342   5.392   4.429 -0.2030 -0.2032 -0.1222
    1TYR     BB  217   4.669   4.420   2.569 -0.1633  0.2244  0.1238
    1TYR    SC1  218   4.901   4.269   2.446  0.0564 -0.3438  0.1618
    1TYR    SC2  219   5.168   4.303   2.431  0.0040  0.0750 -0.0166
    1TYR    SC3  220   5.042   4.149   2.250  0.1316 -0.2301  0.1443
    2ALA     BB  221   4.455   4.374   2.759  0.0072 -0.0634  0.3401
    3TYR     BB  222   4.362   4.576   2.963  0.1120  0.2765 -0.4003
    3TYR    SC1  223   4.547   4.491   3.217 -0.2958 -0.2965 -0.0132
    3TYR    SC2  224   4.697   4.267   3.219  0.4346  0.1508 -0.0012
    3TYR    SC3  225   4.598   4.366   3.450 -0.1477 -0.2792 -0.0356
    1TYR     BB  226   5.202   3.887   4.580 -0.3206 -0.0806 -0.0990
    1TYR    SC1  227   4.935   3.897   4.405 -0.1157 -0.3138  0.0195
    1TYR    SC2  228   4.675   3.908   4.338 -0.0425  0.2428 -0.2413
    1TYR    SC3  229   4.862   3.976   4.157  0.2773  0.0540  0.0072
    2ALA     BB  230   5.253   3.582   4.681  0.1829  0.2179 -0.3130
    3TYR     BB  231   5.297   3.372   4.832 -0.0116  0.0683 -0.1140
    3TYR    SC1  232   5.025   3.194   4.921  0.0271  0.2258 -0.1305
    3TYR    SC2  233   4.801   3.095   5.035  0.1464  0.0019 -0.0843
    3TYR    SC3  234   4.858   3.038   4.777  0.1690  0.0254 -0.0845
    1TYR     BB  235   3.109   2.563   3.327 -0.1476  0.2702 -0.1958
    1TYR    SC1  236   2.999   2.306   3.448  0.3740 -0.1411 -0.1992
    1TYR    SC2  237   3.030   2.089   3.607  0.1114  0.0030  0.0608
    1TYR    SC3  238   2.782   2.169   3.533  0.2098  0.1682 -0.1032
    2ALA     BB  239   3.338   2.408   3.128  0.3569  0.0133 -0.1944
    3TYR     BB  240   3.491   2.237   2.970  0.0658 -0.1032 -0.1119
    3TYR    SC1  241   3.667   2.335   2.757  0.1152  0.0039  0.0110
    3TYR    SC2  242   3.732   2.521   2.572  0.2210 -0.0662 -0.0234
    3TYR    SC3  243   3.927   2.388   2.703  0.1462 -0.0504  0.1050
    1TYR     BB  244   3.672   3.567   4.237  0.1871 -0.0171  0.1668
    1TYR    SC1  245   3.575   3.833   4.113  0.2791  0.1418 -0.0868
    1TYR    SC2  246   3.523   4.077   4.219  0.3013  0.0765  0.0772
    1TYR    SC3  247   3.582   4.053   3.956 -0.1864  0.1922 -0.0529
    2ALA     BB  248   3.944   3.454   4.187  0.1975  0.1137 -0.2128
    3TYR     BB  249   4.090   3.217   4.023 -0.2267  0.0113 -0.3171
    3TYR    SC1  250   4.238   3.357   3.791 -0.0021 -0.0321 -0.0668
    3TYR    SC2  251   4.316   3.566   3.638 -0.0688 -0.0564 -0.1344
    3TYR    SC3  252   4.429   3.324   3.603 -0.1703 -0.0908 -0.2304
    1TYR     BB  253   4.878   2.652   4.476 -0.1247 -0.0412 -0.2351
    1TYR    SC1  254   4.767   2.348   4.519 -0.2549  0.0999 -0.2031
    1TYR    SC2  255   4.779   2.078   4.526  0.0433  0.1102 -0.1228
    1TYR    SC3  256   4.759   2.218   4.756 -0.0431  0.1611 -0.1602
    2ALA     BB  257   5.230   2.656   4.567 -0.0647  0.0933  0.1751
    3TYR     BB  258   5.315   2.955   4.537 -0.1004 -0.0863 -0.1639
    3TYR    SC1  259   5.579   2.875   4.316 -0.0222 -0.4658 -0.2500
    3TYR    SC2  260   5.662   2.992   4.087  0.2320 -0.1686 -0.0194
    3TYR    SC3  261   5.837   2.946   4.287 -0.1149  0.3684  0.4455
    1TYR     BB  262   2.496   2.479   3.213 -0.0243 -0.2320 -0.0053
    1TYR    SC1  263   2.735   2.354   3.082  0.3795  0.0430  0.3492
    1TYR    SC2  264   2.771   2.091   3.037 -0.0416  0.0295  0.0018
    1TYR    SC3  265   2.946   2.269   2.935  0.0155 -0.0960 -0.1233
    2ALA     BB  266   2.601   2.647   3.464 -0.3612  0.0642 -0.0249
    3TYR     BB  267   2.743   2.663   3.718 -0.0276  0.4628 -0.0825
    3TYR    SC1  268   2.567   2.793   3.908 -0.1296  0.0510 -0.1474
    3TYR    SC2  269   2.487   2.913   4.137 -0.0694 -0.2278  0.0271
    3TYR    SC3  270   2.322   2.741   4.009 -0.1991  0.1094 -0.2830
    1TYR     BB  271   3.836   1.976   4.173 -0.0470 -0.2352 -0.1525
    1TYR    SC1  272   3.877   1.923   4.451 -0.3691 -0.2275  0.2268
    1TYR    SC2  273   3.996   1.833   4.677  0.0875  0.3038  0.2245
    1TYR    SC3  274   3.738   1.911   4.682 -0.0114 -0.0150  0.4647
    2ALA     BB  275   3.692   2.296   4.214 -0.0429  0.0055 -0.3630
    3TYR     BB  276   3.634   2.477   4.180 -0.0344 -0.2403  0.1553
    3TYR    SC1  277   3.475   2.701   4.417 -0.1844 -0.1613  0.2475
    3TYR    SC2  278   3.237   2.806   4.489 -0.1282  0.1311  0.0294
    3TYR    SC3  279   3.459   2.862   4.632 -0.0901  0.3601 -0.1131
    1TYR     BB  280   2.977   2.754   2.833 -0.2527  0.0807  0.1194
    1TYR    SC1  281   2.765   2.622   2.636  0.4871 -0.1866  0.0930
    1TYR    SC2  282   2.673   2.476   2.428  0.2513 -0.0457  0.0944
    1TYR    SC3  283   2.543   2.472   2.665  0.1577  0.2683  0.0538
    2ALA     BB  284   2.766   2.861   3.039 -0.3765 -0.1212 -0.0427
    3TYR     BB  285   2.644   3.076   3.209  0.2404  0.2404 -0.0398
    3TYR    SC1  286   2.333   2.984   3.237 -0.1082 -0.3663 -0.1404
    3TYR    SC2  287   2.125   2.951   3.405  0.0425 -0.2739  0.0702
    3TYR    SC3  288   2.083   2.963   3.138 -0.2458 -0.0523  0.1182
    1TYR     BB  289   2.539   3.750   3.852  0.1835 -0.1823 -0.0243
    1TYR    SC1  290   2.373   3.958   4.011 -0.2836 -0.1860  0.2908
    1TYR    SC2  291   2.392   4.004   4.276 -0.1771  0.0417  0.2463
    1TYR    SC3  292   2.370   4.212   4.105  0.0425 -0.0869  0.0547
    2ALA     BB  293   2.768   3.899   3.730  0.0306 -0.2156  0.0282
    3TYR     BB  294   3.023   4.029   3.641  0.0602 -0.0676 -0.3452
    3TYR    SC1  295   3.163   4.252   3.796  0.2609 -0.1179  0.0354
    3TYR    SC2  296   3.211   4.363   4.038 -0.2616  0.4616 -0.0989
    3TYR    SC3  297   3.366   4.429   3.826  0.2312 -0.0880  0.0601
    1TYR     BB  298   2.220   3.868   4.766  0.3198  0.0973  0.4574
    1TYR    SC1  299   2.355   3.877   5.015  0.2123 -0.2055  0.0913
    1TYR    SC2  300   2.556   3.786   5.171  0.2216 -0.1493  0.1124
    1TYR    SC3  301   2.401   3.991   5.255  0.3113 -0.0296 -0.0085
    2ALA     BB  302   2.042   4.015   4.605 -0.0388  0.2868 -0.0905
    3TYR     BB  303   1.845   4.151   4.417  0.1963  0.0320  0.1167
    3TYR    SC1  304   1.817   4.088   4.122 -0.2524 -0.0926 -0.0426
    3TYR    SC2  305   1.956   4.112   3.892 -0.0249  0.1642  0.1130
    3TYR    SC3  306   1.733   3.958   3.901  0.1546 -0.1310 -0.1840
    1TYR     BB  307   3.081   3.900   2.787 -0.0480  0.1829  0.1174
    1TYR    SC1  308   2.776   3.864   2.708 -0.1246 -0.0840 -0.0836
    1TYR    SC2  309   2.524   3.803   2.632 -0.2888  0.2386  0.1687
    1TYR    SC3  310   2.641   4.028   2.540  0.0129 -0.0353 -0.1482
    2ALA     BB  311   3.230   3.740   2.566  0.0796 -0.1770  0.0877
    3TYR     BB  312   3.483   3.610   2.451  0.0115 -0.1677 -0.0490
    3TYR    SC1  313   3.504   3.610   2.142 -0.2115  0.1475 -0.0193
    3TYR    SC2  314   3.540   3.722   1.900  0.0591  0.1255  0.0057
    3TYR    SC3  315   3.526   3.453   1.923 -0.0255  0.1297  0.0099
    1TYR     BB  316   2.135   3.353   4.552 -0.0245  0.0239 -0.1603
    1TYR    SC1  317   2.186   3.075   4.619  0.1782 -0.0392 -0.1153
    1TYR    SC2  318   2.264   2.829   4.538  0.0807 -0.1151  0.0176
    1TYR    SC3  319   2.200   2.873   4.797  0.3142  0.1056  0.0425
    2ALA     BB  320   2.397   3.475   4.414  0.0611 -0.1243 -0.1382
    3TYR     BB  321   2.552   3.442   4.207  0.3073  0.1536  0.1067
    3TYR    SC1  322   2.391   3.318   3.980 -0.1894  0.5680  0.0649
    3TYR    SC2  323   2.169   3.166   3.989  0.1191  0.0907 -0.0009
    3TYR    SC3  324   2.322   3.166   3.767  0.4974 -0.0700  0.2476
    1TYR     BB  325   3.816   5.240   4.337 -0.1431 -0.2036 -0.1659
    1TYR    SC1  326   3.529   5.315   4.286  0.1817  0.1312  0.0425
    1TYR    SC2  327   3.357   5.487   4.170 -0.0910 -0.1588 -0.0025
    1TYR    SC3  328   3.271   5.324   4.366  0.2014 -0.1382  0.1490
    2ALA     BB  329   3.944   5.396   4.030  0.4105  0.0563 -0.1975
    3TYR     BB  330   3.877   5.567   3.840 -0.1193  0.1985  0.1166
    3TYR    SC1  331   3.625   5.721   3.886 -0.0755  0.0197  0.1336
    3TYR    SC2  332   3.366   5.777   3.834 -0.0933 -0.3666 -0.2610
    3TYR    SC3  333   3.559   5.957   3.772 -0.2665  0.0182  0.2367
    1TYR     BB  334   5.373   3.355   4.177 -0.0266 -0.0535  0.0564
    1TYR    SC1  335   5.588   3.357   4.412  0.0435 -0.0191  0.1514
    1TYR    SC2  336   5.850   3.419   4.391  0.0597 -0.1969 -0.3218
    1TYR    SC3  337   5.765   3.262   4.593  0.2133  0.3069  0.1664
    2ALA     BB  338   5.069   3.484   4.246 -0.1451 -0.0014  0.1476
    3TYR     BB  339   4.928   3.381   4.410  0.2193 -0.1019 -0.0574
    3TYR    SC1  340   4.777   3.518   4.649 -0.3363 -0.0180 -0.1000
    3TYR    SC2  341   4.626   3.493   4.872  0.0088 -0.0307  0.1407
    3TYR    SC3  342   4.754   3.725   4.820  0.4018 -0.2062  0.2765
    1TYR     BB  343   2.234   4.819   4.597  0.0233  0.1467  0.2096
    1TYR    SC1  344   2.171   5.115   4.494  0.0499 -0.1118 -0.0017
    1TYR    SC2  345   2.048   5.338   4.580 -0.1963 -0.3052  0.1676
    1TYR    SC3  346   2.055   5.283   4.316  0.0728  0.0118  0.0986
    2ALA     BB  347   2.243   4.618   4.354 -0.0365  0.2052  0.0945
    3TYR     BB  348   1.991   4.604   4.188 -0.0316 -0.0713 -0.1851
    3TYR    SC1  349   1.912   4.883   4.076 -0.3510 -0.2070 -0.1646
    3TYR    SC2  350   1.945   5.048   3.864  0.3088  0.3992  0.3483
    3TYR    SC3  351   1.713   5.051   4.003 -0.0897  0.0744 -0.2551
    1TYR     BB  352   5.147   2.364   3.639 -0.2753 -0.0329 -0.0033
    1TYR    SC1  353   5.414   2.503   3.612 -0.0296 -0.2024  0.5395
    1TYR    SC2  354   5.566   2.643   3.785  0.0092  0.3205  0.1121
    1TYR    SC3  355   5.664   2.578   3.542 -0.2583  0.1686  0.0403
    2ALA     BB  356   4.956   2.626   3.533  0.1447  0.4646 -0.1274
    3TYR     BB  357   4.814   2.859   3.593  0.3566  0.1397  0.2032
    3TYR    SC1  358   4.895   3.056   3.369 -0.0535  0.1561 -0.2318
    3TYR    SC2  359   4.977   3.304   3.303  0.0211  0.2201  0.0824
    3TYR    SC3  360   5.045   3.095   3.148  0.1529  0.3656 -0.0619
    1TYR     BB  361   3.952   2.236   3.201  0.0436 -0.0894 -0.1936
    1TYR    SC1  362   4.261   2.313   3.054  0.0184  0.0250  0.2540
    1TYR    SC2  363   4.415   2.423   2.862 -0.0887  0.0078  0.1582
    1TYR    SC3  364   4.528   2.274   3.055 -0.0178 -0.2939 -0.1065
    2ALA     BB  365   3.875   2.501   3.242 -0.0906  0.0509 -0.0596
    3TYR     BB  366   4.033   2.789   3.162  0.1937  0.2906  0.0734
    3TYR    SC1  367   4.131   2.753   2.848  0.3249 -0.4180  0.2470
    3TYR    SC2  368   4.112   2.956   2.671 -0.2851 -0.1357  0.5947
    3TYR    SC3  369   4.236   2.728   2.601  0.1855  0.2389  0.0930
    1TYR     BB  370   4.380   4.381   4.238  0.0102 -0.0382  0.3553
    1TYR    SC1  371   4.190   4.492   4.489  0.0271  0.0722  0.1796
    1TYR    SC2  372   3.957   4.415   4.601  0.1176 -0.1303  0.2351
    1TYR    SC3  373   4.017   4.678   4.580 -0.0085 -0.0825  0.4391
    2ALA     BB  374   4.637   4.390   4.236 -0.3170 -0.4241  0.1742
    3TYR     BB  375   4.883   4.528   4.226  0.0326 -0.0438 -0.1592
    3TYR    SC1  376   5.167   4.413   4.301  0.1926  0.3944  0.1293
    3TYR    SC2  377   5.361   4.281   4.434  0.1217  0.3084  0.1492
    3TYR    SC3  378   5.312   4.223   4.176 -0.1337  0.0510  0.2491
    1TYR     BB  379   5.220   3.678   3.229 -0.0944 -0.0427 -0.1572
    1TYR    SC1  380   5.515   3.614   3.383  0.0235 -0.2738  0.1874
    1TYR    SC2  381   5.719   3.470   3.484  0.0566 -0.0523  0.4513
    1TYR    SC3  382   5.717   3.739   3.512 -0.0469 -0.0028  0.0476
    2ALA     BB  383   4.958   3.784   3.371 -0.0136  0.1952 -0.1011
    3TYR     BB  384   4.747   3.771   3.468  0.0519  0.2652  0.0553
    3TYR    SC1  385   4.596   3.962   3.635 -0.1243 -0.0725  0.2975
    3TYR    SC2  386   4.341   4.044   3.665 -0.0399  0.2512  0.1812
    3TYR    SC3  387   4.514   4.061   3.872 -0.0500  0.2629  0.1887
    1TYR     BB  388   3.684   3.360   3.765  0.2415 -0.1706  0.0406
    1TYR    SC1  389   3.784   3.643   3.712 -0.1529  0.1453 -0.1845
    1TYR    SC2  390   3.942   3.829   3.597  0.3135 -0.1155 -0.0074
    1TYR    SC3  391   3.954   3.788   3.864 -0.0464 -0.1667  0.0082
    2ALA     BB  392   3.418   3.384   3.875 -0.0096 -0.3580 -0.1461
    3TYR     BB  393   3.217   3.572   3.756  0.0162  0.2016 -0.0009
    3TYR    SC1  394   3.286   3.679   3.517 -0.0464  0.1011  0.1331
    3TYR    SC2  395   3.278   3.805   3.278  0.1813  0.2282  0.1885
    3TYR    SC3  396   3.503   3.677   3.356 -0.1187 -0.4670  0.0146
    1TYR     BB  397   4.764   3.031   2.692 -0.1360 -0.0662 -0.1587
    1TYR    SC1  398   4.797   2.770   2.873 -0.0715 -0.2500 -0.4340
    1TYR    SC2  399   4.850   2.532   2.989  0.2520 -0.1159 -0.2903
    1TYR    SC3  400   4.709   2.719   3.123  0.3806 -0.0662 -0.2219
    2ALA     BB  401   4.592   3.139   2.551 -0.2364  0.0319 -0.0192
    3TYR     BB  402   4.574   3.367   2.270 -0.0575  0.1792 -0.0629
    3TYR    SC1  403   4.623   3.605   2.401  0.0411 -0.0343 -0.0010
    3TYR    SC2  404   4.516   3.840   2.481  0.1181  0.0383 -0.1076
    3TYR    SC3  405   4.785   3.807   2.477  0.1137  0.0106 -0.2608
    1TYR     BB  406   5.209   4.845   3.913 -0.3624  0.1948  0.2154
    1TYR    SC1  407   5.393   4.803   4.171 -0.2201 -0.1091  0.0608
    1TYR    SC2  408   5.608   4.666   4.258 -0.1072 -0.0680 -0.1468
    1TYR    SC3  409   5.601   4.934   4.281  0.1039 -0.0103 -0.6079
    2ALA     BB  410   5.275   5.064   3.699 -0.3882  0.2532 -0.0389
    3TYR     BB  411   5.451   5.158   3.477  0.1276  0.0613 -0.3312
    3TYR    SC1  412   5.770   5.053   3.436 -0.0968 -0.0059  0.2558
    3TYR    SC2  413   6.028   4.985   3.487 -0.0419  0.0695  0.0856
    3TYR    SC3  414   5.907   4.902   3.260 -0.1359  0.1195  0.1160
    1TYR     BB  415   2.437   3.147   2.745 -0.2762 -0.0116  0.0699
    1TYR    SC1  416   2.664   3.022   2.548 -0.1717 -0.2040 -0.1602
    1TYR    SC2  417   2.828   2.989   2.335 -0.2284  0.0616 -0.2508
    1TYR    SC3  418   2.568   2.919   2.317 -0.2081 -0.0208 -0.2294
    2ALA     BB  419   2.272   3.363   2.662  0.1014 -0.3428 -0.0890
    3TYR     BB  420   2.240   3.439   2.406 -0.1535 -0.1612 -0.0033
    3TYR    SC1  421   2.328   3.713   2.215 -0.0329  0.0897 -0.3467
    3TYR    SC2  422   2.321   3.866   1.992  0.1164  0.3467 -0.1814
    3TYR    SC3  423   2.549   3.848   2.136  0.0236  0.1777 -0.0511
    1TYR     BB  424   4.021   4.075   5.263  0.1052 -0.1858 -0.1150
    1TYR    SC1  425   4.337   4.030   5.268 -0.3957 -0.0218  0.3188
    1TYR    SC2  426   4.589   4.088   5.188 -0.5743  0.2232 -0.1075
    1TYR    SC3  427   4.523   3.834   5.254 -0.1789  0.1861  0.1880
    2ALA     BB  428   3.906   4.329   5.118  0.1593  0.0645  0.0560
    3TYR     BB  429   3.918   4.669   5.040 -0.2509 -0.3226 -0.0184
    3TYR    SC1  430   3.692   4.811   5.146  0.1814  0.0489 -0.1322
    3TYR    SC2  431   3.546   4.921   5.343  0.2809 -0.1754  0.0714
    3TYR    SC3  432   3.552   5.038   5.100  0.2020  0.1365  0.2125
    1TYR     BB  433   3.498   2.759   3.641  0.1551 -0.0552  0.2769
    1TYR    SC1  434   3.288   3.030   3.528 -0.2370 -0.0096 -0.0995
    1TYR    SC2  435   3.298   3.250   3.373 -0.2213  0.0754  0.0203
    1TYR    SC3  436   3.163   3.031   3.288  0.2804 -0.1018 -0.3841
    2ALA     BB  437   3.733   2.808   3.626 -0.0142 -0.0004  0.1159
    3TYR     BB  438   3.962   2.931   3.603 -0.1852 -0.3219 -0.1446
    3TYR    SC1  439   3.987   3.191   3.388 -0.0282 -0.0064  0.2735
    3TYR    SC2  440   4.019   3.454   3.335 -0.2906 -0.0538 -0.1856
    3TYR    SC3  441   3.779   3.337   3.297 -0.1969 -0.3516  0.0795
    1TYR     BB  442   4.468   2.332   3.499 -0.1889  0.3560 -0.2849
    1TYR    SC1  443   4.350   2.046   3.404  0.2465 -0.1035 -0.2571
    1TYR    SC2  444   4.278   1.852   3.230 -0.2925  0.1963 -0.3977
    1TYR    SC3  445   4.176   1.854   3.481  0.0883  0.0460 -0.2322
    2ALA     BB  446   4.359   2.623   3.519  0.1436  0.0710  0.1410
    3TYR     BB  447   4.401   2.825   3.795 -0.1231  0.1996  0.2175
    3TYR    SC1  448   4.578   2.636   3.955  0.0892  0.1606  0.1273
    3TYR    SC2  449   4.543   2.448   4.146 -0.1323  0.1177  0.0471
    3TYR    SC3  450   4.771   2.452   4.001 -0.0037  0.0909  0.2446
    1TYR     BB  451   3.262   2.241   4.427  0.3274 -0.1337 -0.4344
    1TYR    SC1  452   2.933   2.128   4.482 -0.0459  0.2817 -0.0898
    1TYR    SC2  453   2.673   2.074   4.529  0.1187 -0.2879  0.3142
    1TYR    SC3  454   2.816   1.914   4.366  0.2275  0.0217  0.0927
    2ALA     BB  455   3.355   2.297   4.695  0.1107  0.3156  0.0459
    3TYR     BB  456   3.113   2.487   4.881 -0.1466  0.1719 -0.0023
    3TYR    SC1  457   3.327   2.623   5.052 -0.1148  0.1216  0.0345
    3TYR    SC2  458   3.583   2.551   5.095 -0.0909 -0.0068 -0.2865
    3TYR    SC3  459   3.511   2.811   5.110 -0.0639 -0.0195  0.3468
    1TYR     BB  460   5.135   4.067   5.039  0.1224 -0.2972  0.0622
    1TYR    SC1  461   5.004   3.830   5.180 -0.0916  0.0318 -0.1011
    1TYR    SC2  462   4.976   3.564   5.216  0.3277  0.0009  0.0729
    1TYR    SC3  463   4.956   3.731   5.427 -0.2047  0.1479 -0.0754
    2ALA     BB  464   4.975   4.264   4.925 -0.0129 -0.0794 -0.3391
    3TYR     BB  465   4.744   4.360   4.717 -0.2531  0.0918  0.2272
    3TYR    SC1  466   4.491   4.183   4.693 -0.3071  0.2133 -0.2277
    3TYR    SC2  467   4.387   3.934   4.719 -0.4326  0.2728 -0.1483
    3TYR    SC3  468   4.243   4.149   4.797 -0.1370  0.3422  0.2523
    1TYR     BB  469   3.240   3.226   2.841 -0.0334  0.0026 -0.1155
    1TYR    SC1  470   3.250   3.076   2.600 -0.3696 -0.0197 -0.1335
    1TYR    SC2  471   3.312   2.852   2.461 -0.1948 -0.0295 -0.0450
    1TYR    SC3  472   3.368   3.094   2.357 -0.0380 -0.0376  0.0185
    2ALA     BB  473   3.477   3.457   2.889  0.0136 -0.0098 -0.0461
    3TYR     BB  474   3.704   3.270   2.775  0.1257 -0.1143 -0.0131
    3TYR    SC1  475   3.645   2.987   2.856 -0.5951  0.1220 -0.2553
    3TYR    SC2  476   3.489   2.768   2.887 -0.2126 -0.1187  0.1201
    3TYR    SC3  477   3.565   2.911   3.103  0.0559  0.0137 -0.0546
    1TYR     BB  478   3.491   4.447   4.748  0.3373 -0.0228 -0.0763
    1TYR    SC1  479   3.500   4.734   4.664 -0.0984  0.0288  0.0409
    1TYR    SC2  480   3.677   4.937   4.688  0.1600 -0.1704 -0.1076
    1TYR    SC3  481   3.417   4.989   4.635  0.1837  0.1246  0.0416
    2ALA     BB  482   3.246   4.301   4.583  0.0058 -0.1313 -0.1840
    3TYR     BB  483   2.995   4.292   4.542  0.0029  0.0806 -0.0934
    3TYR    SC1  484   2.872   4.428   4.287 -0.1321 -0.2239 -0.0389
    3TYR    SC2  485   2.734   4.651   4.222  0.0256 -0.1296 -0.0554
    3TYR    SC3  486   2.773   4.457   4.038 -0.0194 -0.1219 -0.0732
    1TYR     BB  487   2.423   4.995   4.038  0.0425  0.4207  0.0723
    1TYR    SC1  488   2.343   5.251   3.900 -0.0089 -0.2516  0.1767
    1TYR    SC2  489   2.203   5.477   3.858  0.2114 -0.1442 -0.0019
    1TYR    SC3  490   2.398   5.406   3.686  0.1136 -0.4967  0.0260
    2ALA     BB  491   2.352   4.748   3.894  0.1546  0.1271  0.3646
    3TYR     BB  492   2.234   4.534   3.741  0.0952 -0.2399  0.2396
    3TYR    SC1  493   1.926   4.536   3.695 -0.0462  0.1198  0.2461
    3TYR    SC2  494   1.698   4.410   3.625  0.0768  0.1239 -0.1962
    3TYR    SC3  495   1.687   4.643   3.762 -0.1568 -0.2368  0.4524
    1TYR     BB  496   2.945   4.729   4.732 -0.3068 -0.1633  0.2752
    1TYR    SC1  497   3.127   4.698   4.967  0.1665 -0.0925 -0.3330
    1TYR    SC2  498   3.327   4.633   5.136 -0.1708 -0.0764  0.0946
    1TYR    SC3  499   3.122   4.787   5.222 -0.1096  0.3685 -0.4844
    2ALA     BB  500   2.799   4.937   4.629  0.1064 -0.2037  0.1612
    3TYR     BB  501   2.816   5.155   4.445  0.0884  0.3040 -0.1703
    3TYR    SC1  502   2.547   5.386   4.331 -0.1302 -0.1446  0.2912
    3TYR    SC2  503   2.393   5.606   4.358 -0.0088 -0.0468  0.2020
    3TYR    SC3  504   2.551   5.579   4.142  0.1331 -0.1241  0.3132
    1TYR     BB  505   5.463   4.665   3.262 -0.0307  0.1178  0.3398
    1TYR    SC1  506   5.381   4.372   3.299  0.2211 -0.0244 -0.2638
    1TYR    SC2  507   5.409   4.132   3.420 -0.1586  0.1065  0.1166
    1TYR    SC3  508   5.181   4.192   3.288 -0.0878  0.2793  0.0687
    2ALA     BB  509   5.508   4.751   3.016  0.2356  0.0790 -0.0977
    3TYR     BB  510   5.338   4.904   2.800  0.1411 -0.0010  0.0927
    3TYR    SC1  511   5.166   5.127   2.936  0.1010  0.1117  0.2089
    3TYR    SC2  512   5.163   5.395   2.973 -0.2741  0.1181  0.1798
    3TYR    SC3  513   4.996   5.237   3.116 -0.2840 -0.0654 -0.0281
    1TYR     BB  514   3.323   4.152   5.118  0.0799  0.1963 -0.0709
    1TYR    SC1  515   3.465   4.285   5.419 -0.0528  0.1904  0.2956
    1TYR    SC2  516   3.676   4.305   5.585  0.2056  0.0651 -0.0027
    1TYR    SC3  517   3.542   4.527   5.512  0.2412  0.1487  0.1761
    2ALA     BB  518   3.077   4.154   4.982 -0.3124 -0.0486 -0.0780
    3TYR     BB  519   2.886   4.344   5.046 -0.1296  0.0679  0.2641
    3TYR    SC1  520   2.614   4.328   4.871 -0.1215 -0.0653 -0.1067
    3TYR    SC2  521   2.497   4.293   4.631 -0.2087  0.1470 -0.0980
    3TYR    SC3  522   2.347   4.361   4.844 -0.1225  0.0244  0.0036
    1TYR     BB  523   4.207   4.695   3.530  0.1232 -0.0913 -0.0279
    1TYR    SC1  524   4.250   4.979   3.607  0.0026 -0.0695 -0.1975
    1TYR    SC2  525   4.373   5.157   3.767  0.0636 -0.1854 -0.1130
    1TYR    SC3  526   4.182   5.240   3.595  0.0614 -0.0460 -0.0461
    2ALA     BB  527   4.403   4.593   3.813  0.1703 -0.0087 -0.4960
    3TYR     BB  528   4.694   4.752   3.864 -0.2502 -0.0387 -0.0557
    3TYR    SC1  529   4.837   4.732   3.588  0.0095 -0.1368  0.3687
    3TYR    SC2  530   5.009   4.567   3.461 -0.1564 -0.1140  0.1075
    3TYR    SC3  531   4.981   4.822   3.379 -0.0390 -0.0048  0.3909
    1TYR     BB  532   2.732   4.838   3.155  0.1177  0.0715  0.1376
    1TYR    SC1  533   2.837   4.642   2.905  0.1780 -0.0917 -0.0550
    1TYR    SC2  534   2.936   4.403   2.824  0.2283 -0.0474 -0.1258
    1TYR    SC3  535   2.808   4.563   2.648  0.2686  0.0151 -0.0984
    2ALA     BB  536   2.607   4.678   3.370  0.1498 -0.0113  0.1473
    3TYR     BB  537   2.641   4.390   3.449  0.1534 -0.2723 -0.0119
    3TYR    SC1  538   2.651   4.228   3.230 -0.1498  0.1579  0.0636
    3TYR    SC2  539   2.683   3.974   3.146 -0.0692  0.2628 -0.2381
    3TYR    SC3  540   2.584   4.161   2.977 -0.3249  0.3917  0.0435
    1TYR     BB  541   4.475   2.944   4.431  0.3226 -0.0514  0.0737
    1TYR    SC1  542   4.263   2.758   4.294  0.1029 -0.0965 -0.2478
    1TYR    SC2  543   4.038   2.756   4.147 -0.0221 -0.0953 -0.0607
    1TYR    SC3  544   4.126   2.528   4.261  0.0887 -0.1018 -0.1568
    2ALA     BB  545   4.403   3.218   4.469 -0.2398 -0.1587 -0.0376
    3TYR     BB  546   4.229   3.440   4.554  0.0392 -0.2863 -0.3577
    3TYR    SC1  547   4.096   3.505   4.835  0.0978  0.0982  0.0037
    3TYR    SC2  548   3.959   3.683   4.984  0.0779  0.0838  0.0027
    3TYR    SC3  549   4.192   3.583   5.074  0.1097  0.1413 -0.0152
    1TYR     BB  550   2.787   3.069   4.554  0.2910 -0.0019 -0.0460
    1TYR    SC1  551   2.620   3.211   4.801  0.2450  0.1064  0.2071
    1TYR    SC2  552   2.495   3.405   4.939 -0.2647  0.0950 -0.2011
    1TYR    SC3  553   2.447   3.146   4.997  0.1155  0.0771  0.0847
    2ALA     BB  554   2.997   3.275   4.412 -0.0431 -0.2219 -0.2853
    3TYR     BB  555   3.067   3.438   4.204 -0.0301 -0.0365  0.0262
    3TYR    SC1  556   2.965   3.714   4.169  0.3553  0.0075 -0.0725
    3TYR    SC2  557   3.045   3.971   4.149  0.2928  0.0321 -0.0062
    3TYR    SC3  558   2.815   3.910   4.278  0.1684 -0.0315 -0.2502
   7.62311   7.62311   7.62311
