Generated by trjconv : Martini system from ../2_Creating_coordinates/TYR-MET-TYR_aa.pdb t=   0.00000
 1000
    1TYR     BB    1   2.781   2.718   4.030 -0.1098 -0.0432  0.0791
    1TYR    SC1    2   2.510   2.757   4.048  0.1206  0.0030  0.4211
    1TYR    SC2    3   2.296   2.904   4.120  0.1676  0.1961  0.1834
    1TYR    SC3    4   2.285   2.635   4.134 -0.1168  0.1990  0.1073
    2MET     BB    5   2.851   2.504   4.314 -0.0179  0.1523  0.0633
    2MET    SC1    6   2.518   2.445   4.539 -0.1068  0.4104  0.0362
    3TYR     BB    7   2.950   2.272   4.395 -0.0823  0.0213 -0.1683
    3TYR    SC1    8   3.225   2.308   4.545  0.0730  0.4152 -0.1804
    3TYR    SC2    9   3.343   2.426   4.757 -0.0589 -0.2017  0.2727
    3TYR    SC3   10   3.483   2.386   4.530  0.1346  0.3390  0.2781
    1TYR     BB   11   3.013   4.093   4.403  0.0406  0.0428 -0.4360
    1TYR    SC1   12   3.278   3.898   4.417 -0.0724  0.3601  0.3780
    1TYR    SC2   13   3.465   3.764   4.559  0.0078  0.2423  0.1663
    1TYR    SC3   14   3.525   3.861   4.314 -0.3308 -0.2052 -0.1143
    2MET     BB   15   3.023   4.398   4.316 -0.3574  0.0405  0.1743
    2MET    SC1   16   2.782   4.566   4.584  0.2486  0.0991  0.1800
    3TYR     BB   17   3.051   4.584   4.141 -0.1502 -0.3857  0.2516
    3TYR    SC1   18   3.258   4.620   3.898 -0.1896  0.3253 -0.0882
    3TYR    SC2   19   3.397   4.785   3.735 -0.1324  0.0411 -0.3380
    3TYR    SC3   20   3.360   4.526   3.666 -0.4936  0.0229 -0.1100
    1TYR     BB   21   3.093   3.701   4.055 -0.2065 -0.3943 -0.0740
    1TYR    SC1   22   3.343   3.557   4.010 -0.0156  0.2908  0.0291
    1TYR    SC2   23   3.543   3.422   4.131 -0.0510  0.1478 -0.0692
    1TYR    SC3   24   3.599   3.603   3.939 -0.0244 -0.0696 -0.2724
    2MET     BB   25   2.824   3.589   4.114  0.3754  0.0794 -0.0316
    2MET    SC1   26   2.780   3.674   4.455  0.1097  0.0698 -0.0476
    3TYR     BB   27   2.581   3.300   4.083 -0.1106  0.0537 -0.0617
    3TYR    SC1   28   2.585   3.197   4.395  0.2436  0.2407  0.4729
    3TYR    SC2   29   2.375   3.198   4.564 -0.0476 -0.1190  0.1377
    3TYR    SC3   30   2.508   2.968   4.516  0.3009  0.0642  0.1886
    1TYR     BB   31   5.002   4.690   4.950  0.0079 -0.0825 -0.2708
    1TYR    SC1   32   4.923   4.861   4.678  0.1331  0.0646 -0.2962
    1TYR    SC2   33   4.976   4.923   4.420 -0.2071 -0.0544 -0.4026
    1TYR    SC3   34   4.720   4.910   4.506 -0.1095 -0.2767 -0.1238
    2MET     BB   35   5.169   4.836   5.158  0.2002  0.0894 -0.2543
    2MET    SC1   36   5.340   4.552   5.346  0.0082 -0.2503 -0.1467
    3TYR     BB   37   5.389   4.979   5.130 -0.4196 -0.2662  0.3243
    3TYR    SC1   38   5.696   4.841   5.164 -0.0645  0.1271 -0.1053
    3TYR    SC2   39   5.963   4.853   5.203 -0.0655  0.1392 -0.1024
    3TYR    SC3   40   5.846   4.618   5.142 -0.0262  0.1711 -0.3105
    1TYR     BB   41   4.073   5.273   3.968  0.2047  0.0416  0.2551
    1TYR    SC1   42   4.059   5.439   3.682 -0.3312 -0.2286 -0.3260
    1TYR    SC2   43   3.944   5.624   3.522 -0.1319  0.0573 -0.1509
    1TYR    SC3   44   4.148   5.472   3.429 -0.1417  0.0889 -0.2249
    2MET     BB   45   3.808   5.151   4.175  0.0026  0.4371 -0.3324
    2MET    SC1   46   3.672   4.849   4.132 -0.2540  0.0349  0.0146
    3TYR     BB   47   3.741   5.141   4.510  0.1059  0.3621  0.1105
    3TYR    SC1   48   3.468   5.000   4.551 -0.0660  0.0438 -0.3080
    3TYR    SC2   49   3.359   4.753   4.561  0.4169 -0.1774 -0.0752
    3TYR    SC3   50   3.251   4.954   4.705  0.1417 -0.3042 -0.0981
    1TYR     BB   51   3.589   3.372   5.832 -0.1086  0.2736  0.0108
    1TYR    SC1   52   3.757   3.474   6.046 -0.4325  0.0556  0.1462
    1TYR    SC2   53   4.009   3.469   6.143 -0.3781  0.1514  0.0152
    1TYR    SC3   54   3.883   3.705   6.107 -0.3795  0.1216 -0.1880
    2MET     BB   55   3.700   3.171   5.602 -0.0801  0.1209 -0.1572
    2MET    SC1   56   3.846   2.893   5.823 -0.2597 -0.0906  0.0832
    3TYR     BB   57   3.751   3.345   5.350 -0.1657  0.0771 -0.2783
    3TYR    SC1   58   3.592   3.564   5.295 -0.1242  0.0873  0.2353
    3TYR    SC2   59   3.513   3.709   5.081 -0.1513 -0.0708  0.1368
    3TYR    SC3   60   3.356   3.696   5.300 -0.2139 -0.0628  0.0929
    1TYR     BB   61   4.705   4.162   3.803  0.1179  0.0334 -0.1585
    1TYR    SC1   62   4.545   3.910   3.776  0.1954 -0.1295  0.0862
    1TYR    SC2   63   4.482   3.662   3.688  0.1590 -0.2018  0.3096
    1TYR    SC3   64   4.556   3.700   3.945  0.2831  0.0016  0.2465
    2MET     BB   65   4.567   4.400   3.663  0.0446 -0.0541  0.3183
    2MET    SC1   66   4.784   4.664   3.869  0.3846  0.0465  0.0223
    3TYR     BB   67   4.276   4.521   3.638  0.3832  0.0136 -0.3304
    3TYR    SC1   68   4.373   4.860   3.589  0.0004  0.0402  0.0596
    3TYR    SC2   69   4.416   5.123   3.545  0.2319  0.0068  0.0694
    3TYR    SC3   70   4.294   4.973   3.357  0.3534  0.0631 -0.0560
    1TYR     BB   71   5.719   3.321   2.445 -0.0210  0.2317  0.4290
    1TYR    SC1   72   5.607   3.305   2.157  0.2128 -0.2869  0.1298
    1TYR    SC2   73   5.501   3.129   1.982 -0.0580  0.1321 -0.1519
    1TYR    SC3   74   5.715   3.278   1.911 -0.0746  0.1964 -0.0681
    2MET     BB   75   5.962   3.505   2.427  0.1743 -0.0661 -0.1726
    2MET    SC1   76   6.067   3.578   2.058  0.1438 -0.2549 -0.0350
    3TYR     BB   77   6.129   3.675   2.660 -0.0423  0.2237  0.0610
    3TYR    SC1   78   6.223   3.917   2.520  0.1382 -0.0536  0.2201
    3TYR    SC2   79   6.254   3.964   2.256 -0.1779  0.0860  0.2024
    3TYR    SC3   80   6.422   4.078   2.434 -0.0149  0.0594  0.0691
    1TYR     BB   81   5.795   4.248   4.826  0.0488 -0.0205 -0.1277
    1TYR    SC1   82   5.601   4.020   4.721  0.1433 -0.0232 -0.0176
    1TYR    SC2   83   5.624   3.787   4.586 -0.1176 -0.0394 -0.0392
    1TYR    SC3   84   5.431   3.817   4.772  0.1432  0.0353  0.2284
    2MET     BB   85   5.835   4.416   4.630 -0.2214 -0.0693  0.0018
    2MET    SC1   86   5.526   4.649   4.710  0.1533  0.3462  0.1244
    3TYR     BB   87   5.972   4.497   4.315  0.3426 -0.1519 -0.3913
    3TYR    SC1   88   5.824   4.766   4.240  0.0799  0.1579  0.4276
    3TYR    SC2   89   5.900   4.953   4.060  0.1722 -0.0798  0.2108
    3TYR    SC3   90   5.730   5.019   4.260 -0.0136  0.1690 -0.0202
    1TYR     BB   91   4.435   1.774   3.099  0.2222 -0.1261 -0.0234
    1TYR    SC1   92   4.269   1.782   2.813 -0.0533  0.3110  0.1960
    1TYR    SC2   93   4.325   1.665   2.576  0.2331  0.2272  0.2994
    1TYR    SC3   94   4.211   1.910   2.582 -0.0421  0.1127  0.0799
    2MET     BB   95   4.386   1.485   3.247 -0.0506  0.4642  0.1287
    2MET    SC1   96   4.335   1.286   2.941 -0.0684 -0.2202 -0.1946
    3TYR     BB   97   4.194   1.371   3.502  0.0286 -0.2023  0.2793
    3TYR    SC1   98   3.956   1.502   3.641 -0.0579  0.1942 -0.0437
    3TYR    SC2   99   3.744   1.667   3.673 -0.1952 -0.0231  0.2184
    3TYR    SC3  100   3.762   1.440   3.818  0.1092 -0.1227  0.0371
    1TYR     BB  101   2.787   3.552   3.598  0.1180  0.0549 -0.0382
    1TYR    SC1  102   3.009   3.763   3.477 -0.0124 -0.0870  0.1407
    1TYR    SC2  103   3.268   3.794   3.547 -0.0050 -0.0298  0.0894
    1TYR    SC3  104   3.094   3.999   3.578  0.0210  0.0325 -0.1515
    2MET     BB  105   2.749   3.273   3.499 -0.0787  0.1634  0.0242
    2MET    SC1  106   2.625   3.211   3.205 -0.1252  0.1699  0.2829
    3TYR     BB  107   2.617   3.040   3.676 -0.2773 -0.1509  0.0718
    3TYR    SC1  108   2.483   2.808   3.568  0.0057 -0.1467  0.1028
    3TYR    SC2  109   2.363   2.600   3.445 -0.0715 -0.0475  0.0077
    3TYR    SC3  110   2.230   2.741   3.633 -0.0225 -0.0777  0.0656
    1TYR     BB  111   1.812   4.215   2.665 -0.0808 -0.2057 -0.0494
    1TYR    SC1  112   1.686   4.046   2.876  0.1878 -0.1198  0.1488
    1TYR    SC2  113   1.650   3.821   3.022 -0.1955 -0.3148 -0.2212
    1TYR    SC3  114   1.511   4.045   3.082 -0.2404 -0.3495 -0.1943
    2MET     BB  115   2.115   4.316   2.805  0.1350 -0.2657 -0.1817
    2MET    SC1  116   1.973   4.643   2.902  0.0643 -0.0838 -0.0058
    3TYR     BB  117   2.441   4.396   2.944  0.1931  0.1890 -0.1764
    3TYR    SC1  118   2.364   4.515   3.206  0.0109  0.3668  0.0511
    3TYR    SC2  119   2.417   4.685   3.410 -0.1270  0.1612  0.2647
    3TYR    SC3  120   2.172   4.575   3.386 -0.1316  0.2299 -0.0530
    1TYR     BB  121   2.241   2.520   2.199 -0.0177  0.3588  0.1279
    1TYR    SC1  122   1.993   2.452   2.298  0.0145  0.0803 -0.2425
    1TYR    SC2  123   1.833   2.241   2.352 -0.1470  0.2008 -0.2420
    1TYR    SC3  124   1.731   2.460   2.230 -0.0363  0.3717 -0.0346
    2MET     BB  125   2.326   2.550   1.884 -0.2757 -0.0468  0.2564
    2MET    SC1  126   2.526   2.295   1.847 -0.0417  0.1909  0.1327
    3TYR     BB  127   2.272   2.631   1.553  0.0181  0.1299 -0.1570
    3TYR    SC1  128   2.557   2.728   1.460  0.0690 -0.3443  0.2211
    3TYR    SC2  129   2.793   2.734   1.590  0.1764  0.0275  0.0274
    3TYR    SC3  130   2.783   2.791   1.326 -0.1354  0.0520  0.0408
    1TYR     BB  131   4.997   2.759   2.889  0.0773  0.4152  0.1210
    1TYR    SC1  132   5.026   2.572   2.620 -0.0434 -0.1594  0.2124
    1TYR    SC2  133   5.123   2.535   2.371  0.1779 -0.2135  0.3027
    1TYR    SC3  134   5.021   2.326   2.509  0.3466 -0.2501  0.3740
    2MET     BB  135   5.142   2.681   3.123  0.1563  0.0680 -0.1386
    2MET    SC1  136   4.868   2.634   3.359 -0.2198 -0.2277 -0.1788
    3TYR     BB  137   5.427   2.648   3.233  0.0116 -0.1707  0.2069
    3TYR    SC1  138   5.641   2.864   3.274 -0.2766  0.1847  0.0113
    3TYR    SC2  139   5.736   2.971   3.503  0.0144  0.0205 -0.0256
    3TYR    SC3  140   5.800   3.082   3.265 -0.1149  0.0677 -0.0393
    1TYR     BB  141   5.738   3.222   4.949  0.4798 -0.0012 -0.1877
    1TYR    SC1  142   5.662   3.552   5.038 -0.0095  0.0436 -0.1313
    1TYR    SC2  143   5.640   3.757   5.212 -0.1273  0.2734 -0.4056
    1TYR    SC3  144   5.819   3.770   5.011  0.2356 -0.1282 -0.1306
    2MET     BB  145   5.738   3.204   4.647  0.0413 -0.2436  0.3252
    2MET    SC1  146   5.973   2.935   4.570  0.1283  0.1379 -0.1571
    3TYR     BB  147   5.855   3.378   4.432 -0.2104  0.0133  0.0722
    3TYR    SC1  148   5.984   3.291   4.177 -0.0201 -0.0292  0.0863
    3TYR    SC2  149   6.178   3.140   4.063  0.2038  0.1538  0.2151
    3TYR    SC3  150   5.944   3.179   3.934  0.1243 -0.3240  0.1914
    1TYR     BB  151   4.790   5.861   4.876 -0.0452 -0.1762  0.0424
    1TYR    SC1  152   4.692   6.127   4.718  0.1833  0.2597  0.3256
    1TYR    SC2  153   4.790   6.273   4.513 -0.0614 -0.2248 -0.1687
    1TYR    SC3  154   4.529   6.292   4.581  0.0233 -0.0473  0.1315
    2MET     BB  155   5.160   5.810   4.787 -0.0554 -0.2712  0.2395
    2MET    SC1  156   5.158   5.923   4.430 -0.0260  0.0528  0.2730
    3TYR     BB  157   5.345   5.625   4.748  0.0475 -0.2421  0.0175
    3TYR    SC1  158   5.457   5.346   4.715 -0.0591 -0.1079  0.0165
    3TYR    SC2  159   5.400   5.110   4.598  0.0903 -0.1810  0.0873
    3TYR    SC3  160   5.635   5.143   4.727  0.0024 -0.0453  0.2167
    1TYR     BB  161   4.542   3.675   2.904  0.1772 -0.0119 -0.0472
    1TYR    SC1  162   4.703   3.850   3.098 -0.1443 -0.0286  0.2340
    1TYR    SC2  163   4.777   3.884   3.355 -0.2301 -0.0030  0.2556
    1TYR    SC3  164   4.827   4.078   3.174 -0.4155  0.0984  0.3099
    2MET     BB  165   4.607   3.823   2.608  0.0053  0.0775  0.1991
    2MET    SC1  166   4.568   4.170   2.770  0.1212  0.0169  0.2197
    3TYR     BB  167   4.727   3.781   2.343  0.4420 -0.1362  0.2151
    3TYR    SC1  168   4.557   3.836   2.110 -0.4265  0.2707  0.4217
    3TYR    SC2  169   4.352   3.725   1.975 -0.1749  0.2252  0.0580
    3TYR    SC3  170   4.491   3.928   1.865  0.2828 -0.0661  0.0680
    1TYR     BB  171   4.274   2.477   4.253 -0.1829  0.2549 -0.5020
    1TYR    SC1  172   4.131   2.227   4.409  0.0133  0.1912 -0.0015
    1TYR    SC2  173   4.132   2.108   4.651  0.0544 -0.0394 -0.1113
    1TYR    SC3  174   3.898   2.154   4.524  0.0464 -0.1475 -0.1362
    2MET     BB  175   4.472   2.630   4.322 -0.1629  0.1652  0.0214
    2MET    SC1  176   4.412   2.846   4.562  0.1160 -0.1259 -0.1030
    3TYR     BB  177   4.858   2.474   4.278 -0.0331  0.1177  0.4422
    3TYR    SC1  178   5.028   2.683   4.310  0.0856 -0.0145  0.1947
    3TYR    SC2  179   5.269   2.769   4.224  0.0285 -0.1187 -0.0862
    3TYR    SC3  180   5.086   2.947   4.312  0.0451  0.0100 -0.3035
    1TYR     BB  181   2.736   3.891   2.129  0.1800  0.2251  0.2395
    1TYR    SC1  182   2.685   3.934   2.411  0.1800 -0.1616  0.2025
    1TYR    SC2  183   2.757   4.087   2.622 -0.0273 -0.0758  0.2145
    1TYR    SC3  184   2.496   4.036   2.574  0.0026  0.0533 -0.1229
    2MET     BB  185   3.084   3.964   2.177  0.1593 -0.5453 -0.0934
    2MET    SC1  186   3.155   3.615   2.038 -0.3763  0.1656  0.1403
    3TYR     BB  187   3.274   4.099   2.121  0.1794 -0.1788 -0.0198
    3TYR    SC1  188   3.278   4.410   1.988  0.1815 -0.0586 -0.2659
    3TYR    SC2  189   3.365   4.633   1.863 -0.0092 -0.0152 -0.3258
    3TYR    SC3  190   3.152   4.499   1.766 -0.0868 -0.0490 -0.1151
    1TYR     BB  191   4.057   4.460   2.510 -0.0843 -0.0769 -0.0898
    1TYR    SC1  192   4.117   4.172   2.470 -0.1250  0.0196 -0.1373
    1TYR    SC2  193   4.147   3.914   2.394  0.2032 -0.1108  0.3740
    1TYR    SC3  194   4.322   4.101   2.308 -0.2649  0.0495 -0.3316
    2MET     BB  195   4.364   4.628   2.454  0.1537  0.2110  0.1018
    2MET    SC1  196   4.379   5.008   2.328  0.0982  0.1603 -0.2254
    3TYR     BB  197   4.565   4.636   2.646  0.0358  0.3061 -0.2126
    3TYR    SC1  198   4.709   4.893   2.648  0.1329 -0.1623  0.1235
    3TYR    SC2  199   4.709   5.155   2.711  0.2597 -0.1531  0.0887
    3TYR    SC3  200   4.937   5.036   2.630  0.1904 -0.2616  0.0504
    1TYR     BB  201   4.831   3.471   5.732  0.1946 -0.0285  0.0024
    1TYR    SC1  202   5.064   3.500   5.922  0.2417  0.2223 -0.2577
    1TYR    SC2  203   5.266   3.641   6.031  0.1410  0.0783  0.1389
    1TYR    SC3  204   5.201   3.399   6.132 -0.1557  0.0700 -0.0578
    2MET     BB  205   4.727   3.714   5.628 -0.0941 -0.1755  0.2144
    2MET    SC1  206   4.525   3.757   5.362  0.2302 -0.3074  0.0421
    3TYR     BB  207   4.763   3.985   5.868  0.0616 -0.1832  0.2191
    3TYR    SC1  208   4.553   3.851   6.050 -0.1884 -0.1268  0.2917
    3TYR    SC2  209   4.330   3.843   6.201 -0.3412 -0.1174  0.0716
    3TYR    SC3  210   4.430   3.615   6.097 -0.1836 -0.1361  0.2579
    1TYR     BB  211   5.258   5.048   5.572 -0.2255 -0.0034 -0.0493
    1TYR    SC1  212   5.582   5.130   5.633 -0.3126  0.1433  0.0087
    1TYR    SC2  213   5.687   5.303   5.812  0.0047 -0.1213  0.0898
    1TYR    SC3  214   5.820   5.248   5.583  0.0468 -0.4524  0.1872
    2MET     BB  215   5.207   4.899   5.794  0.4547  0.0321 -0.1818
    2MET    SC1  216   4.892   4.692   5.697 -0.2496  0.0804  0.0216
    3TYR     BB  217   5.286   5.106   6.058 -0.1207  0.3176  0.1212
    3TYR    SC1  218   5.177   5.361   6.257 -0.0334  0.2608  0.0522
    3TYR    SC2  219   5.238   5.589   6.390 -0.0837  0.3112 -0.0102
    3TYR    SC3  220   5.055   5.592   6.191  0.1344  0.2785 -0.2173
    1TYR     BB  221   3.441   4.710   5.212 -0.0508 -0.2438  0.0583
    1TYR    SC1  222   3.150   4.668   5.141 -0.3139 -0.3695  0.2456
    1TYR    SC2  223   2.910   4.726   5.252 -0.3590 -0.0646  0.0072
    1TYR    SC3  224   2.932   4.696   4.984 -0.0847  0.1990 -0.0065
    2MET     BB  225   3.624   4.704   5.016 -0.1997 -0.1728  0.0122
    2MET    SC1  226   3.697   5.064   5.002  0.0957 -0.2750 -0.1771
    3TYR     BB  227   3.823   4.551   4.905 -0.0822  0.1385  0.3364
    3TYR    SC1  228   4.014   4.678   4.702  0.1378 -0.3014  0.0251
    3TYR    SC2  229   4.258   4.722   4.594  0.1298  0.0605  0.1373
    3TYR    SC3  230   4.041   4.700   4.434  0.1785  0.1567  0.0565
    1TYR     BB  231   3.441   5.440   4.790 -0.2741  0.1198 -0.2255
    1TYR    SC1  232   3.233   5.273   4.994  0.2744 -0.2010 -0.0605
    1TYR    SC2  233   3.189   5.115   5.209  0.0721 -0.2695 -0.1495
    1TYR    SC3  234   2.982   5.194   5.054  0.1952 -0.0787 -0.2212
    2MET     BB  235   3.336   5.469   4.507  0.0678  0.1083 -0.0305
    2MET    SC1  236   3.004   5.319   4.558  0.2049 -0.3123  0.1433
    3TYR     BB  237   3.527   5.526   4.320 -0.3068 -0.1307  0.1990
    3TYR    SC1  238   3.858   5.633   4.260 -0.0737  0.0636  0.0575
    3TYR    SC2  239   3.872   5.903   4.273 -0.1359  0.0876 -0.2618
    3TYR    SC3  240   4.092   5.759   4.213 -0.1059  0.0658 -0.1050
    1TYR     BB  241   3.579   2.389   2.634  0.1480 -0.2833 -0.0835
    1TYR    SC1  242   3.430   2.681   2.704 -0.0755 -0.1131 -0.1492
    1TYR    SC2  243   3.292   2.875   2.830 -0.2318 -0.1900 -0.1996
    1TYR    SC3  244   3.409   2.925   2.592 -0.1671 -0.1232 -0.1545
    2MET     BB  245   3.413   2.249   2.456  0.0014 -0.1293 -0.0072
    2MET    SC1  246   3.285   2.523   2.228  0.2737 -0.1390  0.2686
    3TYR     BB  247   3.277   1.967   2.475 -0.0975  0.2993 -0.0437
    3TYR    SC1  248   3.094   1.804   2.323  0.0517 -0.0270  0.1378
    3TYR    SC2  249   2.922   1.729   2.129  0.2316 -0.0222 -0.0277
    3TYR    SC3  250   3.145   1.584   2.176  0.2413  0.0342  0.1083
    1TYR     BB  251   2.712   1.800   3.516 -0.1506 -0.0513  0.0320
    1TYR    SC1  252   2.676   2.059   3.356 -0.1633  0.0293  0.1419
    1TYR    SC2  253   2.850   2.242   3.261 -0.1170  0.0779  0.3162
    1TYR    SC3  254   2.584   2.290   3.251 -0.1523 -0.1443 -0.2723
    2MET     BB  255   2.449   1.881   3.754 -0.2090 -0.3192 -0.4822
    2MET    SC1  256   2.604   1.561   3.980  0.1099  0.1354  0.0534
    3TYR     BB  257   2.208   1.768   3.844  0.1948  0.1796  0.3056
    3TYR    SC1  258   2.093   1.780   4.152  0.0128 -0.0697 -0.0385
    3TYR    SC2  259   2.126   1.779   4.420  0.0868 -0.1771 -0.0468
    3TYR    SC3  260   1.935   1.934   4.307  0.1584 -0.0111  0.0546
    1TYR     BB  261   2.157   1.572   2.843  0.0808  0.0088 -0.0529
    1TYR    SC1  262   2.396   1.477   2.649  0.1191  0.3299  0.0695
    1TYR    SC2  263   2.571   1.502   2.445  0.4571 -0.4265  0.2233
    1TYR    SC3  264   2.408   1.287   2.457 -0.2086  0.0460  0.3140
    2MET     BB  265   1.975   1.422   2.815  0.3687 -0.1072  0.2649
    2MET    SC1  266   1.862   1.329   3.180  0.2884 -0.1648 -0.1077
    3TYR     BB  267   1.896   1.189   2.663 -0.0357 -0.0276 -0.0247
    3TYR    SC1  268   1.673   1.327   2.385 -0.1910  0.2645  0.0318
    3TYR    SC2  269   1.624   1.347   2.120  0.2312  0.0608 -0.0721
    3TYR    SC3  270   1.450   1.452   2.298 -0.1429  0.0593 -0.4201
    1TYR     BB  271   3.140   2.983   3.334 -0.0759 -0.0011 -0.2953
    1TYR    SC1  272   3.164   3.239   3.203 -0.0944 -0.1686 -0.2694
    1TYR    SC2  273   3.040   3.446   3.081 -0.0697 -0.1242 -0.2193
    1TYR    SC3  274   3.243   3.492   3.253 -0.1593 -0.1811 -0.0968
    2MET     BB  275   3.128   2.936   3.596  0.3195  0.2020  0.0475
    2MET    SC1  276   2.944   2.617   3.577  0.3599 -0.0461  0.2179
    3TYR     BB  277   3.033   3.152   3.854  0.0230 -0.4325  0.0603
    3TYR    SC1  278   3.104   3.171   4.171  0.0922 -0.2787 -0.0059
    3TYR    SC2  279   3.146   3.347   4.372 -0.1331  0.0220 -0.2097
    3TYR    SC3  280   3.050   3.100   4.426  0.0010  0.0254  0.0654
    1TYR     BB  281   2.540   2.898   2.435 -0.1022  0.0488 -0.1811
    1TYR    SC1  282   2.747   3.075   2.579  0.1366  0.3284  0.3138
    1TYR    SC2  283   2.886   3.081   2.810  0.3247  0.0703  0.2131
    1TYR    SC3  284   3.013   3.122   2.576  0.1818  0.0863  0.1371
    2MET     BB  285   2.300   3.119   2.308  0.0864 -0.0452  0.0166
    2MET    SC1  286   2.059   2.931   2.109  0.2118 -0.3153 -0.0107
    3TYR     BB  287   2.102   3.315   2.461 -0.1997 -0.0529  0.1911
    3TYR    SC1  288   1.845   3.191   2.526 -0.0001 -0.0211  0.1112
    3TYR    SC2  289   1.678   3.044   2.373  0.0287  0.4113 -0.3669
    3TYR    SC3  290   1.611   3.103   2.627 -0.2155  0.0116 -0.3284
    1TYR     BB  291   3.474   2.034   2.016  0.0675 -0.0822  0.2013
    1TYR    SC1  292   3.185   2.109   1.949 -0.0612  0.2016  0.1041
    1TYR    SC2  293   2.936   2.049   1.864  0.0230 -0.0932  0.0510
    1TYR    SC3  294   3.027   2.303   1.847 -0.2135 -0.0128 -0.0802
    2MET     BB  295   3.583   1.812   1.932  0.3039 -0.2378 -0.3348
    2MET    SC1  296   3.612   1.655   2.259 -0.1734  0.0766 -0.1513
    3TYR     BB  297   3.492   1.624   1.721 -0.0975  0.2006  0.0201
    3TYR    SC1  298   3.171   1.613   1.755  0.0963  0.0778 -0.0695
    3TYR    SC2  299   3.000   1.697   1.564 -0.2864  0.1089  0.2703
    3TYR    SC3  300   2.927   1.501   1.734  0.0844  0.0110  0.3278
    1TYR     BB  301   2.151   3.913   3.094 -0.0362  0.3634 -0.1298
    1TYR    SC1  302   1.980   4.076   3.286  0.1678  0.2268 -0.0695
    1TYR    SC2  303   1.922   4.257   3.478  0.1939 -0.0265  0.1867
    1TYR    SC3  304   1.832   4.294   3.226 -0.0619  0.1858  0.3022
    2MET     BB  305   2.144   3.817   2.873 -0.1926  0.0624 -0.1937
    2MET    SC1  306   2.009   3.456   2.952  0.0705  0.2251  0.1514
    3TYR     BB  307   2.044   3.806   2.598  0.1298 -0.1696  0.1867
    3TYR    SC1  308   1.739   3.714   2.531 -0.0885  0.1959 -0.1284
    3TYR    SC2  309   1.546   3.541   2.607  0.2276 -0.2866 -0.3627
    3TYR    SC3  310   1.499   3.716   2.406 -0.2130  0.1767  0.1025
    1TYR     BB  311   3.906   4.922   2.519 -0.2962  0.4055 -0.2272
    1TYR    SC1  312   3.966   5.145   2.344  0.1995 -0.0143 -0.4332
    1TYR    SC2  313   3.960   5.414   2.362 -0.0837 -0.0336 -0.0973
    1TYR    SC3  314   3.830   5.290   2.161 -0.2272  0.0708 -0.0706
    2MET     BB  315   3.737   5.014   2.737  0.0249 -0.1042 -0.0529
    2MET    SC1  316   3.661   5.395   2.744 -0.1434 -0.1416  0.1858
    3TYR     BB  317   3.523   4.911   2.802 -0.0648 -0.0412 -0.3356
    3TYR    SC1  318   3.344   5.018   3.044 -0.0230 -0.0591 -0.1994
    3TYR    SC2  319   3.279   5.031   3.305  0.0859 -0.0809 -0.1707
    3TYR    SC3  320   3.141   5.176   3.124 -0.1130 -0.2099 -0.1260
    1TYR     BB  321   4.719   3.351   4.729  0.4747  0.1173 -0.0401
    1TYR    SC1  322   4.789   3.309   5.043 -0.1342 -0.2098  0.1184
    1TYR    SC2  323   4.955   3.232   5.241 -0.1357  0.0821  0.2379
    1TYR    SC3  324   4.712   3.334   5.300 -0.1212  0.2077  0.0896
    2MET     BB  325   5.088   3.401   4.562 -0.1667  0.0468 -0.3903
    2MET    SC1  326   5.254   3.381   4.901 -0.1730  0.3037  0.2785
    3TYR     BB  327   5.330   3.382   4.390  0.1341  0.1195 -0.0323
    3TYR    SC1  328   5.461   3.175   4.198  0.2116  0.2070 -0.0666
    3TYR    SC2  329   5.551   3.079   3.962  0.2490  0.3341 -0.1053
    3TYR    SC3  330   5.642   2.975   4.194 -0.1383 -0.1223 -0.1375
    1TYR     BB  331   4.712   3.349   2.110 -0.0351  0.0440 -0.3973
    1TYR    SC1  332   4.973   3.405   1.976  0.0869 -0.0156  0.1116
    1TYR    SC2  333   5.176   3.581   1.944  0.0233  0.0159 -0.1469
    1TYR    SC3  334   5.135   3.387   1.761  0.1742 -0.3601  0.1980
    2MET     BB  335   4.643   3.054   2.125 -0.0643 -0.0931 -0.2242
    2MET    SC1  336   4.993   2.918   1.939 -0.0337  0.3893 -0.3260
    3TYR     BB  337   4.601   2.814   2.305  0.0711  0.1902  0.0132
    3TYR    SC1  338   4.716   2.575   2.211 -0.0527  0.2678 -0.0916
    3TYR    SC2  339   4.882   2.418   2.069 -0.0748  0.0173  0.1485
    3TYR    SC3  340   4.620   2.356   2.087 -0.0473 -0.0375  0.4075
    1TYR     BB  341   5.250   3.110   3.429 -0.1140 -0.1892 -0.3384
    1TYR    SC1  342   5.070   3.006   3.636 -0.1464 -0.0259  0.0780
    1TYR    SC2  343   5.078   3.091   3.892 -0.0084 -0.0976  0.0987
    1TYR    SC3  344   4.922   2.881   3.824 -0.0031 -0.1133  0.1348
    2MET     BB  345   5.417   3.309   3.527  0.0259  0.0633  0.5317
    2MET    SC1  346   5.363   3.529   3.218 -0.2956 -0.2511 -0.1106
    3TYR     BB  347   5.670   3.494   3.590 -0.0114 -0.0728 -0.1645
    3TYR    SC1  348   5.726   3.656   3.857 -0.1807 -0.0886  0.0173
    3TYR    SC2  349   5.621   3.689   4.103  0.0256  0.1200  0.0816
    3TYR    SC3  350   5.887   3.709   4.066  0.0397 -0.2785 -0.0985
    1TYR     BB  351   1.576   2.113   3.404 -0.2735 -0.3591 -0.0309
    1TYR    SC1  352   1.551   1.999   3.159  0.0622  0.1266  0.0842
    1TYR    SC2  353   1.379   1.856   3.007 -0.0405  0.1156  0.2082
    1TYR    SC3  354   1.632   1.768   3.045 -0.0476  0.0626  0.1339
    2MET     BB  355   1.615   2.455   3.526  0.2307 -0.1691  0.0160
    2MET    SC1  356   1.353   2.572   3.287  0.0924  0.2423  0.0802
    3TYR     BB  357   1.822   2.690   3.460 -0.1134  0.1361  0.3542
    3TYR    SC1  358   1.805   2.774   3.199  0.0970  0.1868 -0.0833
    3TYR    SC2  359   1.886   2.950   3.010 -0.0541  0.1778 -0.1584
    3TYR    SC3  360   1.623   2.919   3.062 -0.0287 -0.0133 -0.1328
    1TYR     BB  361   3.874   4.551   3.295  0.0800  0.2268 -0.0978
    1TYR    SC1  362   3.788   4.253   3.347  0.3710  0.0633  0.2322
    1TYR    SC2  363   3.613   4.127   3.510  0.1264  0.1928  0.0774
    1TYR    SC3  364   3.716   3.998   3.296 -0.2208  0.2819 -0.1532
    2MET     BB  365   3.796   4.783   3.458  0.0850 -0.0942 -0.1386
    2MET    SC1  366   3.855   5.101   3.246  0.1890  0.1335  0.1061
    3TYR     BB  367   3.893   4.910   3.730 -0.0731 -0.0450 -0.0159
    3TYR    SC1  368   3.650   5.175   3.702  0.1582 -0.0921 -0.1723
    3TYR    SC2  369   3.404   5.283   3.674  0.3492  0.2612 -0.6983
    3TYR    SC3  370   3.603   5.427   3.786  0.2430 -0.1885  0.1849
    1TYR     BB  371   3.698   3.906   5.674  0.1659 -0.2163  0.0113
    1TYR    SC1  372   3.802   4.219   5.623  0.1812  0.1266  0.0279
    1TYR    SC2  373   3.924   4.438   5.525 -0.0478  0.1258 -0.2795
    1TYR    SC3  374   3.683   4.460   5.645  0.0639  0.0763 -0.0385
    2MET     BB  375   3.911   3.760   5.615 -0.2675 -0.0475  0.3423
    2MET    SC1  376   4.036   3.859   5.236 -0.0826  0.1749  0.1270
    3TYR     BB  377   4.133   3.665   5.706 -0.1683  0.4504 -0.2576
    3TYR    SC1  378   4.207   3.356   5.716 -0.3457 -0.2887 -0.2819
    3TYR    SC2  379   4.347   3.159   5.595 -0.1490 -0.2622 -0.1034
    3TYR    SC3  380   4.378   3.204   5.859 -0.0774  0.1038 -0.1677
    1TYR     BB  381   3.352   1.130   3.015  0.0322  0.0016  0.1185
    1TYR    SC1  382   3.481   1.159   3.290  0.0243  0.3077 -0.0685
    1TYR    SC2  383   3.699   1.179   3.448  0.0035 -0.4061  0.0937
    1TYR    SC3  384   3.452   1.206   3.554 -0.0055 -0.0319 -0.0052
    2MET     BB  385   3.458   1.363   2.819  0.0619 -0.0310  0.1814
    2MET    SC1  386   3.481   1.247   2.470  0.1085  0.2630  0.3004
    3TYR     BB  387   3.172   1.594   2.773  0.0547 -0.2859 -0.3365
    3TYR    SC1  388   3.014   1.396   2.658 -0.1119 -0.1135  0.4740
    3TYR    SC2  389   2.948   1.208   2.476  0.1326  0.0279  0.2302
    3TYR    SC3  390   2.842   1.198   2.724 -0.2517 -0.1394  0.0699
    1TYR     BB  391   3.048   3.809   4.922 -0.0933  0.3366  0.2669
    1TYR    SC1  392   2.775   3.977   4.916  0.0299  0.2250  0.0741
    1TYR    SC2  393   2.529   4.078   4.960 -0.1162 -0.0674 -0.0389
    1TYR    SC3  394   2.732   4.243   4.894 -0.2123  0.2114  0.3210
    2MET     BB  395   3.000   3.498   5.000 -0.0412 -0.1317  0.0310
    2MET    SC1  396   3.324   3.299   4.828 -0.0078  0.0356 -0.0622
    3TYR     BB  397   2.809   3.329   4.844  0.0305 -0.2778 -0.0272
    3TYR    SC1  398   2.920   3.017   4.866 -0.2165 -0.2211  0.0977
    3TYR    SC2  399   3.139   2.860   4.840 -0.0730  0.0131 -0.1767
    3TYR    SC3  400   2.898   2.773   4.752 -0.0116 -0.0876 -0.2475
    1TYR     BB  401   3.499   4.231   5.240  0.1156 -0.0935 -0.0651
    1TYR    SC1  402   3.388   4.252   4.978  0.0961 -0.0801  0.0929
    1TYR    SC2  403   3.161   4.345   4.867  0.2187 -0.0681 -0.1576
    1TYR    SC3  404   3.380   4.308   4.715  0.3600 -0.1663  0.0624
    2MET     BB  405   3.292   4.149   5.467 -0.2066 -0.2216 -0.2969
    2MET    SC1  406   3.189   4.505   5.609 -0.0797  0.2162  0.0268
    3TYR     BB  407   3.007   4.178   5.313  0.0097 -0.0932  0.1721
    3TYR    SC1  408   2.817   3.930   5.371 -0.0117 -0.0211  0.3485
    3TYR    SC2  409   2.693   3.693   5.340  0.3203 -0.1477 -0.1803
    3TYR    SC3  410   2.894   3.717   5.518  0.0390 -0.1440  0.1494
    1TYR     BB  411   4.565   4.859   1.733  0.1401 -0.2754  0.1380
    1TYR    SC1  412   4.369   4.816   1.499 -0.0161 -0.2072 -0.2972
    1TYR    SC2  413   4.376   4.624   1.309 -0.2260 -0.0382 -0.4830
    1TYR    SC3  414   4.140   4.734   1.381 -0.1134  0.1242 -0.3530
    2MET     BB  415   4.782   4.840   1.837 -0.0992  0.0361 -0.1706
    2MET    SC1  416   4.983   4.792   1.438  0.2400 -0.0835  0.1735
    3TYR     BB  417   4.819   4.805   2.173  0.0047  0.1415 -0.1988
    3TYR    SC1  418   4.806   4.502   2.196  0.1531 -0.0179 -0.0340
    3TYR    SC2  419   4.705   4.315   2.030  0.1058 -0.0702  0.0528
    3TYR    SC3  420   4.741   4.258   2.292  0.3063 -0.0330  0.0353
    1TYR     BB  421   2.915   4.468   3.519 -0.0211 -0.1149 -0.0361
    1TYR    SC1  422   2.951   4.790   3.607  0.0232  0.2539 -0.0720
    1TYR    SC2  423   3.008   5.043   3.683  0.0211  0.2590 -0.0872
    1TYR    SC3  424   2.765   4.938   3.736  0.0945  0.1845  0.1154
    2MET     BB  425   2.811   4.343   3.778 -0.1658  0.0365 -0.0551
    2MET    SC1  426   2.545   4.614   3.980  0.0162 -0.2408 -0.2206
    3TYR     BB  427   2.746   4.083   3.962  0.0264  0.0832 -0.0414
    3TYR    SC1  428   2.568   4.145   4.230  0.4489  0.3581  0.1855
    3TYR    SC2  429   2.424   4.310   4.389  0.2002  0.1512  0.1825
    3TYR    SC3  430   2.536   4.088   4.492  0.1493  0.0848  0.0982
    1TYR     BB  431   2.173   3.986   2.160  0.3302  0.0116  0.1498
    1TYR    SC1  432   2.367   4.109   1.978 -0.0378  0.0041  0.1465
    1TYR    SC2  433   2.413   4.033   1.723 -0.0418 -0.0160  0.1518
    1TYR    SC3  434   2.524   4.260   1.819 -0.0203 -0.0213  0.1396
    2MET     BB  435   1.868   4.033   2.134 -0.1551  0.0813 -0.0381
    2MET    SC1  436   1.920   4.081   1.750  0.0350 -0.1151  0.1539
    3TYR     BB  437   1.650   4.208   2.163  0.2743 -0.0813  0.0293
    3TYR    SC1  438   1.629   4.498   2.266  0.2604  0.1024  0.2210
    3TYR    SC2  439   1.441   4.689   2.227 -0.1106 -0.2489  0.1990
    3TYR    SC3  440   1.651   4.736   2.391  0.0079  0.2952 -0.0813
    1TYR     BB  441   5.182   5.496   5.730 -0.6079 -0.0715  0.1036
    1TYR    SC1  442   5.388   5.682   5.896 -0.2635  0.1454  0.5389
    1TYR    SC2  443   5.496   5.928   5.923  0.2680  0.0352 -0.1898
    1TYR    SC3  444   5.592   5.722   6.068  0.1547  0.1587  0.0695
    2MET     BB  445   4.914   5.357   5.801 -0.1289  0.2381  0.0300
    2MET    SC1  446   4.629   5.531   5.703 -0.0733  0.2572  0.0406
    3TYR     BB  447   4.756   5.097   5.870  0.1611 -0.2328 -0.4890
    3TYR    SC1  448   4.813   4.929   6.119 -0.2523  0.3503 -0.0556
    3TYR    SC2  449   4.967   4.945   6.341 -0.1205 -0.0454 -0.1071
    3TYR    SC3  450   4.742   4.797   6.344 -0.1527 -0.0003 -0.2213
    1TYR     BB  451   2.512   3.055   1.834  0.1658  0.1539 -0.1254
    1TYR    SC1  452   2.273   3.141   1.675 -0.0597  0.0430  0.0640
    1TYR    SC2  453   2.009   3.198   1.689 -0.0013  0.5565 -0.4430
    1TYR    SC3  454   2.114   3.097   1.461  0.2351  0.2519 -0.2111
    2MET     BB  455   2.730   3.205   2.053 -0.1514  0.3232 -0.2503
    2MET    SC1  456   2.902   2.872   2.095 -0.0595  0.2498  0.3330
    3TYR     BB  457   2.777   3.416   2.243  0.1915  0.1319  0.0498
    3TYR    SC1  458   2.712   3.526   2.492 -0.0382 -0.1461 -0.0162
    3TYR    SC2  459   2.483   3.593   2.619 -0.0903 -0.1048 -0.1306
    3TYR    SC3  460   2.690   3.490   2.759 -0.0259  0.2437  0.0460
    1TYR     BB  461   2.275   1.772   3.306 -0.2503 -0.0184  0.3240
    1TYR    SC1  462   2.297   1.529   3.413 -0.0718  0.0684  0.0551
    1TYR    SC2  463   2.209   1.295   3.516 -0.1160  0.0803  0.0449
    1TYR    SC3  464   2.473   1.351   3.514 -0.1012  0.0108  0.0057
    2MET     BB  465   2.051   1.919   3.317 -0.0814  0.0146 -0.0061
    2MET    SC1  466   1.833   1.732   3.527  0.2650 -0.0891  0.1770
    3TYR     BB  467   2.103   2.209   3.365  0.0289 -0.0874  0.2836
    3TYR    SC1  468   2.085   2.333   3.679 -0.2393  0.2575 -0.5489
    3TYR    SC2  469   1.992   2.471   3.891  0.0162 -0.4079  0.0438
    3TYR    SC3  470   1.964   2.203   3.882  0.1792 -0.4255 -0.6970
    1TYR     BB  471   2.409   3.713   3.809 -0.0174 -0.2363  0.0444
    1TYR    SC1  472   2.322   3.756   4.099  0.3284 -0.0937 -0.0520
    1TYR    SC2  473   2.195   3.903   4.287  0.0255 -0.0700 -0.2669
    1TYR    SC3  474   2.293   3.659   4.350 -0.3314 -0.1899 -0.1450
    2MET     BB  475   2.298   3.955   3.653  0.0010 -0.0316 -0.1283
    2MET    SC1  476   2.217   4.230   3.878  0.2248 -0.0773 -0.3325
    3TYR     BB  477   2.499   4.079   3.477  0.3857  0.1466  0.3368
    3TYR    SC1  478   2.645   3.930   3.235 -0.1264  0.1590 -0.0455
    3TYR    SC2  479   2.726   3.864   2.987  0.0533 -0.1106  0.0793
    3TYR    SC3  480   2.575   3.692   3.130  0.0939 -0.0313  0.2198
    1TYR     BB  481   2.737   2.734   3.090  0.2012 -0.1947  0.3174
    1TYR    SC1  482   2.887   2.598   2.896 -0.0812 -0.0180 -0.0561
    1TYR    SC2  483   2.946   2.629   2.634 -0.2675 -0.5095 -0.1704
    1TYR    SC3  484   3.063   2.431   2.776 -0.0426 -0.1485  0.1739
    2MET     BB  485   2.456   2.793   2.950  0.1609  0.0789  0.0020
    2MET    SC1  486   2.346   3.134   2.837  0.1851 -0.0842  0.2140
    3TYR     BB  487   2.198   2.571   2.995 -0.3762 -0.0586 -0.3227
    3TYR    SC1  488   2.047   2.590   2.746  0.2754  0.0693 -0.2274
    3TYR    SC2  489   1.815   2.651   2.623  0.0241  0.3397  0.3357
    3TYR    SC3  490   2.032   2.806   2.586  0.1514  0.0588 -0.2314
    1TYR     BB  491   5.421   3.137   2.863 -0.2556 -0.0561 -0.6160
    1TYR    SC1  492   5.120   3.233   2.901  0.0299 -0.1442 -0.0259
    1TYR    SC2  493   4.970   3.433   3.005 -0.0093 -0.0455 -0.2652
    1TYR    SC3  494   4.922   3.177   3.076  0.0416  0.0264  0.0443
    2MET     BB  495   5.477   2.925   2.771  0.2648 -0.0934 -0.1913
    2MET    SC1  496   5.898   2.925   2.722  0.1146 -0.2270 -0.3732
    3TYR     BB  497   5.499   2.662   2.658 -0.2263  0.0266  0.0666
    3TYR    SC1  498   5.495   2.366   2.796 -0.1304 -0.0778 -0.0136
    3TYR    SC2  499   5.430   2.116   2.721 -0.2093 -0.0435 -0.0610
    3TYR    SC3  500   5.532   2.160   2.967 -0.1100 -0.1335 -0.0847
    1TYR     BB  501   1.854   3.635   3.383 -0.1069 -0.3158  0.1465
    1TYR    SC1  502   1.706   3.746   3.656  0.2129 -0.0642 -0.0656
    1TYR    SC2  503   1.649   3.683   3.912 -0.0717  0.0961 -0.0838
    1TYR    SC3  504   1.843   3.863   3.857  0.0583 -0.0121  0.0117
    2MET     BB  505   2.204   3.511   3.433  0.1211  0.0424  0.1738
    2MET    SC1  506   2.186   3.120   3.343  0.1217  0.0527  0.1900
    3TYR     BB  507   2.130   3.279   3.773  0.1647  0.0786 -0.1136
    3TYR    SC1  508   2.031   3.387   4.023  0.2306  0.0345 -0.1578
    3TYR    SC2  509   2.041   3.266   4.264  0.3028  0.4652  0.0678
    3TYR    SC3  510   1.802   3.329   4.154  0.2193 -0.3868 -0.3429
    1TYR     BB  511   5.289   4.145   5.095  0.1646 -0.1793  0.0170
    1TYR    SC1  512   5.139   3.888   5.090  0.0288 -0.0639 -0.3324
    1TYR    SC2  513   4.943   3.798   4.927  0.0007  0.0513 -0.3631
    1TYR    SC3  514   4.977   3.687   5.171 -0.0321 -0.0427 -0.4007
    2MET     BB  515   5.190   4.259   4.811  0.1842  0.1971  0.3878
    2MET    SC1  516   4.824   4.233   4.863 -0.2702 -0.3116  0.1747
    3TYR     BB  517   5.158   4.416   4.515 -0.0594 -0.1134 -0.0114
    3TYR    SC1  518   4.863   4.438   4.397 -0.1257 -0.1291 -0.2082
    3TYR    SC2  519   4.624   4.452   4.522 -0.0724 -0.0980 -0.1078
    3TYR    SC3  520   4.644   4.330   4.282 -0.2350  0.1055 -0.2292
    1TYR     BB  521   2.464   1.753   1.827  0.0096  0.1913  0.0415
    1TYR    SC1  522   2.525   1.451   1.967  0.1202  0.1614 -0.0919
    1TYR    SC2  523   2.709   1.298   2.092  0.2380  0.2553 -0.1477
    1TYR    SC3  524   2.464   1.197   2.038  0.2493  0.1515 -0.0131
    2MET     BB  525   2.179   1.865   1.749 -0.1261 -0.1710  0.1978
    2MET    SC1  526   2.221   2.118   1.451 -0.0538 -0.1044  0.0808
    3TYR     BB  527   2.086   2.074   1.949  0.0167 -0.0253 -0.0283
    3TYR    SC1  528   1.920   2.291   1.839 -0.1172  0.0908  0.2900
    3TYR    SC2  529   1.826   2.540   1.795  0.1152  0.1275 -0.0412
    3TYR    SC3  530   1.777   2.344   1.616 -0.0434 -0.0633  0.2043
    1TYR     BB  531   2.073   1.553   2.161 -0.1481  0.1111 -0.1466
    1TYR    SC1  532   2.017   1.453   1.930 -0.2877 -0.2235 -0.0771
    1TYR    SC2  533   1.853   1.444   1.717 -0.3132  0.0939 -0.0757
    1TYR    SC3  534   2.110   1.365   1.692 -0.3621 -0.0381 -0.1767
    2MET     BB  535   1.993   1.760   2.355  0.3072 -0.2217 -0.1223
    2MET    SC1  536   1.692   1.844   2.087  0.2186 -0.0507 -0.0287
    3TYR     BB  537   1.806   1.783   2.554  0.0765  0.1158 -0.0459
    3TYR    SC1  538   1.477   1.792   2.552 -0.0876 -0.0721 -0.1585
    3TYR    SC2  539   1.229   1.688   2.573 -0.1419  0.0463 -0.2005
    3TYR    SC3  540   1.288   1.856   2.371 -0.0641  0.1198 -0.1179
    1TYR     BB  541   3.546   4.591   2.327 -0.1015 -0.2072  0.1474
    1TYR    SC1  542   3.453   4.889   2.278 -0.1560 -0.0210  0.0107
    1TYR    SC2  543   3.428   5.082   2.091 -0.1748 -0.0372 -0.0036
    1TYR    SC3  544   3.415   5.145   2.353  0.0641  0.0183 -0.0022
    2MET     BB  545   3.589   4.434   2.546 -0.1236  0.1627  0.1698
    2MET    SC1  546   3.243   4.204   2.575  0.3519  0.1883  0.0299
    3TYR     BB  547   3.693   4.438   2.852  0.2065 -0.0578  0.1060
    3TYR    SC1  548   3.457   4.479   3.023  0.6364 -0.2446  0.0303
    3TYR    SC2  549   3.347   4.338   3.225  0.3269 -0.1562 -0.0702
    3TYR    SC3  550   3.365   4.607   3.242  0.2732 -0.1459 -0.1702
    1TYR     BB  551   2.881   1.045   3.221 -0.1277 -0.0603 -0.0316
    1TYR    SC1  552   2.592   1.067   3.058 -0.1720  0.5304  0.0816
    1TYR    SC2  553   2.444   1.099   2.835 -0.1662  0.1124  0.0075
    1TYR    SC3  554   2.357   1.199   3.070 -0.3323  0.2748 -0.1193
    2MET     BB  555   2.936   1.360   3.215  0.0109  0.0439  0.1198
    2MET    SC1  556   2.999   1.391   3.603 -0.1938 -0.1778 -0.1164
    3TYR     BB  557   2.679   1.607   3.083 -0.3602  0.2209 -0.0339
    3TYR    SC1  558   2.709   1.853   2.922  0.0718 -0.2363 -0.0864
    3TYR    SC2  559   2.743   2.108   2.840 -0.2493 -0.1373  0.0661
    3TYR    SC3  560   2.758   1.905   2.662 -0.2625  0.0114 -0.1079
    1TYR     BB  561   4.454   5.549   3.937  0.1187 -0.1535  0.0952
    1TYR    SC1  562   4.598   5.557   3.642 -0.2236 -0.0060 -0.1915
    1TYR    SC2  563   4.715   5.736   3.478 -0.1024 -0.0032 -0.1042
    1TYR    SC3  564   4.640   5.495   3.382  0.2203 -0.1085 -0.1064
    2MET     BB  565   4.483   5.311   4.231 -0.0189 -0.1625  0.1235
    2MET    SC1  566   4.745   5.144   4.002  0.3948  0.1341 -0.2189
    3TYR     BB  567   4.256   5.230   4.420  0.3491 -0.2045 -0.0767
    3TYR    SC1  568   4.108   5.396   4.660 -0.3481 -0.2917 -0.1617
    3TYR    SC2  569   4.015   5.398   4.913  0.0196  0.0678 -0.0154
    3TYR    SC3  570   3.923   5.578   4.734  0.0178  0.0468 -0.0356
    1TYR     BB  571   4.994   2.407   3.721  0.1761  0.0360 -0.0935
    1TYR    SC1  572   5.231   2.544   3.812  0.0117  0.0751  0.2395
    1TYR    SC2  573   5.484   2.515   3.903  0.2519 -0.1227 -0.4147
    1TYR    SC3  574   5.411   2.741   3.773 -0.0090  0.0528  0.0093
    2MET     BB  575   4.822   2.225   3.828 -0.0439  0.0115  0.2132
    2MET    SC1  576   5.010   2.025   4.066 -0.0455 -0.0710 -0.1585
    3TYR     BB  577   4.549   2.193   3.854  0.3808 -0.2071 -0.1628
    3TYR    SC1  578   4.519   2.079   4.151  0.0023 -0.3523 -0.0969
    3TYR    SC2  579   4.552   2.071   4.419 -0.2727  0.1762 -0.0318
    3TYR    SC3  580   4.509   1.843   4.282 -0.3579 -0.0840  0.4041
    1TYR     BB  581   3.635   3.023   3.195  0.4612  0.0998  0.0666
    1TYR    SC1  582   3.603   3.123   3.488  0.1320 -0.0458  0.1457
    1TYR    SC2  583   3.635   3.160   3.753  0.0024  0.1866  0.1322
    1TYR    SC3  584   3.446   3.299   3.619  0.0753  0.0815 -0.0857
    2MET     BB  585   3.673   3.206   2.977 -0.1929  0.0450  0.0069
    2MET    SC1  586   4.033   3.132   2.942 -0.0592  0.0085 -0.0538
    3TYR     BB  587   3.580   3.500   2.880  0.0864 -0.1716  0.2044
    3TYR    SC1  588   3.350   3.461   2.692  0.1075 -0.0099  0.0605
    3TYR    SC2  589   3.181   3.608   2.541  0.0087  0.0070  0.1861
    3TYR    SC3  590   3.310   3.397   2.433 -0.0043  0.0633  0.0590
    1TYR     BB  591   4.226   2.797   2.008  0.1442 -0.0036  0.0494
    1TYR    SC1  592   4.377   2.765   1.775 -0.1179 -0.5409 -0.2398
    1TYR    SC2  593   4.613   2.645   1.724  0.1006 -0.1878 -0.1112
    1TYR    SC3  594   4.449   2.711   1.521  0.3443  0.0062 -0.2528
    2MET     BB  595   4.117   3.077   2.100 -0.3009  0.2248 -0.1013
    2MET    SC1  596   4.121   2.958   2.475  0.0034  0.1472 -0.0569
    3TYR     BB  597   4.159   3.283   1.889 -0.1339 -0.1781  0.1553
    3TYR    SC1  598   3.891   3.347   1.770  0.0110  0.1209 -0.3339
    3TYR    SC2  599   3.846   3.535   1.581 -0.2604  0.1863 -0.2111
    3TYR    SC3  600   3.679   3.324   1.605 -0.1447  0.1011 -0.1363
    1TYR     BB  601   5.542   3.716   2.739 -0.0231  0.1821 -0.0053
    1TYR    SC1  602   5.744   3.598   2.918 -0.1298  0.0374 -0.1318
    1TYR    SC2  603   5.883   3.371   2.962 -0.2338 -0.0175 -0.0825
    1TYR    SC3  604   5.872   3.561   3.153  0.1026  0.1650 -0.2339
    2MET     BB  605   5.287   3.604   2.669  0.1432  0.0224  0.1079
    2MET    SC1  606   5.105   3.986   2.702  0.1738  0.4993  0.0506
    3TYR     BB  607   5.176   3.495   2.439  0.0263 -0.2557  0.1438
    3TYR    SC1  608   5.179   3.201   2.371  0.0358 -0.0743 -0.0473
    3TYR    SC2  609   5.291   2.957   2.344 -0.4327 -0.3427  0.2596
    3TYR    SC3  610   5.042   2.981   2.445 -0.4770  0.2589  0.0595
    1TYR     BB  611   2.196   2.079   2.866 -0.0154  0.2579 -0.2110
    1TYR    SC1  612   1.895   2.196   2.896 -0.3025 -0.1299  0.2385
    1TYR    SC2  613   1.708   2.363   2.996 -0.2084  0.0534  0.1161
    1TYR    SC3  614   1.658   2.225   2.769 -0.1401  0.2233 -0.0045
    2MET     BB  615   2.284   2.092   2.580  0.0540  0.1860 -0.0870
    2MET    SC1  616   2.482   2.434   2.596 -0.2011 -0.2684  0.0776
    3TYR     BB  617   2.429   2.016   2.302  0.4372  0.0036  0.0992
    3TYR    SC1  618   2.688   2.150   2.270 -0.0105 -0.1765  0.3529
    3TYR    SC2  619   2.927   2.230   2.367 -0.0249  0.3759 -0.0115
    3TYR    SC3  620   2.782   2.396   2.211 -0.4659 -0.0978 -0.1409
    1TYR     BB  621   3.682   2.972   5.011 -0.5103  0.0380  0.0334
    1TYR    SC1  622   3.439   2.971   5.193  0.0725 -0.0938 -0.0159
    1TYR    SC2  623   3.210   2.903   5.319  0.1884 -0.2529  0.1143
    1TYR    SC3  624   3.268   3.163   5.276 -0.0780 -0.2145 -0.0412
    2MET     BB  625   3.711   2.849   4.741  0.0388 -0.4621  0.2045
    2MET    SC1  626   3.599   3.121   4.512 -0.3049 -0.3045 -0.3567
    3TYR     BB  627   3.891   2.688   4.560  0.3801 -0.0205 -0.0525
    3TYR    SC1  628   3.978   2.880   4.334 -0.2993 -0.0106  0.1079
    3TYR    SC2  629   4.140   2.938   4.126 -0.1949  0.0613  0.2082
    3TYR    SC3  630   3.872   2.936   4.092 -0.1987  0.4370  0.1565
    1TYR     BB  631   4.337   3.565   1.493 -0.0346 -0.0985  0.1773
    1TYR    SC1  632   4.206   3.319   1.375 -0.2288  0.0147  0.2088
    1TYR    SC2  633   3.989   3.163   1.334  0.0118 -0.2939  0.0642
    1TYR    SC3  634   4.210   3.060   1.450  0.1514 -0.0377  0.0346
    2MET     BB  635   4.642   3.543   1.592  0.2399  0.2295  0.2135
    2MET    SC1  636   4.642   3.168   1.633  0.2337 -0.0447 -0.1119
    3TYR     BB  637   4.853   3.795   1.516  0.3030  0.0139  0.1199
    3TYR    SC1  638   4.756   4.093   1.488  0.1811  0.0741  0.3796
    3TYR    SC2  639   4.752   4.353   1.414  0.1706 -0.0030  0.0922
    3TYR    SC3  640   4.522   4.211   1.423  0.1911 -0.0344  0.1328
    1TYR     BB  641   3.268   2.337   3.932  0.0880 -0.1032  0.1034
    1TYR    SC1  642   3.304   2.590   4.098  0.2443 -0.2451 -0.1038
    1TYR    SC2  643   3.305   2.720   4.334 -0.1273  0.0109 -0.2323
    1TYR    SC3  644   3.408   2.839   4.115 -0.1999 -0.0336 -0.2910
    2MET     BB  645   2.958   2.243   3.866  0.3444  0.1704  0.0424
    2MET    SC1  646   2.978   1.905   3.914  0.0397 -0.0450 -0.0596
    3TYR     BB  647   2.641   2.332   3.760 -0.0867  0.5098 -0.1044
    3TYR    SC1  648   2.478   2.267   4.046  0.1392  0.1297  0.1597
    3TYR    SC2  649   2.287   2.186   4.218  0.0712 -0.0099  0.0218
    3TYR    SC3  650   2.514   2.042   4.190 -0.1034 -0.2383 -0.3144
    1TYR     BB  651   2.889   4.429   2.301 -0.0953  0.0318  0.2778
    1TYR    SC1  652   3.027   4.704   2.182 -0.0429 -0.0147 -0.2611
    1TYR    SC2  653   3.067   4.909   2.011  0.1581  0.0880 -0.0972
    1TYR    SC3  654   3.030   4.958   2.274  0.0065 -0.0768 -0.0852
    2MET     BB  655   2.513   4.424   2.311 -0.0423  0.1242  0.1577
    2MET    SC1  656   2.524   4.782   2.533  0.2514  0.0644  0.1507
    3TYR     BB  657   2.152   4.483   2.368  0.2420 -0.2015 -0.0784
    3TYR    SC1  658   2.059   4.485   2.088 -0.0414  0.0791  0.1836
    3TYR    SC2  659   2.113   4.517   1.825 -0.2587  0.0448  0.1318
    3TYR    SC3  660   1.882   4.612   1.928 -0.3233 -0.2199  0.2432
    1TYR     BB  661   5.769   3.983   2.364  0.2221  0.2101 -0.0181
    1TYR    SC1  662   5.764   4.269   2.244  0.0046 -0.2398 -0.1805
    1TYR    SC2  663   5.860   4.458   2.076  0.0373 -0.2110 -0.1297
    1TYR    SC3  664   5.608   4.366   2.046 -0.0891  0.0655  0.0340
    2MET     BB  665   5.557   3.846   2.252  0.4047 -0.1247 -0.2263
    2MET    SC1  666   5.658   3.812   1.878  0.1738 -0.0229 -0.0050
    3TYR     BB  667   5.208   3.979   2.231 -0.0372 -0.0605  0.1807
    3TYR    SC1  668   5.159   4.121   1.950 -0.3354 -0.1812 -0.1318
    3TYR    SC2  669   5.219   4.220   1.706 -0.1867  0.1282  0.0226
    3TYR    SC3  670   5.136   4.386   1.902 -0.0113 -0.0663  0.2704
    1TYR     BB  671   2.350   3.544   2.066 -0.1016 -0.1920  0.2070
    1TYR    SC1  672   2.035   3.549   2.050  0.0812  0.4390 -0.2408
    1TYR    SC2  673   1.829   3.610   1.887 -0.2760  0.1269  0.0705
    1TYR    SC3  674   1.787   3.460   2.108  0.2448  0.2808  0.2929
    2MET     BB  675   2.480   3.546   1.799  0.2619  0.1872 -0.1379
    2MET    SC1  676   2.246   3.629   1.565 -0.2911  0.0703  0.1856
    3TYR     BB  677   2.735   3.598   1.705 -0.0160  0.0883  0.0518
    3TYR    SC1  678   2.809   3.885   1.665 -0.1878  0.2044  0.1083
    3TYR    SC2  679   2.831   4.091   1.493  0.3082 -0.0995 -0.2237
    3TYR    SC3  680   2.978   4.088   1.719 -0.0015  0.0855 -0.0115
    1TYR     BB  681   4.012   3.909   3.754  0.2988 -0.2845 -0.3842
    1TYR    SC1  682   4.137   3.985   3.524 -0.0783 -0.1088  0.0371
    1TYR    SC2  683   4.238   3.846   3.315 -0.1727 -0.1752  0.0348
    1TYR    SC3  684   4.358   4.073   3.397 -0.0163 -0.2579  0.0386
    2MET     BB  685   3.978   4.195   3.904  0.3045 -0.0630  0.1326
    2MET    SC1  686   3.800   4.442   3.847  0.0049  0.2931 -0.0805
    3TYR     BB  687   4.199   4.252   4.073 -0.1292  0.3444  0.0817
    3TYR    SC1  688   4.281   4.549   4.106  0.0914  0.0355 -0.4907
    3TYR    SC2  689   4.428   4.750   4.208 -0.1758  0.0285 -0.0628
    3TYR    SC3  690   4.229   4.804   4.035  0.1141  0.0663 -0.3985
    1TYR     BB  691   4.174   2.459   2.359  0.0518 -0.1654 -0.0525
    1TYR    SC1  692   4.049   2.198   2.326  0.1240 -0.2197  0.1839
    1TYR    SC2  693   3.991   1.973   2.189 -0.2184 -0.0287 -0.0026
    1TYR    SC3  694   3.836   2.049   2.397  0.0557 -0.0992  0.2360
    2MET     BB  695   4.427   2.350   2.552 -0.0966 -0.2465 -0.1108
    2MET    SC1  696   4.649   2.044   2.570  0.0329  0.2012  0.2644
    3TYR     BB  697   4.558   2.566   2.724 -0.4800 -0.0948 -0.3459
    3TYR    SC1  698   4.462   2.708   2.936 -0.2854  0.3215 -0.3378
    3TYR    SC2  699   4.415   2.664   3.198 -0.1999  0.0712 -0.3611
    3TYR    SC3  700   4.429   2.917   3.104 -0.0271  0.1699 -0.0870
    1TYR     BB  701   3.256   3.628   1.531 -0.1346  0.2016 -0.1583
    1TYR    SC1  702   3.108   3.609   1.255 -0.1273  0.1125  0.1803
    1TYR    SC2  703   3.045   3.496   1.018  0.2555 -0.0318  0.1393
    1TYR    SC3  704   2.870   3.664   1.138  0.0559  0.0487 -0.2434
    2MET     BB  705   3.424   3.831   1.582  0.0221  0.0099  0.1917
    2MET    SC1  706   3.607   3.824   1.223 -0.1792 -0.2927  0.0331
    3TYR     BB  707   3.573   4.009   1.687  0.2646 -0.0560 -0.4404
    3TYR    SC1  708   3.633   4.296   1.626 -0.1296 -0.1255 -0.1823
    3TYR    SC2  709   3.836   4.381   1.471  0.0923 -0.0344  0.1440
    3TYR    SC3  710   3.786   4.503   1.706 -0.1951 -0.2075  0.1789
    1TYR     BB  711   3.594   4.398   4.297 -0.0100  0.0493  0.3233
    1TYR    SC1  712   3.452   4.217   4.099  0.5375  0.1870 -0.0699
    1TYR    SC2  713   3.462   4.059   3.881  0.4959 -0.0436  0.0905
    1TYR    SC3  714   3.227   4.167   3.959  0.5229  0.0950 -0.0143
    2MET     BB  715   3.809   4.204   4.478  0.2811  0.0681  0.1916
    2MET    SC1  716   4.185   4.181   4.541  0.0876 -0.0073 -0.2054
    3TYR     BB  717   3.849   4.063   4.837  0.0825  0.3552 -0.0483
    3TYR    SC1  718   3.870   3.747   4.757  0.0142  0.0407  0.0271
    3TYR    SC2  719   3.902   3.512   4.888  0.0056  0.1243  0.1824
    3TYR    SC3  720   3.858   3.514   4.621  0.0017 -0.0502  0.1808
    1TYR     BB  721   5.349   5.467   5.253 -0.3346  0.0591 -0.0724
    1TYR    SC1  722   5.647   5.412   5.147  0.2509  0.2053  0.1655
    1TYR    SC2  723   5.878   5.274   5.122  0.0496 -0.0915 -0.1915
    1TYR    SC3  724   5.858   5.522   5.019  0.2376 -0.0184 -0.0597
    2MET     BB  725   5.093   5.447   5.173 -0.0602 -0.1061  0.0924
    2MET    SC1  726   4.938   5.719   5.385  0.1398  0.0283  0.3053
    3TYR     BB  727   4.991   5.318   4.943  0.0500  0.1756 -0.1562
    3TYR    SC1  728   4.753   5.204   4.852 -0.0157  0.0123  0.3449
    3TYR    SC2  729   4.557   5.369   4.765 -0.0583 -0.0356  0.3494
    3TYR    SC3  730   4.498   5.116   4.839  0.0219 -0.0848  0.2490
    1TYR     BB  731   4.987   2.917   4.779 -0.2032  0.3983  0.1224
    1TYR    SC1  732   5.165   2.845   5.008 -0.1708 -0.0409 -0.2086
    1TYR    SC2  733   5.343   2.953   5.180 -0.3893  0.2511 -0.1562
    1TYR    SC3  734   5.131   2.815   5.274 -0.2476 -0.0148 -0.2152
    2MET     BB  735   4.663   2.825   4.941 -0.1665  0.1060 -0.3127
    2MET    SC1  736   4.703   2.508   4.754 -0.2767 -0.0140  0.0345
    3TYR     BB  737   4.637   2.854   5.238  0.0787 -0.0755  0.0200
    3TYR    SC1  738   4.549   2.708   5.479 -0.2050  0.1205 -0.3808
    3TYR    SC2  739   4.340   2.710   5.649  0.0650  0.0047 -0.0329
    3TYR    SC3  740   4.421   2.478   5.536  0.1438  0.0090  0.0139
    1TYR     BB  741   3.381   1.623   3.251  0.0578  0.0569 -0.1273
    1TYR    SC1  742   3.698   1.616   3.211  0.0304 -0.2456  0.3466
    1TYR    SC2  743   3.961   1.677   3.205 -0.0437  0.0913  0.3251
    1TYR    SC3  744   3.874   1.448   3.093  0.2252  0.0334  0.2242
    2MET     BB  745   3.173   1.837   3.270  0.0985 -0.2641  0.5848
    2MET    SC1  746   3.179   2.040   2.947 -0.2846  0.0531 -0.1181
    3TYR     BB  747   3.202   2.044   3.510  0.0530 -0.2909  0.1484
    3TYR    SC1  748   3.510   2.049   3.549 -0.0511  0.1953 -0.0829
    3TYR    SC2  749   3.747   2.178   3.543 -0.0121  0.1259 -0.0452
    3TYR    SC3  750   3.653   2.059   3.320 -0.1228  0.3520 -0.1226
    1TYR     BB  751   4.058   5.665   5.582 -0.2057 -0.2232 -0.0534
    1TYR    SC1  752   4.254   5.814   5.417  0.0794 -0.1010  0.1425
    1TYR    SC2  753   4.386   5.924   5.208 -0.2235  0.4401  0.2136
    1TYR    SC3  754   4.500   5.920   5.453  0.1153 -0.1586  0.0694
    2MET     BB  755   3.869   5.481   5.372 -0.0738 -0.0699  0.3426
    2MET    SC1  756   3.810   5.774   5.171  0.1446 -0.1563 -0.2127
    3TYR     BB  757   3.578   5.362   5.386  0.0416  0.1487  0.0981
    3TYR    SC1  758   3.570   5.123   5.564 -0.3091 -0.0115  0.2596
    3TYR    SC2  759   3.719   4.900   5.592 -0.0941  0.0548 -0.2283
    3TYR    SC3  760   3.492   4.930   5.735  0.1527 -0.2208  0.2517
    1TYR     BB  761   4.270   3.442   2.416 -0.2351  0.3152  0.0835
    1TYR    SC1  762   4.539   3.310   2.549  0.1147 -0.0145  0.1318
    1TYR    SC2  763   4.792   3.357   2.633  0.0741  0.1163  0.1836
    1TYR    SC3  764   4.664   3.130   2.708  0.2793 -0.0953 -0.0837
    2MET     BB  765   4.016   3.454   2.586 -0.2040 -0.0665  0.0399
    2MET    SC1  766   4.059   3.654   2.896  0.2380 -0.2304 -0.1294
    3TYR     BB  767   3.768   3.285   2.445 -0.1458 -0.0516  0.1798
    3TYR    SC1  768   3.795   3.504   2.196  0.2754 -0.1471 -0.0114
    3TYR    SC2  769   3.916   3.700   2.055 -0.1655  0.2141  0.0826
    3TYR    SC3  770   3.648   3.671   2.042 -0.1321 -0.2626  0.2334
    1TYR     BB  771   4.583   4.486   3.139 -0.1477  0.0164 -0.2490
    1TYR    SC1  772   4.704   4.770   3.211 -0.0101 -0.0325 -0.4202
    1TYR    SC2  773   4.828   4.918   3.400 -0.0644 -0.2429 -0.2144
    1TYR    SC3  774   4.712   5.039   3.188 -0.2209  0.0212  0.0144
    2MET     BB  775   4.280   4.535   3.023 -0.0153  0.0083 -0.0716
    2MET    SC1  776   4.152   4.193   2.981  0.1108 -0.0511  0.0044
    3TYR     BB  777   4.177   4.769   2.907 -0.0753 -0.0496  0.2423
    3TYR    SC1  778   4.279   5.055   2.810 -0.0011 -0.1070  0.1676
    3TYR    SC2  779   4.230   5.301   2.711  0.5134 -0.0756 -0.0459
    3TYR    SC3  780   4.311   5.272   2.967  0.0758 -0.0704  0.1022
    1TYR     BB  781   5.031   4.461   2.843  0.2928  0.1059 -0.1990
    1TYR    SC1  782   5.169   4.530   2.559  0.2938  0.3893  0.1669
    1TYR    SC2  783   5.244   4.517   2.299 -0.0145  0.0354  0.0847
    1TYR    SC3  784   5.237   4.755   2.427 -0.3075  0.2917 -0.3727
    2MET     BB  785   5.107   4.540   3.152  0.0268  0.0629 -0.2104
    2MET    SC1  786   5.179   4.896   3.075 -0.1226  0.0554 -0.2140
    3TYR     BB  787   5.045   4.457   3.488 -0.0275 -0.0920 -0.0799
    3TYR    SC1  788   5.186   4.670   3.624 -0.0866  0.0322  0.0370
    3TYR    SC2  789   5.205   4.915   3.736 -0.0279  0.0283  0.0361
    3TYR    SC3  790   5.369   4.847   3.533  0.0762 -0.0734  0.1522
    1TYR     BB  791   4.080   2.835   5.298  0.3405  0.1502  0.0949
    1TYR    SC1  792   4.138   2.584   5.140 -0.1168  0.0560 -0.2622
    1TYR    SC2  793   4.215   2.470   4.908 -0.0745 -0.1819 -0.1355
    1TYR    SC3  794   4.374   2.453   5.125  0.0703  0.3700 -0.1797
    2MET     BB  795   4.156   3.106   5.142  0.1277  0.3367 -0.0442
    2MET    SC1  796   4.108   3.113   4.788  0.0828  0.1181 -0.0096
    3TYR     BB  797   4.211   3.409   5.216 -0.0169  0.0483  0.3338
    3TYR    SC1  798   4.321   3.568   4.935 -0.0256  0.0114  0.0581
    3TYR    SC2  799   4.301   3.679   4.690  0.1267  0.1480  0.1055
    3TYR    SC3  800   4.473   3.781   4.871  0.0286  0.0373  0.2646
    1TYR     BB  801   5.416   4.074   3.162 -0.0053 -0.0036  0.1768
    1TYR    SC1  802   5.289   3.958   3.421  0.1569 -0.0015 -0.0721
    1TYR    SC2  803   5.336   3.799   3.634  0.0161  0.0386 -0.0095
    1TYR    SC3  804   5.122   3.963   3.633 -0.0446 -0.0380 -0.2270
    2MET     BB  805   5.533   4.376   3.289 -0.0541  0.3123  0.0799
    2MET    SC1  806   5.541   4.314   3.670 -0.0974 -0.1158 -0.0621
    3TYR     BB  807   5.649   4.686   3.167  0.0588 -0.0038  0.0012
    3TYR    SC1  808   5.777   4.841   3.383  0.3001 -0.4858 -0.0464
    3TYR    SC2  809   6.003   4.889   3.523 -0.0462  0.2157  0.3425
    3TYR    SC3  810   5.777   4.815   3.652 -0.1349 -0.1510  0.0012
    1TYR     BB  811   3.736   2.712   2.183 -0.0252  0.0640 -0.0978
    1TYR    SC1  812   3.603   2.955   2.116 -0.0475 -0.0494  0.2294
    1TYR    SC2  813   3.476   3.143   1.969 -0.1071 -0.4549 -0.2722
    1TYR    SC3  814   3.351   3.029   2.180 -0.1776 -0.1467 -0.1405
    2MET     BB  815   3.721   2.434   2.006 -0.2177 -0.0842  0.0405
    2MET    SC1  816   4.123   2.378   1.866  0.0264  0.1304  0.1539
    3TYR     BB  817   3.620   2.410   1.730  0.0679 -0.2227  0.0382
    3TYR    SC1  818   3.733   2.654   1.576  0.1774  0.0910 -0.0686
    3TYR    SC2  819   3.713   2.884   1.437 -0.0067  0.0560 -0.1035
    3TYR    SC3  820   3.866   2.874   1.659 -0.4107  0.3714  0.2091
    1TYR     BB  821   4.231   4.413   1.902  0.0074 -0.1770 -0.1186
    1TYR    SC1  822   4.122   4.704   1.981 -0.0552 -0.2506 -0.2695
    1TYR    SC2  823   3.915   4.865   2.044  0.0814 -0.1307 -0.1170
    1TYR    SC3  824   4.111   4.955   1.881  0.0120 -0.2466 -0.2673
    2MET     BB  825   4.007   4.147   1.945  0.1998 -0.0654  0.0778
    2MET    SC1  826   4.107   4.027   1.608  0.0679  0.3528  0.0647
    3TYR     BB  827   3.785   4.151   2.095  0.2081  0.1084  0.0260
    3TYR    SC1  828   3.684   3.984   2.365 -0.2403  0.1421  0.1961
    3TYR    SC2  829   3.591   3.757   2.477 -0.0592  0.0741  0.2123
    3TYR    SC3  830   3.699   3.950   2.632  0.3771 -0.1052  0.1518
    1TYR     BB  831   4.675   5.331   6.399 -0.3053  0.0425 -0.2118
    1TYR    SC1  832   4.503   5.165   6.587 -0.1702  0.0287 -0.0214
    1TYR    SC2  833   4.458   4.916   6.679  0.1736  0.0664  0.2815
    1TYR    SC3  834   4.313   5.123   6.773  0.1332  0.0288  0.3026
    2MET     BB  835   4.536   5.499   6.220  0.0640  0.0398 -0.1246
    2MET    SC1  836   4.144   5.620   6.170 -0.2133  0.2594 -0.1505
    3TYR     BB  837   4.589   5.871   6.268  0.0574  0.2179  0.1830
    3TYR    SC1  838   4.742   6.008   6.012  0.2617  0.1501  0.0301
    3TYR    SC2  839   4.889   5.974   5.788  0.1027  0.1674 -0.0788
    3TYR    SC3  840   4.709   6.175   5.802 -0.1457 -0.0493 -0.0765
    1TYR     BB  841   5.114   4.301   4.018  0.2508  0.0185  0.0124
    1TYR    SC1  842   5.286   4.559   4.050  0.1072 -0.0291 -0.2155
    1TYR    SC2  843   5.497   4.717   3.990  0.2769 -0.1079  0.1422
    1TYR    SC3  844   5.372   4.742   4.229  0.0459 -0.2421  0.0397
    2MET     BB  845   5.294   4.036   4.131 -0.1191  0.1030  0.4320
    2MET    SC1  846   5.573   4.227   4.242  0.2114  0.1960  0.0302
    3TYR     BB  847   5.200   3.919   4.374 -0.1352  0.0023 -0.1322
    3TYR    SC1  848   4.899   3.911   4.413  0.1509  0.0075  0.2602
    3TYR    SC2  849   4.662   3.971   4.528  0.0289  0.1679 -0.0596
    3TYR    SC3  850   4.686   3.749   4.377  0.1118  0.1033  0.0464
    1TYR     BB  851   5.845   3.974   3.478 -0.1024 -0.2761  0.0556
    1TYR    SC1  852   6.006   4.082   3.730 -0.3321 -0.5299 -0.0527
    1TYR    SC2  853   5.987   4.154   3.990 -0.4288 -0.1562 -0.1553
    1TYR    SC3  854   6.207   4.025   3.901  0.1110  0.6296 -0.0799
    2MET     BB  855   5.941   4.115   3.251 -0.0123  0.0391  0.1449
    2MET    SC1  856   6.028   4.431   3.352 -0.0221 -0.0591 -0.3281
    3TYR     BB  857   5.977   4.129   2.876 -0.0809 -0.0923  0.2113
    3TYR    SC1  858   5.740   4.314   2.812 -0.0591  0.2080  0.2598
    3TYR    SC2  859   5.474   4.328   2.769 -0.0433 -0.0569  0.0442
    3TYR    SC3  860   5.634   4.529   2.688 -0.1550  0.0119 -0.0092
    1TYR     BB  861   3.580   2.682   3.688 -0.2866 -0.2625  0.2168
    1TYR    SC1  862   3.480   2.523   3.443  0.3189 -0.0157 -0.1015
    1TYR    SC2  863   3.282   2.469   3.268  0.3492 -0.1328 -0.1004
    1TYR    SC3  864   3.522   2.553   3.178  0.3042 -0.0043 -0.1026
    2MET     BB  865   3.751   2.478   3.873 -0.0300  0.0674  0.1397
    2MET    SC1  866   4.102   2.417   3.783 -0.1683  0.3016  0.0807
    3TYR     BB  867   3.784   2.412   4.140  0.0533  0.1425  0.0343
    3TYR    SC1  868   3.639   2.148   4.161  0.0549 -0.1127  0.0555
    3TYR    SC2  869   3.410   2.027   4.237 -0.0456  0.0061 -0.0525
    3TYR    SC3  870   3.544   1.939   4.020  0.0281 -0.0811  0.0268
    1TYR     BB  871   3.199   3.011   1.168  0.1572  0.0380 -0.1801
    1TYR    SC1  872   3.396   3.218   1.035 -0.4160  0.1916 -0.1789
    1TYR    SC2  873   3.627   3.345   1.093 -0.2370 -0.2691  0.2038
    1TYR    SC3  874   3.481   3.421   0.878  0.0731  0.2697  0.1606
    2MET     BB  875   3.239   3.054   1.524 -0.0495 -0.0440 -0.0461
    2MET    SC1  876   3.267   2.761   1.776 -0.0876 -0.0615 -0.3482
    3TYR     BB  877   2.993   3.195   1.624  0.1982 -0.0258 -0.3287
    3TYR    SC1  878   2.810   3.278   1.402  0.0180 -0.0917  0.0438
    3TYR    SC2  879   2.732   3.221   1.149  0.0910  0.1113 -0.0266
    3TYR    SC3  880   2.548   3.251   1.344 -0.0014  0.3958 -0.1514
    1TYR     BB  881   4.529   4.665   5.007 -0.0301 -0.0695 -0.0428
    1TYR    SC1  882   4.349   4.468   5.009  0.0444 -0.0538 -0.0711
    1TYR    SC2  883   4.359   4.203   5.061 -0.2241 -0.0637 -0.0566
    1TYR    SC3  884   4.166   4.356   5.173 -0.1172  0.1252 -0.1253
    2MET     BB  885   4.628   4.786   5.265 -0.0320 -0.2669  0.1571
    2MET    SC1  886   4.407   4.670   5.545  0.0018 -0.2184  0.1275
    3TYR     BB  887   4.771   5.125   5.364 -0.2205  0.2040  0.1243
    3TYR    SC1  888   4.575   5.325   5.252  0.1495  0.3079 -0.1977
    3TYR    SC2  889   4.585   5.549   5.103 -0.1178  0.2959 -0.2410
    3TYR    SC3  890   4.346   5.443   5.170  0.0044  0.0367 -0.1995
    1TYR     BB  891   4.860   6.170   5.265 -0.2672 -0.2702 -0.1870
    1TYR    SC1  892   4.762   6.388   5.034  0.0022 -0.0384 -0.0985
    1TYR    SC2  893   4.582   6.587   5.008  0.0902  0.0502 -0.0410
    1TYR    SC3  894   4.822   6.606   4.887  0.0391 -0.0958 -0.1694
    2MET     BB  895   5.177   6.171   5.253  0.1600  0.3011  0.0245
    2MET    SC1  896   5.176   6.244   4.882 -0.4545 -0.1925  0.0397
    3TYR     BB  897   5.353   5.924   5.398  0.2754  0.0253  0.0273
    3TYR    SC1  898   5.658   5.820   5.523  0.1076  0.1805 -0.1609
    3TYR    SC2  899   5.883   5.702   5.432 -0.0056 -0.0127 -0.1964
    3TYR    SC3  900   5.853   5.749   5.696 -0.0389 -0.2449 -0.1558
    1TYR     BB  901   4.350   4.167   5.582  0.3392 -0.0350 -0.1949
    1TYR    SC1  902   4.629   4.254   5.406 -0.0304 -0.1272  0.3104
    1TYR    SC2  903   4.856   4.369   5.315 -0.1860 -0.1007 -0.0686
    1TYR    SC3  904   4.850   4.104   5.365 -0.0524 -0.0878  0.0225
    2MET     BB  905   4.240   4.148   5.841  0.1318  0.0223  0.0202
    2MET    SC1  906   4.483   4.484   5.975 -0.4309  0.0537  0.0486
    3TYR     BB  907   3.998   4.257   6.078  0.0062  0.1111 -0.0302
    3TYR    SC1  908   3.989   4.534   5.997 -0.1947  0.1649  0.0119
    3TYR    SC2  909   3.811   4.737   6.001 -0.0015  0.3460 -0.1977
    3TYR    SC3  910   4.050   4.770   5.880  0.1320  0.0699 -0.0219
    1TYR     BB  911   4.459   1.755   3.690  0.3453  0.1165 -0.0164
    1TYR    SC1  912   4.725   1.769   3.524  0.2391  0.2181  0.2075
    1TYR    SC2  913   4.995   1.787   3.515  0.2781 -0.2864 -0.0646
    1TYR    SC3  914   4.862   1.649   3.325 -0.2046  0.1612 -0.0802
    2MET     BB  915   4.233   1.924   3.584  0.1934 -0.0582 -0.0845
    2MET    SC1  916   4.029   1.964   3.965  0.1062  0.1625 -0.0607
    3TYR     BB  917   4.196   2.121   3.462  0.2175  0.1992  0.3230
    3TYR    SC1  918   4.425   2.266   3.304  0.1329  0.2740  0.0841
    3TYR    SC2  919   4.578   2.243   3.083 -0.0355 -0.0379 -0.0083
    3TYR    SC3  920   4.678   2.173   3.323  0.0456  0.0009 -0.0300
    1TYR     BB  921   4.094   3.424   3.900 -0.0985 -0.0123 -0.0462
    1TYR    SC1  922   3.992   3.450   3.604 -0.2776  0.1670 -0.0244
    1TYR    SC2  923   3.951   3.418   3.339 -0.0255 -0.1229 -0.0361
    1TYR    SC3  924   3.773   3.556   3.488 -0.0632  0.2322 -0.3894
    2MET     BB  925   4.049   3.421   4.077 -0.1646  0.0395  0.0670
    2MET    SC1  926   4.077   3.776   4.230  0.0099  0.1906 -0.0719
    3TYR     BB  927   4.273   3.305   4.367 -0.2289 -0.1590  0.1055
    3TYR    SC1  928   4.536   3.270   4.272  0.0616  0.2430  0.0559
    3TYR    SC2  929   4.764   3.317   4.136  0.1149 -0.1249  0.0062
    3TYR    SC3  930   4.705   3.067   4.219 -0.0358  0.0455  0.4513
    1TYR     BB  931   5.310   2.140   3.436 -0.3564 -0.0968 -0.1583
    1TYR    SC1  932   5.121   2.069   3.179  0.0743  0.1626  0.1383
    1TYR    SC2  933   4.927   1.956   3.029  0.0937  0.1879  0.0942
    1TYR    SC3  934   5.026   2.198   2.962  0.2993  0.0770 -0.0155
    2MET     BB  935   5.592   2.179   3.487 -0.0443  0.0334  0.1264
    2MET    SC1  936   5.534   1.975   3.867 -0.1561 -0.2993  0.1243
    3TYR     BB  937   5.792   2.396   3.491 -0.2634 -0.1160  0.1284
    3TYR    SC1  938   5.890   2.520   3.723 -0.1401 -0.1037  0.0456
    3TYR    SC2  939   5.888   2.741   3.878 -0.0734 -0.0462 -0.0344
    3TYR    SC3  940   6.053   2.536   3.938  0.0293  0.0194 -0.0871
    1TYR     BB  941   4.288   5.081   6.164  0.0628 -0.0680 -0.1816
    1TYR    SC1  942   4.084   5.072   6.359  0.0975 -0.3784 -0.0564
    1TYR    SC2  943   3.894   5.042   6.549  0.1411 -0.0209  0.0542
    1TYR    SC3  944   3.963   5.289   6.466  0.1053 -0.1669 -0.4527
    2MET     BB  945   4.161   5.271   5.829 -0.0498  0.3639 -0.0438
    2MET    SC1  946   3.826   5.288   5.935 -0.2294  0.2314 -0.4124
    3TYR     BB  947   4.288   5.189   5.611 -0.0255 -0.3023 -0.1348
    3TYR    SC1  948   4.160   5.039   5.323 -0.2323 -0.2511  0.2419
    3TYR    SC2  949   4.145   4.929   5.077 -0.3244  0.0900  0.0878
    3TYR    SC3  950   4.042   4.798   5.290  0.0386 -0.3581  0.0069
    1TYR     BB  951   2.950   4.311   3.013  0.1664 -0.0117 -0.2013
    1TYR    SC1  952   3.112   4.071   3.014 -0.2080 -0.0722  0.2645
    1TYR    SC2  953   3.166   3.852   2.866 -0.2967 -0.0642  0.2192
    1TYR    SC3  954   3.323   3.915   3.077 -0.2170 -0.1203  0.1773
    2MET     BB  955   2.876   4.526   2.835  0.2198  0.0427  0.1847
    2MET    SC1  956   2.870   4.787   3.144 -0.1073  0.2683 -0.0570
    3TYR     BB  957   3.127   4.652   2.697  0.1393  0.0347 -0.1811
    3TYR    SC1  958   3.028   4.961   2.695  0.4998  0.2245  0.2326
    3TYR    SC2  959   2.849   5.145   2.780  0.1671 -0.0213  0.0931
    3TYR    SC3  960   3.095   5.222   2.701  0.1628  0.3157  0.3776
    1TYR     BB  961   4.891   3.438   3.518 -0.1393 -0.1427  0.0244
    1TYR    SC1  962   4.947   3.522   3.778  0.1983  0.0125 -0.1341
    1TYR    SC2  963   4.982   3.721   3.956 -0.0169  0.0821 -0.1663
    1TYR    SC3  964   5.167   3.526   3.935  0.1054  0.1767 -0.0039
    2MET     BB  965   4.649   3.182   3.508 -0.0589  0.3185 -0.3225
    2MET    SC1  966   4.443   3.408   3.284  0.1175  0.1881  0.1481
    3TYR     BB  967   4.503   3.185   3.762  0.0461 -0.2525  0.0007
    3TYR    SC1  968   4.433   2.910   3.800  0.0231  0.0330  0.2731
    3TYR    SC2  969   4.547   2.672   3.858  0.2036  0.0935  0.1776
    3TYR    SC3  970   4.428   2.710   3.618  0.5746  0.2356  0.0075
    1TYR     BB  971   5.259   3.860   5.597  0.1747 -0.0977 -0.0138
    1TYR    SC1  972   5.308   3.597   5.477 -0.2529 -0.3220 -0.1551
    1TYR    SC2  973   5.376   3.388   5.634  0.2549  0.0938  0.2223
    1TYR    SC3  974   5.388   3.364   5.366 -0.0340 -0.4479  0.2409
    2MET     BB  975   5.383   4.092   5.621 -0.2483 -0.0982 -0.0234
    2MET    SC1  976   5.254   4.336   5.809  0.0774  0.2297  0.1599
    3TYR     BB  977   5.686   4.180   5.363  0.0198  0.3509 -0.1755
    3TYR    SC1  978   5.796   4.402   5.514 -0.3180  0.1463 -0.0591
    3TYR    SC2  979   5.840   4.473   5.771  0.2032  0.1589 -0.1383
    3TYR    SC3  980   5.831   4.662   5.578  0.0873  0.1266 -0.1654
    1TYR     BB  981   4.621   5.812   4.346  0.0770 -0.1707 -0.0406
    1TYR    SC1  982   4.359   5.804   4.541 -0.1591 -0.1766  0.0322
    1TYR    SC2  983   4.309   5.811   4.807 -0.1511 -0.4896  0.0468
    1TYR    SC3  984   4.154   5.952   4.636  0.0636  0.0106  0.2394
    2MET     BB  985   4.805   5.642   4.382  0.2390 -0.0528 -0.0879
    2MET    SC1  986   4.952   5.637   3.983  0.1887  0.0527  0.0531
    3TYR     BB  987   4.915   5.402   4.432  0.0904 -0.2597 -0.0381
    3TYR    SC1  988   5.141   5.330   4.305  0.1875  0.0339  0.1881
    3TYR    SC2  989   5.250   5.144   4.143 -0.0446 -0.1788  0.2688
    3TYR    SC3  990   5.385   5.372   4.195  0.1182 -0.1909 -0.0641
    1TYR     BB  991   4.077   2.214   2.927 -0.0854 -0.0970 -0.1144
    1TYR    SC1  992   3.859   1.988   2.904 -0.0867 -0.1446  0.3407
    1TYR    SC2  993   3.598   1.938   2.854 -0.0375 -0.2935  0.2243
    1TYR    SC3  994   3.788   1.766   2.769  0.1568  0.1599 -0.3486
    2MET     BB  995   3.972   2.439   3.063 -0.3905 -0.2245 -0.1863
    2MET    SC1  996   3.943   2.693   2.843 -0.2151  0.1681 -0.0474
    3TYR     BB  997   3.960   2.531   3.318 -0.1816 -0.3738 -0.2749
    3TYR    SC1  998   4.016   2.804   3.419 -0.3889  0.1819  0.0464
    3TYR    SC2  999   4.187   3.011   3.447  0.2679 -0.3288  0.1199
    3TYR    SC3 1000   4.019   2.946   3.649  0.0300  0.1237  0.0855
   7.65113   7.65113   7.65113
