Generated by trjconv : Martini system from ../2_Creating_coordinates/TYR-TYR-TYR_aa.pdb t=   0.00000
 1200
    1TYR     BB    1   0.052   4.665   3.507 -0.1828 -0.0638 -0.0064
    1TYR    SC1    2  -0.178   4.591   3.688 -0.0592  0.5637 -0.1373
    1TYR    SC2    3  -0.434   4.530   3.749  0.1643  0.0757  0.4472
    1TYR    SC3    4  -0.303   4.719   3.891  0.1297  0.3629  0.1144
    2TYR     BB    5   0.322   4.676   3.512 -0.0486  0.2077 -0.0494
    2TYR    SC1    6   0.512   4.936   3.565  0.2180  0.2179  0.1576
    2TYR    SC2    7   0.599   5.171   3.666  0.3362  0.3425 -0.2109
    2TYR    SC3    8   0.606   5.129   3.400 -0.3770  0.2045 -0.2311
    3TYR     BB    9   0.487   4.522   3.359  0.1105  0.1574 -0.1894
    3TYR    SC1   10   0.464   4.421   3.079  0.2373 -0.0758  0.0028
    3TYR    SC2   11   0.525   4.472   2.821  0.0929  0.0037 -0.0174
    3TYR    SC3   12   0.414   4.235   2.889  0.1452 -0.0233 -0.0254
    1TYR     BB   13  -0.044   5.962   3.130 -0.0610  0.1264 -0.0060
    1TYR    SC1   14  -0.168   6.214   3.043 -0.1127 -0.1386  0.1343
    1TYR    SC2   15  -0.274   6.375   2.853  0.2146 -0.1589 -0.0759
    1TYR    SC3   16  -0.345   6.406   3.112 -0.2418 -0.1306 -0.1937
    2TYR     BB   17  -0.179   5.826   3.375  0.3090  0.0054 -0.0755
    2TYR    SC1   18  -0.195   6.034   3.598 -0.1677  0.1184  0.1775
    2TYR    SC2   19  -0.237   6.295   3.541 -0.1850  0.1245  0.2172
    2TYR    SC3   20  -0.360   6.182   3.753 -0.3913  0.0144  0.0431
    3TYR     BB   21  -0.225   5.522   3.453  0.1698  0.1132  0.2267
    3TYR    SC1   22  -0.548   5.558   3.522  0.1984 -0.0304  0.0365
    3TYR    SC2   23  -0.815   5.600   3.518  0.1645 -0.2189  0.1750
    3TYR    SC3   24  -0.654   5.771   3.651  0.1434  0.0328 -0.1103
    1TYR     BB   25  -0.453   5.422   3.050  0.0604  0.0085 -0.0652
    1TYR    SC1   26  -0.665   5.253   3.153 -0.1701  0.2512 -0.0694
    1TYR    SC2   27  -0.761   5.008   3.211  0.2035  0.0373 -0.2978
    1TYR    SC3   28  -0.909   5.228   3.266 -0.0069 -0.2100  0.2151
    2TYR     BB   29  -0.454   5.723   2.952  0.3671  0.2785  0.1780
    2TYR    SC1   30  -0.603   5.907   3.195  0.4067  0.2525 -0.0212
    2TYR    SC2   31  -0.675   6.163   3.242 -0.2274  0.1084 -0.0953
    2TYR    SC3   32  -0.861   5.967   3.247  0.2711 -0.3965  0.1791
    3TYR     BB   33  -0.351   5.833   2.721 -0.1694 -0.1950  0.1193
    3TYR    SC1   34  -0.047   5.873   2.646 -0.1283  0.2403 -0.3095
    3TYR    SC2   35   0.207   5.910   2.730 -0.2247 -0.0256  0.1336
    3TYR    SC3   36   0.153   5.900   2.467  0.2516 -0.1363  0.0283
    1TYR     BB   37   2.398   3.802   4.112  0.0114  0.1559 -0.2410
    1TYR    SC1   38   2.151   3.919   3.983 -0.2759 -0.3336  0.5075
    1TYR    SC2   39   1.886   3.908   3.935 -0.1506 -0.3455 -0.4128
    1TYR    SC3   40   2.031   4.117   3.844  0.1876 -0.4027 -0.0384
    2TYR     BB   41   2.494   3.612   3.861  0.0977 -0.1215  0.2121
    2TYR    SC1   42   2.274   3.687   3.633  0.1351 -0.0238 -0.0334
    2TYR    SC2   43   2.048   3.605   3.509  0.0851  0.0994 -0.0267
    2TYR    SC3   44   2.167   3.834   3.432  0.2828 -0.0304 -0.1183
    3TYR     BB   45   2.806   3.662   3.784 -0.1395 -0.1770  0.3263
    3TYR    SC1   46   2.836   3.435   3.554  0.2133  0.1769 -0.0213
    3TYR    SC2   47   2.874   3.261   3.350 -0.5543 -0.0275 -0.0286
    3TYR    SC3   48   2.819   3.168   3.598  0.0675  0.2232  0.2269
    1TYR     BB   49   2.065   5.325   3.227  0.0788  0.0516  0.3328
    1TYR    SC1   50   2.237   5.584   3.285  0.3932 -0.0627  0.2879
    1TYR    SC2   51   2.273   5.789   3.457 -0.2003  0.2034  0.1260
    1TYR    SC3   52   2.318   5.824   3.193 -0.2033  0.0908  0.1098
    2TYR     BB   53   2.119   5.050   3.391  0.2933 -0.0133  0.0018
    2TYR    SC1   54   2.314   4.846   3.192  0.1869 -0.1167 -0.1275
    2TYR    SC2   55   2.420   4.646   3.045  0.1507 -0.0789 -0.2048
    2TYR    SC3   56   2.268   4.837   2.927  0.3257  0.0913 -0.1609
    3TYR     BB   57   2.000   4.958   3.593 -0.1699 -0.2257  0.1521
    3TYR    SC1   58   2.133   4.718   3.741 -0.1339 -0.2691 -0.0771
    3TYR    SC2   59   2.067   4.538   3.930  0.1168 -0.1917  0.0907
    3TYR    SC3   60   2.326   4.601   3.889  0.0239  0.3356  0.2356
    1TYR     BB   61   5.617   4.525   5.434 -0.0971 -0.0943  0.0775
    1TYR    SC1   62   5.372   4.578   5.272 -0.4066 -0.2531  0.0307
    1TYR    SC2   63   5.155   4.524   5.122 -0.3350 -0.3268 -0.0474
    1TYR    SC3   64   5.209   4.779   5.194 -0.1141 -0.2166 -0.5492
    2TYR     BB   65   5.707   4.276   5.619 -0.1076 -0.0208 -0.0895
    2TYR    SC1   66   6.019   4.256   5.543  0.1483  0.2516 -0.0449
    2TYR    SC2   67   6.212   4.164   5.379  0.1034  0.2475 -0.0955
    2TYR    SC3   68   6.229   4.121   5.645 -0.0215 -0.0925 -0.1354
    3TYR     BB   69   5.522   4.146   5.775  0.0380 -0.1617  0.1950
    3TYR    SC1   70   5.273   4.078   5.584  0.0615 -0.2431  0.0877
    3TYR    SC2   71   5.098   4.157   5.394  0.0929  0.2083  0.2283
    3TYR    SC3   72   5.010   4.021   5.610  0.0030  0.0005  0.0665
    1TYR     BB   73   0.042   5.382   2.268 -0.1226 -0.1363 -0.0028
    1TYR    SC1   74  -0.106   5.267   2.042 -0.0373 -0.0494 -0.0870
    1TYR    SC2   75  -0.369   5.244   1.983 -0.0721  0.1285 -0.0082
    1TYR    SC3   76  -0.182   5.156   1.808 -0.1805  0.2029 -0.1636
    2TYR     BB   77  -0.074   5.381   2.588 -0.0444 -0.1946  0.6144
    2TYR    SC1   78  -0.367   5.356   2.524  0.0932 -0.2858 -0.0488
    2TYR    SC2   79  -0.608   5.479   2.518  0.1618 -0.1306  0.1971
    2TYR    SC3   80  -0.586   5.222   2.439 -0.0750 -0.1318  0.1272
    3TYR     BB   81   0.053   5.387   2.876  0.1873 -0.0539 -0.0394
    3TYR    SC1   82   0.363   5.455   2.962  0.0648 -0.1407  0.2870
    3TYR    SC2   83   0.510   5.678   2.923  0.0464 -0.2305 -0.5144
    3TYR    SC3   84   0.625   5.453   3.019  0.1087  0.0386  0.1061
    1TYR     BB   85   1.261   0.503   4.059  0.1061 -0.0739  0.0788
    1TYR    SC1   86   1.346   0.257   4.202 -0.2864  0.1826  0.2794
    1TYR    SC2   87   1.558   0.220   4.364  0.0794 -0.0849 -0.2211
    1TYR    SC3   88   1.352   0.046   4.370  0.1827 -0.2082 -0.1814
    2TYR     BB   89   0.975   0.608   4.266 -0.4306 -0.0255  0.1608
    2TYR    SC1   90   0.902   0.327   4.380 -0.3193  0.2725  0.0963
    2TYR    SC2   91   0.714   0.140   4.333  0.1454 -0.2211  0.0752
    2TYR    SC3   92   0.914   0.090   4.509  0.3934  0.1847 -0.0742
    3TYR     BB   93   1.055   0.789   4.406  0.0471 -0.0550  0.4959
    3TYR    SC1   94   1.271   0.651   4.623  0.1843  0.2160  0.1998
    3TYR    SC2   95   1.397   0.562   4.844  0.0195  0.0872  0.2437
    3TYR    SC3   96   1.165   0.448   4.765 -0.0446  0.2866  0.1346
    1TYR     BB   97   1.912   4.207   2.728  0.1293 -0.0273  0.4622
    1TYR    SC1   98   2.109   3.994   2.562  0.1172 -0.0228  0.0829
    1TYR    SC2   99   2.163   3.814   2.369 -0.3561  0.1646 -0.2518
    1TYR    SC3  100   2.364   3.931   2.505 -0.0182 -0.1498 -0.4562
    2TYR     BB  101   1.824   4.485   2.703  0.0706 -0.2333  0.0751
    2TYR    SC1  102   1.884   4.654   2.987  0.2535  0.1583 -0.0381
    2TYR    SC2  103   1.800   4.640   3.243  0.3887 -0.0631 -0.0022
    2TYR    SC3  104   1.719   4.843   3.085 -0.0914 -0.1832  0.0714
    3TYR     BB  105   1.648   4.697   2.477  0.0149  0.0692  0.1301
    3TYR    SC1  106   1.743   4.998   2.628  0.0619 -0.0676  0.7128
    3TYR    SC2  107   1.764   5.259   2.565  0.1318 -0.2513 -0.1782
    3TYR    SC3  108   1.916   5.155   2.763 -0.0511  0.3982  0.3431
    1TYR     BB  109   1.879   3.007   4.314 -0.3157 -0.1026 -0.0717
    1TYR    SC1  110   1.661   3.147   4.458 -0.1066  0.3338 -0.0336
    1TYR    SC2  111   1.457   3.115   4.632 -0.1885 -0.0702 -0.1910
    1TYR    SC3  112   1.506   3.358   4.525 -0.5088  0.0591 -0.0601
    2TYR     BB  113   2.197   3.109   4.246  0.2812 -0.0692  0.2681
    2TYR    SC1  114   2.272   3.138   3.948 -0.3165  0.1797 -0.2868
    2TYR    SC2  115   2.404   3.058   3.726 -0.2036 -0.1568 -0.1054
    2TYR    SC3  116   2.176   3.201   3.702  0.0661  0.2490 -0.4274
    3TYR     BB  117   2.260   3.354   4.407  0.2054 -0.2112  0.1321
    3TYR    SC1  118   2.317   3.362   4.700  0.1278  0.0234  0.0985
    3TYR    SC2  119   2.393   3.274   4.944 -0.1514 -0.0205  0.1735
    3TYR    SC3  120   2.290   3.522   4.916 -0.1933 -0.0441  0.1142
    1TYR     BB  121   2.737   2.108   4.720  0.0156  0.1836  0.0183
    1TYR    SC1  122   2.921   2.094   4.968  0.1604  0.0508  0.1192
    1TYR    SC2  123   3.097   1.988   5.144  0.1461 -0.1714  0.0037
    1TYR    SC3  124   3.145   2.230   5.036  0.1405 -0.0169  0.3311
    2TYR     BB  125   2.784   2.401   4.610  0.2330  0.1374  0.1367
    2TYR    SC1  126   2.787   2.583   4.815 -0.0828  0.5097 -0.1781
    2TYR    SC2  127   2.664   2.755   4.983 -0.0087  0.3862  0.0084
    2TYR    SC3  128   2.885   2.625   5.063 -0.1739  0.0542 -0.0530
    3TYR     BB  129   2.895   2.450   4.326 -0.1868  0.0235 -0.1763
    3TYR    SC1  130   2.722   2.562   4.109 -0.0104 -0.1107 -0.1261
    3TYR    SC2  131   2.588   2.608   3.879  0.0494  0.1657 -0.1107
    3TYR    SC3  132   2.555   2.772   4.089 -0.2484 -0.2584  0.1980
    1TYR     BB  133   1.539   3.997   3.063 -0.1895 -0.2113 -0.0347
    1TYR    SC1  134   1.415   4.070   2.795 -0.0996 -0.2276 -0.1387
    1TYR    SC2  135   1.192   4.144   2.661  0.0086  0.2094 -0.0982
    1TYR    SC3  136   1.436   4.195   2.556  0.0995 -0.1922 -0.1052
    2TYR     BB  137   1.784   3.792   2.976 -0.0766  0.1102 -0.1307
    2TYR    SC1  138   1.696   3.766   2.662  0.2614  0.2609 -0.0951
    2TYR    SC2  139   1.576   3.796   2.422  0.1591 -0.1477 -0.1051
    2TYR    SC3  140   1.763   3.604   2.457 -0.1131 -0.3651  0.2369
    3TYR     BB  141   1.836   3.577   3.105 -0.1859 -0.0730 -0.2888
    3TYR    SC1  142   1.646   3.335   2.978 -0.0034  0.4864 -0.0113
    3TYR    SC2  143   1.466   3.257   2.792  0.2164 -0.0882 -0.0112
    3TYR    SC3  144   1.382   3.349   3.032 -0.0875 -0.4880  0.0470
    1TYR     BB  145   1.652   1.785   4.879 -0.2057  0.4808  0.1794
    1TYR    SC1  146   1.968   1.675   4.874 -0.1369  0.2781 -0.1299
    1TYR    SC2  147   2.175   1.504   4.913 -0.2515  0.1908  0.1242
    1TYR    SC3  148   2.051   1.514   4.673  0.0542  0.2577 -0.0376
    2TYR     BB  149   1.598   1.999   5.053 -0.4058 -0.0243  0.0174
    2TYR    SC1  150   1.387   2.166   4.991 -0.0672 -0.3079 -0.1605
    2TYR    SC2  151   1.125   2.135   5.050 -0.0595 -0.3120 -0.1287
    2TYR    SC3  152   1.206   2.344   4.900 -0.0504 -0.1627  0.0797
    3TYR     BB  153   1.892   2.177   5.167  0.7981  0.0172  0.2230
    3TYR    SC1  154   2.054   2.133   4.923 -0.1684  0.0720  0.2036
    3TYR    SC2  155   2.144   2.293   4.726 -0.1700 -0.0212  0.1263
    3TYR    SC3  156   2.268   2.059   4.776 -0.1276  0.0333  0.2818
    1TYR     BB  157   6.535   3.374   5.125 -0.1540  0.1553  0.1516
    1TYR    SC1  158   6.321   3.518   5.319  0.2846  0.0463  0.3888
    1TYR    SC2  159   6.145   3.708   5.396  0.2352  0.1397  0.0668
    1TYR    SC3  160   6.302   3.588   5.579  0.2456  0.4656  0.2842
    2TYR     BB  161   6.556   3.537   4.866 -0.0537  0.1728 -0.1510
    2TYR    SC1  162   6.364   3.810   4.806 -0.1784 -0.1392  0.1931
    2TYR    SC2  163   6.242   3.944   5.006 -0.0802  0.0071  0.1572
    2TYR    SC3  164   6.275   4.062   4.767  0.3166  0.0553  0.2260
    3TYR     BB  165   6.676   3.387   4.617  0.2619 -0.1385  0.1876
    3TYR    SC1  166   6.870   3.174   4.762  0.0495  0.0216 -0.1391
    3TYR    SC2  167   7.120   3.087   4.812  0.0759  0.1740  0.0040
    3TYR    SC3  168   6.917   3.006   4.969  0.0734  0.2333  0.0316
    1TYR     BB  169   5.048   3.901   3.956 -0.1068 -0.1555  0.0146
    1TYR    SC1  170   5.198   3.686   4.115 -0.1322 -0.0524  0.0553
    1TYR    SC2  171   5.108   3.460   4.233  0.3617 -0.1367  0.3013
    1TYR    SC3  172   5.341   3.457   4.096  0.2131  0.1577  0.0254
    2TYR     BB  173   4.827   3.716   3.837 -0.0321 -0.2684 -0.1401
    2TYR    SC1  174   4.854   3.614   3.552 -0.3228 -0.0241 -0.1411
    2TYR    SC2  175   4.745   3.545   3.316 -0.1703 -0.1082 -0.1880
    2TYR    SC3  176   5.013   3.549   3.345 -0.1857 -0.4026  0.0707
    3TYR     BB  177   4.704   3.458   4.010  0.0987  0.1900 -0.1452
    3TYR    SC1  178   4.598   3.220   3.800 -0.3737  0.3395  0.1914
    3TYR    SC2  179   4.640   3.160   3.541 -0.2068  0.0375  0.2831
    3TYR    SC3  180   4.397   3.118   3.651 -0.2709  0.1417  0.1839
    1TYR     BB  181   8.066   4.151   2.638  0.1591  0.0066 -0.1846
    1TYR    SC1  182   7.788   4.206   2.749  0.1899  0.4866 -0.0239
    1TYR    SC2  183   7.581   4.114   2.897  0.2149  0.1580 -0.1829
    1TYR    SC3  184   7.556   4.344   2.758 -0.0316  0.1406 -0.1715
    2TYR     BB  185   8.038   3.782   2.671  0.1855  0.1030 -0.0157
    2TYR    SC1  186   7.729   3.736   2.628  0.0305  0.0435  0.1860
    2TYR    SC2  187   7.521   3.659   2.780 -0.0029  0.0760  0.1571
    2TYR    SC3  188   7.517   3.614   2.515  0.2533 -0.3996  0.2202
    3TYR     BB  189   8.347   3.702   2.637  0.0004 -0.3432 -0.2623
    3TYR    SC1  190   8.467   3.962   2.476 -0.4385 -0.1705  0.1599
    3TYR    SC2  191   8.645   4.163   2.492 -0.0368 -0.5039  0.0805
    3TYR    SC3  192   8.444   4.175   2.313 -0.0255 -0.1749  0.0831
    1TYR     BB  193   7.396   4.249   3.430 -0.2616 -0.2169 -0.0565
    1TYR    SC1  194   7.114   4.190   3.560 -0.1148 -0.0171 -0.1253
    1TYR    SC2  195   6.875   4.063   3.557  0.0822 -0.4367  0.2886
    1TYR    SC3  196   6.894   4.312   3.658 -0.2219 -0.2703 -0.0387
    2TYR     BB  197   7.567   4.418   3.271  0.0922 -0.0269  0.2093
    2TYR    SC1  198   7.865   4.258   3.241 -0.0705 -0.1531  0.1396
    2TYR    SC2  199   8.081   4.173   3.379  0.2162  0.1795 -0.0865
    2TYR    SC3  200   8.037   4.083   3.129  0.0468  0.0551 -0.0136
    3TYR     BB  201   7.590   4.685   3.158  0.0830 -0.1435 -0.2649
    3TYR    SC1  202   7.648   4.814   2.879  0.1619 -0.0903 -0.2046
    3TYR    SC2  203   7.502   4.884   2.663 -0.0479 -0.0045 -0.0390
    3TYR    SC3  204   7.692   5.051   2.757  0.2476 -0.1671 -0.3253
    1TYR     BB  205   6.663   3.775   2.368 -0.1168 -0.2674  0.2479
    1TYR    SC1  206   6.466   3.842   2.123 -0.0291  0.0762  0.0329
    1TYR    SC2  207   6.372   4.029   1.952 -0.1347  0.0525  0.0646
    1TYR    SC3  208   6.234   3.800   1.992  0.1666 -0.1967 -0.2443
    2TYR     BB  209   6.544   3.705   2.573 -0.1872  0.0147  0.0852
    2TYR    SC1  210   6.302   3.520   2.493  0.0670 -0.3487 -0.2437
    2TYR    SC2  211   6.056   3.511   2.380 -0.1137 -0.2180  0.1191
    2TYR    SC3  212   6.116   3.347   2.585 -0.0412  0.0284  0.3009
    3TYR     BB  213   6.451   3.938   2.794 -0.0684  0.0509  0.0804
    3TYR    SC1  214   6.167   3.851   2.835  0.1854 -0.0973  0.3042
    3TYR    SC2  215   5.926   3.809   2.724  0.3673 -0.2863 -0.0429
    3TYR    SC3  216   6.014   3.645   2.919  0.2184 -0.2129  0.0898
    1TYR     BB  217   3.785   3.531   4.133  0.1698 -0.0825 -0.0315
    1TYR    SC1  218   3.993   3.309   4.148 -0.0301  0.1355 -0.1285
    1TYR    SC2  219   4.088   3.135   3.966 -0.0110 -0.1135  0.1094
    1TYR    SC3  220   4.257   3.256   4.139 -0.0067  0.2472 -0.1295
    2TYR     BB  221   3.636   3.484   4.456 -0.0105 -0.1800 -0.0506
    2TYR    SC1  222   3.383   3.372   4.555  0.0270  0.1205 -0.0267
    2TYR    SC2  223   3.179   3.247   4.430 -0.0872  0.1092  0.1649
    2TYR    SC3  224   3.146   3.342   4.680  0.1943 -0.0425  0.2670
    3TYR     BB  225   3.773   3.675   4.680 -0.1124  0.0313  0.1762
    3TYR    SC1  226   3.659   3.943   4.595 -0.2111 -0.0042 -0.1435
    3TYR    SC2  227   3.604   4.190   4.688 -0.0503 -0.0590  0.1131
    3TYR    SC3  228   3.653   4.152   4.425 -0.0450  0.1852  0.0759
    1TYR     BB  229   0.462   5.881   4.276 -0.1788  0.1184 -0.1905
    1TYR    SC1  230   0.647   5.793   4.507 -0.2317 -0.1564 -0.0341
    1TYR    SC2  231   0.830   5.920   4.660 -0.2293 -0.0961 -0.0865
    1TYR    SC3  232   0.711   5.694   4.750 -0.0728 -0.1790 -0.0839
    2TYR     BB  233   0.658   6.160   4.179  0.1432  0.0522  0.0451
    2TYR    SC1  234   0.950   6.168   4.305 -0.1034  0.1335  0.1329
    2TYR    SC2  235   1.089   5.939   4.270 -0.4405 -0.0384 -0.1717
    2TYR    SC3  236   1.218   6.168   4.329 -0.0727 -0.2564 -0.0909
    3TYR     BB  237   0.513   6.410   4.390 -0.0831  0.2404  0.2734
    3TYR    SC1  238   0.501   6.205   4.639  0.0786 -0.1822 -0.1240
    3TYR    SC2  239   0.352   6.069   4.816 -0.3476  0.0068 -0.3208
    3TYR    SC3  240   0.580   6.189   4.897 -0.1815 -0.4530 -0.0559
    1TYR     BB  241   6.172   3.334   3.551  0.1893  0.2529  0.1442
    1TYR    SC1  242   6.010   3.246   3.282 -0.2754  0.1216  0.0216
    1TYR    SC2  243   5.789   3.305   3.139 -0.0693 -0.0280 -0.3773
    1TYR    SC3  244   5.994   3.173   3.022  0.1240 -0.1332  0.0572
    2TYR     BB  245   6.404   3.165   3.669  0.0264 -0.0668 -0.0102
    2TYR    SC1  246   6.326   3.092   3.968  0.1188 -0.0598  0.1128
    2TYR    SC2  247   6.220   3.014   4.204  0.2303  0.2089  0.2576
    2TYR    SC3  248   6.414   3.202   4.199  0.3045  0.1306 -0.0434
    3TYR     BB  249   6.617   2.990   3.543  0.0306 -0.3094  0.1561
    3TYR    SC1  250   6.590   2.749   3.387  0.0442 -0.3615  0.0191
    3TYR    SC2  251   6.676   2.515   3.282  0.1364 -0.2849 -0.0794
    3TYR    SC3  252   6.622   2.724   3.120  0.0419 -0.2412  0.0067
    1TYR     BB  253   3.311   3.543   3.337  0.0377  0.2673  0.0029
    1TYR    SC1  254   3.358   3.431   3.058 -0.0800  0.1492 -0.1283
    1TYR    SC2  255   3.215   3.271   2.894 -0.2199  0.0346  0.0995
    1TYR    SC3  256   3.377   3.459   2.790 -0.4673  0.1105 -0.1677
    2TYR     BB  257   3.058   3.785   3.302  0.3122 -0.2763 -0.2842
    2TYR    SC1  258   3.139   4.001   3.484  0.3195 -0.1067 -0.0209
    2TYR    SC2  259   3.168   4.044   3.749 -0.1389 -0.1716  0.0495
    2TYR    SC3  260   3.145   4.254   3.580 -0.1192 -0.1316  0.0961
    3TYR     BB  261   2.740   3.854   3.262  0.0252  0.1471 -0.3820
    3TYR    SC1  262   2.687   4.062   3.506  0.2259  0.2863  0.0479
    3TYR    SC2  263   2.687   4.208   3.732 -0.0465  0.1743  0.1240
    3TYR    SC3  264   2.463   4.077   3.655  0.0699  0.1353 -0.1624
    1TYR     BB  265   1.696   2.482   3.653  0.1528 -0.1303  0.3006
    1TYR    SC1  266   1.488   2.394   3.439  0.1985 -0.2420  0.0623
    1TYR    SC2  267   1.546   2.465   3.185 -0.0436  0.0323  0.0767
    1TYR    SC3  268   1.292   2.409   3.255  0.0391 -0.1612  0.2352
    2TYR     BB  269   1.628   2.645   3.875  0.1796  0.2779  0.2276
    2TYR    SC1  270   1.430   2.650   4.120  0.0840 -0.1643  0.0379
    2TYR    SC2  271   1.188   2.752   4.183  0.0231 -0.3599  0.1312
    2TYR    SC3  272   1.409   2.831   4.318  0.1295  0.3172 -0.3715
    3TYR     BB  273   1.737   2.984   3.823 -0.1552  0.0256 -0.2149
    3TYR    SC1  274   1.437   3.069   3.938 -0.1142 -0.0368  0.0535
    3TYR    SC2  275   1.345   3.254   4.110 -0.1110 -0.0743  0.0959
    3TYR    SC3  276   1.210   3.204   3.882 -0.0803  0.0217  0.0556
    1TYR     BB  277   8.015   3.607   4.046 -0.1012 -0.2693  0.0724
    1TYR    SC1  278   8.210   3.760   3.940 -0.0581  0.0144 -0.1843
    1TYR    SC2  279   8.257   4.013   3.857  0.1336  0.0719  0.0827
    1TYR    SC3  280   8.460   3.863   3.954 -0.0008 -0.1469  0.0345
    2TYR     BB  281   7.878   3.631   4.317  0.0546  0.0662  0.1267
    2TYR    SC1  282   8.087   3.667   4.521 -0.0975  0.3482  0.2830
    2TYR    SC2  283   8.171   3.758   4.763  0.3803  0.5530  0.0572
    2TYR    SC3  284   8.351   3.687   4.574  0.0177  0.2606 -0.2007
    3TYR     BB  285   7.653   3.440   4.531  0.2295  0.1449  0.1582
    3TYR    SC1  286   7.732   3.564   4.844 -0.0438 -0.2165  0.3205
    3TYR    SC2  287   7.840   3.645   5.078  0.2761  0.1992  0.0465
    3TYR    SC3  288   7.622   3.771   4.978  0.2955  0.1951 -0.0013
    1TYR     BB  289   0.500   6.528   3.796  0.0070  0.0126  0.0277
    1TYR    SC1  290   0.766   6.462   3.649 -0.0965 -0.2660 -0.1728
    1TYR    SC2  291   0.770   6.333   3.412 -0.2581 -0.1965 -0.2153
    1TYR    SC3  292   0.976   6.492   3.482 -0.0831 -0.4286 -0.1869
    2TYR     BB  293   0.210   6.349   3.687 -0.1057 -0.2922 -0.2021
    2TYR    SC1  294   0.125   6.211   3.929  0.0775 -0.2709 -0.3462
    2TYR    SC2  295  -0.031   6.017   4.033  0.1218 -0.1045  0.0524
    2TYR    SC3  296   0.071   6.209   4.193  0.2038  0.1649 -0.3064
    3TYR     BB  297   0.203   6.296   3.404  0.2176 -0.1858 -0.3217
    3TYR    SC1  298   0.389   6.234   3.208 -0.1682 -0.1007 -0.0135
    3TYR    SC2  299   0.550   6.046   3.102 -0.0740 -0.0627  0.0613
    3TYR    SC3  300   0.418   6.216   2.940  0.0983  0.0192  0.0044
    1TYR     BB  301   1.645   1.843   3.735  0.3021  0.0868  0.2767
    1TYR    SC1  302   1.751   1.982   3.515 -0.0775 -0.0330 -0.1165
    1TYR    SC2  303   1.959   2.149   3.469 -0.1319  0.0527 -0.0542
    1TYR    SC3  304   1.789   2.086   3.269  0.0669 -0.1755 -0.1568
    2TYR     BB  305   1.848   1.640   3.863  0.0064  0.0772 -0.0984
    2TYR    SC1  306   2.100   1.843   3.822 -0.1578 -0.2108 -0.3986
    2TYR    SC2  307   2.220   2.084   3.838  0.0157 -0.3065 -0.1988
    2TYR    SC3  308   2.316   1.896   3.670 -0.1194 -0.2392 -0.3544
    3TYR     BB  309   1.704   1.334   3.927 -0.0040 -0.0740 -0.3201
    3TYR    SC1  310   1.847   1.081   3.869 -0.2150 -0.2586  0.0736
    3TYR    SC2  311   2.033   1.043   3.676 -0.3202  0.0049 -0.0865
    3TYR    SC3  312   2.033   0.886   3.896  0.0961  0.0030 -0.0764
    1TYR     BB  313   0.486   5.309   4.284 -0.0688 -0.0556  0.2640
    1TYR    SC1  314   0.627   5.059   4.106  0.0587  0.2660 -0.0281
    1TYR    SC2  315   0.727   4.823   4.020  0.0664  0.1072  0.3855
    1TYR    SC3  316   0.460   4.855   4.045  0.0346  0.2983 -0.0712
    2TYR     BB  317   0.507   5.186   4.580  0.0370  0.0842  0.3307
    2TYR    SC1  318   0.297   5.342   4.720 -0.3453  0.1207 -0.3213
    2TYR    SC2  319   0.138   5.396   4.932  0.0513  0.0097  0.0220
    2TYR    SC3  320   0.278   5.595   4.814 -0.0890  0.0544 -0.0722
    3TYR     BB  321   0.619   4.897   4.556  0.1558 -0.0648 -0.1379
    3TYR    SC1  322   0.890   4.833   4.563 -0.1316  0.0570 -0.0128
    3TYR    SC2  323   1.124   4.817   4.428 -0.1498 -0.0128 -0.0364
    3TYR    SC3  324   1.122   4.794   4.697 -0.1407 -0.1173 -0.0447
    1TYR     BB  325   0.328   1.430   3.942 -0.0437  0.0539 -0.1784
    1TYR    SC1  326   0.090   1.250   3.829 -0.1005  0.3329 -0.0193
    1TYR    SC2  327  -0.180   1.255   3.820 -0.1050  0.0789 -0.0936
    1TYR    SC3  328  -0.039   1.152   3.613  0.0279 -0.2192  0.1342
    2TYR     BB  329   0.377   1.592   3.634  0.0337  0.0192 -0.3134
    2TYR    SC1  330   0.291   1.878   3.582 -0.4887 -0.0213 -0.0227
    2TYR    SC2  331   0.304   2.124   3.692  0.1777 -0.0135 -0.0713
    2TYR    SC3  332   0.190   2.091   3.450  0.3928  0.3235 -0.2287
    3TYR     BB  333   0.698   1.493   3.500  0.0599  0.1925  0.0897
    3TYR    SC1  334   0.607   1.181   3.444  0.2943  0.0032  0.0106
    3TYR    SC2  335   0.598   0.918   3.504 -0.0038  0.0502  0.2036
    3TYR    SC3  336   0.370   1.064   3.502  0.1292  0.2689 -0.0982
    1TYR     BB  337   2.833   3.587   5.000 -0.0007 -0.1049 -0.0344
    1TYR    SC1  338   2.625   3.638   5.212  0.2157  0.0543  0.1588
    1TYR    SC2  339   2.434   3.801   5.313  0.1707  0.1118 -0.0160
    1TYR    SC3  340   2.451   3.545   5.397  0.0492  0.1212  0.0386
    2TYR     BB  341   2.950   3.849   4.888  0.2357  0.2934 -0.2455
    2TYR    SC1  342   2.869   4.049   5.078  0.4161 -0.0031  0.0764
    2TYR    SC2  343   2.839   4.067   5.346  0.1487 -0.2801  0.0718
    2TYR    SC3  344   2.686   4.217   5.182 -0.0063 -0.4318  0.0729
    3TYR     BB  345   3.226   3.877   4.762 -0.0858 -0.4125 -0.2907
    3TYR    SC1  346   3.347   4.056   5.018 -0.1488  0.1965  0.1186
    3TYR    SC2  347   3.304   4.291   5.144  0.0937  0.1243  0.3457
    3TYR    SC3  348   3.309   4.060   5.285  0.0135 -0.0010  0.1483
    1TYR     BB  349   4.058   3.257   4.604  0.3416 -0.0450  0.0186
    1TYR    SC1  350   4.302   3.163   4.576  0.0305  0.0046  0.1273
    1TYR    SC2  351   4.560   3.150   4.496 -0.0673 -0.0458 -0.1984
    1TYR    SC3  352   4.494   3.094   4.752  0.2144 -0.2882 -0.1742
    2TYR     BB  353   3.883   3.195   4.851 -0.1325  0.0400 -0.0610
    2TYR    SC1  354   3.616   3.269   4.977 -0.0930 -0.4232  0.1221
    2TYR    SC2  355   3.425   3.460   4.968  0.1124 -0.2190 -0.1281
    2TYR    SC3  356   3.374   3.223   5.087 -0.2156 -0.0858  0.0112
    3TYR     BB  357   3.913   2.893   4.935  0.1569 -0.0433 -0.1449
    3TYR    SC1  358   3.591   2.786   5.042  0.0231  0.0889 -0.1447
    3TYR    SC2  359   3.603   2.599   5.237  0.1101  0.2206 -0.0210
    3TYR    SC3  360   3.372   2.639   5.102  0.1079 -0.0189 -0.0946
    1TYR     BB  361   3.078   4.740   3.731 -0.1473  0.0323 -0.1750
    1TYR    SC1  362   3.305   4.870   3.798  0.0460  0.0501 -0.2869
    1TYR    SC2  363   3.381   5.128   3.783  0.0849  0.0834  0.2511
    1TYR    SC3  364   3.552   4.942   3.875 -0.1774  0.0006  0.5953
    2TYR     BB  365   2.771   4.975   3.826  0.0094  0.2223 -0.1108
    2TYR    SC1  366   2.926   5.238   3.852 -0.3463  0.0407 -0.0107
    2TYR    SC2  367   3.015   5.446   4.000  0.1230 -0.1102 -0.0589
    2TYR    SC3  368   3.063   5.440   3.735  0.1366 -0.2926 -0.0538
    3TYR     BB  369   2.548   5.002   3.673  0.1989 -0.0201  0.0647
    3TYR    SC1  370   2.603   5.210   3.415  0.2489 -0.0669 -0.0255
    3TYR    SC2  371   2.632   5.380   3.208  0.1999 -0.1143 -0.0716
    3TYR    SC3  372   2.628   5.114   3.165 -0.1155 -0.1174 -0.0489
    1TYR     BB  373   5.119   4.044   3.218  0.4165  0.1205  0.0144
    1TYR    SC1  374   4.854   4.092   3.379 -0.0145  0.2050 -0.0603
    1TYR    SC2  375   4.619   3.961   3.366  0.1413 -0.0564 -0.5982
    1TYR    SC3  376   4.635   4.193   3.502 -0.2783 -0.2991 -0.0834
    2TYR     BB  377   5.319   3.955   3.496  0.0717 -0.1001 -0.0183
    2TYR    SC1  378   5.335   4.267   3.569 -0.1194  0.3353  0.2302
    2TYR    SC2  379   5.468   4.452   3.424  0.0222  0.0568 -0.0094
    2TYR    SC3  380   5.390   4.509   3.676  0.4365  0.2943  0.0779
    3TYR     BB  381   5.488   3.790   3.662 -0.0089 -0.0992  0.1494
    3TYR    SC1  382   5.778   3.757   3.574  0.3054  0.0578 -0.3094
    3TYR    SC2  383   5.910   3.718   3.341  0.3384  0.2450 -0.3238
    3TYR    SC3  384   6.047   3.779   3.566  0.3150 -0.0262 -0.2321
    1TYR     BB  385   6.729   2.722   2.652  0.1495  0.2637  0.1114
    1TYR    SC1  386   6.488   2.531   2.548  0.2612 -0.1342  0.0083
    1TYR    SC2  387   6.357   2.431   2.334  0.1155  0.0763 -0.0047
    1TYR    SC3  388   6.363   2.292   2.566 -0.2795  0.1333  0.0475
    2TYR     BB  389   6.669   3.018   2.656  0.1792 -0.1371  0.4439
    2TYR    SC1  390   6.500   3.107   2.877  0.2402 -0.0236  0.1911
    2TYR    SC2  391   6.377   3.342   2.931 -0.1073 -0.1499 -0.0073
    2TYR    SC3  392   6.457   3.182   3.133  0.3000  0.2101  0.1365
    3TYR     BB  393   6.662   3.226   2.439  0.1181  0.0484 -0.0324
    3TYR    SC1  394   6.476   3.236   2.205  0.1117  0.1981  0.0401
    3TYR    SC2  395   6.443   3.154   1.950 -0.1878 -0.0569  0.1533
    3TYR    SC3  396   6.243   3.286   2.076 -0.1174 -0.1036  0.3167
    1TYR     BB  397  -0.276   4.808   2.316 -0.1692  0.0385 -0.0782
    1TYR    SC1  398  -0.041   4.821   2.163 -0.0308 -0.0027  0.2630
    1TYR    SC2  399  -0.009   4.717   1.916 -0.3848  0.0146  0.2024
    1TYR    SC3  400   0.207   4.799   2.058 -0.1830  0.1031 -0.1404
    2TYR     BB  401  -0.170   4.838   2.642 -0.1370  0.0516  0.0747
    2TYR    SC1  402   0.142   4.923   2.606 -0.1017 -0.2404  0.0754
    2TYR    SC2  403   0.325   5.114   2.548 -0.4104  0.0506  0.0139
    2TYR    SC3  404   0.391   4.852   2.531 -0.0820  0.1430 -0.2667
    3TYR     BB  405  -0.281   4.996   2.856 -0.0547  0.3393  0.1373
    3TYR    SC1  406  -0.299   4.902   3.150  0.1750  0.1659 -0.0441
    3TYR    SC2  407  -0.314   4.996   3.403 -0.1038  0.1526 -0.0510
    3TYR    SC3  408  -0.405   4.748   3.345  0.3442 -0.0155 -0.0914
    1TYR     BB  409   5.704   3.797   4.111  0.0767 -0.0995 -0.0872
    1TYR    SC1  410   5.825   3.549   4.092 -0.0286  0.0958 -0.1369
    1TYR    SC2  411   6.085   3.490   4.050 -0.0614 -0.0789 -0.1046
    1TYR    SC3  412   5.896   3.302   4.012 -0.1467 -0.0748  0.2585
    2TYR     BB  413   6.002   4.006   4.016  0.0175  0.2804  0.1233
    2TYR    SC1  414   5.920   4.158   3.809  0.1202 -0.2892  0.1022
    2TYR    SC2  415   5.858   4.417   3.766  0.0270 -0.2462  0.4523
    2TYR    SC3  416   5.845   4.239   3.564  0.2779  0.0537  0.1590
    3TYR     BB  417   6.212   4.189   4.182  0.0169  0.0358  0.0522
    3TYR    SC1  418   6.440   3.969   4.230  0.3225  0.0797 -0.2950
    3TYR    SC2  419   6.509   3.708   4.238 -0.0081 -0.0114  0.2811
    3TYR    SC3  420   6.607   3.879   4.421  0.1537  0.2671 -0.0510
    1TYR     BB  421   7.708   4.063   4.129  0.4521 -0.0961  0.0722
    1TYR    SC1  422   7.967   4.162   4.244  0.1141  0.3251  0.1355
    1TYR    SC2  423   8.214   4.074   4.311  0.1775  0.4275  0.0415
    1TYR    SC3  424   8.178   4.329   4.228  0.0517  0.3916 -0.0179
    2TYR     BB  425   7.678   4.065   3.812  0.1761  0.1519  0.1471
    2TYR    SC1  426   7.884   4.322   3.760 -0.1344  0.1422  0.0662
    2TYR    SC2  427   7.937   4.568   3.663 -0.0614 -0.0203 -0.3264
    2TYR    SC3  428   8.125   4.435   3.803 -0.0172  0.0554 -0.3134
    3TYR     BB  429   7.812   3.845   3.661  0.2338  0.1072 -0.0099
    3TYR    SC1  430   7.719   3.809   3.392 -0.1396 -0.8900  0.0958
    3TYR    SC2  431   7.528   3.842   3.205 -0.1338 -0.0402  0.1939
    3TYR    SC3  432   7.774   3.756   3.133 -0.2534 -0.1477 -0.1091
    1TYR     BB  433   5.492   4.137   5.145 -0.1229 -0.1101 -0.1373
    1TYR    SC1  434   5.311   4.125   4.961  0.0751  0.2551 -0.4132
    1TYR    SC2  435   5.130   4.236   4.793 -0.3953  0.0619 -0.0598
    1TYR    SC3  436   5.096   3.982   4.881  0.0876 -0.0007 -0.0196
    2TYR     BB  437   5.689   3.957   5.264 -0.0625  0.4642  0.0948
    2TYR    SC1  438   5.816   3.743   5.078 -0.1243 -0.0120 -0.2348
    2TYR    SC2  439   5.740   3.485   5.053 -0.3846  0.0426 -0.0518
    2TYR    SC3  440   5.986   3.561   4.973 -0.2904 -0.2682 -0.0732
    3TYR     BB  441   5.614   3.765   5.509  0.0127  0.2748  0.0386
    3TYR    SC1  442   5.594   3.486   5.475  0.0071  0.0801  0.1997
    3TYR    SC2  443   5.548   3.221   5.495 -0.1075  0.1139  0.4302
    3TYR    SC3  444   5.801   3.315   5.510  0.0018 -0.0227 -0.2198
    1TYR     BB  445   6.948   6.013   5.509 -0.0038  0.0051 -0.3207
    1TYR    SC1  446   6.714   6.033   5.738  0.3223 -0.1576 -0.1151
    1TYR    SC2  447   6.497   5.916   5.848  0.1530  0.2187 -0.0262
    1TYR    SC3  448   6.701   5.996   6.005  0.1575  0.2645 -0.0557
    2TYR     BB  449   7.085   6.287   5.608 -0.0906  0.1259  0.0619
    2TYR    SC1  450   7.301   6.352   5.375  0.2054 -0.2751  0.0244
    2TYR    SC2  451   7.382   6.439   5.133  0.1800  0.0717  0.1344
    2TYR    SC3  452   7.565   6.360   5.315  0.2114 -0.0039  0.0705
    3TYR     BB  453   7.078   6.427   5.843 -0.1556 -0.0358 -0.1260
    3TYR    SC1  454   6.781   6.498   5.974 -0.1130  0.0353  0.4281
    3TYR    SC2  455   6.618   6.583   6.172 -0.2894  0.1223  0.2498
    3TYR    SC3  456   6.513   6.492   5.941 -0.0870 -0.0108  0.2072
    1TYR     BB  457   5.427   5.227   5.020  0.3765  0.0316 -0.0672
    1TYR    SC1  458   5.136   5.176   5.184 -0.0013  0.2889 -0.0204
    1TYR    SC2  459   4.866   5.193   5.198 -0.0199 -0.0722  0.1907
    1TYR    SC3  460   5.018   5.269   5.408  0.0441  0.0941  0.0868
    2TYR     BB  461   5.468   5.057   4.741  0.1792 -0.2167  0.1095
    2TYR    SC1  462   5.495   4.770   4.668 -0.2370  0.0353 -0.1422
    2TYR    SC2  463   5.457   4.521   4.573  0.2831 -0.1252  0.0296
    2TYR    SC3  464   5.496   4.561   4.837  0.0553  0.1625  0.0249
    3TYR     BB  465   5.277   5.189   4.495  0.1286 -0.0244 -0.0614
    3TYR    SC1  466   5.417   5.498   4.453  0.0034  0.0637 -0.2586
    3TYR    SC2  467   5.671   5.559   4.382 -0.0492  0.3076 -0.2472
    3TYR    SC3  468   5.508   5.751   4.481 -0.1398  0.0858  0.0523
    1TYR     BB  469   7.554   3.407   1.618  0.1339  0.0298 -0.1079
    1TYR    SC1  470   7.345   3.568   1.455 -0.1629 -0.0838 -0.2734
    1TYR    SC2  471   7.147   3.749   1.488  0.0760  0.1442 -0.0277
    1TYR    SC3  472   7.231   3.684   1.240 -0.0686  0.3091 -0.1227
    2TYR     BB  473   7.644   3.265   1.894 -0.1241 -0.1900  0.0507
    2TYR    SC1  474   7.926   3.159   1.795  0.2128  0.2254  0.3025
    2TYR    SC2  475   8.120   3.306   1.680  0.2555  0.0121  0.0916
    2TYR    SC3  476   8.185   3.097   1.837  0.1999 -0.1010 -0.0335
    3TYR     BB  477   7.488   3.138   2.166  0.2699  0.0197  0.0673
    3TYR    SC1  478   7.375   3.200   2.416  0.2473  0.1284 -0.0489
    3TYR    SC2  479   7.378   3.221   2.684  0.1443 -0.1225 -0.0241
    3TYR    SC3  480   7.148   3.161   2.556  0.2033 -0.0544 -0.1656
    1TYR     BB  481   2.357   2.285   4.282  0.2608  0.2951  0.1444
    1TYR    SC1  482   2.144   2.062   4.360  0.0895 -0.1116  0.3649
    1TYR    SC2  483   2.018   1.829   4.308 -0.0235  0.0485 -0.1569
    1TYR    SC3  484   1.911   2.005   4.482 -0.0677 -0.1745  0.0477
    2TYR     BB  485   2.591   2.057   4.196 -0.3493 -0.1002 -0.0467
    2TYR    SC1  486   2.480   1.791   4.285 -0.0474  0.1534  0.2307
    2TYR    SC2  487   2.379   1.545   4.335 -0.0826  0.2371  0.6074
    2TYR    SC3  488   2.410   1.722   4.537 -0.1653  0.5865  0.3264
    3TYR     BB  489   2.780   2.093   3.900  0.0243  0.0748  0.0962
    3TYR    SC1  490   3.059   2.126   3.966  0.0976  0.1535  0.0110
    3TYR    SC2  491   3.266   2.281   4.040  0.0382  0.1795  0.1251
    3TYR    SC3  492   3.311   2.055   3.898  0.1472  0.1681  0.1755
    1TYR     BB  493   5.874   4.957   3.879  0.2934 -0.1313 -0.2433
    1TYR    SC1  494   6.006   5.076   3.641 -0.2642 -0.1513  0.0982
    1TYR    SC2  495   6.067   5.130   3.384  0.0372 -0.3398  0.1244
    1TYR    SC3  496   6.008   5.332   3.554  0.2787 -0.1721  0.0152
    2TYR     BB  497   5.896   5.125   4.091 -0.3340  0.2259  0.0837
    2TYR    SC1  498   6.082   5.385   4.076  0.1267  0.0189  0.2697
    2TYR    SC2  499   6.054   5.652   4.050  0.0104 -0.0205 -0.0581
    2TYR    SC3  500   6.297   5.539   4.019  0.0044  0.0155 -0.2505
    3TYR     BB  501   5.837   5.092   4.437  0.1059 -0.0930  0.3152
    3TYR    SC1  502   5.949   4.814   4.459  0.4455  0.1450 -0.0058
    3TYR    SC2  503   5.992   4.586   4.320 -0.0834  0.0496 -0.0393
    3TYR    SC3  504   5.911   4.574   4.578  0.0386  0.2075  0.0085
    1TYR     BB  505   8.420   3.334   4.169  0.0982  0.0650 -0.1304
    1TYR    SC1  506   8.436   3.306   3.891  0.0136 -0.1732 -0.1125
    1TYR    SC2  507   8.530   3.397   3.654  0.1223 -0.2255 -0.0903
    1TYR    SC3  508   8.472   3.135   3.684  0.3967 -0.2765  0.0295
    2TYR     BB  509   8.082   3.212   4.343 -0.0925 -0.2699  0.0655
    2TYR    SC1  510   7.925   3.149   4.099 -0.0298 -0.1795  0.1492
    2TYR    SC2  511   7.741   3.034   3.938 -0.2118 -0.1773  0.3490
    2TYR    SC3  512   8.003   2.977   3.904 -0.2242 -0.0479 -0.0516
    3TYR     BB  513   8.119   3.144   4.563  0.2331  0.0518 -0.0757
    3TYR    SC1  514   8.221   2.918   4.765  0.1863  0.1149  0.0041
    3TYR    SC2  515   8.345   2.704   4.873  0.2223  0.0373 -0.1837
    3TYR    SC3  516   8.085   2.688   4.801  0.1499  0.1420  0.0400
    1TYR     BB  517   7.103   3.598   2.254 -0.0493  0.0715  0.0174
    1TYR    SC1  518   7.149   3.861   2.419  0.6087  0.3338 -0.0459
    1TYR    SC2  519   7.045   4.096   2.500 -0.0931  0.0504 -0.0331
    1TYR    SC3  520   7.242   3.980   2.642 -0.1327  0.3560  0.2904
    2TYR     BB  521   7.222   3.592   1.995 -0.1201  0.0883  0.2243
    2TYR    SC1  522   6.968   3.525   1.815 -0.1255  0.0964 -0.1633
    2TYR    SC2  523   6.791   3.402   1.652 -0.0320 -0.1600 -0.0783
    2TYR    SC3  524   6.703   3.550   1.860 -0.1486 -0.2726 -0.0456
    3TYR     BB  525   7.495   3.751   1.944 -0.3590 -0.0784  0.0696
    3TYR    SC1  526   7.527   3.981   2.144 -0.5844  0.1351 -0.0348
    3TYR    SC2  527   7.611   4.074   2.383  0.0863 -0.0950 -0.1543
    3TYR    SC3  528   7.541   4.246   2.187 -0.3088  0.0970  0.1382
    1TYR     BB  529   2.107   4.654   4.409  0.1037 -0.1663 -0.0026
    1TYR    SC1  530   2.269   4.445   4.327  0.2479  0.2375 -0.4232
    1TYR    SC2  531   2.366   4.278   4.137  0.1273 -0.1218 -0.1800
    1TYR    SC3  532   2.374   4.207   4.398 -0.1994  0.1225 -0.0934
    2TYR     BB  533   2.163   4.958   4.228 -0.2702  0.1043 -0.0231
    2TYR    SC1  534   2.480   5.095   4.222  0.1333 -0.1873 -0.1773
    2TYR    SC2  535   2.707   5.223   4.292  0.0211 -0.0555 -0.0456
    2TYR    SC3  536   2.513   5.356   4.161 -0.0794 -0.1012  0.0549
    3TYR     BB  537   2.000   5.044   4.069 -0.0443 -0.3784  0.2652
    3TYR    SC1  538   1.956   5.358   4.167 -0.0799  0.2689  0.0663
    3TYR    SC2  539   2.128   5.545   4.260  0.0401  0.2530 -0.1152
    3TYR    SC3  540   1.884   5.617   4.170  0.0772  0.3196 -0.1630
    1TYR     BB  541   3.699   2.452   4.185  0.1769 -0.0820  0.0361
    1TYR    SC1  542   3.967   2.476   4.094 -0.0835 -0.0432 -0.0779
    1TYR    SC2  543   4.210   2.407   4.001  0.0839  0.1695  0.1772
    1TYR    SC3  544   4.088   2.629   3.908  0.0718  0.1669  0.1866
    2TYR     BB  545   3.645   2.446   4.469  0.3182  0.1486 -0.1561
    2TYR    SC1  546   3.844   2.508   4.675  0.0437  0.2214 -0.0175
    2TYR    SC2  547   3.844   2.410   4.926 -0.1605 -0.0830 -0.1275
    2TYR    SC3  548   4.072   2.406   4.780 -0.0090  0.2080  0.0853
    3TYR     BB  549   3.317   2.425   4.583  0.0302 -0.2514  0.1807
    3TYR    SC1  550   3.273   2.697   4.683  0.1387 -0.2415  0.2505
    3TYR    SC2  551   3.140   2.901   4.799  0.2391 -0.2330  0.3521
    3TYR    SC3  552   3.389   2.939   4.702 -0.0426 -0.0775 -0.3989
    1TYR     BB  553   1.583   4.762   4.084 -0.0779 -0.0180  0.0144
    1TYR    SC1  554   1.687   4.466   4.124 -0.0110 -0.1697  0.0640
    1TYR    SC2  555   1.796   4.246   4.234 -0.0997 -0.1152  0.2673
    1TYR    SC3  556   1.586   4.222   4.065  0.0821 -0.2047  0.0478
    2TYR     BB  557   1.287   4.720   3.901 -0.2804 -0.0689 -0.3550
    2TYR    SC1  558   1.208   5.020   3.836 -0.2726 -0.2066 -0.3909
    2TYR    SC2  559   0.970   5.144   3.855 -0.1547  0.0505 -0.5124
    2TYR    SC3  560   1.169   5.260   3.716  0.2048  0.0949  0.0084
    3TYR     BB  561   1.119   4.507   3.975  0.0788  0.0562  0.0502
    3TYR    SC1  562   1.124   4.267   4.139 -0.0846 -0.1153  0.0096
    3TYR    SC2  563   0.934   4.077   4.149 -0.1396 -0.0517  0.2049
    3TYR    SC3  564   1.092   4.122   4.363 -0.1387  0.1324  0.1671
    1TYR     BB  565   3.972   4.084   4.020 -0.2349 -0.0141 -0.2470
    1TYR    SC1  566   3.752   3.918   3.823  0.1233 -0.1449  0.1251
    1TYR    SC2  567   3.558   3.881   3.640  0.2162  0.1167 -0.0331
    1TYR    SC3  568   3.766   3.710   3.652 -0.0496 -0.2059  0.1831
    2TYR     BB  569   4.256   4.166   3.822  0.0212  0.2109  0.2187
    2TYR    SC1  570   4.157   4.024   3.552  0.1822  0.2780 -0.0903
    2TYR    SC2  571   4.049   4.054   3.307 -0.0870  0.0246 -0.0105
    2TYR    SC3  572   4.125   3.809   3.391  0.2752  0.1522  0.0554
    3TYR     BB  573   4.451   4.457   3.845  0.2267  0.1055  0.0683
    3TYR    SC1  574   4.402   4.513   4.178 -0.0634 -0.1554  0.0859
    3TYR    SC2  575   4.516   4.548   4.421  0.1404  0.0799 -0.0383
    3TYR    SC3  576   4.270   4.647   4.371  0.0445 -0.0786  0.1079
    1TYR     BB  577   3.245   1.560   4.126  0.2287  0.1140  0.0015
    1TYR    SC1  578   3.331   1.496   4.389 -0.0424 -0.0148 -0.1358
    1TYR    SC2  579   3.416   1.262   4.492  0.1905  0.0949 -0.0718
    1TYR    SC3  580   3.483   1.495   4.612  0.0141  0.1987 -0.1701
    2TYR     BB  581   2.920   1.633   4.146  0.1111 -0.3527 -0.3054
    2TYR    SC1  582   2.835   1.409   4.368 -0.1406 -0.0199 -0.1400
    2TYR    SC2  583   2.672   1.257   4.520 -0.1597 -0.1837 -0.3195
    2TYR    SC3  584   2.939   1.219   4.528 -0.1480 -0.0874 -0.2147
    3TYR     BB  585   2.790   1.552   3.901  0.0916 -0.0899 -0.2935
    3TYR    SC1  586   2.528   1.436   3.860 -0.0706 -0.0956  0.1210
    3TYR    SC2  587   2.265   1.392   3.898 -0.1306  0.0849 -0.0640
    3TYR    SC3  588   2.359   1.441   3.649  0.0904 -0.0513 -0.0102
    1TYR     BB  589   0.794   1.968   3.579  0.0586 -0.0156 -0.1547
    1TYR    SC1  590   0.725   1.911   3.923 -0.0831  0.3471  0.0370
    1TYR    SC2  591   0.514   1.857   4.082  0.1536 -0.3514  0.1566
    1TYR    SC3  592   0.708   2.025   4.168 -0.1787  0.0445  0.1761
    2TYR     BB  593   1.085   2.037   3.548  0.0844 -0.1916 -0.2817
    2TYR    SC1  594   1.206   2.131   3.821  0.1407  0.0593  0.1812
    2TYR    SC2  595   1.200   2.296   4.034  0.2866  0.1100  0.1481
    2TYR    SC3  596   1.180   2.029   4.069 -0.1511  0.1383  0.1877
    3TYR     BB  597   1.269   1.925   3.381 -0.0637 -0.0316 -0.1274
    3TYR    SC1  598   1.085   1.671   3.221 -0.2331  0.0128  0.0742
    3TYR    SC2  599   1.024   1.591   2.971  0.0048 -0.0693  0.0387
    3TYR    SC3  600   1.077   1.408   3.163  0.5139 -0.0165 -0.0337
    1TYR     BB  601   6.988   3.116   2.078 -0.3446  0.3619  0.0331
    1TYR    SC1  602   7.122   3.114   1.802 -0.2732 -0.5632 -0.1643
    1TYR    SC2  603   7.131   3.151   1.535  0.3038  0.0694 -0.0943
    1TYR    SC3  604   7.275   2.952   1.649  0.1653 -0.1159 -0.2339
    2TYR     BB  605   6.952   2.853   2.209 -0.1979 -0.0176 -0.1454
    2TYR    SC1  606   7.210   2.729   2.325 -0.0910 -0.0926 -0.0875
    2TYR    SC2  607   7.435   2.789   2.461 -0.1408  0.1382 -0.1008
    2TYR    SC3  608   7.410   2.547   2.342 -0.0552 -0.0305  0.2096
    3TYR     BB  609   6.649   2.795   2.147  0.1741  0.2938 -0.1451
    3TYR    SC1  610   6.673   2.796   1.832 -0.1223 -0.0544  0.0544
    3TYR    SC2  611   6.776   2.864   1.592  0.3709 -0.1342  0.2295
    3TYR    SC3  612   6.683   2.614   1.633 -0.0146 -0.0328  0.0399
    1TYR     BB  613   8.087   3.031   3.341 -0.0978 -0.1090  0.0801
    1TYR    SC1  614   7.824   2.920   3.432  0.1594 -0.1014 -0.1670
    1TYR    SC2  615   7.573   2.910   3.533  0.2745  0.1332  0.1673
    1TYR    SC3  616   7.712   2.682   3.496 -0.2732 -0.1136 -0.8515
    2TYR     BB  617   7.999   3.411   3.525 -0.2083 -0.0443  0.0893
    2TYR    SC1  618   8.188   3.602   3.389  0.1053 -0.2500 -0.2208
    2TYR    SC2  619   8.327   3.826   3.447  0.0123 -0.2431 -0.0159
    2TYR    SC3  620   8.385   3.686   3.224  0.3075 -0.2080  0.0335
    3TYR     BB  621   7.720   3.370   3.566  0.2096 -0.1543  0.0665
    3TYR    SC1  622   7.535   3.376   3.298  0.0652 -0.3275  0.1337
    3TYR    SC2  623   7.388   3.400   3.074 -0.2702 -0.0025  0.3731
    3TYR    SC3  624   7.410   3.160   3.195 -0.4520 -0.0945  0.2313
    1TYR     BB  625   5.156   4.954   3.210  0.0081  0.0590  0.2611
    1TYR    SC1  626   5.187   4.731   2.993  0.1687  0.0688 -0.2817
    1TYR    SC2  627   5.288   4.481   3.016  0.0402  0.0373 -0.0209
    1TYR    SC3  628   5.188   4.565   2.780  0.0281 -0.1801 -0.0954
    2TYR     BB  629   5.501   4.918   3.292  0.0909  0.2570  0.0473
    2TYR    SC1  630   5.621   4.774   3.085 -0.0400  0.1156  0.3499
    2TYR    SC2  631   5.608   4.745   2.816 -0.0526  0.1905  0.3423
    2TYR    SC3  632   5.763   4.580   2.962 -0.0035  0.1839  0.2830
    3TYR     BB  633   5.558   5.111   3.501 -0.0510 -0.1337 -0.0634
    3TYR    SC1  634   5.627   5.385   3.336 -0.1443  0.0129 -0.0686
    3TYR    SC2  635   5.607   5.651   3.381  0.2307  0.0415 -0.0349
    3TYR    SC3  636   5.738   5.560   3.163  0.0856 -0.1185 -0.0583
    1TYR     BB  637   1.368   4.423   3.120  0.2901 -0.2381 -0.0328
    1TYR    SC1  638   1.089   4.295   3.119  0.1770  0.0199  0.1128
    1TYR    SC2  639   0.849   4.201   3.199  0.1327 -0.0284 -0.0692
    1TYR    SC3  640   0.893   4.254   2.938  0.2545  0.1761 -0.0110
    2TYR     BB  641   1.296   4.654   2.865  0.0937 -0.1531 -0.0021
    2TYR    SC1  642   1.116   4.568   2.634 -0.0742  0.2869 -0.3724
    2TYR    SC2  643   0.864   4.518   2.551 -0.0693 -0.3456 -0.0800
    2TYR    SC3  644   1.070   4.493   2.379 -0.1713 -0.1638 -0.2334
    3TYR     BB  645   1.293   4.988   2.862  0.1342 -0.2839  0.3047
    3TYR    SC1  646   1.157   5.108   3.072  0.0988 -0.1195  0.1601
    3TYR    SC2  647   1.023   5.193   3.290  0.2773  0.1662  0.1631
    3TYR    SC3  648   1.069   5.362   3.084  0.4044 -0.0019  0.0497
    1TYR     BB  649   4.944   4.406   3.918 -0.0543  0.0961  0.0457
    1TYR    SC1  650   4.931   4.541   3.674  0.2210 -0.0072  0.1890
    1TYR    SC2  651   4.964   4.516   3.408 -0.2877 -0.2380  0.1325
    1TYR    SC3  652   4.792   4.699   3.505  0.1932  0.1320  0.3389
    2TYR     BB  653   4.925   4.405   4.180 -0.3665  0.0971  0.1485
    2TYR    SC1  654   5.053   4.185   4.313  0.1272  0.2917 -0.0044
    2TYR    SC2  655   5.281   4.068   4.396 -0.0394 -0.0728 -0.0389
    2TYR    SC3  656   5.045   3.944   4.433 -0.2089  0.1811 -0.2334
    3TYR     BB  657   5.066   4.737   4.301 -0.0024 -0.1798  0.7378
    3TYR    SC1  658   5.047   4.711   4.587  0.1267  0.0106 -0.0087
    3TYR    SC2  659   4.989   4.837   4.819 -0.1391 -0.2279  0.0612
    3TYR    SC3  660   4.837   4.628   4.736 -0.2924  0.0852 -0.5183
    1TYR     BB  661   6.261   4.877   4.854  0.0017  0.1827 -0.0259
    1TYR    SC1  662   6.324   4.673   4.674  0.0418 -0.0838  0.1049
    1TYR    SC2  663   6.544   4.647   4.520  0.0723 -0.0769  0.1471
    1TYR    SC3  664   6.378   4.438   4.555 -0.0700 -0.0098 -0.0985
    2TYR     BB  665   6.008   4.975   4.919  0.0398 -0.0189  0.1642
    2TYR    SC1  666   5.967   5.293   4.841 -0.1994  0.1203  0.0584
    2TYR    SC2  667   5.783   5.488   4.811 -0.3407 -0.0443 -0.1910
    2TYR    SC3  668   6.010   5.494   4.666 -0.0007  0.3089  0.3139
    3TYR     BB  669   5.797   4.884   5.057 -0.0012  0.1164 -0.0353
    3TYR    SC1  670   5.718   4.984   5.338 -0.2306  0.0125 -0.2666
    3TYR    SC2  671   5.515   5.063   5.496 -0.0439  0.2075 -0.1186
    3TYR    SC3  672   5.738   4.956   5.605 -0.0582  0.0096 -0.2777
    1TYR     BB  673   6.203   2.471   3.576 -0.0429 -0.1845 -0.0444
    1TYR    SC1  674   6.321   2.516   3.856  0.0463 -0.0394 -0.0101
    1TYR    SC2  675   6.304   2.594   4.114  0.0322  0.1532 -0.0672
    1TYR    SC3  676   6.444   2.373   4.049 -0.3093 -0.1398  0.1513
    2TYR     BB  677   6.092   2.802   3.463  0.0942 -0.0715  0.2455
    2TYR    SC1  678   6.124   2.741   3.161  0.2511  0.0696 -0.0604
    2TYR    SC2  679   6.221   2.530   3.025 -0.0500 -0.2386  0.1774
    2TYR    SC3  680   6.209   2.773   2.907 -0.2958 -0.4842 -0.3477
    3TYR     BB  681   5.881   2.926   3.688 -0.2017  0.2133  0.4034
    3TYR    SC1  682   5.938   2.762   3.941 -0.1156  0.0795  0.3120
    3TYR    SC2  683   5.856   2.531   4.056 -0.0543 -0.0335  0.1334
    3TYR    SC3  684   5.855   2.760   4.197 -0.0321 -0.1588  0.3416
    1TYR     BB  685   3.265   4.381   4.140 -0.0342  0.0798  0.3973
    1TYR    SC1  686   3.257   4.388   4.414  0.1983 -0.3280 -0.0633
    1TYR    SC2  687   3.110   4.363   4.640 -0.1607  0.0940 -0.2286
    1TYR    SC3  688   3.327   4.525   4.636 -0.0157 -0.0918 -0.1352
    2TYR     BB  689   3.529   4.405   4.006  0.2060  0.0692  0.1900
    2TYR    SC1  690   3.543   4.405   3.686  0.0641  0.4384 -0.0030
    2TYR    SC2  691   3.519   4.352   3.423 -0.1017 -0.2100  0.1185
    2TYR    SC3  692   3.724   4.248   3.564 -0.3702 -0.4307  0.3595
    3TYR     BB  693   3.753   4.586   4.089 -0.2334 -0.2863 -0.1010
    3TYR    SC1  694   3.747   4.708   4.414  0.1061  0.0448  0.0211
    3TYR    SC2  695   3.921   4.850   4.564 -0.0477 -0.0557  0.3057
    3TYR    SC3  696   3.799   4.633   4.669 -0.2400 -0.0694  0.0650
    1TYR     BB  697   8.020   3.011   2.366 -0.0228  0.0571 -0.2293
    1TYR    SC1  698   8.233   2.998   2.587  0.1330  0.0753 -0.2141
    1TYR    SC2  699   8.230   3.001   2.857  0.2879  0.2253 -0.2117
    1TYR    SC3  700   8.400   3.161   2.722  0.1314  0.2373 -0.4019
    2TYR     BB  701   7.880   3.320   2.427 -0.3124  0.1376 -0.3217
    2TYR    SC1  702   7.941   3.312   2.783 -0.0506 -0.1908 -0.0531
    2TYR    SC2  703   7.843   3.257   3.029  0.1068 -0.1188  0.0283
    2TYR    SC3  704   8.074   3.394   3.003  0.0244 -0.0094 -0.1627
    3TYR     BB  705   7.896   3.447   2.250 -0.2086 -0.1471 -0.3432
    3TYR    SC1  706   7.986   3.753   2.154 -0.0764 -0.0694  0.0326
    3TYR    SC2  707   8.005   4.021   2.132 -0.1026 -0.0751 -0.0619
    3TYR    SC3  708   8.209   3.864   2.053 -0.0318 -0.0773  0.1216
    1TYR     BB  709   1.100   3.605   4.342 -0.1286 -0.2178  0.0463
    1TYR    SC1  710   0.964   3.573   4.045 -0.3674 -0.0777  0.2161
    1TYR    SC2  711   0.789   3.403   3.932 -0.4273  0.1154  0.0081
    1TYR    SC3  712   0.950   3.554   3.776 -0.2259  0.0966  0.1932
    2TYR     BB  713   1.405   3.788   4.212  0.0590  0.0120  0.4499
    2TYR    SC1  714   1.706   3.754   4.337  0.0527 -0.1722 -0.0433
    2TYR    SC2  715   1.865   3.661   4.534  0.0945 -0.1525 -0.0676
    2TYR    SC3  716   1.947   3.867   4.381  0.0835 -0.2002 -0.1385
    3TYR     BB  717   1.354   3.817   3.919 -0.0768 -0.0680  0.2769
    3TYR    SC1  718   1.179   4.032   3.780  0.0769  0.1090 -0.1732
    3TYR    SC2  719   0.950   4.007   3.639  0.0961 -0.1575 -0.1624
    3TYR    SC3  720   1.168   4.116   3.523  0.0176 -0.0732 -0.2322
    1TYR     BB  721   5.927   4.334   5.006 -0.2091  0.0366  0.1959
    1TYR    SC1  722   5.845   4.145   4.784  0.1542 -0.0917  0.1413
    1TYR    SC2  723   5.850   4.056   4.529  0.0637  0.0706  0.0806
    1TYR    SC3  724   5.614   4.113   4.646  0.1136  0.1246  0.1556
    2TYR     BB  725   6.106   4.500   5.124  0.0428 -0.0875 -0.2431
    2TYR    SC1  726   6.121   4.661   5.410 -0.3604 -0.1394  0.0725
    2TYR    SC2  727   6.322   4.735   5.575 -0.1533 -0.0856 -0.1961
    2TYR    SC3  728   6.088   4.646   5.678  0.0283 -0.2123  0.1228
    3TYR     BB  729   6.426   4.476   5.108  0.0997  0.1809  0.0138
    3TYR    SC1  730   6.607   4.422   5.362 -0.1081 -0.3410 -0.1579
    3TYR    SC2  731   6.667   4.341   5.613  0.1908  0.1409 -0.0555
    3TYR    SC3  732   6.834   4.283   5.408 -0.0852 -0.3081 -0.1706
    1TYR     BB  733   6.927   4.892   3.741  0.0308 -0.0894 -0.1543
    1TYR    SC1  734   6.927   5.191   3.738  0.1109  0.1147  0.2164
    1TYR    SC2  735   6.929   5.451   3.812 -0.0563  0.2681 -0.2724
    1TYR    SC3  736   7.091   5.366   3.613  0.1667 -0.0619  0.0355
    2TYR     BB  737   6.687   4.769   3.637  0.1067  0.1870  0.1232
    2TYR    SC1  738   6.472   4.682   3.862 -0.0376 -0.3471  0.0446
    2TYR    SC2  739   6.215   4.607   3.905 -0.1153 -0.1852 -0.1221
    2TYR    SC3  740   6.384   4.640   4.114 -0.1904 -0.4265 -0.0205
    3TYR     BB  741   6.527   5.004   3.435  0.3978 -0.2053 -0.4465
    3TYR    SC1  742   6.547   4.996   3.153 -0.1662  0.3579  0.0719
    3TYR    SC2  743   6.450   4.959   2.904  0.1755  0.2433 -0.0522
    3TYR    SC3  744   6.709   4.903   2.957  0.0642  0.0871  0.3754
    1TYR     BB  745   0.111   4.168   3.421  0.2368 -0.0210 -0.1468
    1TYR    SC1  746  -0.167   4.080   3.616  0.0751 -0.3208 -0.0592
    1TYR    SC2  747  -0.259   4.096   3.870 -0.1724  0.0531 -0.1620
    1TYR    SC3  748  -0.397   3.955   3.685 -0.2012  0.0982 -0.1751
    2TYR     BB  749   0.376   4.195   3.746  0.1560 -0.1908 -0.0561
    2TYR    SC1  750   0.176   4.380   3.959  0.2973 -0.0484  0.2292
    2TYR    SC2  751   0.105   4.622   4.054 -0.0200 -0.0521  0.0197
    2TYR    SC3  752   0.036   4.399   4.189  0.0440 -0.0368  0.0786
    3TYR     BB  753   0.625   4.367   3.832 -0.1426 -0.3750  0.2587
    3TYR    SC1  754   0.590   4.385   4.108 -0.0264 -0.0608 -0.1460
    3TYR    SC2  755   0.488   4.479   4.341 -0.3742  0.1047 -0.3555
    3TYR    SC3  756   0.755   4.452   4.312 -0.3029  0.4110 -0.0560
    1TYR     BB  757   4.270   3.223   5.213  0.2682 -0.1732  0.2638
    1TYR    SC1  758   3.991   3.193   5.405 -0.0774 -0.2339 -0.2074
    1TYR    SC2  759   3.732   3.141   5.349 -0.0791 -0.2821 -0.1550
    1TYR    SC3  760   3.835   3.075   5.591 -0.1706  0.2550  0.0467
    2TYR     BB  761   4.191   3.579   5.079 -0.0372  0.1455  0.1791
    2TYR    SC1  762   3.939   3.667   5.190 -0.0369 -0.0286 -0.0691
    2TYR    SC2  763   3.721   3.625   5.345 -0.1045 -0.1668 -0.1993
    2TYR    SC3  764   3.748   3.856   5.210  0.0902  0.0756  0.2323
    3TYR     BB  765   4.343   3.625   4.874  0.2042  0.1197  0.3414
    3TYR    SC1  766   4.595   3.541   4.723 -0.1304  0.3856  0.1712
    3TYR    SC2  767   4.864   3.556   4.711 -0.1103  0.2423  0.3803
    3TYR    SC3  768   4.715   3.641   4.503  0.1080  0.0135  0.1196
    1TYR     BB  769  -0.655   5.138   3.756  0.2820 -0.2531 -0.0326
    1TYR    SC1  770  -0.969   5.226   3.732  0.0737  0.0314  0.2969
    1TYR    SC2  771  -1.209   5.237   3.609  0.2040  0.0810  0.0393
    1TYR    SC3  772  -1.170   5.064   3.812 -0.1145  0.2283  0.2377
    2TYR     BB  773  -0.416   5.277   3.878 -0.3660  0.0853 -0.0318
    2TYR    SC1  774  -0.106   5.159   3.772 -0.0346  0.1166 -0.0802
    2TYR    SC2  775   0.099   5.169   3.597 -0.0269 -0.3470 -0.1142
    2TYR    SC3  776   0.137   5.070   3.844 -0.1010  0.0520  0.0680
    3TYR     BB  777  -0.287   5.604   3.925  0.0499  0.2140  0.3785
    3TYR    SC1  778  -0.472   5.831   4.052  0.1838  0.0599 -0.2329
    3TYR    SC2  779  -0.494   5.939   4.299 -0.0876 -0.0725 -0.1942
    3TYR    SC3  780  -0.641   6.037   4.096  0.1594  0.0581 -0.3168
    1TYR     BB  781   1.584   5.366   3.028 -0.0387 -0.0458 -0.0550
    1TYR    SC1  782   1.760   5.616   2.931 -0.0090  0.1597  0.0042
    1TYR    SC2  783   1.946   5.809   2.961 -0.0480  0.1949  0.0204
    1TYR    SC3  784   1.963   5.635   2.755 -0.0452  0.2520 -0.0277
    2TYR     BB  785   1.561   5.372   3.319 -0.3601  0.0539  0.0916
    2TYR    SC1  786   1.472   5.102   3.387 -0.3628  0.2513  0.2430
    2TYR    SC2  787   1.336   4.870   3.364  0.3475 -0.1809 -0.0380
    2TYR    SC3  788   1.549   4.885   3.528 -0.0156  0.4866  0.4335
    3TYR     BB  789   1.347   5.608   3.450 -0.1386 -0.3588  0.0671
    3TYR    SC1  790   1.399   5.662   3.712  0.2719  0.0099  0.1551
    3TYR    SC2  791   1.269   5.654   3.948  0.0564 -0.2524  0.0351
    3TYR    SC3  792   1.524   5.740   3.937 -0.0179  0.0274  0.3167
    1TYR     BB  793   6.767   4.196   4.793  0.2515  0.4592  0.3004
    1TYR    SC1  794   6.692   4.008   5.051  0.4663  0.0852  0.1307
    1TYR    SC2  795   6.552   3.951   5.275 -0.1238 -0.0729 -0.2496
    1TYR    SC3  796   6.777   3.813   5.217  0.1070  0.0512  0.2850
    2TYR     BB  797   6.870   4.272   4.558  0.1478  0.1187  0.2195
    2TYR    SC1  798   7.151   4.370   4.488  0.0420 -0.1172  0.2368
    2TYR    SC2  799   7.305   4.589   4.458 -0.0058 -0.0896  0.1921
    2TYR    SC3  800   7.382   4.355   4.347 -0.2206  0.0294 -0.2370
    3TYR     BB  801   6.783   4.321   4.198 -0.0005 -0.0655  0.0427
    3TYR    SC1  802   6.961   4.146   4.080  0.3708  0.1971  0.4933
    3TYR    SC2  803   6.972   3.876   4.091 -0.0037  0.1049 -0.3561
    3TYR    SC3  804   7.199   4.021   4.077  0.1987 -0.1647 -0.0473
    1TYR     BB  805   0.856   5.166   2.632 -0.0037  0.0929  0.1483
    1TYR    SC1  806   0.664   5.413   2.530 -0.0253  0.4502  0.0793
    1TYR    SC2  807   0.675   5.656   2.413 -0.2377  0.4445  0.0427
    1TYR    SC3  808   0.437   5.555   2.493 -0.2501 -0.0047 -0.4889
    2TYR     BB  809   0.704   4.956   2.890  0.1654 -0.1699  0.1873
    2TYR    SC1  810   0.375   4.966   3.017  0.0984 -0.0007  0.1480
    2TYR    SC2  811   0.167   5.002   3.185  0.2029 -0.0007  0.2810
    2TYR    SC3  812   0.203   4.763   3.063 -0.1026  0.1169 -0.0643
    3TYR     BB  813   0.832   4.746   3.050  0.0047  0.0242 -0.1093
    3TYR    SC1  814   0.889   4.768   3.332  0.5773  0.2247 -0.2129
    3TYR    SC2  815   0.965   4.548   3.468 -0.1337  0.0772 -0.0010
    3TYR    SC3  816   0.930   4.781   3.599  0.4912  0.3124 -0.2033
    1TYR     BB  817   2.356   3.773   2.957 -0.1000  0.1562 -0.0770
    1TYR    SC1  818   2.362   3.554   3.158  0.0697  0.1046  0.0820
    1TYR    SC2  819   2.435   3.297   3.133  0.3791  0.1906  0.0496
    1TYR    SC3  820   2.443   3.416   3.374 -0.3283  0.0180  0.1856
    2TYR     BB  821   2.400   4.125   2.989  0.2123 -0.2087  0.2319
    2TYR    SC1  822   2.250   4.255   3.202  0.1041 -0.3518  0.1899
    2TYR    SC2  823   1.994   4.185   3.252 -0.1017  0.1482 -0.0771
    2TYR    SC3  824   2.123   4.352   3.420  0.1506 -0.2934  0.1912
    3TYR     BB  825   2.758   4.312   3.016 -0.1026 -0.4257  0.4608
    3TYR    SC1  826   2.716   4.436   3.293  0.0703  0.0695 -0.1682
    3TYR    SC2  827   2.571   4.576   3.473  0.0049 -0.3277  0.1019
    3TYR    SC3  828   2.804   4.676   3.380  0.0073 -0.0832  0.3550
    1TYR     BB  829   2.525   2.847   3.236  0.1480  0.0247 -0.0997
    1TYR    SC1  830   2.282   2.679   3.139 -0.2728  0.2737  0.1230
    1TYR    SC2  831   2.035   2.570   3.142 -0.2034  0.1117  0.1203
    1TYR    SC3  832   2.143   2.656   2.910 -0.2617  0.1953  0.1236
    2TYR     BB  833   2.728   2.702   3.377  0.1442  0.2082 -0.0967
    2TYR    SC1  834   3.035   2.814   3.335 -0.1099  0.0062 -0.1098
    2TYR    SC2  835   3.243   2.974   3.270 -0.2608  0.2591  0.0067
    2TYR    SC3  836   3.275   2.776   3.452 -0.1203  0.2862  0.0130
    3TYR     BB  837   2.664   2.395   3.496  0.0930 -0.2191  0.0388
    3TYR    SC1  838   2.470   2.211   3.297 -0.1391  0.0339  0.2643
    3TYR    SC2  839   2.313   2.005   3.220  0.0376  0.0220 -0.0948
    3TYR    SC3  840   2.274   2.251   3.116 -0.0193  0.1215  0.1510
    1TYR     BB  841   7.183   4.968   3.143  0.0043  0.1606 -0.1359
    1TYR    SC1  842   6.986   5.227   3.189 -0.0920 -0.0131 -0.1773
    1TYR    SC2  843   6.946   5.491   3.223  0.0753 -0.0140  0.0541
    1TYR    SC3  844   6.787   5.351   3.055  0.0777  0.2591 -0.1848
    2TYR     BB  845   7.177   4.753   3.341  0.3975 -0.4528  0.1356
    2TYR    SC1  846   6.892   4.578   3.232 -0.0074  0.2066  0.1666
    2TYR    SC2  847   6.627   4.568   3.177 -0.0196  0.2316  0.2202
    2TYR    SC3  848   6.763   4.341   3.231  0.0439  0.1741 -0.1494
    3TYR     BB  849   7.396   4.994   3.628 -0.0367 -0.0621 -0.0825
    3TYR    SC1  850   7.490   5.239   3.409  0.3699  0.0934  0.1728
    3TYR    SC2  851   7.411   5.440   3.247 -0.0668 -0.3554 -0.2144
    3TYR    SC3  852   7.663   5.347   3.232  0.1582  0.1686  0.0049
    1TYR     BB  853   7.448   3.870   4.472  0.0551 -0.1281  0.0661
    1TYR    SC1  854   7.625   4.096   4.617 -0.1638 -0.2379 -0.1607
    1TYR    SC2  855   7.710   4.197   4.851 -0.2527  0.0360 -0.2417
    1TYR    SC3  856   7.887   4.091   4.679 -0.1696 -0.0411 -0.1109
    2TYR     BB  857   7.180   3.904   4.586 -0.1309  0.1343 -0.0424
    2TYR    SC1  858   7.216   4.126   4.863 -0.2697  0.1062 -0.1159
    2TYR    SC2  859   7.245   4.033   5.116 -0.0402  0.0797 -0.1494
    2TYR    SC3  860   7.284   4.295   5.063 -0.0890  0.0853 -0.1580
    3TYR     BB  861   7.037   3.712   4.745 -0.4801 -0.3009  0.3511
    3TYR    SC1  862   7.159   3.524   4.915  0.0998  0.1461 -0.0594
    3TYR    SC2  863   7.088   3.448   5.163 -0.1521  0.3229 -0.0718
    3TYR    SC3  864   7.331   3.380   5.065 -0.2221 -0.1424  0.0457
    1TYR     BB  865   1.645   0.233   3.467  0.3353  0.1599 -0.0118
    1TYR    SC1  866   1.808   0.003   3.413 -0.2480 -0.0461  0.1538
    1TYR    SC2  867   1.858  -0.260   3.449  0.0583 -0.0036  0.0780
    1TYR    SC3  868   1.856  -0.156   3.199  0.3438  0.1346  0.1281
    2TYR     BB  869   1.436   0.249   3.226  0.1862  0.1951 -0.0698
    2TYR    SC1  870   1.413  -0.031   3.109  0.4046  0.1339 -0.0290
    2TYR    SC2  871   1.238  -0.228   3.047 -0.1289  0.4999  0.2197
    2TYR    SC3  872   1.490  -0.237   2.951 -0.2109 -0.1485  0.0002
    3TYR     BB  873   1.413   0.525   3.138  0.1197 -0.1529  0.0982
    3TYR    SC1  874   1.681   0.704   3.168 -0.0161 -0.0255 -0.0591
    3TYR    SC2  875   1.796   0.948   3.175  0.1156 -0.0879 -0.0229
    3TYR    SC3  876   1.928   0.734   3.274 -0.0934 -0.1367  0.1572
    1TYR     BB  877   1.978   3.078   3.273  0.2134  0.1188  0.2588
    1TYR    SC1  878   2.058   3.179   2.971 -0.1094  0.2988 -0.1811
    1TYR    SC2  879   2.048   3.086   2.718 -0.3136  0.1318 -0.1161
    1TYR    SC3  880   2.107   3.345   2.765  0.2454  0.0565 -0.3040
    2TYR     BB  881   1.695   2.918   3.299 -0.2009 -0.2142 -0.0586
    2TYR    SC1  882   1.630   2.860   2.969 -0.2837  0.0993  0.0412
    2TYR    SC2  883   1.731   2.769   2.737 -0.0485  0.1347  0.1253
    2TYR    SC3  884   1.464   2.779   2.773 -0.0863 -0.1478 -0.0317
    3TYR     BB  885   1.423   2.993   3.401 -0.0849  0.2034  0.0374
    3TYR    SC1  886   1.255   2.774   3.539 -0.0383 -0.0019 -0.0874
    3TYR    SC2  887   0.987   2.742   3.547 -0.0295 -0.0948 -0.1466
    3TYR    SC3  888   1.144   2.617   3.728 -0.0291 -0.0006 -0.0809
    1TYR     BB  889   1.652   5.262   3.780 -0.0511  0.1524 -0.1239
    1TYR    SC1  890   1.504   5.255   4.044 -0.0142  0.3623 -0.0046
    1TYR    SC2  891   1.524   5.323   4.304 -0.1901  0.7196 -0.0774
    1TYR    SC3  892   1.325   5.161   4.222  0.0403  0.3583  0.0487
    2TYR     BB  893   1.913   5.468   3.702 -0.0865 -0.0643  0.3326
    2TYR    SC1  894   1.832   5.753   3.574 -0.2741 -0.1595 -0.0439
    2TYR    SC2  895   1.764   5.872   3.342 -0.0140 -0.0931 -0.0905
    2TYR    SC3  896   1.726   6.001   3.576  0.1337  0.0264 -0.1302
    3TYR     BB  897   2.189   5.381   3.745  0.1598  0.0950 -0.0618
    3TYR    SC1  898   2.468   5.486   3.751  0.1703 -0.1371 -0.1573
    3TYR    SC2  899   2.638   5.651   3.880 -0.0047 -0.1559  0.1067
    3TYR    SC3  900   2.667   5.608   3.616  0.0560  0.2827  0.0306
    1TYR     BB  901   6.901   3.402   3.380 -0.0965  0.2525 -0.0769
    1TYR    SC1  902   6.633   3.585   3.346 -0.0568  0.1518  0.2392
    1TYR    SC2  903   6.610   3.847   3.287  0.0478  0.1572  0.2200
    1TYR    SC3  904   6.401   3.681   3.245  0.1741  0.1183 -0.3784
    2TYR     BB  905   7.100   3.696   3.305 -0.1697 -0.0292 -0.0326
    2TYR    SC1  906   7.034   3.938   3.153  0.1754  0.1687 -0.0035
    2TYR    SC2  907   7.136   4.154   3.027  0.0149  0.1656 -0.1444
    2TYR    SC3  908   6.920   4.029   2.925  0.1563 -0.1150 -0.1123
    3TYR     BB  909   7.274   3.736   3.606  0.2870 -0.2341  0.0825
    3TYR    SC1  910   7.399   3.653   3.878 -0.2614 -0.2177  0.0081
    3TYR    SC2  911   7.333   3.589   4.132  0.1353 -0.0291  0.1683
    3TYR    SC3  912   7.539   3.464   4.010 -0.0467 -0.1119 -0.0624
    1TYR     BB  913   3.320   2.817   4.205 -0.0607  0.1078 -0.1523
    1TYR    SC1  914   3.179   2.755   3.928  0.3510  0.3465 -0.1211
    1TYR    SC2  915   2.960   2.830   3.789 -0.0817 -0.1074  0.2700
    1TYR    SC3  916   3.055   2.579   3.764  0.3657  0.0628  0.1617
    2TYR     BB  917   3.568   2.970   4.177 -0.5876  0.0548  0.0770
    2TYR    SC1  918   3.645   3.083   3.873  0.3706  0.0055 -0.1688
    2TYR    SC2  919   3.717   3.279   3.703  0.2539  0.1224 -0.0856
    2TYR    SC3  920   3.514   3.113   3.639  0.3327  0.0473 -0.1425
    3TYR     BB  921   3.766   2.961   4.354 -0.1442  0.3608 -0.0335
    3TYR    SC1  922   4.011   2.815   4.379  0.1905 -0.3243  0.1556
    3TYR    SC2  923   4.254   2.847   4.265  0.0398  0.0903 -0.0708
    3TYR    SC3  924   4.233   2.734   4.509  0.5145  0.4862  0.1734
    1TYR     BB  925   6.994   3.055   3.011 -0.0454 -0.0234  0.1568
    1TYR    SC1  926   6.906   3.339   2.857 -0.2093  0.0475  0.1128
    1TYR    SC2  927   6.801   3.576   2.936 -0.2964  0.1510 -0.2848
    1TYR    SC3  928   7.041   3.569   2.811 -0.2153  0.0065 -0.1270
    2TYR     BB  929   7.164   2.781   2.897  0.0410 -0.1677  0.1665
    2TYR    SC1  930   7.470   2.854   2.883 -0.2850 -0.0976  0.0797
    2TYR    SC2  931   7.694   2.924   2.748 -0.2784  0.2217  0.2412
    2TYR    SC3  932   7.710   2.849   3.007 -0.2938 -0.3641  0.0914
    3TYR     BB  933   7.143   2.465   2.815 -0.1370  0.2088 -0.1781
    3TYR    SC1  934   6.915   2.317   2.978 -0.0343 -0.0014 -0.0454
    3TYR    SC2  935   6.668   2.264   2.879 -0.1009  0.0202  0.1054
    3TYR    SC3  936   6.773   2.109   3.072 -0.1371  0.2054  0.2794
    1TYR     BB  937   1.662   0.776   4.355  0.2811 -0.2463  0.0137
    1TYR    SC1  938   1.732   0.608   4.123  0.6647  0.1258  0.1839
    1TYR    SC2  939   1.716   0.493   3.879  0.1236  0.1720  0.1822
    1TYR    SC3  940   1.851   0.370   4.079 -0.1412 -0.3002  0.0871
    2TYR     BB  941   1.489   1.119   4.321 -0.1952  0.2034  0.1878
    2TYR    SC1  942   1.581   1.182   4.598  0.2065 -0.0411 -0.0893
    2TYR    SC2  943   1.553   1.068   4.841 -0.0158  0.1019 -0.0440
    2TYR    SC3  944   1.669   1.310   4.818  0.2205 -0.0134 -0.1109
    3TYR     BB  945   1.278   1.231   4.123  0.0295 -0.0616 -0.1371
    3TYR    SC1  946   1.042   1.140   4.026 -0.0632  0.3790  0.0887
    3TYR    SC2  947   0.981   0.897   3.927  0.1714  0.1875  0.3928
    3TYR    SC3  948   0.877   1.118   3.813  0.0756 -0.0406  0.0130
    1TYR     BB  949   1.552   1.372   3.494  0.3384 -0.0954  0.1666
    1TYR    SC1  950   1.543   1.486   3.202  0.2451  0.1542 -0.1437
    1TYR    SC2  951   1.468   1.516   2.944 -0.4199 -0.0683 -0.0015
    1TYR    SC3  952   1.607   1.712   3.069  0.1337 -0.0555 -0.5762
    2TYR     BB  953   1.312   1.339   3.597  0.3164  0.0980 -0.1596
    2TYR    SC1  954   1.134   1.070   3.453 -0.1857  0.1155 -0.1269
    2TYR    SC2  955   0.970   0.991   3.254 -0.1763  0.2128 -0.1744
    2TYR    SC3  956   1.235   1.010   3.211 -0.1493  0.0467 -0.0949
    3TYR     BB  957   1.141   1.592   3.710  0.2433  0.2226  0.0139
    3TYR    SC1  958   1.018   1.603   3.959 -0.0770  0.0377 -0.0211
    3TYR    SC2  959   0.985   1.663   4.219 -0.0812  0.4659 -0.1119
    3TYR    SC3  960   0.823   1.482   4.101  0.0577  0.1037  0.2254
    1TYR     BB  961   1.714   2.181   4.053 -0.1761 -0.5424  0.0264
    1TYR    SC1  962   1.532   2.224   4.294 -0.4307 -0.2291 -0.2305
    1TYR    SC2  963   1.491   2.125   4.542 -0.2758 -0.2665 -0.2188
    1TYR    SC3  964   1.357   2.345   4.461  0.0318  0.0449  0.0818
    2TYR     BB  965   1.915   2.514   4.243  0.0567  0.0049 -0.2599
    2TYR    SC1  966   1.799   2.526   4.514 -0.2293 -0.1319 -0.0126
    2TYR    SC2  967   1.678   2.688   4.694 -0.0147 -0.1161  0.1233
    2TYR    SC3  968   1.723   2.429   4.755  0.0961 -0.1007  0.1102
    3TYR     BB  969   2.071   2.617   4.100  0.2825  0.1882  0.0624
    3TYR    SC1  970   2.122   2.663   3.798  0.0925 -0.1913 -0.1893
    3TYR    SC2  971   2.202   2.498   3.600 -0.3756 -0.1585 -0.4218
    3TYR    SC3  972   2.168   2.761   3.551  0.2355  0.0072 -0.0883
    1TYR     BB  973   5.527   4.812   4.169 -0.1092 -0.1220  0.0754
    1TYR    SC1  974   5.519   4.548   4.086  0.1560  0.2856  0.0149
    1TYR    SC2  975   5.681   4.354   4.177 -0.2760  0.0807  0.3969
    1TYR    SC3  976   5.478   4.292   4.011  0.0702  0.3489 -0.1637
    2TYR     BB  977   5.352   5.075   4.023 -0.2881  0.0285  0.1226
    2TYR    SC1  978   5.480   5.344   4.012  0.0102  0.0163 -0.1587
    2TYR    SC2  979   5.607   5.532   3.865 -0.1080  0.2766  0.0611
    2TYR    SC3  980   5.400   5.601   4.024 -0.0706 -0.0194  0.2483
    3TYR     BB  981   5.204   4.956   3.838  0.1546  0.1025  0.1222
    3TYR    SC1  982   5.029   5.161   3.684 -0.0082 -0.0224 -0.1210
    3TYR    SC2  983   5.131   5.394   3.594  0.0979 -0.0417 -0.0523
    3TYR    SC3  984   4.878   5.324   3.529  0.0618  0.0965 -0.0654
    1TYR     BB  985   6.561   5.858   5.317 -0.2006 -0.0480  0.0277
    1TYR    SC1  986   6.450   6.137   5.379 -0.0278 -0.0468 -0.1159
    1TYR    SC2  987   6.363   6.273   5.596 -0.1106 -0.0802 -0.1280
    1TYR    SC3  988   6.548   6.383   5.433 -0.2344  0.0514 -0.1807
    2TYR     BB  989   6.512   5.646   5.474 -0.0475  0.0139 -0.0425
    2TYR    SC1  990   6.176   5.673   5.573  0.1535 -0.1756  0.5358
    2TYR    SC2  991   6.061   5.828   5.762 -0.3176  0.1032  0.0559
    2TYR    SC3  992   5.919   5.630   5.643  0.0112 -0.1541  0.0707
    3TYR     BB  993   6.598   5.389   5.610 -0.1422  0.1259  0.0246
    3TYR    SC1  994   6.810   5.520   5.801  0.5262  0.1144 -0.4403
    3TYR    SC2  995   6.994   5.682   5.915 -0.0011  0.3021  0.2311
    3TYR    SC3  996   6.954   5.433   6.012  0.1154  0.1321 -0.1353
    1TYR     BB  997   7.230   3.206   3.707  0.0785 -0.1951 -0.0871
    1TYR    SC1  998   6.995   3.368   3.884  0.0947  0.0128  0.1216
    1TYR    SC2  999   6.923   3.449   4.131 -0.1675 -0.1548  0.1035
    1TYR    SC3 1000   6.751   3.304   3.980 -0.0719  0.0777 -0.2396
    2TYR     BB 1001   7.117   2.924   3.670  0.1277 -0.2546 -0.1953
    2TYR    SC1 1002   7.250   2.748   3.888  0.2343  0.4937  0.0074
    2TYR    SC2 1003   7.445   2.686   4.064 -0.2642 -0.0620  0.4141
    2TYR    SC3 1004   7.438   2.565   3.823  0.3670  0.6333 -0.0106
    3TYR     BB 1005   7.094   2.744   3.374  0.0961  0.3230 -0.0847
    3TYR    SC1 1006   7.122   2.421   3.455  0.2117 -0.0419 -0.7946
    3TYR    SC2 1007   7.041   2.167   3.413 -0.0913 -0.1372  0.0739
    3TYR    SC3 1008   7.263   2.216   3.559 -0.0565  0.1057 -0.0535
    1TYR     BB 1009  -0.464   5.443   4.405 -0.1367  0.1354  0.0387
    1TYR    SC1 1010  -0.696   5.454   4.204 -0.1693 -0.2245  0.1984
    1TYR    SC2 1011  -0.844   5.576   4.015  0.2667 -0.2483 -0.1784
    1TYR    SC3 1012  -0.948   5.370   4.156 -0.1115 -0.1480 -0.2960
    2TYR     BB 1013  -0.142   5.255   4.269  0.0476  0.2749 -0.1157
    2TYR    SC1 1014  -0.084   5.045   4.443 -0.0558 -0.1947 -0.0693
    2TYR    SC2 1015   0.117   4.874   4.385  0.0845 -0.0402 -0.0478
    2TYR    SC3 1016   0.085   4.963   4.638 -0.1607 -0.2497 -0.0002
    3TYR     BB 1017   0.058   5.489   4.285 -0.2636 -0.1213 -0.1266
    3TYR    SC1 1018  -0.016   5.739   4.434 -0.0385 -0.0500 -0.0034
    3TYR    SC2 1019  -0.099   5.748   4.691 -0.1846  0.0099 -0.0514
    3TYR    SC3 1020  -0.114   5.969   4.536 -0.2767 -0.0755 -0.1657
    1TYR     BB 1021   0.959   0.060   3.338 -0.2355 -0.1482  0.2077
    1TYR    SC1 1022   0.819   0.334   3.206 -0.3050 -0.0401  0.1902
    1TYR    SC2 1023   0.734   0.591   3.214  0.1590  0.1445 -0.1792
    1TYR    SC3 1024   0.625   0.418   3.038 -0.0301  0.1334 -0.0546
    2TYR     BB 1025   1.104   0.244   3.580 -0.1384  0.3124 -0.0439
    2TYR    SC1 1026   1.021   0.012   3.791 -0.2337  0.3061  0.0498
    2TYR    SC2 1027   0.851  -0.085   3.977 -0.0506 -0.0193  0.0581
    2TYR    SC3 1028   1.117  -0.114   4.011 -0.0143 -0.1857 -0.3017
    3TYR     BB 1029   1.096   0.532   3.537 -0.1673 -0.4186  0.4342
    3TYR    SC1 1030   1.351   0.707   3.594  0.0608  0.1425 -0.1690
    3TYR    SC2 1031   1.597   0.817   3.585  0.1765 -0.1040 -0.1227
    3TYR    SC3 1032   1.436   0.864   3.796  0.3078 -0.1921 -0.0004
    1TYR     BB 1033   6.702   4.382   2.129  0.2887 -0.0069 -0.1712
    1TYR    SC1 1034   6.853   4.155   2.036 -0.1014  0.1979  0.0006
    1TYR    SC2 1035   7.111   4.090   1.990 -0.1353  0.1072 -0.0633
    1TYR    SC3 1036   6.913   3.948   1.874 -0.2121  0.3420 -0.2303
    2TYR     BB 1037   6.596   4.265   2.480  0.1854 -0.2843 -0.2138
    2TYR    SC1 1038   6.279   4.256   2.380  0.2757  0.0325 -0.2299
    2TYR    SC2 1039   6.164   4.013   2.400  0.1083  0.1073 -0.2602
    2TYR    SC3 1040   6.026   4.218   2.291  0.1714  0.2662 -0.0474
    3TYR     BB 1041   6.674   4.400   2.704 -0.4041  0.1156  0.0798
    3TYR    SC1 1042   6.954   4.526   2.687 -0.3031  0.1057  0.1393
    3TYR    SC2 1043   7.122   4.736   2.699  0.2047 -0.2498 -0.2140
    3TYR    SC3 1044   7.149   4.531   2.873  0.1526 -0.3191 -0.2864
    1TYR     BB 1045   2.743   4.540   4.138 -0.4651 -0.0267 -0.0610
    1TYR    SC1 1046   2.787   4.269   4.216  0.0086  0.0660  0.0933
    1TYR    SC2 1047   2.856   4.077   4.393 -0.1312  0.0378  0.1195
    1TYR    SC3 1048   2.819   4.014   4.132 -0.3717 -0.0135  0.1631
    2TYR     BB 1049   2.799   4.746   4.326  0.0342  0.0381  0.1458
    2TYR    SC1 1050   3.081   4.869   4.270  0.0131 -0.3208  0.2584
    2TYR    SC2 1051   3.234   5.091   4.257 -0.3419 -0.0721  0.1604
    2TYR    SC3 1052   3.339   4.860   4.351  0.1449  0.0325 -0.0879
    3TYR     BB 1053   2.585   4.787   4.525  0.0312  0.0860 -0.0763
    3TYR    SC1 1054   2.559   4.546   4.682 -0.5909  0.0266 -0.4630
    3TYR    SC2 1055   2.655   4.300   4.745  0.2775  0.3551 -0.3160
    3TYR    SC3 1056   2.399   4.365   4.802  0.1036 -0.4057 -0.0974
    1TYR     BB 1057   8.154   4.579   2.146 -0.2555 -0.0611  0.0771
    1TYR    SC1 1058   8.337   4.636   2.416 -0.1998  0.0660  0.2110
    1TYR    SC2 1059   8.594   4.657   2.497 -0.0536 -0.3957 -0.0762
    1TYR    SC3 1060   8.418   4.513   2.643 -0.1373 -0.1417  0.0812
    2TYR     BB 1061   7.873   4.551   2.370 -0.1522  0.1818  0.1423
    2TYR    SC1 1062   7.977   4.627   2.669  0.0373  0.1297  0.1563
    2TYR    SC2 1063   7.999   4.572   2.932 -0.2210  0.1074  0.1772
    2TYR    SC3 1064   8.117   4.793   2.831  0.0022  0.0399  0.2805
    3TYR     BB 1065   7.649   4.758   2.237 -0.0053 -0.2818  0.0040
    3TYR    SC1 1066   7.348   4.665   2.295  0.2566 -0.0537 -0.0356
    3TYR    SC2 1067   7.190   4.446   2.269  0.0757  0.0645  0.0385
    3TYR    SC3 1068   7.082   4.694   2.252  0.2920  0.1511 -0.1309
    1TYR     BB 1069   2.056   2.634   5.077  0.3382  0.0751 -0.1156
    1TYR    SC1 1070   2.334   2.486   5.162  0.0349  0.0301  0.1044
    1TYR    SC2 1071   2.340   2.256   5.305  0.1470 -0.2331 -0.3045
    1TYR    SC3 1072   2.513   2.292   5.100  0.0329  0.1587 -0.3411
    2TYR     BB 1073   2.155   2.841   4.801  0.1200  0.0181  0.1744
    2TYR    SC1 1074   2.005   3.092   4.825  0.1559  0.1868  0.0714
    2TYR    SC2 1075   1.864   3.318   4.782 -0.2826 -0.1473 -0.3973
    2TYR    SC3 1076   1.769   3.130   4.952  0.1453  0.0525  0.0941
    3TYR     BB 1077   2.322   2.695   4.540 -0.3092  0.0638  0.2710
    3TYR    SC1 1078   2.580   2.901   4.533  0.1058 -0.2878 -0.0245
    3TYR    SC2 1079   2.836   2.931   4.454  0.0910  0.2416  0.0771
    3TYR    SC3 1080   2.732   3.099   4.637 -0.1818 -0.2973  0.4504
    1TYR     BB 1081   6.392   5.691   4.916  0.3825  0.0363  0.1413
    1TYR    SC1 1082   6.148   5.710   5.108 -0.0658 -0.1110 -0.2654
    1TYR    SC2 1083   5.886   5.736   5.170 -0.0443 -0.2886 -0.0841
    1TYR    SC3 1084   6.060   5.931   5.237 -0.0559 -0.3839  0.2429
    2TYR     BB 1085   6.479   5.328   4.962  0.0408  0.2372  0.0371
    2TYR    SC1 1086   6.273   5.315   5.204  0.0952  0.0372  0.1436
    2TYR    SC2 1087   6.034   5.293   5.330 -0.0829 -0.4565 -0.2399
    2TYR    SC3 1088   6.223   5.103   5.363  0.3310 -0.0119  0.1559
    3TYR     BB 1089   6.659   5.156   4.785  0.1981  0.0016 -0.1039
    3TYR    SC1 1090   6.549   5.140   4.504  0.2531  0.1413  0.0821
    3TYR    SC2 1091   6.350   5.012   4.375  0.0445  0.0993  0.4304
    3TYR    SC3 1092   6.333   5.278   4.419  0.0945  0.1064  0.4074
    1TYR     BB 1093   3.146   1.979   4.441  0.0946  0.0122  0.0147
    1TYR    SC1 1094   3.122   1.786   4.660  0.1070  0.1276 -0.0377
    1TYR    SC2 1095   2.918   1.651   4.772 -0.0389  0.2889 -0.1011
    1TYR    SC3 1096   3.169   1.617   4.863 -0.1145  0.2045  0.0821
    2TYR     BB 1097   3.470   1.979   4.422 -0.2300 -0.2489  0.2452
    2TYR    SC1 1098   3.613   2.009   4.692  0.1558 -0.0496 -0.1536
    2TYR    SC2 1099   3.529   2.083   4.939 -0.0044  0.1926 -0.2757
    2TYR    SC3 1100   3.643   1.841   4.901 -0.2912  0.0099 -0.0271
    3TYR     BB 1101   3.676   1.869   4.201 -0.1574  0.1481 -0.3121
    3TYR    SC1 1102   3.926   1.996   4.336 -0.0761 -0.0739  0.0052
    3TYR    SC2 1103   4.037   2.027   4.580 -0.0984  0.2887 -0.0242
    3TYR    SC3 1104   4.120   2.180   4.373 -0.0282 -0.0625 -0.2676
    1TYR     BB 1105   1.652   3.901   3.521  0.2951  0.1338  0.2176
    1TYR    SC1 1106   1.647   4.194   3.564 -0.0430 -0.0947 -0.0109
    1TYR    SC2 1107   1.485   4.410   3.578  0.2268  0.1145 -0.0039
    1TYR    SC3 1108   1.743   4.430   3.655  0.1348 -0.3460  0.4988
    2TYR     BB 1109   1.486   3.680   3.420  0.0899  0.4616 -0.2365
    2TYR    SC1 1110   1.206   3.704   3.322  0.0489  0.0439 -0.2855
    2TYR    SC2 1111   0.940   3.688   3.281  0.0334  0.0847 -0.2064
    2TYR    SC3 1112   1.093   3.838   3.118 -0.0515  0.3819 -0.0226
    3TYR     BB 1113   1.546   3.434   3.606 -0.2855  0.1562 -0.1948
    3TYR    SC1 1114   1.705   3.496   3.839  0.0439  0.2806  0.0813
    3TYR    SC2 1115   1.954   3.524   3.939  0.0614 -0.0141  0.1299
    3TYR    SC3 1116   1.760   3.415   4.090  0.0371 -0.2771 -0.0815
    1TYR     BB 1117   5.379   3.626   4.608 -0.0778  0.0341  0.2955
    1TYR    SC1 1118   5.277   3.563   4.904 -0.1020 -0.0963 -0.1742
    1TYR    SC2 1119   5.266   3.407   5.124 -0.0761 -0.0768 -0.1590
    1TYR    SC3 1120   5.261   3.676   5.150  0.3725 -0.0604 -0.1482
    2TYR     BB 1121   5.639   3.477   4.566 -0.0578  0.1203  0.0118
    2TYR    SC1 1122   5.937   3.557   4.524  0.0806 -0.3190 -0.0161
    2TYR    SC2 1123   6.196   3.489   4.502  0.1516 -0.0519 -0.0584
    2TYR    SC3 1124   6.119   3.742   4.450 -0.1270 -0.1411 -0.0993
    3TYR     BB 1125   5.540   3.156   4.402 -0.0291  0.2562 -0.2793
    3TYR    SC1 1126   5.316   3.106   4.637  0.1826 -0.3290  0.2459
    3TYR    SC2 1127   5.052   3.112   4.583  0.2452 -0.0741 -0.0675
    3TYR    SC3 1128   5.137   3.050   4.832 -0.1087 -0.0903  0.0567
    1TYR     BB 1129   2.728   3.595   4.538  0.0159  0.1756 -0.3768
    1TYR    SC1 1130   2.529   3.806   4.673 -0.0198  0.1530  0.0553
    1TYR    SC2 1131   2.274   3.890   4.704 -0.0564  0.1575 -0.2314
    1TYR    SC3 1132   2.459   3.952   4.890 -0.1939  0.4318 -0.1800
    2TYR     BB 1133   2.834   3.550   4.275 -0.0308 -0.0684 -0.0799
    2TYR    SC1 1134   3.123   3.705   4.216  0.0348 -0.2589  0.1866
    2TYR    SC2 1135   3.314   3.882   4.287 -0.2074  0.1196 -0.0586
    2TYR    SC3 1136   3.334   3.748   4.053 -0.1395 -0.0014  0.0161
    3TYR     BB 1137   2.764   3.258   4.085 -0.1114  0.0188  0.0831
    3TYR    SC1 1138   3.074   3.213   4.013  0.0621  0.0991 -0.1477
    3TYR    SC2 1139   3.185   3.357   3.813  0.2402 -0.2556 -0.3166
    3TYR    SC3 1140   3.315   3.332   4.048 -0.0383  0.2881 -0.0803
    1TYR     BB 1141   0.565   5.989   3.645  0.1697 -0.1658  0.3004
    1TYR    SC1 1142   0.407   5.787   3.770 -0.1484 -0.0181 -0.0027
    1TYR    SC2 1143   0.342   5.541   3.861  0.0390  0.0234  0.2590
    1TYR    SC3 1144   0.151   5.700   3.754 -0.0955 -0.2092  0.1417
    2TYR     BB 1145   0.850   5.854   3.866 -0.0356  0.0842  0.2220
    2TYR    SC1 1146   1.079   6.104   3.859  0.2683 -0.0489 -0.2776
    2TYR    SC2 1147   1.157   6.363   3.864  0.1850 -0.0217 -0.3495
    2TYR    SC3 1148   1.339   6.166   3.892  0.2481  0.0446 -0.2902
    3TYR     BB 1149   0.818   5.595   3.976  0.0544  0.2973 -0.1868
    3TYR    SC1 1150   0.968   5.487   4.237  0.1896 -0.0205  0.1136
    3TYR    SC2 1151   0.934   5.328   4.453 -0.3760  0.0018  0.0578
    3TYR    SC3 1152   1.101   5.540   4.466 -0.3141 -0.0614  0.4361
    1TYR     BB 1153   0.844   5.623   3.438  0.1422  0.1160 -0.1004
    1TYR    SC1 1154   0.541   5.603   3.391 -0.0563  0.0315 -0.2079
    1TYR    SC2 1155   0.309   5.468   3.371  0.0318 -0.0677 -0.7034
    1TYR    SC3 1156   0.311   5.736   3.348 -0.1121  0.0269  0.0501
    2TYR     BB 1157   0.976   5.929   3.312  0.1982 -0.1585 -0.2578
    2TYR    SC1 1158   0.989   5.823   2.999  0.0679  0.1385  0.0873
    2TYR    SC2 1159   0.928   5.721   2.758 -0.1964  0.2574  0.0991
    2TYR    SC3 1160   0.956   5.987   2.788  0.0618  0.2268  0.1557
    3TYR     BB 1161   1.279   6.092   3.377  0.1383 -0.0710 -0.0011
    3TYR    SC1 1162   1.424   5.977   3.114 -0.4286  0.0919  0.1664
    3TYR    SC2 1163   1.391   5.784   2.927  0.0310 -0.0998  0.2669
    3TYR    SC3 1164   1.555   5.994   2.879 -0.2924  0.1586  0.2460
    1TYR     BB 1165   4.171   3.683   4.431  0.1529 -0.0497  0.1719
    1TYR    SC1 1166   4.106   3.998   4.527  0.1555  0.1214  0.0172
    1TYR    SC2 1167   4.154   4.258   4.578  0.0985  0.1617 -0.1276
    1TYR    SC3 1168   4.113   4.086   4.782 -0.0561  0.3030 -0.0359
    2TYR     BB 1169   4.355   3.774   4.144 -0.0877  0.1314  0.1552
    2TYR    SC1 1170   4.250   3.643   3.892 -0.0956  0.1331  0.1735
    2TYR    SC2 1171   4.397   3.600   3.669 -0.1551  0.2389  0.1129
    2TYR    SC3 1172   4.159   3.476   3.700 -0.0776  0.1063  0.1883
    3TYR     BB 1173   4.564   4.048   4.200 -0.1039 -0.1953  0.0359
    3TYR    SC1 1174   4.565   4.055   4.484 -0.1966  0.0647 -0.2103
    3TYR    SC2 1175   4.555   4.010   4.750 -0.0004 -0.3170 -0.2594
    3TYR    SC3 1176   4.705   4.212   4.653  0.1753 -0.3655 -0.0955
    1TYR     BB 1177   6.248   4.164   3.252 -0.2176 -0.0459  0.2746
    1TYR    SC1 1178   6.184   4.301   3.000  0.1426  0.0289  0.0713
    1TYR    SC2 1179   6.058   4.265   2.764 -0.1118 -0.0841  0.2200
    1TYR    SC3 1180   6.192   4.494   2.811  0.1935 -0.1764 -0.1418
    2TYR     BB 1181   6.319   4.347   3.497 -0.2580  0.1477 -0.1138
    2TYR    SC1 1182   6.204   4.607   3.425  0.0379 -0.0875  0.1306
    2TYR    SC2 1183   6.127   4.728   3.196 -0.1658 -0.3322  0.0638
    2TYR    SC3 1184   5.942   4.622   3.362 -0.0029 -0.4186  0.1945
    3TYR     BB 1185   6.403   4.161   3.721 -0.1554 -0.0204  0.0823
    3TYR    SC1 1186   6.493   3.900   3.734  0.0281 -0.1273 -0.0439
    3TYR    SC2 1187   6.695   3.727   3.781 -0.0148 -0.1809 -0.0545
    3TYR    SC3 1188   6.440   3.646   3.813 -0.0341 -0.1085 -0.0250
    1TYR     BB 1189   6.813   2.776   4.449  0.1643  0.0469 -0.0548
    1TYR    SC1 1190   6.566   2.839   4.600 -0.1618  0.3174 -0.4104
    1TYR    SC2 1191   6.498   2.892   4.856 -0.0501  0.1550 -0.3444
    1TYR    SC3 1192   6.361   3.007   4.654 -0.1784  0.2389 -0.2136
    2TYR     BB 1193   6.877   2.858   4.185 -0.3291 -0.5784 -0.1723
    2TYR    SC1 1194   7.129   3.063   4.215 -0.2113  0.3561 -0.3952
    2TYR    SC2 1195   7.195   3.265   4.381 -0.0446  0.0030 -0.0116
    2TYR    SC3 1196   7.388   3.126   4.252 -0.1286 -0.1441  0.0184
    3TYR     BB 1197   6.725   2.791   3.958  0.0059  0.2960  0.0285
    3TYR    SC1 1198   6.834   2.543   3.803  0.2970 -0.1200 -0.1871
    3TYR    SC2 1199   6.710   2.346   3.665 -0.0258 -0.2226  0.2233
    3TYR    SC3 1200   6.892   2.283   3.854  0.1358 -0.1032  0.1106
   7.66375   7.66375   7.66375
