Generated by trjconv : Martini system from ../2_Creating_coordinates/TYR-LYS-TYR_aa.pdb t=   0.00000
 1100
    1TYR     BB    1   1.295   5.109   7.392  0.3748  0.0529 -0.1326
    1TYR    SC1    2   1.181   5.357   7.338 -0.1788 -0.0841  0.0360
    1TYR    SC2    3   1.250   5.512   7.127 -0.2542 -0.2095 -0.0825
    1TYR    SC3    4   1.141   5.624   7.347 -0.1576 -0.0752 -0.1022
    2LYS     BB    5   1.379   4.937   7.146 -0.1482  0.1300  0.0024
    2LYS    SC1    6   1.713   4.943   7.236  0.0893  0.2443 -0.1405
    2LYS    SC2    7   1.882   5.026   7.365 -0.0569  0.1901 -0.1382
    3TYR     BB    8   1.275   4.784   6.912  0.1607  0.0097 -0.0391
    3TYR    SC1    9   1.492   4.655   6.674 -0.1639  0.1809 -0.2906
    3TYR    SC2   10   1.566   4.728   6.425  0.4863  0.2293 -0.1052
    3TYR    SC3   11   1.724   4.564   6.570  0.0072  0.0121  0.2034
    1TYR     BB   12   2.772   3.119   3.878  0.1366 -0.0351 -0.0665
    1TYR    SC1   13   2.466   3.101   3.906 -0.1043 -0.1619 -0.1940
    1TYR    SC2   14   2.252   3.120   4.069 -0.0533  0.3417 -0.1659
    1TYR    SC3   15   2.218   3.124   3.802 -0.1201 -0.2893 -0.1872
    2LYS     BB   16   2.982   3.093   4.084  0.1437 -0.1532 -0.0234
    2LYS    SC1   17   2.850   3.027   4.350 -0.0320  0.0387  0.2765
    2LYS    SC2   18   2.583   3.070   4.391  0.1973 -0.4649 -0.1461
    3TYR     BB   19   3.240   3.166   4.081  0.2930 -0.0069  0.3363
    3TYR    SC1   20   3.422   2.940   4.014  0.1747  0.0122 -0.0705
    3TYR    SC2   21   3.678   2.867   3.965  0.2563  0.0813  0.2293
    3TYR    SC3   22   3.524   2.718   4.130  0.1229  0.0775  0.1038
    1TYR     BB   23   2.773   1.903   3.458 -0.0871 -0.0295 -0.0287
    1TYR    SC1   24   2.481   1.830   3.394 -0.2530 -0.1628  0.1111
    1TYR    SC2   25   2.316   1.616   3.384 -0.0985 -0.2780 -0.0395
    1TYR    SC3   26   2.235   1.852   3.283 -0.1618 -0.3414 -0.1393
    2LYS     BB   27   2.748   2.114   3.631 -0.1572  0.2715 -0.0391
    2LYS    SC1   28   2.455   2.089   3.780 -0.1108  0.0482 -0.0624
    2LYS    SC2   29   2.277   2.113   4.007 -0.1755  0.1528  0.2281
    3TYR     BB   30   2.939   2.115   3.865 -0.0352 -0.0820 -0.1239
    3TYR    SC1   31   3.113   2.373   3.796  0.0206  0.0754 -0.1598
    3TYR    SC2   32   3.360   2.482   3.795 -0.0522  0.2464 -0.0933
    3TYR    SC3   33   3.145   2.638   3.842 -0.1706  0.0927 -0.1173
    1TYR     BB   34   6.894   2.091   1.347  0.2788 -0.2309  0.2060
    1TYR    SC1   35   6.613   2.177   1.303  0.0704  0.1822  0.0010
    1TYR    SC2   36   6.351   2.196   1.366  0.0693  0.1657  0.0013
    1TYR    SC3   37   6.471   2.396   1.230  0.0145  0.0972 -0.1502
    2LYS     BB   38   7.075   2.237   1.148  0.0713  0.3978 -0.2951
    2LYS    SC1   39   7.400   2.203   1.034  0.0461  0.3451 -0.1114
    2LYS    SC2   40   7.551   2.401   0.971 -0.5203  0.1673  0.0407
    3TYR     BB   41   6.950   2.502   0.984  0.0345  0.0173 -0.0831
    3TYR    SC1   42   7.143   2.677   1.167 -0.0805 -0.1933 -0.1927
    3TYR    SC2   43   7.207   2.916   1.275 -0.2004 -0.1006 -0.3212
    3TYR    SC3   44   7.364   2.701   1.319 -0.1813 -0.0383 -0.0665
    1TYR     BB   45   5.885   3.034   0.222  0.0339 -0.0559 -0.0908
    1TYR    SC1   46   6.196   2.942   0.325  0.0135  0.0039 -0.2578
    1TYR    SC2   47   6.378   2.793   0.458 -0.0494  0.0796 -0.0838
    1TYR    SC3   48   6.390   3.062   0.471 -0.0799  0.0872 -0.2015
    2LYS     BB   49   5.821   2.969  -0.021  0.1703 -0.1887 -0.0611
    2LYS    SC1   50   6.031   2.760  -0.124 -0.3464 -0.1393 -0.0262
    2LYS    SC2   51   6.307   2.706  -0.177  0.0488 -0.1221  0.0325
    3TYR     BB   52   5.791   3.081  -0.375  0.1693  0.2168  0.0466
    3TYR    SC1   53   5.958   2.905  -0.586  0.4223  0.3289 -0.0855
    3TYR    SC2   54   6.016   2.913  -0.850 -0.0583 -0.2404 -0.2351
    3TYR    SC3   55   5.963   2.677  -0.731  0.1230  0.0044  0.3817
    1TYR     BB   56   6.054   1.404   0.534  0.2779  0.1632 -0.2229
    1TYR    SC1   57   5.958   1.259   0.312 -0.1365  0.2437 -0.1746
    1TYR    SC2   58   5.790   1.188   0.113 -0.0510 -0.0132 -0.1601
    1TYR    SC3   59   6.053   1.127   0.097  0.0062  0.2014 -0.0879
    2LYS     BB   60   5.925   1.493   0.844  0.0182  0.3318  0.0596
    2LYS    SC1   61   6.127   1.267   1.012  0.0882  0.0471 -0.0678
    2LYS    SC2   62   6.317   1.092   0.950 -0.2598 -0.0590  0.0947
    3TYR     BB   63   5.708   1.666   0.931  0.0608 -0.2259  0.4143
    3TYR    SC1   64   5.681   1.940   0.802  0.1818 -0.0122 -0.3639
    3TYR    SC2   65   5.681   2.207   0.841 -0.0428 -0.0375 -0.1607
    3TYR    SC3   66   5.752   2.105   0.602  0.1733  0.1953 -0.2001
    1TYR     BB   67   3.110   0.727   3.553  0.2035 -0.1257  0.3412
    1TYR    SC1   68   3.015   0.849   3.799 -0.3986  0.3449 -0.2287
    1TYR    SC2   69   2.875   0.737   4.002  0.2442 -0.1101  0.0061
    1TYR    SC3   70   3.050   0.937   4.052  0.3789 -0.1985 -0.1012
    2LYS     BB   71   2.916   0.592   3.407 -0.0353  0.0879  0.1380
    2LYS    SC1   72   2.644   0.684   3.485  0.0682 -0.2297  0.2720
    2LYS    SC2   73   2.454   0.779   3.656 -0.0710 -0.1592 -0.0720
    3TYR     BB   74   3.024   0.452   3.130  0.2229 -0.0366 -0.1484
    3TYR    SC1   75   3.087   0.137   3.099  0.1800  0.2073 -0.4844
    3TYR    SC2   76   3.009  -0.121   3.108 -0.0557  0.2807  0.0894
    3TYR    SC3   77   3.271  -0.060   3.101  0.0255  0.0143  0.4257
    1TYR     BB   78   2.325   2.337   3.345 -0.0713  0.0321  0.0045
    1TYR    SC1   79   2.527   2.255   3.155  0.1074  0.2574  0.0338
    1TYR    SC2   80   2.594   2.077   2.963 -0.1997  0.1743 -0.0038
    1TYR    SC3   81   2.766   2.274   3.031 -0.0074  0.0890 -0.2247
    2LYS     BB   82   2.061   2.337   3.198 -0.0921  0.1473  0.0613
    2LYS    SC1   83   1.797   2.485   3.296  0.0088  0.2238 -0.0823
    2LYS    SC2   84   1.536   2.494   3.392 -0.1202 -0.1106  0.0387
    3TYR     BB   85   2.044   2.320   2.904  0.1713 -0.3292  0.0787
    3TYR    SC1   86   2.053   2.596   2.734 -0.3738 -0.0453 -0.0477
    3TYR    SC2   87   2.160   2.706   2.512 -0.2396 -0.0096  0.0334
    3TYR    SC3   88   2.072   2.864   2.712 -0.2843 -0.0437  0.0409
    1TYR     BB   89   2.121   6.215   7.244 -0.1838 -0.0532 -0.3570
    1TYR    SC1   90   2.325   6.113   7.427 -0.1622 -0.1615 -0.0427
    1TYR    SC2   91   2.434   5.942   7.605  0.2692  0.0574 -0.0801
    1TYR    SC3   92   2.594   6.093   7.447 -0.0802  0.6449  0.0889
    2LYS     BB   93   1.799   6.051   7.372 -0.0327  0.0281 -0.1489
    2LYS    SC1   94   1.881   5.939   7.638  0.0098  0.1240  0.1760
    2LYS    SC2   95   2.004   5.880   7.826 -0.1767 -0.2159 -0.2797
    3TYR     BB   96   1.592   5.884   7.236 -0.0087  0.0085  0.1078
    3TYR    SC1   97   1.358   6.020   7.184  0.0975 -0.0723  0.0698
    3TYR    SC2   98   1.256   6.252   7.089  0.1124 -0.1286 -0.0879
    3TYR    SC3   99   1.118   6.108   7.271  0.0805 -0.0215 -0.0262
    1TYR     BB  100   6.769   1.892   0.393  0.1116  0.4551 -0.3163
    1TYR    SC1  101   6.622   2.140   0.295 -0.4242  0.0798  0.4804
    1TYR    SC2  102   6.548   2.312   0.100 -0.0335 -0.2800 -0.0197
    1TYR    SC3  103   6.402   2.294   0.327 -0.4637  0.2138 -0.2303
    2LYS     BB  104   6.558   1.641   0.405  0.0846 -0.1863  0.1978
    2LYS    SC1  105   6.454   1.455   0.194 -0.2609 -0.0025 -0.0525
    2LYS    SC2  106   6.482   1.293   0.015  0.0622 -0.0510 -0.0385
    3TYR     BB  107   6.478   1.491   0.699 -0.3919 -0.2248 -0.1660
    3TYR    SC1  108   6.773   1.608   0.847 -0.0718 -0.1924  0.2716
    3TYR    SC2  109   6.969   1.487   0.988  0.2531 -0.3608 -0.2809
    3TYR    SC3  110   6.958   1.757   0.975  0.0296 -0.3252  0.2826
    1TYR     BB  111   3.404   5.192   2.664  0.0935 -0.0753  0.2124
    1TYR    SC1  112   3.434   5.439   2.556  0.2779  0.1302  0.1726
    1TYR    SC2  113   3.499   5.682   2.653  0.8126  0.1711 -0.2291
    1TYR    SC3  114   3.370   5.661   2.417  0.4436  0.0567 -0.0275
    2LYS     BB  115   3.125   5.024   2.719  0.1544 -0.3962 -0.1738
    2LYS    SC1  116   3.177   4.862   2.472 -0.0828 -0.1168 -0.0038
    2LYS    SC2  117   3.244   4.733   2.278  0.1142  0.0690 -0.0402
    3TYR     BB  118   2.852   5.018   2.899  0.0544  0.1012  0.0754
    3TYR    SC1  119   2.836   5.105   3.205 -0.1448  0.2288  0.0374
    3TYR    SC2  120   3.004   5.023   3.399 -0.1065 -0.3102 -0.1994
    3TYR    SC3  121   2.738   5.019   3.441 -0.0900 -0.1489 -0.0674
    1TYR     BB  122   2.226   5.792   6.450  0.1813 -0.0059 -0.0962
    1TYR    SC1  123   2.096   5.515   6.456  0.0932 -0.0079 -0.1835
    1TYR    SC2  124   1.860   5.432   6.355 -0.0020  0.1969 -0.1358
    1TYR    SC3  125   2.018   5.259   6.488 -0.3542  0.1638  0.2695
    2LYS     BB  126   2.279   5.911   6.146  0.3163 -0.1298 -0.1399
    2LYS    SC1  127   2.500   6.052   6.094 -0.0998  0.2260  0.1915
    2LYS    SC2  128   2.597   6.246   5.961  0.0308 -0.0061 -0.0186
    3TYR     BB  129   2.139   5.677   5.958  0.1049 -0.0305  0.1233
    3TYR    SC1  130   2.260   5.446   6.045  0.2054  0.2718  0.0565
    3TYR    SC2  131   2.237   5.178   6.066 -0.0284  0.2598 -0.2561
    3TYR    SC3  132   2.425   5.310   6.210  0.2812 -0.1024 -0.3097
    1TYR     BB  133   6.247   2.833   1.323 -0.0931  0.1491 -0.1889
    1TYR    SC1  134   6.189   2.963   1.599 -0.0485 -0.3096  0.0911
    1TYR    SC2  135   6.340   3.070   1.797 -0.1424  0.0578 -0.0249
    1TYR    SC3  136   6.071   3.063   1.820 -0.1821  0.4266 -0.2739
    2LYS     BB  137   6.589   2.850   1.180 -0.0083  0.1414  0.1972
    2LYS    SC1  138   6.713   2.956   1.434  0.0070 -0.0105 -0.0540
    2LYS    SC2  139   6.872   3.032   1.625 -0.2477 -0.1738 -0.0735
    3TYR     BB  140   6.539   2.823   0.918  0.0622 -0.1465  0.0893
    3TYR    SC1  141   6.792   2.971   0.797 -0.0934  0.1952  0.1360
    3TYR    SC2  142   6.877   3.048   0.552 -0.0192 -0.0885  0.0672
    3TYR    SC3  143   7.053   2.951   0.732 -0.1060 -0.0822  0.1568
    1TYR     BB  144   3.450   4.148   3.876 -0.0781  0.1210 -0.1336
    1TYR    SC1  145   3.664   4.207   4.114 -0.1942 -0.0588 -0.2736
    1TYR    SC2  146   3.765   4.349   4.321 -0.3057  0.0218 -0.2731
    1TYR    SC3  147   3.826   4.087   4.293 -0.0644  0.0784 -0.2970
    2LYS     BB  148   3.254   4.325   3.813 -0.0464  0.0649 -0.2305
    2LYS    SC1  149   3.024   4.294   3.991  0.2600  0.0455  0.1485
    2LYS    SC2  150   2.855   4.319   4.178 -0.3351  0.2440 -0.4451
    3TYR     BB  151   3.186   4.446   3.548  0.0918 -0.0748 -0.0968
    3TYR    SC1  152   3.069   4.415   3.319 -0.0038  0.0511 -0.1401
    3TYR    SC2  153   2.911   4.376   3.103 -0.0967 -0.2987 -0.0179
    3TYR    SC3  154   2.985   4.626   3.173 -0.7263 -0.0993  0.0098
    1TYR     BB  155   1.062   5.659   5.431 -0.2008 -0.1996 -0.0493
    1TYR    SC1  156   1.114   5.405   5.242 -0.0297 -0.2902  0.1220
    1TYR    SC2  157   0.969   5.314   5.034  0.0179  0.2977 -0.1939
    1TYR    SC3  158   1.227   5.242   5.059 -0.0647 -0.0046 -0.1659
    2LYS     BB  159   0.977   5.913   5.121  0.1448  0.0780 -0.2570
    2LYS    SC1  160   0.716   6.002   5.218 -0.3393  0.2303 -0.0289
    2LYS    SC2  161   0.514   5.993   5.333 -0.1864 -0.1606 -0.1961
    3TYR     BB  162   1.133   5.760   4.935  0.1294 -0.3479  0.0968
    3TYR    SC1  163   1.382   5.668   4.895 -0.1936  0.0264 -0.0303
    3TYR    SC2  164   1.573   5.480   4.932 -0.1719  0.0293 -0.1248
    3TYR    SC3  165   1.642   5.740   4.909 -0.2329  0.1179  0.4846
    1TYR     BB  166   3.676   2.255   3.402 -0.0763  0.1927 -0.1041
    1TYR    SC1  167   3.771   2.324   3.690  0.1476  0.1598 -0.0274
    1TYR    SC2  168   4.029   2.355   3.763  0.1352  0.0927  0.0464
    1TYR    SC3  169   3.834   2.480   3.902  0.0964 -0.1894  0.2552
    2LYS     BB  170   3.802   1.992   3.292 -0.2555 -0.1738  0.2980
    2LYS    SC1  171   3.922   1.759   3.469 -0.0521  0.2764  0.0465
    2LYS    SC2  172   4.057   1.595   3.530 -0.1462  0.0959  0.3567
    3TYR     BB  173   3.527   1.809   3.182 -0.0348  0.1529 -0.0980
    3TYR    SC1  174   3.609   1.726   2.912 -0.1034  0.1471  0.0980
    3TYR    SC2  175   3.673   1.610   2.677 -0.1075  0.0003  0.1678
    3TYR    SC3  176   3.727   1.872   2.718 -0.1181  0.0301  0.0000
    1TYR     BB  177   2.254   7.322   6.661  0.0508  0.0545  0.4592
    1TYR    SC1  178   2.284   7.637   6.721 -0.3439 -0.0957 -0.2135
    1TYR    SC2  179   2.118   7.708   6.922 -0.0669 -0.2639  0.0879
    1TYR    SC3  180   2.305   7.882   6.832 -0.1332 -0.2196  0.0344
    2LYS     BB  181   2.251   7.167   6.976  0.4443  0.1210  0.0778
    2LYS    SC1  182   2.507   7.329   7.042 -0.1410 -0.0433 -0.0576
    2LYS    SC2  183   2.717   7.507   6.982  0.0583 -0.1354 -0.0635
    3TYR     BB  184   2.018   7.080   7.065  0.0080  0.1852  0.0420
    3TYR    SC1  185   1.853   7.351   7.192 -0.0987  0.1816  0.0866
    3TYR    SC2  186   1.645   7.523   7.188 -0.1609  0.1105  0.1991
    3TYR    SC3  187   1.880   7.599   7.297  0.0361  0.3668 -0.3567
    1TYR     BB  188   2.779   3.187   2.912  0.2116 -0.0699 -0.0595
    1TYR    SC1  189   2.723   3.461   2.961  0.2122  0.0875 -0.0238
    1TYR    SC2  190   2.552   3.669   2.981  0.2541  0.1773 -0.4568
    1TYR    SC3  191   2.790   3.677   3.109 -0.0670  0.0222  0.2094
    2LYS     BB  192   2.537   2.991   2.946 -0.0495  0.0005  0.1228
    2LYS    SC1  193   2.274   3.253   2.939  0.0076  0.0676  0.3135
    2LYS    SC2  194   2.003   3.271   2.987  0.3096 -0.0297  0.2463
    3TYR     BB  195   2.509   2.749   2.980 -0.1082  0.1043  0.0237
    3TYR    SC1  196   2.591   2.557   2.714  0.1315 -0.0354 -0.0007
    3TYR    SC2  197   2.485   2.332   2.610  0.3113 -0.1972  0.1581
    3TYR    SC3  198   2.622   2.502   2.451  0.4098 -0.3393  0.0875
    1TYR     BB  199   4.159   2.714   2.359 -0.1377  0.0630 -0.0770
    1TYR    SC1  200   4.030   2.881   2.169 -0.1656 -0.0576  0.1334
    1TYR    SC2  201   4.151   3.109   2.087 -0.3899 -0.0470 -0.1914
    1TYR    SC3  202   3.912   3.037   1.983 -0.3620 -0.3938 -0.0360
    2LYS     BB  203   4.158   2.407   2.249 -0.1161 -0.0804 -0.1196
    2LYS    SC1  204   3.914   2.408   2.009 -0.1251 -0.1635  0.0102
    2LYS    SC2  205   3.686   2.333   1.927  0.1914  0.0187  0.1025
    3TYR     BB  206   4.397   2.220   2.242  0.1903 -0.3906 -0.0195
    3TYR    SC1  207   4.656   2.204   2.409  0.1501 -0.0940 -0.0905
    3TYR    SC2  208   4.725   2.238   2.668  0.2082  0.1611 -0.1359
    3TYR    SC3  209   4.902   2.130   2.495  0.0609 -0.3056 -0.0116
    1TYR     BB  210   3.504   3.775   3.455 -0.1387  0.2594 -0.2521
    1TYR    SC1  211   3.643   3.550   3.613  0.0233  0.0422  0.1088
    1TYR    SC2  212   3.823   3.356   3.563  0.2055  0.1987  0.1424
    1TYR    SC3  213   3.609   3.304   3.719  0.2399  0.0205  0.1337
    2LYS     BB  214   3.649   3.999   3.463 -0.0933 -0.0099  0.2282
    2LYS    SC1  215   3.899   4.008   3.684 -0.0359  0.0527  0.1203
    2LYS    SC2  216   4.029   3.836   3.831  0.0634  0.2368 -0.2712
    3TYR     BB  217   3.681   4.269   3.326 -0.2995 -0.0052 -0.0417
    3TYR    SC1  218   3.478   4.252   3.104  0.2017  0.0394 -0.4989
    3TYR    SC2  219   3.444   4.147   2.858 -0.1433 -0.3480 -0.3021
    3TYR    SC3  220   3.247   4.128   3.041  0.1352 -0.1411  0.0351
    1TYR     BB  221   2.706   2.659   3.497  0.0752 -0.0853  0.0293
    1TYR    SC1  222   2.928   2.843   3.510 -0.1833  0.4449 -0.1895
    1TYR    SC2  223   3.045   2.966   3.301 -0.1643  0.4702 -0.1641
    1TYR    SC3  224   3.141   3.003   3.550 -0.2225  0.4863 -0.1440
    2LYS     BB  225   2.618   2.583   3.765  0.1349 -0.2591  0.1964
    2LYS    SC1  226   2.318   2.571   3.788 -0.0338 -0.2986  0.2755
    2LYS    SC2  227   2.105   2.660   3.846  0.3753 -0.0662 -0.3723
    3TYR     BB  228   2.664   2.659   4.097 -0.1654  0.2010 -0.4682
    3TYR    SC1  229   2.973   2.562   4.217  0.1187 -0.0421 -0.3426
    3TYR    SC2  230   3.153   2.585   4.417 -0.2790  0.3893 -0.0056
    3TYR    SC3  231   3.150   2.363   4.263  0.1997  0.1498  0.2989
    1TYR     BB  232   5.703   2.613   1.164 -0.0833  0.0703  0.2727
    1TYR    SC1  233   5.836   2.619   1.436 -0.2319 -0.0437  0.0183
    1TYR    SC2  234   5.908   2.619   1.697 -0.3299  0.0276  0.0460
    1TYR    SC3  235   6.019   2.442   1.526  0.0091  0.2175  0.0597
    2LYS     BB  236   5.825   2.979   1.060 -0.0569 -0.4915 -0.0715
    2LYS    SC1  237   5.923   3.186   1.235 -0.2568 -0.0864 -0.2974
    2LYS    SC2  238   5.977   3.400   1.449 -0.1746 -0.1644  0.1772
    3TYR     BB  239   6.023   2.902   0.797 -0.0192  0.0347  0.0916
    3TYR    SC1  240   6.088   2.618   0.847 -0.2666 -0.0242  0.3464
    3TYR    SC2  241   6.092   2.376   0.728 -0.1937  0.1630 -0.0541
    3TYR    SC3  242   6.078   2.394   0.997 -0.2348 -0.2801 -0.0168
    1TYR     BB  243   1.420   6.141   5.073  0.1467 -0.0891 -0.2006
    1TYR    SC1  244   1.662   6.329   5.014  0.0409  0.1555 -0.1110
    1TYR    SC2  245   1.906   6.433   5.063  0.1548 -0.0541 -0.2207
    1TYR    SC3  246   1.714   6.587   4.952  0.1781  0.1630  0.0287
    2LYS     BB  247   1.371   6.136   5.366  0.1112  0.2024 -0.0534
    2LYS    SC1  248   1.546   6.348   5.496 -0.3075 -0.0697 -0.0221
    2LYS    SC2  249   1.704   6.560   5.504 -0.0615 -0.1293 -0.0314
    3TYR     BB  250   1.137   6.191   5.573 -0.1201 -0.0790 -0.1489
    3TYR    SC1  251   0.918   6.335   5.429 -0.0103  0.1681  0.2090
    3TYR    SC2  252   0.684   6.451   5.499 -0.1105  0.1018 -0.0059
    3TYR    SC3  253   0.780   6.480   5.248 -0.1172 -0.2420 -0.0544
    1TYR     BB  254   2.824   6.804   2.698  0.4788 -0.0409 -0.1515
    1TYR    SC1  255   3.025   6.915   2.873  0.0755 -0.3931  0.4200
    1TYR    SC2  256   3.288   6.970   2.845 -0.0595  0.1256 -0.0736
    1TYR    SC3  257   3.147   7.086   3.044  0.0009  0.1859 -0.0654
    2LYS     BB  258   2.552   6.646   2.852 -0.0422 -0.1177 -0.0107
    2LYS    SC1  259   2.306   6.803   2.942 -0.0238  0.0046  0.1436
    2LYS    SC2  260   2.080   7.007   2.989  0.2401 -0.2320 -0.1891
    3TYR     BB  261   2.591   6.336   2.851 -0.3174 -0.0834  0.0355
    3TYR    SC1  262   2.651   6.157   3.085 -0.2202  0.2224  0.3765
    3TYR    SC2  263   2.745   6.054   3.316  0.1621 -0.0063  0.1326
    3TYR    SC3  264   2.822   5.948   3.080 -0.2125  0.2264 -0.1067
    1TYR     BB  265   6.035   1.600  -0.019 -0.1665 -0.1038 -0.0372
    1TYR    SC1  266   5.736   1.645   0.183 -0.1549 -0.1067  0.1226
    1TYR    SC2  267   5.475   1.706   0.215 -0.2872 -0.4235 -0.2558
    1TYR    SC3  268   5.639   1.700   0.429 -0.4883  0.1711 -0.0601
    2LYS     BB  269   5.951   1.796  -0.344  0.1263  0.4055  0.0254
    2LYS    SC1  270   6.172   1.581  -0.470  0.1865  0.0796 -0.2808
    2LYS    SC2  271   6.267   1.603  -0.700  0.0672 -0.0968  0.0912
    3TYR     BB  272   5.682   1.868  -0.317  0.2340 -0.1938 -0.0288
    3TYR    SC1  273   5.460   2.006  -0.509 -0.1324  0.1789  0.0049
    3TYR    SC2  274   5.281   2.118  -0.678  0.0010  0.1334 -0.1691
    3TYR    SC3  275   5.347   1.858  -0.704  0.0158  0.1235 -0.0404
    1TYR     BB  276   6.137   1.840   0.467  0.3914  0.0110  0.1636
    1TYR    SC1  277   6.080   2.022   0.239  0.1530  0.1444  0.1785
    1TYR    SC2  278   5.857   2.052   0.090  0.2643 -0.0546 -0.0372
    1TYR    SC3  279   6.092   2.153   0.003  0.3067 -0.0625  0.0670
    2LYS     BB  280   6.204   1.922   0.780  0.0523 -0.3456  0.1247
    2LYS    SC1  281   6.463   2.029   0.752 -0.0594  0.0397  0.0416
    2LYS    SC2  282   6.665   2.136   0.806  0.0415  0.1413 -0.1262
    3TYR     BB  283   6.124   1.905   1.073 -0.0991 -0.2400  0.1465
    3TYR    SC1  284   6.367   1.737   1.198 -0.1218 -0.0896  0.1565
    3TYR    SC2  285   6.621   1.714   1.288 -0.0768 -0.0124  0.0517
    3TYR    SC3  286   6.483   1.494   1.214  0.0658 -0.0296 -0.1759
    1TYR     BB  287   2.429   5.484   6.849 -0.1170 -0.0778  0.3417
    1TYR    SC1  288   2.647   5.612   6.612  0.1535  0.4208  0.2887
    1TYR    SC2  289   2.787   5.828   6.530  0.1723  0.3791  0.2097
    1TYR    SC3  290   2.667   5.668   6.348 -0.0729  0.4767  0.2802
    2LYS     BB  291   2.483   5.685   7.142 -0.1275 -0.1009 -0.0458
    2LYS    SC1  292   2.661   5.472   7.298  0.0222  0.1255  0.1128
    2LYS    SC2  293   2.747   5.274   7.481  0.1909 -0.0615 -0.0016
    3TYR     BB  294   2.131   5.621   7.355  0.1636 -0.1203 -0.1241
    3TYR    SC1  295   2.029   5.421   7.164  0.0875  0.2122 -0.1447
    3TYR    SC2  296   1.992   5.339   6.909 -0.0401  0.1186 -0.0976
    3TYR    SC3  297   1.779   5.397   7.064  0.0326  0.0877  0.0164
    1TYR     BB  298   6.501   2.626   1.699 -0.2140 -0.0407 -0.1309
    1TYR    SC1  299   6.787   2.495   1.650  0.1598 -0.1513 -0.1923
    1TYR    SC2  300   6.988   2.372   1.783  0.1605  0.1779  0.1315
    1TYR    SC3  301   7.042   2.524   1.566  0.1815 -0.2072 -0.1462
    2LYS     BB  302   6.336   2.586   1.918 -0.2128  0.2124 -0.1587
    2LYS    SC1  303   6.434   2.724   2.209 -0.0406  0.0240  0.0065
    2LYS    SC2  304   6.342   2.918   2.322  0.2614  0.0217 -0.2961
    3TYR     BB  305   6.261   2.294   2.013  0.1334  0.3910 -0.1828
    3TYR    SC1  306   6.041   2.102   1.911 -0.2645 -0.1102  0.1890
    3TYR    SC2  307   5.803   2.182   1.812 -0.1336  0.0059 -0.0434
    3TYR    SC3  308   5.835   1.928   1.898 -0.2786 -0.0754 -0.2210
    1TYR     BB  309   4.135   1.693   2.986 -0.2032 -0.2279 -0.1204
    1TYR    SC1  310   3.963   1.473   3.070  0.0259 -0.0561  0.2842
    1TYR    SC2  311   3.935   1.207   3.101 -0.2030 -0.0802 -0.0597
    1TYR    SC3  312   3.752   1.375   3.207 -0.1169 -0.0625  0.0647
    2LYS     BB  313   4.260   1.738   2.694  0.1428  0.1967  0.2662
    2LYS    SC1  314   4.592   1.812   2.825 -0.0069  0.1763 -0.1685
    2LYS    SC2  315   4.859   1.803   2.930 -0.2842 -0.1953 -0.3060
    3TYR     BB  316   4.250   1.822   2.481  0.0241 -0.0535  0.3070
    3TYR    SC1  317   3.995   1.764   2.277 -0.0079 -0.0735 -0.1088
    3TYR    SC2  318   3.815   1.911   2.138 -0.0662 -0.1253 -0.0886
    3TYR    SC3  319   3.813   1.641   2.120 -0.0078 -0.1274 -0.0669
    1TYR     BB  320   3.507   0.448   3.397  0.2722 -0.0100  0.0683
    1TYR    SC1  321   3.323   0.248   3.502  0.0789 -0.3168 -0.2190
    1TYR    SC2  322   3.288   0.066   3.699 -0.0257 -0.0399  0.0289
    1TYR    SC3  323   3.091   0.111   3.520  0.0109 -0.1842 -0.0500
    2LYS     BB  324   3.557   0.373   3.043 -0.0885  0.2113  0.1985
    2LYS    SC1  325   3.868   0.252   2.971  0.1475  0.1678 -0.1238
    2LYS    SC2  326   4.003   0.019   3.006  0.0948  0.1018 -0.0923
    3TYR     BB  327   3.420   0.402   2.829 -0.4608 -0.0383  0.0765
    3TYR    SC1  328   3.287   0.633   2.726 -0.0635 -0.4624  0.2262
    3TYR    SC2  329   3.181   0.879   2.755  0.3650 -0.2060 -0.2082
    3TYR    SC3  330   3.048   0.691   2.614  0.0744 -0.2065  0.0535
    1TYR     BB  331   4.852   3.804   2.141 -0.0725  0.0221  0.2714
    1TYR    SC1  332   4.699   3.523   2.031  0.0842  0.0292  0.1763
    1TYR    SC2  333   4.691   3.260   1.973 -0.0030  0.0601  0.0423
    1TYR    SC3  334   4.469   3.385   2.062  0.0690  0.0642  0.2215
    2LYS     BB  335   4.975   3.923   1.942 -0.1513  0.0167  0.0280
    2LYS    SC1  336   5.288   3.962   2.016 -0.1331  0.1165  0.0090
    2LYS    SC2  337   5.468   4.004   1.856 -0.0934  0.2041  0.2173
    3TYR     BB  338   4.951   3.864   1.602 -0.3178  0.0241 -0.0184
    3TYR    SC1  339   5.155   3.647   1.584  0.2396  0.2353  0.1663
    3TYR    SC2  340   5.241   3.460   1.759 -0.2404  0.0656  0.2407
    3TYR    SC3  341   5.413   3.572   1.584  0.0997 -0.3013  0.3247
    1TYR     BB  342   2.215   5.883   3.229 -0.3312 -0.1138 -0.2940
    1TYR    SC1  343   2.098   6.124   3.090  0.1697  0.1509 -0.1542
    1TYR    SC2  344   1.871   6.256   3.029  0.0482  0.0744  0.1166
    1TYR    SC3  345   2.110   6.378   3.001 -0.0318  0.1946 -0.0628
    2LYS     BB  346   2.142   5.945   3.593 -0.2808  0.0535 -0.0540
    2LYS    SC1  347   1.854   5.963   3.544  0.1877 -0.2063  0.0637
    2LYS    SC2  348   1.687   5.884   3.421  0.0556  0.0390 -0.0195
    3TYR     BB  349   2.169   6.162   3.857 -0.0344  0.2803 -0.2395
    3TYR    SC1  350   1.916   6.178   3.998  0.0477  0.0381  0.1442
    3TYR    SC2  351   1.792   6.157   4.237 -0.0374 -0.0573  0.0924
    3TYR    SC3  352   1.774   6.386   4.095 -0.2558 -0.1098  0.0311
    1TYR     BB  353   1.076   7.202   5.725  0.2811  0.2233 -0.3189
    1TYR    SC1  354   0.772   7.151   5.700 -0.0046 -0.0540  0.0281
    1TYR    SC2  355   0.517   7.204   5.629  0.0467  0.0121 -0.1113
    1TYR    SC3  356   0.619   6.957   5.590  0.1358  0.0983 -0.4664
    2LYS     BB  357   1.134   7.026   6.094 -0.1435 -0.1764 -0.1991
    2LYS    SC1  358   0.899   6.970   6.272  0.2619 -0.1864 -0.2618
    2LYS    SC2  359   0.663   6.899   6.403 -0.0411  0.0427 -0.0245
    3TYR     BB  360   1.449   6.959   6.304  0.2856 -0.1090 -0.2102
    3TYR    SC1  361   1.334   6.819   6.505  0.2160  0.1999  0.0910
    3TYR    SC2  362   1.325   6.656   6.721  0.2860  0.2546  0.1356
    3TYR    SC3  363   1.126   6.650   6.539  0.3635  0.0066  0.0543
    1TYR     BB  364   6.638   2.039   1.801 -0.0196 -0.3803  0.2233
    1TYR    SC1  365   6.399   1.831   1.663 -0.0402  0.0440 -0.3420
    1TYR    SC2  366   6.280   1.598   1.596 -0.2028  0.0253 -0.0146
    1TYR    SC3  367   6.146   1.831   1.570 -0.1060  0.0657 -0.1685
    2LYS     BB  368   6.814   1.791   1.902  0.1859  0.0272  0.0604
    2LYS    SC1  369   7.007   1.741   1.617  0.2411  0.0413 -0.3106
    2LYS    SC2  370   7.146   1.666   1.458  0.1072 -0.1590 -0.0491
    3TYR     BB  371   6.767   1.437   2.062  0.2485  0.1157  0.2579
    3TYR    SC1  372   6.770   1.632   2.355  0.1424 -0.1486 -0.2261
    3TYR    SC2  373   6.649   1.868   2.406  0.0625 -0.2086 -0.1325
    3TYR    SC3  374   6.917   1.846   2.426  0.0377 -0.2287  0.2799
    1TYR     BB  375   3.937   0.732   2.830 -0.0537  0.2233 -0.1038
    1TYR    SC1  376   4.026   0.761   3.131 -0.1262  0.3195 -0.1598
    1TYR    SC2  377   4.182   0.845   3.335  0.0263 -0.0748 -0.1031
    1TYR    SC3  378   3.939   0.739   3.385  0.0037 -0.0408 -0.1393
    2LYS     BB  379   3.701   0.871   2.817  0.0118  0.2110  0.3661
    2LYS    SC1  380   3.580   0.848   3.089  0.0803 -0.2989 -0.0197
    2LYS    SC2  381   3.460   0.938   3.233  0.0180 -0.1125  0.3533
    3TYR     BB  382   3.599   1.029   2.519 -0.0929  0.0658  0.3317
    3TYR    SC1  383   3.835   1.196   2.491  0.1011  0.1893  0.2043
    3TYR    SC2  384   4.066   1.303   2.400  0.0873 -0.0280 -0.1062
    3TYR    SC3  385   4.035   1.253   2.664  0.3270  0.1568 -0.0387
    1TYR     BB  386   2.328   6.907   8.261 -0.0301  0.2308 -0.0668
    1TYR    SC1  387   2.605   6.830   8.094  0.0573 -0.0867  0.0980
    1TYR    SC2  388   2.826   6.675   8.091 -0.1009 -0.3182 -0.1048
    1TYR    SC3  389   2.743   6.796   7.864 -0.0443 -0.0220  0.0265
    2LYS     BB  390   2.007   6.748   8.185 -0.0523  0.4186  0.1024
    2LYS    SC1  391   1.960   6.499   8.349 -0.1734 -0.1433  0.0347
    2LYS    SC2  392   2.103   6.316   8.409 -0.2419  0.2159 -0.2071
    3TYR     BB  393   1.968   6.865   7.941 -0.3215  0.0663  0.2598
    3TYR    SC1  394   1.931   7.140   7.837  0.0187  0.0523  0.2045
    3TYR    SC2  395   1.865   7.368   7.967  0.3170  0.2101  0.0906
    3TYR    SC3  396   1.906   7.372   7.700  0.2247 -0.0010  0.0710
    1TYR     BB  397   4.949   1.932   1.967  0.0046  0.2961 -0.0037
    1TYR    SC1  398   5.219   1.788   1.891 -0.0646  0.0785  0.0356
    1TYR    SC2  399   5.411   1.948   1.789 -0.0488  0.0324 -0.0077
    1TYR    SC3  400   5.448   1.681   1.797 -0.1783  0.0079 -0.1685
    2LYS     BB  401   4.711   1.943   1.879 -0.2998  0.0355  0.1106
    2LYS    SC1  402   4.509   1.782   2.060 -0.2623 -0.0747 -0.0612
    2LYS    SC2  403   4.422   1.555   2.085 -0.0544  0.0482 -0.0381
    3TYR     BB  404   4.573   2.199   1.725  0.3786  0.0224 -0.3609
    3TYR    SC1  405   4.292   2.125   1.741 -0.1444 -0.1361  0.0969
    3TYR    SC2  406   4.056   2.030   1.649 -0.3065  0.1976  0.1488
    3TYR    SC3  407   4.126   1.993   1.908 -0.3292  0.1518  0.1485
    1TYR     BB  408   3.581   5.758   3.491  0.1840 -0.1827  0.0963
    1TYR    SC1  409   3.411   5.997   3.444  0.1125  0.0789  0.0058
    1TYR    SC2  410   3.175   6.124   3.415  0.1056  0.0709  0.0273
    1TYR    SC3  411   3.380   6.248   3.538  0.1268  0.0950 -0.0323
    2LYS     BB  412   3.771   5.744   3.688  0.1228 -0.1832  0.1515
    2LYS    SC1  413   3.719   6.035   3.880  0.3888 -0.2288 -0.0115
    2LYS    SC2  414   3.531   6.173   4.004 -0.3960 -0.0832 -0.2224
    3TYR     BB  415   3.907   5.606   3.963  0.0099 -0.0693 -0.1291
    3TYR    SC1  416   3.714   5.634   4.204  0.0081 -0.1834 -0.4390
    3TYR    SC2  417   3.479   5.589   4.328  0.2134  0.0996  0.0885
    3TYR    SC3  418   3.709   5.498   4.437  0.4063  0.3733 -0.0721
    1TYR     BB  419   1.281   6.615   5.128  0.0487 -0.1304 -0.2464
    1TYR    SC1  420   1.326   6.763   4.862 -0.1028  0.1900 -0.0374
    1TYR    SC2  421   1.250   6.851   4.619 -0.0119 -0.2559 -0.2408
    1TYR    SC3  422   1.493   6.918   4.716 -0.1654  0.1769 -0.1236
    2LYS     BB  423   1.220   6.795   5.362 -0.1701 -0.1045 -0.1333
    2LYS    SC1  424   0.985   6.945   5.300  0.0256  0.0079 -0.1018
    2LYS    SC2  425   0.978   7.201   5.234  0.0671 -0.1869  0.2087
    3TYR     BB  426   1.157   6.662   5.671  0.2569 -0.0433 -0.0758
    3TYR    SC1  427   0.934   6.618   5.861  0.1291  0.1317  0.1016
    3TYR    SC2  428   0.671   6.621   5.923  0.0746 -0.1631 -0.0908
    3TYR    SC3  429   0.849   6.506   6.091  0.1369  0.3190  0.1988
    1TYR     BB  430   3.074   6.289   2.761  0.0823  0.0646 -0.2059
    1TYR    SC1  431   3.247   6.069   2.854 -0.0657  0.0284 -0.0981
    1TYR    SC2  432   3.288   5.880   3.042 -0.5274  0.0563  0.0442
    1TYR    SC3  433   3.491   6.041   2.968 -0.1368 -0.4383 -0.0324
    2LYS     BB  434   3.093   6.484   3.068  0.1563  0.2337  0.0822
    2LYS    SC1  435   3.351   6.542   3.138  0.2767  0.2089  0.2987
    2LYS    SC2  436   3.611   6.513   3.148  0.2716 -0.1520  0.1190
    3TYR     BB  437   2.927   6.665   3.306  0.0368  0.1189  0.0803
    3TYR    SC1  438   2.663   6.507   3.377 -0.1109  0.2522  0.1249
    3TYR    SC2  439   2.420   6.390   3.386  0.0593 -0.1413 -0.0585
    3TYR    SC3  440   2.591   6.362   3.593 -0.0211  0.0825  0.0433
    1TYR     BB  441   2.781   6.900   3.795  0.1046  0.3037  0.3887
    1TYR    SC1  442   2.938   6.616   3.824 -0.0406 -0.1204 -0.0184
    1TYR    SC2  443   3.007   6.364   3.758 -0.2445 -0.1372 -0.1798
    1TYR    SC3  444   3.144   6.495   3.950 -0.3033 -0.4648  0.0985
    2LYS     BB  445   2.517   6.847   3.691 -0.1196 -0.2019 -0.2580
    2LYS    SC1  446   2.338   6.667   3.888  0.2016 -0.1192  0.1241
    2LYS    SC2  447   2.213   6.672   4.124 -0.2239  0.1328 -0.0527
    3TYR     BB  448   2.274   6.877   3.452 -0.0150  0.1421  0.5018
    3TYR    SC1  449   2.070   6.662   3.411  0.4124 -0.3196 -0.1491
    3TYR    SC2  450   1.933   6.436   3.467 -0.1733  0.0437 -0.0053
    3TYR    SC3  451   1.826   6.621   3.302  0.4482  0.0822 -0.4065
    1TYR     BB  452   1.804   6.828   6.678 -0.1000  0.0304 -0.3865
    1TYR    SC1  453   1.809   6.667   6.926  0.1098 -0.1426 -0.3960
    1TYR    SC2  454   1.647   6.457   6.976 -0.3427  0.2603 -0.0509
    1TYR    SC3  455   1.730   6.615   7.179  0.2756  0.2329 -0.2582
    2LYS     BB  456   2.065   6.876   6.552  0.1460 -0.1462  0.1428
    2LYS    SC1  457   1.912   7.089   6.314  0.1551  0.1743  0.2055
    2LYS    SC2  458   1.870   7.189   6.084  0.3284 -0.0916  0.0333
    3TYR     BB  459   2.332   6.831   6.504  0.0441 -0.1412  0.0992
    3TYR    SC1  460   2.559   6.845   6.331  0.4411 -0.1999  0.3356
    3TYR    SC2  461   2.629   6.730   6.097  0.1091  0.0786  0.0871
    3TYR    SC3  462   2.785   6.921   6.206  0.1044  0.1800 -0.0807
    1TYR     BB  463   5.437   2.213  -0.077  0.1884  0.0280 -0.0719
    1TYR    SC1  464   5.182   2.264  -0.274 -0.0701 -0.1662  0.3162
    1TYR    SC2  465   4.964   2.419  -0.243  0.0441  0.1105 -0.1374
    1TYR    SC3  466   4.944   2.184  -0.374 -0.0164  0.0327  0.0088
    2LYS     BB  467   5.288   2.143   0.175 -0.1371  0.3177  0.1967
    2LYS    SC1  468   4.964   2.166   0.171 -0.1761  0.1966  0.0908
    2LYS    SC2  469   4.696   2.088   0.151 -0.1891  0.1887  0.0489
    3TYR     BB  470   5.331   2.260   0.460  0.2333  0.2675  0.1473
    3TYR    SC1  471   5.149   2.487   0.516  0.2702  0.1858  0.0765
    3TYR    SC2  472   4.891   2.568   0.521  0.2137  0.0084  0.1324
    3TYR    SC3  473   5.089   2.750   0.494  0.0834  0.1458  0.0831
    1TYR     BB  474   5.345   2.704   1.495  0.1684 -0.1794 -0.1082
    1TYR    SC1  475   5.387   2.503   1.696  0.3349 -0.0199 -0.1538
    1TYR    SC2  476   5.495   2.531   1.942 -0.1828 -0.0469  0.0904
    1TYR    SC3  477   5.311   2.339   1.896 -0.0686 -0.0668 -0.3349
    2LYS     BB  478   5.479   3.007   1.472  0.1149 -0.0786  0.1166
    2LYS    SC1  479   5.619   3.066   1.761  0.3396  0.0522  0.1064
    2LYS    SC2  480   5.576   3.018   2.016  0.2103  0.1065  0.3107
    3TYR     BB  481   5.395   3.155   1.290  0.0688  0.1209  0.0763
    3TYR    SC1  482   5.203   3.380   1.153  0.0925 -0.3219  0.5389
    3TYR    SC2  483   4.943   3.374   1.082  0.2789 -0.2885 -0.2693
    3TYR    SC3  484   5.061   3.609   1.143  0.1093 -0.3190  0.2298
    1TYR     BB  485   2.884   5.483   4.186 -0.3688  0.1447 -0.3717
    1TYR    SC1  486   3.054   5.700   3.995 -0.0589 -0.2973 -0.2687
    1TYR    SC2  487   3.118   5.900   3.826 -0.3897 -0.1680 -0.2485
    1TYR    SC3  488   3.311   5.738   3.922 -0.1457  0.0039 -0.4352
    2LYS     BB  489   2.631   5.494   4.408 -0.0869  0.0564  0.2575
    2LYS    SC1  490   2.607   5.792   4.477 -0.2259 -0.1617  0.1440
    2LYS    SC2  491   2.607   5.895   4.690  0.1401 -0.0502  0.1787
    3TYR     BB  492   2.592   5.317   4.624 -0.1369  0.0248  0.1064
    3TYR    SC1  493   2.392   5.165   4.759  0.1447  0.0117 -0.1566
    3TYR    SC2  494   2.198   5.009   4.863  0.3096 -0.0118  0.1284
    3TYR    SC3  495   2.359   5.151   5.027  0.5368  0.0040 -0.1010
    1TYR     BB  496   0.883   6.965   6.874  0.1283  0.0179 -0.0727
    1TYR    SC1  497   0.976   7.185   6.716 -0.1951 -0.0958 -0.0654
    1TYR    SC2  498   0.890   7.373   6.542 -0.0722  0.1272  0.1073
    1TYR    SC3  499   1.148   7.295   6.540 -0.1233 -0.0456  0.0348
    2LYS     BB  500   0.983   6.898   7.187 -0.0899  0.2350 -0.3295
    2LYS    SC1  501   0.733   6.791   7.306 -0.0226 -0.0997  0.0636
    2LYS    SC2  502   0.509   6.897   7.420  0.0369 -0.1883  0.0652
    3TYR     BB  503   1.235   6.741   7.247 -0.1055  0.3950 -0.0494
    3TYR    SC1  504   1.435   6.855   7.433  0.1165 -0.3097 -0.1907
    3TYR    SC2  505   1.648   6.817   7.595 -0.0375  0.0625  0.1208
    3TYR    SC3  506   1.623   7.048   7.458 -0.3232  0.0993  0.2272
    1TYR     BB  507   2.146   6.673   7.433  0.0146 -0.2252 -0.0419
    1TYR    SC1  508   2.276   6.933   7.546 -0.0289  0.1000  0.1030
    1TYR    SC2  509   2.283   7.200   7.507  0.1279  0.0669 -0.1179
    1TYR    SC3  510   2.388   7.093   7.732  0.0064  0.1944  0.0016
    2LYS     BB  511   2.337   6.644   7.140  0.0268 -0.0926 -0.1088
    2LYS    SC1  512   2.627   6.542   7.255  0.0964  0.0278 -0.1406
    2LYS    SC2  513   2.764   6.521   7.470 -0.0444 -0.0600  0.0781
    3TYR     BB  514   2.233   6.552   6.888  0.0369 -0.2577  0.1131
    3TYR    SC1  515   2.414   6.308   6.850  0.5038  0.3259 -0.0774
    3TYR    SC2  516   2.513   6.082   6.742 -0.2913 -0.1301  0.0470
    3TYR    SC3  517   2.587   6.156   6.991  0.0319 -0.2027 -0.0218
    1TYR     BB  518   5.783   2.408  -0.311  0.1146 -0.0315  0.0374
    1TYR    SC1  519   5.593   2.549  -0.478 -0.1454 -0.2280 -0.0891
    1TYR    SC2  520   5.332   2.607  -0.511 -0.0757  0.1854  0.0158
    1TYR    SC3  521   5.516   2.714  -0.677  0.0627  0.2779  0.2239
    2LYS     BB  522   6.040   2.285  -0.514 -0.3211  0.2570 -0.1273
    2LYS    SC1  523   5.908   2.103  -0.734  0.0888 -0.2715  0.1886
    2LYS    SC2  524   5.826   2.047  -0.938  0.4468  0.2301  0.0500
    3TYR     BB  525   6.339   2.262  -0.470 -0.0577  0.2305 -0.0918
    3TYR    SC1  526   6.399   2.018  -0.262 -0.2387 -0.1611 -0.2360
    3TYR    SC2  527   6.540   1.788  -0.255  0.2770  0.1410  0.1294
    3TYR    SC3  528   6.415   1.875  -0.033 -0.1619  0.0848 -0.0833
    1TYR     BB  529   1.970   5.460   3.297 -0.1846  0.2271 -0.3141
    1TYR    SC1  530   1.935   5.557   3.002  0.2448 -0.0259 -0.1592
    1TYR    SC2  531   1.952   5.674   2.759  0.2107 -0.1759 -0.2358
    1TYR    SC3  532   1.736   5.718   2.915  0.0069 -0.4422 -0.4315
    2LYS     BB  533   2.335   5.369   3.310 -0.2900 -0.0814  0.0601
    2LYS    SC1  534   2.269   5.081   3.182  0.0056 -0.1602  0.1292
    2LYS    SC2  535   2.200   4.861   3.175  0.0458 -0.0659  0.1237
    3TYR     BB  536   2.590   5.548   3.249  0.0072  0.1278  0.0892
    3TYR    SC1  537   2.846   5.514   3.361  0.4576 -0.3041 -0.4662
    3TYR    SC2  538   3.043   5.696   3.394 -0.0227  0.1508  0.2361
    3TYR    SC3  539   3.046   5.466   3.536  0.1962 -0.0497 -0.0775
    1TYR     BB  540   3.107   2.349   2.652 -0.1675  0.1675  0.4257
    1TYR    SC1  541   3.129   2.592   2.766  0.2156 -0.0760 -0.1931
    1TYR    SC2  542   3.245   2.780   2.922  0.0690  0.0208 -0.1982
    1TYR    SC3  543   2.983   2.723   2.951  0.1395 -0.2811 -0.1040
    2LYS     BB  544   3.180   2.049   2.736 -0.2264  0.0927  0.2041
    2LYS    SC1  545   3.245   1.846   2.452 -0.1140  0.0227 -0.1373
    2LYS    SC2  546   3.362   1.671   2.346 -0.3545 -0.2809 -0.0566
    3TYR     BB  547   3.097   1.852   2.952 -0.0391 -0.0707  0.0177
    3TYR    SC1  548   3.242   1.546   2.865  0.2354 -0.0438 -0.1935
    3TYR    SC2  549   3.371   1.327   2.955  0.1162 -0.0957 -0.1467
    3TYR    SC3  550   3.305   1.348   2.694  0.0329 -0.1655 -0.1321
    1TYR     BB  551   1.022   6.777   7.731 -0.1925 -0.0021  0.3421
    1TYR    SC1  552   0.714   6.775   7.864  0.0834  0.1591 -0.0131
    1TYR    SC2  553   0.576   6.651   8.061  0.1767  0.0564 -0.0112
    1TYR    SC3  554   0.561   6.919   8.033  0.2652  0.0883  0.2192
    2LYS     BB  555   1.118   6.513   7.706  0.1420  0.0112  0.1340
    2LYS    SC1  556   0.870   6.336   7.634  0.0178  0.2338 -0.2112
    2LYS    SC2  557   0.595   6.298   7.668  0.0529 -0.0406  0.0048
    3TYR     BB  558   1.399   6.389   7.540 -0.1140  0.0601  0.1149
    3TYR    SC1  559   1.376   6.092   7.632 -0.0496  0.1513  0.0178
    3TYR    SC2  560   1.346   5.831   7.698  0.2738  0.1337  0.1135
    3TYR    SC3  561   1.262   6.023   7.868  0.6186  0.0867  0.3504
    1TYR     BB  562   2.630   0.129   3.288  0.0543 -0.2416 -0.1505
    1TYR    SC1  563   2.392  -0.074   3.238 -0.2218  0.3998  0.6028
    1TYR    SC2  564   2.187  -0.154   3.082  0.2419 -0.0605  0.1826
    1TYR    SC3  565   2.210  -0.250   3.333 -0.2507  0.3111  0.3908
    2LYS     BB  566   2.547   0.373   3.151 -0.2212 -0.3804 -0.0813
    2LYS    SC1  567   2.256   0.402   3.146 -0.0053 -0.2713  0.0686
    2LYS    SC2  568   1.992   0.400   3.111  0.2033 -0.0223 -0.0371
    3TYR     BB  569   2.638   0.667   2.985 -0.1516 -0.2264 -0.1498
    3TYR    SC1  570   2.435   0.871   3.076  0.1593 -0.3905  0.0570
    3TYR    SC2  571   2.364   1.104   3.192  0.3281 -0.3911  0.1666
    3TYR    SC3  572   2.297   1.055   2.935  0.2228 -0.2568  0.1667
    1TYR     BB  573   3.494   3.693   2.532  0.1076  0.3310 -0.0048
    1TYR    SC1  574   3.660   3.878   2.517 -0.0850  0.0998 -0.3846
    1TYR    SC2  575   3.787   4.115   2.539  0.1703 -0.0414 -0.2778
    1TYR    SC3  576   3.929   3.885   2.542 -0.0994 -0.2140 -0.0057
    2LYS     BB  577   3.276   3.692   2.717 -0.1775  0.0921  0.1814
    2LYS    SC1  578   3.075   3.901   2.687  0.1531  0.2318 -0.1081
    2LYS    SC2  579   2.816   3.997   2.698  0.2286  0.0678 -0.2109
    3TYR     BB  580   3.369   3.632   2.984  0.2618 -0.0348  0.2932
    3TYR    SC1  581   3.680   3.671   2.973  0.0439 -0.0537  0.1814
    3TYR    SC2  582   3.867   3.865   2.991 -0.0385  0.0560 -0.0906
    3TYR    SC3  583   3.942   3.607   2.968  0.0761  0.0845 -0.0457
    1TYR     BB  584   1.486   7.016   8.015 -0.1057 -0.1166 -0.0215
    1TYR    SC1  585   1.609   7.155   8.281 -0.0452 -0.1349  0.0009
    1TYR    SC2  586   1.615   7.381   8.429  0.1993  0.0697 -0.3047
    1TYR    SC3  587   1.730   7.155   8.523  0.2944  0.1769 -0.1567
    2LYS     BB  588   1.263   7.000   8.052 -0.1966 -0.2071  0.3925
    2LYS    SC1  589   1.038   7.212   7.929 -0.0476  0.2389 -0.2365
    2LYS    SC2  590   0.965   7.490   7.987 -0.3083  0.2131 -0.2434
    3TYR     BB  591   1.054   6.847   8.228  0.5080  0.1660  0.1179
    3TYR    SC1  592   1.004   6.541   8.198 -0.1831 -0.1698 -0.0891
    3TYR    SC2  593   0.844   6.324   8.208 -0.1366 -0.2093 -0.1825
    3TYR    SC3  594   1.109   6.294   8.164 -0.0574 -0.1639  0.2136
    1TYR     BB  595   4.889   1.647   2.374  0.2011  0.2950  0.2057
    1TYR    SC1  596   4.873   1.425   2.115  0.2050  0.0454 -0.1204
    1TYR    SC2  597   4.799   1.216   1.961 -0.2217  0.0234  0.0958
    1TYR    SC3  598   4.898   1.440   1.846 -0.2687 -0.0929 -0.1831
    2LYS     BB  599   5.174   1.749   2.375 -0.0144  0.2206  0.0081
    2LYS    SC1  600   5.398   1.540   2.312  0.0491  0.2106 -0.4187
    2LYS    SC2  601   5.406   1.277   2.192  0.0133  0.2715  0.2602
    3TYR     BB  602   5.311   2.017   2.289  0.1270 -0.0133 -0.2246
    3TYR    SC1  603   5.592   2.022   2.337 -0.1057 -0.1572 -0.0227
    3TYR    SC2  604   5.825   1.888   2.351  0.0241  0.0367 -0.2401
    3TYR    SC3  605   5.823   2.157   2.369 -0.1953  0.0314 -0.1482
    1TYR     BB  606   4.477   1.699   1.542 -0.0374 -0.2048  0.3094
    1TYR    SC1  607   4.595   1.427   1.574  0.0723 -0.2352  0.2452
    1TYR    SC2  608   4.741   1.210   1.506  0.1130 -0.1123 -0.0799
    1TYR    SC3  609   4.491   1.180   1.600  0.2931 -0.3202  0.3696
    2LYS     BB  610   4.484   1.874   1.307  0.1119 -0.2277 -0.1140
    2LYS    SC1  611   4.161   1.810   1.202  0.2943 -0.2752  0.1178
    2LYS    SC2  612   3.942   1.690   1.256 -0.0806  0.0485 -0.0106
    3TYR     BB  613   4.722   1.835   1.151 -0.1364  0.0572  0.6419
    3TYR    SC1  614   4.578   1.736   0.860 -0.2722  0.3069 -0.1434
    3TYR    SC2  615   4.634   1.580   0.646 -0.0177  0.1992 -0.0037
    3TYR    SC3  616   4.486   1.805   0.615  0.0355  0.1983 -0.2950
    1TYR     BB  617   2.559   5.804   2.345 -0.0729 -0.2319 -0.0828
    1TYR    SC1  618   2.696   5.517   2.369  0.1696  0.2430  0.1382
    1TYR    SC2  619   2.959   5.456   2.353  0.0844 -0.1075 -0.0826
    1TYR    SC3  620   2.779   5.263   2.410 -0.1208  0.1519  0.1908
    2LYS     BB  621   2.425   5.909   2.568  0.2331 -0.1709 -0.0683
    2LYS    SC1  622   2.154   6.084   2.592 -0.1012 -0.2762  0.0081
    2LYS    SC2  623   1.911   6.060   2.458 -0.0536 -0.2789 -0.1793
    3TYR     BB  624   2.439   5.704   2.828  0.1451 -0.0336  0.0747
    3TYR    SC1  625   2.368   5.417   2.756 -0.2232  0.1549 -0.0625
    3TYR    SC2  626   2.174   5.242   2.687 -0.0895  0.0119 -0.0833
    3TYR    SC3  627   2.432   5.162   2.693 -0.0357  0.1855 -0.0036
    1TYR     BB  628   3.505   5.274   3.639  0.0877 -0.5791  0.3966
    1TYR    SC1  629   3.797   5.298   3.511 -0.1063  0.2182 -0.0130
    1TYR    SC2  630   4.026   5.283   3.653 -0.0726  0.3195 -0.0555
    1TYR    SC3  631   4.029   5.386   3.403 -0.1476  0.2280 -0.0948
    2LYS     BB  632   3.476   5.281   3.880  0.3836  0.1398 -0.2207
    2LYS    SC1  633   3.720   5.173   4.071  0.1907  0.0781 -0.2657
    2LYS    SC2  634   3.869   5.022   4.087  0.0321  0.0195  0.4594
    3TYR     BB  635   3.199   5.176   4.000  0.3113 -0.4061  0.3198
    3TYR    SC1  636   3.288   5.113   4.263 -0.1973 -0.1084 -0.1412
    3TYR    SC2  637   3.354   5.211   4.506  0.3327 -0.1727 -0.2435
    3TYR    SC3  638   3.205   4.986   4.487  0.3179 -0.1893  0.0192
    1TYR     BB  639   5.168   3.774   2.536  0.2672 -0.0317 -0.0441
    1TYR    SC1  640   5.233   3.516   2.388  0.3517 -0.2953 -0.0528
    1TYR    SC2  641   5.160   3.401   2.154 -0.1751  0.0170 -0.0609
    1TYR    SC3  642   5.418   3.463   2.199 -0.0546 -0.0882 -0.5425
    2LYS     BB  643   4.877   3.875   2.737  0.2143 -0.2641  0.0270
    2LYS    SC1  644   4.741   4.100   2.547  0.0792  0.0046 -0.1540
    2LYS    SC2  645   4.715   4.403   2.611  0.1765 -0.0436 -0.0318
    3TYR     BB  646   4.765   3.710   2.906  0.4350 -0.0643  0.1097
    3TYR    SC1  647   4.772   3.568   3.174 -0.0209 -0.2909 -0.3016
    3TYR    SC2  648   4.734   3.375   3.359 -0.2627 -0.1184 -0.1639
    3TYR    SC3  649   4.929   3.558   3.393 -0.3229 -0.0719 -0.0639
    1TYR     BB  650   2.656   5.042   5.717 -0.2167 -0.0111  0.0607
    1TYR    SC1  651   2.802   4.792   5.712  0.3931  0.0743  0.0770
    1TYR    SC2  652   3.000   4.627   5.628  0.2878  0.0073 -0.0441
    1TYR    SC3  653   2.943   4.647   5.891  0.1188 -0.3682 -0.0437
    2LYS     BB  654   2.456   5.217   5.592  0.2782  0.1613 -0.0036
    2LYS    SC1  655   2.246   5.002   5.470 -0.0865 -0.2087  0.3216
    2LYS    SC2  656   2.046   4.930   5.360 -0.0285 -0.1291  0.3858
    3TYR     BB  657   2.317   5.455   5.492  0.1128  0.0562  0.1392
    3TYR    SC1  658   2.154   5.464   5.246  0.1546 -0.3031 -0.1282
    3TYR    SC2  659   2.053   5.637   5.065  0.1402 -0.1731  0.0024
    3TYR    SC3  660   1.959   5.385   5.077 -0.0514 -0.1035  0.0085
    1TYR     BB  661   2.667   3.535   3.669 -0.0624  0.2580 -0.2331
    1TYR    SC1  662   2.892   3.478   3.542 -0.2052  0.1491 -0.2051
    1TYR    SC2  663   3.159   3.455   3.571 -0.2908 -0.4905  0.4264
    1TYR    SC3  664   3.041   3.375   3.342  0.0412 -0.1592  0.1219
    2LYS     BB  665   2.444   3.421   3.409 -0.1942  0.1679  0.1290
    2LYS    SC1  666   2.323   3.731   3.424 -0.2204 -0.0648  0.1911
    2LYS    SC2  667   2.242   3.954   3.506  0.0992 -0.3204 -0.0746
    3TYR     BB  668   2.500   3.127   3.392  0.3050 -0.0909  0.4944
    3TYR    SC1  669   2.253   2.959   3.419 -0.2526 -0.3498  0.1343
    3TYR    SC2  670   2.095   2.874   3.217 -0.0893 -0.1643 -0.0780
    3TYR    SC3  671   1.989   2.921   3.461 -0.3389 -0.1484 -0.1858
    1TYR     BB  672   5.607   2.668   0.688  0.1485 -0.0355  0.0619
    1TYR    SC1  673   5.804   2.581   0.439  0.3043  0.0117  0.1325
    1TYR    SC2  674   5.731   2.493   0.195  0.0642  0.5614 -0.0142
    1TYR    SC3  675   5.990   2.481   0.271  0.0602 -0.2014 -0.0199
    2LYS     BB  676   5.536   2.963   0.591  0.1477  0.4892 -0.3061
    2LYS    SC1  677   5.503   3.243   0.783 -0.1632 -0.1396  0.0755
    2LYS    SC2  678   5.477   3.459   0.666  0.0468 -0.1034  0.1458
    3TYR     BB  679   5.401   3.060   0.289 -0.2054  0.2551  0.0225
    3TYR    SC1  680   5.392   2.813   0.174  0.0532  0.4989 -0.1290
    3TYR    SC2  681   5.425   2.672  -0.054  0.1820  0.1513  0.0937
    3TYR    SC3  682   5.207   2.631   0.100  0.3155  0.0458  0.2588
    1TYR     BB  683   1.730   5.925   6.334 -0.1912 -0.1365 -0.0528
    1TYR    SC1  684   1.785   6.020   6.054  0.1292  0.1124 -0.1873
    1TYR    SC2  685   1.684   5.979   5.807 -0.1556  0.2693 -0.1025
    1TYR    SC3  686   1.881   6.160   5.844 -0.0825  0.2150 -0.2187
    2LYS     BB  687   1.517   5.898   6.565 -0.2398 -0.0505  0.2559
    2LYS    SC1  688   1.327   6.135   6.551  0.0058 -0.0886  0.1091
    2LYS    SC2  689   1.064   6.138   6.553  0.1260  0.0306 -0.1320
    3TYR     BB  690   1.476   5.685   6.755  0.1546 -0.2225 -0.1793
    3TYR    SC1  691   1.522   5.419   6.662 -0.1501  0.0479 -0.1404
    3TYR    SC2  692   1.581   5.174   6.758  0.0181  0.1226 -0.0480
    3TYR    SC3  693   1.456   5.199   6.520 -0.3886 -0.0658  0.1333
    1TYR     BB  694   3.023   4.439   4.624  0.1145  0.0609  0.1341
    1TYR    SC1  695   3.276   4.607   4.728 -0.1396 -0.3974 -0.1572
    1TYR    SC2  696   3.542   4.585   4.692 -0.1261 -0.2614 -0.1457
    1TYR    SC3  697   3.445   4.712   4.910 -0.1957 -0.0410 -0.3003
    2LYS     BB  698   3.205   4.165   4.540  0.3236  0.1250 -0.2419
    2LYS    SC1  699   3.355   4.103   4.875  0.0824  0.0833  0.2672
    2LYS    SC2  700   3.593   4.204   5.058  0.0882 -0.1968 -0.1410
    3TYR     BB  701   3.263   3.988   4.343  0.0999 -0.0725 -0.2075
    3TYR    SC1  702   3.388   3.791   4.171 -0.0354 -0.3688  0.2801
    3TYR    SC2  703   3.440   3.563   4.035  0.1558 -0.2190  0.0931
    3TYR    SC3  704   3.637   3.742   4.079 -0.0722  0.0987 -0.1208
    1TYR     BB  705   4.964   3.060   1.544  0.0652  0.0021 -0.1822
    1TYR    SC1  706   5.029   3.006   1.856  0.2917  0.0101 -0.1145
    1TYR    SC2  707   5.100   2.974   2.115  0.2778  0.2045 -0.0846
    1TYR    SC3  708   5.152   2.779   1.935  0.0379 -0.0544  0.1161
    2LYS     BB  709   4.876   2.841   1.392 -0.2380 -0.4228 -0.3816
    2LYS    SC1  710   4.622   2.964   1.247 -0.0763 -0.1284  0.3447
    2LYS    SC2  711   4.372   3.036   1.281  0.1148  0.1913 -0.3478
    3TYR     BB  712   4.837   2.593   1.639 -0.1603  0.2460  0.1645
    3TYR    SC1  713   4.623   2.724   1.781 -0.0796  0.1484 -0.3217
    3TYR    SC2  714   4.437   2.919   1.786 -0.0912  0.1375  0.1148
    3TYR    SC3  715   4.377   2.672   1.876  0.0300  0.0275 -0.0954
    1TYR     BB  716   0.568   5.428   6.299 -0.0003 -0.2245 -0.1945
    1TYR    SC1  717   0.318   5.458   6.550 -0.1653 -0.0030 -0.1904
    1TYR    SC2  718   0.082   5.441   6.679 -0.0461  0.3007  0.0886
    1TYR    SC3  719   0.295   5.550   6.803  0.2589 -0.0075 -0.1405
    2LYS     BB  720   0.742   5.691   6.417 -0.0421  0.0133  0.1619
    2LYS    SC1  721   0.563   5.908   6.507 -0.0508  0.1753 -0.0401
    2LYS    SC2  722   0.425   5.998   6.720 -0.1276 -0.1312 -0.1717
    3TYR     BB  723   1.031   5.629   6.356  0.1381  0.2541  0.2411
    3TYR    SC1  724   1.153   5.823   6.167  0.4415  0.0625  0.1890
    3TYR    SC2  725   1.210   5.848   5.905 -0.0369 -0.0116  0.0671
    3TYR    SC3  726   1.269   6.049   6.075  0.0913  0.1237 -0.1317
    1TYR     BB  727   2.682   1.519   3.096 -0.0961  0.2004  0.1259
    1TYR    SC1  728   2.442   1.589   2.956 -0.0078 -0.0611  0.0448
    1TYR    SC2  729   2.205   1.689   2.874  0.0395 -0.0838 -0.1242
    1TYR    SC3  730   2.310   1.472   2.752  0.1899 -0.0202 -0.1109
    2LYS     BB  731   2.866   1.232   2.975  0.0695  0.2639  0.0935
    2LYS    SC1  732   2.727   1.140   2.699  0.2383 -0.0258 -0.1045
    2LYS    SC2  733   2.642   0.951   2.472  0.1214  0.0700 -0.0345
    3TYR     BB  734   2.920   1.053   3.151 -0.0593 -0.3026  0.0758
    3TYR    SC1  735   2.802   1.130   3.435  0.0257 -0.0496 -0.0463
    3TYR    SC2  736   2.798   1.210   3.693 -0.1223  0.2827 -0.1453
    3TYR    SC3  737   2.602   1.288   3.524 -0.1299 -0.0853 -0.3178
    1TYR     BB  738   3.939   3.109   3.073 -0.2152  0.2440  0.0520
    1TYR    SC1  739   3.689   3.194   3.139 -0.2603 -0.3461 -0.2664
    1TYR    SC2  740   3.450   3.141   3.026 -0.5613  0.2438  0.0354
    1TYR    SC3  741   3.463   3.211   3.286 -0.0461  0.1961  0.0341
    2LYS     BB  742   4.189   3.024   3.290 -0.1231 -0.5514  0.1969
    2LYS    SC1  743   4.135   2.722   3.274 -0.3773  0.2686  0.2458
    2LYS    SC2  744   4.113   2.494   3.315  0.0387  0.2813  0.0610
    3TYR     BB  745   4.303   3.205   3.452  0.1715  0.0378 -0.0888
    3TYR    SC1  746   4.262   3.525   3.410 -0.3291 -0.0020 -0.2626
    3TYR    SC2  747   4.184   3.766   3.318 -0.1680  0.1392 -0.0434
    3TYR    SC3  748   4.439   3.728   3.396 -0.1821 -0.1151 -0.1087
    1TYR     BB  749   2.841   4.879   4.789  0.2110 -0.0326 -0.0325
    1TYR    SC1  750   2.605   4.755   4.711  0.1387  0.1948 -0.0673
    1TYR    SC2  751   2.349   4.674   4.681  0.1686  0.0724 -0.0024
    1TYR    SC3  752   2.540   4.580   4.515  0.2253 -0.0965  0.1542
    2LYS     BB  753   2.904   5.055   4.932 -0.0258 -0.1330  0.0217
    2LYS    SC1  754   3.198   5.108   4.954  0.0175  0.2824 -0.0257
    2LYS    SC2  755   3.403   5.237   4.954  0.3521 -0.0965 -0.2906
    3TYR     BB  756   2.825   5.064   5.239 -0.2745  0.1643  0.1207
    3TYR    SC1  757   2.638   4.835   5.254  0.2124 -0.1544  0.0093
    3TYR    SC2  758   2.444   4.677   5.155 -0.0993  0.0642  0.2465
    3TYR    SC3  759   2.580   4.602   5.376 -0.0059 -0.0260  0.1597
    1TYR     BB  760   4.781   3.364   2.532 -0.0112 -0.1180  0.3984
    1TYR    SC1  761   4.517   3.562   2.483 -0.2686  0.0639  0.3445
    1TYR    SC2  762   4.281   3.635   2.595 -0.3275  0.2254  0.1265
    1TYR    SC3  763   4.376   3.769   2.381  0.0932  0.3307  0.3632
    2LYS     BB  764   4.708   3.081   2.513  0.1618  0.0065 -0.4018
    2LYS    SC1  765   4.956   2.930   2.679 -0.2947  0.0970  0.0909
    2LYS    SC2  766   5.045   2.725   2.823 -0.0007 -0.1431  0.2358
    3TYR     BB  767   4.614   2.879   2.268 -0.1658  0.1831  0.1554
    3TYR    SC1  768   4.765   2.634   2.234  0.1802  0.0357 -0.2419
    3TYR    SC2  769   5.003   2.515   2.274  0.2687  0.2488 -0.1179
    3TYR    SC3  770   4.838   2.423   2.082  0.2531 -0.1874  0.0887
    1TYR     BB  771   5.189   1.731  -0.149  0.2005 -0.3601  0.1200
    1TYR    SC1  772   5.000   1.667   0.098 -0.1194  0.1645 -0.1235
    1TYR    SC2  773   4.928   1.705   0.356 -0.3098 -0.1035 -0.1324
    1TYR    SC3  774   4.773   1.555   0.193  0.0135 -0.2744 -0.2937
    2LYS     BB  775   5.361   1.451  -0.316  0.1934  0.0845  0.2828
    2LYS    SC1  776   5.248   1.416  -0.630 -0.0398 -0.2672  0.1763
    2LYS    SC2  777   5.159   1.373  -0.867  0.2710 -0.4148  0.0164
    3TYR     BB  778   5.660   1.374  -0.272  0.1491  0.2544  0.3001
    3TYR    SC1  779   5.755   1.363  -0.596 -0.0989 -0.1263  0.0681
    3TYR    SC2  780   5.795   1.386  -0.862 -0.1954  0.1659  0.0745
    3TYR    SC3  781   5.722   1.602  -0.718  0.0067  0.0467  0.3665
    1TYR     BB  782   0.549   6.093   4.769  0.4686 -0.0369 -0.0765
    1TYR    SC1  783   0.774   6.299   4.832  0.1764 -0.0273 -0.4676
    1TYR    SC2  784   1.042   6.318   4.859  0.1343  0.0090  0.0503
    1TYR    SC3  785   0.894   6.540   4.818  0.1513  0.0464  0.1849
    2LYS     BB  786   0.645   5.707   4.758  0.0240  0.1747  0.0874
    2LYS    SC1  787   0.495   5.566   4.965  0.2744  0.0715 -0.2386
    2LYS    SC2  788   0.481   5.280   4.979 -0.0801 -0.0717  0.2791
    3TYR     BB  789   0.793   5.528   4.577  0.3739  0.0300  0.2111
    3TYR    SC1  790   1.073   5.432   4.515  0.1479 -0.1025  0.0093
    3TYR    SC2  791   1.269   5.404   4.331  0.2610 -0.2457  0.1485
    3TYR    SC3  792   1.316   5.343   4.590  0.0833 -0.1117  0.2152
    1TYR     BB  793   2.991   1.617   3.799  0.0338  0.2461  0.0432
    1TYR    SC1  794   2.688   1.660   3.911 -0.1877  0.2777 -0.3061
    1TYR    SC2  795   2.466   1.507   3.904  0.0437 -0.0772 -0.2299
    1TYR    SC3  796   2.497   1.690   4.100  0.0447 -0.3938  0.0766
    2LYS     BB  797   3.256   1.430   4.056 -0.0530 -0.3329 -0.1551
    2LYS    SC1  798   3.054   1.407   4.274 -0.2202 -0.1653  0.0868
    2LYS    SC2  799   2.904   1.301   4.394  0.2031 -0.0072 -0.1981
    3TYR     BB  800   3.509   1.209   4.125 -0.3352 -0.0466  0.1114
    3TYR    SC1  801   3.560   1.040   3.850 -0.0748  0.0498  0.0643
    3TYR    SC2  802   3.743   1.075   3.655  0.1898 -0.2528  0.2462
    3TYR    SC3  803   3.635   0.831   3.696 -0.1467 -0.1108  0.2419
    1TYR     BB  804   2.685   4.263   4.957  0.1345 -0.3223 -0.0175
    1TYR    SC1  805   2.858   4.422   5.092 -0.0013 -0.0663  0.4927
    1TYR    SC2  806   3.101   4.373   5.200  0.2599 -0.0614 -0.0500
    1TYR    SC3  807   3.007   4.626   5.187  0.3451 -0.0304 -0.0710
    2LYS     BB  808   2.836   3.982   4.838 -0.2075 -0.0842  0.3140
    2LYS    SC1  809   2.729   3.782   5.072  0.1677  0.0173 -0.0736
    2LYS    SC2  810   2.729   3.726   5.310 -0.0351  0.2019  0.1483
    3TYR     BB  811   2.773   3.968   4.563  0.2921 -0.3317 -0.0850
    3TYR    SC1  812   2.539   3.970   4.416  0.2849 -0.1281 -0.5634
    3TYR    SC2  813   2.284   3.924   4.339  0.1244 -0.2941  0.0038
    3TYR    SC3  814   2.380   4.176   4.343 -0.2219 -0.1548  0.2825
    1TYR     BB  815   4.713   2.422   1.219 -0.2456 -0.0819  0.0854
    1TYR    SC1  816   4.468   2.464   1.330  0.2826 -0.1763  0.0095
    1TYR    SC2  817   4.253   2.588   1.437  0.2797  0.1805 -0.3782
    1TYR    SC3  818   4.234   2.330   1.359  0.1369  0.0671 -0.0005
    2LYS     BB  819   4.658   2.267   0.914  0.1439  0.0450  0.2517
    2LYS    SC1  820   4.343   2.149   0.950 -0.1376 -0.3406  0.1156
    2LYS    SC2  821   4.090   2.141   0.875 -0.0758 -0.0342  0.2724
    3TYR     BB  822   4.833   2.103   0.682 -0.2112 -0.2434 -0.1093
    3TYR    SC1  823   5.056   1.901   0.747 -0.2692 -0.1102 -0.0935
    3TYR    SC2  824   5.292   1.803   0.660 -0.1350  0.1648 -0.0523
    3TYR    SC3  825   5.234   1.801   0.924 -0.0436  0.3708 -0.0280
    1TYR     BB  826   5.540   1.246   0.634 -0.0221  0.0050 -0.0409
    1TYR    SC1  827   5.670   1.016   0.530  0.0959  0.0868 -0.0522
    1TYR    SC2  828   5.772   0.802   0.400 -0.1097 -0.1174  0.1115
    1TYR    SC3  829   5.918   0.928   0.588  0.0652 -0.0234 -0.0828
    2LYS     BB  830   5.243   1.320   0.537  0.0679 -0.0939  0.1436
    2LYS    SC1  831   5.293   1.230   0.208 -0.3993 -0.0337  0.2009
    2LYS    SC2  832   5.239   1.091   0.009  0.1310 -0.1420  0.1609
    3TYR     BB  833   5.009   1.098   0.559 -0.1203 -0.0217  0.0026
    3TYR    SC1  834   4.732   1.155   0.515 -0.1424 -0.2906 -0.3412
    3TYR    SC2  835   4.467   1.199   0.488 -0.0693  0.3318 -0.2297
    3TYR    SC3  836   4.564   1.105   0.721 -0.1777  0.1957 -0.2373
    1TYR     BB  837   1.890   5.287   5.694  0.0305 -0.1203 -0.0115
    1TYR    SC1  838   1.772   5.149   5.918  0.0501 -0.0508 -0.1019
    1TYR    SC2  839   1.774   5.035   6.163 -0.0196 -0.1770 -0.1591
    1TYR    SC3  840   1.558   5.009   6.004 -0.0147 -0.0098 -0.1952
    2LYS     BB  841   1.686   5.277   5.456 -0.1086 -0.1565  0.1184
    2LYS    SC1  842   1.508   5.066   5.479 -0.1037  0.2432  0.0587
    2LYS    SC2  843   1.292   4.943   5.481  0.3026  0.0381  0.1925
    3TYR     BB  844   1.541   5.610   5.439 -0.0860 -0.0595  0.0620
    3TYR    SC1  845   1.761   5.805   5.362  0.0153 -0.0220 -0.0606
    3TYR    SC2  846   1.983   5.907   5.478 -0.1688  0.1265  0.1713
    3TYR    SC3  847   1.897   6.005   5.242 -0.0015  0.0818  0.0902
    1TYR     BB  848   2.713   0.316   3.815 -0.0575  0.0651 -0.0074
    1TYR    SC1  849   2.433   0.260   3.788 -0.0819 -0.0139  0.3097
    1TYR    SC2  850   2.271   0.188   3.585  0.1222  0.2601  0.0378
    1TYR    SC3  851   2.167   0.244   3.827 -0.1434  0.0765 -0.0283
    2LYS     BB  852   2.876   0.167   4.023  0.2441 -0.1446 -0.2343
    2LYS    SC1  853   2.624   0.084   4.230 -0.1093  0.1108  0.1022
    2LYS    SC2  854   2.370   0.067   4.268  0.2111 -0.0191 -0.0404
    3TYR     BB  855   3.091   0.224   4.210 -0.2020 -0.1360  0.4546
    3TYR    SC1  856   3.334   0.330   4.015  0.2254  0.1233  0.7183
    3TYR    SC2  857   3.362   0.572   3.899 -0.1109 -0.1437  0.0019
    3TYR    SC3  858   3.556   0.386   3.872 -0.1284 -0.1609 -0.0048
    1TYR     BB  859   2.631   5.793   3.730 -0.1658 -0.4536  0.0263
    1TYR    SC1  860   2.701   6.018   3.954  0.1750 -0.2306 -0.1470
    1TYR    SC2  861   2.632   6.267   4.034 -0.4396 -0.4475  0.0733
    1TYR    SC3  862   2.845   6.144   4.144 -0.1950 -0.0713  0.0417
    2LYS     BB  863   2.482   5.537   3.797  0.1552  0.0937  0.4094
    2LYS    SC1  864   2.161   5.530   3.742 -0.0001  0.1531 -0.1929
    2LYS    SC2  865   1.951   5.460   3.811 -0.2263  0.2431 -0.4677
    3TYR     BB  866   2.672   5.267   3.852  0.0509  0.1009  0.1431
    3TYR    SC1  867   2.471   5.043   3.784  0.0818 -0.1910 -0.0461
    3TYR    SC2  868   2.285   4.876   3.683 -0.0557  0.1146 -0.3221
    3TYR    SC3  869   2.212   5.070   3.857  0.0315  0.1423 -0.3160
    1TYR     BB  870   3.591   2.337   2.943  0.1800 -0.1815  0.1059
    1TYR    SC1  871   3.657   2.326   2.658  0.1298 -0.2437  0.0722
    1TYR    SC2  872   3.798   2.223   2.452  0.0495  0.3227 -0.2936
    1TYR    SC3  873   3.551   2.323   2.409 -0.1593  0.0525  0.1830
    2LYS     BB  874   3.698   2.615   3.034 -0.0348 -0.1706 -0.3177
    2LYS    SC1  875   3.627   2.715   3.326 -0.0797  0.0996  0.0388
    2LYS    SC2  876   3.699   2.855   3.535 -0.1307  0.0617 -0.1065
    3TYR     BB  877   3.917   2.678   2.820  0.0173  0.0044 -0.3732
    3TYR    SC1  878   4.102   2.422   2.773 -0.1537 -0.1195  0.0972
    3TYR    SC2  879   4.291   2.231   2.757 -0.1496 -0.1154  0.0963
    3TYR    SC3  880   4.053   2.176   2.872 -0.1780 -0.1445  0.0246
    1TYR     BB  881   4.571   2.553   3.523 -0.0349 -0.2193 -0.1362
    1TYR    SC1  882   4.627   2.380   3.316 -0.0638  0.2801 -0.2030
    1TYR    SC2  883   4.826   2.239   3.200  0.1071  0.1932  0.1787
    1TYR    SC3  884   4.582   2.246   3.086  0.2359  0.0252 -0.1221
    2LYS     BB  885   4.659   2.843   3.490 -0.0494  0.1428  0.0837
    2LYS    SC1  886   4.713   3.061   3.724 -0.1436 -0.0546 -0.1660
    2LYS    SC2  887   4.889   3.246   3.849 -0.0138 -0.0329  0.0039
    3TYR     BB  888   4.732   2.867   3.200 -0.2324  0.0586 -0.0356
    3TYR    SC1  889   4.589   2.712   2.987  0.1869  0.0571 -0.1078
    3TYR    SC2  890   4.550   2.622   2.735  0.0812  0.0471 -0.0885
    3TYR    SC3  891   4.385   2.810   2.838  0.0861  0.0064 -0.0055
    1TYR     BB  892   2.603   5.569   5.094 -0.2451  0.1374  0.0160
    1TYR    SC1  893   2.819   5.527   5.320 -0.1393  0.2041  0.3474
    1TYR    SC2  894   2.973   5.465   5.533 -0.0805  0.0613  0.2657
    1TYR    SC3  895   3.083   5.476   5.287 -0.2076 -0.0806  0.2008
    2LYS     BB  896   2.465   5.862   5.219  0.3078 -0.2254  0.4031
    2LYS    SC1  897   2.336   6.098   5.031 -0.2091 -0.0424 -0.2800
    2LYS    SC2  898   2.362   6.307   5.045  0.2106 -0.0378  0.3517
    3TYR     BB  899   2.438   5.925   5.573 -0.1617 -0.1897 -0.4526
    3TYR    SC1  900   2.596   5.703   5.753 -0.2356 -0.4036 -0.0484
    3TYR    SC2  901   2.820   5.736   5.900 -0.2873 -0.2324 -0.0053
    3TYR    SC3  902   2.675   5.510   5.923 -0.2546 -0.2382  0.1530
    1TYR     BB  903   2.609   3.537   4.199  0.2504 -0.3481 -0.1558
    1TYR    SC1  904   2.324   3.554   4.053  0.1198 -0.0637 -0.1915
    1TYR    SC2  905   2.061   3.604   4.091  0.1561  0.1233 -0.1758
    1TYR    SC3  906   2.160   3.590   3.841  0.1892  0.3815 -0.1801
    2LYS     BB  907   2.870   3.586   4.121 -0.0698  0.0089  0.0509
    2LYS    SC1  908   3.050   3.566   4.385  0.0836 -0.1056 -0.1305
    2LYS    SC2  909   3.207   3.467   4.535 -0.0566  0.0373 -0.0169
    3TYR     BB  910   3.000   3.816   3.920  0.1196 -0.3250  0.1980
    3TYR    SC1  911   3.005   3.900   3.628  0.0759 -0.1863 -0.5153
    3TYR    SC2  912   3.062   3.967   3.373  0.1221 -0.0248 -0.4635
    3TYR    SC3  913   2.811   3.995   3.467  0.1552  0.1484 -0.4220
    1TYR     BB  914   4.536   1.351   2.515  0.2682 -0.0289  0.1022
    1TYR    SC1  915   4.467   1.258   2.829 -0.0313  0.1494  0.0510
    1TYR    SC2  916   4.402   1.056   2.996  0.3974 -0.0008  0.0523
    1TYR    SC3  917   4.385   1.312   3.081 -0.0715 -0.0272  0.0775
    2LYS     BB  918   4.453   1.071   2.348 -0.0692 -0.0790 -0.3271
    2LYS    SC1  919   4.306   1.072   2.051  0.2069 -0.0661 -0.2490
    2LYS    SC2  920   4.095   1.006   1.883  0.0319  0.2439  0.1767
    3TYR     BB  921   4.300   0.844   2.538 -0.2212  0.1573  0.0558
    3TYR    SC1  922   4.057   0.712   2.368  0.0589 -0.2102 -0.0822
    3TYR    SC2  923   3.857   0.534   2.331 -0.1126 -0.0950  0.2434
    3TYR    SC3  924   3.842   0.779   2.219 -0.0728 -0.1418  0.1337
    1TYR     BB  925   4.352   4.034   2.842 -0.2782 -0.2781  0.1939
    1TYR    SC1  926   4.567   4.134   3.033 -0.0147  0.2660 -0.1094
    1TYR    SC2  927   4.703   4.051   3.249  0.1511 -0.2903 -0.4042
    1TYR    SC3  928   4.814   4.230   3.080  0.1274 -0.0522 -0.1755
    2LYS     BB  929   4.175   4.325   2.863 -0.1123  0.1420 -0.0234
    2LYS    SC1  930   4.241   4.393   2.573  0.3415 -0.1367 -0.0512
    2LYS    SC2  931   4.107   4.528   2.362 -0.0238  0.1946 -0.1235
    3TYR     BB  932   3.993   4.533   2.983 -0.3632 -0.0028  0.3163
    3TYR    SC1  933   3.764   4.616   2.776  0.0151  0.0101 -0.2268
    3TYR    SC2  934   3.602   4.610   2.559 -0.1487  0.1125 -0.1106
    3TYR    SC3  935   3.706   4.844   2.644 -0.2408  0.1029  0.0328
    1TYR     BB  936   1.180   5.294   5.772  0.0922 -0.1586 -0.0060
    1TYR    SC1  937   1.395   5.460   5.910  0.0317 -0.0508 -0.2876
    1TYR    SC2  938   1.632   5.572   5.976 -0.0525  0.0021 -0.0659
    1TYR    SC3  939   1.458   5.498   6.170 -0.1483 -0.1899 -0.2209
    2LYS     BB  940   0.937   5.377   5.942 -0.0454  0.2974 -0.1287
    2LYS    SC1  941   0.989   5.197   6.214  0.1281 -0.0747  0.3750
    2LYS    SC2  942   1.064   4.992   6.265 -0.1044 -0.2697  0.0177
    3TYR     BB  943   0.761   5.562   5.873  0.7023 -0.1066  0.2266
    3TYR    SC1  944   0.771   5.838   5.824  0.0104 -0.2035  0.1271
    3TYR    SC2  945   0.676   6.082   5.761  0.3229 -0.1291 -0.0836
    3TYR    SC3  946   0.753   6.029   6.014 -0.1037 -0.1403  0.0543
    1TYR     BB  947   3.642   3.237   2.630  0.2946 -0.4685 -0.0200
    1TYR    SC1  948   3.629   2.956   2.512 -0.0621 -0.1860  0.0329
    1TYR    SC2  949   3.500   2.721   2.546 -0.0026 -0.2467 -0.1457
    1TYR    SC3  950   3.581   2.796   2.300 -0.1976  0.0553 -0.1247
    2LYS     BB  951   3.877   3.345   2.500  0.0283 -0.2100  0.0088
    2LYS    SC1  952   3.892   3.498   2.255 -0.3729 -0.1582 -0.0040
    2LYS    SC2  953   4.009   3.584   2.052  0.1354  0.1573 -0.1771
    3TYR     BB  954   4.115   3.156   2.595  0.0843 -0.0491 -0.3262
    3TYR    SC1  955   4.326   3.242   2.809  0.0058 -0.1328  0.0440
    3TYR    SC2  956   4.547   3.229   2.963  0.1588  0.2838 -0.1241
    3TYR    SC3  957   4.375   3.436   2.989 -0.0060  0.1683 -0.2642
    1TYR     BB  958   1.188   7.259   7.435  0.2026 -0.3314  0.0487
    1TYR    SC1  959   1.418   7.398   7.634 -0.0596 -0.1677  0.0907
    1TYR    SC2  960   1.458   7.529   7.866  0.1493 -0.1462  0.0459
    1TYR    SC3  961   1.520   7.648   7.632 -0.2562 -0.0855 -0.0408
    2LYS     BB  962   1.230   7.300   7.121 -0.0748  0.0350  0.3404
    2LYS    SC1  963   1.117   7.562   7.050  0.0401  0.2642 -0.0374
    2LYS    SC2  964   0.979   7.745   7.009  0.1635 -0.1262  0.1730
    3TYR     BB  965   1.464   7.052   6.972  0.0076 -0.2361  0.0576
    3TYR    SC1  966   1.551   7.258   6.775  0.3525 -0.0835 -0.1000
    3TYR    SC2  967   1.593   7.420   6.563  0.3424  0.0353 -0.0131
    3TYR    SC3  968   1.771   7.415   6.765  0.4172 -0.1721 -0.0807
    1TYR     BB  969   5.024   2.106   1.467 -0.0586  0.4043 -0.2123
    1TYR    SC1  970   5.102   1.827   1.462  0.2171  0.1016 -0.2012
    1TYR    SC2  971   5.297   1.684   1.342  0.1562 -0.0928 -0.0737
    1TYR    SC3  972   5.080   1.558   1.442  0.2419  0.0492  0.3131
    2LYS     BB  973   5.243   2.236   1.265 -0.3044  0.0357 -0.3202
    2LYS    SC1  974   5.559   2.158   1.333  0.0005 -0.0350  0.1144
    2LYS    SC2  975   5.699   1.947   1.332 -0.1508  0.2205 -0.0292
    3TYR     BB  976   5.234   2.332   0.969  0.1480  0.1015  0.0597
    3TYR    SC1  977   5.155   2.648   0.956  0.1942  0.1462 -0.0808
    3TYR    SC2  978   5.144   2.917   0.967  0.1278  0.1504 -0.2284
    3TYR    SC3  979   4.925   2.776   0.896  0.1324  0.0510 -0.0502
    1TYR     BB  980   2.768   4.979   4.319 -0.2078  0.1853 -0.0370
    1TYR    SC1  981   2.431   5.034   4.281 -0.2737 -0.0260  0.0360
    1TYR    SC2  982   2.185   4.950   4.356 -0.2925  0.0384  0.0469
    1TYR    SC3  983   2.224   5.207   4.281 -0.1552  0.1281  0.4001
    2LYS     BB  984   2.873   4.794   4.115  0.1685  0.2370  0.0256
    2LYS    SC1  985   2.572   4.629   4.051  0.1060  0.2065 -0.2974
    2LYS    SC2  986   2.319   4.551   4.059  0.2921 -0.0503 -0.0285
    3TYR     BB  987   2.958   4.803   3.813 -0.0236  0.0377 -0.1082
    3TYR    SC1  988   2.774   4.638   3.596  0.0636 -0.0519 -0.3236
    3TYR    SC2  989   2.549   4.587   3.456 -0.2205 -0.2950  0.1896
    3TYR    SC3  990   2.668   4.389   3.597  0.2346 -0.1322  0.0536
    1TYR     BB  991   4.963   1.415   0.988 -0.2142  0.1010 -0.0642
    1TYR    SC1  992   4.648   1.311   1.105  0.2756 -0.1742 -0.1294
    1TYR    SC2  993   4.431   1.152   1.126  0.1332 -0.0724 -0.6569
    1TYR    SC3  994   4.402   1.410   1.052  0.4235 -0.0062 -0.5535
    2LYS     BB  995   5.166   1.197   1.072 -0.0325  0.1195 -0.0895
    2LYS    SC1  996   5.080   0.899   1.096  0.3356  0.1783 -0.2712
    2LYS    SC2  997   4.844   0.798   1.182  0.3214 -0.2528  0.2020
    3TYR     BB  998   5.424   1.275   1.161  0.3016  0.0350 -0.1255
    3TYR    SC1  999   5.642   1.076   1.193 -0.1661 -0.0783  0.2314
    3TYR    SC2 1000   5.748   0.945   0.982 -0.2998  0.1729 -0.0013
    3TYR    SC3 1001   5.843   0.901   1.232 -0.4500 -0.4859 -0.0393
    1TYR     BB 1002   3.498   4.818   3.791 -0.1991 -0.2650  0.0075
    1TYR    SC1 1003   3.460   4.708   4.067  0.0804  0.1837  0.1522
    1TYR    SC2 1004   3.546   4.758   4.318  0.1328  0.0005  0.1722
    1TYR    SC3 1005   3.345   4.582   4.277  0.2549 -0.1185  0.0733
    2LYS     BB 1006   3.792   4.730   3.668  0.1919 -0.0253  0.1178
    2LYS    SC1 1007   3.915   4.834   3.395  0.0061  0.2832 -0.1387
    2LYS    SC2 1008   4.172   4.880   3.303  0.1731 -0.0945  0.0263
    3TYR     BB 1009   3.946   4.520   3.771 -0.1798  0.0829 -0.0038
    3TYR    SC1 1010   4.175   4.455   3.550 -0.1282  0.3759 -0.3896
    3TYR    SC2 1011   4.198   4.223   3.413 -0.4159  0.2099 -0.1677
    3TYR    SC3 1012   4.368   4.426   3.362  0.1444 -0.2005 -0.0595
    1TYR     BB 1013   3.771   5.154   3.031 -0.1855 -0.0690 -0.2442
    1TYR    SC1 1014   3.546   4.941   3.102  0.3811 -0.1164  0.1139
    1TYR    SC2 1015   3.449   4.689   3.109 -0.2098  0.0862 -0.0172
    1TYR    SC3 1016   3.405   4.857   3.316 -0.4799  0.2912 -0.2311
    2LYS     BB 1017   3.682   5.492   3.054 -0.3295  0.0707  0.0474
    2LYS    SC1 1018   3.882   5.662   2.968  0.0273  0.2993  0.0763
    2LYS    SC2 1019   3.991   5.847   2.811  0.2938  0.1192  0.2076
    3TYR     BB 1020   3.312   5.406   3.143  0.4136 -0.0507 -0.1900
    3TYR    SC1 1021   3.094   5.471   2.973  0.2473 -0.0503 -0.3016
    3TYR    SC2 1022   2.857   5.488   2.845 -0.0992  0.4035  0.3336
    3TYR    SC3 1023   3.067   5.637   2.762 -0.1070  0.2090 -0.0650
    1TYR     BB 1024   2.641   7.411   3.657  0.0632 -0.0675  0.0411
    1TYR    SC1 1025   2.355   7.319   3.731 -0.1302 -0.0743 -0.5114
    1TYR    SC2 1026   2.125   7.443   3.800  0.1792  0.2004  0.1291
    1TYR    SC3 1027   2.148   7.176   3.829  0.0096  0.1989  0.2694
    2LYS     BB 1028   2.790   7.261   3.445 -0.1127 -0.0614 -0.1657
    2LYS    SC1 1029   3.103   7.213   3.576  0.1154  0.0457 -0.2722
    2LYS    SC2 1030   3.321   7.274   3.470  0.0103  0.2939  0.4149
    3TYR     BB 1031   2.672   7.043   3.239  0.1552  0.3306 -0.2855
    3TYR    SC1 1032   2.637   7.223   2.980  0.1211  0.4022  0.0340
    3TYR    SC2 1033   2.752   7.334   2.762 -0.1172  0.2254 -0.1887
    3TYR    SC3 1034   2.487   7.281   2.764 -0.0614 -0.0810  0.0153
    1TYR     BB 1035   1.447   6.326   4.581  0.0435  0.3200  0.1504
    1TYR    SC1 1036   1.691   6.498   4.538 -0.3839  0.2819  0.2740
    1TYR    SC2 1037   1.826   6.716   4.452 -0.0525 -0.1571 -0.4273
    1TYR    SC3 1038   1.951   6.530   4.603 -0.2546 -0.0077 -0.0610
    2LYS     BB 1039   1.375   6.051   4.571 -0.2430 -0.0240  0.0956
    2LYS    SC1 1040   1.524   5.798   4.452  0.0291  0.0647  0.2922
    2LYS    SC2 1041   1.726   5.666   4.399  0.0712 -0.1830 -0.3443
    3TYR     BB 1042   1.005   5.996   4.515 -0.0725  0.0293 -0.2515
    3TYR    SC1 1043   0.896   6.303   4.398  0.1257  0.1236  0.3138
    3TYR    SC2 1044   1.028   6.534   4.352 -0.1472  0.1844 -0.2835
    3TYR    SC3 1045   0.764   6.538   4.411 -0.0863  0.0298  0.0219
    1TYR     BB 1046   0.969   5.841   6.898 -0.0815 -0.1108  0.0248
    1TYR    SC1 1047   0.804   6.136   6.954 -0.2085 -0.2499 -0.1589
    1TYR    SC2 1048   0.835   6.404   6.946 -0.1485 -0.2599 -0.3195
    1TYR    SC3 1049   0.708   6.288   7.155  0.1854 -0.1434 -0.0396
    2LYS     BB 1050   0.784   5.618   6.874  0.0011 -0.1036  0.1161
    2LYS    SC1 1051   0.694   5.443   7.103 -0.1292  0.0630  0.3750
    2LYS    SC2 1052   0.652   5.394   7.380 -0.1613 -0.0139 -0.1274
    3TYR     BB 1053   1.023   5.348   6.755 -0.0102  0.3183 -0.1145
    3TYR    SC1 1054   0.732   5.147   6.655 -0.2279  0.1583 -0.0210
    3TYR    SC2 1055   0.642   4.928   6.527 -0.0568 -0.0326  0.1743
    3TYR    SC3 1056   0.470   5.083   6.665 -0.2505  0.1937 -0.2927
    1TYR     BB 1057   1.516   6.521   8.022 -0.3128  0.0601  0.0221
    1TYR    SC1 1058   1.478   6.581   8.333 -0.0906  0.1630  0.1611
    1TYR    SC2 1059   1.380   6.501   8.571  0.3254 -0.1177  0.2516
    1TYR    SC3 1060   1.433   6.762   8.528 -0.1677  0.0028  0.2955
    2LYS     BB 1061   1.713   6.316   7.973 -0.1017  0.1975 -0.0124
    2LYS    SC1 1062   1.639   6.117   8.179  0.0335 -0.1260 -0.1563
    2LYS    SC2 1063   1.519   6.063   8.385  0.1522  0.0443  0.3842
    3TYR     BB 1064   1.890   6.391   7.698 -0.1066 -0.0377  0.2520
    3TYR    SC1 1065   2.160   6.390   7.817  0.0458  0.0116  0.0173
    3TYR    SC2 1066   2.368   6.332   7.979 -0.1044  0.0203  0.2174
    3TYR    SC3 1067   2.383   6.542   7.810 -0.0017  0.1037  0.3281
    1TYR     BB 1068   3.565   1.600   3.736 -0.1305  0.0411  0.0979
    1TYR    SC1 1069   3.393   1.450   3.514  0.1155  0.0205 -0.0575
    1TYR    SC2 1070   3.246   1.224   3.497  0.2752 -0.0886 -0.0206
    1TYR    SC3 1071   3.171   1.444   3.361 -0.2430  0.0413  0.4312
    2LYS     BB 1072   3.438   1.910   3.720 -0.0873  0.1431  0.1173
    2LYS    SC1 1073   3.460   1.993   3.998  0.1618 -0.2684  0.0937
    2LYS    SC2 1074   3.577   2.154   4.157  0.0852 -0.2658  0.2773
    3TYR     BB 1075   3.281   1.990   3.546  0.0853  0.1528 -0.1015
    3TYR    SC1 1076   3.174   2.228   3.387 -0.2321  0.2197 -0.0157
    3TYR    SC2 1077   3.182   2.498   3.381 -0.6808  0.2384 -0.2843
    3TYR    SC3 1078   3.187   2.358   3.150  0.5775 -0.0593 -0.1660
    1TYR     BB 1079   1.711   6.421   6.468 -0.1031  0.2126 -0.1246
    1TYR    SC1 1080   1.570   6.448   6.202 -0.5042 -0.2527  0.1006
    1TYR    SC2 1081   1.501   6.462   5.942  0.1339  0.4069 -0.0740
    1TYR    SC3 1082   1.310   6.471   6.132 -0.3417  0.0237 -0.4964
    2LYS     BB 1083   1.971   6.294   6.559 -0.0710 -0.0209 -0.2601
    2LYS    SC1 1084   1.917   6.070   6.801  0.0476 -0.2724  0.1779
    2LYS    SC2 1085   2.004   5.820   6.900  0.0625 -0.0718  0.1035
    3TYR     BB 1086   2.218   6.352   6.392 -0.0311  0.1471  0.2940
    3TYR    SC1 1087   2.121   6.511   6.154  0.1128 -0.2080 -0.3966
    3TYR    SC2 1088   2.179   6.748   6.038  0.0134  0.0701  0.0835
    3TYR    SC3 1089   1.948   6.621   5.979 -0.0237  0.1890 -0.0352
    1TYR     BB 1090   3.173   3.167   2.586  0.0709 -0.0585  0.1597
    1TYR    SC1 1091   3.270   3.311   2.300 -0.3707  0.0095 -0.1789
    1TYR    SC2 1092   3.489   3.228   2.166 -0.2658 -0.0665  0.0344
    1TYR    SC3 1093   3.385   3.472   2.116  0.0531  0.1006  0.1471
    2LYS     BB 1094   2.928   2.922   2.512  0.1280  0.0361  0.0132
    2LYS    SC1 1095   3.064   2.763   2.296 -0.1221  0.0435 -0.1890
    2LYS    SC2 1096   3.090   2.558   2.131 -0.1218 -0.1299 -0.1467
    3TYR     BB 1097   2.645   3.056   2.418  0.0458 -0.0436 -0.1595
    3TYR    SC1 1098   2.477   2.902   2.219  0.1505 -0.1805  0.0017
    3TYR    SC2 1099   2.315   2.728   2.090  0.2329 -0.0899 -0.2301
    3TYR    SC3 1100   2.583   2.708   2.063  0.2510 -0.0590 -0.0832
   7.63267   7.63267   7.63267
