Generated by trjconv : Martini system from ../2_Creating_coordinates/TYR-ASN-TYR_aa.pdb t=   0.00000
 1000
    1TYR     BB    1   5.959   4.305   5.210 -0.0946  0.2148 -0.3108
    1TYR    SC1    2   5.855   4.090   5.299  0.0020  0.0249  0.0714
    1TYR    SC2    3   5.824   3.887   5.475  0.0381  0.4111  0.5496
    1TYR    SC3    4   5.608   4.023   5.385 -0.0164  0.0049  0.0036
    2ASN     BB    5   5.732   4.454   5.028  0.1647  0.3110  0.0503
    2ASN    SC1    6   5.515   4.511   5.258  0.0504 -0.1781  0.0297
    3TYR     BB    7   5.845   4.623   4.779  0.0828 -0.0550  0.0799
    3TYR    SC1    8   6.162   4.605   4.842  0.2872  0.1352 -0.1943
    3TYR    SC2    9   6.385   4.452   4.834  0.2709  0.0705  0.2591
    3TYR    SC3   10   6.405   4.718   4.877  0.2636  0.0762  0.2274
    1TYR     BB   11   5.734   1.119   5.388 -0.0641  0.2568 -0.0861
    1TYR    SC1   12   5.677   1.078   5.649  0.1674  0.1051  0.1648
    1TYR    SC2   13   5.651   0.966   5.893  0.2303  0.0269  0.1363
    1TYR    SC3   14   5.666   1.234   5.868  0.0226  0.0469  0.2006
    2ASN     BB   15   5.678   1.041   5.115  0.1528 -0.0912  0.3162
    2ASN    SC1   16   5.971   1.104   4.927 -0.0160 -0.2302  0.1737
    3TYR     BB   17   5.525   0.842   4.926  0.2044 -0.2208 -0.2977
    3TYR    SC1   18   5.580   0.684   4.686  0.2115 -0.1986  0.0528
    3TYR    SC2   19   5.476   0.540   4.483  0.0748 -0.2890  0.1838
    3TYR    SC3   20   5.707   0.676   4.448 -0.0022 -0.2142 -0.0640
    1TYR     BB   21   1.012   4.555   1.951 -0.0156 -0.1142 -0.1712
    1TYR    SC1   22   1.234   4.596   2.171 -0.2028 -0.0992 -0.3460
    1TYR    SC2   23   1.333   4.740   2.377 -0.0322 -0.1363 -0.3996
    1TYR    SC3   24   1.207   4.506   2.425 -0.0070 -0.1373 -0.3369
    2ASN     BB   25   0.805   4.754   2.072 -0.1745 -0.0505 -0.2585
    2ASN    SC1   26   0.516   4.691   2.123  0.0926  0.1453 -0.1751
    3TYR     BB   27   0.915   4.992   2.294  0.2645  0.0003  0.2888
    3TYR    SC1   28   0.627   5.092   2.392  0.1903 -0.0930  0.1141
    3TYR    SC2   29   0.379   5.125   2.291  0.3036 -0.0716 -0.1681
    3TYR    SC3   30   0.412   5.014   2.535  0.0089  0.1155 -0.0367
    1TYR     BB   31   4.200   4.825   3.022  0.0701  0.0079  0.2660
    1TYR    SC1   32   4.194   4.553   2.868  0.2000  0.1751  0.0548
    1TYR    SC2   33   4.393   4.377   2.821  0.2064  0.2165 -0.0763
    1TYR    SC3   34   4.181   4.388   2.655 -0.0037  0.0356  0.1709
    2ASN     BB   35   4.462   4.903   3.188  0.2194  0.1806 -0.3479
    2ASN    SC1   36   4.554   5.180   3.058  0.1008  0.3942  0.1351
    3TYR     BB   37   4.749   4.735   3.190 -0.2730  0.0706  0.2433
    3TYR    SC1   38   4.761   4.428   3.104  0.2539  0.1157  0.1846
    3TYR    SC2   39   4.696   4.171   3.052  0.0581  0.1506  0.2493
    3TYR    SC3   40   4.946   4.260   3.001  0.0189  0.0541 -0.1596
    1TYR     BB   41   5.335   2.119   6.223  0.1126 -0.1581  0.0338
    1TYR    SC1   42   5.257   2.333   6.378  0.0513 -0.1142 -0.1647
    1TYR    SC2   43   5.045   2.474   6.469  0.0849 -0.0333 -0.2094
    1TYR    SC3   44   5.295   2.576   6.490  0.1191 -0.1238 -0.1660
    2ASN     BB   45   5.622   2.064   6.151  0.3961  0.1645 -0.1866
    2ASN    SC1   46   5.717   1.776   6.277 -0.0505 -0.0078  0.2026
    3TYR     BB   47   5.813   2.146   5.938  0.3459 -0.0488  0.1113
    3TYR    SC1   48   5.896   1.864   5.817 -0.0460 -0.0504  0.0955
    3TYR    SC2   49   5.794   1.619   5.766 -0.2200 -0.0346  0.3497
    3TYR    SC3   50   6.059   1.661   5.744 -0.1759 -0.2724  0.3970
    1TYR     BB   51   4.243   2.611   3.793 -0.0089 -0.0730  0.1175
    1TYR    SC1   52   3.988   2.792   3.868 -0.1563 -0.3146 -0.0858
    1TYR    SC2   53   3.825   2.942   4.022  0.0927 -0.1910  0.0647
    1TYR    SC3   54   3.746   2.867   3.775 -0.1012  0.0544  0.0475
    2ASN     BB   55   4.481   2.743   4.033 -0.0979  0.0177  0.0668
    2ASN    SC1   56   4.340   2.826   4.229 -0.0350 -0.0109  0.0606
    3TYR     BB   57   4.730   2.845   3.969 -0.1516 -0.3828 -0.1002
    3TYR    SC1   58   4.787   3.009   3.691 -0.1649  0.0002  0.1528
    3TYR    SC2   59   4.783   2.999   3.421 -0.0300 -0.1762  0.1548
    3TYR    SC3   60   4.952   3.167   3.548  0.0050 -0.1921  0.1296
    1TYR     BB   61   4.297   1.845   6.249  0.0962  0.0269  0.1943
    1TYR    SC1   62   4.431   1.734   5.999 -0.0157 -0.0628 -0.1483
    1TYR    SC2   63   4.544   1.789   5.760  0.0293 -0.1289 -0.1422
    1TYR    SC3   64   4.504   1.532   5.836 -0.0858 -0.1068 -0.1260
    2ASN     BB   65   4.254   1.564   6.427 -0.0907  0.2030  0.0487
    2ASN    SC1   66   3.926   1.581   6.513  0.2506  0.3144 -0.1309
    3TYR     BB   67   4.448   1.322   6.325 -0.1381 -0.0436 -0.0661
    3TYR    SC1   68   4.692   1.249   6.479 -0.0794 -0.3580  0.1791
    3TYR    SC2   69   4.941   1.157   6.433  0.0140  0.0255 -0.1535
    3TYR    SC3   70   4.905   1.381   6.579 -0.1525 -0.1098  0.0195
    1TYR     BB   71   6.746   2.348   5.827  0.4292  0.1900  0.2044
    1TYR    SC1   72   6.744   2.237   5.561  0.1372  0.1419  0.0401
    1TYR    SC2   73   6.574   2.203   5.354  0.3163  0.0919 -0.1018
    1TYR    SC3   74   6.840   2.203   5.311  0.3529  0.2287  0.1090
    2ASN     BB   75   6.608   2.607   6.022  0.0025 -0.0596 -0.2875
    2ASN    SC1   76   6.873   2.768   6.146 -0.1699 -0.3246  0.0279
    3TYR     BB   77   6.299   2.597   6.049 -0.2650  0.1861 -0.1744
    3TYR    SC1   78   6.157   2.826   6.169  0.1302  0.1225 -0.1675
    3TYR    SC2   79   6.035   3.066   6.184 -0.2932 -0.0826 -0.1525
    3TYR    SC3   80   6.054   2.911   6.404 -0.0864 -0.0971 -0.1781
    1TYR     BB   81   4.868   4.136   2.281  0.0435 -0.4272 -0.4067
    1TYR    SC1   82   4.724   4.207   2.033  0.0199  0.1319  0.0733
    1TYR    SC2   83   4.548   4.096   1.861  0.1370 -0.2479  0.1855
    1TYR    SC3   84   4.810   4.113   1.795  0.1898 -0.4338  0.3344
    2ASN     BB   85   4.749   4.033   2.564 -0.2245 -0.0513  0.1761
    2ASN    SC1   86   5.031   3.908   2.683  0.0621 -0.1393 -0.0390
    3TYR     BB   87   4.519   3.922   2.550  0.0607 -0.0511 -0.0376
    3TYR    SC1   88   4.402   3.869   2.818 -0.1432 -0.0442 -0.0880
    3TYR    SC2   89   4.197   3.859   2.994  0.0051  0.4610  0.1381
    3TYR    SC3   90   4.446   3.790   3.072 -0.0083  0.2072 -0.0288
    1TYR     BB   91   6.022   2.069   4.899  0.0328  0.4251 -0.1246
    1TYR    SC1   92   6.175   1.939   5.140  0.1647 -0.1899  0.0111
    1TYR    SC2   93   6.131   1.914   5.405  0.1031  0.3649  0.0683
    1TYR    SC3   94   6.355   1.811   5.295  0.0078 -0.0985  0.2767
    2ASN     BB   95   5.851   1.809   4.718  0.1587  0.0757 -0.0452
    2ASN    SC1   96   5.588   1.901   4.609 -0.0105  0.0518 -0.0509
    3TYR     BB   97   5.886   1.503   4.688  0.1009 -0.3940  0.5070
    3TYR    SC1   98   6.043   1.373   4.479 -0.2336 -0.2221 -0.0487
    3TYR    SC2   99   6.184   1.311   4.257  0.1638  0.0257  0.1208
    3TYR    SC3  100   6.257   1.209   4.496 -0.1901 -0.1476  0.1623
    1TYR     BB  101   1.959   4.220   3.206  0.1721  0.2578  0.0615
    1TYR    SC1  102   1.848   3.964   3.265  0.3798 -0.4676 -0.1520
    1TYR    SC2  103   1.831   3.770   3.452  0.1452 -0.3171 -0.0111
    1TYR    SC3  104   1.681   3.756   3.228 -0.0796 -0.1710  0.1247
    2ASN     BB  105   1.948   4.170   2.837 -0.0434 -0.0022 -0.0147
    2ASN    SC1  106   1.753   3.970   2.722 -0.1779  0.1977 -0.0058
    3TYR     BB  107   2.104   4.298   2.598 -0.3499 -0.2648  0.1938
    3TYR    SC1  108   1.947   4.288   2.322  0.0821  0.0000 -0.2186
    3TYR    SC2  109   1.843   4.261   2.074  0.0330 -0.1706 -0.1809
    3TYR    SC3  110   1.682   4.243   2.290  0.0676  0.0248 -0.1366
    1TYR     BB  111   2.140   5.443   1.348 -0.2527 -0.0648  0.1433
    1TYR    SC1  112   2.187   5.183   1.181 -0.2152 -0.1474 -0.0371
    1TYR    SC2  113   2.424   5.073   1.111 -0.2489 -0.1066 -0.2200
    1TYR    SC3  114   2.212   4.914   1.166 -0.1608 -0.1461  0.0221
    2ASN     BB  115   2.229   5.402   1.629 -0.0525  0.0325 -0.0244
    2ASN    SC1  116   2.365   5.649   1.738  0.0332  0.0379 -0.0665
    3TYR     BB  117   2.181   5.063   1.736 -0.0470 -0.2046  0.3014
    3TYR    SC1  118   2.388   4.899   1.558 -0.2757 -0.3874 -0.1485
    3TYR    SC2  119   2.453   4.654   1.466  0.3114 -0.3545  0.1231
    3TYR    SC3  120   2.592   4.762   1.670 -0.2536  0.0122  0.3417
    1TYR     BB  121   5.186   3.829   4.242 -0.1843 -0.0090  0.2370
    1TYR    SC1  122   5.079   3.738   4.488 -0.0841 -0.1325 -0.0367
    1TYR    SC2  123   4.843   3.703   4.615 -0.0527 -0.1416  0.0193
    1TYR    SC3  124   5.055   3.803   4.749 -0.1114  0.1716 -0.1104
    2ASN     BB  125   5.156   4.160   4.170 -0.2725  0.2698 -0.6062
    2ASN    SC1  126   5.046   4.272   4.482 -0.0258 -0.2106  0.3118
    3TYR     BB  127   5.141   4.319   3.887 -0.1655 -0.2106 -0.0801
    3TYR    SC1  128   5.433   4.457   3.792 -0.1925  0.1564  0.0306
    3TYR    SC2  129   5.631   4.445   3.609 -0.1177 -0.0556  0.1209
    3TYR    SC3  130   5.691   4.478   3.871 -0.2304  0.3997  0.1001
    1TYR     BB  131   6.210   2.960   3.706 -0.1612 -0.2460 -0.0991
    1TYR    SC1  132   6.270   2.977   3.405 -0.1426 -0.0311 -0.0538
    1TYR    SC2  133   6.463   3.037   3.225  0.1575 -0.2021  0.1991
    1TYR    SC3  134   6.204   3.088   3.168  0.2652 -0.0459 -0.1838
    2ASN     BB  135   6.172   3.246   3.812 -0.1108  0.5313  0.1894
    2ASN    SC1  136   6.042   3.448   3.585  0.4214 -0.0070  0.2991
    3TYR     BB  137   6.186   3.431   4.114 -0.0891  0.2353  0.3654
    3TYR    SC1  138   6.145   3.713   4.038 -0.2118  0.0272 -0.1634
    3TYR    SC2  139   6.129   3.870   3.819 -0.3516  0.3220  0.0513
    3TYR    SC3  140   6.227   3.970   4.051 -0.0581 -0.0301  0.0895
    1TYR     BB  141   6.671   3.298   4.162  0.0531  0.3165 -0.0617
    1TYR    SC1  142   6.970   3.318   4.040  0.4284 -0.2099  0.0148
    1TYR    SC2  143   7.165   3.207   3.890  0.1813 -0.0231 -0.4749
    1TYR    SC3  144   7.084   3.460   3.840  0.1323  0.0756  0.0376
    2ASN     BB  145   6.743   3.276   4.462  0.1119 -0.1205  0.0397
    2ASN    SC1  146   6.785   3.002   4.590  0.1704  0.2052  0.0079
    3TYR     BB  147   6.590   3.481   4.642  0.3861 -0.0308 -0.1938
    3TYR    SC1  148   6.279   3.558   4.597 -0.0152 -0.1070  0.1148
    3TYR    SC2  149   6.019   3.499   4.638 -0.1045 -0.0247 -0.2811
    3TYR    SC3  150   6.087   3.699   4.470  0.2180 -0.0583 -0.1986
    1TYR     BB  151   1.882   5.839   1.789  0.3192  0.0458 -0.4046
    1TYR    SC1  152   1.959   5.925   1.554 -0.1633 -0.0361  0.1341
    1TYR    SC2  153   1.935   5.855   1.294 -0.1966 -0.1701  0.1723
    1TYR    SC3  154   1.931   6.116   1.365  0.2165 -0.1064 -0.0050
    2ASN     BB  155   1.563   5.619   1.826  0.0406 -0.2408 -0.1002
    2ASN    SC1  156   1.725   5.385   1.764 -0.3543  0.5534 -0.3621
    3TYR     BB  157   1.361   5.811   1.975  0.2129  0.3337  0.3004
    3TYR    SC1  158   1.179   5.622   2.122  0.2258 -0.2768 -0.0960
    3TYR    SC2  159   0.996   5.679   2.312  0.3320 -0.1617 -0.0255
    3TYR    SC3  160   0.990   5.440   2.185  0.2947 -0.2633  0.1630
    1TYR     BB  161   4.395   3.230   3.945  0.0282 -0.2060  0.1520
    1TYR    SC1  162   4.683   3.367   4.010  0.2640 -0.3625  0.2224
    1TYR    SC2  163   4.817   3.559   4.145 -0.0198  0.2555 -0.3092
    1TYR    SC3  164   4.842   3.540   3.877 -0.3859 -0.1339 -0.3287
    2ASN     BB  165   4.395   3.280   3.535  0.2560  0.1190  0.1492
    2ASN    SC1  166   4.241   2.993   3.500  0.0343 -0.0137  0.1467
    3TYR     BB  167   4.507   3.468   3.427  0.1994  0.2193 -0.0008
    3TYR    SC1  168   4.762   3.584   3.325  0.1114  0.0184 -0.1380
    3TYR    SC2  169   5.022   3.654   3.345  0.0804  0.0672  0.1421
    3TYR    SC3  170   4.862   3.777   3.166  0.2563  0.0117 -0.0573
    1TYR     BB  171   3.317   4.396   1.967 -0.1833  0.1257 -0.0946
    1TYR    SC1  172   3.183   4.428   1.675 -0.2511 -0.1029 -0.1850
    1TYR    SC2  173   2.945   4.500   1.568 -0.2129 -0.0032 -0.2043
    1TYR    SC3  174   3.121   4.354   1.423 -0.0940  0.2676 -0.3404
    2ASN     BB  175   3.165   4.261   2.214  0.0310  0.1822  0.4006
    2ASN    SC1  176   2.952   4.095   2.044  0.2645  0.1297  0.2683
    3TYR     BB  177   3.467   4.183   2.437  0.2202  0.1086  0.2681
    3TYR    SC1  178   3.313   4.179   2.708 -0.0082  0.1398 -0.1048
    3TYR    SC2  179   3.408   4.119   2.954  0.0950  0.2003 -0.1291
    3TYR    SC3  180   3.142   4.144   2.915  0.0758  0.1567 -0.0315
    1TYR     BB  181   3.381   3.435   4.346 -0.0145 -0.3591 -0.4566
    1TYR    SC1  182   3.250   3.683   4.270  0.1784 -0.3883  0.2367
    1TYR    SC2  183   3.111   3.765   4.053  0.1441 -0.4408  0.2387
    1TYR    SC3  184   3.101   3.908   4.281  0.2770 -0.3185  0.1697
    2ASN     BB  185   3.628   3.395   4.136  0.0430  0.1960  0.0880
    2ASN    SC1  186   3.473   3.332   3.891  0.0152 -0.1686 -0.1722
    3TYR     BB  187   3.850   3.460   4.204  0.2024  0.2983 -0.2418
    3TYR    SC1  188   3.863   3.551   4.513  0.1191 -0.1432 -0.0583
    3TYR    SC2  189   3.949   3.627   4.757  0.2409 -0.1636 -0.0938
    3TYR    SC3  190   3.695   3.541   4.724  0.1460  0.0777 -0.0233
    1TYR     BB  191   2.456   4.495   3.960 -0.1458  0.2991  0.2679
    1TYR    SC1  192   2.208   4.564   3.803  0.0366 -0.0493 -0.2296
    1TYR    SC2  193   2.030   4.536   3.602 -0.0800  0.1181 -0.1519
    1TYR    SC3  194   1.952   4.642   3.839  0.0138 -0.2326  0.0442
    2ASN     BB  195   2.718   4.557   3.761  0.0512 -0.1128  0.0540
    2ASN    SC1  196   2.833   4.811   3.874 -0.1152  0.0522  0.2651
    3TYR     BB  197   2.552   4.527   3.423 -0.0688  0.0351 -0.0869
    3TYR    SC1  198   2.397   4.268   3.497  0.0018 -0.1459 -0.0488
    3TYR    SC2  199   2.224   4.066   3.543 -0.2509  0.0305 -0.1941
    3TYR    SC3  200   2.417   4.038   3.356 -0.1432 -0.1530 -0.0598
    1TYR     BB  201   1.285   5.056   1.950 -0.0277  0.1509  0.0818
    1TYR    SC1  202   1.379   5.192   2.184 -0.0311 -0.3001  0.2222
    1TYR    SC2  203   1.390   5.324   2.419 -0.0473  0.1378 -0.0096
    1TYR    SC3  204   1.615   5.289   2.273 -0.0357 -0.1400  0.0673
    2ASN     BB  205   1.471   4.897   1.652 -0.2063  0.0613  0.0710
    2ASN    SC1  206   1.229   4.822   1.516 -0.0750 -0.0265 -0.0372
    3TYR     BB  207   1.778   4.998   1.447  0.0042  0.0009 -0.0974
    3TYR    SC1  208   1.936   4.718   1.482 -0.2298 -0.1601  0.0074
    3TYR    SC2  209   2.019   4.482   1.583 -0.0342 -0.0406  0.1356
    3TYR    SC3  210   2.056   4.537   1.321 -0.1810 -0.1932  0.0804
    1TYR     BB  211   5.524   4.155   4.473 -0.0143  0.0243 -0.1318
    1TYR    SC1  212   5.521   4.433   4.359  0.3097 -0.0576 -0.3526
    1TYR    SC2  213   5.597   4.690   4.329 -0.0902  0.1175  0.0075
    1TYR    SC3  214   5.376   4.599   4.204  0.0513 -0.0593 -0.1213
    2ASN     BB  215   5.625   4.096   4.725 -0.1855  0.0418  0.0924
    2ASN    SC1  216   5.421   4.126   4.948  0.3008  0.2272  0.0495
    3TYR     BB  217   5.842   3.912   4.840 -0.0386  0.2002 -0.1824
    3TYR    SC1  218   6.122   3.965   4.855  0.0568  0.0429  0.2061
    3TYR    SC2  219   6.389   3.937   4.874  0.0584 -0.1764 -0.0601
    3TYR    SC3  220   6.282   4.083   4.673 -0.0236 -0.0302  0.0860
    1TYR     BB  221   2.034   4.118   3.971 -0.2253  0.2099  0.0903
    1TYR    SC1  222   1.823   4.178   3.785 -0.0137  0.1878  0.0771
    1TYR    SC2  223   1.617   4.177   3.609  0.1291  0.4549 -0.1011
    1TYR    SC3  224   1.614   4.346   3.820 -0.1783 -0.0603  0.3413
    2ASN     BB  225   1.916   4.388   4.262 -0.0259 -0.0177  0.2539
    2ASN    SC1  226   1.673   4.249   4.298 -0.0401 -0.1089  0.0151
    3TYR     BB  227   2.071   4.597   4.328 -0.1001  0.0164 -0.2335
    3TYR    SC1  228   2.280   4.813   4.274 -0.0450  0.1518 -0.2242
    3TYR    SC2  229   2.349   4.971   4.066  0.0794  0.0217 -0.2836
    3TYR    SC3  230   2.500   4.968   4.290  0.0235  0.0576 -0.2450
    1TYR     BB  231   2.208   6.493   2.196 -0.1237  0.4439  0.1748
    1TYR    SC1  232   1.959   6.397   2.062 -0.2924 -0.1160  0.3192
    1TYR    SC2  233   1.802   6.354   1.847 -0.1125  0.0544  0.1483
    1TYR    SC3  234   1.751   6.226   2.079 -0.3196 -0.1209  0.0113
    2ASN     BB  235   2.247   6.830   2.200 -0.0551 -0.0312  0.1392
    2ASN    SC1  236   2.563   6.973   2.266 -0.1763  0.4722 -0.0383
    3TYR     BB  237   1.900   6.896   2.143  0.0600 -0.2933 -0.0228
    3TYR    SC1  238   1.762   6.728   2.333 -0.1584 -0.1925  0.0337
    3TYR    SC2  239   1.580   6.531   2.361 -0.3945  0.0156  0.0096
    3TYR    SC3  240   1.628   6.701   2.565 -0.1469 -0.0988  0.0519
    1TYR     BB  241   6.510   2.195   4.883  0.3389  0.2114 -0.1737
    1TYR    SC1  242   6.665   1.926   4.935 -0.2013 -0.1093 -0.4075
    1TYR    SC2  243   6.823   1.802   5.115 -0.3284 -0.0829 -0.2760
    1TYR    SC3  244   6.841   1.738   4.854 -0.0373 -0.0165 -0.2767
    2ASN     BB  245   6.340   2.244   4.609 -0.1474  0.2949  0.3411
    2ASN    SC1  246   6.370   2.585   4.564  0.2883  0.4264  0.3063
    3TYR     BB  247   6.303   1.983   4.488 -0.0222  0.2521 -0.2094
    3TYR    SC1  248   6.366   1.736   4.663  0.3938  0.1277 -0.1072
    3TYR    SC2  249   6.313   1.578   4.875 -0.1534  0.2258 -0.1522
    3TYR    SC3  250   6.498   1.502   4.694  0.2591  0.0945  0.2950
    1TYR     BB  251   1.611   4.624   3.330  0.1038  0.1753 -0.1622
    1TYR    SC1  252   1.353   4.557   3.492 -0.1004  0.0748  0.0446
    1TYR    SC2  253   1.086   4.601   3.490 -0.0934  0.1870  0.4463
    1TYR    SC3  254   1.200   4.471   3.697  0.1169 -0.2560  0.0777
    2ASN     BB  255   1.571   4.411   3.034 -0.2522 -0.2370 -0.0990
    2ASN    SC1  256   1.377   4.213   3.176  0.3693  0.0141 -0.1028
    3TYR     BB  257   1.601   4.465   2.736  0.1505 -0.0925  0.0656
    3TYR    SC1  258   1.768   4.664   2.575 -0.1473 -0.0691 -0.0210
    3TYR    SC2  259   1.744   4.928   2.524 -0.0264 -0.0365  0.0851
    3TYR    SC3  260   1.984   4.807   2.499 -0.0296 -0.0839  0.2712
    1TYR     BB  261   6.319   4.001   5.396 -0.3898 -0.0752  0.1411
    1TYR    SC1  262   6.174   3.754   5.284 -0.3589 -0.1199  0.0814
    1TYR    SC2  263   6.071   3.568   5.118 -0.2351 -0.2331  0.1293
    1TYR    SC3  264   6.245   3.495   5.311 -0.0183 -0.0395  0.0128
    2ASN     BB  265   6.518   4.235   5.324  0.0068  0.0694 -0.0282
    2ASN    SC1  266   6.436   4.541   5.373 -0.0952  0.0663  0.2947
    3TYR     BB  267   6.758   4.186   5.235  0.1292 -0.0258  0.1466
    3TYR    SC1  268   6.797   4.290   4.947 -0.2533  0.0706 -0.1050
    3TYR    SC2  269   6.776   4.320   4.680 -0.1794  0.1053 -0.1074
    3TYR    SC3  270   6.892   4.513   4.829  0.0626 -0.0481 -0.0900
    1TYR     BB  271   3.312   2.976   2.849  0.1164  0.3706 -0.0413
    1TYR    SC1  272   3.611   2.848   2.965 -0.0665  0.1440 -0.0191
    1TYR    SC2  273   3.786   2.948   3.144 -0.0243  0.2011 -0.0916
    1TYR    SC3  274   3.857   2.738   2.990 -0.0617  0.1501 -0.0397
    2ASN     BB  275   3.205   3.169   3.094 -0.3464 -0.0525  0.0770
    2ASN    SC1  276   2.921   3.213   3.064 -0.0214 -0.1945 -0.2732
    3TYR     BB  277   3.495   3.302   3.300 -0.0185 -0.3558 -0.0286
    3TYR    SC1  278   3.383   3.587   3.425  0.0757 -0.0128  0.0606
    3TYR    SC2  279   3.171   3.708   3.310  0.1947  0.1108 -0.0319
    3TYR    SC3  280   3.186   3.690   3.579 -0.0686 -0.1497 -0.0281
    1TYR     BB  281   4.935   2.008   5.944  0.0988 -0.1989 -0.3259
    1TYR    SC1  282   4.879   1.771   6.076  0.0133 -0.0053  0.0409
    1TYR    SC2  283   4.777   1.686   6.311 -0.0192 -0.2873 -0.0699
    1TYR    SC3  284   4.972   1.544   6.189  0.0891 -0.0737 -0.1520
    2ASN     BB  285   4.684   2.217   6.000  0.0347 -0.0238 -0.1262
    2ASN    SC1  286   4.653   2.171   6.305  0.3516  0.1049  0.1477
    3TYR     BB  287   4.554   2.483   5.885 -0.0141 -0.0635  0.1467
    3TYR    SC1  288   4.511   2.681   6.164 -0.4603  0.1174 -0.1143
    3TYR    SC2  289   4.397   2.788   6.384 -0.1841  0.0954  0.0448
    3TYR    SC3  290   4.665   2.798   6.352 -0.2324  0.2757 -0.3890
    1TYR     BB  291   0.458   5.616   2.052 -0.0859 -0.0997  0.0564
    1TYR    SC1  292   0.593   5.364   1.992  0.0267 -0.1614  0.1970
    1TYR    SC2  293   0.525   5.134   1.868 -0.1729 -0.0095  0.0147
    1TYR    SC3  294   0.779   5.226   1.854 -0.1387 -0.1162 -0.0790
    2ASN     BB  295   0.438   5.744   2.344  0.0236  0.3730 -0.0963
    2ASN    SC1  296   0.239   5.977   2.325  0.0021 -0.1534 -0.0585
    3TYR     BB  297   0.411   5.513   2.661 -0.1665  0.2068  0.0453
    3TYR    SC1  298   0.165   5.632   2.774 -0.0964 -0.4525  0.1630
    3TYR    SC2  299  -0.029   5.771   2.649  0.0410 -0.2164  0.2041
    3TYR    SC3  300   0.018   5.812   2.912  0.3063 -0.0844  0.1398
    1TYR     BB  301   1.721   5.838   3.048  0.0922  0.0505 -0.0359
    1TYR    SC1  302   1.742   5.910   3.328  0.1924  0.0055 -0.0381
    1TYR    SC2  303   1.697   6.088   3.525  0.1005  0.0590 -0.1065
    1TYR    SC3  304   1.791   5.842   3.584 -0.0541  0.0276  0.0181
    2ASN     BB  305   2.057   5.818   2.903  0.1098  0.0094  0.3314
    2ASN    SC1  306   2.193   6.043   3.048 -0.0595 -0.0802 -0.1128
    3TYR     BB  307   2.169   5.661   2.607 -0.2616 -0.0503 -0.1593
    3TYR    SC1  308   2.188   5.428   2.418 -0.2392  0.2762 -0.1080
    3TYR    SC2  309   2.084   5.443   2.169  0.0528 -0.1126 -0.2674
    3TYR    SC3  310   2.032   5.228   2.324 -0.2566  0.1969  0.0832
    1TYR     BB  311   3.837   3.897   2.575  0.0188 -0.0038  0.0184
    1TYR    SC1  312   3.795   4.151   2.753  0.0133  0.0345  0.0536
    1TYR    SC2  313   3.725   4.411   2.772  0.0165  0.0398 -0.0054
    1TYR    SC3  314   3.825   4.283   2.987  0.0403  0.0948  0.0166
    2ASN     BB  315   3.463   3.706   2.591  0.0240  0.0889  0.0184
    2ASN    SC1  316   3.396   3.692   2.287  0.1830 -0.1597  0.1165
    3TYR     BB  317   3.259   3.594   2.755 -0.0582  0.1537  0.0967
    3TYR    SC1  318   3.093   3.416   2.572 -0.0421 -0.1147 -0.1177
    3TYR    SC2  319   2.846   3.311   2.606 -0.1224  0.1362  0.1245
    3TYR    SC3  320   2.908   3.441   2.377 -0.1447 -0.0999 -0.0196
    1TYR     BB  321   3.164   5.508   1.627 -0.0615 -0.2097 -0.1402
    1TYR    SC1  322   2.969   5.281   1.716  0.0831 -0.0785 -0.4295
    1TYR    SC2  323   2.877   5.078   1.870 -0.0030  0.1197 -0.2107
    1TYR    SC3  324   2.703   5.236   1.737  0.0290  0.3345 -0.0061
    2ASN     BB  325   3.130   5.875   1.608  0.0405 -0.2100  0.0411
    2ASN    SC1  326   2.794   5.822   1.659  0.0691 -0.1932  0.0326
    3TYR     BB  327   3.343   6.102   1.358 -0.0308  0.3113  0.0890
    3TYR    SC1  328   3.281   6.341   1.126  0.1962  0.1783  0.1445
    3TYR    SC2  329   3.139   6.543   1.017  0.0917  0.0866  0.1093
    3TYR    SC3  330   3.134   6.297   0.904  0.1131  0.0312  0.2268
    1TYR     BB  331   5.140   1.866   5.491  0.0349 -0.0679  0.3188
    1TYR    SC1  332   4.952   2.090   5.469 -0.1610  0.0284 -0.1974
    1TYR    SC2  333   4.857   2.337   5.522  0.1779  0.0483  0.4460
    1TYR    SC3  334   4.688   2.128   5.502 -0.0931  0.2855  0.1168
    2ASN     BB  335   5.390   1.945   5.713 -0.0668  0.2048  0.0073
    2ASN    SC1  336   5.352   1.724   5.906  0.0104 -0.2391  0.1947
    3TYR     BB  337   5.391   2.270   5.727 -0.3774 -0.0043  0.3642
    3TYR    SC1  338   5.328   2.339   5.449  0.1646  0.4647 -0.0991
    3TYR    SC2  339   5.174   2.515   5.314 -0.1081 -0.0219 -0.4609
    3TYR    SC3  340   5.241   2.279   5.201  0.1143 -0.2289  0.0618
    1TYR     BB  341   3.544   5.231   1.529  0.0256  0.0504 -0.1295
    1TYR    SC1  342   3.400   4.989   1.476 -0.2697  0.1947 -0.1161
    1TYR    SC2  343   3.265   4.776   1.378 -0.2124 -0.0369  0.2838
    1TYR    SC3  344   3.192   4.886   1.614  0.0035  0.1401  0.2724
    2ASN     BB  345   3.845   5.258   1.472  0.1974 -0.0373 -0.0929
    2ASN    SC1  346   3.940   5.316   1.159  0.1998 -0.0420 -0.0268
    3TYR     BB  347   4.127   5.068   1.589 -0.0102 -0.0337 -0.0720
    3TYR    SC1  348   4.295   4.965   1.396  0.1135  0.0007 -0.0246
    3TYR    SC2  349   4.522   4.850   1.305  0.0113 -0.2548  0.0311
    3TYR    SC3  350   4.319   4.902   1.134  0.0930 -0.0633 -0.0113
    1TYR     BB  351   4.822   1.918   3.537 -0.0282  0.0707 -0.0829
    1TYR    SC1  352   4.927   2.053   3.286 -0.2096  0.0336 -0.4925
    1TYR    SC2  353   5.133   2.195   3.184  0.1873  0.0281  0.2196
    1TYR    SC3  354   4.884   2.299   3.183  0.2456  0.2009 -0.3156
    2ASN     BB  355   4.923   1.840   3.772  0.3525 -0.0212  0.0940
    2ASN    SC1  356   4.770   1.947   4.021 -0.4048  0.2113 -0.0174
    3TYR     BB  357   5.254   1.753   3.734  0.1204 -0.1005  0.3034
    3TYR    SC1  358   5.269   1.792   3.444 -0.0372  0.0042  0.0462
    3TYR    SC2  359   5.175   1.669   3.222 -0.1541  0.0127  0.0901
    3TYR    SC3  360   5.393   1.829   3.207 -0.2521  0.1357 -0.0490
    1TYR     BB  361   5.987   2.749   4.128 -0.1130 -0.0675 -0.1781
    1TYR    SC1  362   6.017   2.449   4.183 -0.0673  0.0953 -0.1995
    1TYR    SC2  363   6.006   2.181   4.152  0.4210  0.0644 -0.1999
    1TYR    SC3  364   5.919   2.295   4.381  0.2501 -0.0955 -0.1826
    2ASN     BB  365   6.227   2.917   4.224 -0.0125  0.0397  0.0030
    2ASN    SC1  366   6.279   3.066   4.446  0.0044 -0.0032 -0.5109
    3TYR     BB  367   6.508   2.841   4.064 -0.0803  0.0615  0.1977
    3TYR    SC1  368   6.588   2.516   4.088 -0.0099  0.0894  0.1613
    3TYR    SC2  369   6.471   2.273   4.094  0.0437  0.0662  0.3437
    3TYR    SC3  370   6.723   2.299   4.001 -0.0957  0.1155 -0.0451
    1TYR     BB  371   1.226   5.932   0.923 -0.1088  0.1780  0.1227
    1TYR    SC1  372   1.152   6.149   1.137  0.5466  0.3143 -0.0945
    1TYR    SC2  373   0.973   6.212   1.329  0.3764  0.1456 -0.1933
    1TYR    SC3  374   1.180   6.378   1.279  0.5314  0.1071  0.2574
    2ASN     BB  375   1.555   5.967   0.955 -0.2827  0.1968  0.1011
    2ASN    SC1  376   1.630   6.240   1.013  0.1524 -0.1476 -0.2389
    3TYR     BB  377   1.774   5.768   0.821  0.2761  0.1987 -0.1420
    3TYR    SC1  378   1.883   5.505   0.898  0.2012  0.1764  0.0095
    3TYR    SC2  379   2.034   5.295   0.821 -0.0753  0.1029 -0.3697
    3TYR    SC3  380   1.827   5.258   0.991  0.1773  0.1653 -0.0342
    1TYR     BB  381   1.218   5.167   3.333 -0.4890 -0.0088 -0.0142
    1TYR    SC1  382   1.027   4.987   3.168 -0.0972 -0.2121  0.1618
    1TYR    SC2  383   0.814   4.980   3.003 -0.1780 -0.0170  0.2546
    1TYR    SC3  384   0.812   4.836   3.231 -0.1140 -0.1953  0.1448
    2ASN     BB  385   1.268   5.047   3.647 -0.1742  0.0203 -0.0901
    2ASN    SC1  386   1.526   4.982   3.752 -0.0593  0.1685 -0.2191
    3TYR     BB  387   0.966   5.023   3.766  0.0290  0.0304 -0.1614
    3TYR    SC1  388   0.771   5.122   3.575  0.0627  0.0030 -0.2069
    3TYR    SC2  389   0.698   5.242   3.345 -0.3219 -0.2452 -0.2250
    3TYR    SC3  390   0.579   5.311   3.577 -0.0449 -0.1051 -0.1192
    1TYR     BB  391   7.453   3.644   5.191  0.0584  0.1536  0.1039
    1TYR    SC1  392   7.516   3.725   4.879 -0.1872  0.2903 -0.0010
    1TYR    SC2  393   7.664   3.868   4.705  0.0357 -0.0188 -0.0760
    1TYR    SC3  394   7.619   3.606   4.660 -0.0424 -0.0661  0.2486
    2ASN     BB  395   7.057   3.545   5.138  0.3096  0.1143 -0.4406
    2ASN    SC1  396   7.094   3.372   4.922 -0.1882 -0.0306  0.1939
    3TYR     BB  397   6.727   3.664   5.132 -0.0160 -0.2134 -0.0827
    3TYR    SC1  398   6.689   3.659   5.430 -0.0048  0.3355  0.0188
    3TYR    SC2  399   6.603   3.545   5.659  0.1984  0.0076 -0.0597
    3TYR    SC3  400   6.695   3.799   5.661  0.0004  0.0833  0.1761
    1TYR     BB  401   5.188   2.753   3.873 -0.0959 -0.1571  0.0556
    1TYR    SC1  402   5.207   2.742   3.579  0.0957 -0.0902 -0.1502
    1TYR    SC2  403   5.177   2.642   3.330 -0.2637  0.3729 -0.3112
    1TYR    SC3  404   5.305   2.877   3.367  0.0359  0.1742 -0.0149
    2ASN     BB  405   5.230   2.746   4.234  0.1516 -0.0446 -0.0330
    2ASN    SC1  406   5.522   2.623   4.335  0.0499 -0.1185 -0.0427
    3TYR     BB  407   5.059   2.848   4.410 -0.0358  0.2308 -0.1379
    3TYR    SC1  408   4.853   2.757   4.574  0.1788 -0.2227 -0.3900
    3TYR    SC2  409   4.594   2.755   4.647  0.2365  0.3967 -0.0796
    3TYR    SC3  410   4.748   2.537   4.688 -0.0948  0.2136  0.2765
    1TYR     BB  411   1.754   5.430   3.335  0.1946  0.2527 -0.0669
    1TYR    SC1  412   1.611   5.457   3.592 -0.2489  0.0936  0.0415
    1TYR    SC2  413   1.426   5.585   3.742 -0.0878 -0.0123  0.3433
    1TYR    SC3  414   1.621   5.443   3.862 -0.0060 -0.1816  0.0241
    2ASN     BB  415   2.102   5.538   3.313  0.2465 -0.1153  0.2033
    2ASN    SC1  416   2.293   5.774   3.465 -0.0207 -0.0891 -0.1915
    3TYR     BB  417   2.375   5.381   3.188 -0.1488 -0.0073 -0.1383
    3TYR    SC1  418   2.616   5.569   3.034  0.3257  0.0035 -0.0184
    3TYR    SC2  419   2.831   5.676   2.909  0.2204  0.0479 -0.1653
    3TYR    SC3  420   2.585   5.780   2.867  0.1876  0.0932  0.1174
    1TYR     BB  421   3.467   5.182   2.639  0.1274 -0.3682 -0.2393
    1TYR    SC1  422   3.424   4.899   2.529  0.0789  0.0693  0.4071
    1TYR    SC2  423   3.328   4.662   2.615  0.0787  0.0728  0.4167
    1TYR    SC3  424   3.444   4.681   2.371 -0.0267  0.0878  0.3669
    2ASN     BB  425   3.665   5.159   2.847  0.0475  0.4689  0.0543
    2ASN    SC1  426   3.755   5.431   2.956  0.0109  0.0436  0.0869
    3TYR     BB  427   3.731   4.905   2.941 -0.2009  0.0887 -0.0833
    3TYR    SC1  428   3.482   4.723   3.026 -0.2322  0.1572 -0.0666
    3TYR    SC2  429   3.268   4.558   3.024 -0.0750 -0.0518 -0.1713
    3TYR    SC3  430   3.478   4.505   3.185 -0.0358  0.0654 -0.1824
    1TYR     BB  431   4.038   3.738   3.442 -0.0457 -0.0452  0.1344
    1TYR    SC1  432   4.100   3.979   3.629 -0.1003  0.1676 -0.1254
    1TYR    SC2  433   4.010   4.102   3.851 -0.0967 -0.1036  0.0322
    1TYR    SC3  434   4.228   4.197   3.723  0.0602 -0.0933  0.2968
    2ASN     BB  435   3.850   3.601   3.686  0.3047 -0.2175 -0.3580
    2ASN    SC1  436   3.939   3.343   3.746 -0.0022 -0.2329  0.0285
    3TYR     BB  437   3.639   3.798   3.815 -0.1965 -0.0545  0.1125
    3TYR    SC1  438   3.674   3.950   4.056 -0.4991 -0.0438 -0.1257
    3TYR    SC2  439   3.662   4.181   4.195 -0.0488  0.0042 -0.1464
    3TYR    SC3  440   3.602   3.947   4.316  0.1761  0.0620  0.0861
    1TYR     BB  441   1.174   5.438   1.605  0.1380 -0.1300 -0.2901
    1TYR    SC1  442   0.995   5.644   1.384 -0.2759  0.1986 -0.2824
    1TYR    SC2  443   0.838   5.831   1.268  0.0416  0.2966 -0.5756
    1TYR    SC3  444   0.903   5.606   1.132  0.0454  0.1923 -0.4045
    2ASN     BB  445   1.422   5.376   1.341 -0.0799 -0.1787 -0.2086
    2ASN    SC1  446   1.365   5.122   1.178  0.3574  0.2495  0.0262
    3TYR     BB  447   1.580   5.590   1.292  0.1850  0.1754  0.4026
    3TYR    SC1  448   1.445   5.854   1.402 -0.1972  0.2453 -0.3185
    3TYR    SC2  449   1.233   5.970   1.523 -0.1435  0.2405 -0.2191
    3TYR    SC3  450   1.477   6.085   1.538 -0.1118  0.1733 -0.2149
    1TYR     BB  451   5.198   4.103   3.381  0.0454 -0.0187  0.1072
    1TYR    SC1  452   5.238   4.376   3.288  0.1117  0.0725  0.1277
    1TYR    SC2  453   5.377   4.602   3.236  0.2925 -0.0189  0.2024
    1TYR    SC3  454   5.194   4.599   3.434  0.2149  0.0893  0.1343
    2ASN     BB  455   5.381   3.973   3.619  0.0192  0.0181 -0.0256
    2ASN    SC1  456   5.674   3.911   3.515  0.0405 -0.0237 -0.0714
    3TYR     BB  457   5.265   3.798   3.779  0.4067  0.2509 -0.1261
    3TYR    SC1  458   5.316   3.509   3.682  0.2059  0.0985 -0.1653
    3TYR    SC2  459   5.392   3.258   3.617  0.0689  0.0038  0.0283
    3TYR    SC3  460   5.448   3.463   3.451  0.0447 -0.1761 -0.2092
    1TYR     BB  461   4.249   3.439   2.682  0.2546 -0.1212 -0.3816
    1TYR    SC1  462   4.536   3.456   2.742  0.0908  0.1431  0.5631
    1TYR    SC2  463   4.754   3.322   2.657 -0.0127  0.2054  0.1736
    1TYR    SC3  464   4.778   3.511   2.849  0.3013  0.3046  0.0466
    2ASN     BB  465   4.174   3.494   2.356 -0.0677  0.0777  0.1270
    2ASN    SC1  466   3.840   3.471   2.316  0.0336 -0.0921  0.3081
    3TYR     BB  467   4.299   3.720   2.158  0.0491  0.3530 -0.0045
    3TYR    SC1  468   4.655   3.708   2.117 -0.0634  0.3567 -0.2367
    3TYR    SC2  469   4.889   3.618   2.216 -0.1741  0.0431 -0.2466
    3TYR    SC3  470   4.875   3.706   1.961 -0.0735  0.0403 -0.2537
    1TYR     BB  471   3.748   4.725   1.784 -0.1586  0.1709 -0.0467
    1TYR    SC1  472   3.578   4.857   1.982  0.0425  0.0746  0.1104
    1TYR    SC2  473   3.581   5.064   2.156 -0.3648  0.0350  0.1773
    1TYR    SC3  474   3.361   5.017   2.006 -0.1938 -0.2167 -0.0053
    2ASN     BB  475   3.741   4.644   1.482  0.2910  0.0581 -0.0731
    2ASN    SC1  476   3.656   4.346   1.480  0.2883  0.0549 -0.0074
    3TYR     BB  477   3.828   4.807   1.241 -0.1001  0.5388 -0.0271
    3TYR    SC1  478   3.620   4.930   1.045 -0.2445 -0.3551  0.3060
    3TYR    SC2  479   3.363   4.911   0.966 -0.2345 -0.4160  0.2879
    3TYR    SC3  480   3.455   5.143   1.068 -0.1754 -0.2422 -0.1337
    1TYR     BB  481   6.729   2.624   4.992  0.5256  0.0796  0.0259
    1TYR    SC1  482   6.887   2.644   5.241  0.0268  0.1527 -0.0875
    1TYR    SC2  483   6.833   2.668   5.504  0.0575  0.0466 -0.0707
    1TYR    SC3  484   7.078   2.732   5.410 -0.0385  0.3634 -0.1204
    2ASN     BB  485   6.894   2.523   4.756  0.1022  0.1235  0.0826
    2ASN    SC1  486   7.199   2.407   4.884  0.0329  0.1385  0.2534
    3TYR     BB  487   6.849   2.486   4.471 -0.3154  0.1040 -0.1357
    3TYR    SC1  488   6.982   2.658   4.264  0.0288  0.0031  0.1285
    3TYR    SC2  489   7.043   2.681   4.002 -0.1601 -0.0449  0.0785
    3TYR    SC3  490   7.022   2.902   4.155 -0.0712 -0.0153  0.0489
    1TYR     BB  491   5.224   2.249   3.723 -0.0808 -0.1409 -0.0616
    1TYR    SC1  492   4.948   2.371   3.641 -0.0315 -0.0508 -0.0336
    1TYR    SC2  493   4.784   2.560   3.540  0.1200  0.0067 -0.1785
    1TYR    SC3  494   4.703   2.409   3.749 -0.0481  0.1504 -0.1359
    2ASN     BB  495   5.152   2.310   4.107  0.1673  0.0622  0.0594
    2ASN    SC1  496   5.432   2.144   4.173  0.3412  0.0331  0.0233
    3TYR     BB  497   4.873   2.436   4.196  0.1606  0.1420  0.3330
    3TYR    SC1  498   4.593   2.351   4.297 -0.0508  0.3256 -0.1412
    3TYR    SC2  499   4.388   2.353   4.473  0.0864  0.0041  0.0315
    3TYR    SC3  500   4.342   2.297   4.213 -0.0464 -0.0588  0.0677
    1TYR     BB  501   2.787   4.065   3.865  0.0015 -0.1395 -0.4457
    1TYR    SC1  502   2.767   3.803   3.704  0.0329 -0.0824 -0.1034
    1TYR    SC2  503   2.734   3.672   3.470 -0.1192 -0.1496 -0.0457
    1TYR    SC3  504   2.738   3.535   3.703  0.2560 -0.1094 -0.0215
    2ASN     BB  505   2.524   4.013   4.143 -0.0407 -0.1302 -0.0095
    2ASN    SC1  506   2.532   3.715   4.200 -0.0753 -0.0436 -0.1653
    3TYR     BB  507   2.379   4.195   4.377 -0.2277  0.3171 -0.1333
    3TYR    SC1  508   2.151   4.033   4.488 -0.0290  0.3284 -0.1297
    3TYR    SC2  509   2.024   3.872   4.663  0.0325  0.3252 -0.0877
    3TYR    SC3  510   1.969   3.854   4.399 -0.0651  0.3346 -0.0684
    1TYR     BB  511   2.862   4.595   2.094  0.1550 -0.1161  0.3184
    1TYR    SC1  512   2.969   4.816   2.242 -0.5258  0.0791  0.2730
    1TYR    SC2  513   2.972   5.081   2.297 -0.0127  0.1580 -0.0547
    1TYR    SC3  514   2.928   4.903   2.495 -0.2483  0.4770  0.1935
    2ASN     BB  515   2.485   4.516   2.163  0.1380 -0.2023  0.2355
    2ASN    SC1  516   2.454   4.186   2.197 -0.0263  0.0864 -0.1285
    3TYR     BB  517   2.237   4.602   1.979  0.0172 -0.0473 -0.1303
    3TYR    SC1  518   1.968   4.730   2.033 -0.0288  0.1459  0.2660
    3TYR    SC2  519   1.837   4.966   2.046  0.0233  0.2062 -0.1299
    3TYR    SC3  520   1.715   4.739   2.128 -0.1369  0.3290 -0.0212
    1TYR     BB  521   5.713   3.198   4.998  0.0803  0.0391  0.0342
    1TYR    SC1  522   5.587   3.466   4.974 -0.2297  0.0062  0.2605
    1TYR    SC2  523   5.395   3.627   4.873  0.1899  0.5343  0.2500
    1TYR    SC3  524   5.461   3.644   5.134  0.1402  0.2607  0.2840
    2ASN     BB  525   5.846   3.196   5.337  0.1083  0.0448 -0.0853
    2ASN    SC1  526   5.714   3.416   5.471  0.0605  0.3368 -0.2498
    3TYR     BB  527   6.012   3.030   5.363  0.0727  0.0478  0.1106
    3TYR    SC1  528   6.186   3.008   5.090  0.1607  0.0112  0.0951
    3TYR    SC2  529   6.304   3.216   4.963  0.0678  0.1532  0.2366
    3TYR    SC3  530   6.383   2.963   4.910  0.0229  0.2062 -0.1117
    1TYR     BB  531   1.713   5.009   3.005  0.1618 -0.1490 -0.0812
    1TYR    SC1  532   1.454   4.982   2.884 -0.2376  0.1392 -0.0847
    1TYR    SC2  533   1.260   4.794   2.877 -0.1704  0.0571  0.1513
    1TYR    SC3  534   1.242   5.011   2.719 -0.2416 -0.1518 -0.1376
    2ASN     BB  535   1.919   5.297   2.862 -0.0065  0.1703  0.2457
    2ASN    SC1  536   1.715   5.468   2.716 -0.1101  0.0118  0.2996
    3TYR     BB  537   2.165   5.164   2.847  0.1384 -0.2845  0.2199
    3TYR    SC1  538   2.175   4.904   3.018 -0.0284  0.0860 -0.1829
    3TYR    SC2  539   2.178   4.701   3.195  0.1680  0.2716  0.0359
    3TYR    SC3  540   2.031   4.681   2.969 -0.2838  0.1228  0.3256
    1TYR     BB  541   4.107   4.060   1.729 -0.3319 -0.1051  0.1078
    1TYR    SC1  542   4.278   4.240   1.545  0.0884  0.2859  0.2143
    1TYR    SC2  543   4.506   4.352   1.453  0.1604 -0.2456 -0.3369
    1TYR    SC3  544   4.267   4.461   1.390  0.2327  0.2691  0.1784
    2ASN     BB  545   3.827   4.135   1.932 -0.1712  0.0862  0.0199
    2ASN    SC1  546   3.799   3.858   2.072  0.0583 -0.1585  0.1182
    3TYR     BB  547   3.786   4.349   2.135 -0.0172 -0.2321  0.0486
    3TYR    SC1  548   3.926   4.619   2.281 -0.3144  0.1511  0.0118
    3TYR    SC2  549   4.113   4.812   2.304 -0.3029  0.1483 -0.0567
    3TYR    SC3  550   3.921   4.788   2.491 -0.0312 -0.0692  0.2065
    1TYR     BB  551   2.454   4.717   2.681  0.1053 -0.3851 -0.2220
    1TYR    SC1  552   2.694   4.550   2.631 -0.0392  0.0046 -0.0853
    1TYR    SC2  553   2.744   4.307   2.524 -0.3069 -0.0351 -0.1304
    1TYR    SC3  554   2.949   4.472   2.587 -0.1125 -0.3347  0.0528
    2ASN     BB  555   2.448   5.008   2.498  0.4371 -0.0657  0.0132
    2ASN    SC1  556   2.608   5.229   2.640 -0.0832  0.1287 -0.0695
    3TYR     BB  557   2.489   5.025   2.163  0.0850 -0.0601 -0.0182
    3TYR    SC1  558   2.553   5.322   2.153 -0.0820  0.0354 -0.0855
    3TYR    SC2  559   2.527   5.582   2.218  0.1168  0.0156  0.0904
    3TYR    SC3  560   2.745   5.499   2.082 -0.1188 -0.0052 -0.2951
    1TYR     BB  561   4.217   1.980   5.168  0.0509 -0.0915  0.3270
    1TYR    SC1  562   4.186   1.941   5.462  0.2899  0.0583 -0.0803
    1TYR    SC2  563   4.261   2.122   5.647  0.0014  0.1166 -0.0132
    1TYR    SC3  564   4.039   1.974   5.687  0.1517 -0.1496 -0.1363
    2ASN     BB  565   4.340   2.302   5.138 -0.0462  0.0713 -0.5986
    2ASN    SC1  566   4.388   2.504   5.385 -0.0099 -0.0594 -0.1823
    3TYR     BB  567   4.254   2.561   4.921 -0.2400 -0.2194 -0.0430
    3TYR    SC1  568   4.343   2.823   5.039 -0.2820  0.1204 -0.0970
    3TYR    SC2  569   4.441   3.064   5.109 -0.0478  0.0996 -0.3333
    3TYR    SC3  570   4.192   2.992   5.186  0.0572  0.2154  0.1569
    1TYR     BB  571   5.123   3.228   4.721 -0.0704 -0.0724  0.0221
    1TYR    SC1  572   4.880   3.264   4.583 -0.1243  0.1052  0.0652
    1TYR    SC2  573   4.643   3.196   4.694 -0.3317  0.3244 -0.2240
    1TYR    SC3  574   4.685   3.157   4.430  0.1497 -0.1848 -0.0967
    2ASN     BB  575   5.105   3.275   5.037  0.0845  0.1308 -0.0476
    2ASN    SC1  576   4.845   3.490   5.080  0.0162  0.2171 -0.4530
    3TYR     BB  577   5.202   3.159   5.282 -0.4084 -0.0614 -0.0941
    3TYR    SC1  578   5.129   3.292   5.508 -0.2917 -0.0711  0.0591
    3TYR    SC2  579   5.166   3.378   5.761 -0.0396  0.0218 -0.0060
    3TYR    SC3  580   5.099   3.554   5.567 -0.0114 -0.0108 -0.0456
    1TYR     BB  581   4.821   2.857   5.571  0.1562  0.3772  0.2468
    1TYR    SC1  582   4.859   2.847   5.253 -0.1391  0.3983  0.0024
    1TYR    SC2  583   4.806   2.889   4.992 -0.0665 -0.0658 -0.0984
    1TYR    SC3  584   4.786   2.641   5.095 -0.0055  0.0939  0.3217
    2ASN     BB  585   5.081   2.831   5.723  0.1391 -0.0289  0.0301
    2ASN    SC1  586   5.030   2.575   5.952  0.3267  0.1557 -0.1490
    3TYR     BB  587   5.343   2.836   5.651 -0.0032  0.0096 -0.1345
    3TYR    SC1  588   5.508   3.019   5.779  0.2248  0.0364 -0.4421
    3TYR    SC2  589   5.767   3.076   5.830  0.0980  0.0274  0.3719
    3TYR    SC3  590   5.573   3.239   5.921 -0.2030  0.0167 -0.1959
    1TYR     BB  591   1.838   6.216   2.621  0.2272  0.0717  0.0332
    1TYR    SC1  592   1.810   6.291   2.912 -0.1032 -0.2675  0.0092
    1TYR    SC2  593   1.789   6.551   2.983 -0.1334 -0.2242 -0.1527
    1TYR    SC3  594   1.724   6.357   3.159 -0.0178 -0.1248  0.0022
    2ASN     BB  595   1.660   5.965   2.527  0.0636 -0.0644 -0.2659
    2ASN    SC1  596   1.740   5.789   2.298 -0.1058  0.0751 -0.0597
    3TYR     BB  597   1.373   5.805   2.641  0.2594  0.2236  0.0097
    3TYR    SC1  598   1.067   5.865   2.744  0.0974 -0.2182  0.2169
    3TYR    SC2  599   0.873   5.846   2.931 -0.0954  0.1164  0.0634
    3TYR    SC3  600   0.807   5.860   2.669  0.1638 -0.1946 -0.0262
    1TYR     BB  601   6.603   3.610   3.820  0.0212 -0.1687 -0.0828
    1TYR    SC1  602   6.656   3.395   3.682 -0.0841  0.3353  0.2188
    1TYR    SC2  603   6.820   3.262   3.513  0.0226  0.4281  0.2482
    1TYR    SC3  604   6.696   3.130   3.713 -0.1229  0.3128  0.0854
    2ASN     BB  605   6.645   3.920   3.708 -0.1652 -0.1872  0.2545
    2ASN    SC1  606   6.969   3.847   3.533  0.0059 -0.0181 -0.0639
    3TYR     BB  607   6.641   4.169   3.753  0.3637  0.0766 -0.1027
    3TYR    SC1  608   6.387   4.287   3.833  0.1434 -0.2300  0.1206
    3TYR    SC2  609   6.239   4.488   3.935  0.2878 -0.0766  0.0330
    3TYR    SC3  610   6.150   4.350   3.721  0.0863 -0.2548  0.2253
    1TYR     BB  611   2.773   3.691   2.929 -0.2099 -0.0350 -0.0495
    1TYR    SC1  612   2.829   3.840   2.679  0.2584  0.4185 -0.0490
    1TYR    SC2  613   2.992   3.876   2.467  0.1202 -0.0601 -0.2540
    1TYR    SC3  614   2.726   3.847   2.430  0.1033 -0.2351 -0.0268
    2ASN     BB  615   2.505   3.515   3.031  0.0666 -0.2874 -0.2208
    2ASN    SC1  616   2.429   3.219   2.950  0.2958 -0.0155 -0.0678
    3TYR     BB  617   2.277   3.637   3.157  0.0675  0.0994  0.1185
    3TYR    SC1  618   2.270   3.638   3.449  0.0117  0.0624  0.0207
    3TYR    SC2  619   2.147   3.445   3.592 -0.4498  0.2409 -0.1106
    3TYR    SC3  620   2.304   3.627   3.717 -0.1090 -0.1294  0.0300
    1TYR     BB  621   5.759   0.876   4.000  0.1340  0.2482  0.1102
    1TYR    SC1  622   5.739   1.093   4.236  0.0034 -0.0706  0.0604
    1TYR    SC2  623   5.705   1.126   4.502  0.1870  0.1705  0.0582
    1TYR    SC3  624   5.580   1.291   4.328 -0.0776 -0.0981 -0.0181
    2ASN     BB  625   5.521   0.738   3.952  0.0802 -0.0270  0.0968
    2ASN    SC1  626   5.618   0.452   3.688  0.4048  0.1176 -0.0966
    3TYR     BB  627   5.248   0.607   4.031 -0.2057 -0.0257  0.3810
    3TYR    SC1  628   5.026   0.848   4.012  0.3360  0.0284 -0.0325
    3TYR    SC2  629   4.865   0.990   4.176  0.1368 -0.3048  0.0742
    3TYR    SC3  630   4.821   0.990   3.910  0.0961 -0.2233  0.0808
    1TYR     BB  631   3.884   4.690   3.352  0.1688  0.0430  0.0222
    1TYR    SC1  632   4.106   4.466   3.326  0.1876  0.3270 -0.1717
    1TYR    SC2  633   4.218   4.245   3.220 -0.0160  0.2976 -0.3327
    1TYR    SC3  634   4.373   4.455   3.288  0.2325 -0.0187  0.1564
    2ASN     BB  635   3.769   4.740   3.629 -0.0150  0.0410 -0.1033
    2ASN    SC1  636   3.734   4.468   3.811 -0.1344 -0.3548  0.5600
    3TYR     BB  637   3.799   5.108   3.738  0.0495 -0.2040 -0.1989
    3TYR    SC1  638   4.016   5.136   3.550  0.3883 -0.1522  0.1771
    3TYR    SC2  639   4.213   5.261   3.414  0.0388  0.2878  0.0452
    3TYR    SC3  640   4.001   5.160   3.282  0.0912 -0.0412  0.1991
    1TYR     BB  641   4.634   5.055   3.672 -0.0951  0.1133 -0.4777
    1TYR    SC1  642   4.866   5.083   3.450 -0.0146 -0.0246  0.1403
    1TYR    SC2  643   4.994   5.289   3.332 -0.3663  0.0867 -0.0674
    1TYR    SC3  644   5.097   5.039   3.318  0.0386  0.2290  0.1431
    2ASN     BB  645   4.513   4.728   3.699  0.2161 -0.0495 -0.1208
    2ASN    SC1  646   4.241   4.754   3.720 -0.1149 -0.2720 -0.2077
    3TYR     BB  647   4.733   4.491   3.636 -0.0230 -0.1468  0.1178
    3TYR    SC1  648   4.722   4.200   3.566 -0.5132  0.3376  0.0086
    3TYR    SC2  649   4.583   3.988   3.474 -0.1731  0.1637 -0.1271
    3TYR    SC3  650   4.792   3.950   3.639 -0.1020  0.3942 -0.1596
    1TYR     BB  651   5.905   1.540   5.175  0.1058 -0.2604 -0.3353
    1TYR    SC1  652   6.130   1.446   5.339 -0.0739  0.2767 -0.2423
    1TYR    SC2  653   6.347   1.417   5.498 -0.2100 -0.1187 -0.1129
    1TYR    SC3  654   6.266   1.212   5.341 -0.4671  0.0365 -0.1909
    2ASN     BB  655   5.613   1.690   5.330 -0.2484 -0.0671 -0.0607
    2ASN    SC1  656   5.545   1.919   5.094 -0.0155  0.4127  0.0506
    3TYR     BB  657   5.373   1.446   5.349 -0.1124 -0.0189 -0.0339
    3TYR    SC1  658   5.103   1.365   5.497 -0.1540  0.0505  0.2512
    3TYR    SC2  659   4.848   1.279   5.488 -0.1468  0.0169  0.3483
    3TYR    SC3  660   4.918   1.476   5.659 -0.0468 -0.1890  0.5507
    1TYR     BB  661   1.243   5.998   3.254 -0.0582  0.0440 -0.2454
    1TYR    SC1  662   1.274   6.214   3.029  0.4133 -0.1544 -0.0872
    1TYR    SC2  663   1.375   6.286   2.789  0.1080 -0.1136 -0.2086
    1TYR    SC3  664   1.287   6.475   2.961 -0.1818 -0.1613 -0.2976
    2ASN     BB  665   1.253   5.700   3.277  0.1131  0.1081 -0.2303
    2ASN    SC1  666   1.007   5.617   3.422  0.0024  0.4165 -0.1863
    3TYR     BB  667   1.381   5.508   3.021 -0.0132 -0.1050 -0.4171
    3TYR    SC1  668   1.136   5.416   2.848  0.0797 -0.0373 -0.4390
    3TYR    SC2  669   0.953   5.438   2.650 -0.0672 -0.0818 -0.3107
    3TYR    SC3  670   0.872   5.414   2.906  0.1217  0.0065 -0.2405
    1TYR     BB  671   3.991   2.680   4.557 -0.0911 -0.1018  0.3419
    1TYR    SC1  672   3.964   2.532   4.299 -0.0118  0.3621  0.0308
    1TYR    SC2  673   3.908   2.363   4.097 -0.0331  0.0283  0.3040
    1TYR    SC3  674   3.726   2.547   4.174  0.1076  0.4071 -0.1982
    2ASN     BB  675   3.977   2.988   4.500  0.0684 -0.1899  0.1703
    2ASN    SC1  676   3.673   3.063   4.483 -0.1952 -0.2645  0.0310
    3TYR     BB  677   4.163   3.158   4.674 -0.1117 -0.1327  0.1519
    3TYR    SC1  678   4.250   3.419   4.530 -0.1110  0.1372 -0.1528
    3TYR    SC2  679   4.403   3.535   4.340  0.1960  0.0590  0.0377
    3TYR    SC3  680   4.424   3.615   4.597  0.1244 -0.1479  0.1103
    1TYR     BB  681   5.036   1.427   4.610  0.1669  0.2426 -0.2084
    1TYR    SC1  682   5.148   1.135   4.580 -0.3814  0.0075  0.2071
    1TYR    SC2  683   5.100   0.872   4.613  0.0736 -0.0978  0.1056
    1TYR    SC3  684   5.266   0.955   4.417  0.0249  0.2583  0.2072
    2ASN     BB  685   5.184   1.575   4.813  0.0618 -0.1301  0.0449
    2ASN    SC1  686   5.459   1.468   4.884 -0.2937 -0.2270 -0.0826
    3TYR     BB  687   5.038   1.694   5.063 -0.2058 -0.3566  0.1340
    3TYR    SC1  688   4.931   1.943   4.984  0.1910  0.1266 -0.1388
    3TYR    SC2  689   4.667   1.991   4.954  0.0968 -0.3052 -0.0856
    3TYR    SC3  690   4.838   2.195   5.000 -0.1892  0.0102 -0.3631
    1TYR     BB  691   4.521   4.942   2.043  0.1130  0.2189 -0.1271
    1TYR    SC1  692   4.335   5.197   2.019  0.1041  0.0862  0.2832
    1TYR    SC2  693   4.190   5.411   2.094  0.0704  0.0862  0.2191
    1TYR    SC3  694   4.075   5.167   2.083  0.0555  0.0978  0.1007
    2ASN     BB  695   4.475   4.721   1.754 -0.3384  0.0215 -0.0850
    2ASN    SC1  696   4.759   4.621   1.781 -0.2823  0.1424 -0.4198
    3TYR     BB  697   4.188   4.638   1.846  0.2370 -0.1374  0.0718
    3TYR    SC1  698   4.277   4.454   2.068  0.0571 -0.2602 -0.0830
    3TYR    SC2  699   4.405   4.450   2.306 -0.1786  0.0221  0.0571
    3TYR    SC3  700   4.280   4.228   2.216  0.0562 -0.1364  0.1104
    1TYR     BB  701   2.705   5.502   1.310  0.2547  0.0006  0.0079
    1TYR    SC1  702   2.795   5.218   1.327  0.4665  0.0467  0.3547
    1TYR    SC2  703   2.848   4.954   1.350  0.1359 -0.0629 -0.0030
    1TYR    SC3  704   2.991   5.106   1.179  0.1207 -0.0796 -0.0306
    2ASN     BB  705   2.641   5.540   1.015  0.3739  0.2417  0.1328
    2ASN    SC1  706   2.797   5.412   0.822  0.1479 -0.0614 -0.3428
    3TYR     BB  707   2.344   5.624   0.934 -0.0109 -0.1911 -0.1603
    3TYR    SC1  708   2.242   5.928   0.879 -0.3612  0.0196 -0.3098
    3TYR    SC2  709   2.327   6.139   0.734 -0.0251  0.0795 -0.0406
    3TYR    SC3  710   2.109   6.163   0.892  0.1254  0.2967  0.1425
    1TYR     BB  711   0.741   6.129   2.215 -0.2147  0.0129 -0.0310
    1TYR    SC1  712   0.810   6.016   1.948 -0.2669 -0.1244 -0.1147
    1TYR    SC2  713   0.733   6.022   1.689 -0.0764  0.1029 -0.1705
    1TYR    SC3  714   0.914   5.840   1.772  0.0546  0.1909 -0.2573
    2ASN     BB  715   0.977   6.262   2.378  0.1038  0.0276 -0.1757
    2ASN    SC1  716   0.855   6.358   2.627 -0.3083 -0.0232 -0.1259
    3TYR     BB  717   1.268   6.156   2.303 -0.3030 -0.0288 -0.1753
    3TYR    SC1  718   1.253   6.289   1.994 -0.0489  0.0492  0.1970
    3TYR    SC2  719   1.103   6.336   1.775  0.3177 -0.1585 -0.1138
    3TYR    SC3  720   1.356   6.429   1.787  0.2408  0.0227  0.3170
    1TYR     BB  721   3.796   5.423   2.412  0.0311  0.0446 -0.1332
    1TYR    SC1  722   4.081   5.388   2.555 -0.1162 -0.0468  0.1516
    1TYR    SC2  723   4.100   5.152   2.685  0.1314 -0.0085  0.1915
    1TYR    SC3  724   4.218   5.372   2.788  0.0412  0.0979  0.0718
    2ASN     BB  725   3.644   5.641   2.525 -0.0883  0.1796 -0.2875
    2ASN    SC1  726   3.748   5.868   2.299 -0.4809  0.1014  0.1249
    3TYR     BB  727   3.434   5.727   2.714  0.0153 -0.1579 -0.0783
    3TYR    SC1  728   3.154   5.655   2.592 -0.1912  0.2611  0.4192
    3TYR    SC2  729   2.998   5.435   2.585  0.1112  0.0446  0.1795
    3TYR    SC3  730   2.916   5.662   2.464  0.0827 -0.1417 -0.1690
    1TYR     BB  731   6.797   3.123   5.777 -0.1335  0.0315  0.3072
    1TYR    SC1  732   6.775   3.179   5.479 -0.0777 -0.4060  0.0663
    1TYR    SC2  733   6.593   3.220   5.284 -0.0682 -0.1290  0.1110
    1TYR    SC3  734   6.827   3.096   5.227 -0.1662 -0.2673  0.0011
    2ASN     BB  735   6.582   3.095   5.916  0.1092  0.0701 -0.0954
    2ASN    SC1  736   6.554   3.103   6.236 -0.0650  0.0072 -0.1370
    3TYR     BB  737   6.300   3.079   5.737 -0.0624 -0.0640 -0.1907
    3TYR    SC1  738   6.179   3.336   5.731 -0.1164 -0.2812  0.2196
    3TYR    SC2  739   5.980   3.431   5.886  0.0939 -0.0185  0.3405
    3TYR    SC3  740   6.132   3.602   5.742 -0.2526 -0.2632 -0.3793
    1TYR     BB  741   2.406   6.253   1.764  0.1697 -0.3014  0.0560
    1TYR    SC1  742   2.362   6.103   1.544  0.0259  0.1281 -0.0054
    1TYR    SC2  743   2.339   6.155   1.280 -0.4426 -0.2595 -0.0597
    1TYR    SC3  744   2.364   5.901   1.366 -0.3907 -0.1471  0.2785
    2ASN     BB  745   2.512   6.051   2.073 -0.0968 -0.1946  0.0380
    2ASN    SC1  746   2.193   5.969   2.139  0.0505 -0.3128 -0.2697
    3TYR     BB  747   2.796   6.017   2.097 -0.1421  0.3540  0.1783
    3TYR    SC1  748   3.033   6.164   2.277 -0.1772 -0.1816  0.1930
    3TYR    SC2  749   3.237   6.330   2.338 -0.1860 -0.1716  0.1956
    3TYR    SC3  750   3.285   6.069   2.289 -0.1236 -0.1019 -0.1509
    1TYR     BB  751   4.819   5.670   1.512 -0.1919 -0.3049 -0.0942
    1TYR    SC1  752   4.670   5.889   1.367  0.0884 -0.2436 -0.3175
    1TYR    SC2  753   4.586   6.054   1.170  0.0272  0.0455 -0.0582
    1TYR    SC3  754   4.449   6.039   1.402 -0.1493 -0.6098 -0.1794
    2ASN     BB  755   4.872   5.503   1.152  0.0704  0.2872 -0.1142
    2ASN    SC1  756   5.031   5.733   1.005  0.0156  0.0022  0.3241
    3TYR     BB  757   4.542   5.406   1.112 -0.3026 -0.2143 -0.2939
    3TYR    SC1  758   4.376   5.510   1.366  0.2419 -0.3239  0.2717
    3TYR    SC2  759   4.318   5.525   1.629 -0.1376  0.0844  0.1799
    3TYR    SC3  760   4.178   5.673   1.452  0.1558 -0.1293 -0.2506
    1TYR     BB  761   3.496   5.111   3.340  0.3540 -0.1711 -0.0196
    1TYR    SC1  762   3.351   4.835   3.425 -0.0906 -0.3500 -0.1373
    1TYR    SC2  763   3.090   4.774   3.389 -0.2942  0.1738  0.2780
    1TYR    SC3  764   3.231   4.653   3.585 -0.1865 -0.1705  0.0006
    2ASN     BB  765   3.298   5.283   3.107  0.2511  0.0091 -0.0844
    2ASN    SC1  766   3.269   5.616   3.198 -0.1117  0.2040  0.2141
    3TYR     BB  767   3.078   5.134   2.950 -0.1126 -0.0946  0.1140
    3TYR    SC1  768   2.909   4.920   3.023  0.2268 -0.3067  0.0711
    3TYR    SC2  769   2.776   4.684   3.028 -0.0716 -0.1481 -0.0647
    3TYR    SC3  770   2.642   4.916   3.064  0.2207  0.0050  0.0873
    1TYR     BB  771   1.658   4.787   4.560 -0.2445 -0.0014  0.0761
    1TYR    SC1  772   1.411   4.511   4.582 -0.1536  0.2562 -0.0605
    1TYR    SC2  773   1.238   4.476   4.786 -0.0962  0.2336 -0.0151
    1TYR    SC3  774   1.254   4.291   4.590  0.0126  0.1385  0.0816
    2ASN     BB  775   1.670   4.847   4.233  0.1688  0.0405 -0.1238
    2ASN    SC1  776   1.412   4.670   4.133 -0.3330 -0.0236  0.3655
    3TYR     BB  777   1.862   5.067   4.176 -0.2239  0.1163  0.1424
    3TYR    SC1  778   1.732   5.302   4.319 -0.2822 -0.0939 -0.1463
    3TYR    SC2  779   1.621   5.444   4.520 -0.1470 -0.1252 -0.0475
    3TYR    SC3  780   1.788   5.564   4.346  0.0476 -0.1801  0.0964
    1TYR     BB  781   6.363   2.154   6.282 -0.0505  0.0582 -0.2087
    1TYR    SC1  782   6.350   2.110   5.968  0.0361 -0.0541  0.2230
    1TYR    SC2  783   6.237   2.209   5.744 -0.0680 -0.0673  0.2685
    1TYR    SC3  784   6.397   1.992   5.730 -0.0022 -0.0148  0.1956
    2ASN     BB  785   6.045   2.238   6.406  0.0073 -0.0386  0.0539
    2ASN    SC1  786   6.054   2.038   6.678  0.2810 -0.1301  0.1120
    3TYR     BB  787   5.854   2.457   6.436 -0.3607  0.2876 -0.0299
    3TYR    SC1  788   5.662   2.329   6.644 -0.1432 -0.0306 -0.0332
    3TYR    SC2  789   5.601   2.269   6.901 -0.0251 -0.0308 -0.0047
    3TYR    SC3  790   5.521   2.106   6.701 -0.1185 -0.0300  0.0314
    1TYR     BB  791   6.159   2.503   5.050  0.0412 -0.1125 -0.0283
    1TYR    SC1  792   6.274   2.616   5.309 -0.3179 -0.0128 -0.0254
    1TYR    SC2  793   6.447   2.807   5.392 -0.3619 -0.0356  0.1230
    1TYR    SC3  794   6.378   2.606   5.558 -0.2582 -0.2249 -0.0564
    2ASN     BB  795   5.928   2.555   4.882  0.0781 -0.1508 -0.1437
    2ASN    SC1  796   5.899   2.815   4.735 -0.0903  0.1134  0.1436
    3TYR     BB  797   5.663   2.368   4.885 -0.2437  0.1264 -0.1361
    3TYR    SC1  798   5.421   2.375   4.744  0.2713  0.0754 -0.1081
    3TYR    SC2  799   5.240   2.176   4.760  0.3770 -0.0347 -0.2443
    3TYR    SC3  800   5.180   2.402   4.625  0.2995 -0.0218 -0.1895
    1TYR     BB  801   5.709   0.452   5.152 -0.0104  0.0328  0.1909
    1TYR    SC1  802   5.715   0.615   5.433  0.6680 -0.2703 -0.0046
    1TYR    SC2  803   5.604   0.572   5.675  0.0393  0.2215 -0.1700
    1TYR    SC3  804   5.862   0.649   5.657  0.0952  0.1986  0.3369
    2ASN     BB  805   6.059   0.581   5.028 -0.4644  0.0829  0.0938
    2ASN    SC1  806   6.123   0.762   5.259 -0.0236 -0.2253 -0.1498
    3TYR     BB  807   6.113   0.529   4.709  0.0846  0.0662  0.2961
    3TYR    SC1  808   6.153   0.684   4.474  0.0579 -0.5504 -0.1094
    3TYR    SC2  809   6.186   0.831   4.250  0.0398 -0.0330  0.2055
    3TYR    SC3  810   6.390   0.682   4.346  0.1602  0.0186  0.0348
    1TYR     BB  811   2.812   6.376   1.405  0.1201 -0.3825 -0.3113
    1TYR    SC1  812   2.790   6.119   1.243  0.0657  0.0125  0.0075
    1TYR    SC2  813   2.914   5.905   1.134  0.0113 -0.0925  0.1478
    1TYR    SC3  814   2.700   6.014   1.010  0.0018 -0.1573  0.1060
    2ASN     BB  815   2.919   6.407   1.744  0.1972  0.1170 -0.0449
    2ASN    SC1  816   3.220   6.316   1.823 -0.1860 -0.1249  0.0123
    3TYR     BB  817   2.765   6.550   2.056 -0.0761  0.0546  0.0987
    3TYR    SC1  818   3.017   6.740   2.108 -0.0939  0.2617 -0.1739
    3TYR    SC2  819   3.281   6.692   2.079 -0.1209  0.0226 -0.0537
    3TYR    SC3  820   3.197   6.927   2.183  0.0672 -0.0744  0.3432
    1TYR     BB  821   3.697   3.333   2.758 -0.0272 -0.0691 -0.0762
    1TYR    SC1  822   3.904   3.116   2.680  0.2585  0.2044 -0.2267
    1TYR    SC2  823   3.829   2.892   2.549 -0.0176  0.1873 -0.0496
    1TYR    SC3  824   4.074   2.999   2.506  0.0179  0.0036 -0.3329
    2ASN     BB  825   3.777   3.477   2.991 -0.1600 -0.0281  0.0147
    2ASN    SC1  826   3.751   3.753   3.031 -0.3982 -0.1971  0.2248
    3TYR     BB  827   4.034   3.343   3.158 -0.2738 -0.0818 -0.3274
    3TYR    SC1  828   4.256   3.155   3.058  0.1351  0.2328 -0.1976
    3TYR    SC2  829   4.349   3.004   2.854  0.2583 -0.1233  0.1080
    3TYR    SC3  830   4.521   3.114   3.030  0.1375 -0.3769  0.3964
    1TYR     BB  831   7.156   3.611   4.372 -0.3573 -0.0072 -0.0471
    1TYR    SC1  832   7.133   3.764   4.652 -0.2264  0.0244  0.1209
    1TYR    SC2  833   6.903   3.853   4.760 -0.1093  0.0884  0.3245
    1TYR    SC3  834   7.138   3.967   4.829 -0.0404  0.2470 -0.1288
    2ASN     BB  835   6.853   3.751   4.276  0.0413  0.0523 -0.0638
    2ASN    SC1  836   7.042   3.944   4.042  0.1331  0.2056  0.2127
    3TYR     BB  837   6.627   3.878   4.308  0.0287  0.1405 -0.2025
    3TYR    SC1  838   6.579   4.174   4.280 -0.0095 -0.0375  0.1058
    3TYR    SC2  839   6.683   4.413   4.207  0.0805 -0.1156 -0.0292
    3TYR    SC3  840   6.456   4.402   4.354 -0.0841  0.0503 -0.2616
    1TYR     BB  841   2.683   6.583   2.546  0.0461 -0.0768  0.1355
    1TYR    SC1  842   2.587   6.295   2.514 -0.3128 -0.1726 -0.0294
    1TYR    SC2  843   2.613   6.026   2.521 -0.0258 -0.1485 -0.0325
    1TYR    SC3  844   2.394   6.143   2.625 -0.0775 -0.3735  0.1194
    2ASN     BB  845   2.990   6.639   2.646  0.1453  0.1764 -0.0705
    2ASN    SC1  846   2.988   6.962   2.655 -0.1011  0.0095  0.1203
    3TYR     BB  847   3.302   6.537   2.807  0.0084 -0.0531  0.0005
    3TYR    SC1  848   3.202   6.454   3.120  0.0347 -0.0246 -0.0264
    3TYR    SC2  849   3.327   6.318   3.317  0.0734 -0.0656 -0.0788
    3TYR    SC3  850   3.059   6.350   3.324  0.0945  0.0972  0.0790
    1TYR     BB  851   2.158   6.715   1.718 -0.0831  0.2288  0.3765
    1TYR    SC1  852   2.162   6.596   1.452 -0.0613  0.1458 -0.1644
    1TYR    SC2  853   2.344   6.569   1.254  0.1175 -0.1830  0.0334
    1TYR    SC3  854   2.080   6.557   1.197  0.1572  0.0335 -0.2208
    2ASN     BB  855   2.363   6.936   1.736 -0.0466 -0.0160 -0.0094
    2ASN    SC1  856   2.259   7.183   1.851 -0.0773 -0.1085 -0.0931
    3TYR     BB  857   2.659   6.831   1.662 -0.2100  0.0287  0.0347
    3TYR    SC1  858   2.974   6.923   1.672  0.0330 -0.1674 -0.2619
    3TYR    SC2  859   3.228   6.973   1.751  0.0055 -0.1284 -0.1969
    3TYR    SC3  860   3.181   6.843   1.519  0.0869 -0.2049 -0.1708
    1TYR     BB  861   3.655   5.730   1.395 -0.0476  0.1634 -0.0305
    1TYR    SC1  862   3.479   5.602   1.182  0.1201 -0.4690  0.2148
    1TYR    SC2  863   3.244   5.527   1.073 -0.0407  0.3174 -0.0604
    1TYR    SC3  864   3.452   5.594   0.914  0.1643  0.2345  0.1656
    2ASN     BB  865   3.622   5.748   1.653  0.0156  0.0896  0.1863
    2ASN    SC1  866   3.597   5.992   1.804 -0.1515  0.4064 -0.1267
    3TYR     BB  867   3.703   5.536   1.915 -0.3076  0.1280  0.0670
    3TYR    SC1  868   3.417   5.543   2.070 -0.1319 -0.3872 -0.3775
    3TYR    SC2  869   3.193   5.426   2.164 -0.1809 -0.0765 -0.0824
    3TYR    SC3  870   3.185   5.680   2.071  0.0698 -0.0140  0.0553
    1TYR     BB  871   2.517   6.957   2.905  0.1935 -0.3330  0.0766
    1TYR    SC1  872   2.303   6.821   2.746 -0.0985  0.3395 -0.3276
    1TYR    SC2  873   2.172   6.592   2.688 -0.0489  0.1655  0.1878
    1TYR    SC3  874   2.039   6.827   2.689 -0.1896  0.0892  0.0287
    2ASN     BB  875   2.727   6.740   3.055 -0.1495  0.2307 -0.1862
    2ASN    SC1  876   2.974   6.861   3.150  0.0745 -0.3254  0.1570
    3TYR     BB  877   2.685   6.345   3.036 -0.1594  0.0226  0.1324
    3TYR    SC1  878   2.904   6.133   2.941  0.2821 -0.1883 -0.0023
    3TYR    SC2  879   3.048   6.077   2.719  0.1372  0.0671 -0.1674
    3TYR    SC3  880   3.153   6.031   2.964  0.2662 -0.3025 -0.2837
    1TYR     BB  881   5.606   3.690   4.421  0.1869  0.1080  0.3975
    1TYR    SC1  882   5.635   3.378   4.455 -0.0213  0.0340  0.2741
    1TYR    SC2  883   5.803   3.177   4.390  0.1152  0.2340 -0.0156
    1TYR    SC3  884   5.570   3.122   4.515 -0.1686 -0.1955 -0.6627
    2ASN     BB  885   5.665   3.780   4.136  0.1673 -0.0724 -0.0530
    2ASN    SC1  886   5.710   3.539   3.930  0.3991 -0.0161  0.3019
    3TYR     BB  887   5.652   4.019   4.026  0.0748  0.0790 -0.1819
    3TYR    SC1  888   5.872   4.218   4.131 -0.3938  0.3206  0.0876
    3TYR    SC2  889   5.931   4.425   4.294 -0.2949  0.0916  0.3519
    3TYR    SC3  890   5.987   4.172   4.371 -0.1226 -0.0181 -0.0954
    1TYR     BB  891   4.663   4.009   4.226 -0.1994 -0.2916  0.1473
    1TYR    SC1  892   4.447   3.828   4.057 -0.0377 -0.0901  0.0049
    1TYR    SC2  893   4.219   3.714   3.968 -0.1187 -0.0366  0.1414
    1TYR    SC3  894   4.429   3.743   3.801 -0.1842 -0.1572  0.0365
    2ASN     BB  895   4.619   4.283   4.090 -0.0148 -0.0836  0.0885
    2ASN    SC1  896   4.768   4.561   4.137  0.1412  0.2353  0.1625
    3TYR     BB  897   4.308   4.398   4.155 -0.0694  0.1698  0.1821
    3TYR    SC1  898   4.181   4.130   4.283 -0.0651 -0.0185  0.0667
    3TYR    SC2  899   4.237   4.082   4.543  0.4155 -0.0247 -0.0266
    3TYR    SC3  900   4.118   3.891   4.394  0.2417 -0.0643  0.1574
    1TYR     BB  901   5.654   1.497   3.544 -0.2669 -0.2667  0.1473
    1TYR    SC1  902   5.829   1.697   3.335 -0.3860 -0.3936 -0.2140
    1TYR    SC2  903   5.817   1.831   3.101  0.0254 -0.1088 -0.0862
    1TYR    SC3  904   5.970   1.610   3.122  0.0406 -0.0968 -0.0703
    2ASN     BB  905   5.767   1.273   3.594  0.1450 -0.0431 -0.2619
    2ASN    SC1  906   5.597   0.998   3.532 -0.0607  0.1862 -0.0708
    3TYR     BB  907   5.994   1.302   3.812 -0.0002  0.1565  0.1013
    3TYR    SC1  908   5.879   1.501   4.028 -0.3918 -0.2279  0.1955
    3TYR    SC2  909   5.664   1.654   4.081 -0.2472 -0.0089  0.1671
    3TYR    SC3  910   5.900   1.707   4.201 -0.0400  0.1837 -0.2975
    1TYR     BB  911   4.640   1.469   4.931 -0.1647 -0.1987  0.0394
    1TYR    SC1  912   4.624   1.527   5.187 -0.0059 -0.2072  0.0959
    1TYR    SC2  913   4.589   1.763   5.315  0.3373 -0.0074 -0.1566
    1TYR    SC3  914   4.470   1.539   5.409  0.3467  0.1799  0.3388
    2ASN     BB  915   4.786   1.082   4.979 -0.1896  0.0218 -0.0216
    2ASN    SC1  916   4.520   1.021   5.080  0.1878 -0.0025  0.0133
    3TYR     BB  917   5.122   1.138   5.069  0.1065  0.1301  0.4175
    3TYR    SC1  918   5.186   0.961   5.284  0.1546 -0.0187 -0.0320
    3TYR    SC2  919   5.313   0.755   5.403  0.0361 -0.1104 -0.0629
    3TYR    SC3  920   5.215   0.957   5.553  0.0621 -0.1271 -0.0231
    1TYR     BB  921   5.045   4.804   2.843  0.2211 -0.1675  0.1050
    1TYR    SC1  922   5.218   4.566   2.804 -0.0489  0.2570 -0.4842
    1TYR    SC2  923   5.442   4.422   2.761 -0.1390  0.0673 -0.3413
    1TYR    SC3  924   5.230   4.395   2.596 -0.2341 -0.1333 -0.1906
    2ASN     BB  925   4.790   4.663   2.633 -0.0485  0.0120  0.0854
    2ASN    SC1  926   4.834   4.647   2.301 -0.1159  0.2505 -0.2922
    3TYR     BB  927   4.516   4.849   2.642 -0.0122 -0.0797 -0.1336
    3TYR    SC1  928   4.519   5.121   2.553  0.1210 -0.1033  0.0500
    3TYR    SC2  929   4.717   5.196   2.386 -0.0810 -0.3749 -0.3301
    3TYR    SC3  930   4.572   5.383   2.515  0.4891 -0.1697  0.0627
    1TYR     BB  931   2.118   3.783   2.195 -0.2251  0.1312 -0.2045
    1TYR    SC1  932   1.820   3.753   2.264  0.2141  0.0175 -0.1271
    1TYR    SC2  933   1.581   3.821   2.159  0.2578  0.1499 -0.1441
    1TYR    SC3  934   1.601   3.607   2.323  0.0062  0.4775  0.3469
    2ASN     BB  935   2.268   3.690   2.546  0.1437  0.1315 -0.1442
    2ASN    SC1  936   2.289   3.362   2.442  0.0954 -0.1289  0.0485
    3TYR     BB  937   2.332   3.853   2.753 -0.0998 -0.0153 -0.0960
    3TYR    SC1  938   2.470   4.123   2.828 -0.1107 -0.1205  0.3302
    3TYR    SC2  939   2.424   4.329   2.997  0.2215 -0.0569  0.3498
    3TYR    SC3  940   2.671   4.220   2.980  0.1404 -0.2093  0.0655
    1TYR     BB  941   5.281   1.266   3.925 -0.0246  0.1715  0.1628
    1TYR    SC1  942   5.152   1.276   3.654 -0.3353 -0.0088  0.1368
    1TYR    SC2  943   4.928   1.356   3.528 -0.1106  0.0512 -0.2461
    1TYR    SC3  944   5.137   1.263   3.385  0.1030 -0.0307  0.1031
    2ASN     BB  945   5.090   1.456   4.123  0.2022  0.1992  0.1709
    2ASN    SC1  946   4.793   1.452   4.083 -0.0217 -0.1077  0.3491
    3TYR     BB  947   5.214   1.699   4.279  0.0994  0.1344 -0.1661
    3TYR    SC1  948   5.030   1.885   4.448  0.0999  0.3017  0.2138
    3TYR    SC2  949   4.875   2.071   4.569 -0.2613  0.0854  0.1060
    3TYR    SC3  950   4.769   1.833   4.499  0.0854 -0.0100 -0.1275
    1TYR     BB  951   5.633   2.513   3.836  0.0559  0.3327 -0.2489
    1TYR    SC1  952   5.943   2.479   3.719  0.1869 -0.0155  0.0190
    1TYR    SC2  953   6.205   2.422   3.752  0.1176 -0.5555 -0.2242
    1TYR    SC3  954   6.118   2.527   3.519  0.1380 -0.1344 -0.0536
    2ASN     BB  955   5.665   2.848   3.743 -0.2091 -0.3402 -0.1438
    2ASN    SC1  956   5.793   3.006   3.468  0.0751 -0.0702  0.1878
    3TYR     BB  957   5.639   3.054   3.988 -0.0477  0.1155  0.3394
    3TYR    SC1  958   5.395   3.198   4.074  0.1876  0.0694 -0.2665
    3TYR    SC2  959   5.126   3.219   4.069  0.1505 -0.2072  0.0734
    3TYR    SC3  960   5.269   3.351   4.257  0.2379 -0.1918 -0.0030
    1TYR     BB  961   5.628   2.703   5.310  0.1700 -0.1284 -0.0394
    1TYR    SC1  962   5.434   2.813   5.073 -0.2921  0.1499 -0.0526
    1TYR    SC2  963   5.216   2.730   4.937 -0.0248 -0.1307 -0.3341
    1TYR    SC3  964   5.430   2.826   4.803  0.1301 -0.1157 -0.0851
    2ASN     BB  965   5.812   2.542   5.395 -0.0119 -0.0390 -0.1402
    2ASN    SC1  966   5.792   2.250   5.380  0.0789  0.1924 -0.2945
    3TYR     BB  967   5.945   2.615   5.741  0.0571  0.0444 -0.0615
    3TYR    SC1  968   5.726   2.648   5.998 -0.0131  0.5109  0.2606
    3TYR    SC2  969   5.605   2.779   6.200 -0.5909  0.0165  0.2710
    3TYR    SC3  970   5.492   2.556   6.097  0.0481 -0.1538 -0.1318
    1TYR     BB  971   5.640   2.419   3.351  0.0205  0.2247  0.2427
    1TYR    SC1  972   5.796   2.551   3.136  0.0376 -0.3080  0.2230
    1TYR    SC2  973   6.007   2.501   2.976  0.0829 -0.2950  0.2786
    1TYR    SC3  974   5.922   2.755   3.013 -0.5432 -0.3407 -0.5163
    2ASN     BB  975   5.765   2.163   3.426 -0.2838  0.2373 -0.0839
    2ASN    SC1  976   6.096   2.071   3.386  0.2068  0.2589  0.1474
    3TYR     BB  977   5.720   1.992   3.735  0.4095  0.1866 -0.2866
    3TYR    SC1  978   5.977   1.852   3.782 -0.0667 -0.4548  0.1902
    3TYR    SC2  979   6.202   1.707   3.741 -0.0516 -0.4775  0.3482
    3TYR    SC3  980   6.189   1.883   3.946  0.0454 -0.0181 -0.0187
    1TYR     BB  981   2.429   4.998   3.512 -0.1288  0.2029 -0.0145
    1TYR    SC1  982   2.701   5.137   3.447  0.1676 -0.2241  0.1114
    1TYR    SC2  983   2.853   5.328   3.330  0.0484 -0.3028 -0.1851
    1TYR    SC3  984   2.959   5.168   3.521  0.2144 -0.0926 -0.0961
    2ASN     BB  985   2.196   5.064   3.627 -0.1856  0.1064  0.2099
    2ASN    SC1  986   1.906   5.022   3.477  0.1815  0.0749 -0.0064
    3TYR     BB  987   2.106   5.328   3.790 -0.2378  0.1265 -0.2181
    3TYR    SC1  988   2.453   5.386   3.842  0.1540 -0.2292  0.4800
    3TYR    SC2  989   2.693   5.292   3.922  0.2869 -0.1772  0.1611
    3TYR    SC3  990   2.679   5.485   3.734 -0.0072 -0.5082 -0.1775
    1TYR     BB  991   3.277   4.165   3.792  0.0707  0.0606 -0.4033
    1TYR    SC1  992   3.139   4.203   3.499  0.3922 -0.0550 -0.1668
    1TYR    SC2  993   2.993   4.355   3.331  0.3373  0.1709  0.0758
    1TYR    SC3  994   2.945   4.090   3.349  0.1796  0.1860 -0.0832
    2ASN     BB  995   3.167   4.420   3.979  0.5682 -0.2149 -0.3218
    2ASN    SC1  996   2.945   4.402   4.216  0.2647 -0.1270  0.0748
    3TYR     BB  997   3.398   4.581   4.128 -0.0372 -0.0421  0.2157
    3TYR    SC1  998   3.468   4.835   3.994  0.0483  0.3465 -0.1594
    3TYR    SC2  999   3.436   5.093   4.065  0.0846  0.3468 -0.1439
    3TYR    SC3 1000   3.309   4.996   3.847 -0.2416  0.2785  0.0675
   7.63541   7.63541   7.63541
