Generated by trjconv : Martini system from ../2_Creating_coordinates/TYR-PRO-TYR_aa.pdb t=   0.00000
 1000
    1TYR     BB    1  -1.432   4.836   3.703 -0.0593  0.0961  0.2806
    1TYR    SC1    2  -1.300   5.030   3.500  0.0284  0.1793 -0.2482
    1TYR    SC2    3  -1.288   5.240   3.330  0.2166  0.3232 -0.0649
    1TYR    SC3    4  -1.135   5.238   3.553 -0.0548  0.1586  0.1262
    2PRO     BB    5  -1.789   4.825   3.606  0.0679 -0.0900 -0.1773
    2PRO    SC1    6  -1.887   4.955   3.402  0.1526 -0.0545  0.1175
    3TYR     BB    7  -1.933   4.520   3.613 -0.0761  0.0778  0.2731
    3TYR    SC1    8  -2.186   4.505   3.783  0.1045 -0.2848  0.0061
    3TYR    SC2    9  -2.455   4.493   3.788  0.0757  0.0798  0.5578
    3TYR    SC3   10  -2.313   4.413   4.003  0.4435 -0.3819  0.1702
    1TYR     BB   11   1.615   3.209   4.650  0.0093 -0.3284 -0.2096
    1TYR    SC1   12   1.589   3.437   4.824  0.3255  0.0100  0.1833
    1TYR    SC2   13   1.422   3.648   4.798 -0.0998 -0.3250  0.0349
    1TYR    SC3   14   1.656   3.677   4.930  0.0740  0.3445 -0.3579
    2PRO     BB   15   1.898   3.260   4.505  0.1565 -0.3703  0.0681
    2PRO    SC1   16   2.048   3.053   4.542  0.1706  0.0879 -0.2186
    3TYR     BB   17   2.137   3.447   4.794  0.1613  0.0196 -0.0234
    3TYR    SC1   18   2.412   3.341   4.691 -0.0946 -0.0698  0.1680
    3TYR    SC2   19   2.554   3.135   4.591 -0.2158 -0.1215  0.0996
    3TYR    SC3   20   2.528   3.364   4.449  0.1479  0.0495  0.2907
    1TYR     BB   21   6.665   3.555   4.167 -0.0418  0.0824  0.0591
    1TYR    SC1   22   6.493   3.737   4.357 -0.2444  0.0150 -0.1096
    1TYR    SC2   23   6.544   3.837   4.604  0.0361 -0.1085 -0.1132
    1TYR    SC3   24   6.289   3.800   4.522 -0.0770  0.4469 -0.0533
    2PRO     BB   25   6.943   3.734   4.087 -0.1064 -0.2362  0.0826
    2PRO    SC1   26   6.844   4.034   4.135 -0.0822  0.0063  0.0098
    3TYR     BB   27   7.222   3.695   3.979 -0.2537 -0.2325  0.1004
    3TYR    SC1   28   7.312   3.956   3.881  0.0191  0.2869  0.0086
    3TYR    SC2   29   7.289   4.195   4.004 -0.0215  0.3314 -0.0837
    3TYR    SC3   30   7.419   4.177   3.768  0.4241  0.1781  0.1578
    1TYR     BB   31   4.960   4.121   3.808 -0.0253 -0.1843 -0.0465
    1TYR    SC1   32   5.149   4.290   3.607  0.1262  0.2288  0.3869
    1TYR    SC2   33   5.093   4.440   3.391  0.1627  0.0922  0.2812
    1TYR    SC3   34   5.332   4.464   3.512  0.1206  0.2111  0.3434
    2PRO     BB   35   5.020   3.839   3.769  0.1537  0.1578  0.1442
    2PRO    SC1   36   5.007   3.641   4.000  0.0447  0.0413  0.1213
    3TYR     BB   37   4.943   3.659   3.456  0.1824 -0.2783  0.3024
    3TYR    SC1   38   4.663   3.695   3.479  0.2597  0.0612 -0.1327
    3TYR    SC2   39   4.418   3.712   3.591  0.2804 -0.0377 -0.0706
    3TYR    SC3   40   4.447   3.746   3.325  0.1479 -0.3685 -0.1325
    1TYR     BB   41   8.208   3.568   3.882  0.1248  0.1230  0.2042
    1TYR    SC1   42   8.501   3.461   3.781 -0.1457  0.4400  0.0031
    1TYR    SC2   43   8.729   3.382   3.900 -0.2652  0.0793  0.0046
    1TYR    SC3   44   8.735   3.482   3.649 -0.0443  0.5953  0.1999
    2PRO     BB   45   7.935   3.701   3.660  0.0544 -0.0407  0.3112
    2PRO    SC1   46   7.997   3.517   3.426  0.0236 -0.1975 -0.2515
    3TYR     BB   47   7.814   3.915   3.677 -0.0519  0.1366 -0.0828
    3TYR    SC1   48   7.788   4.200   3.529  0.0271  0.0830 -0.1455
    3TYR    SC2   49   7.606   4.278   3.346  0.0165 -0.0072 -0.1743
    3TYR    SC3   50   7.831   4.424   3.383  0.1517 -0.1337 -0.4563
    1TYR     BB   51   0.130   4.965   3.628  0.2230  0.2519 -0.1004
    1TYR    SC1   52  -0.040   4.792   3.767 -0.3643  0.4776 -0.1052
    1TYR    SC2   53  -0.288   4.699   3.713 -0.2624  0.1657 -0.0609
    1TYR    SC3   54  -0.209   4.734   3.969 -0.2383  0.1996 -0.0731
    2PRO     BB   55   0.383   5.095   3.803  0.0703 -0.0506  0.0706
    2PRO    SC1   56   0.520   5.314   3.661 -0.2051 -0.0793  0.1714
    3TYR     BB   57   0.194   5.115   4.101 -0.0530 -0.3661  0.0615
    3TYR    SC1   58   0.392   5.035   4.315 -0.3028  0.0717  0.1291
    3TYR    SC2   59   0.633   4.962   4.219 -0.2845  0.3705 -0.0725
    3TYR    SC3   60   0.567   4.905   4.474  0.2159  0.7393  0.1594
    1TYR     BB   61   6.707   4.798   3.524  0.1936  0.1157 -0.3641
    1TYR    SC1   62   6.689   4.694   3.259  0.3078  0.0329 -0.0186
    1TYR    SC2   63   6.470   4.705   3.101  0.2334 -0.1080  0.0724
    1TYR    SC3   64   6.715   4.693   2.990  0.1887 -0.0840 -0.0308
    2PRO     BB   65   6.711   5.055   3.627 -0.1207  0.0354 -0.0450
    2PRO    SC1   66   6.828   5.252   3.478  0.0701 -0.1543 -0.2463
    3TYR     BB   67   6.561   5.085   3.944  0.0472  0.1191 -0.2205
    3TYR    SC1   68   6.318   4.927   3.988 -0.0273 -0.0396 -0.2017
    3TYR    SC2   69   6.054   4.882   3.949 -0.1375  0.2270  0.1763
    3TYR    SC3   70   6.183   4.762   4.153  0.0412  0.0943 -0.0093
    1TYR     BB   71   1.860   2.512   3.003  0.1440  0.1208 -0.0456
    1TYR    SC1   72   1.951   2.300   2.835  0.1457 -0.1942  0.2082
    1TYR    SC2   73   2.042   2.058   2.758  0.2482 -0.0510 -0.1432
    1TYR    SC3   74   2.167   2.282   2.673 -0.0744  0.1359 -0.1405
    2PRO     BB   75   1.542   2.487   3.051 -0.0416  0.0232  0.1861
    2PRO    SC1   76   1.313   2.328   2.940  0.0545  0.1564 -0.0042
    3TYR     BB   77   1.301   2.808   3.028  0.3593 -0.1096  0.0234
    3TYR    SC1   78   0.981   2.715   2.937 -0.1775  0.0084 -0.0362
    3TYR    SC2   79   0.736   2.785   2.851 -0.2421  0.1783  0.2669
    3TYR    SC3   80   0.821   2.531   2.820 -0.3989  0.1482  0.0387
    1TYR     BB   81   1.296   2.409   4.398 -0.2531 -0.2871  0.2154
    1TYR    SC1   82   1.424   2.545   4.599  0.1325 -0.0423 -0.1307
    1TYR    SC2   83   1.471   2.733   4.786 -0.2401  0.0554 -0.1268
    1TYR    SC3   84   1.678   2.606   4.669  0.0051  0.1141  0.2218
    2PRO     BB   85   1.132   2.540   4.139 -0.0818  0.0424  0.0639
    2PRO    SC1   86   0.897   2.645   4.247  0.0822 -0.0482 -0.2074
    3TYR     BB   87   1.208   2.656   3.844 -0.0774 -0.5053 -0.2339
    3TYR    SC1   88   1.150   2.461   3.602 -0.2409  0.0817  0.1728
    3TYR    SC2   89   1.120   2.482   3.334  0.0611  0.0361  0.1307
    3TYR    SC3   90   0.967   2.309   3.473  0.2335 -0.3091 -0.0904
    1TYR     BB   91   1.683   2.461   3.509  0.3251 -0.1888 -0.0295
    1TYR    SC1   92   1.566   2.198   3.521  0.5438  0.0961 -0.1459
    1TYR    SC2   93   1.578   1.929   3.512  0.2333  0.0699  0.0413
    1TYR    SC3   94   1.387   2.061   3.372  0.4379  0.2039 -0.1203
    2PRO     BB   95   1.585   2.822   3.469  0.1132  0.5374 -0.3797
    2PRO    SC1   96   1.737   2.948   3.216 -0.1368 -0.1882  0.1221
    3TYR     BB   97   1.625   2.940   3.709  0.0375 -0.2213 -0.1022
    3TYR    SC1   98   1.873   2.872   3.879 -0.1599 -0.0083 -0.1882
    3TYR    SC2   99   2.018   2.979   4.078 -0.4400  0.0128  0.0138
    3TYR    SC3  100   2.124   2.784   3.922 -0.0402  0.3413 -0.1484
    1TYR     BB  101   5.770   4.053   3.186  0.0668 -0.3956  0.3150
    1TYR    SC1  102   5.920   4.264   3.052  0.3209  0.2192 -0.3500
    1TYR    SC2  103   5.973   4.438   2.852  0.3664  0.4548 -0.1415
    1TYR    SC3  104   6.047   4.497   3.105  0.5247  0.0555 -0.0849
    2PRO     BB  105   5.669   4.139   3.492 -0.0686 -0.0545  0.2684
    2PRO    SC1  106   5.524   3.950   3.669  0.0092  0.0303  0.4223
    3TYR     BB  107   5.810   4.329   3.650 -0.0508 -0.2004 -0.0970
    3TYR    SC1  108   5.981   4.552   3.640  0.0163 -0.0398 -0.0811
    3TYR    SC2  109   5.962   4.789   3.512 -0.0733 -0.0854 -0.1528
    3TYR    SC3  110   6.203   4.674   3.546  0.0102  0.1599  0.1482
    1TYR     BB  111   2.438   3.190   2.684  0.1117 -0.0401  0.0412
    1TYR    SC1  112   2.286   3.246   2.455 -0.1269  0.0691 -0.1826
    1TYR    SC2  113   2.142   3.300   2.233 -0.2817  0.1905 -0.0552
    1TYR    SC3  114   2.034   3.338   2.476 -0.2455 -0.2788  0.0489
    2PRO     BB  115   2.680   3.412   2.705  0.1182  0.2006 -0.0194
    2PRO    SC1  116   2.926   3.370   2.644  0.0307  0.0206 -0.1586
    3TYR     BB  117   2.649   3.696   2.805 -0.4403 -0.2194 -0.1919
    3TYR    SC1  118   2.687   3.889   2.551 -0.1357  0.1254  0.0048
    3TYR    SC2  119   2.497   4.069   2.482 -0.0862  0.2953  0.2898
    3TYR    SC3  120   2.707   4.023   2.318 -0.3411  0.1420 -0.0056
    1TYR     BB  121   6.624   4.659   4.220 -0.2369 -0.2739 -0.3165
    1TYR    SC1  122   6.535   4.542   3.930 -0.3463  0.0800 -0.1230
    1TYR    SC2  123   6.601   4.338   3.767  0.1145  0.2561 -0.1755
    1TYR    SC3  124   6.345   4.370   3.846 -0.0073 -0.2034 -0.3439
    2PRO     BB  125   6.617   4.404   4.376 -0.0162  0.0845 -0.1664
    2PRO    SC1  126   6.341   4.266   4.350 -0.2102 -0.0204  0.3891
    3TYR     BB  127   6.834   4.247   4.607 -0.0451  0.1796 -0.0370
    3TYR    SC1  128   6.723   4.203   4.866  0.2758 -0.3439  0.2567
    3TYR    SC2  129   6.678   4.072   5.097 -0.4400 -0.1512  0.2564
    3TYR    SC3  130   6.626   4.338   5.079  0.1084 -0.0427  0.0017
    1TYR     BB  131   0.679   3.779   4.489  0.2075 -0.0724 -0.1220
    1TYR    SC1  132   0.548   3.892   4.677 -0.0598 -0.0226  0.1096
    1TYR    SC2  133   0.300   3.931   4.776 -0.1321  0.0697 -0.1016
    1TYR    SC3  134   0.503   3.868   4.943 -0.3717 -0.4108  0.0336
    2PRO     BB  135   0.563   3.914   4.158  0.1158  0.0678 -0.0596
    2PRO    SC1  136   0.603   3.742   3.980 -0.1453  0.2158  0.1608
    3TYR     BB  137   0.349   4.130   4.235 -0.1855 -0.1382 -0.1848
    3TYR    SC1  138   0.129   3.971   4.291 -0.0666 -0.3334  0.0070
    3TYR    SC2  139  -0.089   3.827   4.223 -0.2540 -0.0738  0.0465
    3TYR    SC3  140  -0.039   3.885   4.482 -0.3306  0.1565  0.0134
    1TYR     BB  141   4.948   4.834   3.659  0.0487 -0.2477  0.0627
    1TYR    SC1  142   4.934   5.071   3.429  0.2059 -0.1442  0.0298
    1TYR    SC2  143   4.770   5.197   3.255 -0.4030  0.0695  0.6980
    1TYR    SC3  144   5.007   5.309   3.321 -0.0685 -0.1002 -0.0683
    2PRO     BB  145   4.937   5.022   3.905  0.0319  0.1732  0.0728
    2PRO    SC1  146   5.263   5.066   3.951  0.2186  0.3447 -0.1710
    3TYR     BB  147   4.741   5.012   4.121 -0.0344 -0.0013  0.1616
    3TYR    SC1  148   4.468   5.168   4.119 -0.1270  0.1772 -0.0722
    3TYR    SC2  149   4.242   5.246   4.241 -0.3045 -0.1203 -0.1968
    3TYR    SC3  150   4.315   5.362   4.009 -0.2540  0.0682 -0.0903
    1TYR     BB  151   3.584   4.451   3.244  0.0294  0.0583 -0.2459
    1TYR    SC1  152   3.619   4.716   3.066  0.0022  0.0994 -0.0309
    1TYR    SC2  153   3.473   4.801   2.855  0.2013 -0.1308 -0.2726
    1TYR    SC3  154   3.657   4.964   2.968 -0.2199  0.1590  0.0305
    2PRO     BB  155   3.950   4.439   3.335  0.0692 -0.1071 -0.0147
    2PRO    SC1  156   4.196   4.392   3.178  0.3448 -0.1818  0.2204
    3TYR     BB  157   4.033   4.457   3.653 -0.1170  0.0717 -0.0290
    3TYR    SC1  158   4.333   4.385   3.651 -0.1978 -0.2353 -0.0565
    3TYR    SC2  159   4.503   4.177   3.624  0.1052 -0.0022 -0.0224
    3TYR    SC3  160   4.560   4.413   3.506 -0.1032  0.1376  0.1490
    1TYR     BB  161  -1.778   4.086   4.142 -0.0949  0.2926  0.1315
    1TYR    SC1  162  -1.831   4.366   4.082  0.1109  0.0574 -0.1527
    1TYR    SC2  163  -1.710   4.606   4.057  0.0620  0.1286  0.2235
    1TYR    SC3  164  -1.938   4.584   4.200 -0.0598 -0.1062  0.0027
    2PRO     BB  165  -1.769   3.891   3.889 -0.0467  0.0864 -0.1636
    2PRO    SC1  166  -1.837   4.055   3.653  0.0244  0.0815  0.1729
    3TYR     BB  167  -1.815   3.561   3.746  0.1203  0.2506  0.1123
    3TYR    SC1  168  -2.090   3.521   3.594  0.0291  0.2796 -0.1679
    3TYR    SC2  169  -2.208   3.603   3.366  0.0109  0.0664 -0.2406
    3TYR    SC3  170  -2.359   3.527   3.576  0.0275  0.2166 -0.1710
    1TYR     BB  171   1.753   4.490   3.308 -0.1474  0.1093 -0.2179
    1TYR    SC1  172   1.899   4.238   3.433 -0.1781  0.0477 -0.5012
    1TYR    SC2  173   1.932   3.996   3.548  0.1577  0.4224  0.2888
    1TYR    SC3  174   2.094   4.073   3.346 -0.3174 -0.1810 -0.3872
    2PRO     BB  175   1.752   4.478   2.989 -0.0982  0.2963  0.1377
    2PRO    SC1  176   1.861   4.732   2.947  0.1590  0.2224 -0.0176
    3TYR     BB  177   1.812   4.123   2.881  0.4662  0.1169  0.1301
    3TYR    SC1  178   1.733   3.879   3.067 -0.1234 -0.0217 -0.2888
    3TYR    SC2  179   1.565   3.668   3.070 -0.2074  0.0276  0.3717
    3TYR    SC3  180   1.761   3.688   3.254  0.4990  0.0211 -0.3142
    1TYR     BB  181   0.288   3.503   4.522  0.2774  0.2800 -0.0338
    1TYR    SC1  182   0.465   3.428   4.763 -0.0937 -0.1443  0.0386
    1TYR    SC2  183   0.604   3.209   4.836 -0.1447 -0.1202  0.2144
    1TYR    SC3  184   0.605   3.428   4.993 -0.2981 -0.0833  0.1663
    2PRO     BB  185   0.135   3.236   4.447  0.1624 -0.2645 -0.0558
    2PRO    SC1  186  -0.144   3.349   4.399  0.3056 -0.1380  0.1658
    3TYR     BB  187   0.132   3.035   4.776 -0.4723 -0.2305  0.0962
    3TYR    SC1  188   0.326   2.831   4.675 -0.1102 -0.0038 -0.1234
    3TYR    SC2  189   0.560   2.705   4.636  0.0015  0.1915 -0.0961
    3TYR    SC3  190   0.384   2.728   4.433 -0.1625 -0.2832 -0.0215
    1TYR     BB  191   1.149   5.166   3.471 -0.0952  0.1968  0.2514
    1TYR    SC1  192   1.109   5.155   3.802  0.1054 -0.1739  0.0476
    1TYR    SC2  193   0.937   5.229   3.998  0.1141 -0.1132  0.0326
    1TYR    SC3  194   1.189   5.151   4.060  0.1001 -0.1451  0.0497
    2PRO     BB  195   0.863   5.016   3.421  0.0753  0.2472  0.0135
    2PRO    SC1  196   0.721   5.160   3.211  0.3497  0.4088 -0.0848
    3TYR     BB  197   0.730   4.790   3.619  0.0639  0.2204 -0.0759
    3TYR    SC1  198   0.957   4.707   3.834  0.4059 -0.0707  0.0583
    3TYR    SC2  199   1.030   4.727   4.092  0.4534  0.1758  0.0277
    3TYR    SC3  200   1.125   4.525   3.941  0.3640 -0.0146  0.2217
    1TYR     BB  201   3.065   3.311   4.601 -0.2271 -0.0083  0.4078
    1TYR    SC1  202   3.169   3.588   4.761 -0.0422  0.2396 -0.2623
    1TYR    SC2  203   3.165   3.798   4.931  0.0744 -0.0018  0.0513
    1TYR    SC3  204   3.290   3.571   5.003 -0.0623 -0.1873 -0.2758
    2PRO     BB  205   3.304   3.059   4.523 -0.2548  0.2125  0.2106
    2PRO    SC1  206   3.092   2.838   4.533  0.2930  0.0042 -0.0979
    3TYR     BB  207   3.519   2.791   4.659 -0.0592 -0.0383  0.0852
    3TYR    SC1  208   3.649   2.704   4.367 -0.0308  0.1347 -0.2795
    3TYR    SC2  209   3.751   2.510   4.209  0.3014 -0.0128  0.0969
    3TYR    SC3  210   3.492   2.498   4.288  0.1726 -0.0155 -0.2979
    1TYR     BB  211   3.516   3.913   2.561  0.0177 -0.0915 -0.1725
    1TYR    SC1  212   3.621   4.208   2.571  0.7862  0.2387 -0.2825
    1TYR    SC2  213   3.544   4.459   2.508  0.0022  0.0530 -0.1893
    1TYR    SC3  214   3.652   4.408   2.750  0.1416  0.2874 -0.1980
    2PRO     BB  215   3.639   3.780   2.346  0.1605 -0.4126  0.1519
    2PRO    SC1  216   3.607   4.011   2.080 -0.0234  0.1788  0.0837
    3TYR     BB  217   3.847   3.597   2.430 -0.0849  0.1892  0.0755
    3TYR    SC1  218   3.831   3.319   2.259  0.1329 -0.0329 -0.0597
    3TYR    SC2  219   3.748   3.079   2.168 -0.3857  0.1768 -0.1853
    3TYR    SC3  220   3.885   3.247   2.006 -0.2832  0.0864 -0.1935
    1TYR     BB  221   5.068   4.640   4.204  0.3307 -0.1051 -0.2004
    1TYR    SC1  222   5.182   4.871   4.379 -0.0909 -0.1491 -0.0364
    1TYR    SC2  223   5.259   4.988   4.611  0.3721 -0.2964 -0.1033
    1TYR    SC3  224   5.138   5.136   4.420  0.3259 -0.0879  0.0811
    2PRO     BB  225   5.216   4.547   3.993 -0.2516 -0.0635  0.0151
    2PRO    SC1  226   5.364   4.286   4.024  0.0355  0.0830 -0.0563
    3TYR     BB  227   5.567   4.700   3.921 -0.2725 -0.0503  0.1960
    3TYR    SC1  228   5.641   4.834   4.166 -0.0738  0.0928 -0.1484
    3TYR    SC2  229   5.620   4.888   4.429  0.2191 -0.1314 -0.0722
    3TYR    SC3  230   5.711   5.078   4.260 -0.2685  0.1233 -0.0745
    1TYR     BB  231   6.294   2.801   3.529 -0.1203  0.0385 -0.0737
    1TYR    SC1  232   6.167   2.812   3.802  0.0619  0.1391 -0.0690
    1TYR    SC2  233   6.075   2.943   4.019  0.0479 -0.0275  0.0273
    1TYR    SC3  234   6.161   2.687   4.042  0.8974  0.2196  0.0347
    2PRO     BB  235   6.078   3.004   3.356 -0.4088  0.0403  0.0726
    2PRO    SC1  236   5.814   2.895   3.411 -0.0061 -0.0907 -0.1641
    3TYR     BB  237   6.230   3.268   3.219 -0.1589 -0.2651  0.1084
    3TYR    SC1  238   6.279   3.228   2.944  0.1820 -0.1833 -0.0667
    3TYR    SC2  239   6.339   3.334   2.702  0.0080  0.0237 -0.0222
    3TYR    SC3  240   6.202   3.101   2.718 -0.2252  0.1485 -0.1296
    1TYR     BB  241   5.546   3.070   3.758 -0.3697  0.1664  0.2925
    1TYR    SC1  242   5.853   3.235   3.765 -0.0642 -0.0924 -0.1010
    1TYR    SC2  243   6.072   3.379   3.699  0.1081 -0.1289  0.3477
    1TYR    SC3  244   5.847   3.503   3.785 -0.0013 -0.1002  0.0358
    2PRO     BB  245   5.362   3.270   3.796  0.1495 -0.0293  0.2191
    2PRO    SC1  246   5.344   3.487   3.621  0.3186 -0.1586 -0.0888
    3TYR     BB  247   5.198   3.135   4.098 -0.0587  0.1366  0.0723
    3TYR    SC1  248   5.145   2.883   3.986  0.1328 -0.0228  0.1893
    3TYR    SC2  249   5.057   2.780   3.754  0.3287 -0.0908  0.1427
    3TYR    SC3  250   5.110   2.616   3.962  0.0849 -0.0238  0.2626
    1TYR     BB  251   5.979   2.575   4.750 -0.0506  0.1104  0.1808
    1TYR    SC1  252   5.867   2.664   5.045  0.1217  0.4061 -0.0406
    1TYR    SC2  253   5.705   2.739   5.248 -0.0415  0.1992 -0.0892
    1TYR    SC3  254   5.951   2.641   5.300 -0.0164  0.3050 -0.0027
    2PRO     BB  255   6.158   2.814   4.545 -0.2524  0.0958 -0.0226
    2PRO    SC1  256   6.030   3.063   4.533 -0.1590  0.3228  0.0609
    3TYR     BB  257   6.445   2.655   4.577  0.0568  0.2495 -0.1737
    3TYR    SC1  258   6.402   2.354   4.566 -0.1141  0.0365 -0.0703
    3TYR    SC2  259   6.474   2.119   4.451  0.1141  0.0238  0.0890
    3TYR    SC3  260   6.400   2.126   4.711  0.1882  0.1392  0.1085
    1TYR     BB  261   8.421   3.975   2.759  0.1489 -0.0314 -0.1237
    1TYR    SC1  262   8.553   4.158   2.977 -0.2825  0.2433  0.0499
    1TYR    SC2  263   8.708   4.213   3.191 -0.0554 -0.0005 -0.0427
    1TYR    SC3  264   8.662   4.403   3.005  0.1891  0.0600 -0.0457
    2PRO     BB  265   8.301   3.655   2.905  0.0124 -0.0314 -0.0469
    2PRO    SC1  266   8.488   3.629   3.096  0.1273  0.0205  0.1138
    3TYR     BB  267   8.044   3.548   2.972 -0.0142  0.2905 -0.0706
    3TYR    SC1  268   7.921   3.292   2.846 -0.1705 -0.1277  0.0724
    3TYR    SC2  269   7.893   3.115   2.644 -0.2107 -0.0428  0.0036
    3TYR    SC3  270   7.712   3.121   2.844  0.0012 -0.3491  0.2152
    1TYR     BB  271   1.940   4.568   3.762 -0.0526 -0.1085 -0.2040
    1TYR    SC1  272   1.801   4.314   3.853  0.1404 -0.1458  0.1415
    1TYR    SC2  273   1.537   4.319   3.797  0.1476  0.0681  0.1146
    1TYR    SC3  274   1.632   4.154   3.988 -0.0365  0.1460  0.2771
    2PRO     BB  275   2.326   4.568   3.535 -0.1174  0.3135  0.1206
    2PRO    SC1  276   2.217   4.634   3.267  0.1722  0.1986 -0.3259
    3TYR     BB  277   2.501   4.452   3.679 -0.3557  0.0497  0.6976
    3TYR    SC1  278   2.586   4.557   3.936  0.2742 -0.0874 -0.0939
    3TYR    SC2  279   2.642   4.767   4.094  0.1967 -0.1410  0.0058
    3TYR    SC3  280   2.455   4.587   4.169  0.2351 -0.2247 -0.0965
    1TYR     BB  281   2.685   3.504   3.999  0.1990 -0.2094 -0.0020
    1TYR    SC1  282   2.899   3.335   4.096 -0.1110 -0.0260  0.0768
    1TYR    SC2  283   2.936   3.080   4.178  0.1577  0.0154  0.0965
    1TYR    SC3  284   3.139   3.216   4.063 -0.0693  0.1239 -0.1932
    2PRO     BB  285   2.417   3.299   3.959  0.1774 -0.1470 -0.3997
    2PRO    SC1  286   2.486   3.117   3.734  0.3793  0.0434 -0.1389
    3TYR     BB  287   2.140   3.474   4.058 -0.1013  0.1849  0.2101
    3TYR    SC1  288   2.239   3.708   4.234  0.1935 -0.1765 -0.3084
    3TYR    SC2  289   2.257   3.809   4.482 -0.1125 -0.3658 -0.2019
    3TYR    SC3  290   2.467   3.830   4.313 -0.0088  0.0405 -0.0416
    1TYR     BB  291   1.555   2.709   2.565  0.0687  0.0813 -0.1230
    1TYR    SC1  292   1.841   2.778   2.602  0.0581 -0.1613 -0.1522
    1TYR    SC2  293   2.098   2.818   2.528  0.1306 -0.2732  0.0305
    1TYR    SC3  294   2.001   2.940   2.749  0.0367 -0.2606 -0.0174
    2PRO     BB  295   1.600   2.461   2.333 -0.2748  0.5356  0.2431
    2PRO    SC1  296   1.607   2.209   2.475  0.1593 -0.1402 -0.2686
    3TYR     BB  297   1.514   2.514   2.052  0.2777  0.1449 -0.0768
    3TYR    SC1  298   1.432   2.769   1.940  0.1341 -0.0505 -0.0080
    3TYR    SC2  299   1.431   3.001   1.803 -0.0444 -0.1206 -0.1279
    3TYR    SC3  300   1.202   2.906   1.910  0.1247  0.0405  0.4099
    1TYR     BB  301  -1.327   3.912   4.127 -0.1010 -0.1096 -0.1504
    1TYR    SC1  302  -1.314   4.174   3.970 -0.4116  0.1195  0.1528
    1TYR    SC2  303  -1.448   4.316   3.783 -0.0495  0.1968 -0.0583
    1TYR    SC3  304  -1.221   4.414   3.892  0.1015 -0.1293 -0.0604
    2PRO     BB  305  -1.337   3.910   4.472  0.1275 -0.0920 -0.0852
    2PRO    SC1  306  -1.179   3.817   4.704 -0.0163  0.1893 -0.0246
    3TYR     BB  307  -1.580   4.094   4.601 -0.3498  0.1104 -0.0342
    3TYR    SC1  308  -1.529   4.357   4.491  0.0329 -0.1875 -0.4621
    3TYR    SC2  309  -1.385   4.492   4.307  0.0935  0.3076 -0.0786
    3TYR    SC3  310  -1.532   4.627   4.489  0.0761 -0.1559  0.2744
    1TYR     BB  311  -2.718   3.710   4.035  0.3433 -0.0165 -0.1141
    1TYR    SC1  312  -2.842   3.458   3.954 -0.1324  0.2836  0.2230
    1TYR    SC2  313  -3.026   3.397   3.766  0.0836 -0.0366  0.1055
    1TYR    SC3  314  -2.986   3.230   3.974  0.1692  0.0806  0.1842
    2PRO     BB  315  -2.933   3.994   3.985  0.1037 -0.2391  0.2265
    2PRO    SC1  316  -2.775   4.224   4.049 -0.0299  0.0733 -0.1360
    3TYR     BB  317  -3.236   3.861   3.939  0.0564 -0.2198 -0.2117
    3TYR    SC1  318  -3.308   3.722   4.193  0.1366  0.2988  0.3806
    3TYR    SC2  319  -3.170   3.569   4.369  0.0665 -0.0224  0.1636
    3TYR    SC3  320  -3.377   3.721   4.456 -0.1589 -0.4034  0.3232
    1TYR     BB  321   6.953   4.937   4.454 -0.0815  0.3703 -0.2309
    1TYR    SC1  322   7.206   4.702   4.391  0.0741  0.1879 -0.2331
    1TYR    SC2  323   7.249   4.438   4.419 -0.0017  0.2060  0.1081
    1TYR    SC3  324   7.442   4.596   4.318  0.0680  0.0322 -0.0370
    2PRO     BB  325   6.822   4.773   4.733  0.3076  0.2403 -0.2752
    2PRO    SC1  326   7.006   4.605   4.827 -0.0379  0.2784  0.2090
    3TYR     BB  327   6.548   4.760   4.774  0.1499  0.0630 -0.1168
    3TYR    SC1  328   6.251   4.705   4.644  0.0823 -0.1374  0.1686
    3TYR    SC2  329   6.013   4.591   4.586  0.1416 -0.1855  0.0179
    3TYR    SC3  330   6.036   4.860   4.591  0.0650 -0.1805  0.1122
    1TYR     BB  331  -0.691   4.693   4.440  0.1442  0.0688 -0.2910
    1TYR    SC1  332  -0.970   4.828   4.525  0.2991  0.1500  0.2913
    1TYR    SC2  333  -1.120   4.814   4.749  0.1857  0.0720  0.2121
    1TYR    SC3  334  -1.145   5.026   4.585 -0.0108 -0.0500  0.0806
    2PRO     BB  335  -0.523   4.508   4.238 -0.1926 -0.2589 -0.2851
    2PRO    SC1  336  -0.654   4.494   3.989 -0.0379 -0.0959  0.0105
    3TYR     BB  337  -0.281   4.273   4.349  0.0616 -0.0497  0.0365
    3TYR    SC1  338  -0.487   4.085   4.593 -0.0041 -0.3263  0.0400
    3TYR    SC2  339  -0.703   3.970   4.711 -0.1560 -0.2277 -0.1344
    3TYR    SC3  340  -0.482   3.824   4.658 -0.1632 -0.3209  0.0820
    1TYR     BB  341   9.199   3.574   2.599 -0.1601 -0.1586 -0.1002
    1TYR    SC1  342   9.267   3.279   2.688 -0.1090  0.4106  0.0470
    1TYR    SC2  343   9.444   3.077   2.662 -0.3760  0.1971 -0.1886
    1TYR    SC3  344   9.264   3.074   2.863 -0.2274  0.3290 -0.0493
    2PRO     BB  345   9.162   3.787   2.848 -0.3502  0.0195  0.1722
    2PRO    SC1  346   8.925   3.839   2.882  0.0754  0.1034 -0.0665
    3TYR     BB  347   9.551   3.845   2.838 -0.1057 -0.3141  0.0725
    3TYR    SC1  348   9.614   3.547   2.904  0.2098 -0.0969  0.1732
    3TYR    SC2  349   9.503   3.394   3.096 -0.1096 -0.2600 -0.1245
    3TYR    SC3  350   9.717   3.304   2.957 -0.1393 -0.3251 -0.1279
    1TYR     BB  351  -0.642   5.228   4.524  0.3166 -0.0328  0.0021
    1TYR    SC1  352  -0.359   5.084   4.582  0.1217  0.0190 -0.1186
    1TYR    SC2  353  -0.177   5.000   4.401 -0.0660  0.2701 -0.4375
    1TYR    SC3  354  -0.152   4.929   4.661  0.2409 -0.0539 -0.5460
    2PRO     BB  355  -0.777   5.340   4.296  0.0281 -0.1031 -0.1302
    2PRO    SC1  356  -0.651   5.616   4.254 -0.1925  0.1742  0.3019
    3TYR     BB  357  -1.008   5.312   4.105  0.2266  0.4592  0.0936
    3TYR    SC1  358  -1.167   5.068   4.095 -0.0874 -0.2818  0.2492
    3TYR    SC2  359  -1.380   4.919   4.172 -0.0898 -0.5351 -0.1993
    3TYR    SC3  360  -1.143   4.800   4.122  0.0822 -0.2947  0.0104
    1TYR     BB  361   8.506   2.703   3.225 -0.1345  0.0069 -0.2375
    1TYR    SC1  362   8.582   2.819   3.496  0.0824  0.5255 -0.2027
    1TYR    SC2  363   8.587   3.004   3.694  0.0771  0.2450  0.0691
    1TYR    SC3  364   8.645   2.746   3.748 -0.0952  0.1278 -0.2639
    2PRO     BB  365   8.183   2.921   3.194 -0.0995  0.0939 -0.1115
    2PRO    SC1  366   8.319   3.153   3.148  0.1031 -0.1663 -0.0084
    3TYR     BB  367   7.940   2.844   3.204  0.0862 -0.0434  0.2648
    3TYR    SC1  368   7.717   3.116   3.236 -0.0378  0.0025 -0.2239
    3TYR    SC2  369   7.580   3.204   3.451  0.0110 -0.1686 -0.1197
    3TYR    SC3  370   7.562   3.336   3.215 -0.2893 -0.1570 -0.0964
    1TYR     BB  371   2.007   2.163   3.728  0.3485 -0.0460  0.1032
    1TYR    SC1  372   2.253   2.241   3.884  0.2387 -0.0019 -0.1381
    1TYR    SC2  373   2.429   2.417   3.988  0.2410 -0.0120 -0.1248
    1TYR    SC3  374   2.505   2.162   3.943  0.1186 -0.1243  0.2565
    2PRO     BB  375   2.131   2.215   3.362  0.2099  0.2921  0.0385
    2PRO    SC1  376   1.972   1.988   3.292 -0.0575 -0.1539 -0.0372
    3TYR     BB  377   2.379   2.250   3.136 -0.1373 -0.0872 -0.0958
    3TYR    SC1  378   2.398   2.524   2.995  0.1317 -0.0638 -0.0602
    3TYR    SC2  379   2.321   2.783   2.985  0.1271 -0.0661 -0.0823
    3TYR    SC3  380   2.464   2.678   2.783  0.1184 -0.0843 -0.0789
    1TYR     BB  381   3.828   4.425   4.122  0.1052 -0.0304  0.1936
    1TYR    SC1  382   3.622   4.534   4.344  0.1606  0.1130 -0.0828
    1TYR    SC2  383   3.576   4.784   4.430  0.0906  0.0719  0.0010
    1TYR    SC3  384   3.368   4.622   4.372  0.1307 -0.0421  0.1680
    2PRO     BB  385   3.670   4.178   3.978 -0.1001  0.0492  0.1381
    2PRO    SC1  386   3.645   4.014   4.206 -0.2552  0.1460 -0.0749
    3TYR     BB  387   3.645   4.145   3.656 -0.1163  0.3145 -0.0512
    3TYR    SC1  388   3.782   3.930   3.516  0.2740  0.0015  0.2496
    3TYR    SC2  389   3.917   3.716   3.426  0.1852  0.0911 -0.1160
    3TYR    SC3  390   4.045   3.951   3.460  0.1605  0.1307 -0.2914
    1TYR     BB  391   3.702   3.605   3.904 -0.2093 -0.3538  0.0707
    1TYR    SC1  392   3.915   3.446   3.798 -0.0509 -0.0624 -0.0010
    1TYR    SC2  393   3.978   3.184   3.799  0.1670 -0.0115  0.0600
    1TYR    SC3  394   4.169   3.369   3.755 -0.0818  0.1160 -0.6401
    2PRO     BB  395   3.575   3.392   4.150 -0.0913 -0.0251  0.0879
    2PRO    SC1  396   3.383   3.576   4.282 -0.1058  0.0734  0.2535
    3TYR     BB  397   3.768   3.171   4.303 -0.0422 -0.1164  0.2574
    3TYR    SC1  398   3.738   3.240   4.606  0.1183  0.2332 -0.1684
    3TYR    SC2  399   3.834   3.353   4.832 -0.0040  0.1246 -0.0613
    3TYR    SC3  400   3.567   3.315   4.802  0.0163  0.0894 -0.2013
    1TYR     BB  401   8.397   3.914   3.548 -0.2945 -0.1507 -0.2016
    1TYR    SC1  402   8.244   3.980   3.323 -0.2305 -0.2764  0.2154
    1TYR    SC2  403   8.184   4.210   3.195 -0.0121 -0.1500  0.3315
    1TYR    SC3  404   8.006   4.006   3.197 -0.0527 -0.1320 -0.1048
    2PRO     BB  405   8.309   4.078   3.834  0.2902  0.1506  0.0862
    2PRO    SC1  406   8.224   4.325   3.725  0.0228  0.0576  0.0045
    3TYR     BB  407   8.321   4.021   4.247 -0.2933  0.0329 -0.0008
    3TYR    SC1  408   8.508   3.766   4.230 -0.0028  0.0371 -0.0014
    3TYR    SC2  409   8.532   3.510   4.312 -0.2230  0.0951  0.2577
    3TYR    SC3  410   8.753   3.657   4.260 -0.0958 -0.1609  0.0521
    1TYR     BB  411   7.253   3.937   4.409  0.0764  0.3003  0.1009
    1TYR    SC1  412   7.063   3.747   4.564 -0.1149 -0.1008 -0.1253
    1TYR    SC2  413   6.881   3.559   4.632  0.3661 -0.5338  0.0434
    1TYR    SC3  414   6.906   3.783   4.781 -0.2236 -0.3046 -0.1667
    2PRO     BB  415   7.434   4.063   4.719 -0.3098  0.3173 -0.0487
    2PRO    SC1  416   7.261   4.159   4.887  0.2411 -0.3382  0.4756
    3TYR     BB  417   7.685   3.879   4.789  0.0177  0.0707 -0.0865
    3TYR    SC1  418   7.645   3.637   4.590 -0.0346 -0.2028 -0.1603
    3TYR    SC2  419   7.587   3.422   4.437  0.2630 -0.3064 -0.1363
    3TYR    SC3  420   7.742   3.393   4.656  0.3811 -0.0535 -0.1825
    1TYR     BB  421   7.826   2.996   4.117  0.0439 -0.0113  0.1618
    1TYR    SC1  422   7.986   2.742   4.274 -0.0075 -0.0543 -0.5103
    1TYR    SC2  423   8.016   2.474   4.280  0.2456 -0.0305  0.0834
    1TYR    SC3  424   8.179   2.632   4.428 -0.1088  0.4323  0.0070
    2PRO     BB  425   7.849   3.223   3.848  0.1062  0.0715 -0.1878
    2PRO    SC1  426   7.619   3.403   3.915 -0.0032 -0.1357  0.2878
    3TYR     BB  427   8.107   3.067   3.673  0.0407  0.2527 -0.1131
    3TYR    SC1  428   8.117   2.798   3.714 -0.0249 -0.0333  0.1145
    3TYR    SC2  429   7.986   2.580   3.804  0.0001 -0.0663  0.0705
    3TYR    SC3  430   8.250   2.565   3.745 -0.0515 -0.0895 -0.1667
    1TYR     BB  431   4.409   4.942   5.314 -0.3284 -0.0614 -0.0363
    1TYR    SC1  432   4.250   4.699   5.407 -0.0444 -0.0204  0.0555
    1TYR    SC2  433   4.207   4.498   5.582  0.1277 -0.1724 -0.0714
    1TYR    SC3  434   4.009   4.580   5.418 -0.0915  0.0903  0.3052
    2PRO     BB  435   4.194   5.077   4.983  0.2460 -0.2806 -0.2710
    2PRO    SC1  436   3.966   4.912   4.973  0.2803  0.2644 -0.0722
    3TYR     BB  437   4.184   5.317   4.744  0.0529 -0.1485  0.0976
    3TYR    SC1  438   3.938   5.295   4.566  0.1220  0.0762 -0.2734
    3TYR    SC2  439   3.692   5.196   4.515  0.0025  0.2536 -0.0617
    3TYR    SC3  440   3.830   5.324   4.320 -0.0640  0.1403 -0.1853
    1TYR     BB  441   7.553   4.682   3.753  0.0086 -0.0275  0.0398
    1TYR    SC1  442   7.268   4.657   3.919 -0.0041 -0.2351 -0.2165
    1TYR    SC2  443   7.016   4.560   3.914 -0.0577 -0.1379  0.1663
    1TYR    SC3  444   7.058   4.823   3.953  0.1066 -0.1529  0.1020
    2PRO     BB  445   7.401   4.728   3.480  0.0764 -0.1325  0.3380
    2PRO    SC1  446   7.177   4.559   3.381  0.0138  0.1551 -0.1073
    3TYR     BB  447   7.254   5.012   3.357 -0.0072  0.1141 -0.1043
    3TYR    SC1  448   7.147   4.969   3.089 -0.4362  0.1055  0.1790
    3TYR    SC2  449   7.134   4.806   2.874  0.0162  0.0708  0.1677
    3TYR    SC3  450   7.101   5.072   2.844 -0.3611  0.0273  0.1315
    1TYR     BB  451   5.187   4.931   3.046  0.0036  0.2680 -0.1616
    1TYR    SC1  452   5.364   4.690   3.160 -0.2414 -0.3504  0.3061
    1TYR    SC2  453   5.616   4.609   3.214 -0.1233 -0.0855  0.1789
    1TYR    SC3  454   5.459   4.460   3.055  0.0135 -0.1681  0.1192
    2PRO     BB  455   4.921   4.749   2.959 -0.0604  0.3422  0.1011
    2PRO    SC1  456   4.696   4.743   3.105  0.2487 -0.0330  0.2105
    3TYR     BB  457   4.977   4.373   2.850 -0.2268 -0.1239 -0.1188
    3TYR    SC1  458   4.842   4.255   3.077  0.1476 -0.0689  0.3846
    3TYR    SC2  459   4.589   4.167   3.107 -0.0098  0.2876  0.1752
    3TYR    SC3  460   4.784   4.071   3.267 -0.1684 -0.3785  0.0135
    1TYR     BB  461   1.380   4.069   4.456  0.2190  0.0202 -0.0363
    1TYR    SC1  462   1.357   4.388   4.487  0.3142  0.0509  0.0473
    1TYR    SC2  463   1.542   4.583   4.502  0.4399 -0.0305 -0.3015
    1TYR    SC3  464   1.283   4.645   4.458  0.3616  0.0878  0.2435
    2PRO     BB  465   1.135   3.813   4.295 -0.0824 -0.2744 -0.0562
    2PRO    SC1  466   1.194   3.969   4.059  0.1637 -0.2847  0.0462
    3TYR     BB  467   1.326   3.578   4.350  0.0440 -0.1848  0.4938
    3TYR    SC1  468   1.632   3.636   4.369 -0.0362  0.2492  0.0387
    3TYR    SC2  469   1.796   3.772   4.535  0.1148 -0.0515  0.1454
    3TYR    SC3  470   1.789   3.832   4.272  0.1826  0.1533  0.1887
    1TYR     BB  471   1.333   3.102   5.058 -0.0637  0.1146  0.2016
    1TYR    SC1  472   1.652   3.028   5.095  0.2627  0.0254 -0.1666
    1TYR    SC2  473   1.881   3.169   5.112  0.3028 -0.0345 -0.1980
    1TYR    SC3  474   1.890   2.907   5.049  0.2963 -0.2503  0.5592
    2PRO     BB  475   1.163   3.096   4.747  0.1190  0.0508 -0.1179
    2PRO    SC1  476   1.034   2.840   4.688  0.2090  0.0346  0.1705
    3TYR     BB  477   1.019   3.350   4.646  0.0736  0.2032 -0.2921
    3TYR    SC1  478   0.797   3.319   4.443  0.0705  0.1268 -0.0636
    3TYR    SC2  479   0.629   3.307   4.231  0.1840  0.0177 -0.1493
    3TYR    SC3  480   0.684   3.084   4.374 -0.0404  0.1266  0.1160
    1TYR     BB  481   5.918   3.925   4.017  0.0919  0.3170 -0.2674
    1TYR    SC1  482   6.222   3.852   4.005 -0.1100 -0.0688 -0.1356
    1TYR    SC2  483   6.425   3.921   3.841 -0.0847  0.0274 -0.0658
    1TYR    SC3  484   6.349   3.661   3.862  0.2477 -0.0599  0.1526
    2PRO     BB  485   5.927   4.122   4.285  0.0832  0.0194  0.0791
    2PRO    SC1  486   5.793   4.353   4.170 -0.1830 -0.0068 -0.3117
    3TYR     BB  487   5.845   4.063   4.536  0.2573 -0.1583  0.1088
    3TYR    SC1  488   6.086   4.104   4.784 -0.1720  0.1218  0.0578
    3TYR    SC2  489   6.277   4.054   4.968 -0.2780 -0.0847  0.1157
    3TYR    SC3  490   6.247   4.303   4.868  0.2153 -0.1035 -0.1159
    1TYR     BB  491   3.103   4.150   2.658  0.0101  0.2765  0.1051
    1TYR    SC1  492   3.170   4.195   2.358 -0.3529  0.2766 -0.0425
    1TYR    SC2  493   3.255   4.379   2.180 -0.1081  0.0407 -0.1804
    1TYR    SC3  494   3.091   4.181   2.100 -0.1469  0.0386 -0.0979
    2PRO     BB  495   2.985   4.442   2.804 -0.3624 -0.1459 -0.0277
    2PRO    SC1  496   3.168   4.401   3.032  0.1562 -0.0116 -0.2437
    3TYR     BB  497   2.720   4.471   2.648  0.3459  0.2900 -0.4183
    3TYR    SC1  498   2.492   4.352   2.833 -0.2718  0.1112  0.0004
    3TYR    SC2  499   2.227   4.324   2.794 -0.2191 -0.2957 -0.1309
    3TYR    SC3  500   2.358   4.151   2.954 -0.0064 -0.1948 -0.1919
    1TYR     BB  501   1.656   2.450   3.991  0.1910 -0.4669 -0.0836
    1TYR    SC1  502   1.502   2.158   3.955 -0.0001 -0.1486  0.1213
    1TYR    SC2  503   1.246   2.102   3.890 -0.0393 -0.1628  0.2849
    1TYR    SC3  504   1.419   1.902   3.944  0.0781 -0.1679 -0.0804
    2PRO     BB  505   1.844   2.414   4.286  0.0458  0.0343  0.2982
    2PRO    SC1  506   1.919   2.147   4.257 -0.1081 -0.0383 -0.0129
    3TYR     BB  507   2.084   2.605   4.409 -0.1427 -0.2777 -0.2744
    3TYR    SC1  508   2.361   2.708   4.336 -0.0092 -0.2889  0.1386
    3TYR    SC2  509   2.473   2.926   4.222 -0.3442 -0.2218 -0.0819
    3TYR    SC3  510   2.623   2.762   4.377 -0.0992  0.1997  0.1534
    1TYR     BB  511   0.429   4.365   3.504 -0.0460 -0.2195 -0.0532
    1TYR    SC1  512   0.173   4.429   3.519  0.1240 -0.0430  0.1489
    1TYR    SC2  513  -0.023   4.257   3.446 -0.0299  0.0270  0.3841
    1TYR    SC3  514  -0.048   4.521   3.394  0.1900 -0.0087  0.0555
    2PRO     BB  515   0.520   4.134   3.658  0.0713 -0.5527 -0.2037
    2PRO    SC1  516   0.812   4.097   3.706 -0.0026  0.1305  0.1998
    3TYR     BB  517   0.237   3.942   3.734 -0.0744  0.0618  0.0657
    3TYR    SC1  518   0.014   4.111   3.849  0.0297  0.1245 -0.2054
    3TYR    SC2  519  -0.209   4.263   3.857 -0.0270  0.0367 -0.0915
    3TYR    SC3  520   0.024   4.361   3.951 -0.0729  0.0397  0.0223
    1TYR     BB  521   2.115   3.771   2.740  0.1017 -0.1038 -0.0592
    1TYR    SC1  522   2.193   3.718   2.428 -0.3176  0.2256 -0.5645
    1TYR    SC2  523   2.254   3.840   2.194  0.1158  0.0182 -0.5726
    1TYR    SC3  524   2.401   3.629   2.279 -0.0505  0.0700 -0.1219
    2PRO     BB  525   2.212   3.626   2.953  0.2605  0.3822 -0.3103
    2PRO    SC1  526   2.296   3.687   3.214 -0.0349  0.0077 -0.1889
    3TYR     BB  527   2.058   3.300   3.043 -0.3573 -0.1598 -0.1599
    3TYR    SC1  528   2.046   3.284   3.368 -0.0368 -0.2479  0.0501
    3TYR    SC2  529   1.928   3.408   3.578 -0.4166 -0.3757 -0.0775
    3TYR    SC3  530   2.028   3.158   3.607  0.2666 -0.1056  0.1549
    1TYR     BB  531   6.951   3.297   5.073 -0.1734  0.2029 -0.2164
    1TYR    SC1  532   6.687   3.500   5.096  0.0784 -0.0392  0.1905
    1TYR    SC2  533   6.457   3.434   5.220  0.0280  0.2085  0.2325
    1TYR    SC3  534   6.515   3.693   5.172  0.1532  0.1303 -0.0597
    2PRO     BB  535   6.908   3.054   5.276 -0.1756  0.0817 -0.0794
    2PRO    SC1  536   6.646   2.980   5.355  0.0406  0.1493  0.1701
    3TYR     BB  537   7.116   2.816   5.333 -0.0159  0.0914 -0.2917
    3TYR    SC1  538   7.310   2.666   5.086  0.0692 -0.1400  0.1654
    3TYR    SC2  539   7.481   2.570   4.900  0.1283 -0.0479  0.1715
    3TYR    SC3  540   7.218   2.593   4.842  0.1714  0.1382  0.0392
    1TYR     BB  541   4.219   4.735   4.014  0.1372 -0.5201  0.0901
    1TYR    SC1  542   4.375   4.897   3.791 -0.1035 -0.0475  0.1599
    1TYR    SC2  543   4.495   4.899   3.549 -0.2464 -0.0139  0.0881
    1TYR    SC3  544   4.422   5.132   3.664 -0.1839 -0.0303  0.1612
    2PRO     BB  545   4.476   4.535   4.140  0.0342 -0.0250 -0.1830
    2PRO    SC1  546   4.693   4.515   3.969 -0.2040  0.0216  0.0957
    3TYR     BB  547   4.504   4.382   4.434  0.2424 -0.0574  0.2701
    3TYR    SC1  548   4.411   4.421   4.745 -0.0670 -0.1295 -0.0283
    3TYR    SC2  549   4.214   4.498   4.912  0.0130  0.0067  0.0052
    3TYR    SC3  550   4.450   4.629   4.913  0.0146  0.0098 -0.2146
    1TYR     BB  551   4.543   4.886   4.545  0.2494 -0.1440  0.1135
    1TYR    SC1  552   4.238   4.800   4.550 -0.2056 -0.2540 -0.0610
    1TYR    SC2  553   4.010   4.893   4.441 -0.1734 -0.0515  0.0384
    1TYR    SC3  554   4.030   4.631   4.506 -0.2697 -0.1331 -0.2356
    2PRO     BB  555   4.669   5.116   4.711  0.0515 -0.0064  0.1368
    2PRO    SC1  556   4.730   5.383   4.537 -0.0946  0.0894 -0.0229
    3TYR     BB  557   4.743   5.137   4.977  0.2447 -0.0154  0.3312
    3TYR    SC1  558   5.024   5.240   5.096  0.0184 -0.2022 -0.0219
    3TYR    SC2  559   5.271   5.296   5.001 -0.0027  0.0741  0.0692
    3TYR    SC3  560   5.241   5.213   5.256 -0.0053  0.0405  0.0581
    1TYR     BB  561   5.667   3.224   4.220  0.2955  0.0968  0.2323
    1TYR    SC1  562   5.695   2.927   4.199  0.0970 -0.2251  0.2224
    1TYR    SC2  563   5.756   2.685   4.301  0.0923 -0.3041  0.0404
    1TYR    SC3  564   5.617   2.703   4.070 -0.0186 -0.1270  0.1190
    2PRO     BB  565   5.880   3.458   4.250 -0.1254 -0.1032 -0.2899
    2PRO    SC1  566   6.129   3.399   4.212 -0.3249 -0.3140  0.1871
    3TYR     BB  567   5.780   3.595   4.564 -0.2879  0.0945 -0.2469
    3TYR    SC1  568   5.987   3.491   4.763  0.3702 -0.1602 -0.1106
    3TYR    SC2  569   6.078   3.362   4.982  0.0112  0.0053  0.1492
    3TYR    SC3  570   6.145   3.620   4.941  0.0369 -0.0106  0.0907
    1TYR     BB  571   6.790   2.791   3.823  0.0617 -0.0016 -0.0380
    1TYR    SC1  572   7.010   2.573   3.788  0.1166  0.1170  0.1137
    1TYR    SC2  573   7.218   2.442   3.676  0.0731  0.2172 -0.0894
    1TYR    SC3  574   7.096   2.339   3.893  0.1853  0.0391 -0.1080
    2PRO     BB  575   6.676   2.796   4.132 -0.0466  0.4833  0.0622
    2PRO    SC1  576   6.552   3.039   4.231  0.2354 -0.2944  0.1341
    3TYR     BB  577   6.882   2.698   4.391 -0.5585  0.1146  0.1897
    3TYR    SC1  578   6.922   2.404   4.370  0.2982  0.0240  0.0306
    3TYR    SC2  579   6.903   2.175   4.511 -0.1630  0.0412  0.0149
    3TYR    SC3  580   6.867   2.172   4.243 -0.1597  0.1304  0.0134
    1TYR     BB  581   3.599   4.703   3.802 -0.0977 -0.0423 -0.0258
    1TYR    SC1  582   3.430   4.812   3.587 -0.0343 -0.1579  0.0911
    1TYR    SC2  583   3.287   4.785   3.359 -0.0647 -0.0835  0.1012
    1TYR    SC3  584   3.340   5.031   3.457 -0.0104 -0.1139  0.1487
    2PRO     BB  585   3.630   4.991   3.989 -0.0085  0.2938  0.3048
    2PRO    SC1  586   3.306   5.044   4.055  0.2983 -0.0848 -0.0588
    3TYR     BB  587   3.936   5.134   3.867 -0.1129  0.3912 -0.2333
    3TYR    SC1  588   3.978   5.010   3.612  0.1714  0.2841 -0.1543
    3TYR    SC2  589   4.109   4.878   3.415  0.4076  0.0109  0.1710
    3TYR    SC3  590   3.843   4.924   3.395  0.3745 -0.2643 -0.0806
    1TYR     BB  591   6.968   5.338   4.107  0.2365  0.0360 -0.0736
    1TYR    SC1  592   7.167   5.517   4.092 -0.1067  0.0805  0.2142
    1TYR    SC2  593   7.231   5.754   4.207  0.0958  0.0541  0.1620
    1TYR    SC3  594   7.387   5.653   4.013 -0.1834  0.0464 -0.0686
    2PRO     BB  595   6.703   5.388   4.356  0.1108  0.0247  0.1165
    2PRO    SC1  596   6.755   5.663   4.511  0.3650  0.0888 -0.3434
    3TYR     BB  597   6.458   5.118   4.435 -0.2074 -0.1655 -0.1336
    3TYR    SC1  598   6.206   5.237   4.277  0.1705  0.0376  0.2207
    3TYR    SC2  599   5.994   5.404   4.279  0.2757  0.1822  0.5948
    3TYR    SC3  600   6.159   5.398   4.065 -0.2325 -0.1200  0.1802
    1TYR     BB  601   0.720   2.761   3.822 -0.1076  0.0524 -0.0725
    1TYR    SC1  602   0.614   3.047   3.817 -0.2442  0.2404 -0.0491
    1TYR    SC2  603   0.515   3.202   3.618 -0.0826  0.1013 -0.2422
    1TYR    SC3  604   0.701   3.301   3.787 -0.1818  0.2034 -0.1918
    2PRO     BB  605   0.606   2.595   3.619  0.3587  0.2176  0.1039
    2PRO    SC1  606   0.605   2.742   3.348 -0.2820 -0.1757 -0.1826
    3TYR     BB  607   0.339   2.444   3.632 -0.0972 -0.1527 -0.2062
    3TYR    SC1  608   0.377   2.192   3.501  0.0445 -0.2221 -0.0356
    3TYR    SC2  609   0.559   1.994   3.502 -0.0989 -0.3689  0.4143
    3TYR    SC3  610   0.310   1.949   3.408 -0.0453 -0.3062  0.2361
    1TYR     BB  611  -1.564   5.332   3.819  0.2354 -0.0012 -0.2729
    1TYR    SC1  612  -1.661   5.412   3.532 -0.1895 -0.2231 -0.1234
    1TYR    SC2  613  -1.718   5.371   3.272 -0.1608 -0.1041 -0.1494
    1TYR    SC3  614  -1.821   5.585   3.400 -0.1231 -0.1272 -0.0799
    2PRO     BB  615  -1.880   5.201   3.899 -0.0886  0.0329 -0.1468
    2PRO    SC1  616  -1.893   5.078   4.141  0.2014 -0.0507 -0.0903
    3TYR     BB  617  -2.103   5.446   3.799 -0.1102 -0.0572  0.2470
    3TYR    SC1  618  -2.168   5.360   3.491  0.4278  0.0145 -0.1039
    3TYR    SC2  619  -2.337   5.231   3.324  0.0279  0.1626  0.1689
    3TYR    SC3  620  -2.192   5.441   3.234 -0.1356  0.2023 -0.0098
    1TYR     BB  621   2.687   4.015   3.798  0.0368  0.2101 -0.0453
    1TYR    SC1  622   2.976   3.902   3.886 -0.0223 -0.2722  0.1394
    1TYR    SC2  623   3.231   3.956   3.952 -0.0666  0.0369  0.0762
    1TYR    SC3  624   3.165   3.710   3.865  0.1626 -0.1145  0.3074
    2PRO     BB  625   2.495   3.937   3.838 -0.0951 -0.0166 -0.0463
    2PRO    SC1  626   2.357   3.721   3.711  0.0101 -0.2720 -0.1068
    3TYR     BB  627   2.236   4.162   3.951 -0.0470  0.2393 -0.0550
    3TYR    SC1  628   2.096   4.207   4.228  0.0377  0.1437  0.0970
    3TYR    SC2  629   2.011   4.151   4.477  0.1106  0.0517  0.1016
    3TYR    SC3  630   1.875   4.327   4.325 -0.0032  0.0177  0.1623
    1TYR     BB  631   7.112   2.954   3.515 -0.1927  0.0424 -0.0997
    1TYR    SC1  632   7.370   2.834   3.615  0.0554 -0.0798  0.1508
    1TYR    SC2  633   7.602   2.771   3.738  0.0693 -0.2534  0.0430
    1TYR    SC3  634   7.558   2.690   3.486  0.1126  0.2384 -0.1388
    2PRO     BB  635   7.115   3.268   3.624  0.0020 -0.0017  0.0039
    2PRO    SC1  636   6.974   3.284   3.857 -0.1945  0.2646 -0.1650
    3TYR     BB  637   7.065   3.462   3.318  0.2922 -0.0918  0.0955
    3TYR    SC1  638   6.933   3.708   3.443 -0.0039  0.0654  0.2477
    3TYR    SC2  639   6.696   3.826   3.493  0.0426  0.1914  0.1735
    3TYR    SC3  640   6.919   3.915   3.616  0.1198  0.3520 -0.0734
    1TYR     BB  641   6.589   4.223   2.765 -0.0363  0.1104  0.1463
    1TYR    SC1  642   6.567   3.947   2.632 -0.1110  0.0645 -0.1116
    1TYR    SC2  643   6.710   3.733   2.554 -0.1380 -0.0087  0.0353
    1TYR    SC3  644   6.457   3.767   2.465 -0.0895  0.0315 -0.0899
    2PRO     BB  645   6.606   4.180   3.096 -0.1629  0.2077  0.0783
    2PRO    SC1  646   6.913   4.142   3.201 -0.0381 -0.2200 -0.3633
    3TYR     BB  647   6.417   4.214   3.346  0.0651 -0.0719  0.2416
    3TYR    SC1  648   6.226   4.011   3.453 -0.2140  0.0770 -0.0824
    3TYR    SC2  649   6.195   3.752   3.383 -0.1449  0.0623 -0.0604
    3TYR    SC3  650   6.043   3.858   3.579 -0.0247 -0.0214  0.0806
    1TYR     BB  651   7.045   3.829   2.864 -0.2731 -0.2994 -0.0090
    1TYR    SC1  652   7.178   4.142   2.770 -0.2432  0.1138 -0.4414
    1TYR    SC2  653   7.346   4.309   2.902 -0.1310  0.1038 -0.5691
    1TYR    SC3  654   7.100   4.394   2.831 -0.3958 -0.0411  0.0761
    2PRO     BB  655   7.305   3.652   2.870 -0.1306  0.1433  0.0384
    2PRO    SC1  656   7.330   3.423   2.748 -0.1157  0.2570 -0.2289
    3TYR     BB  657   7.613   3.807   2.969  0.0071 -0.2382 -0.0020
    3TYR    SC1  658   7.549   3.818   3.281  0.0251 -0.0842  0.0897
    3TYR    SC2  659   7.433   3.737   3.511  0.3327  0.0206  0.2894
    3TYR    SC3  660   7.329   3.945   3.373  0.2548  0.0816  0.4380
    1TYR     BB  661   5.603   3.438   5.211 -0.0964 -0.0080  0.0944
    1TYR    SC1  662   5.413   3.593   5.388 -0.1949 -0.0197  0.3022
    1TYR    SC2  663   5.159   3.683   5.375 -0.0291  0.4511 -0.1146
    1TYR    SC3  664   5.302   3.718   5.601 -0.2995  0.2529  0.0960
    2PRO     BB  665   5.483   3.303   4.987  0.0679 -0.1702  0.1113
    2PRO    SC1  666   5.166   3.375   4.995 -0.2835  0.0504 -0.0476
    3TYR     BB  667   5.626   3.063   4.792 -0.1129  0.0334 -0.0568
    3TYR    SC1  668   5.413   2.952   4.611 -0.0464 -0.3404  0.3464
    3TYR    SC2  669   5.152   2.924   4.545  0.0493 -0.2669 -0.1122
    3TYR    SC3  670   5.338   2.765   4.430  0.2586  0.0349 -0.2057
    1TYR     BB  671   5.214   3.469   2.966  0.0375 -0.0455 -0.0808
    1TYR    SC1  672   5.194   3.195   3.173 -0.1887  0.1235  0.2142
    1TYR    SC2  673   5.393   3.044   3.275 -0.0369 -0.0567 -0.3052
    1TYR    SC3  674   5.156   3.062   3.405  0.2808  0.1174  0.3004
    2PRO     BB  675   5.365   3.721   3.225  0.2103  0.1896 -0.1114
    2PRO    SC1  676   5.274   4.000   3.126 -0.1552 -0.0990  0.0757
    3TYR     BB  677   5.664   3.577   3.306 -0.0167 -0.2089  0.1380
    3TYR    SC1  678   5.749   3.373   3.085 -0.5516 -0.1559  0.1407
    3TYR    SC2  679   5.714   3.121   2.991  0.0855 -0.1163 -0.2794
    3TYR    SC3  680   5.798   3.317   2.825  0.0154  0.2810  0.1297
    1TYR     BB  681  -1.527   3.367   4.098  0.2554 -0.1316 -0.1264
    1TYR    SC1  682  -1.709   3.572   4.268 -0.0265  0.2540  0.1884
    1TYR    SC2  683  -1.944   3.633   4.385 -0.1410 -0.0990  0.1572
    1TYR    SC3  684  -1.725   3.594   4.537 -0.2042 -0.1944  0.2247
    2PRO     BB  685  -1.402   3.198   4.338  0.3030 -0.0253 -0.0132
    2PRO    SC1  686  -1.269   3.341   4.564 -0.1237 -0.1239  0.0164
    3TYR     BB  687  -1.258   2.879   4.372  0.4210 -0.0318  0.0588
    3TYR    SC1  688  -1.066   2.876   4.580 -0.0503 -0.0041  0.1443
    3TYR    SC2  689  -0.931   3.036   4.750 -0.2997  0.1630  0.1889
    3TYR    SC3  690  -0.901   2.770   4.767  0.1892  0.1973  0.0553
    1TYR     BB  691  -2.787   3.787   3.551  0.2947 -0.1060 -0.1663
    1TYR    SC1  692  -2.693   3.735   3.237  0.3428  0.1583  0.0246
    1TYR    SC2  693  -2.618   3.815   2.991  0.1797 -0.0707 -0.1045
    1TYR    SC3  694  -2.529   3.580   3.089  0.0203 -0.1153 -0.0630
    2PRO     BB  695  -2.641   4.059   3.580  0.2793 -0.0661 -0.1375
    2PRO    SC1  696  -2.642   4.231   3.359 -0.1978  0.3088  0.1816
    3TYR     BB  697  -2.349   4.003   3.675 -0.0636  0.0085  0.1312
    3TYR    SC1  698  -2.258   3.936   3.894 -0.2738 -0.2418 -0.1092
    3TYR    SC2  699  -2.196   3.700   4.009  0.1783  0.0622  0.3190
    3TYR    SC3  700  -2.274   3.908   4.161 -0.6048  0.1066 -0.0840
    1TYR     BB  701   2.788   4.169   4.236  0.1133 -0.1995  0.0666
    1TYR    SC1  702   3.004   4.380   4.093 -0.2341  0.0583 -0.1894
    1TYR    SC2  703   3.070   4.603   3.956 -0.0334 -0.0440 -0.2641
    1TYR    SC3  704   3.254   4.410   3.994 -0.2449 -0.2625 -0.3236
    2PRO     BB  705   2.941   4.038   4.448  0.0627  0.1985 -0.2434
    2PRO    SC1  706   2.928   3.738   4.394  0.2494  0.2985  0.1845
    3TYR     BB  707   3.303   4.147   4.573  0.0802  0.2674  0.0343
    3TYR    SC1  708   3.502   3.969   4.667 -0.2875  0.0597 -0.1508
    3TYR    SC2  709   3.629   3.731   4.681 -0.1899  0.1198  0.0075
    3TYR    SC3  710   3.632   3.898   4.892  0.1222  0.4543 -0.2457
    1TYR     BB  711   6.723   3.102   3.192 -0.0634  0.1842  0.0165
    1TYR    SC1  712   6.655   3.175   3.473 -0.2511 -0.1631 -0.0104
    1TYR    SC2  713   6.521   3.187   3.707 -0.3760 -0.0919 -0.0843
    1TYR    SC3  714   6.580   3.414   3.573 -0.1143 -0.1168 -0.0173
    2PRO     BB  715   6.719   3.371   2.994  0.0567  0.0680  0.1911
    2PRO    SC1  716   6.832   3.297   2.743 -0.0007  0.2649  0.0017
    3TYR     BB  717   6.585   3.690   3.076  0.0524  0.1943 -0.1528
    3TYR    SC1  718   6.318   3.709   2.946  0.1117  0.0976  0.0091
    3TYR    SC2  719   6.165   3.916   2.863  0.0568 -0.1374 -0.5417
    3TYR    SC3  720   6.050   3.679   2.923  0.1095 -0.0132  0.1606
    1TYR     BB  721   3.982   3.633   4.311  0.2955  0.0996  0.2501
    1TYR    SC1  722   4.103   3.882   4.134 -0.0262  0.1848  0.1571
    1TYR    SC2  723   4.099   3.967   3.878  0.0665 -0.1629  0.0334
    1TYR    SC3  724   4.214   4.119   4.067  0.2565 -0.0272 -0.1828
    2PRO     BB  725   4.201   3.429   4.476  0.0381  0.0789  0.0681
    2PRO    SC1  726   4.296   3.274   4.227 -0.0758  0.2507  0.4838
    3TYR     BB  727   4.329   3.386   4.759  0.0546  0.1969 -0.1151
    3TYR    SC1  728   4.544   3.152   4.833  0.1597  0.1463 -0.2918
    3TYR    SC2  729   4.753   2.993   4.776  0.2238  0.1378 -0.0516
    3TYR    SC3  730   4.669   3.017   5.031 -0.0960  0.1098 -0.1491
    1TYR     BB  731  -0.239   5.253   3.745  0.1784  0.1219  0.0889
    1TYR    SC1  732   0.003   5.430   3.711 -0.2017  0.2958  0.0116
    1TYR    SC2  733   0.095   5.656   3.823 -0.3349  0.4230 -0.1325
    1TYR    SC3  734   0.100   5.627   3.554  0.0562  0.0903 -0.0999
    2PRO     BB  735  -0.340   5.215   4.014 -0.1072  0.2363 -0.1294
    2PRO    SC1  736  -0.159   5.407   4.183  0.2217  0.0182 -0.3464
    3TYR     BB  737  -0.553   5.001   4.069 -0.0889 -0.2255  0.1560
    3TYR    SC1  738  -0.704   5.006   3.821 -0.1066  0.1980 -0.1887
    3TYR    SC2  739  -0.907   4.845   3.743 -0.0982  0.1474 -0.1064
    3TYR    SC3  740  -0.695   4.883   3.580  0.2169 -0.4500  0.1208
    1TYR     BB  741   1.296   4.444   3.095  0.2064 -0.0615 -0.0407
    1TYR    SC1  742   1.225   4.205   3.002  0.2286 -0.2224  0.3128
    1TYR    SC2  743   1.064   4.063   2.838  0.0918  0.2162  0.0469
    1TYR    SC3  744   1.318   3.982   2.881  0.0849  0.0113 -0.2644
    2PRO     BB  745   1.258   4.565   3.354 -0.0654 -0.3578  0.0479
    2PRO    SC1  746   0.997   4.439   3.438  0.0803 -0.0822 -0.2098
    3TYR     BB  747   1.360   4.731   3.554 -0.1917  0.0876 -0.1443
    3TYR    SC1  748   1.572   4.901   3.515 -0.2008 -0.2817  0.1183
    3TYR    SC2  749   1.832   4.931   3.450 -0.1636 -0.1756  0.3076
    3TYR    SC3  750   1.725   5.077   3.648 -0.3918 -0.1549  0.1742
    1TYR     BB  751   2.605   2.453   3.539  0.0826  0.1443 -0.2983
    1TYR    SC1  752   2.394   2.682   3.516  0.0205  0.4789  0.0882
    1TYR    SC2  753   2.297   2.891   3.376 -0.0562  0.0755 -0.5035
    1TYR    SC3  754   2.127   2.712   3.484  0.0154  0.1540 -0.2540
    2PRO     BB  755   2.844   2.543   3.696  0.0060 -0.1359 -0.0432
    2PRO    SC1  756   2.828   2.762   3.857 -0.2371 -0.0586 -0.1953
    3TYR     BB  757   3.122   2.438   3.640  0.1470 -0.2297  0.4228
    3TYR    SC1  758   3.224   2.601   3.399 -0.2732  0.3222 -0.1180
    3TYR    SC2  759   3.320   2.847   3.454  0.0030  0.1811  0.0607
    3TYR    SC3  760   3.230   2.790   3.207  0.1718  0.3891 -0.0531
    1TYR     BB  761   3.398   3.395   2.579 -0.2269  0.0795  0.0504
    1TYR    SC1  762   3.353   3.297   2.297  0.5183 -0.0120 -0.1947
    1TYR    SC2  763   3.327   3.235   2.036  0.0851  0.2509 -0.2268
    1TYR    SC3  764   3.265   3.052   2.224  0.2152  0.1238 -0.3042
    2PRO     BB  765   3.454   3.357   2.840  0.3115 -0.1123 -0.1775
    2PRO    SC1  766   3.693   3.513   2.948  0.1049  0.2300  0.1457
    3TYR     BB  767   3.145   3.272   3.116  0.2110  0.2280 -0.0489
    3TYR    SC1  768   3.330   3.410   3.338  0.1305 -0.1607  0.1173
    3TYR    SC2  769   3.373   3.400   3.605 -0.3251  0.0405  0.2093
    3TYR    SC3  770   3.575   3.463   3.437  0.1725 -0.7934  0.4211
    1TYR     BB  771   0.702   2.259   3.987  0.4116  0.0723 -0.2507
    1TYR    SC1  772   0.854   2.075   4.217  0.1534  0.2104 -0.0438
    1TYR    SC2  773   0.838   1.906   4.427 -0.4157  0.1406 -0.1249
    1TYR    SC3  774   1.075   1.943   4.303 -0.1653 -0.1793  0.2259
    2PRO     BB  775   0.431   2.325   4.125 -0.1729 -0.3516  0.0368
    2PRO    SC1  776   0.419   2.210   4.418  0.0019  0.0898 -0.0864
    3TYR     BB  777   0.141   2.435   4.100 -0.3210 -0.2649 -0.1034
    3TYR    SC1  778  -0.003   2.677   4.232 -0.4066 -0.4480  0.0801
    3TYR    SC2  779  -0.169   2.870   4.143  0.0176 -0.0898  0.0234
    3TYR    SC3  780  -0.144   2.824   4.408 -0.0914 -0.0733  0.0369
    1TYR     BB  781   2.798   3.636   3.493 -0.0240  0.4137  0.0498
    1TYR    SC1  782   2.735   3.884   3.333  0.0058 -0.2161 -0.3431
    1TYR    SC2  783   2.824   4.078   3.166  0.2588  0.1025  0.1280
    1TYR    SC3  784   2.605   4.121   3.320 -0.0250 -0.2207 -0.1621
    2PRO     BB  785   2.751   3.420   3.436  0.2278  0.1487  0.2401
    2PRO    SC1  786   2.936   3.206   3.579  0.4113  0.2302  0.0078
    3TYR     BB  787   2.565   3.307   3.159  0.0891  0.1041 -0.1003
    3TYR    SC1  788   2.681   3.042   3.118 -0.1698 -0.1831  0.0083
    3TYR    SC2  789   2.820   2.852   2.987 -0.0939 -0.0700 -0.0772
    3TYR    SC3  790   2.778   2.829   3.253  0.0917 -0.1047 -0.0499
    1TYR     BB  791   3.223   3.857   3.370  0.1130 -0.3641 -0.4624
    1TYR    SC1  792   3.194   4.149   3.514 -0.0219 -0.0394  0.0548
    1TYR    SC2  793   3.217   4.414   3.565 -0.0235 -0.0680  0.2098
    1TYR    SC3  794   2.973   4.300   3.547 -0.0263 -0.0344  0.0039
    2PRO     BB  795   3.332   3.881   3.117  0.1725  0.1111  0.0606
    2PRO    SC1  796   3.147   3.725   2.940 -0.0973  0.1150  0.0763
    3TYR     BB  797   3.614   3.985   3.048 -0.0047 -0.0564  0.0382
    3TYR    SC1  798   3.915   4.006   2.990  0.0770 -0.3383  0.0887
    3TYR    SC2  799   4.130   3.856   2.917  0.0486 -0.2647 -0.1595
    3TYR    SC3  800   3.998   4.003   2.732  0.0576  0.0476  0.0711
    1TYR     BB  801   1.063   3.616   3.803 -0.4485  0.1443  0.0619
    1TYR    SC1  802   1.089   3.371   3.993  0.1131  0.1367 -0.0848
    1TYR    SC2  803   1.145   3.125   3.899 -0.1897  0.1114 -0.2136
    1TYR    SC3  804   1.021   3.154   4.137 -0.0495  0.1468 -0.1436
    2PRO     BB  805   0.879   3.653   3.419  0.3525  0.1542  0.1175
    2PRO    SC1  806   0.591   3.698   3.439 -0.0270  0.0753  0.0293
    3TYR     BB  807   1.149   3.672   3.292 -0.3966 -0.0469 -0.2593
    3TYR    SC1  808   1.285   3.928   3.345  0.1641 -0.1799  0.1443
    3TYR    SC2  809   1.272   4.080   3.567  0.0531  0.0555 -0.0184
    3TYR    SC3  810   1.484   4.100   3.402 -0.0967  0.2588 -0.1930
    1TYR     BB  811   7.733   3.861   5.258  0.3148  0.1434 -0.0799
    1TYR    SC1  812   7.771   3.552   5.300  0.0152 -0.2936  0.0583
    1TYR    SC2  813   7.722   3.356   5.121 -0.0650 -0.0256 -0.2239
    1TYR    SC3  814   7.836   3.296   5.358  0.0479 -0.3902 -0.3612
    2PRO     BB  815   7.318   3.749   5.217 -0.2775  0.0064 -0.0574
    2PRO    SC1  816   7.320   3.579   4.989  0.3855  0.0823 -0.1478
    3TYR     BB  817   7.047   3.796   5.325  0.0536  0.0062 -0.0236
    3TYR    SC1  818   7.005   3.528   5.504  0.0644  0.0134 -0.1484
    3TYR    SC2  819   6.958   3.332   5.683  0.0776  0.1898  0.0528
    3TYR    SC3  820   6.751   3.452   5.557  0.0804 -0.1499 -0.2966
    1TYR     BB  821   3.991   4.175   4.537  0.1819 -0.0724  0.2771
    1TYR    SC1  822   3.845   4.290   4.746  0.1332 -0.1786 -0.0287
    1TYR    SC2  823   3.790   4.334   5.007 -0.3164 -0.4191 -0.0704
    1TYR    SC3  824   3.683   4.494   4.819  0.4171  0.0859 -0.1109
    2PRO     BB  825   4.174   3.948   4.684  0.2028 -0.0847  0.0720
    2PRO    SC1  826   4.116   3.815   4.954 -0.1252 -0.1425  0.1832
    3TYR     BB  827   4.397   3.871   4.597 -0.3447  0.0346 -0.0480
    3TYR    SC1  828   4.538   3.789   4.316 -0.4476  0.1430  0.0595
    3TYR    SC2  829   4.629   3.929   4.105 -0.0610  0.0899  0.1822
    3TYR    SC3  830   4.539   3.676   4.071  0.0206  0.0732  0.0839
    1TYR     BB  831   7.788   4.257   4.473 -0.0804 -0.1540  0.0806
    1TYR    SC1  832   8.068   4.448   4.444 -0.2125  0.1451 -0.0073
    1TYR    SC2  833   8.335   4.488   4.452 -0.1541 -0.1516 -0.2062
    1TYR    SC3  834   8.203   4.507   4.218 -0.3032 -0.0534 -0.1168
    2PRO     BB  835   7.732   4.166   4.204  0.3789  0.1520  0.0186
    2PRO    SC1  836   7.835   4.336   3.997  0.3131 -0.1225 -0.2387
    3TYR     BB  837   7.700   3.872   4.162  0.1485  0.1247 -0.4302
    3TYR    SC1  838   7.954   3.695   4.246 -0.4748  0.0724 -0.2170
    3TYR    SC2  839   8.019   3.440   4.306  0.0103  0.2261 -0.0291
    3TYR    SC3  840   8.088   3.640   4.474 -0.1653  0.5062 -0.2775
    1TYR     BB  841   2.702   4.615   3.208 -0.3649 -0.2433 -0.1320
    1TYR    SC1  842   2.804   4.826   3.439  0.1244  0.0879 -0.0566
    1TYR    SC2  843   2.937   4.885   3.667  0.1044  0.2671 -0.0890
    1TYR    SC3  844   2.677   4.955   3.639 -0.0824 -0.2929  0.0707
    2PRO     BB  845   2.698   4.846   2.943  0.2044 -0.3454 -0.0489
    2PRO    SC1  846   2.999   4.896   2.977  0.1880 -0.1507  0.1033
    3TYR     BB  847   2.421   4.861   2.847  0.2008  0.2594  0.1014
    3TYR    SC1  848   2.239   4.772   2.620 -0.1216 -0.0850 -0.0736
    3TYR    SC2  849   2.060   4.608   2.501 -0.0913 -0.0527 -0.1660
    3TYR    SC3  850   2.322   4.587   2.442 -0.0982  0.0968 -0.2569
    1TYR     BB  851   4.511   2.852   3.821  0.2478  0.4152  0.0632
    1TYR    SC1  852   4.689   3.101   3.840  0.2118  0.0368 -0.0368
    1TYR    SC2  853   4.882   3.257   3.735  0.2566 -0.0021 -0.0121
    1TYR    SC3  854   4.643   3.363   3.798  0.3575  0.1056  0.2097
    2PRO     BB  855   4.194   2.729   3.876  0.0068  0.3778  0.2793
    2PRO    SC1  856   4.081   2.845   4.105 -0.0189  0.1772  0.1433
    3TYR     BB  857   3.902   2.625   3.710 -0.0540  0.2855 -0.1342
    3TYR    SC1  858   3.642   2.726   3.839  0.0682 -0.1020  0.0892
    3TYR    SC2  859   3.549   2.966   3.923  0.0120 -0.0184 -0.1970
    3TYR    SC3  860   3.394   2.745   3.944  0.0769 -0.0391  0.0989
    1TYR     BB  861   9.175   5.074   3.860  0.0929 -0.2238 -0.0312
    1TYR    SC1  862   8.979   5.162   4.106  0.0373  0.1993  0.0074
    1TYR    SC2  863   8.753   5.238   4.233 -0.0601  0.0665 -0.0845
    1TYR    SC3  864   8.994   5.294   4.340 -0.1278  0.4539 -0.1207
    2PRO     BB  865   9.043   4.819   3.642  0.2786  0.1673  0.2074
    2PRO    SC1  866   8.988   4.653   3.858 -0.0209 -0.1201 -0.0918
    3TYR     BB  867   9.082   4.932   3.314  0.0666 -0.0365 -0.0031
    3TYR    SC1  868   9.273   4.794   3.097 -0.4404 -0.3755 -0.0490
    3TYR    SC2  869   9.519   4.732   3.007 -0.1836  0.0704  0.2963
    3TYR    SC3  870   9.368   4.912   2.874 -0.2562 -0.0751  0.1788
    1TYR     BB  871   5.742   5.250   3.771 -0.2429  0.4236  0.0726
    1TYR    SC1  872   5.613   5.426   3.943 -0.1236 -0.1442 -0.0726
    1TYR    SC2  873   5.563   5.508   4.196  0.4899 -0.2941  0.1179
    1TYR    SC3  874   5.629   5.689   4.008  0.3831 -0.2183  0.1512
    2PRO     BB  875   5.552   5.166   3.442  0.0020  0.6738 -0.0464
    2PRO    SC1  876   5.440   4.964   3.522  0.0052  0.1470  0.3690
    3TYR     BB  877   5.768   5.172   3.221 -0.3502  0.1059 -0.1384
    3TYR    SC1  878   6.043   5.195   3.366 -0.0041 -0.2226 -0.2337
    3TYR    SC2  879   6.257   5.213   3.529 -0.0693 -0.0836 -0.1606
    3TYR    SC3  880   6.280   5.095   3.288  0.0482 -0.2175 -0.0856
    1TYR     BB  881   7.283   2.860   4.080 -0.0496  0.1849 -0.1390
    1TYR    SC1  882   7.160   3.105   4.288  0.0080 -0.0455  0.3555
    1TYR    SC2  883   7.135   3.368   4.340 -0.2322  0.0534 -0.1636
    1TYR    SC3  884   6.944   3.196   4.423 -0.2629  0.0984 -0.1399
    2PRO     BB  885   7.360   2.651   4.217  0.4019 -0.0211 -0.0960
    2PRO    SC1  886   7.538   2.443   4.058  0.3606 -0.0144  0.0387
    3TYR     BB  887   7.525   2.719   4.461  0.3159  0.0355 -0.0562
    3TYR    SC1  888   7.480   2.944   4.703 -0.0819 -0.0446  0.1875
    3TYR    SC2  889   7.462   3.073   4.942 -0.0904  0.4629 -0.0694
    3TYR    SC3  890   7.287   3.129   4.744 -0.2353 -0.1266 -0.1340
    1TYR     BB  891   0.503   4.358   4.754 -0.0447 -0.0945 -0.2854
    1TYR    SC1  892   0.694   4.332   4.591 -0.0429 -0.1544 -0.0842
    1TYR    SC2  893   0.856   4.521   4.486 -0.1002 -0.0696 -0.0219
    1TYR    SC3  894   0.873   4.265   4.399 -0.0560 -0.0271 -0.1421
    2PRO     BB  895   0.238   4.501   4.629 -0.1235  0.2332 -0.0201
    2PRO    SC1  896  -0.027   4.364   4.743 -0.0596  0.0194  0.1230
    3TYR     BB  897   0.121   4.600   4.355 -0.0821 -0.2568  0.0889
    3TYR    SC1  898   0.335   4.588   4.167 -0.0997  0.1977  0.0475
    3TYR    SC2  899   0.439   4.590   3.918 -0.1318  0.2968  0.0340
    3TYR    SC3  900   0.596   4.533   4.130 -0.1740 -0.1194 -0.0363
    1TYR     BB  901   2.450   2.953   2.052  0.0700 -0.2614  0.1004
    1TYR    SC1  902   2.457   3.230   1.847 -0.3012 -0.0687 -0.1073
    1TYR    SC2  903   2.590   3.435   1.731  0.3197 -0.1020  0.4720
    1TYR    SC3  904   2.366   3.483   1.876  0.1263  0.0692  0.1337
    2PRO     BB  905   2.726   3.140   2.252  0.0312 -0.3836  0.1593
    2PRO    SC1  906   2.757   2.924   2.451 -0.0387 -0.1046  0.4574
    3TYR     BB  907   2.797   3.371   2.168 -0.0970  0.1921 -0.0044
    3TYR    SC1  908   3.010   3.553   2.172 -0.1202  0.2798  0.2802
    3TYR    SC2  909   3.102   3.755   2.326  0.3142  0.2648  0.0581
    3TYR    SC3  910   3.204   3.716   2.079  0.0267 -0.0510 -0.0199
    1TYR     BB  911   4.742   3.297   3.208 -0.0102 -0.1588  0.2452
    1TYR    SC1  912   4.720   3.512   2.984 -0.1957  0.0772 -0.1912
    1TYR    SC2  913   4.846   3.751   2.975 -0.0341  0.0089  0.0997
    1TYR    SC3  914   4.586   3.733   2.907 -0.0567  0.2733  0.1046
    2PRO     BB  915   4.416   3.289   3.334 -0.1907 -0.0991 -0.0396
    2PRO    SC1  916   4.211   3.389   3.162  0.4405  0.1573  0.2263
    3TYR     BB  917   4.302   2.990   3.408  0.1122 -0.0328  0.0532
    3TYR    SC1  918   3.972   2.968   3.390 -0.1759 -0.3352  0.0965
    3TYR    SC2  919   3.804   3.081   3.212  0.1795  0.0967  0.0137
    3TYR    SC3  920   3.724   3.044   3.468 -0.1455 -0.0138 -0.0980
    1TYR     BB  921  -0.934   3.594   4.263  0.0079  0.3035 -0.1445
    1TYR    SC1  922  -0.762   3.508   4.507  0.3337  0.1980  0.2193
    1TYR    SC2  923  -0.615   3.390   4.701 -0.0716 -0.2364  0.2858
    1TYR    SC3  924  -0.852   3.508   4.763  0.0262  0.0623  0.1179
    2PRO     BB  925  -0.857   3.894   4.269 -0.0656 -0.0460 -0.1090
    2PRO    SC1  926  -0.583   3.932   4.149 -0.1876  0.0467 -0.0115
    3TYR     BB  927  -0.929   4.223   4.285 -0.1482 -0.1408  0.0496
    3TYR    SC1  928  -1.001   4.286   4.542 -0.0215 -0.0723 -0.0494
    3TYR    SC2  929  -1.172   4.325   4.749 -0.1898 -0.1106 -0.1788
    3TYR    SC3  930  -0.907   4.365   4.784 -0.1894 -0.3129  0.1001
    1TYR     BB  931   9.217   4.196   3.804 -0.0896  0.1494  0.1883
    1TYR    SC1  932   9.442   4.394   3.632  0.2071 -0.1496 -0.0636
    1TYR    SC2  933   9.455   4.612   3.472 -0.4898 -0.0187  0.0194
    1TYR    SC3  934   9.663   4.548   3.631 -0.0675  0.2738 -0.3848
    2PRO     BB  935   8.917   4.150   3.744  0.1051 -0.0585 -0.2790
    2PRO    SC1  936   8.786   3.925   3.875 -0.2218  0.3035  0.0605
    3TYR     BB  937   8.725   4.368   3.640 -0.0433  0.3120  0.0523
    3TYR    SC1  938   8.642   4.571   3.441 -0.0285 -0.3379  0.4641
    3TYR    SC2  939   8.393   4.596   3.340  0.1853 -0.3772 -0.1228
    3TYR    SC3  940   8.537   4.816   3.400  0.0812 -0.3508  0.0356
    1TYR     BB  941   1.493   3.304   3.446  0.0648 -0.1835  0.2211
    1TYR    SC1  942   1.216   3.134   3.369  0.0530 -0.2891 -0.0040
    1TYR    SC2  943   0.958   3.151   3.444  0.0539 -0.3357  0.0105
    1TYR    SC3  944   1.078   2.910   3.431  0.0739 -0.3215 -0.0724
    2PRO     BB  945   1.505   3.440   3.727  0.1800  0.3136 -0.2365
    2PRO    SC1  946   1.607   3.730   3.770 -0.3652 -0.0184 -0.2977
    3TYR     BB  947   1.593   3.339   4.018  0.0495 -0.1289 -0.0867
    3TYR    SC1  948   1.541   3.078   4.168 -0.1244 -0.1719 -0.1541
    3TYR    SC2  949   1.636   2.843   4.260 -0.0796 -0.1707 -0.1961
    3TYR    SC3  950   1.376   2.908   4.297  0.0004 -0.0314  0.2073
    1TYR     BB  951   9.394   3.960   3.397  0.0181 -0.1594 -0.2490
    1TYR    SC1  952   9.210   4.219   3.270  0.4260  0.1856  0.0620
    1TYR    SC2  953   9.081   4.454   3.237 -0.0630 -0.0742  0.0079
    1TYR    SC3  954   9.145   4.303   3.022  0.1598 -0.0414  0.0485
    2PRO     BB  955   9.194   3.745   3.397 -0.2320 -0.3322 -0.0745
    2PRO    SC1  956   8.911   3.816   3.387  0.1673 -0.2116  0.0763
    3TYR     BB  957   9.270   3.417   3.570  0.0821 -0.2815  0.1003
    3TYR    SC1  958   9.175   3.540   3.856 -0.1834 -0.2131  0.1783
    3TYR    SC2  959   9.229   3.749   4.017 -0.0406  0.0530 -0.1932
    3TYR    SC3  960   9.170   3.508   4.124  0.1627  0.1820  0.2463
    1TYR     BB  961   5.315   3.418   4.538  0.0118  0.2312 -0.1608
    1TYR    SC1  962   5.363   3.630   4.315 -0.3150  0.2278  0.2674
    1TYR    SC2  963   5.473   3.861   4.232 -0.2912  0.1589  0.1005
    1TYR    SC3  964   5.485   3.641   4.074  0.4988 -0.2199  0.6078
    2PRO     BB  965   4.952   3.446   4.495 -0.0313  0.0979  0.2041
    2PRO    SC1  966   4.812   3.556   4.697  0.2875 -0.0198  0.0508
    3TYR     BB  967   4.762   3.253   4.316 -0.0411 -0.0505  0.0994
    3TYR    SC1  968   4.719   2.952   4.351  0.2366  0.0691 -0.1072
    3TYR    SC2  969   4.560   2.742   4.290  0.1437  0.1950 -0.3118
    3TYR    SC3  970   4.827   2.719   4.268  0.1672 -0.0318  0.0749
    1TYR     BB  971   7.475   5.115   4.323  0.2424  0.0761  0.1579
    1TYR    SC1  972   7.474   5.102   4.033  0.0064 -0.4480 -0.1105
    1TYR    SC2  973   7.614   5.186   3.817 -0.0331  0.5183  0.1904
    1TYR    SC3  974   7.345   5.163   3.803  0.0049  0.1089  0.0212
    2PRO     BB  975   7.437   5.351   4.510 -0.0194  0.2253 -0.0223
    2PRO    SC1  976   7.186   5.438   4.584 -0.0135 -0.0185 -0.0464
    3TYR     BB  977   7.653   5.600   4.469 -0.1550  0.1116  0.0382
    3TYR    SC1  978   7.807   5.520   4.226  0.2648 -0.0327  0.0701
    3TYR    SC2  979   7.920   5.295   4.126  0.4618  0.1154 -0.0492
    3TYR    SC3  980   7.862   5.503   3.963  0.2255  0.1319  0.0496
    1TYR     BB  981   6.814   2.911   4.817  0.0362 -0.1226  0.2284
    1TYR    SC1  982   6.807   2.655   4.997 -0.2679  0.0804 -0.1619
    1TYR    SC2  983   6.790   2.402   4.902  0.1348 -0.0861  0.1741
    1TYR    SC3  984   6.872   2.447   5.156  0.1561  0.3904  0.0956
    2PRO     BB  985   6.538   3.069   4.865  0.2568  0.2190  0.2276
    2PRO    SC1  986   6.473   3.313   4.694 -0.1818 -0.0362  0.1484
    3TYR     BB  987   6.274   2.941   5.022 -0.1699 -0.2900  0.0198
    3TYR    SC1  988   6.366   2.676   5.105  0.0457  0.0070 -0.0643
    3TYR    SC2  989   6.349   2.413   5.045 -0.4265 -0.0868  0.3964
    3TYR    SC3  990   6.401   2.492   5.299  0.3116  0.2863  0.1639
    1TYR     BB  991   8.351   4.983   4.371 -0.0506 -0.1345  0.0746
    1TYR    SC1  992   8.450   4.846   4.099 -0.1292 -0.0035 -0.0184
    1TYR    SC2  993   8.568   4.956   3.885  0.0617 -0.0420  0.0647
    1TYR    SC3  994   8.458   4.710   3.867 -0.0090 -0.0056 -0.0133
    2PRO     BB  995   8.016   4.932   4.425  0.0209 -0.0224  0.0010
    2PRO    SC1  996   7.943   5.151   4.593  0.3552  0.1209 -0.0661
    3TYR     BB  997   7.850   4.825   4.188  0.1628 -0.0097 -0.1569
    3TYR    SC1  998   8.011   4.831   3.940  0.3961  0.0992 -0.1617
    3TYR    SC2  999   8.021   4.768   3.677 -0.3245  0.3406 -0.2761
    3TYR    SC3 1000   8.131   5.000   3.767  0.2349  0.0969 -0.2779
   7.69165   7.69165   7.69165
