Generated by trjconv : Martini system from ../2_Creating_coordinates/TYR-GLU-TYR_aa.pdb t=   0.00000
 1000
    1TYR     BB    1   6.907   5.255   3.823  0.0674 -0.0252 -0.2254
    1TYR    SC1    2   6.652   5.381   3.888 -0.2500  0.0500  0.2810
    1TYR    SC2    3   6.405   5.478   3.843 -0.1916  0.0319 -0.1316
    1TYR    SC3    4   6.544   5.558   4.060 -0.4377  0.2782 -0.0563
    2GLU     BB    5   7.139   5.269   3.709  0.0095  0.0171  0.0203
    2GLU    SC1    6   7.295   5.643   3.765 -0.0372  0.0534 -0.3069
    3TYR     BB    7   7.407   5.094   3.792  0.1896  0.0627 -0.0583
    3TYR    SC1    8   7.509   5.244   4.026 -0.2282 -0.2323  0.3556
    3TYR    SC2    9   7.475   5.450   4.197  0.1092  0.1565 -0.0170
    3TYR    SC3   10   7.687   5.285   4.224 -0.0251  0.0036  0.1328
    1TYR     BB   11   4.359   2.863   3.573  0.0072  0.1346  0.2376
    1TYR    SC1   12   4.638   2.803   3.398 -0.2660 -0.1942 -0.0763
    1TYR    SC2   13   4.687   2.567   3.278 -0.2043  0.0127 -0.4756
    1TYR    SC3   14   4.856   2.775   3.242  0.0358 -0.0132  0.2899
    2GLU     BB   15   4.403   3.105   3.792 -0.1189  0.1802  0.2619
    2GLU    SC1   16   4.561   2.942   4.071  0.0516  0.3032 -0.0379
    3TYR     BB   17   4.375   3.426   3.914  0.0686  0.4501 -0.1081
    3TYR    SC1   18   4.332   3.368   4.178  0.0417  0.1488 -0.0370
    3TYR    SC2   19   4.197   3.362   4.411 -0.0713 -0.1091 -0.1044
    3TYR    SC3   20   4.455   3.287   4.403 -0.0649 -0.0922 -0.0611
    1TYR     BB   21   5.981   2.426   4.536 -0.3144 -0.3067  0.0658
    1TYR    SC1   22   6.163   2.596   4.373  0.3610  0.1505  0.3696
    1TYR    SC2   23   6.395   2.734   4.358  0.3838  0.0929  0.1445
    1TYR    SC3   24   6.227   2.729   4.147  0.2808 -0.0460  0.2277
    2GLU     BB   25   5.793   2.169   4.437 -0.1247  0.1388  0.1874
    2GLU    SC1   26   5.668   2.099   4.818 -0.0469  0.0912  0.1421
    3TYR     BB   27   5.800   1.992   4.213  0.0195  0.1207 -0.0980
    3TYR    SC1   28   5.585   1.910   4.026  0.0632 -0.1507  0.0176
    3TYR    SC2   29   5.373   2.030   3.908 -0.1037 -0.3883  0.0680
    3TYR    SC3   30   5.405   1.762   3.890  0.2285 -0.3505  0.0107
    1TYR     BB   31   6.205   2.019   4.874  0.0249 -0.1024  0.1883
    1TYR    SC1   32   6.033   1.804   4.720  0.2197  0.0212 -0.0240
    1TYR    SC2   33   5.841   1.616   4.734  0.3386 -0.0898  0.1704
    1TYR    SC3   34   5.958   1.672   4.497 -0.1323  0.1894 -0.0135
    2GLU     BB   35   6.453   1.929   4.950  0.0844 -0.3066  0.2715
    2GLU    SC1   36   6.402   1.767   5.349 -0.2372 -0.3242  0.2424
    3TYR     BB   37   6.787   1.995   4.938 -0.0766 -0.1431 -0.0297
    3TYR    SC1   38   6.937   1.913   5.182 -0.2320  0.1614  0.1034
    3TYR    SC2   39   6.971   1.999   5.435  0.0789  0.0391  0.1084
    3TYR    SC3   40   6.951   1.734   5.384 -0.2545  0.0738  0.0288
    1TYR     BB   41   0.326   3.806   3.443  0.2063 -0.0844  0.2350
    1TYR    SC1   42   0.363   3.718   3.708 -0.2919  0.1465  0.0346
    1TYR    SC2   43   0.427   3.868   3.922 -0.4589  0.3195 -0.0326
    1TYR    SC3   44   0.499   3.608   3.913 -0.1473  0.3958  0.0776
    2GLU     BB   45  -0.030   3.838   3.357  0.2049  0.1962  0.1398
    2GLU    SC1   46  -0.102   3.863   2.966  0.1362 -0.0602 -0.1289
    3TYR     BB   47  -0.166   3.520   3.329  0.4316  0.0490  0.0522
    3TYR    SC1   48  -0.363   3.521   3.572 -0.1347  0.0088 -0.1376
    3TYR    SC2   49  -0.606   3.614   3.643 -0.0695  0.1413 -0.0836
    3TYR    SC3   50  -0.455   3.483   3.823 -0.1858 -0.1279 -0.1760
    1TYR     BB   51  -0.755   3.734   4.601 -0.2238 -0.0150 -0.1759
    1TYR    SC1   52  -0.594   3.494   4.469 -0.0009  0.0770 -0.3423
    1TYR    SC2   53  -0.580   3.232   4.532 -0.0712  0.1009 -0.2244
    1TYR    SC3   54  -0.435   3.329   4.327 -0.2862 -0.0918 -0.4768
    2GLU     BB   55  -0.615   4.014   4.662  0.1236 -0.2257  0.0361
    2GLU    SC1   56  -0.829   4.353   4.757  0.3015 -0.1699  0.1966
    3TYR     BB   57  -0.328   4.142   4.722  0.0018  0.0103  0.2493
    3TYR    SC1   58  -0.278   4.087   5.042  0.1148  0.0362  0.1273
    3TYR    SC2   59  -0.170   4.134   5.286 -0.2432  0.2472  0.2540
    3TYR    SC3   60  -0.409   4.010   5.266 -0.0326 -0.1389 -0.0168
    1TYR     BB   61   5.418   2.502   3.782  0.2190 -0.3585  0.0715
    1TYR    SC1   62   5.418   2.810   3.797 -0.1796  0.1057 -0.2827
    1TYR    SC2   63   5.516   3.038   3.689 -0.0257  0.0737 -0.2135
    1TYR    SC3   64   5.438   3.034   3.949  0.0925  0.0158 -0.1779
    2GLU     BB   65   5.555   2.460   4.108  0.2221 -0.0686  0.1852
    2GLU    SC1   66   5.309   2.264   4.338  0.2520  0.0562 -0.1216
    3TYR     BB   67   5.721   2.623   4.164  0.0123 -0.1782  0.2006
    3TYR    SC1   68   5.734   2.866   4.321 -0.3913 -0.1834 -0.0334
    3TYR    SC2   69   5.611   3.094   4.397 -0.1992 -0.2174  0.4267
    3TYR    SC3   70   5.793   2.980   4.559  0.0394 -0.4632  0.0074
    1TYR     BB   71   0.794   5.240   2.371 -0.0105  0.2424  0.0333
    1TYR    SC1   72   0.943   5.263   2.620 -0.1908 -0.1277 -0.0950
    1TYR    SC2   73   0.925   5.275   2.889  0.1897 -0.1619 -0.0611
    1TYR    SC3   74   1.127   5.401   2.762 -0.0145 -0.1036 -0.3393
    2GLU     BB   75   0.444   5.421   2.433  0.0626 -0.2655  0.0898
    2GLU    SC1   76   0.215   5.149   2.291  0.0230 -0.1963 -0.0202
    3TYR     BB   77   0.516   5.558   2.635 -0.0820 -0.0470 -0.0289
    3TYR    SC1   78   0.715   5.702   2.801  0.1053 -0.1218 -0.1309
    3TYR    SC2   79   0.858   5.663   3.028 -0.0378 -0.1847 -0.0499
    3TYR    SC3   80   0.922   5.867   2.862 -0.1194  0.0539  0.2021
    1TYR     BB   81   3.953   3.352   3.414  0.1315  0.1416 -0.1488
    1TYR    SC1   82   4.057   3.615   3.352 -0.1729 -0.1975 -0.0318
    1TYR    SC2   83   4.166   3.813   3.205 -0.1765 -0.0717  0.1321
    1TYR    SC3   84   3.969   3.869   3.381 -0.3391 -0.2579  0.0147
    2GLU     BB   85   3.958   3.151   3.602  0.0672  0.4505 -0.3940
    2GLU    SC1   86   3.725   2.811   3.732  0.1841  0.1947  0.1236
    3TYR     BB   87   3.942   3.199   3.950  0.4755 -0.0185 -0.0559
    3TYR    SC1   88   3.752   3.188   4.170 -0.0294 -0.2983 -0.0390
    3TYR    SC2   89   3.592   3.244   4.380  0.1361 -0.4343  0.1281
    3TYR    SC3   90   3.502   3.087   4.180 -0.0516 -0.2367  0.0517
    1TYR     BB   91   6.776   3.415   3.599  0.0454 -0.2475 -0.0151
    1TYR    SC1   92   6.777   3.158   3.449  0.1426  0.0593 -0.0748
    1TYR    SC2   93   6.819   3.045   3.207 -0.1662 -0.0620 -0.0780
    1TYR    SC3   94   6.819   2.892   3.429 -0.1704  0.0020 -0.0333
    2GLU     BB   95   6.546   3.338   3.826 -0.1943 -0.1045 -0.0738
    2GLU    SC1   96   6.291   3.516   3.731  0.0277 -0.2152 -0.0381
    3TYR     BB   97   6.541   3.170   4.128 -0.1174  0.2438 -0.2171
    3TYR    SC1   98   6.746   3.351   4.337 -0.3253 -0.1492 -0.0162
    3TYR    SC2   99   6.750   3.572   4.492  0.1555  0.0753 -0.3178
    3TYR    SC3  100   6.954   3.396   4.503 -0.0294 -0.1494 -0.3722
    1TYR     BB  101   7.972   4.490   5.193 -0.0745  0.4537 -0.1528
    1TYR    SC1  102   8.030   4.806   5.168  0.0506 -0.0415  0.1497
    1TYR    SC2  103   7.973   5.054   5.258 -0.1833 -0.0421  0.0131
    1TYR    SC3  104   8.023   5.013   4.995  0.1439 -0.0966  0.0781
    2GLU     BB  105   7.740   4.287   5.024 -0.0416  0.1681 -0.0466
    2GLU    SC1  106   7.584   4.182   5.405 -0.1300 -0.2082 -0.0004
    3TYR     BB  107   7.537   4.257   4.923  0.2209 -0.0287  0.0764
    3TYR    SC1  108   7.545   4.172   4.611 -0.5278 -0.0239 -0.1013
    3TYR    SC2  109   7.438   4.300   4.399  0.1009 -0.0183 -0.4438
    3TYR    SC3  110   7.689   4.203   4.386  0.0890 -0.2066  0.2408
    1TYR     BB  111   6.676   4.418   3.895  0.2942  0.0583 -0.0199
    1TYR    SC1  112   6.408   4.610   3.842  0.1380 -0.0059  0.1437
    1TYR    SC2  113   6.225   4.704   3.668  0.4203 -0.1057 -0.2236
    1TYR    SC3  114   6.148   4.546   3.872  0.1254 -0.4134 -0.5568
    2GLU     BB  115   6.590   4.166   3.851 -0.3458  0.1635  0.0413
    2GLU    SC1  116   6.227   4.115   3.673 -0.2025 -0.1044 -0.1513
    3TYR     BB  117   6.735   3.823   3.864 -0.0392 -0.4868 -0.1370
    3TYR    SC1  118   6.953   3.865   4.063  0.0768 -0.0641 -0.1583
    3TYR    SC2  119   7.105   4.047   4.193 -0.0228  0.0939 -0.2583
    3TYR    SC3  120   7.105   3.789   4.273  0.1312  0.1336 -0.1229
    1TYR     BB  121  -0.427   3.545   4.936  0.0192 -0.3106  0.1384
    1TYR    SC1  122  -0.217   3.671   4.763  0.0403 -0.3269 -0.0478
    1TYR    SC2  123  -0.174   3.724   4.502  0.1002 -0.1579 -0.0047
    1TYR    SC3  124   0.012   3.791   4.687 -0.0495 -0.0426  0.1079
    2GLU     BB  125  -0.433   3.238   5.002 -0.0451  0.0691 -0.2992
    2GLU    SC1  126  -0.700   3.104   5.262 -0.5271 -0.0523 -0.2979
    3TYR     BB  127  -0.301   3.044   4.933 -0.1748 -0.2166  0.4882
    3TYR    SC1  128  -0.168   2.799   5.023  0.1535  0.2248  0.0834
    3TYR    SC2  129  -0.110   2.595   5.190 -0.1509 -0.0277 -0.1050
    3TYR    SC3  130   0.063   2.661   4.993  0.0023 -0.0250  0.0277
    1TYR     BB  131   7.815   2.309   3.275  0.0009  0.0322 -0.0569
    1TYR    SC1  132   8.008   2.488   3.413  0.0139 -0.1125 -0.3340
    1TYR    SC2  133   8.060   2.745   3.350 -0.4098  0.0500 -0.0752
    1TYR    SC3  134   8.139   2.646   3.588 -0.3426 -0.0288 -0.1297
    2GLU     BB  135   7.931   2.153   3.107  0.0766  0.2291 -0.1352
    2GLU    SC1  136   8.296   2.105   3.294 -0.0070  0.1355  0.1020
    3TYR     BB  137   7.888   1.886   2.968 -0.1346 -0.0073  0.3549
    3TYR    SC1  138   7.856   1.993   2.672  0.1419 -0.1027  0.1491
    3TYR    SC2  139   7.962   2.056   2.432 -0.1044  0.1998  0.1125
    3TYR    SC3  140   7.698   2.090   2.477 -0.1813 -0.4158  0.2418
    1TYR     BB  141   3.022   3.262   3.914  0.0514  0.0290 -0.1683
    1TYR    SC1  142   3.148   3.434   4.127 -0.0413  0.0213 -0.1709
    1TYR    SC2  143   3.287   3.556   4.324 -0.0361 -0.2367 -0.0078
    1TYR    SC3  144   3.022   3.519   4.350 -0.0722 -0.0916 -0.1449
    2GLU     BB  145   3.088   2.979   3.832  0.0732 -0.1278 -0.0841
    2GLU    SC1  146   3.134   2.729   4.194 -0.1737 -0.2601  0.0346
    3TYR     BB  147   3.377   3.043   3.540 -0.1259  0.0712 -0.0150
    3TYR    SC1  148   3.485   3.282   3.664  0.0412 -0.0767 -0.0933
    3TYR    SC2  149   3.557   3.542   3.640 -0.3724  0.0364 -0.2183
    3TYR    SC3  150   3.507   3.436   3.884 -0.4716  0.1558 -0.1860
    1TYR     BB  151   2.133   3.981   4.466 -0.1998 -0.0625  0.0665
    1TYR    SC1  152   2.106   3.699   4.554  0.2185  0.0491  0.1378
    1TYR    SC2  153   2.179   3.466   4.666  0.1719  0.0063  0.0787
    1TYR    SC3  154   1.917   3.533   4.652  0.1808  0.0325  0.0381
    2GLU     BB  155   2.092   4.265   4.598 -0.1224 -0.1402  0.0034
    2GLU    SC1  156   2.081   4.123   4.971  0.0384  0.2080 -0.2623
    3TYR     BB  157   2.124   4.494   4.475 -0.1360 -0.1203 -0.0785
    3TYR    SC1  158   2.060   4.782   4.537 -0.2818  0.1514  0.0101
    3TYR    SC2  159   2.120   4.962   4.730  0.0056 -0.1230  0.1888
    3TYR    SC3  160   1.901   4.997   4.577  0.1800  0.5102  0.0463
    1TYR     BB  161   1.629   3.216   3.744  0.3079 -0.1000  0.2635
    1TYR    SC1  162   1.856   3.007   3.722 -0.1105 -0.1926  0.0499
    1TYR    SC2  163   2.059   2.915   3.875 -0.2169 -0.1228  0.2382
    1TYR    SC3  164   1.959   2.762   3.676  0.3236  0.0165 -0.1693
    2GLU     BB  165   1.554   3.407   3.608  0.0033 -0.0228 -0.0946
    2GLU    SC1  166   1.216   3.288   3.462  0.1425 -0.0704  0.3624
    3TYR     BB  167   1.596   3.671   3.617 -0.5815  0.1702 -0.0396
    3TYR    SC1  168   1.744   3.810   3.391  0.1302 -0.0011 -0.1862
    3TYR    SC2  169   1.703   4.021   3.226 -0.0979  0.0358 -0.0877
    3TYR    SC3  170   1.937   3.886   3.218  0.1240  0.4017 -0.0310
    1TYR     BB  171   8.885   5.332   5.337  0.2627  0.0213  0.0618
    1TYR    SC1  172   8.992   5.322   5.046 -0.1214  0.4009 -0.0610
    1TYR    SC2  173   9.114   5.419   4.825 -0.0760  0.1779 -0.1375
    1TYR    SC3  174   9.096   5.153   4.864 -0.2098  0.2121  0.0600
    2GLU     BB  175   8.932   5.563   5.515  0.0014 -0.2148  0.1744
    2GLU    SC1  176   8.562   5.721   5.499  0.0025 -0.3047  0.0992
    3TYR     BB  177   9.282   5.785   5.476  0.3430  0.0449  0.3076
    3TYR    SC1  178   9.420   5.513   5.410  0.1335  0.0840  0.1481
    3TYR    SC2  179   9.650   5.374   5.423  0.0861  0.0210  0.3639
    3TYR    SC3  180   9.434   5.265   5.303  0.1925  0.1204  0.0698
    1TYR     BB  181   1.317   3.073   2.468 -0.3126  0.1000 -0.2372
    1TYR    SC1  182   1.527   2.944   2.644 -0.2485  0.1414  0.3403
    1TYR    SC2  183   1.617   2.804   2.856 -0.0569 -0.2392  0.0217
    1TYR    SC3  184   1.740   3.033   2.786 -0.1826 -0.0572  0.3692
    2GLU     BB  185   1.165   3.296   2.494 -0.0683  0.0518  0.0518
    2GLU    SC1  186   1.002   3.366   2.202  0.2327  0.3009  0.1480
    3TYR     BB  187   1.135   3.542   2.650  0.1168 -0.0021  0.3175
    3TYR    SC1  188   1.290   3.519   2.877  0.3422 -0.0205 -0.2084
    3TYR    SC2  189   1.455   3.320   2.953  0.3359  0.1260  0.2226
    3TYR    SC3  190   1.463   3.559   3.079  0.1626  0.3174 -0.1105
    1TYR     BB  191   6.638   3.019   4.711 -0.0619 -0.1953 -0.1546
    1TYR    SC1  192   6.791   2.896   4.471  0.0334 -0.1623 -0.2528
    1TYR    SC2  193   6.903   2.743   4.278  0.2766 -0.0284 -0.2228
    1TYR    SC3  194   6.999   2.991   4.328 -0.0930  0.1310 -0.2532
    2GLU     BB  195   6.530   2.921   4.922  0.1165  0.3114 -0.1201
    2GLU    SC1  196   6.169   2.908   4.839 -0.1344  0.1766 -0.1184
    3TYR     BB  197   6.534   2.931   5.269 -0.1330  0.0332  0.1002
    3TYR    SC1  198   6.516   2.597   5.288  0.1436  0.1859  0.1139
    3TYR    SC2  199   6.414   2.439   5.094 -0.5257  0.4682  0.2006
    3TYR    SC3  200   6.552   2.329   5.298 -0.0001  0.1427 -0.2885
    1TYR     BB  201   7.214   4.490   3.261 -0.3128  0.4198 -0.0105
    1TYR    SC1  202   7.400   4.413   3.014 -0.2483 -0.2988  0.0009
    1TYR    SC2  203   7.550   4.420   2.790 -0.3903 -0.1941 -0.0933
    1TYR    SC3  204   7.431   4.189   2.865 -0.0469 -0.3233  0.0775
    2GLU     BB  205   7.102   4.328   3.387 -0.3913 -0.2203 -0.0579
    2GLU    SC1  206   7.009   3.997   3.216  0.0876 -0.1063 -0.0743
    3TYR     BB  207   7.091   4.223   3.677 -0.2793  0.1039 -0.0213
    3TYR    SC1  208   7.205   3.973   3.682  0.0954  0.0210 -0.0227
    3TYR    SC2  209   7.406   3.797   3.726  0.1370  0.0837  0.0412
    3TYR    SC3  210   7.170   3.711   3.624  0.1910  0.0074 -0.0204
    1TYR     BB  211   4.663   3.785   3.118 -0.0457  0.2293  0.1349
    1TYR    SC1  212   4.822   3.774   3.367 -0.1127  0.0586 -0.0547
    1TYR    SC2  213   4.946   3.673   3.585 -0.2687  0.0520  0.0332
    1TYR    SC3  214   4.898   3.937   3.568 -0.0712  0.0835 -0.0902
    2GLU     BB  215   4.616   3.596   2.846  0.1403  0.3849 -0.2492
    2GLU    SC1  216   4.821   3.788   2.631 -0.0258 -0.1893  0.2264
    3TYR     BB  217   4.410   3.404   2.757  0.1393 -0.0377  0.0203
    3TYR    SC1  218   4.248   3.238   2.559 -0.1200  0.1635  0.1078
    3TYR    SC2  219   4.011   3.122   2.507  0.0595 -0.1316 -0.0967
    3TYR    SC3  220   4.207   3.114   2.323  0.2247  0.1289  0.0597
    1TYR     BB  221   2.897   3.980   4.166 -0.0584 -0.1055  0.2040
    1TYR    SC1  222   3.086   3.992   4.428  0.0613  0.1587  0.0159
    1TYR    SC2  223   3.284   3.917   4.595  0.1760  0.0723 -0.1558
    1TYR    SC3  224   3.027   3.895   4.673  0.2308  0.1566  0.0577
    2GLU     BB  225   3.031   4.336   4.053  0.0546  0.1355 -0.0200
    2GLU    SC1  226   3.157   4.453   4.350  0.0720 -0.2507  0.2453
    3TYR     BB  227   3.166   4.356   3.805  0.0649  0.0569 -0.0041
    3TYR    SC1  228   3.067   4.178   3.566  0.2846  0.1334 -0.2127
    3TYR    SC2  229   2.928   4.004   3.415  0.0514  0.0316  0.1072
    3TYR    SC3  230   2.923   4.266   3.356  0.0260 -0.0140 -0.1033
    1TYR     BB  231   7.387   3.558   4.657  0.1326 -0.0150 -0.0855
    1TYR    SC1  232   7.549   3.705   4.445  0.0396  0.0373  0.1837
    1TYR    SC2  233   7.540   3.814   4.199 -0.0756  0.5410  0.3964
    1TYR    SC3  234   7.778   3.752   4.310 -0.0331 -0.1800 -0.0233
    2GLU     BB  235   7.502   3.310   4.720  0.1314 -0.1681  0.1457
    2GLU    SC1  236   7.499   3.248   5.061  0.3470 -0.0682 -0.0999
    3TYR     BB  237   7.490   3.005   4.573 -0.2408 -0.3320  0.1290
    3TYR    SC1  238   7.467   2.805   4.802 -0.0461  0.1181  0.0488
    3TYR    SC2  239   7.611   2.601   4.904 -0.1824 -0.0527 -0.0905
    3TYR    SC3  240   7.462   2.757   5.067 -0.0332 -0.0272  0.0239
    1TYR     BB  241   0.749   4.698   3.662  0.2556 -0.0613 -0.1284
    1TYR    SC1  242   0.975   4.871   3.666  0.1498 -0.0950 -0.0094
    1TYR    SC2  243   1.226   4.774   3.654  0.1419 -0.0953 -0.2160
    1TYR    SC3  244   1.175   5.025   3.568  0.0907 -0.0541 -0.0677
    2GLU     BB  245   0.493   4.698   3.429 -0.0981  0.3689 -0.0414
    2GLU    SC1  246   0.640   4.454   3.156 -0.0861  0.1739  0.0515
    3TYR     BB  247   0.421   4.887   3.294 -0.3892  0.1882 -0.0946
    3TYR    SC1  248   0.553   4.947   3.002  0.0308 -0.0883  0.0769
    3TYR    SC2  249   0.682   4.850   2.785 -0.0901  0.1619 -0.1132
    3TYR    SC3  250   0.503   5.050   2.758 -0.3917 -0.0554  0.1674
    1TYR     BB  251   2.970   3.809   2.998 -0.0437  0.0832  0.0671
    1TYR    SC1  252   2.744   3.737   3.128  0.2382 -0.0789 -0.0083
    1TYR    SC2  253   2.619   3.705   3.365 -0.1868 -0.2226 -0.2389
    1TYR    SC3  254   2.508   3.606   3.139  0.1023  0.0882 -0.5327
    2GLU     BB  255   3.123   4.064   2.936  0.0786  0.0429 -0.1243
    2GLU    SC1  256   3.080   4.029   2.543  0.3673  0.1991  0.2842
    3TYR     BB  257   3.307   4.217   3.043  0.1245 -0.0036  0.2675
    3TYR    SC1  258   3.624   4.265   2.996  0.0831  0.0227 -0.0792
    3TYR    SC2  259   3.862   4.185   3.097  0.0105 -0.3521 -0.1875
    3TYR    SC3  260   3.842   4.260   2.838  0.0677 -0.0113 -0.0995
    1TYR     BB  261   0.553   4.387   5.395 -0.0164  0.0408  0.1029
    1TYR    SC1  262   0.393   4.149   5.438  0.0963 -0.0268  0.2261
    1TYR    SC2  263   0.348   3.906   5.330  0.0652  0.0049  0.1681
    1TYR    SC3  264   0.223   3.976   5.558 -0.0203  0.0128  0.1198
    2GLU     BB  265   0.841   4.519   5.338  0.0509 -0.0707  0.0242
    2GLU    SC1  266   1.139   4.401   5.611  0.3351 -0.3311 -0.0259
    3TYR     BB  267   0.953   4.786   5.323  0.1177  0.0338 -0.0002
    3TYR    SC1  268   1.087   4.812   5.024  0.1276 -0.0450  0.2690
    3TYR    SC2  269   1.325   4.888   4.920 -0.0461  0.1707  0.0137
    3TYR    SC3  270   1.096   4.993   4.824 -0.2507 -0.0592  0.2326
    1TYR     BB  271  -0.619   4.093   3.711 -0.1110  0.0874 -0.2913
    1TYR    SC1  272  -0.480   3.958   3.953 -0.2959  0.1534  0.1400
    1TYR    SC2  273  -0.449   3.768   4.142 -0.2873 -0.1111 -0.1181
    1TYR    SC3  274  -0.348   4.015   4.181 -0.2641 -0.1671  0.2080
    2GLU     BB  275  -0.512   4.050   3.412  0.0042 -0.0148  0.0048
    2GLU    SC1  276  -0.835   4.221   3.233 -0.0083 -0.0594 -0.1668
    3TYR     BB  277  -0.573   3.788   3.196 -0.2710  0.0955  0.0146
    3TYR    SC1  278  -0.882   3.700   3.273 -0.0951  0.0569 -0.1072
    3TYR    SC2  279  -1.151   3.680   3.258 -0.0862 -0.3505  0.0867
    3TYR    SC3  280  -1.036   3.828   3.453 -0.1631 -0.0802 -0.0660
    1TYR     BB  281  -0.057   4.110   3.744  0.2511 -0.0284 -0.1530
    1TYR    SC1  282  -0.034   3.795   3.851  0.0918 -0.1659 -0.1602
    1TYR    SC2  283   0.008   3.528   3.853  0.3896 -0.1236 -0.0421
    1TYR    SC3  284  -0.009   3.665   4.085  0.2702 -0.0330 -0.1025
    2GLU     BB  285   0.195   4.259   3.735  0.4604  0.1032  0.1291
    2GLU    SC1  286   0.118   4.353   3.377  0.4171 -0.0480  0.2273
    3TYR     BB  287   0.284   4.483   3.871 -0.3435  0.2685 -0.1691
    3TYR    SC1  288   0.134   4.733   3.802 -0.1044  0.0123 -0.0337
    3TYR    SC2  289   0.043   4.873   3.590  0.3705  0.2025 -0.1298
    3TYR    SC3  290   0.049   4.987   3.835 -0.3538 -0.0791  0.0520
    1TYR     BB  291   1.122   2.520   5.133  0.2715 -0.2489 -0.1280
    1TYR    SC1  292   1.288   2.542   5.397 -0.0347  0.0512 -0.1044
    1TYR    SC2  293   1.480   2.614   5.573 -0.1424  0.4777 -0.1470
    1TYR    SC3  294   1.220   2.611   5.650 -0.1319 -0.1319 -0.0786
    2GLU     BB  295   0.832   2.477   5.245  0.0512  0.3179  0.1544
    2GLU    SC1  296   0.878   2.244   5.554  0.2957  0.0436 -0.0224
    3TYR     BB  297   0.576   2.599   5.078  0.1106  0.2000  0.2006
    3TYR    SC1  298   0.402   2.455   4.847  0.0534 -0.0013  0.0426
    3TYR    SC2  299   0.420   2.266   4.653  0.0077 -0.0713  0.1057
    3TYR    SC3  300   0.202   2.275   4.812  0.1593 -0.1808  0.3249
    1TYR     BB  301   2.353   3.764   4.040  0.2000 -0.1269 -0.1372
    1TYR    SC1  302   2.064   3.656   4.062  0.2095  0.0055 -0.0547
    1TYR    SC2  303   1.926   3.435   4.130  0.2620  0.0159  0.0915
    1TYR    SC3  304   1.801   3.673   4.116  0.1788 -0.0387 -0.1858
    2GLU     BB  305   2.571   3.559   4.002 -0.1628 -0.0439 -0.1034
    2GLU    SC1  306   2.405   3.289   4.265 -0.1209  0.2051  0.0369
    3TYR     BB  307   2.571   3.330   3.745 -0.0676 -0.0429  0.3332
    3TYR    SC1  308   2.461   3.164   3.529  0.0480 -0.0968  0.1431
    3TYR    SC2  309   2.387   3.160   3.270  0.2691 -0.1427  0.0785
    3TYR    SC3  310   2.248   3.017   3.451 -0.1239  0.1872  0.0557
    1TYR     BB  311   8.154   4.642   3.778 -0.0587  0.0681 -0.3060
    1TYR    SC1  312   7.926   4.711   3.948  0.1669  0.0304  0.1561
    1TYR    SC2  313   7.705   4.839   4.035  0.1802  0.2110 -0.0627
    1TYR    SC3  314   7.751   4.585   4.110 -0.0064  0.2307  0.1324
    2GLU     BB  315   8.172   4.464   3.557  0.0570  0.0990 -0.2879
    2GLU    SC1  316   8.362   4.575   3.273 -0.1459 -0.0771  0.0743
    3TYR     BB  317   8.129   4.109   3.491 -0.0142  0.0298 -0.0781
    3TYR    SC1  318   8.406   4.060   3.363 -0.1112  0.1424 -0.3244
    3TYR    SC2  319   8.659   3.966   3.367 -0.0752  0.2340  0.0564
    3TYR    SC3  320   8.570   4.108   3.154  0.1557  0.1104 -0.1282
    1TYR     BB  321   0.654   5.095   4.610  0.1755  0.0971 -0.1969
    1TYR    SC1  322   0.348   5.143   4.694 -0.0519 -0.1081  0.0255
    1TYR    SC2  323   0.152   5.310   4.776  0.0521  0.0684 -0.0760
    1TYR    SC3  324   0.128   5.043   4.815 -0.0010  0.1229  0.3248
    2GLU     BB  325   0.721   4.906   4.459  0.2926 -0.0513  0.0080
    2GLU    SC1  326   0.551   4.835   4.126  0.0607 -0.2473  0.2266
    3TYR     BB  327   0.970   4.751   4.404  0.0228 -0.2732 -0.3187
    3TYR    SC1  328   1.231   4.921   4.406  0.0481 -0.0335  0.1276
    3TYR    SC2  329   1.494   4.922   4.470 -0.0146  0.2668  0.4105
    3TYR    SC3  330   1.414   5.013   4.230  0.1550 -0.0785  0.2130
    1TYR     BB  331   1.130   4.137   4.416  0.2218  0.1814  0.2460
    1TYR    SC1  332   0.942   4.195   4.155  0.0018 -0.0190  0.0371
    1TYR    SC2  333   0.744   4.161   3.973  0.1488  0.0679 -0.1444
    1TYR    SC3  334   0.770   4.396   4.102 -0.1778 -0.1062  0.2696
    2GLU     BB  335   1.042   3.871   4.572  0.0930  0.3982  0.0165
    2GLU    SC1  336   1.199   3.888   4.923 -0.0863 -0.1402 -0.1312
    3TYR     BB  337   0.941   3.661   4.393  0.1351  0.1943  0.0261
    3TYR    SC1  338   0.716   3.451   4.425  0.0273  0.2524  0.4432
    3TYR    SC2  339   0.588   3.214   4.402  0.1052  0.2390  0.0768
    3TYR    SC3  340   0.479   3.412   4.550 -0.0749  0.0545  0.1980
    1TYR     BB  341   4.872   3.284   3.901 -0.2550 -0.1569 -0.0430
    1TYR    SC1  342   4.980   3.328   4.155  0.0135  0.1646  0.0843
    1TYR    SC2  343   5.224   3.263   4.249  0.1162  0.2963 -0.0821
    1TYR    SC3  344   5.111   3.498   4.317  0.0025  0.2061  0.0501
    2GLU     BB  345   4.953   3.074   3.726 -0.0506 -0.1413  0.1680
    2GLU    SC1  346   5.147   3.286   3.477  0.1513 -0.0770 -0.1266
    3TYR     BB  347   4.942   2.780   3.806  0.0691  0.0988  0.1913
    3TYR    SC1  348   5.085   2.749   4.120  0.0170 -0.2482  0.0782
    3TYR    SC2  349   5.249   2.753   4.336  0.0040 -0.2507  0.0881
    3TYR    SC3  350   5.014   2.888   4.341  0.1142 -0.0502 -0.0126
    1TYR     BB  351   6.607   2.452   3.503 -0.1598  0.0570 -0.1725
    1TYR    SC1  352   6.808   2.163   3.526  0.1505  0.1159 -0.0678
    1TYR    SC2  353   6.877   1.915   3.443  0.0980  0.0883 -0.0292
    1TYR    SC3  354   7.049   2.059   3.593  0.3247  0.2597 -0.4319
    2GLU     BB  355   6.493   2.537   3.159 -0.0086 -0.1644  0.1438
    2GLU    SC1  356   6.323   2.866   3.084  0.2795 -0.3663 -0.0870
    3TYR     BB  357   6.538   2.384   2.890  0.0220  0.2036  0.4135
    3TYR    SC1  358   6.850   2.261   2.919  0.0293 -0.0265 -0.0023
    3TYR    SC2  359   7.018   2.140   3.092  0.1934  0.2256  0.0218
    3TYR    SC3  360   6.988   2.041   2.843 -0.1098 -0.1909  0.2091
    1TYR     BB  361  -0.332   4.567   3.639 -0.1091  0.0630  0.2994
    1TYR    SC1  362  -0.289   4.658   3.355  0.1422 -0.0223 -0.2659
    1TYR    SC2  363  -0.170   4.844   3.199 -0.3355  0.3289 -0.2431
    1TYR    SC3  364  -0.416   4.754   3.137 -0.2258 -0.1043 -0.0974
    2GLU     BB  365  -0.366   4.546   3.897 -0.0834 -0.3530 -0.0165
    2GLU    SC1  366  -0.755   4.695   3.957  0.0046 -0.4271  0.2370
    3TYR     BB  367  -0.146   4.579   4.127  0.2642 -0.0629  0.0078
    3TYR    SC1  368  -0.040   4.353   4.222 -0.3416  0.1151  0.4059
    3TYR    SC2  369   0.161   4.177   4.181  0.1560  0.6693  0.3019
    3TYR    SC3  370   0.027   4.176   4.416 -0.3282 -0.2520  0.0825
    1TYR     BB  371   6.878   2.610   4.976 -0.0738 -0.1852  0.1033
    1TYR    SC1  372   6.766   2.509   4.734  0.2794 -0.1819  0.1363
    1TYR    SC2  373   6.726   2.425   4.480 -0.1241  0.3132  0.0153
    1TYR    SC3  374   6.536   2.383   4.668  0.0260  0.2440  0.1545
    2GLU     BB  375   7.026   2.425   5.156  0.1901  0.1067  0.4407
    2GLU    SC1  376   7.119   2.691   5.416 -0.3873 -0.1563 -0.3355
    3TYR     BB  377   7.223   2.259   4.997  0.2787  0.0320  0.1224
    3TYR    SC1  378   7.273   2.378   4.702 -0.1219 -0.0900 -0.1055
    3TYR    SC2  379   7.216   2.588   4.542 -0.0742 -0.2527 -0.3426
    3TYR    SC3  380   7.266   2.346   4.435  0.2794 -0.2974 -0.1013
    1TYR     BB  381   0.681   5.676   3.638 -0.3981 -0.0785 -0.1443
    1TYR    SC1  382   0.742   5.721   3.955 -0.0071 -0.0286 -0.0822
    1TYR    SC2  383   0.946   5.681   4.127  0.0987 -0.0048 -0.1998
    1TYR    SC3  384   0.751   5.858   4.187  0.2314  0.1397 -0.1860
    2GLU     BB  385   0.510   5.380   3.634  0.2725 -0.0523 -0.0128
    2GLU    SC1  386   0.557   5.381   3.244  0.0713  0.4442 -0.1224
    3TYR     BB  387   0.554   5.168   3.718 -0.1760  0.1180 -0.1268
    3TYR    SC1  388   0.833   5.213   3.934 -0.0887 -0.2811  0.3905
    3TYR    SC2  389   0.929   5.235   4.186  0.3571 -0.2257  0.2281
    3TYR    SC3  390   1.098   5.195   3.980  0.0662  0.2489 -0.1321
    1TYR     BB  391   8.918   5.813   5.095 -0.5950  0.2341 -0.3101
    1TYR    SC1  392   8.866   6.050   5.318 -0.0678 -0.0539  0.1432
    1TYR    SC2  393   8.748   6.291   5.341 -0.0504 -0.0402  0.0919
    1TYR    SC3  394   8.777   6.133   5.558 -0.1102 -0.0191  0.1155
    2GLU     BB  395   8.628   5.690   4.980  0.1763 -0.0798 -0.1325
    2GLU    SC1  396   8.446   5.823   4.673 -0.0263 -0.0779 -0.0113
    3TYR     BB  397   8.421   5.462   5.084  0.0267  0.0594  0.0228
    3TYR    SC1  398   8.501   5.161   5.064  0.0291  0.0848  0.0308
    3TYR    SC2  399   8.687   4.963   5.053 -0.1323 -0.0661 -0.0842
    3TYR    SC3  400   8.476   4.942   5.222 -0.2148 -0.0511 -0.1844
    1TYR     BB  401   1.176   4.282   2.998 -0.1496 -0.0424 -0.2115
    1TYR    SC1  402   1.355   4.459   3.153 -0.3183  0.1444 -0.1929
    1TYR    SC2  403   1.624   4.490   3.159 -0.2658 -0.1950 -0.4533
    1TYR    SC3  404   1.465   4.681   3.262  0.0780 -0.1126 -0.0364
    2GLU     BB  405   1.165   4.020   2.999  0.2354  0.3990 -0.0154
    2GLU    SC1  406   0.844   3.932   2.783 -0.0269  0.0111  0.1489
    3TYR     BB  407   1.241   3.878   3.371  0.0896 -0.1318  0.2781
    3TYR    SC1  408   1.137   4.131   3.523 -0.0409  0.0656  0.1688
    3TYR    SC2  409   1.052   4.305   3.711 -0.3661  0.0173  0.0743
    3TYR    SC3  410   1.019   4.362   3.449 -0.2186 -0.0636  0.0362
    1TYR     BB  411   7.482   4.724   5.269  0.0330 -0.1078  0.0272
    1TYR    SC1  412   7.363   4.732   4.967 -0.2037 -0.2841 -0.2857
    1TYR    SC2  413   7.364   4.653   4.709 -0.0163  0.0167 -0.3842
    1TYR    SC3  414   7.170   4.819   4.799  0.0061  0.0369 -0.3729
    2GLU     BB  415   7.471   5.040   5.326 -0.1903  0.0384 -0.0049
    2GLU    SC1  416   7.384   5.000   5.697  0.0448 -0.1860  0.4416
    3TYR     BB  417   7.425   5.378   5.204 -0.0988  0.3098 -0.5398
    3TYR    SC1  418   7.171   5.303   5.052 -0.0659  0.4974 -0.0413
    3TYR    SC2  419   6.916   5.219   5.046  0.1263 -0.2013  0.2548
    3TYR    SC3  420   7.062   5.220   4.820 -0.1644  0.3916  0.0413
    1TYR     BB  421   0.661   5.237   5.154  0.1095 -0.1160  0.0229
    1TYR    SC1  422   0.988   5.291   5.148 -0.2175  0.0820 -0.1945
    1TYR    SC2  423   1.252   5.285   5.194 -0.2826 -0.2365  0.2059
    1TYR    SC3  424   1.158   5.407   4.973  0.1961 -0.1765  0.0176
    2GLU     BB  425   0.532   5.006   5.118 -0.0247  0.2108 -0.0774
    2GLU    SC1  426   0.482   4.878   5.510 -0.0942 -0.3134 -0.0041
    3TYR     BB  427   0.532   4.730   4.978  0.3426 -0.1281 -0.1980
    3TYR    SC1  428   0.660   4.499   4.893 -0.2748  0.2544 -0.2966
    3TYR    SC2  429   0.699   4.232   4.891 -0.0395  0.2789  0.0223
    3TYR    SC3  430   0.885   4.396   4.785 -0.2330  0.3177 -0.2702
    1TYR     BB  431  -0.582   3.284   3.170  0.1934 -0.2902  0.3978
    1TYR    SC1  432  -0.807   3.279   3.326 -0.0037  0.2413 -0.0453
    1TYR    SC2  433  -0.934   3.269   3.563 -0.0353  0.6134 -0.0377
    1TYR    SC3  434  -1.077   3.277   3.334 -0.0079 -0.1387 -0.1109
    2GLU     BB  435  -0.371   3.031   3.243  0.0879 -0.0992 -0.0865
    2GLU    SC1  436  -0.082   3.112   2.990 -0.2004 -0.0505 -0.0778
    3TYR     BB  437  -0.330   2.970   3.484 -0.2247 -0.2873  0.0698
    3TYR    SC1  438  -0.201   2.983   3.791  0.1071  0.1490 -0.2102
    3TYR    SC2  439  -0.211   2.865   4.034  0.1072  0.1529 -0.2083
    3TYR    SC3  440  -0.150   3.127   4.014  0.0585  0.1644 -0.2087
    1TYR     BB  441   7.760   3.042   2.665 -0.2440  0.1417  0.1600
    1TYR    SC1  442   7.862   3.153   2.962 -0.1250  0.3009  0.1814
    1TYR    SC2  443   7.686   3.216   3.156 -0.2068 -0.2338  0.2984
    1TYR    SC3  444   7.945   3.169   3.218 -0.0880  0.1988  0.1761
    2GLU     BB  445   7.435   3.093   2.674  0.0362 -0.0347 -0.3315
    2GLU    SC1  446   7.393   3.320   2.350  0.0408 -0.2224  0.0670
    3TYR     BB  447   7.203   3.136   2.851 -0.0957 -0.0907  0.0777
    3TYR    SC1  448   7.246   3.149   3.141  0.0556 -0.1827 -0.1277
    3TYR    SC2  449   7.200   3.294   3.364 -0.3366 -0.1782 -0.2011
    3TYR    SC3  450   7.261   3.032   3.384 -0.0408 -0.1070 -0.0843
    1TYR     BB  451  -0.075   2.549   3.642 -0.3564  0.3132  0.0726
    1TYR    SC1  452   0.239   2.638   3.648 -0.0875 -0.1104 -0.1571
    1TYR    SC2  453   0.497   2.697   3.706 -0.2166  0.2485  0.0892
    1TYR    SC3  454   0.416   2.680   3.449  0.0496  0.1294  0.0099
    2GLU     BB  455  -0.039   2.282   3.640 -0.2563  0.2128  0.1180
    2GLU    SC1  456   0.188   2.176   3.329 -0.0271 -0.0223  0.0688
    3TYR     BB  457  -0.018   2.074   3.821  0.1422 -0.1359  0.1531
    3TYR    SC1  458  -0.023   2.102   4.152  0.2488 -0.2569 -0.1656
    3TYR    SC2  459   0.122   2.070   4.377  0.0256  0.1325  0.0486
    3TYR    SC3  460  -0.116   2.196   4.388  0.0952  0.3318 -0.4363
    1TYR     BB  461   7.553   4.612   3.618  0.0620  0.1817  0.1922
    1TYR    SC1  462   7.734   4.829   3.522  0.0722 -0.0912  0.2218
    1TYR    SC2  463   7.718   5.082   3.427  0.0913 -0.2166 -0.1335
    1TYR    SC3  464   7.954   4.952   3.422  0.1270 -0.1763  0.2379
    2GLU     BB  465   7.617   4.303   3.521 -0.1234  0.0682  0.0820
    2GLU    SC1  466   7.562   4.183   3.909  0.1396 -0.1505  0.1411
    3TYR     BB  467   7.550   4.100   3.335 -0.0822  0.1607 -0.1244
    3TYR    SC1  468   7.698   3.842   3.388 -0.3134 -0.1869  0.2864
    3TYR    SC2  469   7.910   3.687   3.323 -0.0902  0.1726  0.1169
    3TYR    SC3  470   7.695   3.578   3.446  0.0953 -0.2439  0.0921
    1TYR     BB  471   7.394   2.805   4.115  0.0008 -0.2401 -0.2149
    1TYR    SC1  472   7.179   2.846   3.914 -0.0168  0.4766  0.0245
    1TYR    SC2  473   7.035   3.039   3.792 -0.2922  0.2211 -0.0666
    1TYR    SC3  474   6.923   2.799   3.843  0.0611  0.0617 -0.0078
    2GLU     BB  475   7.568   2.622   4.064 -0.3726 -0.2610 -0.0014
    2GLU    SC1  476   7.777   2.620   4.421  0.0196  0.1001  0.0494
    3TYR     BB  477   7.749   2.465   3.908  0.3542 -0.0501 -0.0417
    3TYR    SC1  478   7.679   2.177   3.777 -0.1838  0.2307 -0.5007
    3TYR    SC2  479   7.695   1.907   3.779  0.0703  0.2290  0.0764
    3TYR    SC3  480   7.454   2.030   3.784 -0.0456  0.0179 -0.0991
    1TYR     BB  481   6.437   3.491   4.865 -0.0231  0.1954 -0.2097
    1TYR    SC1  482   6.512   3.796   4.998 -0.2704  0.4310  0.0463
    1TYR    SC2  483   6.652   3.880   5.213  0.4687  0.1358 -0.2751
    1TYR    SC3  484   6.598   4.052   5.012  0.0843  0.3225 -0.0293
    2GLU     BB  485   6.267   3.481   4.643 -0.4106 -0.0014 -0.0173
    2GLU    SC1  486   5.875   3.443   4.825 -0.0256 -0.0683  0.1592
    3TYR     BB  487   6.209   3.181   4.468 -0.1052 -0.2457  0.3871
    3TYR    SC1  488   6.009   3.220   4.174  0.1643  0.0182 -0.0886
    3TYR    SC2  489   6.041   3.083   3.943  0.1469 -0.3354  0.1107
    3TYR    SC3  490   5.825   3.242   3.978  0.2085 -0.1861 -0.1560
    1TYR     BB  491  -1.157   2.566   3.995 -0.2689 -0.3364 -0.1038
    1TYR    SC1  492  -1.468   2.469   3.945 -0.1577  0.1108 -0.1637
    1TYR    SC2  493  -1.637   2.263   3.983 -0.1293  0.1108 -0.0308
    1TYR    SC3  494  -1.578   2.342   3.733 -0.1948  0.0035 -0.0821
    2GLU     BB  495  -0.922   2.533   3.788 -0.1408 -0.1317  0.0036
    2GLU    SC1  496  -1.132   2.344   3.551  0.0252 -0.0857 -0.0440
    3TYR     BB  497  -0.692   2.720   3.657 -0.0500 -0.0892  0.0427
    3TYR    SC1  498  -0.775   2.780   3.375 -0.3028  0.0426  0.0873
    3TYR    SC2  499  -0.877   2.882   3.147 -0.0017 -0.0435 -0.0917
    3TYR    SC3  500  -0.889   2.617   3.193  0.1018 -0.0495 -0.0959
    1TYR     BB  501   1.641   4.231   4.275 -0.0729 -0.4428  0.1116
    1TYR    SC1  502   1.794   4.154   4.044 -0.0167 -0.2004  0.0762
    1TYR    SC2  503   2.055   4.185   3.982 -0.0214  0.0750  0.1735
    1TYR    SC3  504   1.896   4.034   3.824  0.0975  0.2703 -0.1473
    2GLU     BB  505   1.505   4.452   4.296 -0.0503 -0.0010  0.0699
    2GLU    SC1  506   1.390   4.501   4.633  0.2337  0.0527 -0.0637
    3TYR     BB  507   1.323   4.545   4.049 -0.0648 -0.0347 -0.1729
    3TYR    SC1  508   1.498   4.467   3.797 -0.0381 -0.0287 -0.0647
    3TYR    SC2  509   1.580   4.313   3.590  0.0531 -0.3008  0.1644
    3TYR    SC3  510   1.744   4.503   3.694 -0.0960  0.0368 -0.1832
    1TYR     BB  511   7.954   3.486   2.647 -0.2260  0.0326 -0.3160
    1TYR    SC1  512   8.161   3.566   2.821 -0.1578  0.2784  0.0096
    1TYR    SC2  513   8.241   3.536   3.077 -0.3243  0.0788  0.0419
    1TYR    SC3  514   8.305   3.761   2.941 -0.4336  0.2942  0.3336
    2GLU     BB  515   7.851   3.579   2.449 -0.1251  0.1056  0.1555
    2GLU    SC1  516   7.970   3.278   2.170 -0.4495  0.2251  0.1339
    3TYR     BB  517   7.627   3.785   2.385 -0.0629  0.1939 -0.1533
    3TYR    SC1  518   7.353   3.804   2.542 -0.1496  0.2770 -0.0417
    3TYR    SC2  519   7.148   3.649   2.627 -0.0525  0.1951  0.0458
    3TYR    SC3  520   7.156   3.911   2.693 -0.0817  0.1774  0.1195
    1TYR     BB  521   7.851   3.930   2.830  0.0933 -0.0662 -0.2638
    1TYR    SC1  522   7.618   3.786   2.930  0.2812 -0.3524  0.1192
    1TYR    SC2  523   7.374   3.721   3.024  0.1462  0.0285  0.0531
    1TYR    SC3  524   7.516   3.540   2.884 -0.0742 -0.2152  0.1327
    2GLU     BB  525   7.959   4.137   2.923  0.0127  0.0656 -0.0179
    2GLU    SC1  526   8.241   4.266   2.736 -0.0084 -0.3378 -0.0406
    3TYR     BB  527   7.917   4.361   3.088  0.1038 -0.2894 -0.0162
    3TYR    SC1  528   7.900   4.685   3.079  0.0170  0.0954  0.0155
    3TYR    SC2  529   7.857   4.935   2.986  0.1159  0.1121  0.0132
    3TYR    SC3  530   7.648   4.781   3.060  0.0331  0.0965 -0.2413
    1TYR     BB  531   4.414   3.855   3.721  0.2734  0.0017  0.0696
    1TYR    SC1  532   4.472   4.115   3.523  0.1697  0.3224 -0.0841
    1TYR    SC2  533   4.629   4.286   3.385  0.2141  0.2123 -0.1727
    1TYR    SC3  534   4.415   4.172   3.266  0.0748  0.3480 -0.0574
    2GLU     BB  535   4.167   3.928   3.843  0.4224 -0.0185 -0.0206
    2GLU    SC1  536   4.114   4.190   4.121  0.0556  0.2311 -0.0966
    3TYR     BB  537   3.948   3.694   3.936 -0.1127  0.0823 -0.1955
    3TYR    SC1  538   3.848   3.779   4.205  0.0639  0.0991  0.0786
    3TYR    SC2  539   3.728   3.678   4.425  0.1078  0.1193  0.1118
    3TYR    SC3  540   3.965   3.807   4.447  0.0660  0.2047  0.0657
    1TYR     BB  541   2.347   4.661   2.704  0.2014 -0.0218  0.0119
    1TYR    SC1  542   2.569   4.702   2.450 -0.0615  0.1535  0.1919
    1TYR    SC2  543   2.767   4.574   2.318 -0.1840  0.0760  0.0821
    1TYR    SC3  544   2.796   4.834   2.384 -0.2257  0.1973 -0.3402
    2GLU     BB  545   2.112   4.781   2.663 -0.0595 -0.0722  0.0845
    2GLU    SC1  546   2.290   5.089   2.461  0.0062 -0.3395 -0.1296
    3TYR     BB  547   1.917   4.665   2.475  0.1640 -0.2063 -0.2206
    3TYR    SC1  548   2.054   4.672   2.190 -0.1055  0.0069 -0.0092
    3TYR    SC2  549   2.171   4.479   2.042 -0.3832 -0.0967 -0.1006
    3TYR    SC3  550   2.249   4.736   2.014  0.3863 -0.2324  0.4147
    1TYR     BB  551   8.100   4.306   4.563 -0.1760  0.0174  0.3410
    1TYR    SC1  552   7.898   4.535   4.607 -0.2530 -0.3393  0.2356
    1TYR    SC2  553   7.741   4.744   4.538  0.2474 -0.0283 -0.0410
    1TYR    SC3  554   7.797   4.696   4.798  0.0362  0.1084  0.0331
    2GLU     BB  555   8.293   4.296   4.239  0.1485  0.2510 -0.1640
    2GLU    SC1  556   8.557   4.461   4.154  0.2972 -0.1912 -0.2064
    3TYR     BB  557   8.113   4.197   3.990 -0.1396 -0.2100  0.0724
    3TYR    SC1  558   8.023   3.905   3.984 -0.0256 -0.0970  0.2320
    3TYR    SC2  559   7.889   3.779   3.786 -0.1922  0.0209  0.2670
    3TYR    SC3  560   8.031   3.635   3.965  0.2471 -0.0728 -0.1309
    1TYR     BB  561   0.933   5.668   2.256 -0.3700 -0.1110 -0.1573
    1TYR    SC1  562   0.705   5.703   2.076  0.4492  0.0940 -0.3400
    1TYR    SC2  563   0.627   5.503   1.915  0.0293 -0.2830  0.2754
    1TYR    SC3  564   0.515   5.747   1.890 -0.1663 -0.3827  0.1189
    2GLU     BB  565   1.167   5.470   2.153 -0.2657 -0.2532  0.3145
    2GLU    SC1  566   1.012   5.238   1.906  0.1723  0.3235  0.2084
    3TYR     BB  567   1.336   5.152   2.317 -0.0072 -0.0023  0.0847
    3TYR    SC1  568   1.524   5.285   2.527  0.2660  0.0372 -0.2023
    3TYR    SC2  569   1.761   5.221   2.637  0.1869  0.0532 -0.0182
    3TYR    SC3  570   1.693   5.480   2.604  0.2125  0.0486 -0.1134
    1TYR     BB  571   6.404   4.629   4.369  0.0471  0.1727 -0.0887
    1TYR    SC1  572   6.294   4.844   4.210  0.0437 -0.1585  0.1119
    1TYR    SC2  573   6.324   5.014   4.002  0.0822 -0.4229 -0.1067
    1TYR    SC3  574   6.077   4.953   4.093  0.0748 -0.0814  0.1256
    2GLU     BB  575   6.284   4.394   4.353  0.1163 -0.0487  0.3008
    2GLU    SC1  576   6.230   4.356   4.739 -0.0054  0.1736  0.1436
    3TYR     BB  577   6.143   4.157   4.181 -0.3192  0.0156  0.0840
    3TYR    SC1  578   6.227   3.911   4.218 -0.2030  0.0282 -0.1471
    3TYR    SC2  579   6.407   3.714   4.179 -0.1231  0.0176  0.2255
    3TYR    SC3  580   6.142   3.661   4.167 -0.1040 -0.0480  0.0503
    1TYR     BB  581   7.604   2.725   3.073  0.0648  0.0769 -0.3658
    1TYR    SC1  582   7.306   2.713   3.055 -0.1140 -0.0106  0.2911
    1TYR    SC2  583   7.039   2.690   3.081 -0.1820 -0.0068 -0.2742
    1TYR    SC3  584   7.159   2.620   2.849  0.3108  0.0020 -0.0355
    2GLU     BB  585   7.713   2.555   2.858  0.0089  0.0685  0.0570
    2GLU    SC1  586   7.904   2.570   2.527 -0.0907 -0.0440  0.2405
    3TYR     BB  587   7.473   2.209   2.914 -0.0028 -0.3078  0.3800
    3TYR    SC1  588   7.298   2.247   2.641 -0.0178  0.0431 -0.0039
    3TYR    SC2  589   7.160   2.251   2.409  0.0545 -0.0646 -0.0501
    3TYR    SC3  590   7.332   2.451   2.467 -0.0623  0.0310 -0.0271
    1TYR     BB  591   8.330   3.560   3.577 -0.1220 -0.0145 -0.0985
    1TYR    SC1  592   8.432   3.816   3.760 -0.0380 -0.2284  0.1255
    1TYR    SC2  593   8.536   4.064   3.788 -0.2965 -0.0809 -0.1503
    1TYR    SC3  594   8.501   3.907   4.005 -0.0727  0.0965  0.0200
    2GLU     BB  595   8.660   3.446   3.441  0.0883 -0.1224 -0.1224
    2GLU    SC1  596   8.990   3.245   3.603 -0.0691 -0.3589  0.1418
    3TYR     BB  597   8.792   3.486   3.153 -0.0994  0.0541 -0.2588
    3TYR    SC1  598   9.039   3.675   3.194  0.1384  0.2146 -0.0772
    3TYR    SC2  599   9.110   3.934   3.226  0.1401  0.2357 -0.2456
    3TYR    SC3  600   9.255   3.740   3.343  0.0731  0.3160 -0.0247
    1TYR     BB  601   2.571   5.009   3.637  0.1948 -0.0569 -0.0174
    1TYR    SC1  602   2.283   5.101   3.594 -0.2954 -0.2647 -0.1323
    1TYR    SC2  603   2.035   5.196   3.645 -0.2095  0.0118 -0.2088
    1TYR    SC3  604   2.130   5.191   3.392 -0.1396 -0.1010 -0.1814
    2GLU     BB  605   2.615   4.778   3.407  0.2612  0.0721  0.0829
    2GLU    SC1  606   2.999   4.781   3.479  0.2683  0.0041  0.0953
    3TYR     BB  607   2.459   4.632   3.225  0.1525  0.1528 -0.1173
    3TYR    SC1  608   2.173   4.750   3.177  0.0548 -0.0552  0.4791
    3TYR    SC2  609   1.940   4.874   3.116  0.1068 -0.0882  0.1946
    3TYR    SC3  610   1.960   4.728   3.343 -0.0894  0.0639  0.3148
    1TYR     BB  611   8.795   4.842   4.530  0.1886 -0.0837  0.0087
    1TYR    SC1  612   8.622   5.118   4.549  0.2905 -0.1273  0.2091
    1TYR    SC2  613   8.684   5.363   4.644 -0.3867  0.0514  0.2590
    1TYR    SC3  614   8.426   5.296   4.601 -0.2138 -0.6152  0.1063
    2GLU     BB  615   8.586   4.621   4.663 -0.4181 -0.0406 -0.0453
    2GLU    SC1  616   8.909   4.451   4.873 -0.0206  0.2776 -0.0265
    3TYR     BB  617   8.327   4.694   4.771 -0.0548 -0.1794  0.1292
    3TYR    SC1  618   8.177   4.895   4.585  0.0314 -0.2658  0.3269
    3TYR    SC2  619   8.057   5.054   4.404 -0.1729  0.1205  0.7752
    3TYR    SC3  620   8.123   4.801   4.338 -0.4216  0.1785  0.2382
    1TYR     BB  621   7.146   3.804   2.058  0.0685  0.2785 -0.0987
    1TYR    SC1  622   6.897   3.868   2.235 -0.4460 -0.1280 -0.4815
    1TYR    SC2  623   6.738   3.744   2.414  0.2305 -0.0341  0.2576
    1TYR    SC3  624   6.733   4.013   2.393 -0.0030 -0.0553 -0.0582
    2GLU     BB  625   7.245   4.079   1.920 -0.0755 -0.1284 -0.0243
    2GLU    SC1  626   7.245   3.910   1.590 -0.2068 -0.0390 -0.0163
    3TYR     BB  627   7.516   4.250   1.884 -0.1787 -0.1562 -0.0523
    3TYR    SC1  628   7.388   4.524   2.043  0.0083 -0.2407  0.1991
    3TYR    SC2  629   7.384   4.655   2.278  0.1765  0.1675 -0.0114
    3TYR    SC3  630   7.195   4.705   2.093  0.1274 -0.0438 -0.0208
    1TYR     BB  631   0.666   2.753   4.171 -0.0371  0.2484 -0.0427
    1TYR    SC1  632   0.775   2.999   4.068 -0.0809 -0.1181 -0.3000
    1TYR    SC2  633   0.767   3.258   3.991  0.1566  0.0727  0.2522
    1TYR    SC3  634   0.862   3.070   3.823 -0.3246  0.2738 -0.2843
    2GLU     BB  635   0.713   2.616   4.402  0.0658  0.2909  0.0932
    2GLU    SC1  636   0.819   2.224   4.270  0.1009  0.0453 -0.1531
    3TYR     BB  637   0.939   2.614   4.594  0.1151 -0.2390 -0.1099
    3TYR    SC1  638   1.221   2.422   4.521  0.1130 -0.0515 -0.2023
    3TYR    SC2  639   1.433   2.349   4.371  0.2080 -0.0928 -0.0492
    3TYR    SC3  640   1.322   2.173   4.543  0.1720 -0.0099  0.0127
    1TYR     BB  641   2.783   4.907   2.916  0.0174 -0.0892  0.3696
    1TYR    SC1  642   2.531   5.027   2.941 -0.1292 -0.0938  0.0288
    1TYR    SC2  643   2.473   5.188   3.149  0.0416  0.0116 -0.0035
    1TYR    SC3  644   2.292   5.154   2.951  0.0647  0.2979 -0.0799
    2GLU     BB  645   2.867   4.562   2.955  0.0842 -0.1344  0.0279
    2GLU    SC1  646   3.164   4.550   2.705  0.1555  0.0222 -0.3499
    3TYR     BB  647   2.715   4.323   2.792  0.3523 -0.0792 -0.1626
    3TYR    SC1  648   2.565   4.136   2.978  0.3709  0.1530  0.3320
    3TYR    SC2  649   2.475   4.182   3.229 -0.1927 -0.0326  0.1818
    3TYR    SC3  650   2.351   4.001   3.072 -0.1546  0.4049 -0.3953
    1TYR     BB  651   3.545   4.080   3.523  0.2273  0.1736  0.1404
    1TYR    SC1  652   3.500   3.862   3.364  0.0654  0.0296 -0.2174
    1TYR    SC2  653   3.618   3.671   3.214  0.0914 -0.1712  0.0477
    1TYR    SC3  654   3.348   3.682   3.231  0.0854 -0.0971 -0.0721
    2GLU     BB  655   3.660   4.063   3.803  0.0682 -0.1601 -0.1390
    2GLU    SC1  656   3.725   4.441   3.954 -0.0377 -0.0656 -0.2562
    3TYR     BB  657   3.391   3.941   3.981  0.0171  0.0317 -0.1345
    3TYR    SC1  658   3.184   3.811   3.806 -0.4579  0.4522  0.0488
    3TYR    SC2  659   2.938   3.739   3.719 -0.2061 -0.0821 -0.2922
    3TYR    SC3  660   3.154   3.595   3.645  0.1592  0.0281  0.4471
    1TYR     BB  661  -1.077   3.077   4.407 -0.0849  0.3344 -0.1033
    1TYR    SC1  662  -0.978   2.955   4.654 -0.1129  0.2955  0.4427
    1TYR    SC2  663  -0.996   2.691   4.710  0.0905  0.0890 -0.3120
    1TYR    SC3  664  -0.757   2.817   4.724 -0.0255  0.2847  0.1626
    2GLU     BB  665  -1.127   3.381   4.418 -0.3789  0.2578  0.0203
    2GLU    SC1  666  -1.424   3.306   4.697 -0.0088  0.3038 -0.5168
    3TYR     BB  667  -1.267   3.695   4.441 -0.0184 -0.2155  0.0115
    3TYR    SC1  668  -1.145   3.948   4.346  0.1492 -0.2093  0.0500
    3TYR    SC2  669  -1.057   4.022   4.101  0.0922 -0.1601  0.0438
    3TYR    SC3  670  -0.952   4.135   4.323  0.2654 -0.3280  0.0507
    1TYR     BB  671   1.644   3.022   3.290 -0.0653  0.0537  0.0538
    1TYR    SC1  672   1.911   2.875   3.186  0.0118 -0.0224  0.1196
    1TYR    SC2  673   2.096   2.745   3.037  0.1586  0.0273  0.2562
    1TYR    SC3  674   1.919   2.605   3.186  0.0314 -0.0220  0.0633
    2GLU     BB  675   1.440   2.807   3.385 -0.0190 -0.3141 -0.2082
    2GLU    SC1  676   1.272   2.587   3.098  0.3509  0.0587  0.0499
    3TYR     BB  677   1.419   2.579   3.606  0.1681 -0.1595  0.1508
    3TYR    SC1  678   1.635   2.390   3.621  0.1114  0.2488  0.2554
    3TYR    SC2  679   1.891   2.315   3.666  0.0732  0.0192  0.1041
    3TYR    SC3  680   1.694   2.129   3.653 -0.0426  0.1535 -0.1562
    1TYR     BB  681   1.766   3.358   2.377  0.3131  0.0742  0.4422
    1TYR    SC1  682   1.573   3.234   2.096 -0.1541  0.2189 -0.0683
    1TYR    SC2  683   1.581   3.053   1.895  0.0938 -0.0478  0.1717
    1TYR    SC3  684   1.425   3.272   1.873  0.0800 -0.0931 -0.2878
    2GLU     BB  685   1.635   3.532   2.529 -0.0561 -0.1284  0.0305
    2GLU    SC1  686   1.404   3.672   2.261 -0.2813 -0.1899 -0.1568
    3TYR     BB  687   1.664   3.806   2.691  0.0752  0.0342  0.2106
    3TYR    SC1  688   1.837   3.981   2.476  0.0020 -0.0049  0.2323
    3TYR    SC2  689   1.974   4.197   2.387  0.0267 -0.0401  0.1842
    3TYR    SC3  690   1.742   4.125   2.268 -0.1347  0.1318  0.3862
    1TYR     BB  691  -0.403   5.077   3.602 -0.1300 -0.2253  0.3101
    1TYR    SC1  692  -0.653   4.936   3.499  0.2800  0.0513 -0.1326
    1TYR    SC2  693  -0.904   4.921   3.397  0.0664  0.1279  0.3448
    1TYR    SC3  694  -0.750   4.699   3.408  0.0160  0.0745  0.0709
    2GLU     BB  695  -0.470   5.160   3.871  0.0850  0.0114  0.1828
    2GLU    SC1  696  -0.797   5.340   3.700  0.0001  0.1580  0.0637
    3TYR     BB  697  -0.425   5.006   4.146  0.0350 -0.2429 -0.0020
    3TYR    SC1  698  -0.323   5.181   4.381  0.2417  0.0474 -0.0769
    3TYR    SC2  699  -0.422   5.309   4.598  0.1451 -0.1072 -0.0285
    3TYR    SC3  700  -0.182   5.382   4.496  0.2200 -0.0721  0.1670
    1TYR     BB  701   7.659   2.848   3.603 -0.2988  0.0108 -0.0329
    1TYR    SC1  702   7.417   2.567   3.564  0.0595 -0.0805  0.0125
    1TYR    SC2  703   7.160   2.534   3.487  0.0893  0.0151 -0.1317
    1TYR    SC3  704   7.342   2.340   3.439  0.1370  0.1272 -0.4358
    2GLU     BB  705   7.632   3.042   3.696  0.2237  0.1360  0.0672
    2GLU    SC1  706   7.996   3.159   3.731 -0.0883  0.3149 -0.0104
    3TYR     BB  707   7.527   3.310   3.756  0.4386  0.2719 -0.4878
    3TYR    SC1  708   7.288   3.398   3.928 -0.0971 -0.1242  0.1428
    3TYR    SC2  709   7.042   3.413   4.038  0.0039  0.1491  0.3478
    3TYR    SC3  710   7.256   3.356   4.193  0.0797 -0.0465  0.1786
    1TYR     BB  711   7.240   4.816   2.761  0.0699 -0.2221  0.1258
    1TYR    SC1  712   7.247   4.988   3.053  0.1048 -0.1098 -0.3090
    1TYR    SC2  713   7.257   4.945   3.320 -0.1879  0.1771 -0.2438
    1TYR    SC3  714   7.355   5.174   3.217  0.1916 -0.0555 -0.4267
    2GLU     BB  715   7.053   4.870   2.608 -0.0228 -0.1271 -0.1328
    2GLU    SC1  716   7.162   5.147   2.351 -0.0527 -0.1235 -0.0337
    3TYR     BB  717   6.812   4.838   2.540  0.1105 -0.1165  0.3948
    3TYR    SC1  718   6.559   4.898   2.666 -0.2187  0.1027 -0.4331
    3TYR    SC2  719   6.392   5.105   2.715 -0.3205 -0.1334  0.4368
    3TYR    SC3  720   6.308   4.852   2.753  0.0195 -0.3079  0.1171
    1TYR     BB  721   0.940   2.531   3.840 -0.3373  0.2417 -0.0343
    1TYR    SC1  722   1.129   2.698   3.991  0.4420 -0.3925 -0.1059
    1TYR    SC2  723   1.231   2.797   4.219 -0.2816  0.2159  0.0011
    1TYR    SC3  724   1.273   2.926   3.985 -0.4508  0.2435 -0.0164
    2GLU     BB  725   0.930   2.621   3.513  0.0032  0.5083  0.2789
    2GLU    SC1  726   0.753   2.261   3.319 -0.1592  0.3361  0.0635
    3TYR     BB  727   0.881   2.876   3.382 -0.0613  0.3250 -0.4052
    3TYR    SC1  728   0.970   3.015   3.160  0.0253 -0.1190 -0.0692
    3TYR    SC2  729   1.131   3.005   2.944 -0.1821 -0.3111 -0.2209
    3TYR    SC3  730   0.931   3.187   2.956  0.2336  0.1565  0.1149
    1TYR     BB  731   3.531   3.801   2.744  0.0324  0.0484 -0.1832
    1TYR    SC1  732   3.377   3.565   2.792  0.3165 -0.2101 -0.0634
    1TYR    SC2  733   3.280   3.319   2.842 -0.0035 -0.0459  0.1776
    1TYR    SC3  734   3.134   3.494   2.698  0.1133  0.0800  0.2102
    2GLU     BB  735   3.839   3.749   2.786 -0.3697  0.1118  0.3858
    2GLU    SC1  736   3.878   3.962   2.424 -0.1494 -0.0533  0.0881
    3TYR     BB  737   3.949   3.455   2.868  0.1345 -0.0077  0.2021
    3TYR    SC1  738   3.743   3.220   2.976  0.2302 -0.0270 -0.0783
    3TYR    SC2  739   3.553   3.224   3.168 -0.0464  0.1899 -0.3438
    3TYR    SC3  740   3.710   3.007   3.139 -0.0376  0.1278  0.0807
    1TYR     BB  741   5.922   2.691   3.705  0.1730 -0.2043  0.1588
    1TYR    SC1  742   6.208   2.769   3.671 -0.1512  0.1781  0.1256
    1TYR    SC2  743   6.432   2.843   3.799 -0.1791  0.1235  0.2060
    1TYR    SC3  744   6.356   2.974   3.577  0.1735 -0.1367 -0.0836
    2GLU     BB  745   5.814   2.534   3.455 -0.0314  0.1641  0.1526
    2GLU    SC1  746   6.106   2.286   3.377 -0.2822 -0.1069 -0.0987
    3TYR     BB  747   5.821   2.728   3.147  0.0596  0.0241 -0.0869
    3TYR    SC1  748   5.570   2.879   3.226  0.0861  0.2552  0.3250
    3TYR    SC2  749   5.359   3.006   3.115  0.1226 -0.1679 -0.2875
    3TYR    SC3  750   5.319   2.832   3.318 -0.0898 -0.1014 -0.2688
    1TYR     BB  751   6.922   4.759   3.571  0.1051 -0.1677 -0.0017
    1TYR    SC1  752   6.675   4.916   3.539  0.1163  0.2605  0.1273
    1TYR    SC2  753   6.444   4.952   3.405  0.1218  0.0453  0.0540
    1TYR    SC3  754   6.501   5.106   3.618  0.0066  0.2376 -0.0496
    2GLU     BB  755   7.058   4.734   3.804  0.2403 -0.2423  0.1193
    2GLU    SC1  756   6.800   4.895   4.089 -0.0414  0.1918  0.4516
    3TYR     BB  757   7.232   4.589   4.008  0.0073 -0.1713  0.0731
    3TYR    SC1  758   7.097   4.518   4.232  0.0686 -0.0034  0.3862
    3TYR    SC2  759   6.990   4.662   4.433 -0.3019  0.3048 -0.0054
    3TYR    SC3  760   6.868   4.435   4.351 -0.1657  0.1938  0.0929
    1TYR     BB  761   1.357   5.608   3.922  0.0577  0.0431 -0.2426
    1TYR    SC1  762   1.220   5.834   3.808  0.0984  0.0378 -0.1727
    1TYR    SC2  763   1.275   6.097   3.821  0.0962  0.0359 -0.1206
    1TYR    SC3  764   1.018   6.012   3.823  0.0981  0.0135  0.3360
    2GLU     BB  765   1.375   5.541   4.273 -0.1090 -0.0299 -0.1716
    2GLU    SC1  766   1.626   5.850   4.275  0.0833  0.0925 -0.2702
    3TYR     BB  767   1.229   5.405   4.496 -0.0976 -0.1037 -0.0221
    3TYR    SC1  768   0.961   5.514   4.616 -0.1407  0.2473 -0.1841
    3TYR    SC2  769   0.695   5.554   4.600 -0.1032  0.4757 -0.2861
    3TYR    SC3  770   0.853   5.742   4.711  0.0008  0.2730 -0.0819
    1TYR     BB  771   1.206   4.847   2.746 -0.0420 -0.0835  0.2620
    1TYR    SC1  772   1.087   4.853   3.023  0.1862 -0.1303  0.1427
    1TYR    SC2  773   1.022   4.722   3.249 -0.2786 -0.0984  0.0407
    1TYR    SC3  774   0.935   4.974   3.210  0.1806  0.0695  0.0126
    2GLU     BB  775   1.478   4.669   2.690 -0.2500  0.0633  0.0221
    2GLU    SC1  776   1.502   4.617   2.271 -0.0970 -0.0242  0.1996
    3TYR     BB  777   1.608   4.372   2.733 -0.2301  0.1899 -0.1893
    3TYR    SC1  778   1.891   4.257   2.819  0.0129 -0.1301 -0.0590
    3TYR    SC2  779   2.155   4.230   2.769  0.0279  0.1683 -0.1680
    3TYR    SC3  780   2.072   4.335   3.004 -0.0107 -0.2374  0.0108
    1TYR     BB  781   7.209   5.681   4.716 -0.2449 -0.2226 -0.2376
    1TYR    SC1  782   7.072   5.570   4.440  0.0509  0.2804 -0.1692
    1TYR    SC2  783   6.894   5.419   4.303 -0.0926 -0.0156  0.3131
    1TYR    SC3  784   7.008   5.635   4.185  0.0103 -0.3982 -0.3553
    2GLU     BB  785   7.525   5.499   4.712 -0.1432 -0.3404 -0.0167
    2GLU    SC1  786   7.711   5.764   4.445  0.1465  0.0223 -0.3220
    3TYR     BB  787   7.610   5.165   4.719 -0.0494 -0.0734  0.0495
    3TYR    SC1  788   7.410   5.095   4.486  0.1804  0.1877  0.0417
    3TYR    SC2  789   7.354   4.896   4.312 -0.0804 -0.1615  0.4941
    3TYR    SC3  790   7.188   5.109   4.332  0.1629  0.0856  0.0562
    1TYR     BB  791   6.793   4.691   3.113 -0.2502 -0.2626  0.3057
    1TYR    SC1  792   6.765   4.994   3.084 -0.4130 -0.2514  0.1178
    1TYR    SC2  793   6.761   5.257   3.022 -0.3557 -0.3430 -0.3190
    1TYR    SC3  794   6.855   5.176   3.261 -0.1136  0.0147 -0.2835
    2GLU     BB  795   6.766   4.474   2.907  0.0434  0.1504  0.0239
    2GLU    SC1  796   6.383   4.433   2.936  0.2867  0.4279  0.2687
    3TYR     BB  797   6.934   4.330   2.850 -0.0992  0.1322  0.1711
    3TYR    SC1  798   7.122   4.344   2.593  0.2289  0.0509 -0.0040
    3TYR    SC2  799   7.286   4.223   2.417 -0.0398 -0.1480 -0.1274
    3TYR    SC3  800   7.059   4.342   2.331  0.0304  0.1198  0.0403
    1TYR     BB  801   0.171   3.123   3.480 -0.1345  0.1598 -0.0757
    1TYR    SC1  802   0.289   3.069   3.799 -0.0128 -0.0607  0.0574
    1TYR    SC2  803   0.315   3.162   4.052 -0.2230 -0.1447  0.1133
    1TYR    SC3  804   0.212   2.916   4.009 -0.2647 -0.0985 -0.0579
    2GLU     BB  805   0.319   3.309   3.358  0.1057 -0.1660  0.1377
    2GLU    SC1  806   0.435   3.088   3.039 -0.2226 -0.0923 -0.0791
    3TYR     BB  807   0.621   3.313   3.444  0.3180 -0.2007 -0.0496
    3TYR    SC1  808   0.740   3.499   3.271 -0.0880 -0.0766 -0.0010
    3TYR    SC2  809   0.682   3.624   3.039  0.0039 -0.2216 -0.1037
    3TYR    SC3  810   0.939   3.588   3.112 -0.0247 -0.1330  0.0462
    1TYR     BB  811   4.799   3.111   2.913 -0.1303 -0.0829  0.1932
    1TYR    SC1  812   5.013   2.874   2.837  0.1046 -0.0119  0.1640
    1TYR    SC2  813   5.178   2.688   2.729 -0.4260 -0.0308 -0.7495
    1TYR    SC3  814   4.946   2.613   2.845 -0.1807  0.0414 -0.1666
    2GLU     BB  815   4.506   2.930   2.869 -0.1960 -0.1210 -0.1551
    2GLU    SC1  816   4.590   2.792   2.517 -0.1447 -0.2121 -0.1326
    3TYR     BB  817   4.239   3.064   3.144  0.0678  0.2730  0.0500
    3TYR    SC1  818   4.428   3.289   3.259 -0.1293 -0.0384 -0.0401
    3TYR    SC2  819   4.474   3.484   3.441 -0.0780  0.1941 -0.2926
    3TYR    SC3  820   4.657   3.289   3.403 -0.1358  0.0811 -0.0277
    1TYR     BB  821   2.713   3.213   2.903 -0.1154 -0.0851 -0.1072
    1TYR    SC1  822   2.875   3.284   3.116 -0.2122 -0.4360  0.2406
    1TYR    SC2  823   2.876   3.320   3.383  0.2461 -0.2918  0.2323
    1TYR    SC3  824   3.103   3.356   3.243 -0.0967  0.1856 -0.2519
    2GLU     BB  825   2.622   3.494   2.651  0.2048  0.2544 -0.1836
    2GLU    SC1  826   2.608   3.164   2.390 -0.4075 -0.2626  0.2053
    3TYR     BB  827   2.644   3.822   2.657 -0.2003  0.1611  0.1363
    3TYR    SC1  828   2.456   4.012   2.487 -0.4085 -0.2850 -0.1543
    3TYR    SC2  829   2.551   4.069   2.240 -0.0955  0.0618  0.0365
    3TYR    SC3  830   2.456   4.267   2.399  0.1390 -0.0795  0.3664
    1TYR     BB  831   2.610   4.168   4.675 -0.0404 -0.0832 -0.1668
    1TYR    SC1  832   2.815   4.273   4.819 -0.0009 -0.0933  0.2754
    1TYR    SC2  833   3.082   4.301   4.851  0.0177 -0.0770  0.1198
    1TYR    SC3  834   2.913   4.485   4.956  0.0954  0.1844 -0.1944
    2GLU     BB  835   2.614   4.280   4.390  0.3889 -0.1553  0.2005
    2GLU    SC1  836   2.630   4.660   4.514  0.1097  0.0782  0.3091
    3TYR     BB  837   2.442   4.361   4.180 -0.0910  0.1671  0.0916
    3TYR    SC1  838   2.579   4.289   3.919 -0.0969  0.0630 -0.0515
    3TYR    SC2  839   2.623   4.331   3.656  0.1338 -0.1461 -0.0522
    3TYR    SC3  840   2.619   4.079   3.753 -0.4786 -0.1122  0.0633
    1TYR     BB  841   2.264   4.653   3.738  0.0075  0.2479  0.0870
    1TYR    SC1  842   2.200   4.392   3.587 -0.2050  0.1311 -0.1157
    1TYR    SC2  843   2.227   4.123   3.579 -0.4318  0.0678  0.5276
    1TYR    SC3  844   2.013   4.241   3.463 -0.3378 -0.0216  0.2534
    2GLU     BB  845   2.157   4.724   3.957  0.1180  0.0355  0.2989
    2GLU    SC1  846   2.374   4.965   4.176  0.0847 -0.0808  0.1199
    3TYR     BB  847   1.896   4.842   4.098  0.2373  0.1722  0.1116
    3TYR    SC1  848   1.728   4.946   3.901 -0.0587 -0.3133  0.1454
    3TYR    SC2  849   1.608   4.933   3.660  0.0514 -0.3088  0.0901
    3TYR    SC3  850   1.543   5.131   3.831  0.2887 -0.0480 -0.1107
    1TYR     BB  851   6.300   2.075   4.350 -0.3208  0.2290  0.2670
    1TYR    SC1  852   6.627   1.988   4.415  0.1027 -0.1593 -0.2089
    1TYR    SC2  853   6.796   1.778   4.419  0.1711 -0.1090  0.2345
    1TYR    SC3  854   6.892   2.030   4.438  0.0696 -0.0529  0.0351
    2GLU     BB  855   6.369   2.216   4.087  0.0612 -0.2161 -0.3489
    2GLU    SC1  856   6.054   2.246   3.894 -0.0301  0.1183 -0.1215
    3TYR     BB  857   6.591   2.424   3.990  0.1011 -0.0999 -0.0733
    3TYR    SC1  858   6.902   2.343   3.962 -0.0163 -0.1761 -0.5646
    3TYR    SC2  859   7.096   2.189   4.070 -0.0732  0.0631 -0.0935
    3TYR    SC3  860   7.161   2.394   3.907  0.0583  0.0398 -0.0712
    1TYR     BB  861  -0.562   2.261   3.486  0.3693 -0.0797  0.1312
    1TYR    SC1  862  -0.460   2.492   3.316 -0.1483 -0.0385  0.1690
    1TYR    SC2  863  -0.234   2.545   3.178 -0.1228 -0.2751  0.1149
    1TYR    SC3  864  -0.474   2.598   3.068 -0.0966 -0.0653  0.1542
    2GLU     BB  865  -0.548   2.165   3.820  0.0735 -0.5276  0.0041
    2GLU    SC1  866  -0.391   1.795   3.851  0.1728  0.1399  0.1112
    3TYR     BB  867  -0.391   2.421   3.997  0.2337 -0.2283  0.3604
    3TYR    SC1  868  -0.586   2.516   4.202  0.1764  0.2647 -0.2440
    3TYR    SC2  869  -0.792   2.671   4.280  0.0929  0.0463 -0.0182
    3TYR    SC3  870  -0.743   2.437   4.406  0.2722 -0.0696 -0.2925
    1TYR     BB  871   0.123   4.981   4.287  0.2102 -0.2516  0.0403
    1TYR    SC1  872   0.241   5.280   4.242 -0.4530  0.1848  0.0644
    1TYR    SC2  873   0.337   5.497   4.371  0.1178 -0.0944  0.1454
    1TYR    SC3  874   0.497   5.357   4.204 -0.3325 -0.2803 -0.1505
    2GLU     BB  875   0.182   4.718   4.440 -0.0487 -0.0785  0.2073
    2GLU    SC1  876  -0.166   4.677   4.591  0.2294  0.2874 -0.2643
    3TYR     BB  877   0.401   4.480   4.463 -0.3440  0.0260  0.4320
    3TYR    SC1  878   0.265   4.344   4.740 -0.0081 -0.1286 -0.0357
    3TYR    SC2  879   0.199   4.137   4.899 -0.3225 -0.0908 -0.1071
    3TYR    SC3  880   0.137   4.388   4.974  0.2169  0.0091  0.0657
    1TYR     BB  881   1.608   5.441   3.458  0.0109 -0.0545  0.0227
    1TYR    SC1  882   1.313   5.414   3.429  0.0044 -0.3612  0.1441
    1TYR    SC2  883   1.073   5.467   3.541  0.0484 -0.1421  0.1400
    1TYR    SC3  884   1.090   5.406   3.279  0.0033 -0.0956  0.1262
    2GLU     BB  885   1.736   5.713   3.463  0.1217 -0.0921 -0.2358
    2GLU    SC1  886   1.646   6.090   3.376 -0.2540 -0.0009 -0.1784
    3TYR     BB  887   1.876   5.795   3.784  0.0494  0.0978  0.0633
    3TYR    SC1  888   1.949   5.522   3.962 -0.1361  0.1448  0.0682
    3TYR    SC2  889   2.077   5.412   4.172 -0.3019 -0.2952 -0.0446
    3TYR    SC3  890   1.807   5.401   4.158 -0.3723  0.4819  0.1165
    1TYR     BB  891   0.267   2.836   4.472 -0.0970 -0.0673  0.0659
    1TYR    SC1  892   0.208   2.557   4.339 -0.0118  0.0944  0.1357
    1TYR    SC2  893   0.056   2.526   4.118  0.0431  0.1395  0.0909
    1TYR    SC3  894   0.293   2.399   4.137 -0.0189  0.0350  0.1790
    2GLU     BB  895  -0.028   2.964   4.504  0.0256 -0.1868 -0.0544
    2GLU    SC1  896   0.073   3.296   4.439  0.3083  0.1553 -0.0656
    3TYR     BB  897  -0.288   2.800   4.506 -0.1634  0.1265 -0.2980
    3TYR    SC1  898  -0.301   2.533   4.677 -0.1950 -0.0310  0.5034
    3TYR    SC2  899  -0.261   2.311   4.824 -0.2373 -0.0675  0.4606
    3TYR    SC3  900  -0.507   2.422   4.813 -0.2825 -0.1820  0.2573
    1TYR     BB  901  -1.421   3.236   3.848 -0.0385  0.0349  0.1239
    1TYR    SC1  902  -1.321   2.984   3.725 -0.0634  0.2441 -0.2904
    1TYR    SC2  903  -1.450   2.766   3.630  0.0209 -0.0634  0.2559
    1TYR    SC3  904  -1.214   2.841   3.522 -0.1853 -0.0059 -0.1836
    2GLU     BB  905  -1.237   3.511   3.941 -0.4482 -0.0124 -0.0041
    2GLU    SC1  906  -1.404   3.882   3.810  0.0827 -0.0035 -0.0767
    3TYR     BB  907  -0.888   3.593   4.034  0.3945  0.0433 -0.0547
    3TYR    SC1  908  -0.785   3.296   4.046 -0.1904 -0.0387 -0.1638
    3TYR    SC2  909  -0.897   3.059   3.979 -0.0491 -0.1459 -0.0332
    3TYR    SC3  910  -0.632   3.074   4.023 -0.0898 -0.0109  0.1799
    1TYR     BB  911   0.914   3.653   3.737 -0.4013 -0.4305  0.3606
    1TYR    SC1  912   0.801   3.862   3.540 -0.2971 -0.1268 -0.0295
    1TYR    SC2  913   0.673   4.100   3.533 -0.0343  0.0184 -0.0580
    1TYR    SC3  914   0.760   3.987   3.304 -0.2144 -0.1411 -0.0513
    2GLU     BB  915   1.145   3.614   3.846 -0.1554 -0.0750  0.2988
    2GLU    SC1  916   1.354   3.969   3.941 -0.1432  0.0880 -0.0101
    3TYR     BB  917   1.318   3.484   4.044  0.0668  0.2346 -0.0671
    3TYR    SC1  918   1.412   3.560   4.315 -0.1227  0.2575 -0.1092
    3TYR    SC2  919   1.506   3.785   4.429 -0.2785  0.1709  0.2045
    3TYR    SC3  920   1.470   3.563   4.579 -0.2431 -0.0286 -0.0742
    1TYR     BB  921   6.924   3.612   4.955 -0.2798 -0.0953  0.0135
    1TYR    SC1  922   7.027   3.287   4.975  0.1089  0.0052 -0.1336
    1TYR    SC2  923   7.053   3.081   5.148  0.0051  0.1069  0.0059
    1TYR    SC3  924   7.086   3.040   4.883  0.1023 -0.0635  0.0426
    2GLU     BB  925   7.067   3.836   4.911 -0.2802 -0.1842 -0.0502
    2GLU    SC1  926   7.119   3.893   5.281 -0.2346 -0.0059  0.0385
    3TYR     BB  927   7.024   4.089   4.742  0.0223  0.0412  0.2938
    3TYR    SC1  928   6.776   4.037   4.592 -0.1491 -0.3166  0.3088
    3TYR    SC2  929   6.670   4.017   4.345 -0.0201 -0.1328  0.2352
    3TYR    SC3  930   6.534   3.923   4.558  0.0114 -0.6024  0.0636
    1TYR     BB  931   1.922   3.386   3.173 -0.1293 -0.0616  0.0589
    1TYR    SC1  932   2.038   3.411   3.457 -0.0768 -0.0876  0.0378
    1TYR    SC2  933   2.155   3.622   3.579  0.5157 -0.1821 -0.3137
    1TYR    SC3  934   2.099   3.399   3.719  0.2505  0.0542 -0.0237
    2GLU     BB  935   2.006   3.483   2.900 -0.1690 -0.0375 -0.1305
    2GLU    SC1  936   2.234   3.187   2.806 -0.3432  0.0767 -0.0479
    3TYR     BB  937   2.150   3.681   2.743 -0.0276 -0.1212  0.2638
    3TYR    SC1  938   2.175   3.574   2.449 -0.1115 -0.1154  0.0402
    3TYR    SC2  939   2.247   3.411   2.247 -0.2817  0.1893 -0.2783
    3TYR    SC3  940   2.288   3.678   2.228 -0.0122  0.1989  0.2291
    1TYR     BB  941   0.558   3.777   4.873 -0.2446  0.0965  0.3396
    1TYR    SC1  942   0.508   3.891   4.589  0.2596 -0.1651  0.1066
    1TYR    SC2  943   0.557   3.989   4.342  0.0239  0.1106  0.1611
    1TYR    SC3  944   0.369   3.798   4.377  0.1090  0.0182  0.1209
    2GLU     BB  945   0.737   3.517   4.934  0.3096  0.0527 -0.0973
    2GLU    SC1  946   0.606   3.470   5.243 -0.0400  0.2223  0.1413
    3TYR     BB  947   0.986   3.447   4.866 -0.0834 -0.0652 -0.1007
    3TYR    SC1  948   1.087   3.271   4.649 -0.2478 -0.1294 -0.2293
    3TYR    SC2  949   1.101   3.194   4.392  0.0514  0.1001 -0.2889
    3TYR    SC3  950   1.290   3.115   4.566 -0.0353  0.1167 -0.1861
    1TYR     BB  951   6.670   5.055   4.523 -0.0919 -0.0460 -0.2598
    1TYR    SC1  952   6.400   5.201   4.488  0.1205 -0.0104  0.3292
    1TYR    SC2  953   6.196   5.302   4.344 -0.1089 -0.3445  0.4040
    1TYR    SC3  954   6.232   5.380   4.601  0.1599  0.0754  0.2527
    2GLU     BB  955   6.636   4.875   4.771 -0.2537  0.2941 -0.0809
    2GLU    SC1  956   6.412   5.104   4.996  0.2166  0.2892  0.0104
    3TYR     BB  957   6.655   4.554   4.777  0.0319  0.0513  0.0269
    3TYR    SC1  958   6.893   4.511   4.998 -0.2597  0.0080  0.1004
    3TYR    SC2  959   7.114   4.423   5.125 -0.0388 -0.0324 -0.2916
    3TYR    SC3  960   6.870   4.348   5.212  0.1028 -0.1287  0.0451
    1TYR     BB  961   6.365   1.966   3.592  0.1149 -0.2581  0.2856
    1TYR    SC1  962   6.415   1.875   3.289 -0.0313  0.0835 -0.0834
    1TYR    SC2  963   6.376   2.000   3.052  0.1868  0.0716 -0.1275
    1TYR    SC3  964   6.609   1.871   3.102  0.0358 -0.1669 -0.0135
    2GLU     BB  965   6.372   1.784   3.779  0.0818  0.0529 -0.1438
    2GLU    SC1  966   6.709   1.852   3.943  0.1513 -0.1323  0.0750
    3TYR     BB  967   6.145   1.654   4.035  0.0366 -0.0560 -0.1204
    3TYR    SC1  968   6.345   1.633   4.257 -0.2815  0.1260  0.1351
    3TYR    SC2  969   6.395   1.596   4.519 -0.2635  0.0777  0.1250
    3TYR    SC3  970   6.545   1.469   4.335 -0.1539  0.2572  0.0882
    1TYR     BB  971   9.413   3.756   2.867  0.1058  0.1947 -0.0107
    1TYR    SC1  972   9.453   3.490   3.044  0.0063 -0.1765 -0.2497
    1TYR    SC2  973   9.321   3.332   3.219 -0.1596  0.1451 -0.0725
    1TYR    SC3  974   9.589   3.360   3.239 -0.1081 -0.1941 -0.1800
    2GLU     BB  975   9.186   3.665   2.690 -0.0681 -0.3149  0.1537
    2GLU    SC1  976   9.279   3.854   2.357  0.0333 -0.0277  0.1363
    3TYR     BB  977   8.915   3.764   2.707 -0.0403  0.3159 -0.1058
    3TYR    SC1  978   8.620   3.638   2.635  0.1696  0.0458  0.1205
    3TYR    SC2  979   8.481   3.498   2.451  0.3427  0.0980 -0.0537
    3TYR    SC3  980   8.544   3.385   2.688  0.2223 -0.0119 -0.0732
    1TYR     BB  981   0.147   3.259   4.924  0.1296  0.0017 -0.1671
    1TYR    SC1  982   0.114   3.522   5.069  0.3085  0.0980  0.0698
    1TYR    SC2  983   0.016   3.772   5.099  0.0655  0.0338 -0.1397
    1TYR    SC3  984   0.008   3.598   5.305  0.1470  0.1671 -0.0220
    2GLU     BB  985   0.392   3.085   4.924  0.1004 -0.2646 -0.4182
    2GLU    SC1  986   0.369   2.981   5.309  0.1969 -0.0212 -0.1363
    3TYR     BB  987   0.643   3.031   4.820 -0.1369  0.2324  0.1583
    3TYR    SC1  988   0.837   3.027   5.040  0.1493 -0.2822 -0.0941
    3TYR    SC2  989   1.102   3.008   5.091  0.1692  0.1754  0.0289
    3TYR    SC3  990   0.924   2.990   5.293  0.1168  0.0583 -0.0264
    1TYR     BB  991   7.717   5.561   3.471  0.2008 -0.0175 -0.2017
    1TYR    SC1  992   7.940   5.436   3.309 -0.1500 -0.4567  0.3605
    1TYR    SC2  993   8.095   5.278   3.153 -0.1237 -0.1204  0.0302
    1TYR    SC3  994   8.178   5.348   3.401  0.1104 -0.1934 -0.0247
    2GLU     BB  995   7.874   5.493   3.814  0.1797  0.0624 -0.1407
    2GLU    SC1  996   8.246   5.600   3.835 -0.1596 -0.0457 -0.0049
    3TYR     BB  997   8.018   5.191   3.852  0.0899  0.2711  0.0498
    3TYR    SC1  998   8.295   5.139   3.984  0.2036  0.0151  0.0172
    3TYR    SC2  999   8.474   5.163   4.185  0.0742 -0.5442  0.2225
    3TYR    SC3 1000   8.444   4.927   4.057 -0.0716 -0.2861 -0.2531
   7.64293   7.64293   7.64293
