Martini system from ../2_Creating_coordinates/TYR-SER-TYR_aa.pdb
 4247
    1TYR     BB    1   5.955   4.520   4.184
    1TYR    SC1    2   5.643   4.524   4.201
    1TYR    SC2    3   5.442   4.355   4.138
    1TYR    SC3    4   5.393   4.620   4.163
    2SER     BB    5   5.955   4.204   4.395
    2SER    SC1    6   5.963   4.284   4.631
    3TYR     BB    7   5.794   3.890   4.375
    3TYR    SC1    8   5.524   3.907   4.232
    3TYR    SC2    9   5.390   3.766   4.045
    3TYR    SC3   10   5.255   3.923   4.218
    1TYR     BB   11   4.326   3.633   0.601
    1TYR    SC1   12   4.164   3.886   0.699
    1TYR    SC2   13   3.978   3.984   0.867
    1TYR    SC3   14   4.214   4.111   0.838
    2SER     BB   15   4.517   3.636   0.904
    2SER    SC1   16   4.646   3.853   0.914
    3TYR     BB   17   4.241   3.630   1.122
    3TYR    SC1   18   4.208   3.896   1.256
    3TYR    SC2   19   4.103   4.143   1.284
    3TYR    SC3   20   4.176   4.002   1.503
    1TYR     BB   21   3.302   7.411   1.001
    1TYR    SC1   22   3.081   7.486   1.194
    1TYR    SC2   23   2.899   7.401   1.374
    1TYR    SC3   24   2.851   7.623   1.228
    2SER     BB   25   3.458   7.133   1.181
    2SER    SC1   26   3.686   7.106   1.081
    3TYR     BB   27   3.317   6.915   1.385
    3TYR    SC1   28   3.049   6.956   1.536
    3TYR    SC2   29   2.884   6.811   1.694
    3TYR    SC3   30   2.857   7.079   1.681
    1TYR     BB   31   5.394   5.138   0.815
    1TYR    SC1   32   5.439   4.833   0.860
    1TYR    SC2   33   5.465   4.650   1.057
    1TYR    SC3   34   5.354   4.579   0.821
    2SER     BB   35   5.370   5.259   1.116
    2SER    SC1   36   5.329   5.501   1.170
    3TYR     BB   37   5.456   5.038   1.357
    3TYR    SC1   38   5.396   5.199   1.604
    3TYR    SC2   39   5.435   5.395   1.785
    3TYR    SC3   40   5.264   5.193   1.840
    1TYR     BB   41   0.324   2.438   3.561
    1TYR    SC1   42   0.559   2.638   3.570
    1TYR    SC2   43   0.712   2.827   3.688
    1TYR    SC3   44   0.825   2.648   3.521
    2SER     BB   45   0.065   2.626   3.723
    2SER    SC1   46   7.845   2.539   3.644
    3TYR     BB   47   0.203   2.768   4.012
    3TYR    SC1   48   0.448   2.578   4.035
    3TYR    SC2   49   0.693   2.480   3.980
    3TYR    SC3   50   0.484   2.312   4.009
    1TYR     BB   51   0.647   0.985   4.731
    1TYR    SC1   52   0.416   0.956   4.930
    1TYR    SC2   53   0.208   0.815   5.029
    1TYR    SC3   54   0.315   1.016   5.173
    2SER     BB   55   0.957   0.812   4.776
    2SER    SC1   56   1.145   0.965   4.755
    3TYR     BB   57   1.081   0.474   4.758
    3TYR    SC1   58   1.019   0.373   5.047
    3TYR    SC2   59   0.845   0.248   5.212
    3TYR    SC3   60   1.081   0.339   5.307
    1TYR     BB   61   6.072   7.136   1.955
    1TYR    SC1   62   6.166   6.863   1.852
    1TYR    SC2   63   6.163   6.729   1.618
    1TYR    SC3   64   6.226   6.600   1.846
    2SER     BB   65   6.306   7.217   2.221
    2SER    SC1   66   6.186   7.368   2.384
    3TYR     BB   67   6.553   7.005   2.247
    3TYR    SC1   68   6.436   6.720   2.280
    3TYR    SC2   69   6.544   6.489   2.370
    3TYR    SC3   70   6.290   6.493   2.278
    1TYR     BB   71   4.290   3.462   5.917
    1TYR    SC1   72   4.458   3.641   5.740
    1TYR    SC2   73   4.561   3.809   5.555
    1TYR    SC3   74   4.634   3.832   5.814
    2SER     BB   75   3.982   3.414   5.794
    2SER    SC1   76   3.810   3.374   5.969
    3TYR     BB   77   3.957   3.521   5.491
    3TYR    SC1   78   4.074   3.807   5.531
    3TYR    SC2   79   4.192   4.045   5.480
    3TYR    SC3   80   4.154   3.966   5.735
    1TYR     BB   81   1.995   0.426   2.877
    1TYR    SC1   82   1.885   0.699   2.764
    1TYR    SC2   83   1.845   0.956   2.836
    1TYR    SC3   84   1.825   0.883   2.577
    2SER     BB   85   2.286   0.538   3.042
    2SER    SC1   86   2.506   0.462   2.951
    3TYR     BB   87   2.177   0.761   3.231
    3TYR    SC1   88   2.327   1.020   3.230
    3TYR    SC2   89   2.362   1.269   3.327
    3TYR    SC3   90   2.523   1.177   3.130
    1TYR     BB   91   6.622   5.632   1.447
    1TYR    SC1   92   6.918   5.662   1.411
    1TYR    SC2   93   7.113   5.705   1.229
    1TYR    SC3   94   7.176   5.675   1.489
    2SER     BB   95   6.439   5.870   1.237
    2SER    SC1   96   6.189   5.844   1.276
    3TYR     BB   97   6.672   6.094   1.093
    3TYR    SC1   98   6.874   6.104   1.325
    3TYR    SC2   99   7.084   6.135   1.492
    3TYR    SC3  100   6.842   6.071   1.591
    1TYR     BB  101   3.181   1.417   6.582
    1TYR    SC1  102   3.379   1.635   6.512
    1TYR    SC2  103   3.649   1.641   6.516
    1TYR    SC3  104   3.514   1.747   6.307
    2SER     BB  105   3.374   1.182   6.347
    2SER    SC1  106   3.355   1.288   6.123
    3TYR     BB  107   3.585   1.070   6.521
    3TYR    SC1  108   3.826   1.222   6.641
    3TYR    SC2  109   4.015   1.167   6.826
    3TYR    SC3  110   3.957   1.424   6.764
    1TYR     BB  111   1.460   6.817   4.732
    1TYR    SC1  112   1.523   6.548   4.605
    1TYR    SC2  113   1.429   6.325   4.487
    1TYR    SC3  114   1.695   6.363   4.512
    2SER     BB  115   1.379   6.977   4.413
    2SER    SC1  116   1.273   7.195   4.463
    3TYR     BB  117   1.336   6.762   4.163
    3TYR    SC1  118   1.511   6.515   4.085
    3TYR    SC2  119   1.476   6.252   4.032
    3TYR    SC3  120   1.725   6.351   4.065
    1TYR     BB  121   6.271   4.793   1.749
    1TYR    SC1  122   6.307   4.591   1.979
    1TYR    SC2  123   6.244   4.329   1.979
    1TYR    SC3  124   6.352   4.442   2.199
    2SER     BB  125   6.571   4.967   1.750
    2SER    SC1  126   6.580   5.140   1.570
    3TYR     BB  127   6.685   4.998   2.056
    3TYR    SC1  128   6.714   4.715   2.178
    3TYR    SC2  129   6.855   4.485   2.183
    3TYR    SC3  130   6.780   4.602   2.414
    1TYR     BB  131   5.834   7.298   7.992
    1TYR    SC1  132   5.524   7.308   0.036
    1TYR    SC2  133   5.306   7.272   0.191
    1TYR    SC3  134   5.338   7.503   0.055
    2SER     BB  135   5.889   7.611   0.152
    2SER    SC1  136   5.820   7.810   0.011
    3TYR     BB  137   5.736   7.547   0.446
    3TYR    SC1  138   5.482   7.718   0.427
    3TYR    SC2  139   5.272   7.860   0.521
    3TYR    SC3  140   5.377   7.919   0.280
    1TYR     BB  141   7.342   4.052   4.203
    1TYR    SC1  142   7.388   4.156   4.486
    1TYR    SC2  143   7.474   4.228   4.731
    1TYR    SC3  144   7.209   4.201   4.684
    2SER     BB  145   6.969   4.122   4.224
    2SER    SC1  146   6.862   4.029   4.023
    3TYR     BB  147   6.912   4.472   4.256
    3TYR    SC1  148   7.175   4.561   4.389
    3TYR    SC2  149   7.439   4.614   4.408
    3TYR    SC3  150   7.277   4.655   4.621
    1TYR     BB  151   7.240   0.572   3.189
    1TYR    SC1  152   7.194   0.879   3.253
    1TYR    SC2  153   7.268   1.127   3.330
    1TYR    SC3  154   7.085   1.095   3.134
    2SER     BB  155   6.944   0.534   2.993
    2SER    SC1  156   6.789   0.361   3.078
    3TYR     BB  157   6.936   0.775   2.785
    3TYR    SC1  158   6.938   0.680   2.495
    3TYR    SC2  159   7.050   0.552   2.285
    3TYR    SC3  160   6.783   0.589   2.294
    1TYR     BB  161   7.718   0.071   6.465
    1TYR    SC1  162   0.006   0.124   6.366
    1TYR    SC2  163   0.243   0.029   6.281
    1TYR    SC3  164   0.224   0.283   6.369
    2SER     BB  165   7.547   0.272   6.702
    2SER    SC1  166   7.302   0.214   6.708
    3TYR     BB  167   7.686   0.212   7.027
    3TYR    SC1  168   7.931   0.038   6.944
    3TYR    SC2  169   0.139   0.010   6.774
    3TYR    SC3  170   0.043   7.795   6.906
    1TYR     BB  171   3.273   0.005   3.172
    1TYR    SC1  172   3.191   0.200   3.386
    1TYR    SC2  173   2.982   0.302   3.522
    1TYR    SC3  174   3.233   0.384   3.579
    2SER     BB  175   3.198   7.698   3.320
    2SER    SC1  176   3.356   7.509   3.260
    3TYR     BB  177   3.171   7.773   3.661
    3TYR    SC1  178   3.463   7.681   3.728
    3TYR    SC2  179   3.668   7.581   3.872
    3TYR    SC3  180   3.703   7.642   3.612
    1TYR     BB  181   3.823   2.137   3.369
    1TYR    SC1  182   4.061   2.028   3.201
    1TYR    SC2  183   4.192   1.835   3.065
    1TYR    SC3  184   4.153   2.077   2.952
    2SER     BB  185   3.610   2.138   3.058
    2SER    SC1  186   3.585   2.373   2.999
    3TYR     BB  187   3.676   1.851   2.938
    3TYR    SC1  188   3.645   1.748   2.653
    3TYR    SC2  189   3.600   1.534   2.496
    3TYR    SC3  190   3.616   1.780   2.387
    1TYR     BB  191   7.658   6.912   4.844
    1TYR    SC1  192   7.891   6.825   4.661
    1TYR    SC2  193   0.071   6.635   4.593
    1TYR    SC3  194   7.926   6.759   4.402
    2SER     BB  195   7.426   6.660   4.720
    2SER    SC1  196   7.204   6.648   4.838
    3TYR     BB  197   7.613   6.414   4.585
    3TYR    SC1  198   7.613   6.253   4.331
    3TYR    SC2  199   7.453   6.112   4.166
    3TYR    SC3  200   7.721   6.091   4.144
    1TYR     BB  201   7.915   5.359   2.619
    1TYR    SC1  202   7.851   5.569   2.422
    1TYR    SC2  203   7.935   5.590   2.166
    1TYR    SC3  204   7.800   5.794   2.280
    2SER     BB  205   7.974   5.102   2.316
    2SER    SC1  206   0.067   4.904   2.423
    3TYR     BB  207   0.037   5.128   1.968
    3TYR    SC1  208   7.944   5.352   1.782
    3TYR    SC2  209   0.042   5.525   1.600
    3TYR    SC3  210   7.788   5.550   1.686
    1TYR     BB  211   0.187   3.255   5.814
    1TYR    SC1  212   7.963   3.203   5.616
    1TYR    SC2  213   7.698   3.178   5.570
    1TYR    SC3  214   7.872   3.177   5.363
    2SER     BB  215   0.025   3.499   6.024
    2SER    SC1  216   0.069   3.472   6.265
    3TYR     BB  217   7.766   3.598   5.870
    3TYR    SC1  218   7.840   3.661   5.577
    3TYR    SC2  219   7.752   3.625   5.324
    3TYR    SC3  220   7.963   3.787   5.372
    1TYR     BB  221   4.004   7.244   3.663
    1TYR    SC1  222   4.154   6.980   3.748
    1TYR    SC2  223   4.057   6.738   3.817
    1TYR    SC3  224   4.322   6.771   3.781
    2SER     BB  225   3.702   7.066   3.573
    2SER    SC1  226   3.493   7.173   3.637
    3TYR     BB  227   3.767   6.776   3.429
    3TYR    SC1  228   3.947   6.823   3.186
    3TYR    SC2  229   4.154   6.786   3.016
    3TYR    SC3  230   3.922   6.890   2.925
    1TYR     BB  231   6.446   2.772   0.725
    1TYR    SC1  232   6.651   2.988   0.830
    1TYR    SC2  233   6.883   3.113   0.889
    1TYR    SC3  234   6.658   3.175   1.025
    2SER     BB  235   6.172   3.025   0.745
    2SER    SC1  236   5.947   2.917   0.737
    3TYR     BB  237   6.280   3.229   0.503
    3TYR    SC1  238   6.549   3.370   0.571
    3TYR    SC2  239   6.682   3.583   0.471
    3TYR    SC3  240   6.705   3.520   0.733
    1TYR     BB  241   4.199   1.795   0.510
    1TYR    SC1  242   4.330   1.519   0.520
    1TYR    SC2  243   4.275   1.255   0.505
    1TYR    SC3  244   4.526   1.338   0.557
    2SER     BB  245   4.329   2.058   0.321
    2SER    SC1  246   4.355   2.274   0.432
    3TYR     BB  247   4.419   1.976   7.993
    3TYR    SC1  248   4.397   1.672   0.016
    3TYR    SC2  249   4.243   1.458   0.073
    3TYR    SC3  250   4.512   1.436   0.080
    1TYR     BB  251   1.601   2.945   3.207
    1TYR    SC1  252   1.722   3.002   3.479
    1TYR    SC2  253   1.644   2.954   3.733
    1TYR    SC3  254   1.903   3.011   3.680
    2SER     BB  255   1.275   2.848   3.327
    2SER    SC1  256   1.148   3.038   3.416
    3TYR     BB  257   1.312   2.534   3.389
    3TYR    SC1  258   1.579   2.512   3.527
    3TYR    SC2  259   1.683   2.507   3.776
    3TYR    SC3  260   1.840   2.569   3.566
    1TYR     BB  261   5.797   0.544   5.345
    1TYR    SC1  262   6.023   0.582   5.557
    1TYR    SC2  263   6.155   0.583   5.793
    1TYR    SC3  264   6.288   0.631   5.563
    2SER     BB  265   5.761   0.890   5.234
    2SER    SC1  266   5.597   0.994   5.396
    3TYR     BB  267   6.089   0.993   5.218
    3TYR    SC1  268   6.119   1.048   5.513
    3TYR    SC2  269   5.994   1.008   5.749
    3TYR    SC3  270   6.215   1.163   5.738
    1TYR     BB  271   1.592   0.942   0.645
    1TYR    SC1  272   1.696   1.236   0.613
    1TYR    SC2  273   1.674   1.498   0.676
    1TYR    SC3  274   1.918   1.383   0.661
    2SER     BB  275   1.277   0.902   0.490
    2SER    SC1  276   1.271   0.693   0.351
    3TYR     BB  277   1.189   1.210   0.393
    3TYR    SC1  278   1.234   1.357   0.661
    3TYR    SC2  279   1.171   1.520   0.867
    3TYR    SC3  280   1.308   1.292   0.912
    1TYR     BB  281   4.528   3.444   3.097
    1TYR    SC1  282   4.590   3.185   3.224
    1TYR    SC2  283   4.790   3.044   3.339
    1TYR    SC3  284   4.538   3.023   3.434
    2SER     BB  285   4.576   3.627   3.417
    2SER    SC1  286   4.413   3.810   3.403
    3TYR     BB  287   4.745   3.459   3.629
    3TYR    SC1  288   4.592   3.269   3.821
    3TYR    SC2  289   4.377   3.123   3.895
    3TYR    SC3  290   4.588   3.147   4.062
    1TYR     BB  291   6.585   6.009   0.597
    1TYR    SC1  292   6.629   5.743   0.765
    1TYR    SC2  293   6.569   5.481   0.794
    1TYR    SC3  294   6.752   5.596   0.955
    2SER     BB  295   6.902   6.133   0.585
    2SER    SC1  296   7.000   6.135   0.350
    3TYR     BB  297   7.104   5.927   0.791
    3TYR    SC1  298   7.048   5.667   0.609
    3TYR    SC2  299   6.888   5.609   0.400
    3TYR    SC3  300   6.965   5.413   0.569
    1TYR     BB  301   6.273   2.495   6.646
    1TYR    SC1  302   6.466   2.316   6.487
    1TYR    SC2  303   6.674   2.145   6.470
    1TYR    SC3  304   6.587   2.274   6.250
    2SER     BB  305   6.006   2.301   6.772
    2SER    SC1  306   5.839   2.418   6.928
    3TYR     BB  307   6.019   2.013   6.694
    3TYR    SC1  308   6.246   1.925   6.522
    3TYR    SC2  309   6.447   1.748   6.489
    3TYR    SC3  310   6.330   1.862   6.274
    1TYR     BB  311   5.330   1.201   4.333
    1TYR    SC1  312   5.230   1.334   4.589
    1TYR    SC2  313   5.075   1.345   4.810
    1TYR    SC3  314   5.237   1.552   4.749
    2SER     BB  315   5.273   0.864   4.427
    2SER    SC1  316   5.487   0.734   4.396
    3TYR     BB  317   5.150   0.842   4.771
    3TYR    SC1  318   5.385   1.011   4.883
    3TYR    SC2  319   5.503   1.239   4.967
    3TYR    SC3  320   5.617   1.092   4.771
    1TYR     BB  321   1.260   4.811   5.884
    1TYR    SC1  322   0.959   4.853   5.978
    1TYR    SC2  323   0.814   5.051   6.090
    1TYR    SC3  324   0.699   4.813   6.037
    2SER     BB  325   1.353   4.608   6.157
    2SER    SC1  326   1.494   4.716   6.327
    3TYR     BB  327   1.026   4.509   6.324
    3TYR    SC1  328   0.999   4.796   6.442
    3TYR    SC2  329   0.905   4.987   6.608
    3TYR    SC3  330   1.098   5.047   6.430
    1TYR     BB  331   4.899   1.449   2.966
    1TYR    SC1  332   5.150   1.595   3.096
    1TYR    SC2  333   5.397   1.594   3.204
    1TYR    SC3  334   5.258   1.824   3.187
    2SER     BB  335   5.011   1.346   2.669
    2SER    SC1  336   4.949   1.497   2.477
    3TYR     BB  337   5.345   1.282   2.746
    3TYR    SC1  338   5.457   1.567   2.728
    3TYR    SC2  339   5.589   1.732   2.560
    3TYR    SC3  340   5.554   1.803   2.818
    1TYR     BB  341   1.021   6.836   6.647
    1TYR    SC1  342   1.241   6.639   6.744
    1TYR    SC2  343   1.469   6.598   6.883
    1TYR    SC3  344   1.311   6.389   6.820
    2SER     BB  345   1.054   7.130   6.842
    2SER    SC1  346   0.849   7.229   6.949
    3TYR     BB  347   1.317   7.054   7.033
    3TYR    SC1  348   1.189   6.805   7.169
    3TYR    SC2  349   1.130   6.547   7.219
    3TYR    SC3  350   0.932   6.724   7.173
    1TYR     BB  351   2.421   4.330   5.219
    1TYR    SC1  352   2.297   4.082   5.361
    1TYR    SC2  353   2.199   3.832   5.334
    1TYR    SC3  354   2.181   3.960   5.571
    2SER     BB  355   2.447   4.648   5.321
    2SER    SC1  356   2.430   4.861   5.181
    3TYR     BB  357   2.592   4.655   5.599
    3TYR    SC1  358   2.647   4.385   5.699
    3TYR    SC2  359   2.844   4.213   5.769
    3TYR    SC3  360   2.604   4.118   5.689
    1TYR     BB  361   3.935   4.146   0.332
    1TYR    SC1  362   3.685   4.318   0.272
    1TYR    SC2  363   3.424   4.315   0.201
    1TYR    SC3  364   3.524   4.525   0.338
    2SER     BB  365   3.729   3.866   0.447
    2SER    SC1  366   3.846   3.652   0.407
    3TYR     BB  367   3.525   3.942   0.680
    3TYR    SC1  368   3.384   4.211   0.668
    3TYR    SC2  369   3.183   4.380   0.604
    3TYR    SC3  370   3.319   4.413   0.834
    1TYR     BB  371   5.897   2.701   5.968
    1TYR    SC1  372   5.836   2.960   5.820
    1TYR    SC2  373   5.851   3.067   5.573
    1TYR    SC3  374   5.743   3.209   5.775
    2SER     BB  375   5.977   2.490   5.722
    2SER    SC1  376   5.795   2.334   5.646
    3TYR     BB  377   6.146   2.658   5.469
    3TYR    SC1  378   5.901   2.709   5.283
    3TYR    SC2  379   5.744   2.870   5.134
    3TYR    SC3  380   5.645   2.639   5.232
    1TYR     BB  381   7.344   2.176   1.727
    1TYR    SC1  382   7.613   2.151   1.600
    1TYR    SC2  383   7.790   2.337   1.518
    1TYR    SC3  384   7.878   2.108   1.631
    2SER     BB  385   7.424   2.244   2.053
    2SER    SC1  386   7.280   2.121   2.214
    3TYR     BB  387   7.713   2.391   2.039
    3TYR    SC1  388   7.930   2.187   2.112
    3TYR    SC2  389   0.182   2.193   2.210
    3TYR    SC3  390   0.098   1.979   2.068
    1TYR     BB  391   7.674   1.495   5.455
    1TYR    SC1  392   7.450   1.491   5.677
    1TYR    SC2  393   7.378   1.431   5.930
    1TYR    SC3  394   7.207   1.385   5.726
    2SER     BB  395   7.935   1.378   5.651
    2SER    SC1  396   0.046   1.182   5.560
    3TYR     BB  397   7.872   1.449   5.955
    3TYR    SC1  398   7.747   1.727   5.961
    3TYR    SC2  399   7.536   1.881   6.030
    3TYR    SC3  400   7.780   1.992   5.999
    1TYR     BB  401   0.838   0.226   7.289
    1TYR    SC1  402   0.721   0.004   7.105
    1TYR    SC2  403   0.492   7.880   7.033
    1TYR    SC3  404   0.730   7.785   6.946
    2SER     BB  405   1.022   0.463   7.104
    2SER    SC1  406   1.265   0.479   7.172
    3TYR     BB  407   0.895   0.505   6.833
    3TYR    SC1  408   0.780   0.249   6.712
    3TYR    SC2  409   0.553   0.124   6.635
    3TYR    SC3  410   0.793   0.032   6.552
    1TYR     BB  411   5.103   4.548   6.351
    1TYR    SC1  412   5.355   4.621   6.183
    1TYR    SC2  413   5.581   4.474   6.167
    1TYR    SC3  414   5.517   4.645   5.968
    2SER     BB  415   5.122   4.197   6.200
    2SER    SC1  416   4.911   4.164   6.072
    3TYR     BB  417   5.395   4.016   6.269
    3TYR    SC1  418   5.700   4.057   6.284
    3TYR    SC2  419   5.950   3.957   6.276
    3TYR    SC3  420   5.910   4.213   6.353
    1TYR     BB  421   0.899   5.648   5.713
    1TYR    SC1  422   0.604   5.603   5.784
    1TYR    SC2  423   0.338   5.583   5.744
    1TYR    SC3  424   0.431   5.715   5.960
    2SER     BB  425   1.027   5.331   5.735
    2SER    SC1  426   1.194   5.302   5.906
    3TYR     BB  427   0.874   5.095   5.568
    3TYR    SC1  428   0.589   5.116   5.665
    3TYR    SC2  429   0.350   4.994   5.695
    3TYR    SC3  430   0.435   5.172   5.880
    1TYR     BB  431   2.582   5.486   4.902
    1TYR    SC1  432   2.657   5.790   4.940
    1TYR    SC2  433   2.553   6.028   5.011
    1TYR    SC3  434   2.815   6.009   4.950
    2SER     BB  435   2.567   5.393   5.235
    2SER    SC1  436   2.364   5.325   5.371
    3TYR     BB  437   2.827   5.501   5.346
    3TYR    SC1  438   2.957   5.763   5.338
    3TYR    SC2  439   2.954   6.030   5.376
    3TYR    SC3  440   3.172   5.887   5.445
    1TYR     BB  441   6.010   1.893   5.483
    1TYR    SC1  442   5.888   1.867   5.767
    1TYR    SC2  443   5.667   1.873   5.922
    1TYR    SC3  444   5.910   1.838   6.034
    2SER     BB  445   6.071   1.558   5.397
    2SER    SC1  446   6.307   1.494   5.330
    3TYR     BB  447   5.803   1.427   5.500
    3TYR    SC1  448   5.809   1.417   5.814
    3TYR    SC2  449   5.683   1.403   6.052
    3TYR    SC3  450   5.950   1.368   6.039
    1TYR     BB  451   5.008   2.377   2.424
    1TYR    SC1  452   5.068   2.289   2.142
    1TYR    SC2  453   4.963   2.163   1.928
    1TYR    SC3  454   5.182   2.318   1.899
    2SER     BB  455   4.758   2.612   2.354
    2SER    SC1  456   4.683   2.725   2.562
    3TYR     BB  457   4.610   2.522   2.087
    3TYR    SC1  458   4.714   2.522   1.790
    3TYR    SC2  459   4.748   2.357   1.579
    3TYR    SC3  460   4.697   2.619   1.539
    1TYR     BB  461   1.294   5.544   2.403
    1TYR    SC1  462   1.387   5.389   2.648
    1TYR    SC2  463   1.561   5.192   2.709
    1TYR    SC3  464   1.562   5.422   2.851
    2SER     BB  465   1.611   5.744   2.414
    2SER    SC1  466   1.554   5.982   2.412
    3TYR     BB  467   1.896   5.614   2.465
    3TYR    SC1  468   1.982   5.380   2.632
    3TYR    SC2  469   1.995   5.112   2.600
    3TYR    SC3  470   2.157   5.235   2.777
    1TYR     BB  471   4.104   7.880   6.334
    1TYR    SC1  472   4.295   7.635   6.383
    1TYR    SC2  473   4.446   7.420   6.322
    1TYR    SC3  474   4.475   7.542   6.561
    2SER     BB  475   4.287   0.120   6.536
    2SER    SC1  476   4.177   0.301   6.675
    3TYR     BB  477   4.573   0.046   6.483
    3TYR    SC1  478   4.745   7.885   6.670
    3TYR    SC2  479   4.927   7.693   6.617
    3TYR    SC3  480   4.825   7.718   6.866
    1TYR     BB  481   6.948   1.037   2.101
    1TYR    SC1  482   6.992   0.810   1.896
    1TYR    SC2  483   6.917   0.568   1.804
    1TYR    SC3  484   6.920   0.780   1.637
    2SER     BB  485   6.791   1.256   1.849
    2SER    SC1  486   6.968   1.420   1.786
    3TYR     BB  487   6.518   1.208   1.619
    3TYR    SC1  488   6.702   1.130   1.387
    3TYR    SC2  489   6.821   0.994   1.186
    3TYR    SC3  490   6.968   1.152   1.348
    1TYR     BB  491   2.592   3.831   0.940
    1TYR    SC1  492   2.471   3.930   1.191
    1TYR    SC2  493   2.441   4.149   1.346
    1TYR    SC3  494   2.248   3.960   1.340
    2SER     BB  495   2.451   4.079   0.717
    2SER    SC1  496   2.403   3.967   0.500
    3TYR     BB  497   2.337   4.364   0.872
    3TYR    SC1  498   2.109   4.290   1.064
    3TYR    SC2  499   2.001   4.371   1.297
    3TYR    SC3  500   1.877   4.182   1.149
    1TYR     BB  501   4.922   0.548   0.658
    1TYR    SC1  502   4.651   0.648   0.536
    1TYR    SC2  503   4.405   0.599   0.436
    1TYR    SC3  504   4.453   0.829   0.569
    2SER     BB  505   4.786   0.560   1.009
    2SER    SC1  506   4.976   0.576   1.165
    3TYR     BB  507   4.448   0.521   1.054
    3TYR    SC1  508   4.316   0.795   1.051
    3TYR    SC2  509   4.117   0.968   1.110
    3TYR    SC3  510   4.316   1.043   0.944
    1TYR     BB  511   6.395   7.096   7.016
    1TYR    SC1  512   6.392   6.843   6.840
    1TYR    SC2  513   6.497   6.601   6.897
    1TYR    SC3  514   6.408   6.654   6.648
    2SER     BB  515   6.123   6.988   7.237
    2SER    SC1  516   5.989   7.187   7.305
    3TYR     BB  517   6.080   6.667   7.313
    3TYR    SC1  518   6.078   6.529   7.037
    3TYR    SC2  519   6.109   6.325   6.863
    3TYR    SC3  520   5.987   6.552   6.784
    1TYR     BB  521   7.576   6.012   6.700
    1TYR    SC1  522   7.462   5.763   6.829
    1TYR    SC2  523   7.523   5.600   7.036
    1TYR    SC3  524   7.265   5.635   6.963
    2SER     BB  525   7.895   6.016   6.858
    2SER    SC1  526   0.078   6.096   6.718
    3TYR     BB  527   7.840   5.995   7.176
    3TYR    SC1  528   7.543   6.091   7.197
    3TYR    SC2  529   7.381   6.306   7.219
    3TYR    SC3  530   7.285   6.075   7.117
    1TYR     BB  531   0.279   3.645   1.349
    1TYR    SC1  532   0.010   3.752   1.452
    1TYR    SC2  533   7.784   3.723   1.598
    1TYR    SC3  534   7.782   3.876   1.375
    2SER     BB  535   0.548   3.826   1.469
    2SER    SC1  536   0.715   3.878   1.293
    3TYR     BB  537   0.529   3.881   1.781
    3TYR    SC1  538   0.232   3.834   1.861
    3TYR    SC2  539   0.019   3.712   1.971
    3TYR    SC3  540   0.012   3.978   1.922
    1TYR     BB  541   4.486   6.402   6.887
    1TYR    SC1  542   4.661   6.660   6.889
    1TYR    SC2  543   4.911   6.763   6.884
    1TYR    SC3  544   4.724   6.868   7.049
    2SER     BB  545   4.543   6.254   6.606
    2SER    SC1  546   4.452   6.337   6.391
    3TYR     BB  547   4.918   6.282   6.587
    3TYR    SC1  548   4.902   6.563   6.482
    3TYR    SC2  549   5.002   6.810   6.438
    3TYR    SC3  550   4.735   6.769   6.431
    1TYR     BB  551   7.477   3.457   1.332
    1TYR    SC1  552   7.505   3.293   1.583
    1TYR    SC2  553   7.577   3.284   1.843
    1TYR    SC3  554   7.342   3.177   1.764
    2SER     BB  555   7.285   3.714   1.494
    2SER    SC1  556   7.244   3.909   1.352
    3TYR     BB  557   7.323   3.705   1.808
    3TYR    SC1  558   7.096   3.546   1.942
    3TYR    SC2  559   6.939   3.548   2.162
    3TYR    SC3  560   6.938   3.334   1.997
    1TYR     BB  561   5.620   4.084   2.741
    1TYR    SC1  562   5.812   4.278   2.598
    1TYR    SC2  563   5.943   4.328   2.368
    1TYR    SC3  564   5.980   4.488   2.582
    2SER     BB  565   5.460   3.946   2.420
    2SER    SC1  566   5.630   3.960   2.246
    3TYR     BB  567   5.147   4.112   2.343
    3TYR    SC1  568   5.284   4.391   2.383
    3TYR    SC2  569   5.517   4.489   2.289
    3TYR    SC3  570   5.438   4.547   2.540
    1TYR     BB  571   4.037   5.450   1.130
    1TYR    SC1  572   3.877   5.600   1.338
    1TYR    SC2  573   3.745   5.835   1.355
    1TYR    SC3  574   3.754   5.669   1.568
    2SER     BB  575   4.149   5.712   0.939
    2SER    SC1  576   4.402   5.746   0.934
    3TYR     BB  577   3.907   5.859   0.827
    3TYR    SC1  578   3.626   5.815   0.926
    3TYR    SC2  579   3.436   5.960   1.050
    3TYR    SC3  580   3.365   5.768   0.874
    1TYR     BB  581   6.551   7.329   4.003
    1TYR    SC1  582   6.694   7.053   3.989
    1TYR    SC2  583   6.903   6.888   3.947
    1TYR    SC3  584   6.658   6.785   3.995
    2SER     BB  585   6.363   7.264   4.300
    2SER    SC1  586   6.166   7.416   4.300
    3TYR     BB  587   6.460   6.998   4.446
    3TYR    SC1  588   6.337   6.752   4.313
    3TYR    SC2  589   6.166   6.552   4.370
    3TYR    SC3  590   6.256   6.585   4.117
    1TYR     BB  591   1.969   1.000   4.551
    1TYR    SC1  592   1.935   1.295   4.630
    1TYR    SC2  593   1.912   1.505   4.798
    1TYR    SC3  594   1.859   1.536   4.535
    2SER     BB  595   2.133   1.063   4.246
    2SER    SC1  596   2.164   0.870   4.104
    3TYR     BB  597   2.272   1.346   4.228
    3TYR    SC1  598   2.167   1.623   4.202
    3TYR    SC2  599   2.240   1.880   4.166
    3TYR    SC3  600   1.979   1.815   4.182
    1TYR     BB  601   6.190   4.254   5.394
    1TYR    SC1  602   6.401   4.038   5.371
    1TYR    SC2  603   6.637   3.936   5.454
    1TYR    SC3  604   6.562   3.909   5.196
    2SER     BB  605   5.983   4.098   5.654
    2SER    SC1  606   5.974   4.242   5.856
    3TYR     BB  607   5.777   3.927   5.463
    3TYR    SC1  608   5.960   3.838   5.233
    3TYR    SC2  609   6.168   3.687   5.151
    3TYR    SC3  610   6.092   3.902   5.006
    1TYR     BB  611   4.834   2.436   4.097
    1TYR    SC1  612   4.525   2.474   4.083
    1TYR    SC2  613   4.346   2.670   4.038
    1TYR    SC3  614   4.293   2.478   4.220
    2SER     BB  615   5.083   2.358   3.886
    2SER    SC1  616   5.175   2.134   3.880
    3TYR     BB  617   5.153   2.587   3.655
    3TYR    SC1  618   4.864   2.682   3.613
    3TYR    SC2  619   4.684   2.801   3.776
    3TYR    SC3  620   4.605   2.606   3.607
    1TYR     BB  621   5.705   3.853   0.437
    1TYR    SC1  622   5.878   4.093   0.523
    1TYR    SC2  623   5.948   4.333   0.420
    1TYR    SC3  624   6.093   4.225   0.621
    2SER     BB  625   5.482   3.841   0.707
    2SER    SC1  626   5.322   3.645   0.674
    3TYR     BB  627   5.534   4.100   0.948
    3TYR    SC1  628   5.751   4.326   0.908
    3TYR    SC2  629   5.811   4.556   0.780
    3TYR    SC3  630   5.956   4.479   0.994
    1TYR     BB  631   3.746   6.581   5.197
    1TYR    SC1  632   3.890   6.614   5.472
    1TYR    SC2  633   4.105   6.734   5.585
    1TYR    SC3  634   3.881   6.692   5.731
    2SER     BB  635   3.775   6.912   5.088
    2SER    SC1  636   3.671   6.976   4.869
    3TYR     BB  637   3.744   7.101   5.364
    3TYR    SC1  638   3.548   6.941   5.534
    3TYR    SC2  639   3.299   6.931   5.638
    3TYR    SC3  640   3.433   6.702   5.588
    1TYR     BB  641   3.421   1.954   5.614
    1TYR    SC1  642   3.510   1.810   5.351
    1TYR    SC2  643   3.385   1.737   5.123
    1TYR    SC3  644   3.642   1.818   5.116
    2SER     BB  645   3.083   2.016   5.508
    2SER    SC1  646   2.943   2.102   5.698
    3TYR     BB  647   2.916   1.974   5.208
    3TYR    SC1  648   2.950   1.810   4.953
    3TYR    SC2  649   2.864   1.603   4.803
    3TYR    SC3  650   3.104   1.715   4.753
    1TYR     BB  651   2.382   6.131   3.217
    1TYR    SC1  652   2.292   6.406   3.328
    1TYR    SC2  653   2.072   6.558   3.368
    1TYR    SC3  654   2.312   6.639   3.463
    2SER     BB  655   2.176   5.899   3.389
    2SER    SC1  656   2.248   5.728   3.562
    3TYR     BB  657   1.879   6.019   3.360
    3TYR    SC1  658   1.730   5.936   3.624
    3TYR    SC2  659   1.789   5.921   3.887
    3TYR    SC3  660   1.540   5.864   3.801
    1TYR     BB  661   6.951   1.578   2.713
    1TYR    SC1  662   7.162   1.498   2.917
    1TYR    SC2  663   7.398   1.394   2.995
    1TYR    SC3  664   7.280   1.586   3.143
    2SER     BB  665   6.816   1.852   2.849
    2SER    SC1  666   6.577   1.880   2.779
    3TYR     BB  667   7.054   2.052   2.939
    3TYR    SC1  668   7.141   2.007   3.232
    3TYR    SC2  669   7.300   2.086   3.436
    3TYR    SC3  670   7.112   1.897   3.476
    1TYR     BB  671   1.861   6.950   5.650
    1TYR    SC1  672   2.146   6.870   5.723
    1TYR    SC2  673   2.340   6.684   5.697
    1TYR    SC3  674   2.349   6.861   5.901
    2SER     BB  675   1.886   7.269   5.529
    2SER    SC1  676   1.815   7.439   5.700
    3TYR     BB  677   1.876   7.206   5.186
    3TYR    SC1  678   2.097   6.974   5.200
    3TYR    SC2  679   2.340   6.913   5.300
    3TYR    SC3  680   2.155   6.719   5.269
    1TYR     BB  681   4.794   6.037   7.918
    1TYR    SC1  682   4.926   6.281   7.764
    1TYR    SC2  683   5.177   6.348   7.691
    1TYR    SC3  684   4.970   6.507   7.623
    2SER     BB  685   4.890   5.807   7.635
    2SER    SC1  686   5.107   5.703   7.690
    3TYR     BB  687   4.765   5.989   7.394
    3TYR    SC1  688   4.975   6.182   7.286
    3TYR    SC2  689   5.183   6.347   7.238
    3TYR    SC3  690   4.953   6.377   7.101
    1TYR     BB  691   6.374   4.927   3.423
    1TYR    SC1  692   6.620   4.930   3.225
    1TYR    SC2  693   6.832   5.032   3.091
    1TYR    SC3  694   6.708   4.810   3.000
    2SER     BB  695   6.308   4.578   3.417
    2SER    SC1  696   6.121   4.496   3.560
    3TYR     BB  697   6.540   4.416   3.265
    3TYR    SC1  698   6.551   4.126   3.155
    3TYR    SC2  699   6.708   3.936   3.045
    3TYR    SC3  700   6.448   3.884   3.094
    1TYR     BB  701   1.706   1.347   1.561
    1TYR    SC1  702   1.999   1.249   1.560
    1TYR    SC2  703   2.176   1.082   1.677
    1TYR    SC3  704   2.263   1.280   1.515
    2SER     BB  705   1.560   1.127   1.330
    2SER    SC1  706   1.509   0.906   1.440
    3TYR     BB  707   1.763   1.158   1.086
    3TYR    SC1  708   2.037   1.059   1.153
    3TYR    SC2  709   2.191   0.867   1.264
    3TYR    SC3  710   2.302   1.053   1.102
    1TYR     BB  711   7.434   3.256   0.855
    1TYR    SC1  712   7.353   2.956   0.845
    1TYR    SC2  713   7.165   2.783   0.756
    1TYR    SC3  714   7.325   2.714   0.962
    2SER     BB  715   7.193   3.372   0.602
    2SER    SC1  716   7.188   3.617   0.570
    3TYR     BB  717   6.985   3.165   0.406
    3TYR    SC1  718   6.939   3.373   0.168
    3TYR    SC2  719   7.065   3.586   0.059
    3TYR    SC3  720   6.798   3.557   0.030
    1TYR     BB  721   4.972   0.164   1.936
    1TYR    SC1  722   4.672   0.151   1.998
    1TYR    SC2  723   4.463   0.320   1.971
    1TYR    SC3  724   4.420   0.055   1.997
    2SER     BB  725   4.912   0.456   1.687
    2SER    SC1  726   5.127   0.565   1.687
    3TYR     BB  727   4.657   0.403   1.509
    3TYR    SC1  728   4.448   0.619   1.580
    3TYR    SC2  729   4.260   0.678   1.765
    3TYR    SC3  730   4.260   0.806   1.527
    1TYR     BB  731   1.164   5.233   0.719
    1TYR    SC1  732   1.298   5.440   0.900
    1TYR    SC2  733   1.372   5.693   0.958
    1TYR    SC3  734   1.513   5.486   1.056
    2SER     BB  735   1.177   4.974   0.983
    2SER    SC1  736   1.342   4.806   0.912
    3TYR     BB  737   0.991   5.110   1.197
    3TYR    SC1  738   1.143   5.337   1.332
    3TYR    SC2  739   1.198   5.599   1.361
    3TYR    SC3  740   1.337   5.416   1.502
    1TYR     BB  741   6.475   6.771   3.150
    1TYR    SC1  742   6.660   7.020   3.121
    1TYR    SC2  743   6.632   7.288   3.104
    1TYR    SC3  744   6.859   7.169   3.018
    2SER     BB  745   6.166   6.999   3.199
    2SER    SC1  746   5.969   6.867   3.171
    3TYR     BB  747   6.100   7.345   3.269
    3TYR    SC1  748   6.328   7.549   3.331
    3TYR    SC2  749   6.416   7.804   3.328
    3TYR    SC3  750   6.560   7.614   3.454
    1TYR     BB  751   7.323   1.346   0.446
    1TYR    SC1  752   7.088   1.466   0.281
    1TYR    SC2  753   7.031   1.516   0.022
    1TYR    SC3  754   6.832   1.505   0.204
    2SER     BB  755   7.422   1.629   0.654
    2SER    SC1  756   7.616   1.752   0.554
    3TYR     BB  757   7.344   1.745   0.978
    3TYR    SC1  758   7.624   1.839   1.096
    3TYR    SC2  759   7.777   1.780   1.311
    3TYR    SC3  760   7.833   1.998   1.162
    1TYR     BB  761   4.278   0.005   2.936
    1TYR    SC1  762   4.497   0.211   3.001
    1TYR    SC2  763   4.745   0.300   2.943
    1TYR    SC3  764   4.603   0.415   3.142
    2SER     BB  765   4.077   0.233   2.747
    2SER    SC1  766   3.849   0.143   2.720
    3TYR     BB  767   4.196   0.533   2.776
    3TYR    SC1  768   4.479   0.658   2.762
    3TYR    SC2  769   4.716   0.646   2.634
    3TYR    SC3  770   4.626   0.882   2.730
    1TYR     BB  771   5.097   3.172   0.401
    1TYR    SC1  772   5.022   2.963   0.177
    1TYR    SC2  773   4.924   2.912   7.930
    1TYR    SC3  774   5.063   2.721   0.062
    2SER     BB  775   5.296   3.366   0.172
    2SER    SC1  776   5.523   3.395   0.266
    3TYR     BB  777   5.108   3.407   7.901
    3TYR    SC1  778   5.180   3.416   7.591
    3TYR    SC2  779   5.063   3.506   7.365
    3TYR    SC3  780   5.331   3.470   7.374
    1TYR     BB  781   0.411   6.924   1.800
    1TYR    SC1  782   0.401   6.616   1.745
    1TYR    SC2  783   0.534   6.392   1.671
    1TYR    SC3  784   0.285   6.374   1.774
    2SER     BB  785   0.754   6.971   1.866
    2SER    SC1  786   0.822   7.197   1.948
    3TYR     BB  787   0.884   6.695   1.880
    3TYR    SC1  788   0.723   6.522   2.071
    3TYR    SC2  789   0.697   6.269   2.161
    3TYR    SC3  790   0.489   6.441   2.179
    1TYR     BB  791   1.624   3.470   5.323
    1TYR    SC1  792   1.884   3.464   5.490
    1TYR    SC2  793   2.096   3.499   5.654
    1TYR    SC3  794   1.989   3.253   5.623
    2SER     BB  795   1.387   3.425   5.563
    2SER    SC1  796   1.150   3.470   5.483
    3TYR     BB  797   1.530   3.330   5.838
    3TYR    SC1  798   1.796   3.320   6.023
    3TYR    SC2  799   1.886   3.182   6.237
    3TYR    SC3  800   2.058   3.328   6.090
    1TYR     BB  801   6.940   5.482   4.315
    1TYR    SC1  802   6.879   5.419   4.607
    1TYR    SC2  803   7.006   5.312   4.820
    1TYR    SC3  804   6.743   5.373   4.836
    2SER     BB  805   7.237   5.679   4.385
    2SER    SC1  806   7.412   5.614   4.229
    3TYR     BB  807   7.255   5.881   4.629
    3TYR    SC1  808   7.131   5.762   4.884
    3TYR    SC2  809   7.192   5.617   5.103
    3TYR    SC3  810   6.943   5.717   5.072
    1TYR     BB  811   5.177   7.084   5.694
    1TYR    SC1  812   4.896   7.185   5.648
    1TYR    SC2  813   4.684   7.266   5.502
    1TYR    SC3  814   4.760   7.407   5.719
    2SER     BB  815   5.196   6.752   5.579
    2SER    SC1  816   5.302   6.593   5.747
    3TYR     BB  817   5.069   6.736   5.324
    3TYR    SC1  818   4.911   6.981   5.218
    3TYR    SC2  819   4.883   7.211   5.080
    3TYR    SC3  820   4.687   7.025   5.075
    1TYR     BB  821   3.543   0.730   5.350
    1TYR    SC1  822   3.436   0.853   5.088
    1TYR    SC2  823   3.249   0.887   4.895
    1TYR    SC3  824   3.478   1.030   4.888
    2SER     BB  825   3.423   0.958   5.574
    2SER    SC1  826   3.576   1.055   5.735
    3TYR     BB  827   3.119   1.005   5.483
    3TYR    SC1  828   3.141   1.206   5.243
    3TYR    SC2  829   3.199   1.339   5.015
    3TYR    SC3  830   3.041   1.454   5.202
    1TYR     BB  831   5.503   0.812   7.173
    1TYR    SC1  832   5.536   1.067   7.338
    1TYR    SC2  833   5.434   1.286   7.459
    1TYR    SC3  834   5.628   1.143   7.580
    2SER     BB  835   5.172   0.770   7.173
    2SER    SC1  836   5.077   0.583   7.042
    3TYR     BB  837   5.027   0.998   7.356
    3TYR    SC1  838   5.156   0.982   7.636
    3TYR    SC2  839   5.220   1.136   7.849
    3TYR    SC3  840   5.140   0.880   7.885
    1TYR     BB  841   3.928   0.286   3.911
    1TYR    SC1  842   4.093   0.516   3.792
    1TYR    SC2  843   4.332   0.621   3.723
    1TYR    SC3  844   4.121   0.783   3.767
    2SER     BB  845   4.084   0.004   3.759
    2SER    SC1  846   4.110   7.799   3.898
    3TYR     BB  847   4.359   0.117   3.584
    3TYR    SC1  848   4.224   0.303   3.384
    3TYR    SC2  849   4.178   0.551   3.289
    3TYR    SC3  850   4.013   0.348   3.221
    1TYR     BB  851   4.793   2.847   7.435
    1TYR    SC1  852   5.011   3.034   7.322
    1TYR    SC2  853   5.279   3.033   7.289
    1TYR    SC3  854   5.120   3.126   7.092
    2SER     BB  855   4.872   2.577   7.179
    2SER    SC1  856   4.659   2.453   7.145
    3TYR     BB  857   5.181   2.577   7.116
    3TYR    SC1  858   5.316   2.413   6.905
    3TYR    SC2  859   5.402   2.178   6.805
    3TYR    SC3  860   5.399   2.398   6.648
    1TYR     BB  861   2.658   2.894   6.141
    1TYR    SC1  862   2.943   2.948   6.278
    1TYR    SC2  863   3.080   3.048   6.487
    1TYR    SC3  864   3.178   2.837   6.351
    2SER     BB  865   2.451   3.035   6.397
    2SER    SC1  866   2.254   2.903   6.460
    3TYR     BB  867   2.627   3.226   6.588
    3TYR    SC1  868   2.812   3.175   6.823
    3TYR    SC2  869   2.834   3.159   7.091
    3TYR    SC3  870   3.048   3.109   6.935
    1TYR     BB  871   0.833   2.754   4.847
    1TYR    SC1  872   0.762   3.020   4.740
    1TYR    SC2  873   0.792   3.215   4.555
    1TYR    SC3  874   0.603   3.238   4.746
    2SER     BB  875   0.523   2.604   4.818
    2SER    SC1  876   0.471   2.433   4.990
    3TYR     BB  877   0.403   2.690   4.522
    3TYR    SC1  878   0.350   2.978   4.473
    3TYR    SC2  879   0.397   3.199   4.326
    3TYR    SC3  880   0.202   3.200   4.512
    1TYR     BB  881   2.542   2.419   3.912
    1TYR    SC1  882   2.468   2.689   3.815
    1TYR    SC2  883   2.600   2.924   3.792
    1TYR    SC3  884   2.371   2.883   3.654
    2SER     BB  885   2.862   2.421   3.754
    2SER    SC1  886   3.046   2.345   3.894
    3TYR     BB  887   2.824   2.487   3.454
    3TYR    SC1  888   2.783   2.783   3.399
    3TYR    SC2  889   2.841   3.045   3.425
    3TYR    SC3  890   2.622   2.968   3.288
    1TYR     BB  891   2.441   2.636   1.636
    1TYR    SC1  892   2.155   2.716   1.702
    1TYR    SC2  893   1.976   2.871   1.832
    1TYR    SC3  894   1.904   2.626   1.745
    2SER     BB  895   2.479   2.729   1.317
    2SER    SC1  896   2.525   2.557   1.145
    3TYR     BB  897   2.543   3.062   1.389
    3TYR    SC1  898   2.236   3.117   1.479
    3TYR    SC2  899   1.989   3.200   1.548
    3TYR    SC3  900   2.028   3.072   1.314
    1TYR     BB  901   0.584   7.039   5.261
    1TYR    SC1  902   0.567   7.224   5.508
    1TYR    SC2  903   0.433   7.427   5.626
    1TYR    SC3  904   0.636   7.305   5.756
    2SER     BB  905   0.245   6.921   5.265
    2SER    SC1  906   0.215   6.743   5.094
    3TYR     BB  907   0.091   7.043   5.532
    3TYR    SC1  908   0.274   6.985   5.779
    3TYR    SC2  909   0.379   7.012   6.026
    3TYR    SC3  910   0.506   6.861   5.842
    1TYR     BB  911   2.462   5.002   7.175
    1TYR    SC1  912   2.365   5.301   7.199
    1TYR    SC2  913   2.423   5.565   7.194
    1TYR    SC3  914   2.167   5.484   7.223
    2SER     BB  915   2.513   4.993   6.826
    2SER    SC1  916   2.313   4.920   6.706
    3TYR     BB  917   2.644   5.301   6.768
    3TYR    SC1  918   2.361   5.455   6.756
    3TYR    SC2  919   2.163   5.635   6.789
    3TYR    SC3  920   2.105   5.373   6.765
    1TYR     BB  921   1.027   1.401   7.019
    1TYR    SC1  922   1.297   1.463   6.874
    1TYR    SC2  923   1.444   1.669   6.780
    1TYR    SC3  924   1.560   1.429   6.823
    2SER     BB  925   0.824   1.648   6.905
    2SER    SC1  926   0.671   1.758   7.071
    3TYR     BB  927   0.984   1.819   6.680
    3TYR    SC1  928   1.058   2.074   6.798
    3TYR    SC2  929   0.974   2.239   6.995
    3TYR    SC3  930   1.198   2.298   6.856
    1TYR     BB  931   6.227   4.467   7.819
    1TYR    SC1  932   6.307   4.388   0.103
    1TYR    SC2  933   6.417   4.231   0.293
    1TYR    SC3  934   6.353   4.487   0.350
    2SER     BB  935   6.552   4.548   7.695
    2SER    SC1  936   6.532   4.624   7.461
    3TYR     BB  937   6.811   4.559   7.913
    3TYR    SC1  938   6.780   4.565   0.229
    3TYR    SC2  939   6.789   4.443   0.470
    3TYR    SC3  940   6.735   4.707   0.454
    1TYR     BB  941   7.791   5.280   4.297
    1TYR    SC1  942   7.942   5.315   4.559
    1TYR    SC2  943   0.194   5.311   4.657
    1TYR    SC3  944   7.994   5.418   4.804
    2SER     BB  945   7.978   5.566   4.142
    2SER    SC1  946   7.834   5.647   3.966
    3TYR     BB  947   0.214   5.691   4.325
    3TYR    SC1  948   0.263   5.761   4.624
    3TYR    SC2  949   0.239   5.774   4.893
    3TYR    SC3  950   0.460   5.871   4.772
    1TYR     BB  951   5.722   6.977   1.580
    1TYR    SC1  952   5.539   7.009   1.330
    1TYR    SC2  953   5.365   7.157   1.186
    1TYR    SC3  954   5.496   6.951   1.070
    2SER     BB  955   5.941   7.244   1.477
    2SER    SC1  956   6.129   7.161   1.334
    3TYR     BB  957   5.713   7.496   1.313
    3TYR    SC1  958   5.761   7.364   1.035
    3TYR    SC2  959   5.972   7.407   0.873
    3TYR    SC3  960   5.858   7.163   0.884
    1TYR     BB  961   3.028   1.089   0.420
    1TYR    SC1  962   2.873   1.301   0.256
    1TYR    SC2  963   2.695   1.501   0.220
    1TYR    SC3  964   2.942   1.520   0.114
    2SER     BB  965   3.354   1.287   0.356
    2SER    SC1  966   3.430   1.198   0.139
    3TYR     BB  967   3.352   1.653   0.390
    3TYR    SC1  968   3.406   1.694   0.083
    3TYR    SC2  969   3.573   1.608   7.889
    3TYR    SC3  970   3.309   1.633   7.838
    1TYR     BB  971   4.445   2.303   5.782
    1TYR    SC1  972   4.345   2.018   5.710
    1TYR    SC2  973   4.211   1.798   5.788
    1TYR    SC3  974   4.456   1.774   5.679
    2SER     BB  975   4.797   2.226   5.764
    2SER    SC1  976   4.944   2.428   5.793
    3TYR     BB  977   4.882   1.927   5.909
    3TYR    SC1  978   4.719   1.828   6.158
    3TYR    SC2  979   4.554   1.655   6.282
    3TYR    SC3  980   4.678   1.848   6.424
    1TYR     BB  981   4.351   5.227   3.223
    1TYR    SC1  982   4.155   5.408   3.058
    1TYR    SC2  983   3.904   5.369   2.966
    1TYR    SC3  984   4.075   5.525   2.828
    2SER     BB  985   4.210   5.343   3.532
    2SER    SC1  986   4.309   5.568   3.575
    3TYR     BB  987   3.840   5.406   3.515
    3TYR    SC1  988   3.807   5.661   3.336
    3TYR    SC2  989   3.717   5.915   3.312
    3TYR    SC3  990   3.769   5.769   3.091
    1TYR     BB  991   4.365   5.347   1.996
    1TYR    SC1  992   4.618   5.475   1.872
    1TYR    SC2  993   4.835   5.635   1.852
    1TYR    SC3  994   4.866   5.370   1.894
    2SER     BB  995   4.561   5.252   2.291
    2SER    SC1  996   4.483   5.043   2.394
    3TYR     BB  997   4.740   5.544   2.364
    3TYR    SC1  998   5.024   5.575   2.263
    3TYR    SC2  999   5.210   5.709   2.121
    3TYR    SC3 1000   5.263   5.461   2.212
    4W        W 1001   0.412   1.842   2.467
    5W        W 1002   5.160   0.102   1.437
    6W        W 1003   5.823   7.781   4.152
    7W        W 1004   3.400   7.383   2.248
    8W        W 1005   2.669   3.468   3.182
    9W        W 1006   3.240   5.750   3.256
   10W        W 1007   3.530   6.589   2.752
   11W        W 1008   3.192   3.701   5.963
   12W        W 1009   3.642   2.637   5.303
   13W        W 1010   6.445   2.609   3.332
   14W        W 1011   0.912   6.516   5.914
   15W        W 1012   3.412   6.549   4.817
   16W        W 1013   7.024   3.464   3.573
   17W        W 1014   6.054   6.398   3.260
   18W        W 1015   4.005   1.971   1.021
   19W        W 1016   4.558   4.233   4.040
   20W        W 1017   3.511   5.780   3.727
   21W        W 1018   2.622   6.078   3.651
   22W        W 1019   5.441   4.308   0.413
   23W        W 1020   4.090   5.200   1.600
   24W        W 1021   0.029   3.273   4.018
   25W        W 1022   2.178   5.716   5.093
   26W        W 1023   5.432   2.676   5.744
   27W        W 1024   1.520   4.346   3.701
   28W        W 1025   3.205   2.505   5.530
   29W        W 1026   0.453   6.751   3.663
   30W        W 1027   0.994   7.374   5.300
   31W        W 1028   7.745   1.731   2.977
   32W        W 1029   0.293   4.814   3.932
   33W        W 1030   7.365   6.464   5.678
   34W        W 1031   3.534   1.933   1.202
   35W        W 1032   4.216   5.991   1.345
   36W        W 1033   3.409   3.921   2.690
   37W        W 1034   3.745   3.171   0.545
   38W        W 1035   2.575   7.178   2.812
   39W        W 1036   1.392   7.280   4.975
   40W        W 1037   5.843   1.091   4.290
   41W        W 1038   7.794   6.769   2.849
   42W        W 1039   3.462   4.344   6.970
   43W        W 1040   7.675   2.935   3.919
   44W        W 1041   4.686   2.324   6.240
   45W        W 1042   4.523   6.325   2.467
   46W        W 1043   5.702   4.257   5.066
   47W        W 1044   5.856   1.413   2.995
   48W        W 1045   5.252   5.934   6.330
   49W        W 1046   0.641   2.046   6.137
   50W        W 1047   4.684   1.078   7.732
   51W        W 1048   1.667   5.213   2.244
   52W        W 1049   2.978   7.027   1.013
   53W        W 1050   1.270   3.180   4.080
   54W        W 1051   3.684   0.043   1.546
   55W        W 1052   6.998   1.724   4.076
   56W        W 1053   1.510   1.070   3.689
   57W        W 1054   1.137   7.055   1.540
   58W        W 1055   2.230   6.515   4.411
   59W        W 1056   4.932   6.014   0.497
   60W        W 1057   2.351   4.336   2.905
   61W        W 1058   6.470   1.646   4.834
   62W        W 1059   0.939   1.539   7.501
   63W        W 1060   1.443   6.901   0.752
   64W        W 1061   2.319   7.055   1.733
   65W        W 1062   6.336   3.540   3.717
   66W        W 1063   3.410   3.654   4.407
   67W        W 1064   3.503   3.590   4.902
   68W        W 1065   6.625   6.186   2.734
   69W        W 1066   6.630   0.647   0.305
   70W        W 1067   3.490   1.220   7.559
   71W        W 1068   5.974   1.182   0.294
   72W        W 1069   5.736   4.871   6.993
   73W        W 1070   6.081   5.226   0.190
   74W        W 1071   5.875   5.323   6.687
   75W        W 1072   1.993   1.732   1.674
   76W        W 1073   0.234   0.904   7.562
   77W        W 1074   5.939   2.105   2.300
   78W        W 1075   5.299   5.904   4.051
   79W        W 1076   1.680   2.141   6.854
   80W        W 1077   5.182   2.730   1.627
   81W        W 1078   6.188   7.752   0.557
   82W        W 1079   1.210   4.307   2.948
   83W        W 1080   0.458   0.739   0.859
   84W        W 1081   0.634   1.798   4.703
   85W        W 1082   1.791   1.055   7.067
   86W        W 1083   4.022   4.107   4.180
   87W        W 1084   2.085   4.930   5.551
   88W        W 1085   0.269   6.442   1.257
   89W        W 1086   5.679   6.742   2.771
   90W        W 1087   6.094   5.600   5.357
   91W        W 1088   5.167   3.830   4.742
   92W        W 1089   2.324   3.455   1.138
   93W        W 1090   5.240   5.105   4.221
   94W        W 1091   1.752   0.647   1.049
   95W        W 1092   5.880   4.179   1.410
   96W        W 1093   2.609   2.332   1.997
   97W        W 1094   6.327   0.359   2.325
   98W        W 1095   0.554   4.346   3.839
   99W        W 1096   2.173   4.313   5.935
  100W        W 1097   2.317   4.559   4.794
  101W        W 1098   3.689   4.660   4.917
  102W        W 1099   3.596   5.662   5.660
  103W        W 1100   0.470   3.597   3.305
  104W        W 1101   5.931   6.715   1.174
  105W        W 1102   3.890   0.771   4.219
  106W        W 1103   3.583   5.229   4.903
  107W        W 1104   7.849   6.201   1.497
  108W        W 1105   4.246   0.895   7.556
  109W        W 1106   0.988   3.256   0.899
  110W        W 1107   5.398   7.155   5.258
  111W        W 1108   1.250   0.420   3.153
  112W        W 1109   0.725   6.767   1.403
  113W        W 1110   2.025   0.845   5.945
  114W        W 1111   3.814   2.287   4.053
  115W        W 1112   5.503   0.498   6.781
  116W        W 1113   0.757   0.936   0.348
  117W        W 1114   2.479   7.056   6.359
  118W        W 1115   3.800   4.636   3.045
  119W        W 1116   3.808   4.577   7.324
  120W        W 1117   2.523   4.924   3.496
  121W        W 1118   3.131   4.515   2.007
  122W        W 1119   0.956   5.752   4.832
  123W        W 1120   6.740   3.094   4.988
  124W        W 1121   4.018   5.012   5.098
  125W        W 1122   5.601   7.008   7.629
  126W        W 1123   3.411   0.710   2.092
  127W        W 1124   5.891   3.623   3.970
  128W        W 1125   3.209   2.597   2.184
  129W        W 1126   7.364   5.847   3.771
  130W        W 1127   4.150   2.967   5.946
  131W        W 1128   6.997   5.410   2.295
  132W        W 1129   6.604   7.614   5.956
  133W        W 1130   0.761   5.480   3.484
  134W        W 1131   4.557   5.359   2.781
  135W        W 1132   4.511   1.943   0.868
  136W        W 1133   1.084   2.072   5.845
  137W        W 1134   3.324   4.326   2.992
  138W        W 1135   0.889   5.280   2.653
  139W        W 1136   2.887   3.795   1.820
  140W        W 1137   3.688   4.369   2.618
  141W        W 1138   3.026   1.194   4.567
  142W        W 1139   6.968   5.202   1.256
  143W        W 1140   4.882   3.121   1.506
  144W        W 1141   4.025   3.229   1.315
  145W        W 1142   2.696   6.852   3.755
  146W        W 1143   4.995   7.302   7.140
  147W        W 1144   6.252   6.014   3.010
  148W        W 1145   7.699   1.360   0.986
  149W        W 1146   0.419   4.831   2.045
  150W        W 1147   4.936   4.988   5.997
  151W        W 1148   3.845   7.336   3.182
  152W        W 1149   7.051   3.246   7.137
  153W        W 1150   4.453   3.369   2.176
  154W        W 1151   5.428   5.832   0.484
  155W        W 1152   0.419   1.349   6.817
  156W        W 1153   7.913   3.452   4.891
  157W        W 1154   7.136   1.869   5.731
  158W        W 1155   2.596   4.602   1.275
  159W        W 1156   0.840   5.517   6.229
  160W        W 1157   0.982   0.816   6.446
  161W        W 1158   7.305   5.128   4.391
  162W        W 1159   0.302   5.958   1.424
  163W        W 1160   3.915   7.385   2.358
  164W        W 1161   6.209   3.737   0.472
  165W        W 1162   5.657   0.902   0.012
  166W        W 1163   2.956   5.825   1.810
  167W        W 1164   2.263   5.714   2.926
  168W        W 1165   7.341   6.458   6.733
  169W        W 1166   3.756   1.307   4.208
  170W        W 1167   3.697   3.335   0.055
  171W        W 1168   0.140   6.779   3.234
  172W        W 1169   3.786   3.534   0.896
  173W        W 1170   7.875   1.312   0.489
  174W        W 1171   1.744   6.321   5.004
  175W        W 1172   2.884   6.537   2.121
  176W        W 1173   6.291   5.357   1.168
  177W        W 1174   6.191   2.616   2.895
  178W        W 1175   6.184   1.060   7.744
  179W        W 1176   7.080   4.935   6.753
  180W        W 1177   3.315   3.999   3.461
  181W        W 1178   3.666   0.132   3.507
  182W        W 1179   5.203   2.144   7.872
  183W        W 1180   4.563   3.718   6.312
  184W        W 1181   3.301   4.879   4.684
  185W        W 1182   6.060   3.416   4.752
  186W        W 1183   2.490   3.661   2.160
  187W        W 1184   1.104   1.270   5.140
  188W        W 1185   2.936   7.357   2.497
  189W        W 1186   1.359   6.654   1.798
  190W        W 1187   0.736   2.161   3.578
  191W        W 1188   3.624   4.601   3.952
  192W        W 1189   3.180   1.543   1.148
  193W        W 1190   1.666   3.715   2.360
  194W        W 1191   7.113   4.094   2.022
  195W        W 1192   2.860   2.886   0.978
  196W        W 1193   1.399   2.508   2.442
  197W        W 1194   0.031   2.211   5.201
  198W        W 1195   1.966   0.499   4.378
  199W        W 1196   2.826   6.650   0.702
  200W        W 1197   0.380   2.014   1.664
  201W        W 1198   5.782   6.207   2.881
  202W        W 1199   5.273   7.382   4.808
  203W        W 1200   6.037   2.379   4.917
  204W        W 1201   6.159   7.255   4.808
  205W        W 1202   3.522   4.154   4.246
  206W        W 1203   5.645   6.616   4.629
  207W        W 1204   3.253   2.495   7.601
  208W        W 1205   0.974   4.458   0.838
  209W        W 1206   3.722   2.464   1.798
  210W        W 1207   1.406   3.390   3.146
  211W        W 1208   7.257   0.617   7.048
  212W        W 1209   7.955   1.016   2.846
  213W        W 1210   5.299   6.418   3.973
  214W        W 1211   6.450   1.329   6.194
  215W        W 1212   5.677   0.586   4.841
  216W        W 1213   5.613   7.565   7.612
  217W        W 1214   2.401   6.484   4.882
  218W        W 1215   0.646   7.252   0.919
  219W        W 1216   0.116   7.242   4.498
  220W        W 1217   1.063   3.434   6.550
  221W        W 1218   3.931   0.508   1.276
  222W        W 1219   7.482   5.127   3.357
  223W        W 1220   3.800   2.037   5.966
  224W        W 1221   6.121   7.530   7.658
  225W        W 1222   1.214   4.968   2.950
  226W        W 1223   3.670   1.010   3.819
  227W        W 1224   1.734   4.349   2.150
  228W        W 1225   6.361   7.261   0.014
  229W        W 1226   1.754   5.132   1.744
  230W        W 1227   3.678   4.146   3.764
  231W        W 1228   3.006   2.127   2.249
  232W        W 1229   3.112   6.489   5.240
  233W        W 1230   6.672   1.960   0.369
  234W        W 1231   6.857   6.902   0.897
  235W        W 1232   5.835   3.143   6.509
  236W        W 1233   7.752   2.276   6.687
  237W        W 1234   1.183   4.308   4.922
  238W        W 1235   4.931   6.056   2.975
  239W        W 1236   1.265   2.613   0.425
  240W        W 1237   1.562   3.820   0.968
  241W        W 1238   2.495   5.311   4.289
  242W        W 1239   2.765   0.028   3.153
  243W        W 1240   6.545   3.533   4.832
  244W        W 1241   4.987   0.654   6.040
  245W        W 1242   2.050   2.693   4.047
  246W        W 1243   1.163   3.723   3.952
  247W        W 1244   6.083   4.312   3.052
  248W        W 1245   2.031   4.188   3.699
  249W        W 1246   1.488   2.858   7.415
  250W        W 1247   7.143   7.522   2.790
  251W        W 1248   0.783   0.802   2.083
  252W        W 1249   3.681   4.512   1.213
  253W        W 1250   2.830   4.173   4.151
  254W        W 1251   4.661   5.975   1.571
  255W        W 1252   1.445   1.661   5.306
  256W        W 1253   3.397   0.625   3.990
  257W        W 1254   3.210   7.877   1.484
  258W        W 1255   2.381   3.384   5.235
  259W        W 1256   0.972   4.644   2.668
  260W        W 1257   2.118   1.225   3.749
  261W        W 1258   5.103   6.763   1.368
  262W        W 1259   5.961   5.033   4.758
  263W        W 1260   5.786   3.621   2.615
  264W        W 1261   3.646   6.651   6.378
  265W        W 1262   5.772   4.936   2.631
  266W        W 1263   7.636   5.545   2.998
  267W        W 1264   6.043   4.556   6.700
  268W        W 1265   1.692   5.152   0.721
  269W        W 1266   0.507   0.932   3.816
  270W        W 1267   0.923   4.097   2.071
  271W        W 1268   7.021   5.120   3.557
  272W        W 1269   4.043   5.456   3.989
  273W        W 1270   7.749   5.290   5.211
  274W        W 1271   7.757   5.794   4.542
  275W        W 1272   4.030   5.952   3.717
  276W        W 1273   5.010   4.372   7.095
  277W        W 1274   1.437   3.446   1.542
  278W        W 1275   1.711   3.954   5.395
  279W        W 1276   6.660   7.380   2.597
  280W        W 1277   1.249   5.486   3.639
  281W        W 1278   5.215   3.864   0.227
  282W        W 1279   6.470   5.827   4.999
  283W        W 1280   3.062   4.425   6.615
  284W        W 1281   4.670   3.683   1.389
  285W        W 1282   5.680   6.077   7.784
  286W        W 1283   2.926   4.297   3.392
  287W        W 1284   4.252   1.277   5.108
  288W        W 1285   3.785   3.673   1.390
  289W        W 1286   2.624   2.576   2.954
  290W        W 1287   3.742   7.559   0.807
  291W        W 1288   5.948   5.857   5.762
  292W        W 1289   0.543   6.749   0.928
  293W        W 1290   1.585   1.631   1.157
  294W        W 1291   1.743   1.776   7.194
  295W        W 1292   6.682   5.423   3.349
  296W        W 1293   2.792   4.009   6.607
  297W        W 1294   0.794   5.143   2.161
  298W        W 1295   7.696   4.196   2.263
  299W        W 1296   2.984   1.992   3.522
  300W        W 1297   6.171   1.145   1.249
  301W        W 1298   0.503   4.299   3.328
  302W        W 1299   1.960   2.180   6.424
  303W        W 1300   3.278   4.114   1.684
  304W        W 1301   4.646   6.805   1.162
  305W        W 1302   6.747   4.195   1.257
  306W        W 1303   2.478   2.488   5.782
  307W        W 1304   6.395   0.610   6.758
  308W        W 1305   0.604   3.684   6.580
  309W        W 1306   1.893   1.170   6.306
  310W        W 1307   6.096   6.936   7.742
  311W        W 1308   6.960   6.816   4.421
  312W        W 1309   4.704   4.228   6.513
  313W        W 1310   2.843   4.263   2.867
  314W        W 1311   6.772   1.152   0.581
  315W        W 1312   1.739   1.390   2.536
  316W        W 1313   3.846   0.827   3.010
  317W        W 1314   7.413   6.806   5.268
  318W        W 1315   2.344   7.169   3.575
  319W        W 1316   6.727   1.846   7.796
  320W        W 1317   1.038   4.056   7.145
  321W        W 1318   5.533   5.004   3.817
  322W        W 1319   0.604   2.161   6.630
  323W        W 1320   7.044   5.238   5.375
  324W        W 1321   2.971   5.668   6.902
  325W        W 1322   7.037   3.991   0.885
  326W        W 1323   6.582   6.938   0.429
  327W        W 1324   5.252   1.404   7.019
  328W        W 1325   6.569   4.017   0.718
  329W        W 1326   1.212   4.989   2.401
  330W        W 1327   4.981   2.232   3.352
  331W        W 1328   3.300   5.778   2.340
  332W        W 1329   6.301   4.102   6.640
  333W        W 1330   1.895   6.453   5.639
  334W        W 1331   0.961   2.181   5.363
  335W        W 1332   1.476   4.138   2.558
  336W        W 1333   2.131   1.950   4.652
  337W        W 1334   6.248   1.138   6.683
  338W        W 1335   1.548   6.426   2.626
  339W        W 1336   0.884   1.908   0.917
  340W        W 1337   2.737   1.496   6.366
  341W        W 1338   7.535   4.518   5.559
  342W        W 1339   6.587   0.994   5.382
  343W        W 1340   2.955   3.638   6.959
  344W        W 1341   6.335   7.587   7.193
  345W        W 1342   6.023   6.184   7.432
  346W        W 1343   7.909   2.990   0.810
  347W        W 1344   2.614   5.087   1.386
  348W        W 1345   5.602   2.967   1.850
  349W        W 1346   5.832   3.194   2.906
  350W        W 1347   7.733   3.787   4.479
  351W        W 1348   4.626   2.810   4.456
  352W        W 1349   0.930   4.688   1.915
  353W        W 1350   4.489   7.330   7.036
  354W        W 1351   2.554   6.130   6.300
  355W        W 1352   6.497   1.658   1.827
  356W        W 1353   5.979   3.150   3.823
  357W        W 1354   4.911   5.158   6.928
  358W        W 1355   4.133   2.804   0.502
  359W        W 1356   4.502   1.545   2.201
  360W        W 1357   0.084   2.332   4.335
  361W        W 1358   7.210   2.958   4.847
  362W        W 1359   4.159   5.014   5.591
  363W        W 1360   5.106   1.368   0.506
  364W        W 1361   4.591   3.847   2.269
  365W        W 1362   6.396   2.275   2.526
  366W        W 1363   1.919   4.217   0.609
  367W        W 1364   2.351   2.997   0.912
  368W        W 1365   2.987   3.578   4.766
  369W        W 1366   7.909   4.031   4.903
  370W        W 1367   5.857   5.712   7.458
  371W        W 1368   5.616   1.705   5.110
  372W        W 1369   5.167   3.752   2.767
  373W        W 1370   7.548   3.463   6.312
  374W        W 1371   4.464   4.914   3.721
  375W        W 1372   5.271   0.185   0.953
  376W        W 1373   1.010   2.198   3.155
  377W        W 1374   6.466   4.937   4.948
  378W        W 1375   4.481   0.853   6.708
  379W        W 1376   1.166   6.476   0.826
  380W        W 1377   2.118   4.853   1.333
  381W        W 1378   2.451   4.022   2.519
  382W        W 1379   0.264   0.957   3.294
  383W        W 1380   7.183   1.234   0.904
  384W        W 1381   5.587   7.287   6.438
  385W        W 1382   0.833   2.791   2.529
  386W        W 1383   1.612   4.843   3.675
  387W        W 1384   7.000   6.630   0.472
  388W        W 1385   3.787   5.411   4.416
  389W        W 1386   6.513   2.051   1.511
  390W        W 1387   6.139   3.898   2.180
  391W        W 1388   3.181   1.389   3.389
  392W        W 1389   0.003   3.262   1.557
  393W        W 1390   0.155   1.423   1.236
  394W        W 1391   0.787   0.782   5.248
  395W        W 1392   5.199   6.849   7.313
  396W        W 1393   1.403   4.632   3.273
  397W        W 1394   0.002   2.540   4.810
  398W        W 1395   2.951   4.178   7.057
  399W        W 1396   0.910   7.356   3.119
  400W        W 1397   6.328   5.896   6.142
  401W        W 1398   1.221   3.945   4.570
  402W        W 1399   3.869   2.152   5.467
  403W        W 1400   0.996   5.978   0.777
  404W        W 1401   0.581   1.979   5.653
  405W        W 1402   3.172   6.816   3.492
  406W        W 1403   2.425   3.444   0.628
  407W        W 1404   7.734   1.839   5.080
  408W        W 1405   6.598   3.707   6.543
  409W        W 1406   4.697   0.989   1.286
  410W        W 1407   4.035   1.656   4.824
  411W        W 1408   5.993   2.033   7.211
  412W        W 1409   2.087   0.875   0.682
  413W        W 1410   3.749   1.991   0.566
  414W        W 1411   6.615   4.927   5.450
  415W        W 1412   0.892   2.068   4.139
  416W        W 1413   7.637   2.292   2.530
  417W        W 1414   2.618   1.954   7.250
  418W        W 1415   0.634   3.929   4.103
  419W        W 1416   6.314   1.205   3.380
  420W        W 1417   3.350   2.384   4.323
  421W        W 1418   4.618   3.424   7.140
  422W        W 1419   5.191   3.255   1.914
  423W        W 1420   0.517   6.544   5.464
  424W        W 1421   3.412   6.469   3.221
  425W        W 1422   6.978   7.824   6.805
  426W        W 1423   0.815   3.606   2.086
  427W        W 1424   7.031   1.348   7.050
  428W        W 1425   0.811   2.000   1.413
  429W        W 1426   6.589   4.711   6.683
  430W        W 1427   1.599   4.747   5.492
  431W        W 1428   5.942   0.549   6.489
  432W        W 1429   5.372   3.063   5.407
  433W        W 1430   1.949   5.017   7.096
  434W        W 1431   6.377   6.263   4.771
  435W        W 1432   0.634   2.200   0.585
  436W        W 1433   2.624   3.404   6.102
  437W        W 1434   7.596   4.655   1.589
  438W        W 1435   4.356   6.297   4.343
  439W        W 1436   4.261   6.659   2.171
  440W        W 1437   4.983   4.082   5.539
  441W        W 1438   0.643   0.738   7.285
  442W        W 1439   1.026   1.111   1.301
  443W        W 1440   3.920   4.312   7.813
  444W        W 1441   2.975   0.266   4.046
  445W        W 1442   1.307   5.471   4.568
  446W        W 1443   3.022   0.600   1.425
  447W        W 1444   5.022   6.968   0.870
  448W        W 1445   1.430   5.612   5.575
  449W        W 1446   3.292   3.931   6.726
  450W        W 1447   6.105   3.544   5.620
  451W        W 1448   5.040   3.373   4.060
  452W        W 1449   2.462   1.758   1.494
  453W        W 1450   5.505   7.278   7.205
  454W        W 1451   0.319   3.030   2.403
  455W        W 1452   7.610   3.440   3.203
  456W        W 1453   0.243   0.908   7.006
  457W        W 1454   3.255   1.742   2.025
  458W        W 1455   1.399   2.309   7.331
  459W        W 1456   5.688   2.105   0.599
  460W        W 1457   6.703   3.855   3.566
  461W        W 1458   6.704   6.067   5.363
  462W        W 1459   7.572   0.822   6.675
  463W        W 1460   4.424   1.417   3.183
  464W        W 1461   6.930   5.880   2.468
  465W        W 1462   0.695   6.365   0.625
  466W        W 1463   3.238   3.848   3.950
  467W        W 1464   2.685   4.559   4.440
  468W        W 1465   7.843   7.167   6.121
  469W        W 1466   1.614   7.219   2.426
  470W        W 1467   1.574   2.968   5.420
  471W        W 1468   4.787   2.293   0.126
  472W        W 1469   3.117   1.951   4.321
  473W        W 1470   0.054   1.633   1.695
  474W        W 1471   2.555   3.188   2.386
  475W        W 1472   6.145   7.239   0.451
  476W        W 1473   6.984   2.661   5.592
  477W        W 1474   2.471   3.586   4.775
  478W        W 1475   6.584   2.912   5.437
  479W        W 1476   1.522   3.271   1.062
  480W        W 1477   1.445   1.076   2.219
  481W        W 1478   7.307   1.822   4.794
  482W        W 1479   7.471   3.761   4.932
  483W        W 1480   0.411   4.509   4.322
  484W        W 1481   0.160   3.244   3.124
  485W        W 1482   4.337   7.028   6.610
  486W        W 1483   3.766   2.556   7.697
  487W        W 1484   4.789   3.552   1.856
  488W        W 1485   3.249   6.960   5.134
  489W        W 1486   4.200   4.599   4.880
  490W        W 1487   4.719   4.188   2.612
  491W        W 1488   6.949   7.455   6.329
  492W        W 1489   5.284   2.628   1.118
  493W        W 1490   2.277   5.430   1.535
  494W        W 1491   6.586   6.813   7.902
  495W        W 1492   6.176   3.988   3.507
  496W        W 1493   2.101   2.781   5.479
  497W        W 1494   1.873   2.108   3.379
  498W        W 1495   1.881   2.420   5.784
  499W        W 1496   5.757   3.392   5.213
  500W        W 1497   6.593   2.539   3.815
  501W        W 1498   3.140   6.997   4.014
  502W        W 1499   4.776   1.018   4.443
  503W        W 1500   3.690   3.234   4.575
  504W        W 1501   2.934   1.356   2.941
  505W        W 1502   5.016   6.935   3.242
  506W        W 1503   0.219   6.175   5.254
  507W        W 1504   5.029   6.498   2.384
  508W        W 1505   3.445   3.480   2.260
  509W        W 1506   1.618   1.970   4.621
  510W        W 1507   1.506   4.526   1.297
  511W        W 1508   7.041   7.594   3.284
  512W        W 1509   7.855   3.580   6.715
  513W        W 1510   7.171   4.782   2.720
  514W        W 1511   4.262   3.802   0.137
  515W        W 1512   1.248   2.947   4.578
  516W        W 1513   6.595   7.475   6.724
  517W        W 1514   6.817   7.418   7.197
  518W        W 1515   0.191   6.398   0.755
  519W        W 1516   7.571   0.536   5.812
  520W        W 1517   5.979   5.840   4.925
  521W        W 1518   0.707   0.603   4.372
  522W        W 1519   6.360   7.765   0.059
  523W        W 1520   5.755   6.159   0.276
  524W        W 1521   4.366   3.025   1.645
  525W        W 1522   2.625   3.570   2.694
  526W        W 1523   4.851   2.876   1.068
  527W        W 1524   7.338   0.318   6.211
  528W        W 1525   6.096   0.935   1.702
  529W        W 1526   0.234   2.983   4.980
  530W        W 1527   6.462   4.700   4.071
  531W        W 1528   5.334   3.965   7.194
  532W        W 1529   1.164   5.934   5.257
  533W        W 1530   4.818   7.239   0.023
  534W        W 1531   1.700   6.433   6.488
  535W        W 1532   7.057   4.202   6.084
  536W        W 1533   7.488   5.177   2.457
  537W        W 1534   0.194   3.514   2.695
  538W        W 1535   0.550   3.592   0.909
  539W        W 1536   6.251   2.147   3.046
  540W        W 1537   4.035   1.637   7.643
  541W        W 1538   3.281   1.466   5.648
  542W        W 1539   5.511   3.511   1.107
  543W        W 1540   7.804   3.914   6.292
  544W        W 1541   3.613   7.011   6.030
  545W        W 1542   6.461   5.368   7.319
  546W        W 1543   5.542   5.631   7.955
  547W        W 1544   7.292   2.371   7.000
  548W        W 1545   4.791   5.471   5.288
  549W        W 1546   0.009   2.282   3.207
  550W        W 1547   3.496   4.042   1.188
  551W        W 1548   3.167   5.316   3.607
  552W        W 1549   0.377   4.338   1.929
  553W        W 1550   0.427   4.177   5.575
  554W        W 1551   1.520   0.932   5.979
  555W        W 1552   2.793   2.134   2.690
  556W        W 1553   7.439   5.503   2.054
  557W        W 1554   5.770   0.717   0.474
  558W        W 1555   7.766   2.317   7.206
  559W        W 1556   5.137   3.537   1.474
  560W        W 1557   3.142   6.938   4.621
  561W        W 1558   1.605   2.841   5.897
  562W        W 1559   4.011   2.404   0.770
  563W        W 1560   5.172   5.058   6.464
  564W        W 1561   0.290   0.940   4.338
  565W        W 1562   4.825   5.999   5.063
  566W        W 1563   2.584   0.818   5.817
  567W        W 1564   7.265   4.660   5.966
  568W        W 1565   7.880   5.619   6.560
  569W        W 1566   4.045   7.137   0.698
  570W        W 1567   2.363   1.228   6.023
  571W        W 1568   2.136   2.821   3.161
  572W        W 1569   1.632   5.180   6.723
  573W        W 1570   4.639   1.354   5.449
  574W        W 1571   4.958   5.210   3.075
  575W        W 1572   5.594   3.564   6.373
  576W        W 1573   7.168   3.070   1.290
  577W        W 1574   3.319   7.373   1.647
  578W        W 1575   4.253   3.993   6.631
  579W        W 1576   1.199   7.878   5.027
  580W        W 1577   3.565   4.632   5.906
  581W        W 1578   5.729   1.444   1.192
  582W        W 1579   6.797   4.497   4.743
  583W        W 1580   5.248   1.112   6.202
  584W        W 1581   4.705   6.469   1.520
  585W        W 1582   2.254   3.166   4.051
  586W        W 1583   5.299   7.047   6.797
  587W        W 1584   1.397   2.445   4.671
  588W        W 1585   5.312   6.438   6.250
  589W        W 1586   6.620   0.800   7.806
  590W        W 1587   2.624   4.418   6.193
  591W        W 1588   6.060   1.177   7.275
  592W        W 1589   5.006   3.133   4.530
  593W        W 1590   5.333   1.774   1.199
  594W        W 1591   6.056   3.428   6.146
  595W        W 1592   2.068   7.237   6.631
  596W        W 1593   3.001   5.765   3.748
  597W        W 1594   3.359   2.332   3.484
  598W        W 1595   5.050   4.788   1.560
  599W        W 1596   0.011   6.681   6.095
  600W        W 1597   0.217   2.257   5.920
  601W        W 1598   6.965   4.367   2.935
  602W        W 1599   2.751   1.238   6.810
  603W        W 1600   5.327   0.477   2.157
  604W        W 1601   3.262   2.621   6.825
  605W        W 1602   3.757   0.653   4.698
  606W        W 1603   0.769   5.440   6.772
  607W        W 1604   6.640   4.058   7.874
  608W        W 1605   4.899   5.087   4.910
  609W        W 1606   1.412   7.131   5.475
  610W        W 1607   3.856   3.674   6.857
  611W        W 1608   1.287   4.911   1.590
  612W        W 1609   5.810   6.337   4.081
  613W        W 1610   2.227   1.760   3.216
  614W        W 1611   6.625   0.233   7.923
  615W        W 1612   7.760   3.065   6.076
  616W        W 1613   4.741   4.786   7.240
  617W        W 1614   5.511   5.571   3.108
  618W        W 1615   2.882   3.689   4.265
  619W        W 1616   3.115   4.616   5.606
  620W        W 1617   7.507   2.737   6.592
  621W        W 1618   3.795   5.111   5.919
  622W        W 1619   0.643   3.076   3.272
  623W        W 1620   1.061   3.079   0.437
  624W        W 1621   7.965   4.290   5.399
  625W        W 1622   3.667   1.819   4.260
  626W        W 1623   2.578   6.134   4.504
  627W        W 1624   6.532   1.269   7.124
  628W        W 1625   5.121   4.760   4.571
  629W        W 1626   7.651   6.893   5.716
  630W        W 1627   6.573   5.426   5.325
  631W        W 1628   3.245   0.668   6.459
  632W        W 1629   3.316   1.177   0.830
  633W        W 1630   2.604   2.552   4.788
  634W        W 1631   4.227   6.857   7.069
  635W        W 1632   7.334   6.847   3.694
  636W        W 1633   5.232   4.764   5.061
  637W        W 1634   5.841   4.683   1.440
  638W        W 1635   4.210   5.945   3.225
  639W        W 1636   0.855   1.059   0.827
  640W        W 1637   3.523   0.793   1.555
  641W        W 1638   3.865   6.126   5.001
  642W        W 1639   2.757   1.527   4.292
  643W        W 1640   7.765   1.038   5.181
  644W        W 1641   0.761   7.184   4.343
  645W        W 1642   7.985   5.866   3.198
  646W        W 1643   2.069   3.802   0.872
  647W        W 1644   4.545   7.206   0.843
  648W        W 1645   3.207   6.514   4.339
  649W        W 1646   5.474   5.461   6.425
  650W        W 1647   1.152   3.781   2.412
  651W        W 1648   0.560   1.565   1.527
  652W        W 1649   6.698   4.397   1.739
  653W        W 1650   6.911   6.245   5.785
  654W        W 1651   5.450   1.465   6.541
  655W        W 1652   1.789   5.426   3.682
  656W        W 1653   1.507   3.035   1.810
  657W        W 1654   1.549   3.905   6.608
  658W        W 1655   1.041   3.321   6.008
  659W        W 1656   4.990   5.128   2.561
  660W        W 1657   1.756   2.522   0.508
  661W        W 1658   0.068   5.948   1.879
  662W        W 1659   4.578   6.683   3.306
  663W        W 1660   1.446   4.997   4.422
  664W        W 1661   3.094   4.541   6.100
  665W        W 1662   7.093   0.635   6.554
  666W        W 1663   4.724   6.501   5.085
  667W        W 1664   2.967   5.175   4.922
  668W        W 1665   3.168   2.630   2.683
  669W        W 1666   3.064   0.330   2.259
  670W        W 1667   6.533   1.003   2.441
  671W        W 1668   2.264   5.920   5.927
  672W        W 1669   3.933   1.248   7.309
  673W        W 1670   5.400   1.344   2.266
  674W        W 1671   0.986   5.967   3.888
  675W        W 1672   4.518   4.537   2.295
  676W        W 1673   5.486   5.730   3.609
  677W        W 1674   3.443   2.610   4.811
  678W        W 1675   3.290   3.133   0.788
  679W        W 1676   3.285   5.345   5.296
  680W        W 1677   3.448   6.077   2.868
  681W        W 1678   7.516   2.583   4.669
  682W        W 1679   5.605   3.186   4.782
  683W        W 1680   3.600   6.268   0.669
  684W        W 1681   4.255   0.851   6.061
  685W        W 1682   3.849   4.240   6.121
  686W        W 1683   4.910   3.154   2.376
  687W        W 1684   1.574   1.562   3.686
  688W        W 1685   0.363   3.485   2.231
  689W        W 1686   6.074   5.377   4.141
  690W        W 1687   2.996   3.563   6.436
  691W        W 1688   6.506   0.828   1.954
  692W        W 1689   4.596   2.740   0.302
  693W        W 1690   3.638   1.072   2.612
  694W        W 1691   5.572   6.537   3.215
  695W        W 1692   3.988   4.702   0.173
  696W        W 1693   1.377   4.324   5.379
  697W        W 1694   7.101   3.015   2.678
  698W        W 1695   4.861   6.201   4.123
  699W        W 1696   5.644   4.542   3.712
  700W        W 1697   7.626   1.452   3.474
  701W        W 1698   0.162   2.199   0.811
  702W        W 1699   3.201   4.322   2.463
  703W        W 1700   6.864   2.924   3.621
  704W        W 1701   6.209   4.983   6.515
  705W        W 1702   5.025   5.599   2.781
  706W        W 1703   4.750   1.952   2.315
  707W        W 1704   3.314   7.054   6.440
  708W        W 1705   0.805   1.714   3.377
  709W        W 1706   6.154   6.111   5.337
  710W        W 1707   1.149   3.058   1.343
  711W        W 1708   3.433   1.418   2.950
  712W        W 1709   1.317   3.467   2.059
  713W        W 1710   7.903   1.340   6.831
  714W        W 1711   6.142   0.212   0.080
  715W        W 1712   5.030   6.957   2.126
  716W        W 1713   4.448   7.505   2.987
  717W        W 1714   2.726   2.709   6.672
  718W        W 1715   5.795   5.473   4.560
  719W        W 1716   2.807   1.624   5.587
  720W        W 1717   6.706   6.443   1.902
  721W        W 1718   5.325   2.315   2.938
  722W        W 1719   4.276   2.004   4.062
  723W        W 1720   0.360   1.242   0.255
  724W        W 1721   5.794   5.738   1.768
  725W        W 1722   0.369   2.429   5.484
  726W        W 1723   3.115   1.897   1.495
  727W        W 1724   0.632   2.296   2.572
  728W        W 1725   5.636   2.663   7.340
  729W        W 1726   1.619   3.863   3.737
  730W        W 1727   3.543   7.000   1.915
  731W        W 1728   6.308   3.111   5.806
  732W        W 1729   3.990   4.218   7.007
  733W        W 1730   2.400   5.071   2.299
  734W        W 1731   5.694   7.298   4.059
  735W        W 1732   3.376   6.057   1.617
  736W        W 1733   3.779   3.833   7.932
  737W        W 1734   4.839   0.119   7.222
  738W        W 1735   2.525   6.426   4.005
  739W        W 1736   3.911   7.961   1.977
  740W        W 1737   5.035   2.682   3.130
  741W        W 1738   5.688   7.842   0.870
  742W        W 1739   4.713   2.386   7.644
  743W        W 1740   3.540   3.702   3.126
  744W        W 1741   0.960   1.793   2.354
  745W        W 1742   3.406   5.969   6.882
  746W        W 1743   1.716   1.658   3.203
  747W        W 1744   7.263   1.751   1.477
  748W        W 1745   2.223   3.658   3.003
  749W        W 1746   7.585   2.002   5.523
  750W        W 1747   7.178   2.494   4.309
  751W        W 1748   3.176   1.059   1.291
  752W        W 1749   6.745   3.991   4.707
  753W        W 1750   2.802   1.897   1.092
  754W        W 1751   7.057   6.421   0.978
  755W        W 1752   3.441   0.464   5.772
  756W        W 1753   6.013   1.806   4.281
  757W        W 1754   7.106   5.508   6.481
  758W        W 1755   0.892   7.165   4.839
  759W        W 1756   1.793   3.597   1.857
  760W        W 1757   4.714   5.806   3.733
  761W        W 1758   4.150   4.571   5.885
  762W        W 1759   3.400   7.842   1.948
  763W        W 1760   2.207   2.202   1.624
  764W        W 1761   3.296   5.749   4.198
  765W        W 1762   1.252   5.256   1.968
  766W        W 1763   1.012   6.364   4.220
  767W        W 1764   5.921   4.746   0.107
  768W        W 1765   4.140   4.968   2.811
  769W        W 1766   3.185   4.352   3.852
  770W        W 1767   3.166   1.183   2.542
  771W        W 1768   4.778   0.958   1.776
  772W        W 1769   0.376   5.161   3.540
  773W        W 1770   4.762   6.999   7.534
  774W        W 1771   5.747   1.872   1.468
  775W        W 1772   6.362   7.490   5.239
  776W        W 1773   3.861   6.336   3.059
  777W        W 1774   0.513   5.941   6.929
  778W        W 1775   3.753   0.601   2.552
  779W        W 1776   5.606   3.881   6.763
  780W        W 1777   1.785   6.700   6.073
  781W        W 1778   6.550   6.154   6.713
  782W        W 1779   4.215   2.541   1.681
  783W        W 1780   4.264   4.860   1.981
  784W        W 1781   3.906   4.260   5.129
  785W        W 1782   4.191   4.139   2.424
  786W        W 1783   7.704   6.110   5.456
  787W        W 1784   6.457   0.701   1.427
  788W        W 1785   6.482   7.995   6.774
  789W        W 1786   3.502   2.049   4.681
  790W        W 1787   5.171   0.106   6.832
  791W        W 1788   7.328   2.019   4.334
  792W        W 1789   1.124   2.341   0.832
  793W        W 1790   5.756   6.275   5.033
  794W        W 1791   3.354   6.631   2.274
  795W        W 1792   6.401   2.722   4.995
  796W        W 1793   6.323   2.143   5.802
  797W        W 1794   6.885   6.225   4.906
  798W        W 1795   1.728   5.618   6.508
  799W        W 1796   0.586   4.340   1.154
  800W        W 1797   3.891   6.106   6.734
  801W        W 1798   1.393   2.116   5.061
  802W        W 1799   6.998   6.496   5.326
  803W        W 1800   3.996   5.213   2.406
  804W        W 1801   2.547   1.679   2.830
  805W        W 1802   2.839   6.744   5.656
  806W        W 1803   1.537   4.073   3.267
  807W        W 1804   3.852   6.240   1.625
  808W        W 1805   5.831   3.823   1.800
  809W        W 1806   2.402   5.616   2.408
  810W        W 1807   1.449   6.875   3.673
  811W        W 1808   1.514   6.231   3.084
  812W        W 1809   5.706   4.211   3.350
  813W        W 1810   3.948   6.569   4.721
  814W        W 1811   7.163   0.032   3.016
  815W        W 1812   7.522   2.365   6.246
  816W        W 1813   4.015   1.359   2.283
  817W        W 1814   3.826   2.751   7.215
  818W        W 1815   3.060   3.152   1.371
  819W        W 1816   6.733   3.986   6.969
  820W        W 1817   3.617   1.590   0.837
  821W        W 1818   4.991   1.742   0.821
  822W        W 1819   4.112   1.491   0.979
  823W        W 1820   4.033   1.635   6.228
  824W        W 1821   6.705   3.308   2.760
  825W        W 1822   2.033   5.649   5.577
  826W        W 1823   5.497   4.755   1.835
  827W        W 1824   5.704   3.724   5.912
  828W        W 1825   0.290   3.084   3.625
  829W        W 1826   3.037   1.158   7.766
  830W        W 1827   0.800   2.923   4.169
  831W        W 1828   4.733   7.029   3.680
  832W        W 1829   2.619   6.274   5.805
  833W        W 1830   3.677   0.409   6.575
  834W        W 1831   6.977   0.006   5.987
  835W        W 1832   5.684   6.132   6.081
  836W        W 1833   6.721   2.300   4.252
  837W        W 1834   1.979   4.149   2.578
  838W        W 1835   2.093   2.225   3.848
  839W        W 1836   3.879   5.050   7.044
  840W        W 1837   6.336   3.243   6.599
  841W        W 1838   1.453   2.547   1.950
  842W        W 1839   5.256   2.171   0.847
  843W        W 1840   3.826   1.139   0.739
  844W        W 1841   7.813   3.005   3.424
  845W        W 1842   4.924   3.480   5.495
  846W        W 1843   6.933   2.877   2.226
  847W        W 1844   7.467   3.343   4.662
  848W        W 1845   4.053   3.119   6.906
  849W        W 1846   1.221   0.911   3.302
  850W        W 1847   0.718   0.421   6.223
  851W        W 1848   2.107   1.485   6.987
  852W        W 1849   3.287   3.613   1.002
  853W        W 1850   5.591   2.522   7.903
  854W        W 1851   0.209   2.758   3.217
  855W        W 1852   1.320   4.819   6.845
  856W        W 1853   6.536   3.663   2.434
  857W        W 1854   4.942   4.593   0.523
  858W        W 1855   6.876   6.612   1.418
  859W        W 1856   4.139   4.363   1.955
  860W        W 1857   4.047   1.659   5.357
  861W        W 1858   0.491   5.191   6.417
  862W        W 1859   3.950   7.973   1.120
  863W        W 1860   0.553   3.418   6.136
  864W        W 1861   3.010   7.775   0.762
  865W        W 1862   0.785   0.905   5.989
  866W        W 1863   7.085   6.359   2.567
  867W        W 1864   3.405   2.126   6.689
  868W        W 1865   1.144   3.218   7.239
  869W        W 1866   1.075   0.751   1.660
  870W        W 1867   4.656   0.939   5.748
  871W        W 1868   5.279   5.283   5.213
  872W        W 1869   3.440   4.761   2.362
  873W        W 1870   5.782   2.715   1.178
  874W        W 1871   5.307   2.366   0.335
  875W        W 1872   0.177   1.432   2.667
  876W        W 1873   6.459   4.445   2.752
  877W        W 1874   3.536   6.695   3.892
  878W        W 1875   2.855   6.959   6.688
  879W        W 1876   0.860   0.519   0.085
  880W        W 1877   3.216   6.690   6.068
  881W        W 1878   3.452   3.438   5.603
  882W        W 1879   4.538   5.436   4.865
  883W        W 1880   3.284   5.349   4.496
  884W        W 1881   6.886   6.539   6.553
  885W        W 1882   4.528   2.713   3.038
  886W        W 1883   2.914   6.095   4.122
  887W        W 1884   2.944   6.544   7.019
  888W        W 1885   0.379   0.446   5.333
  889W        W 1886   3.762   2.836   1.460
  890W        W 1887   1.889   1.410   5.297
  891W        W 1888   4.177   2.313   3.677
  892W        W 1889   1.270   0.805   0.993
  893W        W 1890   6.439   7.215   0.875
  894W        W 1891   4.990   3.372   0.989
  895W        W 1892   6.615   3.452   6.988
  896W        W 1893   7.504   6.685   6.145
  897W        W 1894   5.258   5.208   7.885
  898W        W 1895   4.540   3.133   5.641
  899W        W 1896   3.032   6.511   3.874
  900W        W 1897   6.330   1.631   0.024
  901W        W 1898   1.240   5.519   6.542
  902W        W 1899   0.035   7.087   2.497
  903W        W 1900   2.385   3.167   2.886
  904W        W 1901   6.491   6.483   5.221
  905W        W 1902   5.238   4.745   6.838
  906W        W 1903   4.224   5.845   6.460
  907W        W 1904   4.461   5.522   1.406
  908W        W 1905   0.085   4.463   3.639
  909W        W 1906   6.694   2.394   2.946
  910W        W 1907   1.443   2.384   6.058
  911W        W 1908   4.589   5.561   7.218
  912W        W 1909   6.932   6.410   3.071
  913W        W 1910   5.458   4.164   5.789
  914W        W 1911   6.534   1.366   0.977
  915W        W 1912   0.302   3.405   5.278
  916W        W 1913   4.060   3.445   7.293
  917W        W 1914   6.712   7.943   7.244
  918W        W 1915   5.198   6.867   4.845
  919W        W 1916   0.186   4.485   4.784
  920W        W 1917   0.327   4.595   5.265
  921W        W 1918   4.304   4.734   3.241
  922W        W 1919   3.282   5.325   0.628
  923W        W 1920   3.244   2.820   3.149
  924W        W 1921   3.563   0.251   2.228
  925W        W 1922   6.854   1.896   4.535
  926W        W 1923   2.512   1.532   3.818
  927W        W 1924   5.860   5.917   3.314
  928W        W 1925   4.879   5.746   1.177
  929W        W 1926   6.715   3.299   3.960
  930W        W 1927   0.467   3.389   1.751
  931W        W 1928   5.580   1.990   4.150
  932W        W 1929   6.613   6.291   3.858
  933W        W 1930   7.662   4.814   6.401
  934W        W 1931   4.046   3.547   3.055
  935W        W 1932   6.313   2.828   1.202
  936W        W 1933   7.785   4.343   6.617
  937W        W 1934   0.833   0.645   1.206
  938W        W 1935   7.810   6.942   3.942
  939W        W 1936   1.326   5.137   5.358
  940W        W 1937   6.829   3.872   1.648
  941W        W 1938   2.831   4.688   4.945
  942W        W 1939   6.949   6.038   3.560
  943W        W 1940   0.315   3.172   1.135
  944W        W 1941   1.467   5.940   1.603
  945W        W 1942   3.949   0.888   5.118
  946W        W 1943   4.286   5.922   6.983
  947W        W 1944   5.240   7.624   1.005
  948W        W 1945   3.444   1.814   3.403
  949W        W 1946   6.663   4.990   0.904
  950W        W 1947   6.552   6.023   2.182
  951W        W 1948   3.233   4.416   4.835
  952W        W 1949   0.137   2.794   1.401
  953W        W 1950   5.416   3.077   0.801
  954W        W 1951   7.924   5.272   5.700
  955W        W 1952   5.867   0.883   0.945
  956W        W 1953   3.641   2.627   2.459
  957W        W 1954   2.692   4.987   3.961
  958W        W 1955   5.653   2.973   2.394
  959W        W 1956   6.267   6.079   4.182
  960W        W 1957   3.043   3.837   3.058
  961W        W 1958   5.367   0.245   7.290
  962W        W 1959   4.472   7.051   5.959
  963W        W 1960   3.011   2.831   4.061
  964W        W 1961   4.746   2.984   1.956
  965W        W 1962   4.176   4.130   3.702
  966W        W 1963   2.515   6.038   1.505
  967W        W 1964   0.820   5.633   2.259
  968W        W 1965   4.590   2.658   5.451
  969W        W 1966   2.031   5.288   1.084
  970W        W 1967   1.980   4.429   5.473
  971W        W 1968   6.614   3.718   1.200
  972W        W 1969   7.483   5.773   6.282
  973W        W 1970   7.449   6.091   1.155
  974W        W 1971   4.564   4.423   3.563
  975W        W 1972   4.328   3.015   7.344
  976W        W 1973   1.150   5.914   4.379
  977W        W 1974   6.110   7.016   3.929
  978W        W 1975   3.539   0.790   7.879
  979W        W 1976   3.292   4.847   5.185
  980W        W 1977   7.236   4.313   2.489
  981W        W 1978   2.217   1.060   2.255
  982W        W 1979   3.046   5.778   2.769
  983W        W 1980   6.565   3.374   6.162
  984W        W 1981   4.865   7.262   1.269
  985W        W 1982   1.816   5.628   4.765
  986W        W 1983   4.978   6.475   0.204
  987W        W 1984   4.367   6.336   2.958
  988W        W 1985   5.356   4.826   0.327
  989W        W 1986   5.985   6.463   7.863
  990W        W 1987   6.259   7.572   2.846
  991W        W 1988   0.885   4.630   3.166
  992W        W 1989   2.179   0.396   3.890
  993W        W 1990   5.062   5.968   4.572
  994W        W 1991   5.048   4.109   0.670
  995W        W 1992   5.604   2.052   1.924
  996W        W 1993   2.928   3.699   3.549
  997W        W 1994   3.829   7.921   6.746
  998W        W 1995   5.342   3.084   3.050
  999W        W 1996   6.166   4.807   2.965
 1000W        W 1997   5.591   5.448   4.017
 1001W        W 1998   5.047   4.374   1.157
 1002W        W 1999   6.202   5.467   1.656
 1003W        W 2000   7.932   7.610   6.447
 1004W        W 2001   7.273   1.193   5.266
 1005W        W 2002   7.636   2.398   4.099
 1006W        W 2003   4.017   6.207   5.757
 1007W        W 2004   2.357   4.826   5.985
 1008W        W 2005   1.396   5.529   5.059
 1009W        W 2006   5.001   4.462   3.842
 1010W        W 2007   3.586   6.178   5.473
 1011W        W 2008   1.710   3.241   4.661
 1012W        W 2009   2.161   4.590   6.370
 1013W        W 2010   4.629   4.669   1.283
 1014W        W 2011   3.865   2.365   0.229
 1015W        W 2012   5.805   5.455   1.336
 1016W        W 2013   5.466   2.230   3.423
 1017W        W 2014   6.882   0.579   3.544
 1018W        W 2015   7.226   4.462   5.109
 1019W        W 2016   1.850   6.834   2.647
 1020W        W 2017   2.496   5.195   6.297
 1021W        W 2018   2.720   4.199   4.809
 1022W        W 2019   0.389   1.386   4.574
 1023W        W 2020   0.986   3.287   1.744
 1024W        W 2021   3.620   5.027   2.752
 1025W        W 2022   1.871   3.287   2.927
 1026W        W 2023   4.340   7.137   3.316
 1027W        W 2024   6.934   5.562   3.791
 1028W        W 2025   3.685   3.217   5.183
 1029W        W 2026   5.273   6.000   6.856
 1030W        W 2027   5.381   3.473   4.444
 1031W        W 2028   4.626   0.711   7.228
 1032W        W 2029   0.577   4.034   6.956
 1033W        W 2030   4.847   0.616   2.153
 1034W        W 2031   1.304   4.115   6.207
 1035W        W 2032   2.437   6.398   7.088
 1036W        W 2033   5.269   6.061   0.074
 1037W        W 2034   3.262   5.016   1.956
 1038W        W 2035   4.632   1.451   1.040
 1039W        W 2036   1.572   6.190   7.231
 1040W        W 2037   2.958   6.138   6.689
 1041W        W 2038   5.294   6.268   5.337
 1042W        W 2039   0.760   2.444   5.810
 1043W        W 2040   3.280   0.475   6.938
 1044W        W 2041   1.413   1.582   2.121
 1045W        W 2042   1.467   1.820   2.580
 1046W        W 2043   1.966   2.827   7.198
 1047W        W 2044   5.831   1.627   2.127
 1048W        W 2045   5.260   1.857   0.356
 1049W        W 2046   2.950   4.776   1.612
 1050W        W 2047   6.429   6.980   5.218
 1051W        W 2048   5.106   4.728   2.918
 1052W        W 2049   0.732   3.909   3.613
 1053W        W 2050   5.323   6.504   6.785
 1054W        W 2051   5.953   1.536   6.506
 1055W        W 2052   7.460   2.576   3.322
 1056W        W 2053   6.423   1.659   3.618
 1057W        W 2054   1.376   2.616   6.502
 1058W        W 2055   0.378   4.075   4.564
 1059W        W 2056   5.936   3.837   3.063
 1060W        W 2057   0.434   1.504   5.527
 1061W        W 2058   0.294   4.750   3.236
 1062W        W 2059   3.727   2.992   5.648
 1063W        W 2060   5.120   6.219   1.388
 1064W        W 2061   4.127   2.185   7.063
 1065W        W 2062   0.404   3.562   3.830
 1066W        W 2063   0.909   3.462   3.082
 1067W        W 2064   1.532   4.397   4.565
 1068W        W 2065   0.723   1.538   5.949
 1069W        W 2066   5.333   4.784   3.398
 1070W        W 2067   5.296   0.626   5.210
 1071W        W 2068   1.208   4.515   7.238
 1072W        W 2069   5.094   1.118   5.284
 1073W        W 2070   0.475   1.917   5.171
 1074W        W 2071   1.285   7.004   0.253
 1075W        W 2072   5.209   1.812   1.691
 1076W        W 2073   6.485   3.552   1.908
 1077W        W 2074   3.380   1.983   3.880
 1078W        W 2075   1.235   6.592   3.284
 1079W        W 2076   0.100   0.850   0.506
 1080W        W 2077   4.848   2.371   1.088
 1081W        W 2078   7.942   1.041   0.028
 1082W        W 2079   1.049   2.777   1.767
 1083W        W 2080   1.475   4.787   2.029
 1084W        W 2081   0.501   4.678   1.556
 1085W        W 2082   2.142   5.230   4.939
 1086W        W 2083   3.110   7.820   2.355
 1087W        W 2084   6.708   1.411   4.442
 1088W        W 2085   5.976   1.846   3.787
 1089W        W 2086   1.394   3.089   6.291
 1090W        W 2087   2.834   3.389   0.938
 1091W        W 2088   6.051   1.821   2.714
 1092W        W 2089   0.562   0.485   4.854
 1093W        W 2090   0.673   3.737   5.284
 1094W        W 2091   1.114   1.894   4.560
 1095W        W 2092   5.957   1.867   0.956
 1096W        W 2093   4.316   1.297   1.433
 1097W        W 2094   7.370   0.872   6.150
 1098W        W 2095   2.285   1.506   5.605
 1099W        W 2096   4.952   6.015   2.465
 1100W        W 2097   7.815   7.319   6.854
 1101W        W 2098   0.903   6.851   0.571
 1102W        W 2099   7.256   3.676   5.457
 1103W        W 2100   0.544   1.802   3.858
 1104W        W 2101   6.214   5.001   7.581
 1105W        W 2102   1.518   2.104   2.983
 1106W        W 2103   2.937   1.361   2.103
 1107W        W 2104   5.734   6.334   5.602
 1108W        W 2105   0.911   5.879   3.192
 1109W        W 2106   6.380   4.286   4.897
 1110W        W 2107   6.111   7.499   3.782
 1111W        W 2108   3.920   0.678   5.709
 1112W        W 2109   2.541   1.404   7.256
 1113W        W 2110   6.121   3.336   7.062
 1114W        W 2111   5.029   3.468   3.182
 1115W        W 2112   7.539   2.329   5.113
 1116W        W 2113   7.510   7.748   6.825
 1117W        W 2114   0.593   5.932   1.834
 1118W        W 2115   6.016   2.898   4.708
 1119W        W 2116   3.902   1.183   7.841
 1120W        W 2117   3.334   0.137   2.682
 1121W        W 2118   3.515   3.004   2.148
 1122W        W 2119   6.521   4.284   3.776
 1123W        W 2120   3.820   4.431   0.737
 1124W        W 2121   3.697   6.308   3.602
 1125W        W 2122   0.506   1.601   2.027
 1126W        W 2123   6.305   2.477   7.156
 1127W        W 2124   3.067   6.321   2.583
 1128W        W 2125   1.242   6.789   7.681
 1129W        W 2126   4.153   5.701   0.423
 1130W        W 2127   6.190   2.061   0.506
 1131W        W 2128   3.588   6.489   6.862
 1132W        W 2129   6.885   7.324   4.375
 1133W        W 2130   7.335   2.341   5.783
 1134W        W 2131   4.804   3.399   5.992
 1135W        W 2132   3.062   1.716   6.045
 1136W        W 2133   4.153   6.759   4.294
 1137W        W 2134   4.782   6.362   4.606
 1138W        W 2135   7.886   1.842   2.503
 1139W        W 2136   6.501   5.395   7.910
 1140W        W 2137   1.571   3.051   0.541
 1141W        W 2138   0.263   2.989   6.225
 1142W        W 2139   4.250   2.666   6.956
 1143W        W 2140   3.358   6.562   1.754
 1144W        W 2141   3.019   2.759   4.572
 1145W        W 2142   7.910   4.841   5.418
 1146W        W 2143   7.427   4.299   1.090
 1147W        W 2144   6.486   1.762   4.144
 1148W        W 2145   3.855   5.439   1.991
 1149W        W 2146   4.066   2.474   2.182
 1150W        W 2147   2.755   3.116   4.814
 1151W        W 2148   3.501   4.498   6.397
 1152W        W 2149   2.720   1.965   4.028
 1153W        W 2150   5.191   2.575   7.600
 1154W        W 2151   5.016   5.452   6.183
 1155W        W 2152   7.205   6.037   5.378
 1156W        W 2153   5.892   1.452   7.865
 1157W        W 2154   0.531   6.517   4.357
 1158W        W 2155   7.374   2.948   4.355
 1159W        W 2156   4.579   4.790   5.701
 1160W        W 2157   2.073   6.787   1.348
 1161W        W 2158   4.675   5.098   6.429
 1162W        W 2159   3.652   1.316   5.276
 1163W        W 2160   6.575   2.390   5.386
 1164W        W 2161   7.407   2.795   5.301
 1165W        W 2162   4.177   3.347   3.498
 1166W        W 2163   1.649   5.158   4.842
 1167W        W 2164   4.316   7.605   5.879
 1168W        W 2165   0.816   1.362   3.786
 1169W        W 2166   1.017   2.294   6.326
 1170W        W 2167   3.528   4.968   3.571
 1171W        W 2168   1.384   6.019   6.474
 1172W        W 2169   0.563   5.610   3.952
 1173W        W 2170   2.423   4.031   1.825
 1174W        W 2171   5.850   4.974   5.741
 1175W        W 2172   4.315   1.777   3.566
 1176W        W 2173   6.821   2.719   4.617
 1177W        W 2174   7.552   2.184   3.011
 1178W        W 2175   0.166   4.129   4.072
 1179W        W 2176   4.417   3.448   5.260
 1180W        W 2177   3.266   3.012   5.380
 1181W        W 2178   2.535   1.018   4.529
 1182W        W 2179   2.901   6.469   4.747
 1183W        W 2180   0.798   4.005   4.877
 1184W        W 2181   0.262   1.748   6.007
 1185W        W 2182   1.611   2.378   0.982
 1186W        W 2183   3.734   2.826   2.917
 1187W        W 2184   7.036   3.166   5.433
 1188W        W 2185   7.560   5.004   1.975
 1189W        W 2186   0.778   6.383   3.402
 1190W        W 2187   5.782   5.205   7.770
 1191W        W 2188   1.410   1.560   4.814
 1192W        W 2189   4.372   2.285   1.237
 1193W        W 2190   1.232   1.295   4.054
 1194W        W 2191   3.976   0.646   0.720
 1195W        W 2192   7.433   5.198   1.518
 1196W        W 2193   5.156   2.146   4.395
 1197W        W 2194   5.871   7.162   6.005
 1198W        W 2195   0.986   6.052   2.488
 1199W        W 2196   1.824   7.008   7.017
 1200W        W 2197   5.867   5.100   1.709
 1201W        W 2198   6.733   4.943   7.130
 1202W        W 2199   4.163   3.603   2.521
 1203W        W 2200   6.713   4.504   5.786
 1204W        W 2201   6.195   3.145   5.180
 1205W        W 2202   7.376   6.055   2.270
 1206W        W 2203   4.458   4.194   5.095
 1207W        W 2204   6.701   2.762   6.452
 1208W        W 2205   3.360   6.410   1.266
 1209W        W 2206   6.054   5.637   7.901
 1210W        W 2207   1.286   2.821   0.908
 1211W        W 2208   6.238   2.872   6.276
 1212W        W 2209   1.949   6.872   0.861
 1213W        W 2210   2.873   6.558   1.215
 1214W        W 2211   4.039   7.071   1.994
 1215W        W 2212   3.950   4.993   3.819
 1216W        W 2213   6.152   5.674   2.134
 1217W        W 2214   1.821   2.271   2.570
 1218W        W 2215   2.537   6.376   2.450
 1219W        W 2216   3.615   2.497   5.823
 1220W        W 2217   6.366   2.929   4.082
 1221W        W 2218   2.278   3.584   1.664
 1222W        W 2219   0.034   1.396   3.188
 1223W        W 2220   1.134   7.419   5.800
 1224W        W 2221   6.134   5.863   6.625
 1225W        W 2222   2.022   4.121   7.271
 1226W        W 2223   5.226   3.604   3.623
 1227W        W 2224   3.809   0.463   1.814
 1228W        W 2225   4.228   4.553   5.387
 1229W        W 2226   7.323   0.413   2.692
 1230W        W 2227   5.410   5.900   2.698
 1231W        W 2228   4.386   3.897   2.861
 1232W        W 2229   1.792   5.881   2.876
 1233W        W 2230   6.767   0.440   7.448
 1234W        W 2231   2.938   0.850   2.260
 1235W        W 2232   4.067   5.920   4.574
 1236W        W 2233   3.668   2.728   3.418
 1237W        W 2234   0.489   5.984   0.946
 1238W        W 2235   0.684   5.094   3.094
 1239W        W 2236   5.631   2.474   1.608
 1240W        W 2237   3.695   0.641   3.486
 1241W        W 2238   3.541   2.490   6.354
 1242W        W 2239   6.253   1.292   2.094
 1243W        W 2240   0.268   5.280   5.299
 1244W        W 2241   4.506   2.607   0.794
 1245W        W 2242   0.204   3.963   3.582
 1246W        W 2243   2.399   1.503   4.678
 1247W        W 2244   6.084   3.417   3.306
 1248W        W 2245   4.765   1.946   4.176
 1249W        W 2246   6.823   1.945   2.342
 1250W        W 2247   6.418   5.264   2.903
 1251W        W 2248   5.470   0.588   7.642
 1252W        W 2249   0.977   1.233   2.974
 1253W        W 2250   0.108   5.408   6.170
 1254W        W 2251   1.915   3.723   6.927
 1255W        W 2252   4.714   6.543   2.009
 1256W        W 2253   0.831   3.536   0.484
 1257W        W 2254   6.148   6.323   0.535
 1258W        W 2255   1.881   4.772   4.580
 1259W        W 2256   3.875   1.152   1.685
 1260W        W 2257   5.909   2.420   3.292
 1261W        W 2258   2.036   7.009   2.186
 1262W        W 2259   2.215   5.788   1.169
 1263W        W 2260   0.473   1.015   2.796
 1264W        W 2261   3.800   4.294   5.619
 1265W        W 2262   3.757   1.555   5.782
 1266W        W 2263   6.542   0.109   0.412
 1267W        W 2264   3.510   2.206   2.167
 1268W        W 2265   0.236   6.628   2.592
 1269W        W 2266   5.988   2.577   2.440
 1270W        W 2267   6.618   4.018   2.076
 1271W        W 2268   2.035   4.082   3.195
 1272W        W 2269   6.069   5.337   2.534
 1273W        W 2270   3.900   7.764   7.223
 1274W        W 2271   3.895   3.323   6.459
 1275W        W 2272   3.302   4.841   3.117
 1276W        W 2273   5.377   4.902   5.570
 1277W        W 2274   0.744   0.461   5.698
 1278W        W 2275   3.122   1.683   2.540
 1279W        W 2276   4.277   5.411   5.308
 1280W        W 2277   2.492   6.202   1.978
 1281W        W 2278   5.517   4.451   7.179
 1282W        W 2279   5.157   6.618   4.407
 1283W        W 2280   3.513   2.344   0.887
 1284W        W 2281   1.080   4.348   5.797
 1285W        W 2282   0.440   7.646   6.553
 1286W        W 2283   4.012   5.491   4.871
 1287W        W 2284   2.287   0.646   4.754
 1288W        W 2285   4.043   6.385   7.148
 1289W        W 2286   1.187   0.780   4.288
 1290W        W 2287   5.617   6.799   4.062
 1291W        W 2288   1.119   3.048   2.880
 1292W        W 2289   8.000   4.066   5.850
 1293W        W 2290   3.617   4.078   4.746
 1294W        W 2291   1.246   2.948   2.238
 1295W        W 2292   3.508   2.131   7.871
 1296W        W 2293   0.180   5.618   3.599
 1297W        W 2294   0.260   1.174   1.751
 1298W        W 2295   1.969   7.738   2.783
 1299W        W 2296   1.699   0.916   5.487
 1300W        W 2297   0.350   7.356   6.948
 1301W        W 2298   3.524   7.118   0.607
 1302W        W 2299   5.879   7.220   2.804
 1303W        W 2300   0.760   5.145   3.886
 1304W        W 2301   6.913   5.043   5.860
 1305W        W 2302   2.730   2.116   6.157
 1306W        W 2303   1.345   0.821   2.799
 1307W        W 2304   4.564   5.352   3.985
 1308W        W 2305   6.504   2.177   2.010
 1309W        W 2306   2.871   2.673   7.173
 1310W        W 2307   6.801   1.079   3.542
 1311W        W 2308   6.222   4.001   2.661
 1312W        W 2309   4.953   1.414   6.480
 1313W        W 2310   4.128   7.460   1.118
 1314W        W 2311   4.645   7.042   2.910
 1315W        W 2312   0.094   1.477   5.127
 1316W        W 2313   4.058   0.354   2.251
 1317W        W 2314   4.328   7.839   6.947
 1318W        W 2315   2.839   2.827   5.609
 1319W        W 2316   5.390   0.382   0.508
 1320W        W 2317   3.185   1.997   7.460
 1321W        W 2318   0.115   4.943   4.962
 1322W        W 2319   7.784   6.510   5.141
 1323W        W 2320   2.400   4.905   0.909
 1324W        W 2321   5.910   0.729   7.453
 1325W        W 2322   2.549   3.380   3.666
 1326W        W 2323   6.204   1.396   4.484
 1327W        W 2324   6.934   0.584   6.081
 1328W        W 2325   5.097   5.469   3.872
 1329W        W 2326   6.040   4.925   3.848
 1330W        W 2327   6.350   3.858   5.960
 1331W        W 2328   7.747   1.853   6.981
 1332W        W 2329   0.942   5.115   4.382
 1333W        W 2330   7.631   1.265   6.366
 1334W        W 2331   4.963   5.114   0.530
 1335W        W 2332   3.751   7.492   1.891
 1336W        W 2333   6.773   7.843   5.527
 1337W        W 2334   1.546   2.371   1.490
 1338W        W 2335   4.021   0.778   6.514
 1339W        W 2336   7.369   4.525   2.029
 1340W        W 2337   4.438   0.113   6.004
 1341W        W 2338   1.920   2.317   7.260
 1342W        W 2339   1.204   3.883   5.220
 1343W        W 2340   4.365   1.785   1.341
 1344W        W 2341   2.834   6.817   2.538
 1345W        W 2342   2.964   1.893   6.562
 1346W        W 2343   2.062   3.911   2.148
 1347W        W 2344   1.392   6.681   5.720
 1348W        W 2345   0.553   6.846   6.814
 1349W        W 2346   3.816   2.863   0.956
 1350W        W 2347   4.598   1.970   6.986
 1351W        W 2348   3.177   5.279   6.640
 1352W        W 2349   5.763   1.055   6.440
 1353W        W 2350   2.220   1.547   2.430
 1354W        W 2351   4.035   6.016   2.718
 1355W        W 2352   2.124   6.249   3.757
 1356W        W 2353   3.643   6.245   4.480
 1357W        W 2354   4.672   6.684   4.173
 1358W        W 2355   2.188   6.400   6.082
 1359W        W 2356   6.181   6.799   0.732
 1360W        W 2357   1.977   3.592   4.947
 1361W        W 2358   5.543   6.510   1.421
 1362W        W 2359   1.821   4.715   6.700
 1363W        W 2360   3.337   2.853   7.268
 1364W        W 2361   6.319   5.344   3.700
 1365W        W 2362   1.684   6.717   3.103
 1366W        W 2363   3.608   5.775   0.416
 1367W        W 2364   6.630   2.310   4.850
 1368W        W 2365   5.688   6.164   6.580
 1369W        W 2366   1.509   7.119   5.973
 1370W        W 2367   0.700   1.471   1.061
 1371W        W 2368   5.648   3.490   7.775
 1372W        W 2369   4.651   5.577   0.504
 1373W        W 2370   1.150   3.633   1.189
 1374W        W 2371   6.186   1.015   2.865
 1375W        W 2372   4.802   4.517   5.314
 1376W        W 2373   7.132   1.437   3.681
 1377W        W 2374   4.041   2.077   1.597
 1378W        W 2375   7.251   5.233   2.917
 1379W        W 2376   4.079   6.578   6.661
 1380W        W 2377   2.009   5.954   1.622
 1381W        W 2378   7.773   2.820   1.751
 1382W        W 2379   0.694   5.544   4.444
 1383W        W 2380   5.652   4.874   6.496
 1384W        W 2381   7.575   3.390   4.188
 1385W        W 2382   4.002   5.841   5.424
 1386W        W 2383   7.444   6.914   6.978
 1387W        W 2384   4.266   6.776   1.654
 1388W        W 2385   7.050   4.690   7.451
 1389W        W 2386   7.069   6.635   7.443
 1390W        W 2387   2.544   2.906   5.218
 1391W        W 2388   7.865   4.318   4.430
 1392W        W 2389   0.581   5.941   3.572
 1393W        W 2390   1.048   5.059   3.443
 1394W        W 2391   6.467   6.341   7.726
 1395W        W 2392   0.074   5.992   6.229
 1396W        W 2393   0.867   4.142   2.616
 1397W        W 2394   3.633   3.486   7.583
 1398W        W 2395   0.366   3.889   6.162
 1399W        W 2396   1.423   3.392   2.645
 1400W        W 2397   1.636   1.050   0.143
 1401W        W 2398   2.700   4.526   3.804
 1402W        W 2399   4.489   2.255   3.269
 1403W        W 2400   1.028   0.590   7.610
 1404W        W 2401   5.507   6.546   0.056
 1405W        W 2402   5.894   4.796   2.152
 1406W        W 2403   2.419   2.440   7.148
 1407W        W 2404   5.678   6.895   5.622
 1408W        W 2405   5.112   6.932   4.015
 1409W        W 2406   1.945   6.504   6.957
 1410W        W 2407   5.902   3.193   1.190
 1411W        W 2408   3.360   3.286   6.175
 1412W        W 2409   5.691   0.996   1.413
 1413W        W 2410   7.985   0.545   7.282
 1414W        W 2411   3.839   5.838   6.071
 1415W        W 2412   3.851   2.297   4.966
 1416W        W 2413   0.515   7.119   3.326
 1417W        W 2414   1.303   6.733   6.236
 1418W        W 2415   6.170   3.022   2.590
 1419W        W 2416   6.646   3.728   7.434
 1420W        W 2417   4.589   2.740   6.508
 1421W        W 2418   3.656   0.820   6.936
 1422W        W 2419   7.110   0.782   0.562
 1423W        W 2420   7.795   6.496   6.941
 1424W        W 2421   4.655   1.570   4.984
 1425W        W 2422   0.675   4.476   2.303
 1426W        W 2423   1.616   4.310   5.819
 1427W        W 2424   4.068   2.531   3.172
 1428W        W 2425   3.458   0.108   3.972
 1429W        W 2426   6.862   0.045   3.473
 1430W        W 2427   1.330   3.619   6.968
 1431W        W 2428   2.743   5.601   1.404
 1432W        W 2429   6.130   6.209   3.709
 1433W        W 2430   6.843   3.578   5.770
 1434W        W 2431   2.441   1.455   1.957
 1435W        W 2432   1.980   3.939   4.130
 1436W        W 2433   7.765   1.769   6.473
 1437W        W 2434   4.129   7.085   4.704
 1438W        W 2435   1.840   2.637   6.290
 1439W        W 2436   5.088   1.926   2.699
 1440W        W 2437   1.427   1.934   0.750
 1441W        W 2438   3.117   5.206   2.725
 1442W        W 2439   6.828   4.694   6.242
 1443W        W 2440   0.313   6.430   7.034
 1444W        W 2441   1.718   5.872   5.237
 1445W        W 2442   0.698   1.436   2.591
 1446W        W 2443   0.474   3.981   2.298
 1447W        W 2444   0.821   6.792   4.036
 1448W        W 2445   0.696   0.971   7.767
 1449W        W 2446   0.851   4.264   4.432
 1450W        W 2447   2.573   3.974   3.199
 1451W        W 2448   6.447   7.860   2.466
 1452W        W 2449   5.805   3.415   0.695
 1453W        W 2450   3.622   1.151   3.336
 1454W        W 2451   3.265   0.655   2.591
 1455W        W 2452   5.297   3.935   3.240
 1456W        W 2453   1.337   1.237   5.574
 1457W        W 2454   4.649   3.133   0.655
 1458W        W 2455   5.613   1.936   6.425
 1459W        W 2456   4.697   0.618   7.989
 1460W        W 2457   3.125   0.635   0.918
 1461W        W 2458   7.299   7.134   6.058
 1462W        W 2459   7.491   7.359   6.462
 1463W        W 2460   4.432   7.468   2.483
 1464W        W 2461   6.075   6.864   6.352
 1465W        W 2462   4.494   5.497   6.163
 1466W        W 2463   5.108   5.553   0.727
 1467W        W 2464   4.421   1.173   7.156
 1468W        W 2465   5.165   5.784   5.401
 1469W        W 2466   2.337   4.326   4.091
 1470W        W 2467   4.252   6.881   7.590
 1471W        W 2468   3.093   6.237   0.828
 1472W        W 2469   6.479   2.657   2.175
 1473W        W 2470   5.724   6.988   0.370
 1474W        W 2471   5.651   5.395   5.558
 1475W        W 2472   6.461   7.130   3.566
 1476W        W 2473   6.734   1.706   7.283
 1477W        W 2474   7.043   0.530   7.924
 1478W        W 2475   1.220   5.309   7.004
 1479W        W 2476   5.189   0.976   1.420
 1480W        W 2477   3.405   2.592   0.073
 1481W        W 2478   5.290   1.107   3.209
 1482W        W 2479   1.740   5.976   1.169
 1483W        W 2480   4.252   6.724   5.100
 1484W        W 2481   1.902   1.718   6.589
 1485W        W 2482   1.412   0.568   3.655
 1486W        W 2483   2.106   1.365   2.901
 1487W        W 2484   4.376   0.732   2.261
 1488W        W 2485   4.775   5.922   6.896
 1489W        W 2486   1.548   7.409   6.768
 1490W        W 2487   7.746   6.341   1.990
 1491W        W 2488   5.341   6.323   0.518
 1492W        W 2489   7.690   4.990   2.882
 1493W        W 2490   6.481   5.836   3.616
 1494W        W 2491   2.731   3.539   1.421
 1495W        W 2492   1.451   3.392   3.660
 1496W        W 2493   7.644   1.384   2.565
 1497W        W 2494   4.443   7.150   4.129
 1498W        W 2495   6.919   2.019   1.080
 1499W        W 2496   7.813   2.522   1.057
 1500W        W 2497   1.895   1.391   2.040
 1501W        W 2498   7.559   1.312   3.944
 1502W        W 2499   4.260   5.663   2.359
 1503W        W 2500   3.768   5.279   5.420
 1504W        W 2501   0.978   4.631   1.328
 1505W        W 2502   0.345   1.241   0.771
 1506W        W 2503   3.586   1.683   7.384
 1507W        W 2504   6.303   1.638   3.122
 1508W        W 2505   7.566   7.235   2.697
 1509W        W 2506   5.967   0.574   2.653
 1510W        W 2507   5.820   0.379   2.206
 1511W        W 2508   0.551   1.112   6.398
 1512W        W 2509   6.415   4.394   7.035
 1513W        W 2510   3.779   3.162   3.711
 1514W        W 2511   3.591   0.789   1.032
 1515W        W 2512   5.419   5.139   6.021
 1516W        W 2513   0.511   6.531   3.007
 1517W        W 2514   0.449   6.039   3.100
 1518W        W 2515   3.033   0.443   2.992
 1519W        W 2516   3.599   4.956   4.293
 1520W        W 2517   3.180   0.987   6.845
 1521W        W 2518   3.057   4.707   2.719
 1522W        W 2519   6.469   1.877   0.897
 1523W        W 2520   7.600   7.164   4.400
 1524W        W 2521   2.235   2.580   2.608
 1525W        W 2522   6.175   0.451   1.830
 1526W        W 2523   2.681   5.676   6.440
 1527W        W 2524   3.336   4.969   6.231
 1528W        W 2525   7.261   3.929   3.710
 1529W        W 2526   3.343   2.211   0.387
 1530W        W 2527   2.756   0.707   6.741
 1531W        W 2528   7.220   3.039   6.276
 1532W        W 2529   2.618   1.437   1.135
 1533W        W 2530   0.561   4.904   2.543
 1534W        W 2531   0.563   1.248   7.293
 1535W        W 2532   6.842   5.374   6.897
 1536W        W 2533   1.967   0.324   3.405
 1537W        W 2534   7.390   2.848   5.818
 1538W        W 2535   7.637   5.274   6.148
 1539W        W 2536   6.669   7.245   4.837
 1540W        W 2537   3.617   4.339   2.105
 1541W        W 2538   6.929   1.925   1.840
 1542W        W 2539   0.628   7.225   3.828
 1543W        W 2540   1.057   5.513   4.096
 1544W        W 2541   3.221   1.934   0.802
 1545W        W 2542   0.363   4.115   5.093
 1546W        W 2543   5.096   2.626   4.521
 1547W        W 2544   4.623   6.739   7.949
 1548W        W 2545   7.398   0.930   4.829
 1549W        W 2546   0.723   6.144   5.135
 1550W        W 2547   0.042   4.840   4.417
 1551W        W 2548   1.667   3.240   7.090
 1552W        W 2549   5.175   3.595   6.880
 1553W        W 2550   1.777   4.888   3.000
 1554W        W 2551   7.735   4.533   5.023
 1555W        W 2552   2.600   0.990   1.921
 1556W        W 2553   6.386   3.051   3.051
 1557W        W 2554   3.166   3.341   3.200
 1558W        W 2555   5.481   5.861   4.839
 1559W        W 2556   1.334   4.591   4.146
 1560W        W 2557   5.555   2.340   6.119
 1561W        W 2558   0.133   1.437   6.387
 1562W        W 2559   2.159   2.843   5.970
 1563W        W 2560   0.151   2.108   6.388
 1564W        W 2561   4.732   7.832   2.717
 1565W        W 2562   4.624   4.612   6.176
 1566W        W 2563   3.015   2.698   5.078
 1567W        W 2564   5.262   6.103   5.812
 1568W        W 2565   6.314   4.412   1.418
 1569W        W 2566   2.981   3.289   5.759
 1570W        W 2567   5.461   5.339   0.363
 1571W        W 2568   5.486   3.895   1.425
 1572W        W 2569   6.281   4.863   1.225
 1573W        W 2570   1.659   5.166   5.755
 1574W        W 2571   2.010   5.045   3.430
 1575W        W 2572   4.032   0.390   6.173
 1576W        W 2573   6.807   0.888   6.904
 1577W        W 2574   5.355   4.114   3.711
 1578W        W 2575   0.636   4.180   6.482
 1579W        W 2576   1.944   4.779   5.090
 1580W        W 2577   5.570   2.579   0.719
 1581W        W 2578   4.498   4.939   5.180
 1582W        W 2579   2.387   2.459   6.302
 1583W        W 2580   2.017   6.458   2.316
 1584W        W 2581   2.452   3.967   4.434
 1585W        W 2582   5.893   5.718   2.811
 1586W        W 2583   0.805   1.599   4.241
 1587W        W 2584   7.082   7.167   2.411
 1588W        W 2585   4.224   4.231   3.208
 1589W        W 2586   3.290   0.928   3.011
 1590W        W 2587   5.415   5.274   6.916
 1591W        W 2588   2.179   2.465   0.784
 1592W        W 2589   2.971   5.387   4.075
 1593W        W 2590   0.202   4.206   1.477
 1594W        W 2591   2.513   5.013   4.699
 1595W        W 2592   2.810   0.531   1.874
 1596W        W 2593   1.531   7.187   7.459
 1597W        W 2594   1.631   6.244   1.988
 1598W        W 2595   6.231   5.179   2.077
 1599W        W 2596   3.396   3.421   6.717
 1600W        W 2597   2.690   2.411   5.330
 1601W        W 2598   0.894   6.849   3.032
 1602W        W 2599   6.306   7.989   7.582
 1603W        W 2600   5.702   5.793   2.306
 1604W        W 2601   2.530   2.811   4.321
 1605W        W 2602   7.829   6.042   3.646
 1606W        W 2603   1.853   1.855   2.264
 1607W        W 2604   3.922   1.893   0.071
 1608W        W 2605   4.245   4.672   7.036
 1609W        W 2606   6.765   1.629   1.366
 1610W        W 2607   5.996   1.381   4.937
 1611W        W 2608   5.352   3.315   2.600
 1612W        W 2609   6.831   2.400   0.735
 1613W        W 2610   0.055   0.956   6.507
 1614W        W 2611   4.158   4.557   3.982
 1615W        W 2612   5.913   2.738   4.215
 1616W        W 2613   6.979   4.255   3.432
 1617W        W 2614   7.075   3.648   6.777
 1618W        W 2615   4.268   4.298   7.425
 1619W        W 2616   1.920   5.485   3.195
 1620W        W 2617   1.518   3.954   1.476
 1621W        W 2618   4.155   2.658   2.677
 1622W        W 2619   4.826   6.295   5.565
 1623W        W 2620   3.534   3.233   1.222
 1624W        W 2621   2.453   3.506   7.003
 1625W        W 2622   4.357   1.339   5.933
 1626W        W 2623   1.907   0.766   3.670
 1627W        W 2624   7.406   6.211   4.975
 1628W        W 2625   1.283   3.032   6.787
 1629W        W 2626   5.603   2.607   4.694
 1630W        W 2627   3.449   0.968   4.389
 1631W        W 2628   1.795   7.202   4.660
 1632W        W 2629   0.325   0.730   6.131
 1633W        W 2630   1.420   1.078   6.474
 1634W        W 2631   2.834   5.668   4.480
 1635W        W 2632   0.859   4.233   5.325
 1636W        W 2633   7.110   3.340   3.078
 1637W        W 2634   1.119   1.755   3.827
 1638W        W 2635   5.348   0.777   0.874
 1639W        W 2636   4.078   2.598   5.599
 1640W        W 2637   6.404   0.799   3.705
 1641W        W 2638   1.153   0.767   5.641
 1642W        W 2639   6.445   5.787   5.671
 1643W        W 2640   1.034   0.904   3.805
 1644W        W 2641   6.091   0.825   2.228
 1645W        W 2642   5.216   6.577   1.838
 1646W        W 2643   2.320   2.430   3.417
 1647W        W 2644   2.534   1.706   5.977
 1648W        W 2645   4.876   1.087   6.886
 1649W        W 2646   0.399   0.378   7.037
 1650W        W 2647   2.915   5.011   4.410
 1651W        W 2648   5.459   6.203   4.417
 1652W        W 2649   5.915   5.249   3.019
 1653W        W 2650   7.275   4.309   0.558
 1654W        W 2651   3.788   5.857   4.160
 1655W        W 2652   1.069   7.464   1.166
 1656W        W 2653   1.282   2.046   1.226
 1657W        W 2654   2.364   1.881   6.421
 1658W        W 2655   6.468   4.473   0.916
 1659W        W 2656   3.679   3.838   5.856
 1660W        W 2657   7.820   2.614   2.890
 1661W        W 2658   0.932   2.258   4.859
 1662W        W 2659   1.996   5.083   6.351
 1663W        W 2660   3.621   2.682   0.529
 1664W        W 2661   7.141   4.924   2.232
 1665W        W 2662   5.128   7.358   2.941
 1666W        W 2663   4.410   5.140   7.032
 1667W        W 2664   2.883   3.051   2.842
 1668W        W 2665   0.675   2.356   1.077
 1669W        W 2666   4.309   5.026   6.078
 1670W        W 2667   6.860   2.835   4.133
 1671W        W 2668   2.591   2.222   6.714
 1672W        W 2669   0.689   3.669   2.656
 1673W        W 2670   5.341   3.916   5.213
 1674W        W 2671   7.468   0.918   0.200
 1675W        W 2672   3.727   7.846   3.108
 1676W        W 2673   4.770   6.910   0.426
 1677W        W 2674   5.663   6.256   7.079
 1678W        W 2675   4.808   4.817   3.346
 1679W        W 2676   2.131   6.296   1.280
 1680W        W 2677   2.871   5.019   5.411
 1681W        W 2678   0.541   3.121   0.679
 1682W        W 2679   2.760   4.685   3.124
 1683W        W 2680   2.159   3.280   2.056
 1684W        W 2681   6.180   0.904   6.205
 1685W        W 2682   7.226   6.912   6.510
 1686W        W 2683   4.027   6.511   2.592
 1687W        W 2684   3.857   2.199   2.576
 1688W        W 2685   0.535   0.704   1.636
 1689W        W 2686   5.224   2.230   1.410
 1690W        W 2687   4.645   6.173   3.380
 1691W        W 2688   2.085   3.521   4.415
 1692W        W 2689   1.193   0.024   6.900
 1693W        W 2690   4.258   6.480   1.245
 1694W        W 2691   0.773   3.034   6.377
 1695W        W 2692   3.185   3.957   5.033
 1696W        W 2693   0.858   6.232   4.669
 1697W        W 2694   6.411   2.091   7.487
 1698W        W 2695   5.960   6.883   2.377
 1699W        W 2696   3.874   6.680   0.874
 1700W        W 2697   5.161   0.398   0.050
 1701W        W 2698   2.383   4.018   6.911
 1702W        W 2699   4.364   4.164   6.147
 1703W        W 2700   4.846   1.908   1.285
 1704W        W 2701   3.017   1.589   3.833
 1705W        W 2702   1.562   0.702   4.655
 1706W        W 2703   1.430   3.968   1.995
 1707W        W 2704   1.080   2.998   5.610
 1708W        W 2705   0.514   5.725   5.301
 1709W        W 2706   0.439   1.147   2.265
 1710W        W 2707   2.246   5.203   3.845
 1711W        W 2708   6.398   3.064   3.566
 1712W        W 2709   4.849   3.612   0.511
 1713W        W 2710   3.931   6.339   4.064
 1714W        W 2711   4.440   3.322   4.509
 1715W        W 2712   5.104   3.861   1.097
 1716W        W 2713   3.376   1.421   1.616
 1717W        W 2714   2.146   6.063   4.224
 1718W        W 2715   3.950   2.915   1.923
 1719W        W 2716   6.282   1.584   7.499
 1720W        W 2717   3.855   7.150   4.126
 1721W        W 2718   4.197   4.585   1.033
 1722W        W 2719   0.970   6.734   4.564
 1723W        W 2720   4.718   4.694   6.730
 1724W        W 2721   6.361   2.060   4.531
 1725W        W 2722   0.670   2.440   1.644
 1726W        W 2723   4.584   5.029   1.639
 1727W        W 2724   2.390   6.617   0.979
 1728W        W 2725   2.387   5.779   0.676
 1729W        W 2726   1.489   4.096   4.164
 1730W        W 2727   0.968   3.530   4.935
 1731W        W 2728   1.806   5.312   5.296
 1732W        W 2729   3.752   4.107   6.590
 1733W        W 2730   6.284   0.971   0.630
 1734W        W 2731   4.806   1.046   0.249
 1735W        W 2732   0.512   6.196   2.628
 1736W        W 2733   5.053   5.566   6.666
 1737W        W 2734   4.562   1.489   6.792
 1738W        W 2735   0.147   6.055   5.726
 1739W        W 2736   7.251   7.223   4.028
 1740W        W 2737   6.323   7.215   5.709
 1741W        W 2738   4.002   4.685   2.382
 1742W        W 2739   5.433   0.496   2.685
 1743W        W 2740   5.414   7.062   4.432
 1744W        W 2741   5.819   2.245   2.813
 1745W        W 2742   4.130   0.993   2.608
 1746W        W 2743   7.343   5.961   5.842
 1747W        W 2744   7.944   1.357   4.258
 1748W        W 2745   4.582   4.061   0.448
 1749W        W 2746   0.518   7.005   7.296
 1750W        W 2747   2.507   5.404   1.009
 1751W        W 2748   0.967   0.177   1.006
 1752W        W 2749   4.568   5.883   4.604
 1753W        W 2750   1.029   1.047   7.381
 1754W        W 2751   6.044   2.872   6.888
 1755W        W 2752   3.701   2.916   6.163
 1756W        W 2753   2.485   6.557   1.553
 1757W        W 2754   4.746   1.784   0.377
 1758W        W 2755   4.194   1.665   7.151
 1759W        W 2756   4.395   4.506   4.428
 1760W        W 2757   3.021   2.359   1.050
 1761W        W 2758   3.196   6.170   3.550
 1762W        W 2759   3.444   3.733   7.167
 1763W        W 2760   3.854   2.864   0.091
 1764W        W 2761   3.754   6.907   2.398
 1765W        W 2762   7.154   4.364   1.532
 1766W        W 2763   1.438   1.365   7.337
 1767W        W 2764   6.743   5.054   7.634
 1768W        W 2765   0.900   4.463   6.816
 1769W        W 2766   3.603   2.955   6.675
 1770W        W 2767   0.529   4.667   6.474
 1771W        W 2768   0.813   6.010   6.097
 1772W        W 2769   1.402   1.664   5.816
 1773W        W 2770   2.402   4.417   3.406
 1774W        W 2771   6.349   3.327   1.401
 1775W        W 2772   2.406   3.678   4.032
 1776W        W 2773   5.645   6.793   7.082
 1777W        W 2774   4.023   2.084   4.512
 1778W        W 2775   3.259   3.938   2.153
 1779W        W 2776   7.364   2.249   1.181
 1780W        W 2777   5.010   2.965   5.753
 1781W        W 2778   6.236   3.512   0.938
 1782W        W 2779   4.506   5.833   5.519
 1783W        W 2780   1.191   2.751   3.848
 1784W        W 2781   5.984   1.440   1.665
 1785W        W 2782   2.575   1.698   6.829
 1786W        W 2783   7.011   0.030   7.665
 1787W        W 2784   7.148   3.718   4.551
 1788W        W 2785   3.284   1.488   4.259
 1789W        W 2786   1.865   7.065   3.424
 1790W        W 2787   4.657   2.118   3.725
 1791W        W 2788   4.544   0.522   6.322
 1792W        W 2789   3.585   5.191   1.586
 1793W        W 2790   7.891   3.443   1.064
 1794W        W 2791   1.174   0.969   7.927
 1795W        W 2792   2.178   6.223   6.609
 1796W        W 2793   3.767   4.936   1.999
 1797W        W 2794   6.671   1.840   5.509
 1798W        W 2795   2.470   1.993   3.608
 1799W        W 2796   3.346   4.821   6.769
 1800W        W 2797   6.316   3.940   1.615
 1801W        W 2798   4.310   3.839   7.124
 1802W        W 2799   0.082   6.909   6.982
 1803W        W 2800   6.814   2.234   5.802
 1804W        W 2801   5.713   7.532   5.068
 1805W        W 2802   6.191   6.521   2.780
 1806W        W 2803   1.254   6.113   1.187
 1807W        W 2804   3.574   5.782   4.659
 1808W        W 2805   7.839   3.764   3.957
 1809W        W 2806   7.767   1.934   3.458
 1810W        W 2807   5.673   0.928   2.884
 1811W        W 2808   5.708   3.736   3.520
 1812W        W 2809   2.179   1.033   5.510
 1813W        W 2810   7.045   3.997   5.113
 1814W        W 2811   1.206   3.453   4.485
 1815W        W 2812   4.607   4.178   1.318
 1816W        W 2813   0.870   2.633   6.666
 1817W        W 2814   0.372   5.852   2.276
 1818W        W 2815   4.864   3.040   5.252
 1819W        W 2816   3.231   6.184   2.077
 1820W        W 2817   7.896   0.952   6.005
 1821W        W 2818   3.029   6.236   6.204
 1822W        W 2819   0.817   5.554   1.001
 1823W        W 2820   5.622   4.672   4.710
 1824W        W 2821   1.122   4.651   3.701
 1825W        W 2822   5.046   5.565   4.859
 1826W        W 2823   6.947   6.425   7.918
 1827W        W 2824   1.212   4.446   2.273
 1828W        W 2825   1.239   3.809   2.905
 1829W        W 2826   4.273   2.061   6.193
 1830W        W 2827   6.038   3.343   1.792
 1831W        W 2828   7.964   1.128   4.719
 1832W        W 2829   3.347   5.047   5.699
 1833W        W 2830   5.406   7.261   0.679
 1834W        W 2831   6.345   2.014   5.147
 1835W        W 2832   1.299   4.380   1.734
 1836W        W 2833   6.787   4.247   6.528
 1837W        W 2834   1.210   5.902   2.044
 1838W        W 2835   0.164   5.806   2.730
 1839W        W 2836   4.195   5.012   6.600
 1840W        W 2837   5.894   1.674   0.369
 1841W        W 2838   7.489   4.346   3.436
 1842W        W 2839   5.052   2.798   6.699
 1843W        W 2840   2.218   2.097   5.975
 1844W        W 2841   3.518   1.331   7.007
 1845W        W 2842   6.860   7.268   7.988
 1846W        W 2843   5.903   2.487   0.331
 1847W        W 2844   7.553   4.780   3.757
 1848W        W 2845   7.967   5.236   3.258
 1849W        W 2846   0.788   1.097   4.253
 1850W        W 2847   0.500   6.208   6.457
 1851W        W 2848   1.777   3.124   4.179
 1852W        W 2849   4.083   7.699   1.560
 1853W        W 2850   7.993   0.515   6.757
 1854W        W 2851   4.945   3.024   6.262
 1855W        W 2852   5.050   2.102   7.256
 1856W        W 2853   2.191   5.600   6.299
 1857W        W 2854   0.041   6.304   2.925
 1858W        W 2855   4.998   4.901   1.046
 1859W        W 2856   3.341   2.771   1.128
 1860W        W 2857   0.801   2.667   3.022
 1861W        W 2858   1.834   5.004   4.078
 1862W        W 2859   6.670   5.463   6.004
 1863W        W 2860   1.432   5.960   4.808
 1864W        W 2861   3.029   2.374   6.462
 1865W        W 2862   7.484   4.008   5.803
 1866W        W 2863   0.047   2.124   3.859
 1867W        W 2864   2.711   6.629   6.156
 1868W        W 2865   7.044   0.906   5.662
 1869W        W 2866   3.337   3.038   0.282
 1870W        W 2867   7.097   2.432   6.542
 1871W        W 2868   5.626   4.571   3.000
 1872W        W 2869   1.524   6.081   0.702
 1873W        W 2870   1.772   2.519   3.030
 1874W        W 2871   6.176   5.374   5.807
 1875W        W 2872   0.365   3.666   4.853
 1876W        W 2873   6.584   0.879   5.898
 1877W        W 2874   1.077   4.685   4.602
 1878W        W 2875   2.297   0.130   2.603
 1879W        W 2876   2.081   3.048   2.520
 1880W        W 2877   2.815   5.834   5.953
 1881W        W 2878   1.970   4.817   2.148
 1882W        W 2879   4.869   2.313   6.710
 1883W        W 2880   5.957   3.673   1.336
 1884W        W 2881   5.668   0.388   0.073
 1885W        W 2882   3.899   4.772   6.273
 1886W        W 2883   2.083   0.534   5.532
 1887W        W 2884   4.518   1.550   3.983
 1888W        W 2885   4.468   1.362   2.672
 1889W        W 2886   6.675   5.158   4.010
 1890W        W 2887   3.814   0.335   7.072
 1891W        W 2888   3.533   5.336   3.967
 1892W        W 2889   6.712   1.455   2.291
 1893W        W 2890   4.018   3.319   4.176
 1894W        W 2891   0.926   5.574   1.767
 1895W        W 2892   2.915   4.949   2.310
 1896W        W 2893   6.835   5.596   7.570
 1897W        W 2894   0.004   5.701   5.393
 1898W        W 2895   1.104   1.591   1.358
 1899W        W 2896   2.866   5.738   0.877
 1900W        W 2897   1.846   6.816   4.314
 1901W        W 2898   1.713   7.676   4.958
 1902W        W 2899   2.310   1.009   6.911
 1903W        W 2900   4.653   3.305   0.152
 1904W        W 2901   1.320   3.891   5.739
 1905W        W 2902   6.903   6.890   6.979
 1906W        W 2903   5.985   6.147   2.027
 1907W        W 2904   4.275   1.110   4.183
 1908W        W 2905   3.463   7.001   3.105
 1909W        W 2906   1.064   4.707   5.265
 1910W        W 2907   3.609   5.033   0.318
 1911W        W 2908   6.923   2.419   2.480
 1912W        W 2909   6.880   2.192   7.294
 1913W        W 2910   7.709   2.125   4.658
 1914W        W 2911   1.947   3.491   3.831
 1915W        W 2912   6.754   4.709   1.336
 1916W        W 2913   6.894   0.962   7.402
 1917W        W 2914   6.261   2.186   3.560
 1918W        W 2915   3.281   3.609   1.520
 1919W        W 2916   7.159   5.963   2.908
 1920W        W 2917   2.621   6.023   2.784
 1921W        W 2918   2.636   3.266   1.860
 1922W        W 2919   3.120   4.039   4.535
 1923W        W 2920   6.098   0.594   3.143
 1924W        W 2921   2.542   5.753   4.040
 1925W        W 2922   4.016   5.397   6.286
 1926W        W 2923   6.827   0.189   2.610
 1927W        W 2924   4.613   4.528   1.771
 1928W        W 2925   1.522   2.692   4.226
 1929W        W 2926   5.892   2.276   4.438
 1930W        W 2927   2.845   1.638   7.614
 1931W        W 2928   4.831   2.236   0.606
 1932W        W 2929   5.582   1.169   0.634
 1933W        W 2930   2.122   4.649   2.600
 1934W        W 2931   7.458   0.901   2.834
 1935W        W 2932   3.588   7.476   6.571
 1936W        W 2933   4.575   4.021   1.803
 1937W        W 2934   2.318   6.926   4.102
 1938W        W 2935   1.803   5.545   1.449
 1939W        W 2936   6.338   6.661   3.620
 1940W        W 2937   2.945   3.513   2.243
 1941W        W 2938   4.521   1.520   7.536
 1942W        W 2939   7.626   6.465   3.832
 1943W        W 2940   5.172   7.302   7.618
 1944W        W 2941   4.862   6.543   3.720
 1945W        W 2942   1.038   4.215   3.947
 1946W        W 2943   7.702   3.895   3.472
 1947W        W 2944   0.750   1.478   0.543
 1948W        W 2945   5.926   7.100   6.785
 1949W        W 2946   1.612   3.407   6.610
 1950W        W 2947   2.347   6.878   6.895
 1951W        W 2948   2.953   7.501   1.979
 1952W        W 2949   1.782   4.288   5.001
 1953W        W 2950   4.396   5.977   6.002
 1954W        W 2951   3.144   3.482   2.708
 1955W        W 2952   0.792   6.378   6.836
 1956W        W 2953   6.009   4.694   6.146
 1957W        W 2954   0.919   0.582   0.695
 1958W        W 2955   1.566   5.439   4.134
 1959W        W 2956   0.772   0.997   6.873
 1960W        W 2957   7.027   5.810   1.970
 1961W        W 2958   7.745   6.880   6.557
 1962W        W 2959   7.570   1.018   4.361
 1963W        W 2960   5.451   5.073   3.005
 1964W        W 2961   3.432   2.993   7.753
 1965W        W 2962   2.755   3.900   6.126
 1966W        W 2963   0.412   5.699   6.481
 1967W        W 2964   1.055   3.801   1.669
 1968W        W 2965   1.633   2.025   3.856
 1969W        W 2966   0.535   5.489   1.438
 1970W        W 2967   5.682   4.945   5.179
 1971W        W 2968   4.136   2.933   4.483
 1972W        W 2969   5.731   6.579   1.917
 1973W        W 2970   1.641   5.616   1.935
 1974W        W 2971   6.644   6.737   5.642
 1975W        W 2972   4.463   1.855   4.598
 1976W        W 2973   4.666   7.860   3.285
 1977W        W 2974   3.360   2.239   5.143
 1978W        W 2975   1.884   0.699   5.069
 1979W        W 2976   1.600   6.736   2.223
 1980W        W 2977   5.671   2.054   0.097
 1981W        W 2978   0.604   2.939   1.580
 1982W        W 2979   6.549   2.925   6.925
 1983W        W 2980   4.701   1.745   1.748
 1984W        W 2981   0.063   2.735   5.820
 1985W        W 2982   1.762   5.587   6.007
 1986W        W 2983   1.000   1.774   5.045
 1987W        W 2984   2.312   0.437   6.037
 1988W        W 2985   6.959   7.160   3.533
 1989W        W 2986   3.430   7.920   1.020
 1990W        W 2987   2.217   4.029   4.873
 1991W        W 2988   7.126   2.288   4.782
 1992W        W 2989   5.693   1.531   4.542
 1993W        W 2990   1.445   7.628   5.402
 1994W        W 2991   5.838   1.895   3.251
 1995W        W 2992   1.253   1.268   1.745
 1996W        W 2993   6.624   2.802   2.652
 1997W        W 2994   1.756   6.031   6.794
 1998W        W 2995   7.615   4.681   2.454
 1999W        W 2996   1.144   1.265   6.043
 2000W        W 2997   7.922   6.696   1.606
 2001W        W 2998   7.761   6.372   6.435
 2002W        W 2999   4.923   4.995   5.421
 2003W        W 3000   4.339   6.293   4.843
 2004W        W 3001   0.719   3.046   2.087
 2005W        W 3002   1.799   5.778   7.487
 2006W        W 3003   0.983   1.336   6.517
 2007W        W 3004   2.923   1.519   0.705
 2008W        W 3005   0.061   6.716   2.124
 2009W        W 3006   3.346   6.099   5.022
 2010W        W 3007   6.311   4.873   2.477
 2011W        W 3008   2.873   1.253   5.917
 2012W        W 3009   5.925   6.992   4.418
 2013W        W 3010   3.204   4.925   3.987
 2014W        W 3011   3.324   2.141   2.639
 2015W        W 3012   3.300   7.017   2.608
 2016W        W 3013   5.101   1.638   5.243
 2017W        W 3014   3.969   4.990   4.614
 2018W        W 3015   4.048   5.479   6.807
 2019W        W 3016   2.005   5.255   4.466
 2020W        W 3017   0.897   5.904   6.589
 2021W        W 3018   2.170   4.698   3.780
 2022W        W 3019   7.591   6.912   2.282
 2023W        W 3020   3.899   2.837   4.916
 2024W        W 3021   0.382   1.412   3.550
 2025W        W 3022   2.388   0.873   6.383
 2026W        W 3023   0.389   1.365   4.057
 2027W        W 3024   6.474   0.597   2.742
 2028W        W 3025   2.776   4.183   2.150
 2029W        W 3026   2.044   1.725   3.689
 2030W        W 3027   2.206   5.287   0.602
 2031W        W 3028   6.531   5.170   0.431
 2032W        W 3029   4.156   3.449   7.794
 2033W        W 3030   3.072   1.335   7.256
 2034W        W 3031   4.829   7.211   6.671
 2035W        W 3032   7.202   3.833   3.208
 2036W        W 3033   0.335   1.226   5.964
 2037W        W 3034   4.869   4.003   3.580
 2038W        W 3035   0.745   2.866   1.111
 2039W        W 3036   6.843   3.373   1.514
 2040W        W 3037   6.772   2.706   7.322
 2041W        W 3038   2.134   7.288   2.601
 2042W        W 3039   1.238   6.107   3.479
 2043W        W 3040   0.359   0.741   0.067
 2044W        W 3041   7.042   3.569   6.254
 2045W        W 3042   2.731   2.595   2.427
 2046W        W 3043   4.268   3.519   1.660
 2047W        W 3044   2.764   5.192   0.630
 2048W        W 3045   4.150   1.772   2.540
 2049W        W 3046   5.752   3.163   7.374
 2050W        W 3047   5.333   1.321   3.678
 2051W        W 3048   6.766   5.080   2.576
 2052W        W 3049   5.022   4.049   1.569
 2053W        W 3050   6.378   6.292   5.774
 2054W        W 3051   2.466   2.089   5.002
 2055W        W 3052   1.805   4.624   1.690
 2056W        W 3053   1.852   4.691   0.917
 2057W        W 3054   5.637   1.768   6.915
 2058W        W 3055   4.136   3.037   3.106
 2059W        W 3056   0.961   3.297   2.459
 2060W        W 3057   4.326   0.284   7.192
 2061W        W 3058   1.870   6.026   6.245
 2062W        W 3059   0.739   3.693   4.512
 2063W        W 3060   4.084   2.825   6.490
 2064W        W 3061   4.295   0.816   4.641
 2065W        W 3062   6.064   2.940   2.097
 2066W        W 3063   0.830   4.693   4.115
 2067W        W 3064   2.863   4.872   6.460
 2068W        W 3065   7.769   6.448   3.336
 2069W        W 3066   5.550   4.388   6.663
 2070W        W 3067   6.822   0.832   4.010
 2071W        W 3068   6.856   0.189   6.443
 2072W        W 3069   2.896   5.191   3.192
 2073W        W 3070   0.244   6.314   3.483
 2074W        W 3071   5.791   5.849   4.230
 2075W        W 3072   4.801   7.380   3.328
 2076W        W 3073   3.639   7.798   2.420
 2077W        W 3074   5.945   5.294   7.201
 2078W        W 3075   5.420   3.007   7.787
 2079W        W 3076   5.610   2.531   2.113
 2080W        W 3077   0.177   4.391   2.405
 2081W        W 3078   7.099   2.082   6.190
 2082W        W 3079   3.753   1.865   6.945
 2083W        W 3080   7.128   3.605   4.066
 2084W        W 3081   0.984   2.466   2.168
 2085W        W 3082   3.501   7.454   2.777
 2086W        W 3083   5.082   4.278   4.952
 2087W        W 3084   4.174   3.203   0.821
 2088W        W 3085   1.068   4.240   3.431
 2089W        W 3086   5.841   0.339   7.127
 2090W        W 3087   2.095   5.400   2.040
 2091W        W 3088   5.309   5.560   4.424
 2092W        W 3089   5.621   6.773   6.517
 2093W        W 3090   5.416   4.394   1.493
 2094W        W 3091   4.183   0.192   1.568
 2095W        W 3092   1.005   7.174   7.439
 2096W        W 3093   2.034   4.295   4.492
 2097W        W 3094   4.789   2.308   2.864
 2098W        W 3095   7.035   7.166   0.476
 2099W        W 3096   5.448   1.377   1.649
 2100W        W 3097   1.802   3.621   3.336
 2101W        W 3098   1.489   0.858   7.468
 2102W        W 3099   4.303   5.453   4.431
 2103W        W 3100   3.482   5.448   6.131
 2104W        W 3101   6.346   0.136   2.914
 2105W        W 3102   5.808   2.643   6.473
 2106W        W 3103   4.942   7.394   0.531
 2107W        W 3104   0.531   2.540   6.253
 2108W        W 3105   2.285   4.827   4.265
 2109W        W 3106   6.838   2.708   1.194
 2110W        W 3107   4.113   4.663   1.529
 2111W        W 3108   0.941   6.923   3.541
 2112W        W 3109   7.314   3.053   3.451
 2113W        W 3110   6.492   7.185   7.524
 2114W        W 3111   0.283   4.439   6.844
 2115W        W 3112   3.561   1.989   1.708
 2116W        W 3113   2.881   0.696   3.811
 2117W        W 3114   2.211   1.122   5.003
 2118W        W 3115   5.486   2.903   6.201
 2119W        W 3116   1.034   6.242   1.703
 2120W        W 3117   5.226   7.745   7.300
 2121W        W 3118   6.939   0.890   5.043
 2122W        W 3119   7.510   3.781   0.937
 2123W        W 3120   7.200   4.415   3.857
 2124W        W 3121   0.759   1.160   1.722
 2125W        W 3122   6.965   1.010   0.114
 2126W        W 3123   3.859   4.974   1.180
 2127W        W 3124   5.509   2.870   0.304
 2128W        W 3125   6.584   6.490   0.768
 2129W        W 3126   2.319   2.352   4.388
 2130W        W 3127   6.159   6.761   0.223
 2131W        W 3128   0.191   7.133   6.505
 2132W        W 3129   1.392   0.372   0.757
 2133W        W 3130   1.227   2.616   5.122
 2134W        W 3131   7.200   7.145   4.743
 2135W        W 3132   1.611   1.126   4.978
 2136W        W 3133   2.041   6.414   2.883
 2137W        W 3134   5.924   4.180   7.017
 2138W        W 3135   6.773   7.302   5.491
 2139W        W 3136   0.820   3.894   5.727
 2140W        W 3137   4.728   5.321   0.959
 2141W        W 3138   7.385   0.687   5.309
 2142W        W 3139   4.892   7.082   4.469
 2143W        W 3140   5.257   1.647   6.113
 2144W        W 3141   5.385   0.011   7.767
 2145W        W 3142   3.529   5.335   1.086
 2146W        W 3143   4.933   1.253   4.000
 2147W        W 3144   3.613   5.693   5.151
 2148W        W 3145   6.945   5.973   4.097
 2149W        W 3146   7.416   6.725   4.216
 2150W        W 3147   1.558   0.430   5.498
 2151W        W 3148   0.367   2.754   6.680
 2152W        W 3149   2.937   3.910   2.538
 2153W        W 3150   1.120   6.906   2.262
 2154W        W 3151   0.502   0.430   0.448
 2155W        W 3152   6.914   3.994   0.327
 2156W        W 3153   2.568   6.147   1.003
 2157W        W 3154   4.820   5.271   4.446
 2158W        W 3155   5.300   3.213   6.565
 2159W        W 3156   2.964   2.524   5.986
 2160W        W 3157   5.164   4.243   2.855
 2161W        W 3158   2.758   6.754   4.311
 2162W        W 3159   4.574   5.967   2.108
 2163W        W 3160   4.325   0.960   0.076
 2164W        W 3161   6.868   0.935   4.531
 2165W        W 3162   4.557   4.304   5.705
 2166W        W 3163   0.522   1.436   3.068
 2167W        W 3164   6.604   5.525   1.958
 2168W        W 3165   6.574   6.711   7.371
 2169W        W 3166   1.127   2.217   1.733
 2170W        W 3167   5.071   3.617   2.284
 2171W        W 3168   6.462   3.091   4.562
 2172W        W 3169   4.327   1.140   1.937
 2173W        W 3170   3.151   6.063   4.566
 2174W        W 3171   6.162   6.035   2.510
 2175W        W 3172   3.874   7.176   1.531
 2176W        W 3173   0.229   6.003   3.936
 2177W        W 3174   0.181   4.550   5.795
 2178W        W 3175   5.814   6.399   2.423
 2179W        W 3176   7.925   2.687   5.311
 2180W        W 3177   6.408   1.532   0.509
 2181W        W 3178   7.079   1.355   4.781
 2182W        W 3179   6.251   5.709   4.522
 2183W        W 3180   1.661   7.179   4.022
 2184W        W 3181   0.420   0.851   5.637
 2185W        W 3182   3.781   6.695   1.405
 2186W        W 3183   5.776   4.542   5.499
 2187W        W 3184   6.518   5.647   4.092
 2188W        W 3185   7.068   4.816   1.731
 2189W        W 3186   7.360   2.643   1.504
 2190W        W 3187   6.899   1.636   0.722
 2191W        W 3188   3.872   0.942   0.284
 2192W        W 3189   4.012   6.696   0.382
 2193W        W 3190   4.724   1.096   2.277
 2194W        W 3191   4.497   1.119   3.711
 2195W        W 3192   7.554   1.017   5.656
 2196W        W 3193   1.180   2.264   3.775
 2197W        W 3194   3.461   2.627   3.884
 2198W        W 3195   4.138   0.740   7.056
 2199W        W 3196   2.645   1.260   2.508
 2200W        W 3197   6.779   7.125   5.977
 2201W        W 3198   5.848   6.654   3.646
 2202W        W 3199   1.227   1.841   7.199
 2203W        W 3200   5.746   5.309   2.151
 2204W        W 3201   1.479   1.189   4.473
 2205W        W 3202   3.069   7.018   2.127
 2206W        W 3203   0.332   6.936   4.144
 2207W        W 3204   7.677   2.978   1.258
 2208W        W 3205   6.428   4.981   6.038
 2209W        W 3206   3.907   3.050   7.613
 2210W        W 3207   4.835   5.710   4.217
 2211W        W 3208   5.878   5.196   6.186
 2212W        W 3209   6.212   5.574   3.258
 2213W        W 3210   6.730   5.895   4.553
 2214W        W 3211   6.611   0.306   5.785
 2215W        W 3212   2.161   6.046   2.569
 2216W        W 3213   6.234   2.246   4.061
 2217W        W 3214   6.339   2.573   4.478
 2218W        W 3215   7.113   6.927   5.641
 2219W        W 3216   2.895   4.717   7.002
 2220W        W 3217   1.280   2.569   2.907
 2221W        W 3218   7.207   5.461   5.967
 2222W        W 3219   6.620   3.438   3.267
 2223W        W 3220   7.805   1.877   4.226
 2224W        W 3221   2.267   4.809   3.070
 2225W        W 3222   7.101   4.887   4.007
 2226W        W 3223   4.460   7.476   3.700
 2227W        W 3224   2.108   6.004   7.144
 2228W        W 3225   1.503   2.101   5.567
 2229W        W 3226   6.333   7.011   2.720
 2230W        W 3227   6.711   5.165   6.441
 2231W        W 3228   0.140   6.188   4.397
 2232W        W 3229   5.691   5.581   0.842
 2233W        W 3230   4.169   6.416   3.441
 2234W        W 3231   1.698   3.216   2.252
 2235W        W 3232   5.814   5.342   3.525
 2236W        W 3233   5.105   6.099   3.629
 2237W        W 3234   1.319   0.422   1.311
 2238W        W 3235   6.721   7.784   2.926
 2239W        W 3236   6.221   4.028   1.075
 2240W        W 3237   1.639   2.812   4.916
 2241W        W 3238   3.125   6.322   5.721
 2242W        W 3239   4.335   7.094   0.257
 2243W        W 3240   6.326   1.791   2.282
 2244W        W 3241   4.273   3.662   3.879
 2245W        W 3242   3.326   5.919   5.970
 2246W        W 3243   5.760   4.325   1.886
 2247W        W 3244   4.320   3.496   6.715
 2248W        W 3245   7.363   5.638   2.573
 2249W        W 3246   4.396   3.149   2.684
 2250W        W 3247   0.949   1.401   4.665
 2251W        W 3248   4.532   6.503   7.378
 2252W        W 3249   6.578   3.426   5.360
 2253W        W 3250   3.005   2.212   7.011
 2254W        W 3251   2.683   6.959   3.254
 2255W        W 3252   5.529   3.548   3.058
 2256W        W 3253   2.282   4.116   6.413
 2257W        W 3254   5.377   3.076   1.321
 2258W        W 3255   7.205   6.835   3.192
 2259W        W 3256   5.650   3.730   4.832
 2260W        W 3257   1.609   4.700   2.529
 2261W        W 3258   5.063   2.872   4.070
 2262W        W 3259   2.487   0.349   3.468
 2263W        W 3260   1.355   2.206   4.236
 2264W        W 3261   2.178   3.279   3.352
 2265W        W 3262   5.237   2.887   4.937
 2266W        W 3263   5.065   5.693   3.331
 2267W        W 3264   7.017   3.509   5.002
 2268W        W 3265   1.811   2.721   2.264
 2269W        W 3266   6.392   5.847   7.586
 2270W        W 3267   0.803   0.041   4.720
 2271W        W 3268   7.180   4.717   3.263
 2272W        W 3269   7.120   7.325   6.800
 2273W        W 3270   2.322   2.092   1.130
 2274W        W 3271   7.063   3.525   1.076
 2275W        W 3272   5.616   5.938   1.290
 2276W        W 3273   2.914   7.095   6.067
 2277W        W 3274   3.687   5.937   1.992
 2278W        W 3275   1.523   0.302   4.993
 2279W        W 3276   1.660   0.837   4.127
 2280W        W 3277   2.919   6.316   1.677
 2281W        W 3278   1.463   3.616   4.887
 2282W        W 3279   5.090   5.626   7.163
 2283W        W 3280   6.935   4.479   6.979
 2284W        W 3281   5.963   7.150   5.299
 2285W        W 3282   4.396   1.320   4.629
 2286W        W 3283   3.460   5.303   3.192
 2287W        W 3284   2.017   2.519   1.265
 2288W        W 3285   0.743   6.635   5.010
 2289W        W 3286   5.657   5.877   5.341
 2290W        W 3287   4.352   5.067   1.181
 2291W        W 3288   5.287   6.503   0.980
 2292W        W 3289   5.845   1.435   3.515
 2293W        W 3290   0.593   5.389   4.905
 2294W        W 3291   2.721   1.138   4.970
 2295W        W 3292   0.832   3.585   7.023
 2296W        W 3293   1.530   5.208   6.240
 2297W        W 3294   1.456   1.705   4.228
 2298W        W 3295   6.225   5.791   7.109
 2299W        W 3296   3.876   1.180   6.120
 2300W        W 3297   0.201   2.060   4.759
 2301W        W 3298   4.807   6.538   2.857
 2302W        W 3299   3.361   5.541   1.889
 2303W        W 3300   3.336   3.522   0.460
 2304W        W 3301   0.787   2.665   5.348
 2305W        W 3302   6.940   2.320   1.483
 2306W        W 3303   4.419   2.105   1.937
 2307W        W 3304   2.479   5.703   1.909
 2308W        W 3305   3.897   0.877   2.133
 2309W        W 3306   2.036   5.937   2.108
 2310W        W 3307   5.840   4.867   3.360
 2311W        W 3308   1.090   5.116   4.890
 2312W        W 3309   2.330   0.925   2.729
 2313W        W 3310   7.426   1.514   6.780
 2314W        W 3311   7.516   3.461   3.698
 2315W        W 3312   3.738   4.162   3.247
 2316W        W 3313   4.854   6.256   6.080
 2317W        W 3314   2.188   6.912   3.037
 2318W        W 3315   0.025   1.469   2.179
 2319W        W 3316   6.706   1.352   5.707
 2320W        W 3317   3.194   3.412   7.951
 2321W        W 3318   5.319   4.408   5.380
 2322W        W 3319   2.212   4.556   7.047
 2323W        W 3320   4.773   3.787   4.005
 2324W        W 3321   1.153   7.424   2.285
 2325W        W 3322   1.181   3.751   3.424
 2326W        W 3323   6.518   5.567   2.469
 2327W        W 3324   6.653   2.013   3.294
 2328W        W 3325   6.606   7.467   0.423
 2329W        W 3326   4.965   1.708   3.730
 2330W        W 3327   3.694   3.489   2.696
 2331W        W 3328   3.644   0.738   6.149
 2332W        W 3329   1.632   5.038   1.254
 2333W        W 3330   4.153   7.707   3.352
 2334W        W 3331   7.678   5.996   2.745
 2335W        W 3332   6.507   1.147   4.879
 2336W        W 3333   1.838   2.291   4.297
 2337W        W 3334   0.126   2.250   2.698
 2338W        W 3335   2.805   4.297   1.647
 2339W        W 3336   6.852   1.902   5.037
 2340W        W 3337   7.997   3.484   3.544
 2341W        W 3338   7.622   6.448   2.490
 2342W        W 3339   6.027   2.850   1.603
 2343W        W 3340   2.984   3.949   1.281
 2344W        W 3341   1.048   7.598   6.625
 2345W        W 3342   3.676   5.692   6.531
 2346W        W 3343   3.560   3.714   6.337
 2347W        W 3344   2.993   6.182   3.078
 2348W        W 3345   2.661   5.409   3.647
 2349W        W 3346   5.931   6.182   4.569
 2350W        W 3347   7.292   6.805   2.696
 2351W        W 3348   1.845   2.029   1.298
 2352W        W 3349   4.504   0.236   2.476
 2353W        W 3350   1.396   4.363   6.680
 2354W        W 3351   1.718   1.977   6.033
 2355W        W 3352   7.834   3.095   2.210
 2356W        W 3353   5.453   4.216   4.610
 2357W        W 3354   6.240   5.395   4.923
 2358W        W 3355   3.099   1.828   3.028
 2359W        W 3356   6.701   5.921   7.994
 2360W        W 3357   4.234   2.522   7.455
 2361W        W 3358   3.151   0.833   5.979
 2362W        W 3359   4.328   2.897   2.246
 2363W        W 3360   7.336   3.216   2.275
 2364W        W 3361   6.287   3.424   4.217
 2365W        W 3362   4.110   1.073   3.365
 2366W        W 3363   5.960   6.245   1.526
 2367W        W 3364   5.240   2.345   4.931
 2368W        W 3365   3.475   5.284   2.326
 2369W        W 3366   1.901   4.547   3.369
 2370W        W 3367   5.414   5.941   7.379
 2371W        W 3368   1.783   4.258   6.291
 2372W        W 3369   3.354   6.710   0.871
 2373W        W 3370   4.841   3.614   4.459
 2374W        W 3371   0.800   3.418   4.106
 2375W        W 3372   2.717   1.614   3.336
 2376W        W 3373   6.148   6.750   5.791
 2377W        W 3374   0.924   0.971   2.536
 2378W        W 3375   0.797   7.599   6.164
 2379W        W 3376   2.439   1.758   0.749
 2380W        W 3377   7.879   3.090   6.563
 2381W        W 3378   2.103   1.580   1.133
 2382W        W 3379   1.282   0.951   6.951
 2383W        W 3380   7.062   2.830   6.848
 2384W        W 3381   2.777   2.328   7.552
 2385W        W 3382   0.500   2.272   3.099
 2386W        W 3383   7.498   5.984   3.269
 2387W        W 3384   2.632   4.680   1.997
 2388W        W 3385   2.397   5.322   3.220
 2389W        W 3386   4.600   2.754   5.988
 2390W        W 3387   5.461   0.539   1.309
 2391W        W 3388   0.506   1.055   1.267
 2392W        W 3389   6.695   2.046   3.791
 2393W        W 3390   6.014   2.421   7.588
 2394W        W 3391   2.824   3.597   0.316
 2395W        W 3392   5.675   0.077   1.323
 2396W        W 3393   0.068   0.371   5.884
 2397W        W 3394   3.783   5.703   2.421
 2398W        W 3395   6.023   1.381   0.793
 2399W        W 3396   0.364   5.215   4.213
 2400W        W 3397   4.980   4.337   4.339
 2401W        W 3398   7.143   1.164   2.537
 2402W        W 3399   1.097   5.431   3.091
 2403W        W 3400   1.956   6.726   4.799
 2404W        W 3401   6.868   7.799   0.115
 2405W        W 3402   1.007   6.452   5.420
 2406W        W 3403   5.826   0.098   0.458
 2407W        W 3404   6.160   1.376   3.961
 2408W        W 3405   1.433   7.153   1.943
 2409W        W 3406   0.186   6.601   6.568
 2410W        W 3407   2.514   1.594   5.164
 2411W        W 3408   2.614   6.416   5.327
 2412W        W 3409   1.480   5.719   3.263
 2413W        W 3410   0.232   5.083   2.868
 2414W        W 3411   0.181   2.479   1.799
 2415W        W 3412   6.103   3.415   2.288
 2416W        W 3413   7.310   3.351   5.857
 2417W        W 3414   0.414   6.382   5.987
 2418W        W 3415   3.454   0.794   0.525
 2419W        W 3416   4.561   4.859   0.763
 2420W        W 3417   1.941   1.858   5.600
 2421W        W 3418   6.733   7.027   6.507
 2422W        W 3419   4.589   6.765   5.516
 2423W        W 3420   6.649   0.681   0.828
 2424W        W 3421   3.024   4.810   3.539
 2425W        W 3422   3.639   3.272   1.713
 2426W        W 3423   0.583   1.651   6.435
 2427W        W 3424   6.661   7.636   7.663
 2428W        W 3425   1.466   1.803   1.650
 2429W        W 3426   7.974   2.599   6.351
 2430W        W 3427   1.759   7.229   2.947
 2431W        W 3428   5.629   3.375   6.918
 2432W        W 3429   1.940   1.824   2.779
 2433W        W 3430   0.356   3.263   6.629
 2434W        W 3431   4.445   2.980   4.929
 2435W        W 3432   0.640   7.513   7.356
 2436W        W 3433   2.559   7.153   2.220
 2437W        W 3434   7.496   3.412   2.708
 2438W        W 3435   7.565   4.151   1.746
 2439W        W 3436   5.463   1.709   7.757
 2440W        W 3437   5.457   6.742   2.310
 2441W        W 3438   3.649   7.584   1.328
 2442W        W 3439   7.420   5.093   5.679
 2443W        W 3440   3.277   3.112   4.872
 2444W        W 3441   0.471   6.911   4.679
 2445W        W 3442   4.324   5.850   5.047
 2446W        W 3443   6.378   5.644   0.332
 2447W        W 3444   7.167   1.126   6.581
 2448W        W 3445   7.107   0.381   5.642
 2449W        W 3446   2.787   1.163   3.582
 2450W        W 3447   2.127   3.555   2.518
 2451W        W 3448   0.736   1.869   2.865
 2452W        W 3449   4.347   5.845   4.110
 2453W        W 3450   3.620   3.240   7.133
 2454W        W 3451   4.382   6.728   0.739
 2455W        W 3452   1.658   6.472   1.001
 2456W        W 3453   3.799   2.484   6.789
 2457W        W 3454   0.799   7.732   0.775
 2458W        W 3455   4.209   1.631   1.810
 2459W        W 3456   3.732   4.762   5.440
 2460W        W 3457   1.810   1.322   5.795
 2461W        W 3458   6.493   2.351   1.109
 2462W        W 3459   6.656   6.379   4.359
 2463W        W 3460   7.271   2.660   3.799
 2464W        W 3461   5.789   1.596   7.361
 2465W        W 3462   3.508   4.879   0.798
 2466W        W 3463   5.131   0.883   2.493
 2467W        W 3464   1.668   6.398   1.492
 2468W        W 3465   5.877   5.666   0.368
 2469W        W 3466   3.042   7.711   2.844
 2470W        W 3467   3.148   3.253   1.869
 2471W        W 3468   5.782   4.990   0.529
 2472W        W 3469   0.016   0.954   1.031
 2473W        W 3470   0.217   1.802   6.778
 2474W        W 3471   5.009   6.124   1.916
 2475W        W 3472   4.862   1.391   5.929
 2476W        W 3473   4.864   1.031   0.806
 2477W        W 3474   6.227   4.839   0.685
 2478W        W 3475   0.635   2.928   5.891
 2479W        W 3476   0.304   1.832   4.298
 2480W        W 3477   5.697   7.052   4.869
 2481W        W 3478   0.398   5.380   2.465
 2482W        W 3479   0.282   7.484   6.101
 2483W        W 3480   6.345   0.299   7.174
 2484W        W 3481   3.542   0.425   3.044
 2485W        W 3482   3.009   3.890   0.686
 2486W        W 3483   1.889   5.676   0.776
 2487W        W 3484   6.928   2.635   5.106
 2488W        W 3485   1.302   7.400   2.791
 2489W        W 3486   5.249   3.426   5.061
 2490W        W 3487   3.181   3.331   7.406
 2491W        W 3488   2.764   0.924   7.215
 2492W        W 3489   6.919   5.071   0.124
 2493W        W 3490   4.946   5.288   1.412
 2494W        W 3491   2.523   7.690   2.767
 2495W        W 3492   2.248   3.756   3.523
 2496W        W 3493   2.784   0.552   6.228
 2497W        W 3494   2.120   6.722   6.469
 2498W        W 3495   5.746   7.140   3.576
 2499W        W 3496   4.123   5.505   5.792
 2500W        W 3497   6.697   3.666   4.330
 2501W        W 3498   4.257   2.779   1.207
 2502W        W 3499   3.973   7.256   6.311
 2503W        W 3500   2.486   0.736   5.233
 2504W        W 3501   1.253   7.221   6.388
 2505W        W 3502   4.643   4.368   0.859
 2506W        W 3503   7.093   2.211   5.347
 2507W        W 3504   6.660   0.893   6.415
 2508W        W 3505   3.887   1.574   3.353
 2509W        W 3506   3.449   1.213   2.117
 2510W        W 3507   2.143   5.278   5.905
 2511W        W 3508   5.293   7.536   4.290
 2512W        W 3509   3.879   3.923   7.419
 2513W        W 3510   4.666   6.816   2.461
 2514W        W 3511   4.130   1.602   4.312
 2515W        W 3512   4.803   1.525   4.436
 2516W        W 3513   6.321   1.643   5.821
 2517W        W 3514   0.115   6.496   3.983
 2518W        W 3515   5.765   2.313   3.814
 2519W        W 3516   1.593   2.837   1.352
 2520W        W 3517   3.083   2.326   3.067
 2521W        W 3518   0.692   4.620   5.593
 2522W        W 3519   5.495   7.051   3.137
 2523W        W 3520   6.024   6.635   5.315
 2524W        W 3521   5.726   6.121   0.812
 2525W        W 3522   4.137   3.855   2.006
 2526W        W 3523   3.872   2.403   1.256
 2527W        W 3524   5.741   5.009   4.298
 2528W        W 3525   1.168   3.682   7.458
 2529W        W 3526   7.942   1.647   4.660
 2530W        W 3527   5.113   7.559   5.361
 2531W        W 3528   4.379   7.272   1.563
 2532W        W 3529   2.446   1.262   0.645
 2533W        W 3530   1.462   4.719   4.964
 2534W        W 3531   1.122   7.318   0.672
 2535W        W 3532   5.681   2.720   2.858
 2536W        W 3533   0.433   7.018   2.836
 2537W        W 3534   0.165   4.873   6.192
 2538W        W 3535   5.996   1.866   4.806
 2539W        W 3536   1.138   7.186   3.957
 2540W        W 3537   2.701   2.216   1.482
 2541W        W 3538   6.113   5.338   0.691
 2542W        W 3539   2.068   6.425   1.801
 2543W        W 3540   0.022   6.537   5.597
 2544W        W 3541   4.285   2.466   7.961
 2545W        W 3542   3.663   3.221   3.222
 2546W        W 3543   2.620   5.391   5.803
 2547W        W 3544   1.947   3.726   6.386
 2548W        W 3545   1.924   4.115   1.715
 2549W        W 3546   2.905   3.363   5.249
 2550W        W 3547   7.800   5.724   5.886
 2551W        W 3548   5.979   2.911   3.305
 2552W        W 3549   2.648   2.233   0.735
 2553W        W 3550   7.383   7.918   2.559
 2554W        W 3551   1.180   7.560   7.137
 2555W        W 3552   7.040   3.690   2.691
 2556W        W 3553   2.593   2.703   0.564
 2557W        W 3554   2.693   7.288   4.008
 2558W        W 3555   0.290   1.916   3.446
 2559W        W 3556   5.393   6.058   3.190
 2560W        W 3557   3.489   6.167   6.417
 2561W        W 3558   5.225   7.254   3.613
 2562W        W 3559   2.626   4.533   2.494
 2563W        W 3560   6.285   5.433   6.323
 2564W        W 3561   4.242   7.165   5.329
 2565W        W 3562   1.224   1.386   2.568
 2566W        W 3563   4.421   6.485   5.901
 2567W        W 3564   2.598   4.045   3.722
 2568W        W 3565   0.473   0.659   6.615
 2569W        W 3566   3.659   1.242   1.220
 2570W        W 3567   2.299   1.916   2.028
 2571W        W 3568   7.483   5.419   4.752
 2572W        W 3569   3.731   1.578   1.933
 2573W        W 3570   6.445   6.351   1.457
 2574W        W 3571   5.039   4.547   5.780
 2575W        W 3572   2.717   5.743   3.245
 2576W        W 3573   3.827   6.255   1.124
 2577W        W 3574   1.835   2.835   0.911
 2578W        W 3575   3.982   6.279   6.257
 2579W        W 3576   5.208   5.762   1.579
 2580W        W 3577   4.629   4.863   2.847
 2581W        W 3578   4.389   3.814   4.342
 2582W        W 3579   2.473   1.987   5.536
 2583W        W 3580   4.262   4.481   2.774
 2584W        W 3581   0.580   2.235   4.487
 2585W        W 3582   1.051   3.953   6.659
 2586W        W 3583   2.697   5.227   1.905
 2587W        W 3584   5.622   3.235   3.455
 2588W        W 3585   4.043   7.436   6.805
 2589W        W 3586   3.267   0.835   7.324
 2590W        W 3587   5.838   0.207   7.628
 2591W        W 3588   7.764   4.824   5.905
 2592W        W 3589   3.582   4.706   7.854
 2593W        W 3590   2.903   5.458   2.318
 2594W        W 3591   0.975   1.728   1.838
 2595W        W 3592   2.602   3.625   5.635
 2596W        W 3593   3.428   3.520   3.608
 2597W        W 3594   4.128   2.811   3.600
 2598W        W 3595   7.928   6.144   4.848
 2599W        W 3596   7.175   5.583   3.310
 2600W        W 3597   1.793   3.824   5.904
 2601W        W 3598   1.948   2.751   4.527
 2602W        W 3599   6.887   1.809   6.775
 2603W        W 3600   3.480   5.545   2.765
 2604W        W 3601   7.494   2.980   2.993
 2605W        W 3602   3.064   3.817   5.500
 2606W        W 3603   6.939   2.430   1.973
 2607W        W 3604   2.985   6.036   1.276
 2608W        W 3605   5.485   1.799   3.666
 2609W        W 3606   6.659   1.317   7.716
 2610W        W 3607   3.027   3.032   2.339
 2611W        W 3608   3.127   2.646   0.618
 2612W        W 3609   4.733   1.806   3.284
 2613W        W 3610   6.907   6.374   7.030
 2614W        W 3611   4.886   7.394   4.004
 2615W        W 3612   2.757   6.842   5.049
 2616W        W 3613   0.692   7.207   6.470
 2617W        W 3614   5.241   5.999   0.933
 2618W        W 3615   6.955   4.878   5.022
 2619W        W 3616   5.346   6.759   3.599
 2620W        W 3617   7.525   4.090   5.291
 2621W        W 3618   6.313   4.133   7.457
 2622W        W 3619   6.900   6.117   7.499
 2623W        W 3620   7.662   4.952   4.740
 2624W        W 3621   6.220   6.070   0.091
 2625W        W 3622   4.664   6.196   1.085
 2626W        W 3623   3.535   5.457   6.964
 2627W        W 3624   2.783   1.864   1.867
 2628W        W 3625   3.432   4.496   3.455
 2629W        W 3626   6.494   2.633   5.882
 2630W        W 3627   0.282   3.063   7.090
 2631W        W 3628   1.259   5.069   3.952
 2632W        W 3629   4.464   4.983   4.660
 2633W        W 3630   1.348   2.083   2.165
 2634W        W 3631   5.119   2.565   6.246
 2635W        W 3632   0.178   3.970   6.636
 2636W        W 3633   1.950   1.362   7.459
 2637W        W 3634   1.327   0.760   5.165
 2638W        W 3635   3.823   2.538   4.493
 2639W        W 3636   1.516   5.191   3.309
 2640W        W 3637   3.424   6.199   4.014
 2641W        W 3638   4.940   1.945   4.806
 2642W        W 3639   7.251   4.511   6.477
 2643W        W 3640   2.657   1.079   4.055
 2644W        W 3641   2.950   4.794   0.936
 2645W        W 3642   1.698   5.577   7.027
 2646W        W 3643   5.497   1.392   0.181
 2647W        W 3644   5.793   3.714   7.258
 2648W        W 3645   5.867   1.267   2.498
 2649W        W 3646   0.015   5.128   6.610
 2650W        W 3647   6.938   6.959   5.153
 2651W        W 3648   1.943   1.961   0.798
 2652W        W 3649   4.678   4.410   3.059
 2653W        W 3650   3.795   6.994   6.728
 2654W        W 3651   7.734   2.970   4.900
 2655W        W 3652   1.652   6.942   6.537
 2656W        W 3653   2.054   1.621   6.111
 2657W        W 3654   3.512   2.304   7.181
 2658W        W 3655   2.672   5.460   2.803
 2659W        W 3656   4.587   0.918   3.232
 2660W        W 3657   3.050   6.706   2.977
 2661W        W 3658   0.792   3.963   3.091
 2662W        W 3659   0.772   3.093   6.886
 2663W        W 3660   6.479   3.045   1.801
 2664W        W 3661   5.350   0.990   6.723
 2665W        W 3662   4.789   2.611   4.945
 2666W        W 3663   5.993   5.737   3.783
 2667W        W 3664   3.315   6.918   6.936
 2668W        W 3665   3.632   6.776   4.389
 2669W        W 3666   2.907   2.429   0.206
 2670W        W 3667   1.251   2.534   5.620
 2671W        W 3668   5.610   0.848   2.367
 2672W        W 3669   6.940   7.739   2.371
 2673W        W 3670   1.082   2.750   6.076
 2674W        W 3671   6.230   2.928   7.370
 2675W        W 3672   0.439   4.965   6.876
 2676W        W 3673   0.311   2.685   0.916
 2677W        W 3674   1.273   5.849   2.828
 2678W        W 3675   7.516   4.465   2.932
 2679W        W 3676   3.899   3.965   2.820
 2680W        W 3677   3.392   2.370   1.409
 2681W        W 3678   6.072   2.447   1.921
 2682W        W 3679   7.122   5.247   7.304
 2683W        W 3680   5.605   6.514   7.514
 2684W        W 3681   7.356   2.743   2.016
 2685W        W 3682   4.168   3.264   0.279
 2686W        W 3683   0.854   0.730   2.990
 2687W        W 3684   3.329   4.182   5.768
 2688W        W 3685   0.799   4.267   1.621
 2689W        W 3686   5.014   4.967   3.786
 2690W        W 3687   0.337   3.710   5.695
 2691W        W 3688   4.098   6.140   2.222
 2692W        W 3689   4.997   1.403   1.963
 2693W        W 3690   3.038   7.225   2.996
 2694W        W 3691   5.385   4.975   2.285
 2695W        W 3692   4.609   5.664   3.174
 2696W        W 3693   1.195   1.702   3.000
 2697W        W 3694   0.793   5.097   1.657
 2698W        W 3695   3.031   2.260   4.762
 2699W        W 3696   4.327   6.294   5.366
 2700W        W 3697   7.411   5.289   3.855
 2701W        W 3698   4.319   6.291   1.791
 2702W        W 3699   5.119   5.369   5.689
 2703W        W 3700   0.944   1.316   2.155
 2704W        W 3701   3.520   1.484   3.781
 2705W        W 3702   7.199   1.595   2.219
 2706W        W 3703   0.370   2.938   5.461
 2707W        W 3704   1.122   6.495   3.762
 2708W        W 3705   0.982   2.523   4.400
 2709W        W 3706   1.761   1.334   4.081
 2710W        W 3707   5.455   2.959   4.355
 2711W        W 3708   2.807   5.960   2.300
 2712W        W 3709   1.108   2.163   2.656
 2713W        W 3710   4.819   3.926   3.085
 2714W        W 3711   0.942   5.464   5.252
 2715W        W 3712   4.515   6.769   4.661
 2716W        W 3713   2.569   0.556   2.444
 2717W        W 3714   3.756   3.887   2.336
 2718W        W 3715   4.136   3.034   5.344
 2719W        W 3716   0.636   6.697   6.332
 2720W        W 3717   7.383   3.226   6.730
 2721W        W 3718   5.607   6.219   3.628
 2722W        W 3719   4.931   5.252   7.465
 2723W        W 3720   6.145   5.840   0.773
 2724W        W 3721   4.867   5.791   5.855
 2725W        W 3722   1.855   1.176   3.323
 2726W        W 3723   6.457   2.023   6.966
 2727W        W 3724   0.519   6.946   2.309
 2728W        W 3725   2.363   2.802   2.138
 2729W        W 3726   5.847   4.118   3.883
 2730W        W 3727   7.247   1.699   5.271
 2731W        W 3728   5.158   6.877   7.907
 2732W        W 3729   5.466   2.200   2.456
 2733W        W 3730   0.233   1.842   2.958
 2734W        W 3731   2.121   2.362   2.141
 2735W        W 3732   7.507   5.256   6.656
 2736W        W 3733   6.853   3.226   6.592
 2737W        W 3734   3.167   4.434   1.310
 2738W        W 3735   0.908   3.797   6.199
 2739W        W 3736   6.937   2.864   1.698
 2740W        W 3737   2.619   0.602   1.087
 2741W        W 3738   2.794   6.486   3.411
 2742W        W 3739   4.260   4.496   6.535
 2743W        W 3740   6.242   4.661   5.677
 2744W        W 3741   6.466   1.140   0.168
 2745W        W 3742   1.303   7.828   0.808
 2746W        W 3743   5.848   3.248   4.329
 2747W        W 3744   4.257   7.554   2.007
 2748W        W 3745   3.747   6.839   7.227
 2749W        W 3746   4.827   3.835   5.122
 2750W        W 3747   7.918   5.169   3.783
 2751W        W 3748   2.254   4.379   2.176
 2752W        W 3749   2.173   2.011   6.918
 2753W        W 3750   6.779   5.841   7.078
 2754W        W 3751   1.637   6.681   7.358
 2755W        W 3752   6.399   4.378   6.199
 2756W        W 3753   2.058   6.174   0.798
 2757W        W 3754   3.179   5.758   6.428
 2758W        W 3755   4.048   3.766   6.225
 2759W        W 3756   6.564   6.419   0.254
 2760W        W 3757   5.306   6.386   2.788
 2761W        W 3758   7.468   5.588   5.517
 2762W        W 3759   2.701   7.522   3.226
 2763W        W 3760   2.824   1.042   0.909
 2764W        W 3761   1.539   1.538   6.285
 2765W        W 3762   4.600   1.835   2.790
 2766W        W 3763   1.355   1.945   3.427
 2767W        W 3764   6.439   6.774   1.176
 2768W        W 3765   7.202   0.106   7.190
 2769W        W 3766   5.106   4.417   1.920
 2770W        W 3767   2.263   0.011   3.110
 2771W        W 3768   6.868   5.521   2.830
 2772W        W 3769   4.158   7.875   2.402
 2773W        W 3770   0.364   2.689   2.754
 2774W        W 3771   2.673   1.748   2.338
 2775W        W 3772   3.300   0.326   1.769
 2776W        W 3773   6.430   4.889   0.034
 2777W        W 3774   1.002   0.138   0.471
 2778W        W 3775   1.340   7.090   3.218
 2779W        W 3776   0.781   6.346   1.142
 2780W        W 3777   4.390   2.022   7.479
 2781W        W 3778   0.650   6.091   5.630
 2782W        W 3779   2.970   5.348   6.197
 2783W        W 3780   2.139   2.292   5.336
 2784W        W 3781   2.893   1.028   6.372
 2785W        W 3782   3.096   2.306   1.797
 2786W        W 3783   1.097   2.536   1.314
 2787W        W 3784   0.432   5.450   1.948
 2788W        W 3785   4.684   2.304   4.547
 2789W        W 3786   4.050   1.164   5.574
 2790W        W 3787   7.012   2.600   6.088
 2791W        W 3788   4.917   7.226   6.170
 2792W        W 3789   7.075   4.731   5.503
 2793W        W 3790   7.097   7.532   5.824
 2794W        W 3791   5.077   6.446   3.270
 2795W        W 3792   2.595   3.310   4.371
 2796W        W 3793   4.141   4.132   4.682
 2797W        W 3794   5.744   6.622   6.046
 2798W        W 3795   1.019   6.358   6.387
 2799W        W 3796   2.862   1.434   1.593
 2800W        W 3797   0.655   3.855   7.430
 2801W        W 3798   4.871   6.745   5.951
 2802W        W 3799   3.824   4.637   6.757
 2803W        W 3800   2.447   3.664   6.502
 2804W        W 3801   1.764   2.143   1.870
 2805W        W 3802   1.408   3.627   6.206
 2806W        W 3803   0.532   4.919   4.629
 2807W        W 3804   6.333   1.432   2.627
 2808W        W 3805   5.728   5.428   5.052
 2809W        W 3806   2.060   5.585   4.097
 2810W        W 3807   1.268   3.147   5.061
 2811W        W 3808   7.244   1.852   7.138
 2812W        W 3809   2.312   2.065   2.515
 2813W        W 3810   2.990   3.333   3.908
 2814W        W 3811   5.249   1.295   1.019
 2815W        W 3812   4.108   6.778   6.187
 2816W        W 3813   5.015   0.230   6.352
 2817W        W 3814   5.009   0.253   2.494
 2818W        W 3815   0.644   4.959   5.145
 2819W        W 3816   4.296   5.289   0.715
 2820W        W 3817   3.578   6.360   5.956
 2821W        W 3818   5.257   0.957   1.972
 2822W        W 3819   5.308   3.321   6.012
 2823W        W 3820   7.652   5.779   5.053
 2824W        W 3821   2.398   6.947   4.649
 2825W        W 3822   2.832   4.293   0.953
 2826W        W 3823   6.793   1.523   3.276
 2827W        W 3824   1.200   6.406   2.216
 2828W        W 3825   1.135   4.159   1.237
 2829W        W 3826   4.528   4.269   6.977
 2830W        W 3827   5.144   4.082   6.702
 2831W        W 3828   3.433   0.366   1.260
 2832W        W 3829   7.966   6.022   1.032
 2833W        W 3830   6.823   0.358   6.931
 2834W        W 3831   7.947   0.692   5.500
 2835W        W 3832   0.521   0.446   7.672
 2836W        W 3833   2.296   5.687   4.551
 2837W        W 3834   6.443   0.459   6.252
 2838W        W 3835   4.017   7.191   5.793
 2839W        W 3836   6.720   5.876   3.141
 2840W        W 3837   4.972   0.499   7.559
 2841W        W 3838   3.759   4.224   1.630
 2842W        W 3839   3.935   3.402   2.103
 2843W        W 3840   3.916   3.697   4.524
 2844W        W 3841   1.872   3.616   1.317
 2845W        W 3842   5.748   0.384   0.890
 2846W        W 3843   5.464   2.484   4.192
 2847W        W 3844   3.873   2.099   7.500
 2848W        W 3845   4.692   1.045   4.961
 2849W        W 3846   6.161   1.596   6.973
 2850W        W 3847   2.380   2.953   6.950
 2851W        W 3848   1.572   6.907   1.279
 2852W        W 3849   5.654   2.234   1.128
 2853W        W 3850   7.494   5.950   1.779
 2854W        W 3851   2.287   3.787   6.020
 2855W        W 3852   6.428   0.329   3.427
 2856W        W 3853   5.612   3.445   2.143
 2857W        W 3854   4.232   6.237   0.787
 2858W        W 3855   5.527   1.996   4.684
 2859W        W 3856   4.884   4.888   2.071
 2860W        W 3857   6.246   4.910   7.035
 2861W        W 3858   1.485   1.267   2.992
 2862W        W 3859   2.860   4.948   5.923
 2863W        W 3860   7.776   6.509   1.085
 2864W        W 3861   0.819   1.179   5.566
 2865W        W 3862   0.858   3.400   3.609
 2866W        W 3863   3.884   3.749   3.509
 2867W        W 3864   6.848   3.050   5.900
 2868W        W 3865   7.470   1.803   3.854
 2869W        W 3866   6.177   6.295   1.034
 2870W        W 3867   1.334   3.511   0.635
 2871W        W 3868   2.567   6.544   2.936
 2872W        W 3869   4.873   1.310   3.441
 2873W        W 3870   0.393   1.875   1.145
 2874W        W 3871   1.724   4.395   2.923
 2875W        W 3872   4.528   7.126   2.095
 2876W        W 3873   4.715   3.551   2.653
 2877W        W 3874   0.818   5.909   1.375
 2878W        W 3875   5.168   3.096   3.621
 2879W        W 3876   7.101   6.431   3.940
 2880W        W 3877   2.249   3.121   4.707
 2881W        W 3878   2.988   7.278   3.568
 2882W        W 3879   6.401   0.996   4.252
 2883W        W 3880   0.622   6.012   4.279
 2884W        W 3881   7.262   6.256   6.255
 2885W        W 3882   2.183   2.228   2.976
 2886W        W 3883   2.149   6.189   5.287
 2887W        W 3884   6.939   2.437   3.429
 2888W        W 3885   0.490   2.594   2.181
 2889W        W 3886   6.833   4.216   7.418
 2890W        W 3887   6.616   0.347   3.912
 2891W        W 3888   1.938   6.744   3.818
 2892W        W 3889   4.036   2.491   6.116
 2893W        W 3890   7.259   4.786   1.230
 2894W        W 3891   6.957   3.238   4.474
 2895W        W 3892   6.350   5.378   6.824
 2896W        W 3893   0.019   3.749   3.107
 2897W        W 3894   6.409   0.796   7.274
 2898W        W 3895   2.540   0.570   4.216
 2899W        W 3896   3.795   6.535   2.031
 2900W        W 3897   7.216   2.547   2.874
 2901W        W 3898   5.584   2.813   3.825
 2902W        W 3899   3.194   4.537   4.327
 2903W        W 3900   5.300   4.928   7.305
 2904W        W 3901   5.658   0.655   1.795
 2905W        W 3902   7.086   4.219   5.565
 2906W        W 3903   1.997   7.158   6.130
 2907W        W 3904   3.852   4.515   4.443
 2908W        W 3905   4.174   6.968   1.174
 2909W        W 3906   6.530   6.283   3.351
 2910W        W 3907   4.354   2.961   7.878
 2911W        W 3908   2.496   5.857   5.487
 2912W        W 3909   6.873   2.870   3.116
 2913W        W 3910   6.952   1.182   6.120
 2914W        W 3911   2.819   2.383   4.324
 2915W        W 3912   5.522   1.652   0.746
 2916W        W 3913   7.665   4.375   6.110
 2917W        W 3914   0.231   2.322   1.302
 2918W        W 3915   1.287   5.752   6.074
 2919W        W 3916   0.736   3.367   1.322
 2920W        W 3917   5.548   2.164   7.467
 2921W        W 3918   7.436   3.294   5.159
 2922W        W 3919   3.959   3.775   5.041
 2923W        W 3920   6.272   0.482   7.665
 2924W        W 3921   6.839   6.656   3.518
 2925W        W 3922   4.220   1.831   6.664
 2926W        W 3923   3.919   1.155   4.663
 2927W        W 3924   7.385   1.844   2.629
 2928W        W 3925   2.270   4.988   1.788
 2929W        W 3926   1.960   3.126   5.126
 2930W        W 3927   5.423   3.545   5.544
 2931W        W 3928   3.457   2.864   4.348
 2932W        W 3929   4.337   2.316   6.616
 2933W        W 3930   3.931   4.556   3.533
 2934W        W 3931   1.196   6.576   1.337
 2935W        W 3932   5.048   0.717   2.988
 2936W        W 3933   3.097   3.233   4.407
 2937W        W 3934   7.907   2.721   6.912
 2938W        W 3935   0.229   2.968   1.915
 2939W        W 3936   6.543   3.176   2.286
 2940W        W 3937   4.856   6.493   0.713
 2941W        W 3938   4.053   1.372   3.796
 2942W        W 3939   0.747   1.074   3.383
 2943W        W 3940   1.188   1.395   3.423
 2944W        W 3941   2.637   1.961   4.541
 2945W        W 3942   3.170   1.106   3.958
 2946W        W 3943   5.732   7.458   4.558
 2947W        W 3944   6.469   6.227   7.223
 2948W        W 3945   5.445   0.652   6.303
 2949W        W 3946   1.270   5.859   6.947
 2950W        W 3947   4.720   3.811   6.804
 2951W        W 3948   1.433   2.037   6.441
 2952W        W 3949   5.501   6.142   1.764
 2953W        W 3950   5.539   6.685   5.180
 2954W        W 3951   0.677   4.429   7.272
 2955W        W 3952   0.686   5.728   2.754
 2956W        W 3953   5.885   7.832   7.274
 2957W        W 3954   2.826   0.864   2.789
 2958W        W 3955   6.763   4.101   2.549
 2959W        W 3956   6.807   1.423   5.209
 2960W        W 3957   7.913   4.608   2.011
 2961W        W 3958   6.303   3.920   4.045
 2962W        W 3959   4.753   4.803   4.197
 2963W        W 3960   6.938   7.597   3.808
 2964W        W 3961   5.456   5.659   5.942
 2965W        W 3962   2.913   4.299   5.277
 2966W        W 3963   3.560   1.510   4.687
 2967W        W 3964   6.668   1.201   2.901
 2968W        W 3965   7.982   4.252   3.189
 2969W        W 3966   7.677   5.566   3.502
 2970W        W 3967   4.712   1.023   6.263
 2971W        W 3968   7.022   5.306   1.796
 2972W        W 3969   3.124   5.489   5.752
 2973W        W 3970   1.860   2.338   4.841
 2974W        W 3971   3.236   0.881   3.510
 2975W        W 3972   3.964   1.397   2.877
 2976W        W 3973   5.709   6.622   0.713
 2977W        W 3974   1.601   2.912   2.692
 2978W        W 3975   3.684   5.148   6.565
 2979W        W 3976   0.302   3.597   7.011
 2980W        W 3977   3.770   0.768   7.426
 2981W        W 3978   1.465   4.304   0.843
 2982W        W 3979   4.759   6.948   1.681
 2983W        W 3980   5.315   3.793   1.890
 2984W        W 3981   6.785   4.688   3.645
 2985W        W 3982   3.224   1.750   6.995
 2986W        W 3983   7.129   6.327   4.458
 2987W        W 3984   6.349   5.948   1.740
 2988W        W 3985   0.588   3.175   2.793
 2989W        W 3986   6.149   0.720   0.122
 2990W        W 3987   7.436   6.397   2.962
 2991W        W 3988   6.645   5.699   6.537
 2992W        W 3989   1.924   4.223   6.773
 2993W        W 3990   0.877   7.154   2.627
 2994W        W 3991   7.432   4.914   5.195
 2995W        W 3992   6.142   5.090   5.335
 2996W        W 3993   0.009   4.606   2.829
 2997W        W 3994   0.069   1.854   5.550
 2998W        W 3995   4.542   5.508   6.695
 2999W        W 3996   1.599   3.595   4.201
 3000W        W 3997   3.170   6.575   6.559
 3001W        W 3998   2.093   6.101   4.737
 3002W        W 3999   5.238   1.819   2.203
 3003W        W 4000   7.428   6.303   0.651
 3004W        W 4001   1.671   0.705   3.220
 3005W        W 4002   2.555   6.994   1.282
 3006W        W 4003   6.197   0.457   0.578
 3007W        W 4004   6.105   2.661   3.729
 3008W        W 4005   0.513   4.491   2.834
 3009W        W 4006   3.802   5.373   0.670
 3010W        W 4007   5.866   5.699   6.242
 3011W        W 4008   7.313   5.731   7.484
 3012W        W 4009   4.431   3.189   6.314
 3013W        W 4010   1.327   6.877   2.737
 3014W        W 4011   7.205   5.047   6.280
 3015W        W 4012   5.592   3.421   1.614
 3016W        W 4013   6.086   0.913   4.706
 3017W        W 4014   6.945   5.863   6.145
 3018W        W 4015   3.285   2.892   5.866
 3019W        W 4016   4.276   2.514   4.753
 3020W        W 4017   6.252   1.659   1.313
 3021W        W 4018   3.289   3.024   3.624
 3022W        W 4019   0.855   0.567   3.478
 3023W        W 4020   0.061   1.684   0.803
 3024W        W 4021   0.385   5.522   3.124
 3025W        W 4022   1.160   6.863   5.137
 3026W        W 4023   7.570   1.405   4.908
 3027W        W 4024   7.280   7.831   6.369
 3028W        W 4025   0.619   6.337   3.887
 3029W        W 4026   6.653   6.261   6.223
 3030W        W 4027   3.829   1.473   0.349
 3031W        W 4028   6.671   1.334   3.941
 3032W        W 4029   6.566   0.801   3.197
 3033W        W 4030   3.856   2.105   6.465
 3034W        W 4031   6.939   5.684   5.611
 3035W        W 4032   2.997   0.753   4.311
 3036W        W 4033   0.618   1.413   5.060
 3037W        W 4034   7.518   2.786   2.500
 3038W        W 4035   1.226   6.392   4.970
 3039W        W 4036   4.187   5.790   1.814
 3040W        W 4037   0.222   3.668   4.313
 3041W        W 4038   4.748   5.860   6.376
 3042W        W 4039   7.692   4.261   3.905
 3043W        W 4040   3.098   0.987   1.784
 3044W        W 4041   0.006   1.119   3.746
 3045W        W 4042   1.811   6.861   1.761
 3046W        W 4043   6.135   6.735   4.831
 3047W        W 4044   4.957   1.425   1.439
 3048W        W 4045   5.706   5.734   6.957
 3049W        W 4046   3.490   4.652   1.672
 3050W        W 4047   5.134   2.076   6.340
 3051W        W 4048   6.270   3.817   7.065
 3052W        W 4049   5.351   7.575   6.824
 3053W        W 4050   6.507   6.730   6.147
 3054W        W 4051   2.638   2.091   3.155
 3055W        W 4052   4.002   4.893   0.667
 3056W        W 4053   4.519   3.226   1.190
 3057W        W 4054   6.663   6.698   4.803
 3058W        W 4055   6.061   4.632   5.065
 3059W        W 4056   3.603   7.336   7.071
 3060W        W 4057   1.790   2.944   6.680
 3061W        W 4058   5.266   6.816   0.452
 3062W        W 4059   7.873   2.822   4.390
 3063W        W 4060   2.946   2.660   1.445
 3064W        W 4061   5.395   6.192   2.254
 3065W        W 4062   3.641   3.772   1.859
 3066W        W 4063   5.266   0.863   0.372
 3067W        W 4064   4.774   3.380   4.901
 3068W        W 4065   2.615   4.976   2.744
 3069W        W 4066   5.116   2.606   5.354
 3070W        W 4067   2.873   3.119   0.491
 3071W        W 4068   1.566   2.620   6.973
 3072W        W 4069   1.685   2.489   5.305
 3073W        W 4070   1.539   4.068   7.095
 3074W        W 4071   7.202   3.140   3.934
 3075W        W 4072   0.692   4.502   4.900
 3076W        W 4073   0.654   4.753   3.583
 3077W        W 4074   7.340   1.997   6.635
 3078W        W 4075   5.298   5.271   3.459
 3079W        W 4076   3.872   1.632   1.431
 3080W        W 4077   2.902   1.938   0.400
 3081W        W 4078   6.474   4.266   4.365
 3082W        W 4079   6.034   3.639   6.645
 3083W        W 4080   6.735   2.441   6.882
 3084W        W 4081   2.834   2.802   1.918
 3085W        W 4082   6.053   2.287   6.215
 3086W        W 4083   5.184   2.791   2.137
 3087W        W 4084   1.073   2.715   7.136
 3088W        W 4085   2.967   0.166   1.127
 3089W        W 4086   5.153   6.877   2.736
 3090W        W 4087   5.455   5.407   7.431
 3091W        W 4088   5.507   2.724   3.339
 3092W        W 4089   0.929   7.025   6.070
 3093W        W 4090   6.361   7.266   6.251
 3094W        W 4091   4.004   7.602   2.787
 3095W        W 4092   1.718   6.002   5.746
 3096W        W 4093   3.427   4.360   5.288
 3097W        W 4094   4.665   3.300   7.636
 3098W        W 4095   6.240   3.496   2.817
 3099W        W 4096   3.885   2.821   4.063
 3100W        W 4097   4.055   7.274   7.308
 3101W        W 4098   3.219   4.089   6.263
 3102W        W 4099   4.693   4.089   4.654
 3103W        W 4100   7.148   2.197   3.900
 3104W        W 4101   4.409   3.722   4.836
 3105W        W 4102   7.130   4.939   0.698
 3106W        W 4103   2.290   1.371   6.531
 3107W        W 4104   6.713   4.439   5.258
 3108W        W 4105   7.996   1.626   3.814
 3109W        W 4106   2.560   4.467   6.694
 3110W        W 4107   5.962   1.926   7.711
 3111W        W 4108   5.361   6.946   6.122
 3112W        W 4109   2.113   3.328   6.675
 3113W        W 4110   2.603   6.516   6.626
 3114W        W 4111   3.626   6.211   2.418
 3115W        W 4112   1.036   6.955   1.049
 3116W        W 4113   2.466   3.137   5.695
 3117W        W 4114   7.264   0.922   3.773
 3118W        W 4115   6.054   2.418   0.854
 3119W        W 4116   1.634   6.418   3.563
 3120W        W 4117   3.014   5.290   1.074
 3121W        W 4118   4.083   3.321   4.876
 3122W        W 4119   6.729   0.130   2.091
 3123W        W 4120   7.782   0.559   6.292
 3124W        W 4121   3.868   1.856   3.787
 3125W        W 4122   1.743   3.791   2.859
 3126W        W 4123   2.807   0.133   2.655
 3127W        W 4124   0.167   4.352   6.274
 3128W        W 4125   4.778   7.737   6.134
 3129W        W 4126   5.147   3.770   5.890
 3130W        W 4127   6.403   5.201   4.477
 3131W        W 4128   6.078   2.321   1.408
 3132W        W 4129   0.799   2.683   0.650
 3133W        W 4130   3.334   2.802   1.718
 3134W        W 4131   1.640   6.749   5.235
 3135W        W 4132   1.827   4.490   4.086
 3136W        W 4133   2.102   2.922   0.477
 3137W        W 4134   4.714   4.586   4.822
 3138W        W 4135   2.164   2.687   4.987
 3139W        W 4136   0.002   2.638   2.374
 3140W        W 4137   4.802   3.321   6.649
 3141W        W 4138   0.053   6.215   2.382
 3142W        W 4139   0.343   4.020   2.816
 3143W        W 4140   4.525   5.877   2.726
 3144W        W 4141   7.794   4.731   3.303
 3145W        W 4142   2.416   0.816   3.675
 3146W        W 4143   0.889   4.904   7.108
 3147W        W 4144   7.782   3.204   7.062
 3148W        W 4145   4.224   7.019   2.548
 3149W        W 4146   6.501   2.560   1.629
 3150W        W 4147   4.599   5.300   5.717
 3151W        W 4148   0.386   6.357   4.815
 3152W        W 4149   7.739   6.259   5.949
 3153W        W 4150   2.333   6.813   2.556
 3154W        W 4151   1.479   6.293   5.414
 3155W        W 4152   4.645   2.962   6.954
 3156W        W 4153   5.856   5.041   1.035
 3157W        W 4154   5.208   1.668   4.179
 3158W        W 4155   4.293   1.240   6.427
 3159W        W 4156   0.954   6.925   5.588
 3160W        W 4157   1.459   6.295   6.058
 3161W        W 4158   3.745   3.708   4.006
 3162W        W 4159   4.093   5.208   0.255
 3163W        W 4160   3.966   1.987   2.102
 3164W        W 4161   2.686   0.990   1.423
 3165W        W 4162   2.651   1.176   5.459
 3166W        W 4163   1.849   4.739   5.971
 3167W        W 4164   1.865   1.901   5.100
 3168W        W 4165   7.004   6.668   6.068
 3169W        W 4166   7.048   6.015   6.652
 3170W        W 4167   5.741   1.271   6.911
 3171W        W 4168   6.268   3.840   4.548
 3172W        W 4169   0.260   6.960   1.305
 3173W        W 4170   4.897   7.276   2.500
 3174W        W 4171   3.152   5.639   4.899
 3175W        W 4172   5.059   1.818   6.783
 3176W        W 4173   5.057   5.601   0.189
 3177W        W 4174   6.778   6.761   2.707
 3178W        W 4175   7.589   0.946   0.704
 3179W        W 4176   0.209   2.304   6.908
 3180W        W 4177   0.684   3.365   5.649
 3181W        W 4178   7.468   1.528   4.410
 3182W        W 4179   7.398   3.758   2.312
 3183W        W 4180   4.670   0.386   6.820
 3184W        W 4181   0.975   1.663   5.530
 3185W        W 4182   6.021   4.570   7.344
 3186W        W 4183   7.116   1.228   4.183
 3187W        W 4184   1.749   3.902   4.596
 3188W        W 4185   5.948   0.804   6.934
 3189W        W 4186   4.435   6.273   3.843
 3190W        W 4187   0.771   3.154   5.213
 3191W        W 4188   5.416   5.152   4.730
 3192W        W 4189   1.082   1.749   6.216
 3193W        W 4190   0.999   6.309   2.931
 3194W        W 4191   2.531   5.946   6.853
 3195W        W 4192   7.732   0.971   3.310
 3196W        W 4193   0.621   4.318   6.011
 3197W        W 4194   2.295   4.493   1.674
 3198W        W 4195   5.238   6.359   4.856
 3199W        W 4196   0.661   2.097   2.069
 3200W        W 4197   5.967   0.559   1.351
 3201W        W 4198   6.765   1.728   6.054
 3202W        W 4199   2.415   6.692   2.061
 3203W        W 4200   0.817   6.616   2.566
 3204W        W 4201   6.275   4.688   4.555
 3205W        W 4202   3.067   5.253   1.573
 3206W        W 4203   3.409   3.072   2.653
 3207W        W 4204   2.769   0.748   3.294
 3208W        W 4205   5.537   2.867   6.867
 3209W        W 4206   1.708   4.546   7.155
 3210W        W 4207   7.916   3.075   2.713
 3211W        W 4208   6.830   4.933   4.480
 3212W        W 4209   5.067   3.659   6.379
 3213W        W 4210   2.080   2.525   6.774
 3214W        W 4211   2.213   7.419   3.118
 3215W        W 4212   7.279   6.396   3.459
 3216W        W 4213   4.397   2.247   2.510
 3217W        W 4214   1.672   5.883   4.356
 3218W        W 4215   3.913   3.076   2.491
 3219W        W 4216   1.951   3.317   0.807
 3220W        W 4217   6.718   1.353   6.633
 3221W        W 4218   3.300   2.153   6.074
 3222W        W 4219   5.511   3.293   3.953
 3223W        W 4220   4.292   4.488   0.512
 3224W        W 4221   6.306   2.154   0.009
 3225W        W 4222   3.273   5.640   1.376
 3226W        W 4223   6.130   6.343   6.317
 3227W        W 4224   3.579   3.879   5.359
 3228W        W 4225   0.986   3.919   0.808
 3229W        W 4226   1.154   6.083   5.731
 3230W        W 4227   4.880   3.096   2.857
 3231W        W 4228   6.972   4.506   0.922
 3232W        W 4229   5.218   2.776   2.645
 3233W        W 4230   4.267   4.999   4.202
 3234W        W 4231   2.682   3.835   5.164
 3235W        W 4232   2.972   2.884   7.959
 3236W        W 4233   5.086   4.374   3.340
 3237W        W 4234   5.454   7.214   2.516
 3238W        W 4235   5.533   5.395   2.623
 3239W        W 4236   4.755   5.315   3.521
 3240W        W 4237   7.166   1.596   6.351
 3241W        W 4238   3.473   3.280   4.073
 3242W        W 4239   5.668   1.493   4.030
 3243W        W 4240   7.628   1.786   1.981
 3244W        W 4241   3.319   4.910   1.266
 3245W        W 4242   0.668   7.268   1.444
 3246W        W 4243   1.486   5.593   0.469
 3247W        W 4244   5.049   2.706   0.627
 3248W        W 4245   4.979   0.698   6.557
 3249W        W 4246   6.094   1.949   1.814
 3250W        W 4247   5.749   1.134   1.984
   8.00000   8.00000   8.00000
