Martini system from ../2_Creating_coordinates/TYR-SER-TYR_aa.pdb
 4247
    1TYR     BB    1   0.320   3.304   5.861  0.3080  0.2321  0.3459
    1TYR    SC1    2   0.573   3.298   5.695  0.0458 -0.1464  0.1056
    1TYR    SC2    3   0.842   3.316   5.708  0.0294  0.3951 -0.0153
    1TYR    SC3    4   0.720   3.292   5.469 -0.0337 -0.0243  0.0496
    2SER     BB    5   0.403   3.452   6.137 -0.0069  0.1703 -0.1343
    2SER    SC1    6   0.250   3.457   6.359  0.2139 -0.0463  0.0332
    3TYR     BB    7   0.709   3.395   6.194  0.0411  0.0715  0.1076
    3TYR    SC1    8   0.916   3.584   6.139  0.1160 -0.0711  0.0692
    3TYR    SC2    9   1.027   3.698   5.920 -0.0433  0.0484  0.0483
    3TYR    SC3   10   1.032   3.827   6.157 -0.1296  0.0503  0.0492
    1TYR     BB   11   0.440   4.745   5.273  0.0682  0.1617 -0.1970
    1TYR    SC1   12   0.626   4.590   5.418  0.1408 -0.1791 -0.1585
    1TYR    SC2   13   0.865   4.477   5.474  0.0103 -0.3363  0.1058
    1TYR    SC3   14   0.674   4.333   5.350  0.0241 -0.2345 -0.0368
    2SER     BB   15   0.570   4.685   4.928 -0.2544  0.0731 -0.1478
    2SER    SC1   16   0.380   4.795   4.811  0.0039  0.4736 -0.1800
    3TYR     BB   17   0.781   4.526   4.932  0.2255  0.2825 -0.0526
    3TYR    SC1   18   1.030   4.614   5.026  0.1291  0.3261  0.0137
    3TYR    SC2   19   1.185   4.749   5.201  0.2803  0.4477 -0.2075
    3TYR    SC3   20   1.222   4.780   4.936  0.5314 -0.2544 -0.2822
    1TYR     BB   21   6.683   6.860   7.376 -0.3091 -0.2717  0.1172
    1TYR    SC1   22   6.922   6.870   7.576  0.1103  0.0863 -0.0722
    1TYR    SC2   23   7.191   6.877   7.599  0.1149  0.2163 -0.1541
    1TYR    SC3   24   7.037   6.992   7.788  0.1208  0.2631 -0.1778
    2SER     BB   25   6.372   6.844   7.518 -0.3433  0.4196  0.1347
    2SER    SC1   26   6.188   6.712   7.381  0.1376 -0.4121 -0.1280
    3TYR     BB   27   6.182   7.172   7.578  0.4542  0.3431 -0.0664
    3TYR    SC1   28   6.251   7.299   7.297  0.0321 -0.2276 -0.1825
    3TYR    SC2   29   6.482   7.410   7.211 -0.0750  0.1402 -0.0207
    3TYR    SC3   30   6.245   7.515   7.135 -0.1875 -0.0838  0.0099
    1TYR     BB   31   1.475   3.603   6.066 -0.2211  0.0751  0.0076
    1TYR    SC1   32   1.506   3.516   5.781  0.1912  0.1468 -0.0686
    1TYR    SC2   33   1.677   3.391   5.613  0.0069  0.1280 -0.2477
    1TYR    SC3   34   1.423   3.442   5.534 -0.1650 -0.1124  0.1167
    2SER     BB   35   1.655   3.915   6.073 -0.1190 -0.2602  0.0676
    2SER    SC1   36   1.877   3.872   5.982  0.2031 -0.1818 -0.2226
    3TYR     BB   37   1.398   4.157   6.051  0.0291  0.1791 -0.5225
    3TYR    SC1   38   1.514   4.296   6.292 -0.2085  0.1230  0.2825
    3TYR    SC2   39   1.424   4.432   6.507  0.1367  0.1758  0.4010
    3TYR    SC3   40   1.689   4.401   6.468  0.0999  0.4194 -0.1736
    1TYR     BB   41   7.088   4.274   6.043 -0.1185  0.4503 -0.3975
    1TYR    SC1   42   6.949   4.112   6.189 -0.2513  0.3243 -0.0896
    1TYR    SC2   43   6.773   3.907   6.198 -0.3490  0.4114  0.0324
    1TYR    SC3   44   6.951   3.942   6.398 -0.1868  0.3211 -0.0927
    2SER     BB   45   7.363   4.097   5.853  0.2452  0.1738 -0.0322
    2SER    SC1   46   7.269   3.881   5.782 -0.1277  0.0232  0.0334
    3TYR     BB   47   7.540   4.286   5.653  0.0162  0.1647  0.0727
    3TYR    SC1   48   7.678   4.255   5.434  0.1955  0.0583  0.2226
    3TYR    SC2   49   7.781   4.367   5.211  0.2411  0.0057  0.2169
    3TYR    SC3   50   7.890   4.141   5.311 -0.0920 -0.2625  0.0008
    1TYR     BB   51   0.266   6.649   4.657  0.3300  0.3088  0.2805
    1TYR    SC1   52   0.375   6.860   4.510 -0.2462 -0.0788 -0.0215
    1TYR    SC2   53   0.368   7.106   4.398  0.0752  0.0476  0.2150
    1TYR    SC3   54   0.473   6.898   4.261 -0.5039 -0.0510 -0.1225
    2SER     BB   55   0.029   6.731   4.862  0.2967 -0.0625  0.0932
    2SER    SC1   56  -0.221   6.645   4.797 -0.1068 -0.1786 -0.1140
    3TYR     BB   57   0.023   7.075   4.907  0.0893 -0.0248  0.3586
    3TYR    SC1   58  -0.039   7.232   4.671  0.4446 -0.0269 -0.2074
    3TYR    SC2   59  -0.198   7.429   4.577  0.2586  0.0391  0.2148
    3TYR    SC3   60   0.045   7.387   4.466  0.1006  0.1723 -0.2074
    1TYR     BB   61   6.424   6.549   1.272  0.5045  0.0484  0.5167
    1TYR    SC1   62   6.469   6.833   1.295  0.2070 -0.0650  0.0955
    1TYR    SC2   63   6.612   7.054   1.233 -0.2162  0.1587 -0.1349
    1TYR    SC3   64   6.484   7.037   1.470  0.1657 -0.0379  0.0678
    2SER     BB   65   6.374   6.299   0.923 -0.3349  0.2262 -0.2243
    2SER    SC1   66   6.518   6.078   0.962  0.2274  0.1219 -0.3937
    3TYR     BB   67   6.116   6.396   0.721  0.1406 -0.3437 -0.1846
    3TYR    SC1   68   5.842   6.363   0.777 -0.2015 -0.1394 -0.1249
    3TYR    SC2   69   5.608   6.419   0.900 -0.0897 -0.2698  0.1565
    3TYR    SC3   70   5.648   6.175   0.791 -0.1673 -0.1729 -0.0965
    1TYR     BB   71   5.628   4.691   7.129  0.1568  0.2132  0.2182
    1TYR    SC1   72   5.406   4.753   7.321  0.1352  0.2295 -0.0420
    1TYR    SC2   73   5.184   4.907   7.304 -0.3355 -0.4112 -0.1831
    1TYR    SC3   74   5.286   4.842   7.546  0.1125  0.3886 -0.1160
    2SER     BB   75   5.942   4.635   7.299  0.0359 -0.5335  0.1313
    2SER    SC1   76   6.033   4.475   7.483 -0.1016  0.2120 -0.0544
    3TYR     BB   77   6.139   4.892   7.232  0.1509  0.0658  0.2161
    3TYR    SC1   78   6.378   4.904   7.418 -0.0826 -0.2399  0.1681
    3TYR    SC2   79   6.412   4.928   7.685 -0.1498 -0.3072  0.1833
    3TYR    SC3   80   6.621   4.863   7.528  0.0002  0.1774  0.1609
    1TYR     BB   81   6.503   7.354   2.789 -0.1945  0.1913  0.2373
    1TYR    SC1   82   6.258   7.486   2.650  0.3173  0.1743  0.1950
    1TYR    SC2   83   6.035   7.494   2.497  0.1146 -0.2691  0.4400
    1TYR    SC3   84   6.151   7.724   2.580  0.0579 -0.0218 -0.1109
    2SER     BB   85   6.405   6.997   2.852  0.0052 -0.2830  0.3167
    2SER    SC1   86   6.588   6.889   2.797  0.0847 -0.2415 -0.1128
    3TYR     BB   87   6.157   7.054   2.984 -0.1554  0.0696 -0.1926
    3TYR    SC1   88   6.059   7.342   3.068 -0.2833 -0.1779  0.0415
    3TYR    SC2   89   5.926   7.556   2.971  0.1132  0.0602 -0.0037
    3TYR    SC3   90   6.000   7.549   3.231 -0.0617 -0.1142  0.0445
    1TYR     BB   91   0.685   5.964   5.699  0.0586  0.2016 -0.0231
    1TYR    SC1   92   0.730   6.058   5.451 -0.1029  0.4340  0.2924
    1TYR    SC2   93   0.915   6.056   5.254 -0.3048  0.2668  0.0980
    1TYR    SC3   94   0.816   6.290   5.343  0.0483  0.3636  0.2577
    2SER     BB   95   0.372   5.789   5.716  0.1388  0.0679  0.2710
    2SER    SC1   96   0.340   5.677   5.472 -0.3227 -0.1409  0.1443
    3TYR     BB   97   0.331   5.717   5.972 -0.0638  0.0719  0.0531
    3TYR    SC1   98   0.421   5.897   6.172  0.0529 -0.0190  0.2594
    3TYR    SC2   99   0.438   6.166   6.192  0.0733  0.0108 -0.0871
    3TYR    SC3  100   0.517   6.010   6.398 -0.6168  0.2777  0.4299
    1TYR     BB  101   5.632   6.504   3.753  0.0520 -0.3811  0.0260
    1TYR    SC1  102   5.462   6.519   3.516  0.1434  0.3686 -0.1570
    1TYR    SC2  103   5.344   6.611   3.291  0.0421  0.1005 -0.2176
    1TYR    SC3  104   5.418   6.352   3.309  0.1613  0.1475  0.0136
    2SER     BB  105   5.635   6.161   3.823  0.2646 -0.2263 -0.0862
    2SER    SC1  106   5.476   6.054   3.705 -0.0323  0.2943 -0.3626
    3TYR     BB  107   5.784   5.957   4.052 -0.0634  0.1614 -0.2057
    3TYR    SC1  108   5.975   5.787   3.885 -0.1481  0.0910 -0.0537
    3TYR    SC2  109   6.099   5.702   3.660 -0.0068  0.2936 -0.0553
    3TYR    SC3  110   6.130   5.565   3.891  0.0275  0.2096 -0.1091
    1TYR     BB  111   1.147   4.157   5.267  0.1045  0.0628 -0.2081
    1TYR    SC1  112   1.215   4.212   5.017 -0.3079 -0.1817  0.2090
    1TYR    SC2  113   1.332   4.347   4.815 -0.1644 -0.3395  0.1832
    1TYR    SC3  114   1.189   4.124   4.763 -0.3246 -0.2504  0.2343
    2SER     BB  115   1.229   4.149   5.581 -0.1041 -0.1117  0.0338
    2SER    SC1  116   1.365   3.923   5.631 -0.0541 -0.2592 -0.1697
    3TYR     BB  117   0.950   4.158   5.796  0.1516 -0.2447 -0.3423
    3TYR    SC1  118   0.967   4.370   6.048 -0.0925  0.1443 -0.0018
    3TYR    SC2  119   0.869   4.585   6.179 -0.0053  0.3168 -0.2127
    3TYR    SC3  120   1.136   4.543   6.169 -0.0106  0.3105 -0.3406
    1TYR     BB  121   7.087   6.072   6.081 -0.0241  0.1545  0.4397
    1TYR    SC1  122   6.789   5.956   5.992 -0.1577  0.0308  0.0193
    1TYR    SC2  123   6.714   5.714   5.897  0.0849 -0.0868  0.1164
    1TYR    SC3  124   6.534   5.873   6.020 -0.0798 -0.2121  0.0411
    2SER     BB  125   7.289   5.836   6.091  0.0728 -0.3807 -0.1682
    2SER    SC1  126   7.533   5.842   6.035  0.1268 -0.1153 -0.2324
    3TYR     BB  127   7.155   5.508   6.114 -0.0873 -0.0256  0.1045
    3TYR    SC1  128   7.447   5.380   6.077  0.0113  0.4875  0.5286
    3TYR    SC2  129   7.615   5.398   5.867 -0.2248 -0.0003  0.2786
    3TYR    SC3  130   7.664   5.220   6.063 -0.1059  0.3235  0.5546
    1TYR     BB  131   5.992   6.876   1.261  0.1319  0.1160 -0.2814
    1TYR    SC1  132   5.984   7.179   1.324 -0.0097 -0.2406 -0.2019
    1TYR    SC2  133   6.142   7.394   1.370 -0.3073 -0.0103 -0.2195
    1TYR    SC3  134   5.923   7.351   1.523 -0.2522 -0.3055 -0.2161
    2SER     BB  135   5.867   6.592   1.273  0.2195  0.0455 -0.0033
    2SER    SC1  136   5.971   6.373   1.259 -0.2572 -0.0420  0.0325
    3TYR     BB  137   5.527   6.528   1.408 -0.1165  0.0732 -0.0136
    3TYR    SC1  138   5.640   6.340   1.634 -0.2318 -0.0776 -0.1055
    3TYR    SC2  139   5.796   6.174   1.780 -0.2929 -0.0884 -0.0519
    3TYR    SC3  140   5.601   6.317   1.900 -0.0700  0.2276 -0.0489
    1TYR     BB  141   0.708   4.906   5.775  0.4229 -0.1279  0.1312
    1TYR    SC1  142   0.824   4.998   6.025  0.1939 -0.0896  0.1277
    1TYR    SC2  143   1.080   4.976   6.109  0.2914  0.0279 -0.1253
    1TYR    SC3  144   0.892   5.074   6.275  0.4112 -0.0473  0.0592
    2SER     BB  145   0.883   5.034   5.535 -0.4141  0.4051  0.3895
    2SER    SC1  146   0.822   5.001   5.297  0.0401 -0.2017  0.2017
    3TYR     BB  147   1.156   5.145   5.648 -0.2666 -0.1565 -0.0412
    3TYR    SC1  148   1.353   5.171   5.403  0.0370 -0.2927 -0.1192
    3TYR    SC2  149   1.461   5.099   5.166  0.0654  0.1024 -0.2351
    3TYR    SC3  150   1.246   5.262   5.173  0.0812  0.1182  0.0137
    1TYR     BB  151   7.634   7.173   1.106 -0.2255  0.1702 -0.2458
    1TYR    SC1  152   7.558   7.157   1.392 -0.1811  0.2902 -0.1147
    1TYR    SC2  153   7.398   6.991   1.533 -0.0422  0.0336 -0.2505
    1TYR    SC3  154   7.521   7.197   1.656 -0.0315 -0.1036 -0.0256
    2SER     BB  155   7.941   7.014   1.030 -0.0860 -0.0570  0.1495
    2SER    SC1  156   8.100   7.064   1.199 -0.1068 -0.0392 -0.0872
    3TYR     BB  157   7.910   6.875   0.666  0.0039  0.1595 -0.0173
    3TYR    SC1  158   8.163   6.712   0.646 -0.1302  0.3834 -0.0971
    3TYR    SC2  159   8.335   6.523   0.560 -0.2929 -0.0027  0.3695
    3TYR    SC3  160   8.421   6.718   0.725 -0.1783  0.1968  0.0845
    1TYR     BB  161   6.986   5.442   3.496  0.0844 -0.0195 -0.3390
    1TYR    SC1  162   6.895   5.427   3.236 -0.0322  0.0938 -0.2420
    1TYR    SC2  163   7.020   5.444   2.997 -0.2640 -0.0331 -0.3768
    1TYR    SC3  164   6.803   5.286   3.025 -0.1558 -0.1323 -0.0430
    2SER     BB  165   6.682   5.590   3.663  0.0938 -0.0017  0.2605
    2SER    SC1  166   6.515   5.378   3.680  0.1001 -0.0017  0.0284
    3TYR     BB  167   6.632   5.866   3.700  0.1751  0.3738 -0.1260
    3TYR    SC1  168   6.456   5.872   3.977  0.1231  0.0148  0.0006
    3TYR    SC2  169   6.510   5.880   4.241  0.2881 -0.2537 -0.0197
    3TYR    SC3  170   6.264   5.947   4.152  0.3351  0.2038  0.1585
    1TYR     BB  171   6.617   5.948   2.285 -0.0712 -0.0948 -0.0265
    1TYR    SC1  172   6.702   5.915   2.021  0.2124 -0.1499 -0.0616
    1TYR    SC2  173   6.638   6.067   1.808  0.1113 -0.0388  0.0459
    1TYR    SC3  174   6.860   5.913   1.802  0.1746  0.0550 -0.0928
    2SER     BB  175   6.629   5.643   2.605 -0.2923 -0.1444  0.2802
    2SER    SC1  176   6.779   5.791   2.749 -0.2240  0.2789  0.1771
    3TYR     BB  177   6.449   5.374   2.626  0.2078 -0.3732  0.0183
    3TYR    SC1  178   6.230   5.439   2.848 -0.0784 -0.0633  0.1065
    3TYR    SC2  179   6.050   5.618   2.941 -0.0601 -0.0126  0.0448
    3TYR    SC3  180   5.999   5.354   2.959 -0.2043  0.0034 -0.0960
    1TYR     BB  181   6.274   7.280   0.886 -0.1322 -0.3066  0.4633
    1TYR    SC1  182   6.513   7.427   0.742  0.1929 -0.1457 -0.2416
    1TYR    SC2  183   6.716   7.602   0.704  0.1982 -0.1120 -0.0704
    1TYR    SC3  184   6.573   7.512   0.493  0.2349  0.0513 -0.1672
    2SER     BB  185   5.967   7.238   0.811 -0.3089  0.2683  0.1385
    2SER    SC1  186   5.790   7.350   0.712  0.2912  0.0329 -0.2565
    3TYR     BB  187   5.838   6.861   0.752  0.1082  0.1647  0.0350
    3TYR    SC1  188   5.625   6.890   0.938 -0.0307  0.1829  0.0004
    3TYR    SC2  189   5.370   6.863   1.024 -0.0601  0.1024 -0.1083
    3TYR    SC3  190   5.516   7.078   1.098 -0.1874  0.1913 -0.1129
    1TYR     BB  191   0.888   4.618   6.665  0.2858 -0.3443 -0.0439
    1TYR    SC1  192   1.108   4.666   6.825 -0.0879  0.3427  0.0409
    1TYR    SC2  193   1.336   4.682   6.968  0.0853 -0.1809 -0.1469
    1TYR    SC3  194   1.105   4.774   7.072  0.2703 -0.1954  0.3058
    2SER     BB  195   0.635   4.509   6.900 -0.2502  0.2711 -0.0069
    2SER    SC1  196   0.537   4.674   7.063  0.4016  0.2649 -0.0175
    3TYR     BB  197   0.647   4.202   6.856 -0.0066 -0.2221 -0.0826
    3TYR    SC1  198   0.742   3.959   7.017  0.1545  0.1566 -0.0204
    3TYR    SC2  199   0.780   3.694   7.053  0.0848  0.1578  0.0668
    3TYR    SC3  200   0.871   3.869   7.236  0.0555  0.1889  0.0519
    1TYR     BB  201   7.593   5.710   6.953  0.1636 -0.2198 -0.2752
    1TYR    SC1  202   7.567   6.029   6.943 -0.0404 -0.2356 -0.1697
    1TYR    SC2  203   7.471   6.279   6.976 -0.3310 -0.3621 -0.0043
    1TYR    SC3  204   7.682   6.196   7.122 -0.2366 -0.2174 -0.0555
    2SER     BB  205   7.482   5.566   6.671  0.1048 -0.1655  0.0581
    2SER    SC1  206   7.284   5.453   6.589  0.0780 -0.1979  0.0597
    3TYR     BB  207   7.718   5.619   6.415  0.1243 -0.1752  0.3747
    3TYR    SC1  208   7.743   5.979   6.506 -0.0493  0.1810 -0.0433
    3TYR    SC2  209   7.833   6.227   6.564  0.5189  0.0155 -0.1358
    3TYR    SC3  210   7.668   6.189   6.354  0.0014  0.3653  0.1789
    1TYR     BB  211   1.152   5.653   5.658 -0.0420  0.0117  0.2157
    1TYR    SC1  212   0.977   5.581   5.400  0.0625  0.1726  0.1429
    1TYR    SC2  213   0.892   5.576   5.144  0.1653 -0.0550  0.1103
    1TYR    SC3  214   0.739   5.468   5.339  0.2440 -0.2030  0.0923
    2SER     BB  215   0.999   5.555   5.948 -0.0215 -0.2161  0.1651
    2SER    SC1  216   0.744   5.467   5.887 -0.0610 -0.1765  0.1008
    3TYR     BB  217   1.233   5.401   6.122  0.4330 -0.0384  0.1954
    3TYR    SC1  218   1.326   5.451   6.372 -0.4119 -0.1759 -0.2852
    3TYR    SC2  219   1.302   5.477   6.640 -0.1976 -0.1855 -0.2630
    3TYR    SC3  220   1.367   5.691   6.489 -0.1017 -0.2266 -0.2808
    1TYR     BB  221   7.268   6.863   1.083 -0.0547  0.1470  0.2436
    1TYR    SC1  222   7.429   6.690   0.905 -0.0124 -0.1852  0.1364
    1TYR    SC2  223   7.633   6.514   0.885 -0.0447 -0.2113  0.0295
    1TYR    SC3  224   7.503   6.595   0.663 -0.0513 -0.0768  0.0815
    2SER     BB  225   7.005   6.740   1.261  0.1306  0.0802  0.1365
    2SER    SC1  226   6.992   6.738   1.501 -0.0476 -0.0228 -0.0798
    3TYR     BB  227   6.841   6.604   1.045 -0.0787  0.0235  0.1196
    3TYR    SC1  228   6.982   6.366   0.890  0.0436  0.2324 -0.4382
    3TYR    SC2  229   7.201   6.258   0.775  0.1351 -0.2225  0.1125
    3TYR    SC3  230   7.011   6.098   0.882 -0.1676  0.1703  0.1914
    1TYR     BB  231   6.573   5.246   5.685 -0.2257 -0.0048 -0.0024
    1TYR    SC1  232   6.528   5.516   5.537  0.1119  0.1596  0.0697
    1TYR    SC2  233   6.582   5.708   5.355 -0.2884  0.2179  0.0016
    1TYR    SC3  234   6.437   5.768   5.575  0.2256  0.1598  0.3788
    2SER     BB  235   6.932   5.255   5.692  0.0455  0.2460  0.2438
    2SER    SC1  236   7.021   5.471   5.602  0.5578  0.1244 -0.1397
    3TYR     BB  237   7.016   5.080   5.929  0.3627  0.0923  0.2742
    3TYR    SC1  238   6.830   4.865   5.999  0.1534 -0.2423 -0.1860
    3TYR    SC2  239   6.567   4.806   6.009  0.1342 -0.1919 -0.3672
    3TYR    SC3  240   6.737   4.691   6.184 -0.0367 -0.0657 -0.1110
    1TYR     BB  241   6.832   4.892   7.055 -0.2237  0.1369  0.0584
    1TYR    SC1  242   7.016   4.772   7.286  0.2231  0.1382 -0.1954
    1TYR    SC2  243   7.034   4.617   7.506 -0.0580  0.2331 -0.1007
    1TYR    SC3  244   7.246   4.764   7.427  0.0876  0.0985  0.0295
    2SER     BB  245   6.604   4.714   7.016  0.1566 -0.1438 -0.1544
    2SER    SC1  246   6.458   4.721   6.841 -0.1587  0.1963 -0.0271
    3TYR     BB  247   6.503   4.399   7.166  0.1582  0.2207 -0.1874
    3TYR    SC1  248   6.563   4.452   7.448 -0.1561  0.0006  0.1576
    3TYR    SC2  249   6.726   4.332   7.627  0.2515  0.4514  0.1143
    3TYR    SC3  250   6.480   4.416   7.703 -0.0181 -0.2930  0.1657
    1TYR     BB  251   7.372   4.997   5.618 -0.0692 -0.3082  0.0240
    1TYR    SC1  252   7.404   5.234   5.414 -0.0701  0.0093  0.0105
    1TYR    SC2  253   7.397   5.355   5.173  0.1821  0.2160  0.1013
    1TYR    SC3  254   7.622   5.363   5.321  0.2828 -0.5317  0.0349
    2SER     BB  255   7.550   4.782   5.401  0.0060  0.0015 -0.1236
    2SER    SC1  256   7.683   4.864   5.197  0.1460 -0.2305  0.2377
    3TYR     BB  257   7.773   4.698   5.663 -0.2772  0.1483 -0.1671
    3TYR    SC1  258   7.911   4.994   5.670  0.1725 -0.0884  0.0498
    3TYR    SC2  259   8.016   5.223   5.767 -0.1488  0.1259 -0.0870
    3TYR    SC3  260   8.032   5.168   5.503  0.2580 -0.2013 -0.0072
    1TYR     BB  261   6.774   6.927   4.278  0.1718  0.3442  0.1496
    1TYR    SC1  262   6.978   7.128   4.139 -0.1773 -0.0123  0.0984
    1TYR    SC2  263   7.185   7.301   4.155  0.0304 -0.2320 -0.0916
    1TYR    SC3  264   7.196   7.093   3.983 -0.0878 -0.5990  0.3210
    2SER     BB  265   6.742   6.885   4.640  0.3310  0.0130  0.0639
    2SER    SC1  266   6.495   6.938   4.699  0.1843 -0.1769  0.1112
    3TYR     BB  267   6.892   6.652   4.863 -0.1769  0.0075 -0.1904
    3TYR    SC1  268   6.998   6.370   4.747 -0.2414  0.0086  0.1509
    3TYR    SC2  269   7.180   6.172   4.769  0.1751  0.3140 -0.2938
    3TYR    SC3  270   6.945   6.126   4.644  0.1024  0.0171 -0.0640
    1TYR     BB  271   6.652   6.440   7.576  0.1543 -0.1117 -0.0270
    1TYR    SC1  272   6.429   6.315   7.513  0.3164 -0.2198  0.0555
    1TYR    SC2  273   6.177   6.262   7.430  0.2448  0.0745  0.0712
    1TYR    SC3  274   6.326   6.067   7.545  0.1583 -0.2017 -0.2647
    2SER     BB  275   6.977   6.412   7.356 -0.3080  0.1289 -0.2928
    2SER    SC1  276   7.176   6.365   7.484 -0.3198 -0.2700 -0.2926
    3TYR     BB  277   7.087   6.638   7.090 -0.1063 -0.0220 -0.1055
    3TYR    SC1  278   7.021   6.751   6.833  0.0137 -0.0580 -0.1661
    3TYR    SC2  279   6.828   6.822   6.657  0.0324  0.1908 -0.0898
    3TYR    SC3  280   7.087   6.875   6.602  0.0593  0.0654 -0.0874
    1TYR     BB  281   6.437   7.262   2.202  0.1388 -0.0193  0.2970
    1TYR    SC1  282   6.498   7.535   2.165  0.2183 -0.1522  0.3120
    1TYR    SC2  283   6.392   7.778   2.217  0.0673 -0.1239 -0.0816
    1TYR    SC3  284   6.615   7.758   2.067  0.0680 -0.2298 -0.0677
    2SER     BB  285   6.711   7.137   2.362  0.1790  0.1460 -0.2868
    2SER    SC1  286   6.700   6.880   2.350  0.2430 -0.1632 -0.3674
    3TYR     BB  287   6.928   7.328   2.482  0.1799  0.3374 -0.0786
    3TYR    SC1  288   6.777   7.599   2.493  0.1524  0.0870 -0.3346
    3TYR    SC2  289   6.853   7.845   2.413  0.1561  0.1870 -0.0385
    3TYR    SC3  290   6.679   7.817   2.618  0.0832 -0.0576 -0.1292
    1TYR     BB  291   6.146   6.041   5.817  0.0220  0.2187 -0.0791
    1TYR    SC1  292   6.128   6.086   6.085 -0.2266 -0.1017 -0.0096
    1TYR    SC2  293   5.980   6.100   6.310 -0.0246 -0.2524  0.1373
    1TYR    SC3  294   6.249   6.095   6.326 -0.0071 -0.2474 -0.1104
    2SER     BB  295   5.877   5.915   5.688 -0.2720  0.0804  0.1987
    2SER    SC1  296   5.891   5.823   5.479  0.0703  0.0166  0.3635
    3TYR     BB  297   5.591   5.919   5.888  0.0128 -0.3544 -0.0334
    3TYR    SC1  298   5.416   5.796   5.703 -0.0717  0.1729 -0.0626
    3TYR    SC2  299   5.209   5.694   5.564  0.1198 -0.0360 -0.2028
    3TYR    SC3  300   5.438   5.553   5.588  0.2387  0.1794 -0.0286
    1TYR     BB  301   5.763   4.138   7.154  0.1091  0.0443  0.1357
    1TYR    SC1  302   5.577   4.260   7.406 -0.2736  0.0851 -0.1460
    1TYR    SC2  303   5.545   4.450   7.595 -0.0910 -0.3736  0.3810
    1TYR    SC3  304   5.329   4.321   7.495 -0.2126  0.0583  0.0478
    2SER     BB  305   6.056   4.093   7.033 -0.0253  0.0693  0.0775
    2SER    SC1  306   6.184   3.889   6.982  0.0628  0.1104 -0.0102
    3TYR     BB  307   6.128   4.344   6.786 -0.2374 -0.0217 -0.1653
    3TYR    SC1  308   5.964   4.627   6.801  0.0001  0.0291  0.1078
    3TYR    SC2  309   5.792   4.750   6.633 -0.0212 -0.0438  0.0760
    3TYR    SC3  310   5.979   4.894   6.764  0.1194 -0.0098 -0.1534
    1TYR     BB  311   7.500   6.278   3.450 -0.3210 -0.1347  0.2102
    1TYR    SC1  312   7.395   6.457   3.202 -0.1159 -0.0980  0.1462
    1TYR    SC2  313   7.350   6.695   3.084  0.2047  0.0661  0.3380
    1TYR    SC3  314   7.341   6.468   2.938  0.1467  0.2180  0.0978
    2SER     BB  315   7.234   6.063   3.517 -0.1343  0.0840  0.0971
    2SER    SC1  316   7.293   5.832   3.477  0.1570 -0.0204 -0.1983
    3TYR     BB  317   7.068   6.218   3.705  0.0852  0.0115  0.2221
    3TYR    SC1  318   7.044   6.093   3.977 -0.1149 -0.0520 -0.0336
    3TYR    SC2  319   6.916   6.103   4.214 -0.2774 -0.2803 -0.1078
    3TYR    SC3  320   7.184   6.067   4.207 -0.2804 -0.3433  0.0404
    1TYR     BB  321   6.714   6.414   5.597 -0.1268  0.0406  0.6373
    1TYR    SC1  322   6.951   6.606   5.569  0.2401 -0.0493 -0.2458
    1TYR    SC2  323   7.125   6.812   5.583  0.2743 -0.0856 -0.1223
    1TYR    SC3  324   7.075   6.693   5.346  0.2101  0.1021 -0.2047
    2SER     BB  325   6.818   6.156   5.428 -0.1476  0.0224  0.0315
    2SER    SC1  326   6.829   6.213   5.177 -0.0780  0.0031  0.0983
    3TYR     BB  327   7.033   5.957   5.567 -0.2750  0.0536 -0.0464
    3TYR    SC1  328   7.327   5.920   5.583 -0.0990 -0.0560  0.2722
    3TYR    SC2  329   7.478   5.697   5.561 -0.1091 -0.0343 -0.0992
    3TYR    SC3  330   7.577   5.936   5.482 -0.2738  0.0091 -0.1808
    1TYR     BB  331   5.243   6.408   2.291 -0.2012 -0.0002  0.1589
    1TYR    SC1  332   5.479   6.189   2.330  0.1882  0.2979 -0.2042
    1TYR    SC2  333   5.683   6.055   2.215  0.0566  0.1254 -0.2418
    1TYR    SC3  334   5.524   5.931   2.395 -0.1502  0.1882 -0.3778
    2SER     BB  335   5.442   6.689   2.357  0.0109 -0.0833 -0.0628
    2SER    SC1  336   5.329   6.860   2.429  0.0850  0.1623  0.1022
    3TYR     BB  337   5.724   6.604   2.284 -0.0902 -0.1594 -0.0209
    3TYR    SC1  338   5.955   6.791   2.344  0.0548 -0.0206 -0.3124
    3TYR    SC2  339   6.221   6.818   2.306  0.0513  0.1344 -0.2362
    3TYR    SC3  340   6.088   6.993   2.463 -0.0879  0.0288 -0.2335
    1TYR     BB  341   7.182   5.814   5.127 -0.2323  0.1360  0.1882
    1TYR    SC1  342   7.002   5.597   5.149  0.0437  0.2522 -0.0037
    1TYR    SC2  343   6.786   5.542   4.996 -0.0589  0.1483  0.1753
    1TYR    SC3  344   6.888   5.352   5.159 -0.1678  0.3561  0.4984
    2SER     BB  345   7.443   5.784   4.957 -0.2222  0.0429 -0.0248
    2SER    SC1  346   7.667   5.759   5.039 -0.4079 -0.1753  0.1924
    3TYR     BB  347   7.397   5.766   4.601  0.1244 -0.0171 -0.0866
    3TYR    SC1  348   7.694   5.667   4.544 -0.1919 -0.3901  0.1624
    3TYR    SC2  349   7.776   5.515   4.337 -0.1408  0.1662 -0.2536
    3TYR    SC3  350   7.951   5.586   4.530 -0.1607 -0.2612 -0.0639
    1TYR     BB  351   5.182   5.892   6.609  0.0700 -0.2539 -0.0838
    1TYR    SC1  352   5.153   6.057   6.905 -0.0029  0.1400  0.0111
    1TYR    SC2  353   4.932   6.098   7.054  0.0618 -0.2174  0.2218
    1TYR    SC3  354   5.176   6.127   7.165  0.1183 -0.1381  0.0807
    2SER     BB  355   5.234   6.197   6.423 -0.0171  0.0392  0.0640
    2SER    SC1  356   5.446   6.156   6.315 -0.2188 -0.1998 -0.0215
    3TYR     BB  357   5.025   6.510   6.427  0.0661  0.1211  0.1828
    3TYR    SC1  358   5.218   6.685   6.308 -0.0229 -0.0860  0.4780
    3TYR    SC2  359   5.392   6.882   6.246 -0.1518 -0.2109 -0.4866
    3TYR    SC3  360   5.460   6.625   6.204 -0.2859 -0.3311 -0.0424
    1TYR     BB  361   2.027   4.310   5.267 -0.1187  0.1023  0.4138
    1TYR    SC1  362   2.192   4.530   5.375  0.3032 -0.5608 -0.2276
    1TYR    SC2  363   2.396   4.646   5.509  0.0086  0.0231 -0.2426
    1TYR    SC3  364   2.141   4.690   5.587 -0.1345 -0.5266 -0.3460
    2SER     BB  365   1.805   4.160   5.520  0.0149 -0.0197 -0.1134
    2SER    SC1  366   1.868   3.915   5.512 -0.3806  0.3147 -0.0175
    3TYR     BB  367   1.725   4.347   5.728  0.4074 -0.4145 -0.1795
    3TYR    SC1  368   1.929   4.394   5.946 -0.2212  0.3192  0.0810
    3TYR    SC2  369   2.013   4.387   6.203  0.0138  0.2659  0.0054
    3TYR    SC3  370   2.106   4.578   6.036  0.0210  0.1781 -0.0926
    1TYR     BB  371   7.196   6.991   4.547 -0.2327  0.1414  0.3791
    1TYR    SC1  372   7.189   7.133   4.784  0.2023 -0.2350  0.1475
    1TYR    SC2  373   7.194   7.028   5.033  0.0240 -0.2155  0.1609
    1TYR    SC3  374   7.157   7.293   4.999  0.0951 -0.2112  0.1147
    2SER     BB  375   7.271   6.727   4.336 -0.0709 -0.1820 -0.0480
    2SER    SC1  376   7.109   6.574   4.279  0.1266  0.2185 -0.0708
    3TYR     BB  377   7.614   6.846   4.347  0.0583 -0.2173 -0.1189
    3TYR    SC1  378   7.672   6.934   4.107 -0.0315 -0.0550 -0.0753
    3TYR    SC2  379   7.807   6.927   3.873  0.2875 -0.1936  0.1060
    3TYR    SC3  380   7.726   7.164   3.975  0.1431 -0.1323 -0.1422
    1TYR     BB  381   6.974   5.637   6.937  0.1419 -0.0646  0.0857
    1TYR    SC1  382   7.151   5.399   7.072 -0.1730 -0.1620 -0.0116
    1TYR    SC2  383   7.240   5.172   7.189  0.1106  0.1081  0.3243
    1TYR    SC3  384   7.299   5.412   7.297 -0.1454  0.3518 -0.0461
    2SER     BB  385   7.083   5.915   6.810  0.2779 -0.0634  0.1533
    2SER    SC1  386   6.969   6.093   6.958  0.0016 -0.0005  0.3276
    3TYR     BB  387   7.230   5.984   6.557 -0.0952  0.2222  0.0731
    3TYR    SC1  388   7.287   6.263   6.568  0.0202  0.0408 -0.3608
    3TYR    SC2  389   7.400   6.508   6.581  0.1145 -0.0037 -0.3269
    3TYR    SC3  390   7.245   6.441   6.370  0.4221 -0.0543 -0.5449
    1TYR     BB  391   7.407   6.496   3.927 -0.0993  0.0660  0.0535
    1TYR    SC1  392   7.398   6.701   3.730 -0.0511 -0.1199  0.0565
    1TYR    SC2  393   7.523   6.764   3.499  0.0100  0.0060  0.1222
    1TYR    SC3  394   7.338   6.931   3.602 -0.0170 -0.0499  0.1650
    2SER     BB  395   7.763   6.404   3.915 -0.2729 -0.1742 -0.2536
    2SER    SC1  396   7.919   6.504   4.125  0.3201  0.1242 -0.0876
    3TYR     BB  397   7.947   6.287   3.643 -0.0109  0.0032 -0.1956
    3TYR    SC1  398   7.964   6.041   3.560 -0.1371 -0.2244  0.0646
    3TYR    SC2  399   8.087   5.832   3.440  0.2290  0.0599 -0.0785
    3TYR    SC3  400   7.862   5.792   3.583  0.2957 -0.4301 -0.0898
    1TYR     BB  401   6.244   6.568   5.639 -0.2709 -0.3822 -0.0127
    1TYR    SC1  402   6.304   6.496   5.902  0.2056  0.0797 -0.0359
    1TYR    SC2  403   6.505   6.350   6.008  0.2825  0.1923 -0.0247
    1TYR    SC3  404   6.388   6.545   6.154  0.0394  0.0076  0.0356
    2SER     BB  405   6.154   6.365   5.463 -0.2904 -0.0517  0.0654
    2SER    SC1  406   6.315   6.189   5.356 -0.2615 -0.1069  0.2018
    3TYR     BB  407   5.835   6.356   5.414 -0.0231 -0.1934 -0.1916
    3TYR    SC1  408   5.616   6.214   5.329 -0.1524  0.0202  0.0449
    3TYR    SC2  409   5.413   6.036   5.344 -0.1636  0.0419  0.1592
    3TYR    SC3  410   5.479   6.146   5.107 -0.1959 -0.0694  0.0981
    1TYR     BB  411   5.356   5.012   6.317 -0.1821 -0.0075 -0.0171
    1TYR    SC1  412   5.561   4.827   6.158 -0.0646 -0.0032  0.0204
    1TYR    SC2  413   5.554   4.558   6.189  0.1817  0.0083  0.2206
    1TYR    SC3  414   5.788   4.681   6.134  0.1581  0.2215  0.5590
    2SER     BB  415   5.275   5.242   6.123  0.2518  0.2250 -0.3239
    2SER    SC1  416   5.049   5.256   5.989 -0.0008 -0.3490 -0.1047
    3TYR     BB  417   5.317   5.621   6.180 -0.4464  0.1911  0.0272
    3TYR    SC1  418   5.130   5.793   6.036 -0.0176  0.2318 -0.0502
    3TYR    SC2  419   5.041   5.994   5.880  0.0411  0.3052  0.0099
    3TYR    SC3  420   4.923   5.946   6.118 -0.1246  0.1191 -0.1059
    1TYR     BB  421   6.236   7.064   5.470  0.0182  0.3643 -0.0931
    1TYR    SC1  422   5.947   7.028   5.459 -0.0356 -0.1057  0.2052
    1TYR    SC2  423   5.760   6.834   5.471 -0.2184  0.0720  0.3066
    1TYR    SC3  424   5.695   7.088   5.536 -0.0530  0.2217 -0.0777
    2SER     BB  425   6.322   7.038   5.834 -0.0508  0.2965 -0.0204
    2SER    SC1  426   6.124   7.047   5.951 -0.1046  0.0278 -0.1820
    3TYR     BB  427   6.636   6.878   5.820  0.3694  0.1066 -0.1058
    3TYR    SC1  428   6.834   7.100   5.852  0.2005 -0.1285  0.1601
    3TYR    SC2  429   7.076   7.217   5.829  0.0707  0.0905 -0.2004
    3TYR    SC3  430   6.854   7.369   5.846 -0.0840 -0.1026 -0.4194
    1TYR     BB  431   6.660   6.455   2.958 -0.0375  0.2179  0.2545
    1TYR    SC1  432   6.850   6.597   3.089  0.0730  0.0386  0.1733
    1TYR    SC2  433   6.907   6.811   3.244  0.3640  0.2426 -0.1939
    1TYR    SC3  434   6.963   6.562   3.332  0.2128  0.3245  0.1552
    2SER     BB  435   6.728   6.368   2.634 -0.2344  0.1237  0.0503
    2SER    SC1  436   6.512   6.407   2.487 -0.3681  0.0650 -0.0546
    3TYR     BB  437   7.020   6.237   2.642 -0.0391 -0.5641 -0.0530
    3TYR    SC1  438   7.084   6.053   2.445 -0.1310 -0.1230  0.2755
    3TYR    SC2  439   7.090   5.978   2.185  0.1143  0.1470  0.1966
    3TYR    SC3  440   7.131   5.796   2.380  0.2612 -0.0014  0.0312
    1TYR     BB  441   7.053   5.636   3.971  0.0360  0.0199  0.0734
    1TYR    SC1  442   7.353   5.527   3.862 -0.2233  0.1006 -0.0282
    1TYR    SC2  443   7.474   5.398   3.658 -0.1873  0.1987 -0.0699
    1TYR    SC3  444   7.622   5.508   3.855 -0.2262  0.0139  0.0662
    2SER     BB  445   6.879   5.564   4.202 -0.1955  0.2103  0.0651
    2SER    SC1  446   6.891   5.616   4.444 -0.0722  0.0412  0.2848
    3TYR     BB  447   6.528   5.415   4.154  0.0115 -0.3377  0.0236
    3TYR    SC1  448   6.413   5.489   4.402 -0.1214  0.3742 -0.0692
    3TYR    SC2  449   6.439   5.415   4.661 -0.4040 -0.0635 -0.1534
    3TYR    SC3  450   6.215   5.540   4.578 -0.1884  0.3550 -0.1387
    1TYR     BB  451   6.756   7.053   1.872  0.1330  0.2331  0.0216
    1TYR    SC1  452   6.599   6.811   1.852  0.2722 -0.0197 -0.1215
    1TYR    SC2  453   6.558   6.569   1.742  0.0708  0.0816 -0.2774
    1TYR    SC3  454   6.506   6.608   2.004 -0.0391 -0.0059 -0.2851
    2SER     BB  455   7.055   7.044   1.954 -0.2725 -0.1443 -0.0354
    2SER    SC1  456   7.157   6.854   2.090 -0.1174 -0.2453 -0.1343
    3TYR     BB  457   7.131   7.359   2.036  0.1006 -0.0220  0.0594
    3TYR    SC1  458   7.424   7.322   2.211 -0.0310 -0.3495  0.0623
    3TYR    SC2  459   7.618   7.335   2.398 -0.0350 -0.0419  0.0512
    3TYR    SC3  460   7.419   7.155   2.422  0.0546 -0.1171  0.2540
    1TYR     BB  461   0.713   3.495   4.988  0.1198 -0.0205 -0.0560
    1TYR    SC1  462   0.478   3.553   5.181 -0.2879  0.0597 -0.1220
    1TYR    SC2  463   0.271   3.727   5.196 -0.2095  0.1281  0.3249
    1TYR    SC3  464   0.278   3.510   5.357 -0.0932 -0.0606  0.0748
    2SER     BB  465   0.790   3.760   4.742 -0.0409 -0.4017  0.0713
    2SER    SC1  466   0.947   3.745   4.560  0.0018  0.0580  0.0679
    3TYR     BB  467   0.791   3.973   5.028  0.0648  0.1248  0.3439
    3TYR    SC1  468   0.470   4.095   4.950  0.2384  0.0332  0.0608
    3TYR    SC2  469   0.213   4.052   4.879  0.3126 -0.3381 -0.0087
    3TYR    SC3  470   0.330   4.290   4.826  0.0551 -0.2459 -0.1881
    1TYR     BB  471   5.690   5.564   4.362  0.1153 -0.1866 -0.0487
    1TYR    SC1  472   5.421   5.597   4.286  0.3817 -0.1343 -0.2095
    1TYR    SC2  473   5.306   5.828   4.206  0.1722 -0.1764 -0.0408
    1TYR    SC3  474   5.160   5.642   4.336  0.3792 -0.3342 -0.0270
    2SER     BB  475   5.696   5.919   4.596  0.1384 -0.4005  0.0547
    2SER    SC1  476   5.903   6.028   4.517 -0.0325  0.0385 -0.0937
    3TYR     BB  477   5.358   5.942   4.675  0.0907  0.2200 -0.0740
    3TYR    SC1  478   5.305   5.735   4.861 -0.2598 -0.0330  0.0643
    3TYR    SC2  479   5.206   5.734   5.112 -0.2584  0.0463  0.0656
    3TYR    SC3  480   5.261   5.500   4.988  0.0454  0.0079  0.2586
    1TYR     BB  481   6.348   6.927   6.456  0.0165 -0.1159  0.0581
    1TYR    SC1  482   6.592   7.070   6.344  0.1507 -0.1120 -0.1104
    1TYR    SC2  483   6.811   7.227   6.324  0.0889 -0.0056  0.0318
    1TYR    SC3  484   6.569   7.322   6.250  0.0605 -0.0548  0.0609
    2SER     BB  485   6.087   6.910   6.428  0.1929  0.1328  0.2235
    2SER    SC1  486   5.866   7.048   6.363 -0.0864  0.0406 -0.0785
    3TYR     BB  487   5.915   6.553   6.440  0.2120  0.0123  0.0599
    3TYR    SC1  488   5.910   6.555   6.127  0.2702 -0.3046  0.0013
    3TYR    SC2  489   5.823   6.642   5.887 -0.1710 -0.0706  0.2308
    3TYR    SC3  490   5.813   6.379   5.946 -0.0402 -0.1332 -0.0060
    1TYR     BB  491   0.061   5.104   6.609  0.2747 -0.1676  0.2583
    1TYR    SC1  492   0.118   5.088   6.875 -0.3384 -0.0534  0.0115
    1TYR    SC2  493   0.137   5.002   7.130 -0.0704  0.0081  0.0160
    1TYR    SC3  494  -0.014   5.218   7.071 -0.2447 -0.0882  0.0982
    2SER     BB  495  -0.250   4.998   6.581 -0.2257  0.1187 -0.0281
    2SER    SC1  496  -0.335   5.033   6.360  0.1438  0.3329  0.2281
    3TYR     BB  497  -0.374   4.829   6.839 -0.2341 -0.1751  0.0636
    3TYR    SC1  498  -0.230   4.667   6.989  0.2837  0.2338 -0.0958
    3TYR    SC2  499  -0.038   4.631   7.175  0.0512  0.2291  0.1505
    3TYR    SC3  500  -0.205   4.428   7.113 -0.0234  0.3012  0.1126
    1TYR     BB  501   6.869   5.634   0.150  0.2170 -0.0337  0.1328
    1TYR    SC1  502   6.766   5.496  -0.087  0.0474  0.0627 -0.1535
    1TYR    SC2  503   6.805   5.387  -0.330  0.3268 -0.1133 -0.0359
    1TYR    SC3  504   6.579   5.332  -0.192  0.1507  0.0138 -0.2632
    2SER     BB  505   7.200   5.468   0.310  0.0318  0.2401 -0.1428
    2SER    SC1  506   7.084   5.401   0.536  0.2264 -0.1401 -0.0797
    3TYR     BB  507   7.373   5.485   0.113  0.1909  0.1029 -0.2221
    3TYR    SC1  508   7.641   5.579   0.229  0.4964 -0.1477 -0.4273
    3TYR    SC2  509   7.862   5.546   0.381  0.3849 -0.1364 -0.2603
    3TYR    SC3  510   7.770   5.794   0.330  0.2604 -0.1477 -0.1046
    1TYR     BB  511   0.005   6.001   3.093 -0.1020 -0.2881 -0.1898
    1TYR    SC1  512   0.109   6.286   3.075 -0.0005  0.0168  0.0124
    1TYR    SC2  513   0.191   6.513   3.198  0.1859 -0.0023 -0.0725
    1TYR    SC3  514   0.139   6.514   2.933  0.0391 -0.0240 -0.0449
    2SER     BB  515  -0.211   6.001   2.849 -0.0921 -0.1162  0.2001
    2SER    SC1  516  -0.396   5.829   2.860 -0.1120  0.0602 -0.2818
    3TYR     BB  517  -0.106   6.172   2.625 -0.1515  0.0184  0.4625
    3TYR    SC1  518  -0.065   6.012   2.384  0.2606 -0.1402  0.4222
    3TYR    SC2  519  -0.105   5.925   2.131  0.2903  0.2232  0.2844
    3TYR    SC3  520  -0.012   5.755   2.320  0.3233 -0.0401  0.0397
    1TYR     BB  521   7.163   4.344   4.423 -0.2221 -0.2303  0.2630
    1TYR    SC1  522   7.252   4.474   4.164  0.0270 -0.0059 -0.1240
    1TYR    SC2  523   7.458   4.516   3.995 -0.0171  0.0255 -0.1705
    1TYR    SC3  524   7.248   4.686   3.997 -0.0044  0.0410 -0.0644
    2SER     BB  525   7.088   4.671   4.593  0.1648  0.2517  0.0194
    2SER    SC1  526   6.913   4.628   4.715 -0.0891  0.3311 -0.0375
    3TYR     BB  527   7.304   4.856   4.548 -0.3283  0.2048 -0.0671
    3TYR    SC1  528   7.330   5.047   4.298 -0.0082 -0.2881  0.2540
    3TYR    SC2  529   7.428   5.136   4.062 -0.4338 -0.1729  0.1085
    3TYR    SC3  530   7.366   5.312   4.258  0.0173 -0.2747  0.3617
    1TYR     BB  531   0.396   5.504   6.681  0.3977  0.1692  0.1962
    1TYR    SC1  532   0.426   5.467   6.957 -0.2424 -0.1199  0.0006
    1TYR    SC2  533   0.465   5.531   7.216 -0.3371  0.1650 -0.0518
    1TYR    SC3  534   0.532   5.286   7.126 -0.1454  0.1198  0.2029
    2SER     BB  535   0.532   5.455   6.422 -0.0507  0.1170  0.0550
    2SER    SC1  536   0.444   5.239   6.269  0.0728  0.2464 -0.0237
    3TYR     BB  537   0.867   5.535   6.452 -0.0735  0.0845  0.1929
    3TYR    SC1  538   0.917   5.812   6.377 -0.0665 -0.1888  0.0072
    3TYR    SC2  539   0.915   5.999   6.183  0.3443 -0.2542 -0.0724
    3TYR    SC3  540   1.000   6.063   6.431 -0.1239 -0.1858  0.0835
    1TYR     BB  541   5.965   6.594   3.303  0.1012  0.1199 -0.0974
    1TYR    SC1  542   5.816   6.832   3.313  0.3510  0.0197 -0.4362
    1TYR    SC2  543   5.628   6.930   3.479  0.0627 -0.2788 -0.5722
    1TYR    SC3  544   5.673   7.050   3.241  0.4860  0.1580 -0.2969
    2SER     BB  545   6.326   6.562   3.312  0.1131  0.1083 -0.3729
    2SER    SC1  546   6.435   6.788   3.339 -0.2179 -0.1029 -0.1957
    3TYR     BB  547   6.530   6.308   3.382  0.0056 -0.0277 -0.1636
    3TYR    SC1  548   6.763   6.137   3.306  0.2523  0.2154  0.0555
    3TYR    SC2  549   6.939   6.100   3.105  0.1115  0.0256 -0.0373
    3TYR    SC3  550   6.837   5.887   3.236  0.1692  0.1449  0.2110
    1TYR     BB  551   6.786   4.898   5.409 -0.2027  0.2484  0.0202
    1TYR    SC1  552   6.645   4.665   5.244  0.0559  0.0249 -0.0237
    1TYR    SC2  553   6.431   4.597   5.093 -0.0666  0.1840  0.0739
    1TYR    SC3  554   6.650   4.439   5.097 -0.1723  0.0314 -0.0461
    2SER     BB  555   7.101   4.831   5.171 -0.2275  0.2577 -0.0813
    2SER    SC1  556   7.195   4.961   5.018  0.1547 -0.1957  0.0644
    3TYR     BB  557   7.206   4.488   5.172 -0.1237 -0.2666  0.2286
    3TYR    SC1  558   7.384   4.465   4.936 -0.0508  0.7348 -0.1978
    3TYR    SC2  559   7.603   4.548   4.801  0.2121  0.0724 -0.2270
    3TYR    SC3  560   7.512   4.296   4.768 -0.1860  0.1330  0.2603
    1TYR     BB  561   6.285   5.644   6.443 -0.1016  0.0618  0.2554
    1TYR    SC1  562   6.147   5.524   6.710 -0.0399 -0.0418  0.0245
    1TYR    SC2  563   5.963   5.342   6.788 -0.1623  0.2061  0.3413
    1TYR    SC3  564   5.970   5.586   6.904  0.1098  0.3475  0.0480
    2SER     BB  565   6.594   5.551   6.397  0.0635  0.0127 -0.2902
    2SER    SC1  566   6.815   5.676   6.448 -0.4812  0.0460  0.0570
    3TYR     BB  567   6.663   5.311   6.165 -0.2975 -0.0862  0.1441
    3TYR    SC1  568   6.825   5.108   6.378  0.2686  0.1507 -0.1231
    3TYR    SC2  569   6.860   4.932   6.579 -0.0961 -0.0118 -0.1909
    3TYR    SC3  570   6.868   5.197   6.629  0.0469 -0.0476 -0.0091
    1TYR     BB  571   1.054   3.643   5.330  0.1612  0.2292  0.1385
    1TYR    SC1  572   0.811   3.762   5.489 -0.1287  0.0557 -0.0189
    1TYR    SC2  573   0.640   3.748   5.697 -0.2392 -0.4898 -0.1283
    1TYR    SC3  574   0.601   3.931   5.503 -0.0686  0.1113  0.3615
    2SER     BB  575   1.255   3.705   5.104 -0.1345  0.0204  0.2377
    2SER    SC1  576   1.268   3.558   4.877 -0.0504 -0.1623 -0.1007
    3TYR     BB  577   1.556   3.819   5.171 -0.0481  0.2020  0.1803
    3TYR    SC1  578   1.645   3.946   4.941 -0.1424 -0.0922  0.0496
    3TYR    SC2  579   1.645   3.914   4.673  0.2921 -0.2236  0.0551
    3TYR    SC3  580   1.741   4.142   4.781 -0.0318 -0.1026  0.1018
    1TYR     BB  581   6.832   6.124   0.193 -0.3623 -0.1758 -0.2508
    1TYR    SC1  582   7.062   6.033   0.389 -0.2328 -0.0595 -0.0114
    1TYR    SC2  583   7.206   5.879   0.559  0.0245 -0.1282 -0.2801
    1TYR    SC3  584   7.324   5.987   0.341 -0.1723  0.3778 -0.1551
    2SER     BB  585   6.596   6.046   0.317 -0.2849 -0.2283  0.0604
    2SER    SC1  586   6.367   6.087   0.363  0.0524  0.0736  0.1105
    3TYR     BB  587   6.707   5.782   0.573 -0.0738  0.1683  0.0466
    3TYR    SC1  588   6.607   5.569   0.717 -0.1999 -0.1139  0.0375
    3TYR    SC2  589   6.539   5.548   0.978  0.0321 -0.0853  0.1026
    3TYR    SC3  590   6.432   5.380   0.797  0.1524 -0.3560  0.2751
    1TYR     BB  591   6.109   7.143   3.513  0.1143 -0.3399 -0.0338
    1TYR    SC1  592   5.851   7.284   3.602  0.0831  0.1883  0.1626
    1TYR    SC2  593   5.592   7.329   3.663  0.1250  0.0035  0.5078
    1TYR    SC3  594   5.787   7.455   3.800  0.2235  0.2071  0.1928
    2SER     BB  595   6.350   7.418   3.550  0.2692  0.0570 -0.0598
    2SER    SC1  596   6.278   7.607   3.633 -0.0109 -0.3376 -0.0873
    3TYR     BB  597   6.568   7.300   3.272 -0.0830 -0.0975  0.3537
    3TYR    SC1  598   6.837   7.243   3.390  0.1390 -0.4352  0.0982
    3TYR    SC2  599   7.060   7.376   3.464 -0.2269  0.2300  0.0982
    3TYR    SC3  600   6.986   7.152   3.597  0.3044  0.1225  0.2441
    1TYR     BB  601   5.330   5.418   6.636 -0.3833  0.1451  0.1159
    1TYR    SC1  602   5.046   5.265   6.673 -0.0668 -0.2883  0.4520
    1TYR    SC2  603   4.780   5.245   6.633 -0.0573 -0.1707  0.3188
    1TYR    SC3  604   4.943   5.042   6.561 -0.1164 -0.2730  0.4670
    2SER     BB  605   5.464   5.201   6.877 -0.0653  0.2311 -0.0772
    2SER    SC1  606   5.385   4.952   6.794 -0.0439 -0.1566 -0.2246
    3TYR     BB  607   5.654   5.162   7.160 -0.5471 -0.1801 -0.1092
    3TYR    SC1  608   5.556   5.260   7.413 -0.1895 -0.0135  0.3122
    3TYR    SC2  609   5.425   5.485   7.486 -0.1179  0.0285  0.3123
    3TYR    SC3  610   5.435   5.273   7.654 -0.3101 -0.0295  0.2536
    1TYR     BB  611   6.198   7.056   1.836  0.1569  0.0574 -0.0093
    1TYR    SC1  612   6.139   6.791   1.762 -0.0603  0.2127 -0.4464
    1TYR    SC2  613   6.114   6.529   1.701  0.1394  0.2127 -0.5403
    1TYR    SC3  614   5.904   6.666   1.802  0.1208 -0.0618 -0.1796
    2SER     BB  615   5.881   7.198   2.006  0.0058 -0.0519 -0.1510
    2SER    SC1  616   5.676   7.067   2.032 -0.0774  0.1932 -0.1426
    3TYR     BB  617   6.046   7.493   1.979 -0.1086  0.0899 -0.1214
    3TYR    SC1  618   6.068   7.772   1.792 -0.0041  0.1647  0.1305
    3TYR    SC2  619   6.039   8.011   1.670 -0.3117  0.0521 -0.0311
    3TYR    SC3  620   6.172   7.812   1.545 -0.2892  0.0552 -0.0124
    1TYR     BB  621   6.166   4.566   5.772 -0.0808  0.2369  0.1268
    1TYR    SC1  622   6.005   4.338   5.785  0.0485 -0.1268  0.1633
    1TYR    SC2  623   5.752   4.280   5.862  0.0780 -0.2302  0.1851
    1TYR    SC3  624   5.911   4.086   5.762  0.1086 -0.1398  0.0548
    2SER     BB  625   6.125   4.683   5.472  0.1440 -0.1352 -0.0082
    2SER    SC1  626   6.239   4.896   5.436 -0.0342 -0.0202 -0.1160
    3TYR     BB  627   5.804   4.524   5.356  0.2546  0.2301 -0.0994
    3TYR    SC1  628   5.580   4.523   5.510  0.3643 -0.0494  0.0458
    3TYR    SC2  629   5.454   4.530   5.748  0.2025 -0.0551 -0.0378
    3TYR    SC3  630   5.314   4.479   5.523  0.3031  0.2217 -0.1687
    1TYR     BB  631   7.314   6.045   1.710  0.1454  0.0873 -0.0552
    1TYR    SC1  632   7.528   5.812   1.632 -0.0519 -0.0039  0.0740
    1TYR    SC2  633   7.644   5.577   1.696  0.0781  0.0581  0.0715
    1TYR    SC3  634   7.797   5.788   1.628 -0.0476  0.0295 -0.3334
    2SER     BB  635   7.587   6.290   1.719  0.0701 -0.1852  0.1167
    2SER    SC1  636   7.815   6.247   1.830  0.2395  0.0856  0.0076
    3TYR     BB  637   7.429   6.596   1.729  0.1608 -0.1498  0.0579
    3TYR    SC1  638   7.677   6.760   1.846  0.0517  0.0868 -0.1614
    3TYR    SC2  639   7.897   6.792   2.000 -0.0577  0.0387  0.0074
    3TYR    SC3  640   7.673   6.934   2.053 -0.0828  0.0534 -0.1350
    1TYR     BB  641   6.340   6.796   4.224  0.0306  0.1242 -0.0330
    1TYR    SC1  642   6.184   6.708   4.430 -0.0506  0.1697  0.1497
    1TYR    SC2  643   6.061   6.517   4.576 -0.3713  0.0386 -0.2659
    1TYR    SC3  644   5.941   6.756   4.537 -0.2387  0.1126 -0.2314
    2SER     BB  645   6.259   7.117   4.221  0.0837 -0.0645 -0.1241
    2SER    SC1  646   6.195   7.235   4.018  0.0403 -0.2047  0.1677
    3TYR     BB  647   6.317   7.335   4.486  0.1345  0.1695  0.0005
    3TYR    SC1  648   6.618   7.395   4.542 -0.0292 -0.2689  0.0290
    3TYR    SC2  649   6.794   7.371   4.745  0.1709 -0.1689 -0.1286
    3TYR    SC3  650   6.882   7.427   4.495 -0.1071  0.2247 -0.1491
    1TYR     BB  651   0.223   3.937   6.501  0.1528 -0.1545  0.0557
    1TYR    SC1  652   0.160   4.010   6.832 -0.1529 -0.3339 -0.1900
    1TYR    SC2  653   0.008   3.985   7.054  0.4615 -0.5313  0.2435
    1TYR    SC3  654   0.160   4.206   7.019 -0.1412 -0.1638 -0.3639
    2SER     BB  655   0.519   3.904   6.441 -0.0456 -0.0577 -0.2229
    2SER    SC1  656   0.680   3.777   6.569  0.2568  0.3901 -0.0777
    3TYR     BB  657   0.533   3.985   6.122 -0.0729  0.1285  0.1081
    3TYR    SC1  658   0.263   3.904   5.981  0.0638 -0.1446 -0.2050
    3TYR    SC2  659   0.136   3.889   5.743 -0.1865 -0.3501 -0.0642
    3TYR    SC3  660   0.043   3.751   5.956 -0.0568 -0.0521  0.1974
    1TYR     BB  661   7.034   6.813   0.630 -0.0694  0.0417 -0.1978
    1TYR    SC1  662   7.266   6.990   0.548  0.0779  0.1133  0.1232
    1TYR    SC2  663   7.486   7.011   0.392  0.1808 -0.0141  0.2481
    1TYR    SC3  664   7.466   7.158   0.618  0.0846  0.0835  0.1770
    2SER     BB  665   6.958   6.545   0.449 -0.2746 -0.0012  0.0247
    2SER    SC1  666   7.121   6.512   0.274  0.0959  0.3126 -0.0173
    3TYR     BB  667   6.666   6.471   0.528  0.0194 -0.1215  0.1048
    3TYR    SC1  668   6.494   6.714   0.691 -0.0794  0.2226 -0.0868
    3TYR    SC2  669   6.333   6.839   0.869 -0.1479 -0.0886  0.0778
    3TYR    SC3  670   6.570   6.949   0.800 -0.2785  0.2095  0.0876
    1TYR     BB  671   5.686   6.706   2.855  0.0512  0.0337  0.4387
    1TYR    SC1  672   5.729   7.011   2.755 -0.1158  0.0184  0.0128
    1TYR    SC2  673   5.707   7.187   2.551  0.1169  0.2168  0.1517
    1TYR    SC3  674   5.649   7.265   2.803 -0.0798  0.0001  0.1774
    2SER     BB  675   5.956   6.488   2.825 -0.2119  0.1563  0.3672
    2SER    SC1  676   6.172   6.588   2.793  0.1842 -0.1547 -0.0005
    3TYR     BB  677   5.829   6.145   2.807  0.1757  0.0008 -0.2485
    3TYR    SC1  678   5.877   6.038   3.096  0.0429 -0.1550  0.0766
    3TYR    SC2  679   6.062   6.087   3.287  0.0253  0.2220  0.0070
    3TYR    SC3  680   5.799   6.109   3.345  0.0127  0.1159 -0.0064
    1TYR     BB  681   6.095   6.218   2.396  0.1114  0.1042 -0.0989
    1TYR    SC1  682   6.084   6.115   2.126 -0.1803  0.0839 -0.2753
    1TYR    SC2  683   6.249   6.111   1.912 -0.3869  0.1061 -0.4391
    1TYR    SC3  684   6.122   5.885   1.989 -0.0897  0.0260 -0.1554
    2SER     BB  685   6.174   5.907   2.578 -0.1715  0.1643 -0.1352
    2SER    SC1  686   6.054   5.729   2.458  0.3996 -0.2058  0.0829
    3TYR     BB  687   6.363   6.037   2.820 -0.0603  0.3305  0.0843
    3TYR    SC1  688   6.445   5.836   3.041  0.2427  0.1218 -0.0483
    3TYR    SC2  689   6.398   5.795   3.304  0.0911 -0.2348 -0.1224
    3TYR    SC3  690   6.493   5.594   3.151  0.0588 -0.0692 -0.3681
    1TYR     BB  691   7.116   5.311   4.697 -0.0367  0.0828 -0.2447
    1TYR    SC1  692   7.432   5.289   4.683 -0.1109  0.0323 -0.3522
    1TYR    SC2  693   7.660   5.170   4.600 -0.2809 -0.2840 -0.3840
    1TYR    SC3  694   7.648   5.282   4.845 -0.1479 -0.4373 -0.3046
    2SER     BB  695   6.867   5.138   4.618 -0.0915  0.1111 -0.0205
    2SER    SC1  696   6.841   5.066   4.377  0.1618  0.0476 -0.0463
    3TYR     BB  697   6.695   4.972   4.863  0.1471 -0.3823  0.1213
    3TYR    SC1  698   6.497   5.118   4.979  0.1329  0.0085 -0.1391
    3TYR    SC2  699   6.463   5.310   5.166  0.0806  0.0607 -0.2016
    3TYR    SC3  700   6.248   5.192   5.053  0.0988 -0.4031  0.2079
    1TYR     BB  701   5.968   6.586   6.947 -0.0833  0.3498 -0.0563
    1TYR    SC1  702   5.752   6.393   6.915 -0.1605  0.0006 -0.0137
    1TYR    SC2  703   5.536   6.299   6.784  0.0728 -0.3547 -0.1654
    1TYR    SC3  704   5.626   6.172   7.004 -0.0365 -0.0367  0.0734
    2SER     BB  705   5.863   6.846   6.916  0.4467 -0.0434 -0.1407
    2SER    SC1  706   5.926   7.058   7.030 -0.0810  0.0957 -0.0916
    3TYR     BB  707   5.529   6.902   6.702  0.0257  0.2273 -0.1204
    3TYR    SC1  708   5.363   6.710   6.868  0.2787  0.0377 -0.0374
    3TYR    SC2  709   5.181   6.513   6.896  0.0284  0.2452 -0.1555
    3TYR    SC3  710   5.353   6.566   7.097  0.1881 -0.1710 -0.1690
    1TYR     BB  711   6.650   4.441   5.640 -0.0416 -0.0721  0.0982
    1TYR    SC1  712   6.507   4.263   5.481 -0.5031  0.2070 -0.1636
    1TYR    SC2  713   6.261   4.177   5.409 -0.4269 -0.2294  0.0535
    1TYR    SC3  714   6.481   4.063   5.301 -0.3049  0.2430 -0.2352
    2SER     BB  715   6.972   4.402   5.591  0.0230  0.2827  0.1208
    2SER    SC1  716   7.110   4.586   5.624  0.2142 -0.2845 -0.0447
    3TYR     BB  717   6.996   4.107   5.445 -0.0524  0.1911 -0.3288
    3TYR    SC1  718   7.260   4.021   5.334 -0.2379 -0.2306 -0.3021
    3TYR    SC2  719   7.495   3.890   5.358 -0.1756 -0.0790 -0.0364
    3TYR    SC3  720   7.426   4.001   5.122  0.0243 -0.1170 -0.1148
    1TYR     BB  721   0.140   6.189   1.255  0.2226  0.1304 -0.5192
    1TYR    SC1  722   0.166   6.492   1.319 -0.3066  0.2130  0.0842
    1TYR    SC2  723   0.028   6.724   1.307 -0.1538  0.3193  0.3020
    1TYR    SC3  724   0.241   6.702   1.472  0.1513  0.1890 -0.0898
    2SER     BB  725  -0.178   6.045   1.217 -0.1817 -0.0891  0.1497
    2SER    SC1  726  -0.291   5.839   1.170  0.1693 -0.0503 -0.2309
    3TYR     BB  727  -0.342   6.386   1.281 -0.1366 -0.0241 -0.2037
    3TYR    SC1  728  -0.596   6.220   1.338  0.1094 -0.2881  0.0495
    3TYR    SC2  729  -0.759   6.007   1.360 -0.1255 -0.1358 -0.1543
    3TYR    SC3  730  -0.835   6.246   1.460  0.1471 -0.1471  0.0967
    1TYR     BB  731   0.231   6.742   5.321 -0.2128  0.0009 -0.2324
    1TYR    SC1  732   0.400   6.947   5.185 -0.1669 -0.0527 -0.0336
    1TYR    SC2  733   0.643   7.065   5.179 -0.1359 -0.0897  0.2847
    1TYR    SC3  734   0.529   6.979   4.950 -0.1212  0.4697  0.0482
    2SER     BB  735   0.375   6.478   5.192  0.1366  0.0436 -0.0192
    2SER    SC1  736   0.542   6.504   5.004  0.2806 -0.0505  0.1396
    3TYR     BB  737   0.287   6.198   5.309  0.2027  0.2759  0.2630
    3TYR    SC1  738   0.266   6.241   5.561 -0.1185 -0.1222  0.1699
    3TYR    SC2  739   0.132   6.204   5.792 -0.0366  0.0388  0.2452
    3TYR    SC3  740   0.331   6.385   5.780 -0.0860  0.0818  0.0292
    1TYR     BB  741   6.996   0.055   1.731  0.0170 -0.2121 -0.1679
    1TYR    SC1  742   7.296   0.043   1.638  0.0766  0.3003  0.0687
    1TYR    SC2  743   7.558  -0.022   1.635 -0.0741 -0.3975 -0.0316
    1TYR    SC3  744   7.402  -0.079   1.422 -0.3015  0.1054 -0.0171
    2SER     BB  745   6.847  -0.191   1.595  0.0416  0.1203  0.0360
    2SER    SC1  746   6.593  -0.168   1.654  0.3236  0.1594  0.0201
    3TYR     BB  747   7.027  -0.400   1.462 -0.0248  0.2545 -0.4782
    3TYR    SC1  748   7.005  -0.361   1.127  0.0150  0.1427 -0.0520
    3TYR    SC2  749   7.138  -0.277   0.907  0.3609  0.1073  0.1364
    3TYR    SC3  750   6.932  -0.450   0.882  0.3807  0.1203 -0.1602
    1TYR     BB  751   6.320   6.453   6.645 -0.2972 -0.1731  0.0285
    1TYR    SC1  752   6.607   6.357   6.537 -0.1829 -0.0359  0.2954
    1TYR    SC2  753   6.802   6.196   6.443 -0.2214  0.1372 -0.1066
    1TYR    SC3  754   6.865   6.410   6.595 -0.1009  0.1672 -0.1972
    2SER     BB  755   6.527   6.603   6.964  0.1386  0.2517  0.2068
    2SER    SC1  756   6.552   6.365   7.052 -0.0153  0.0217 -0.1985
    3TYR     BB  757   6.397   6.900   6.973 -0.1695 -0.0585 -0.0142
    3TYR    SC1  758   6.568   7.097   6.919 -0.2848  0.5484  0.1711
    3TYR    SC2  759   6.723   7.243   6.753 -0.2172  0.0741 -0.2149
    3TYR    SC3  760   6.819   7.163   6.993 -0.0335  0.1530 -0.2600
    1TYR     BB  761   6.820   5.449   2.066  0.0548 -0.3757  0.2301
    1TYR    SC1  762   6.944   5.357   2.378 -0.0164 -0.0865  0.2246
    1TYR    SC2  763   7.128   5.368   2.575  0.0220 -0.0779  0.1883
    1TYR    SC3  764   6.955   5.161   2.563 -0.0539 -0.0223  0.2962
    2SER     BB  765   7.146   5.493   1.878 -0.0074 -0.0210  0.3737
    2SER    SC1  766   7.309   5.481   2.054 -0.1425  0.0985 -0.1161
    3TYR     BB  767   7.095   5.590   1.534 -0.3721 -0.0203 -0.0975
    3TYR    SC1  768   6.972   5.515   1.273  0.2867 -0.0361 -0.1434
    3TYR    SC2  769   6.930   5.693   1.074 -0.0314  0.0716  0.0123
    3TYR    SC3  770   7.035   5.450   1.019  0.2788  0.2510 -0.2226
    1TYR     BB  771   6.083   5.328   0.424  0.0801  0.2293  0.2339
    1TYR    SC1  772   6.056   5.610   0.583  0.1536 -0.2243 -0.0270
    1TYR    SC2  773   5.978   5.863   0.634 -0.2441 -0.3464  0.0126
    1TYR    SC3  774   6.219   5.775   0.721 -0.1087  0.0069  0.0148
    2SER     BB  775   6.378   5.378   0.245  0.2431  0.1585 -0.1645
    2SER    SC1  776   6.373   5.616   0.175  0.1476 -0.0971  0.1947
    3TYR     BB  777   6.613   5.208   0.352 -0.0020  0.2383 -0.1158
    3TYR    SC1  778   6.823   5.128   0.199 -0.0048 -0.0811 -0.2184
    3TYR    SC2  779   7.062   5.007   0.235  0.0744  0.1328  0.0092
    3TYR    SC3  780   7.006   5.128  -0.000  0.2045  0.1116 -0.0339
    1TYR     BB  781   7.307   6.915   6.171 -0.2767  0.2737  0.0442
    1TYR    SC1  782   7.012   6.768   6.115  0.0079  0.2632 -0.1790
    1TYR    SC2  783   6.897   6.527   6.074  0.0509  0.2993 -0.5483
    1TYR    SC3  784   6.790   6.699   6.253  0.2205 -0.1218 -0.0083
    2SER     BB  785   7.489   6.664   5.954 -0.5238  0.2682  0.0958
    2SER    SC1  786   7.640   6.780   5.758  0.0382 -0.0516  0.1379
    3TYR     BB  787   7.381   6.361   5.764 -0.0990  0.0235  0.0541
    3TYR    SC1  788   7.471   6.380   5.448  0.1611 -0.0216 -0.0290
    3TYR    SC2  789   7.543   6.379   5.187  0.1789  0.0149 -0.0243
    3TYR    SC3  790   7.298   6.293   5.260  0.0996  0.1923 -0.0750
    1TYR     BB  791   6.939   4.378   6.889 -0.0861  0.0598 -0.3952
    1TYR    SC1  792   6.995   4.326   7.154 -0.0603  0.0884  0.2592
    1TYR    SC2  793   7.161   4.235   7.346  0.0540 -0.1703  0.0467
    1TYR    SC3  794   6.918   4.123   7.314  0.0249 -0.1105  0.0549
    2SER     BB  795   6.633   4.231   6.750  0.0042  0.2901  0.1622
    2SER    SC1  796   6.619   4.309   6.503  0.1220  0.0179 -0.2050
    3TYR     BB  797   6.659   3.911   6.907 -0.3060 -0.3660 -0.1388
    3TYR    SC1  798   6.979   3.876   6.876 -0.2751  0.1635 -0.0209
    3TYR    SC2  799   7.207   3.945   7.003 -0.2320  0.3410 -0.1878
    3TYR    SC3  800   7.184   3.702   6.890 -0.1666  0.2840 -0.0806
    1TYR     BB  801   0.861   5.099   4.827 -0.0066 -0.4301  0.4006
    1TYR    SC1  802   0.619   5.263   4.915  0.1780 -0.3060  0.0467
    1TYR    SC2  803   0.461   5.480   4.889 -0.0927 -0.5190 -0.1648
    1TYR    SC3  804   0.398   5.287   5.068  0.0760 -0.4863 -0.0675
    2SER     BB  805   0.823   4.869   4.558  0.1463  0.1672 -0.0507
    2SER    SC1  806   1.029   4.714   4.522  0.0965 -0.2182  0.3257
    3TYR     BB  807   0.569   4.718   4.376  0.1821  0.1625 -0.0684
    3TYR    SC1  808   0.609   4.414   4.442  0.1455 -0.0252 -0.0044
    3TYR    SC2  809   0.566   4.150   4.482  0.0871 -0.0862 -0.4168
    3TYR    SC3  810   0.818   4.247   4.479  0.0985 -0.0379  0.2290
    1TYR     BB  811   5.771   6.429   7.449  0.1815  0.1484  0.2328
    1TYR    SC1  812   5.653   6.706   7.415 -0.2596 -0.1199 -0.3731
    1TYR    SC2  813   5.541   6.917   7.288 -0.0239  0.2551  0.0085
    1TYR    SC3  814   5.699   6.957   7.503  0.1342 -0.3133  0.0188
    2SER     BB  815   5.489   6.287   7.561  0.0332  0.0335  0.1494
    2SER    SC1  816   5.465   6.038   7.611 -0.2011 -0.0574  0.1316
    3TYR     BB  817   5.287   6.505   7.655 -0.1960 -0.3194 -0.2400
    3TYR    SC1  818   5.018   6.477   7.478  0.2083 -0.1653  0.0303
    3TYR    SC2  819   4.916   6.562   7.243  0.3101  0.0098  0.0471
    3TYR    SC3  820   4.795   6.362   7.379 -0.0259  0.2271  0.0800
    1TYR     BB  821   5.708   5.661   5.067 -0.3408  0.4644 -0.1152
    1TYR    SC1  822   5.748   5.450   4.901  0.1137  0.0478 -0.0175
    1TYR    SC2  823   5.906   5.284   4.759 -0.1632 -0.2249 -0.0209
    1TYR    SC3  824   5.655   5.209   4.822 -0.1354 -0.0025  0.3940
    2SER     BB  825   6.035   5.838   4.974 -0.0242  0.1062  0.1589
    2SER    SC1  826   6.216   5.726   5.085  0.0839 -0.1145 -0.1179
    3TYR     BB  827   5.993   6.180   4.989  0.1580 -0.0875 -0.1832
    3TYR    SC1  828   5.771   6.397   4.898  0.2994  0.0281  0.2884
    3TYR    SC2  829   5.627   6.612   4.975  0.0786 -0.0251  0.0430
    3TYR    SC3  830   5.543   6.461   4.767  0.1413 -0.4459  0.3089
    1TYR     BB  831   5.815   5.173   6.374 -0.0918 -0.2707 -0.0459
    1TYR    SC1  832   5.828   5.499   6.379  0.4952 -0.0487  0.3149
    1TYR    SC2  833   5.759   5.739   6.482  0.1787 -0.0548  0.1354
    1TYR    SC3  834   5.867   5.724   6.235  0.0162 -0.1084  0.0662
    2SER     BB  835   6.128   5.077   6.231 -0.3002 -0.0591 -0.1175
    2SER    SC1  836   6.118   5.004   6.003 -0.2796  0.0525  0.0126
    3TYR     BB  837   6.342   5.098   6.454 -0.2204  0.3892  0.2710
    3TYR    SC1  838   6.417   5.205   6.723 -0.0718 -0.2322 -0.2767
    3TYR    SC2  839   6.422   5.194   6.993  0.0955 -0.2853 -0.2804
    3TYR    SC3  840   6.548   5.395   6.864  0.1339 -0.3364 -0.3229
    1TYR     BB  841   7.077   6.713   2.555  0.0448 -0.1043 -0.1702
    1TYR    SC1  842   7.078   6.900   2.805 -0.1233  0.2265 -0.2652
    1TYR    SC2  843   7.252   7.101   2.853 -0.2798  0.3055 -0.0028
    1TYR    SC3  844   7.003   7.110   2.957 -0.2870 -0.0317  0.0247
    2SER     BB  845   7.417   6.615   2.429  0.1341  0.0359  0.0854
    2SER    SC1  846   7.582   6.734   2.525  0.2673 -0.1690 -0.1334
    3TYR     BB  847   7.421   6.409   2.196 -0.1659 -0.1443  0.3096
    3TYR    SC1  848   7.169   6.395   2.084  0.2972  0.2074  0.1836
    3TYR    SC2  849   7.015   6.371   1.864  0.4131  0.1653  0.1058
    3TYR    SC3  850   6.904   6.441   2.100  0.1881 -0.3297  0.1624
    1TYR     BB  851   5.859   5.870   7.335 -0.0254  0.1399 -0.3420
    1TYR    SC1  852   5.648   5.770   7.150  0.2731 -0.0783 -0.0061
    1TYR    SC2  853   5.545   5.732   6.904 -0.0282  0.1956  0.0691
    1TYR    SC3  854   5.388   5.705   7.122  0.1966  0.1073  0.2246
    2SER     BB  855   5.917   5.615   7.535  0.0642  0.2525 -0.0961
    2SER    SC1  856   5.851   5.642   7.782  0.2138 -0.1388  0.0341
    3TYR     BB  857   6.068   5.339   7.475 -0.0641 -0.0672  0.1611
    3TYR    SC1  858   5.950   5.101   7.637  0.1733 -0.2383 -0.2571
    3TYR    SC2  859   5.726   4.952   7.661 -0.0266  0.0905  0.0378
    3TYR    SC3  860   5.946   4.888   7.803 -0.0496 -0.0256  0.0223
    1TYR     BB  861   5.985   6.405   4.129 -0.2846  0.0211 -0.3809
    1TYR    SC1  862   5.713   6.436   4.244 -0.0629 -0.0062 -0.0350
    1TYR    SC2  863   5.494   6.295   4.313 -0.2285  0.2890  0.0673
    1TYR    SC3  864   5.467   6.543   4.209  0.0535  0.2400 -0.1360
    2SER     BB  865   6.105   6.415   3.882  0.1211  0.3046 -0.0927
    2SER    SC1  866   6.162   6.203   3.744  0.1888 -0.2168  0.0507
    3TYR     BB  867   6.140   6.715   3.766 -0.0811  0.0771 -0.0672
    3TYR    SC1  868   5.885   6.856   3.872  0.0007 -0.1762 -0.1360
    3TYR    SC2  869   5.640   6.942   3.944  0.0155  0.0022 -0.2903
    3TYR    SC3  870   5.819   6.873   4.133  0.0931  0.5689 -0.1359
    1TYR     BB  871   7.181   4.541   6.479 -0.3007 -0.1813  0.0994
    1TYR    SC1  872   7.268   4.247   6.513 -0.0337 -0.0601  0.0527
    1TYR    SC2  873   7.405   4.062   6.653 -0.0759 -0.0379  0.1242
    1TYR    SC3  874   7.398   4.049   6.383  0.0649 -0.0398  0.1194
    2SER     BB  875   7.477   4.604   6.202  0.1457  0.3726 -0.2347
    2SER    SC1  876   7.355   4.689   6.019 -0.1723 -0.0931  0.1087
    3TYR     BB  877   7.702   4.370   6.155  0.0927  0.1552  0.2517
    3TYR    SC1  878   7.952   4.355   5.956  0.0677 -0.1944 -0.0375
    3TYR    SC2  879   8.190   4.444   5.863 -0.0190 -0.2318 -0.3056
    3TYR    SC3  880   8.056   4.251   5.729 -0.0401 -0.4606  0.0312
    1TYR     BB  881   0.318   5.127   3.973  0.1861 -0.2048  0.2340
    1TYR    SC1  882   0.471   5.187   4.239 -0.0203 -0.0770  0.0740
    1TYR    SC2  883   0.403   5.183   4.500 -0.3625  0.1540 -0.0025
    1TYR    SC3  884   0.630   5.308   4.421 -0.1146 -0.1462  0.2041
    2SER     BB  885   0.227   4.777   3.978 -0.2145  0.2890 -0.2594
    2SER    SC1  886   0.346   4.579   3.907  0.0965 -0.0952 -0.0315
    3TYR     BB  887   0.081   4.754   4.357  0.0325  0.0350 -0.1516
    3TYR    SC1  888   0.056   4.464   4.375 -0.1074  0.0123  0.0726
    3TYR    SC2  889   0.131   4.217   4.455  0.1856  0.1471  0.2345
    3TYR    SC3  890   0.111   4.273   4.192 -0.1769 -0.1266  0.1931
    1TYR     BB  891   6.523   5.948   6.766 -0.2028  0.0575 -0.0852
    1TYR    SC1  892   6.289   6.020   6.793 -0.1571  0.1013  0.0200
    1TYR    SC2  893   6.122   6.101   6.989 -0.1529  0.0402  0.0494
    1TYR    SC3  894   6.027   6.054   6.741 -0.1004  0.4676 -0.0626
    2SER     BB  895   6.567   5.824   7.188 -0.1530 -0.1255  0.0825
    2SER    SC1  896   6.356   5.691   7.216 -0.1620  0.1191  0.1218
    3TYR     BB  897   6.750   5.941   7.346 -0.2549 -0.1462 -0.1072
    3TYR    SC1  898   7.040   5.868   7.373  0.0818 -0.1673 -0.1976
    3TYR    SC2  899   7.228   5.899   7.565 -0.0671 -0.0843 -0.0612
    3TYR    SC3  900   7.300   5.898   7.304  0.1135  0.0110 -0.0143
    1TYR     BB  901   0.133   6.208   4.790 -0.2423  0.0951 -0.3111
    1TYR    SC1  902   0.407   6.068   4.815  0.0016  0.0591 -0.1142
    1TYR    SC2  903   0.573   5.911   4.960 -0.1892 -0.0822 -0.0429
    1TYR    SC3  904   0.583   5.906   4.690 -0.0700 -0.0793 -0.0390
    2SER     BB  905   0.078   6.160   4.446 -0.2638 -0.0826  0.0723
    2SER    SC1  906  -0.104   6.329   4.420  0.2693 -0.2076 -0.0000
    3TYR     BB  907   0.360   5.990   4.212  0.0511  0.2387  0.3275
    3TYR    SC1  908   0.090   5.875   4.025 -0.0447 -0.0145 -0.1982
    3TYR    SC2  909  -0.157   5.847   4.131  0.0137  0.1904  0.0016
    3TYR    SC3  910  -0.127   5.937   3.878 -0.1230 -0.1644 -0.1491
    1TYR     BB  911   0.460   4.371   6.414 -0.1665  0.0384 -0.3204
    1TYR    SC1  912   0.235   4.409   6.605  0.0034  0.2856 -0.0830
    1TYR    SC2  913  -0.016   4.473   6.680  0.0778  0.1732  0.2883
    1TYR    SC3  914   0.190   4.632   6.751  0.1400  0.1244  0.2178
    2SER     BB  915   0.468   4.779   6.349 -0.0887  0.1744 -0.2986
    2SER    SC1  916   0.346   4.793   6.199  0.0986  0.0149 -0.0542
    3TYR     BB  917   0.535   4.954   6.655  0.0571  0.0550 -0.2146
    3TYR    SC1  918   0.791   5.113   6.720 -0.1477  0.3034 -0.0257
    3TYR    SC2  919   1.060   5.133   6.726 -0.1201  0.0882 -0.2940
    3TYR    SC3  920   0.915   5.184   6.948  0.1461  0.1262 -0.1244
    1TYR     BB  921   6.579   6.751   5.239  0.0063  0.0254 -0.0233
    1TYR    SC1  922   6.694   6.984   5.312 -0.1316 -0.0295  0.2437
    1TYR    SC2  923   6.868   7.160   5.418 -0.2033  0.1075  0.1388
    1TYR    SC3  924   6.732   7.224   5.194 -0.2325 -0.0817  0.1008
    2SER     BB  925   6.335   6.636   5.080  0.0986  0.2007  0.0051
    2SER    SC1  926   6.107   6.688   5.092  0.0558 -0.1442 -0.0426
    3TYR     BB  927   6.454   6.458   4.866  0.0823  0.3782  0.0010
    3TYR    SC1  928   6.474   6.138   4.816 -0.1899 -0.1599  0.2452
    3TYR    SC2  929   6.594   5.897   4.797  0.0711 -0.0085 -0.2823
    3TYR    SC3  930   6.389   5.959   4.632 -0.0988  0.0844 -0.0443
    1TYR     BB  931   5.726   5.391   5.913  0.2674  0.1753  0.1457
    1TYR    SC1  932   5.636   5.146   5.801  0.0361 -0.1504 -0.3479
    1TYR    SC2  933   5.466   4.969   5.688 -0.0941 -0.0569 -0.2995
    1TYR    SC3  934   5.731   4.919   5.688 -0.1368 -0.3010 -0.1981
    2SER     BB  935   6.024   5.442   5.773  0.2269 -0.2507  0.0763
    2SER    SC1  936   6.207   5.508   5.966  0.0896  0.1570 -0.2197
    3TYR     BB  937   6.050   5.374   5.515 -0.1644 -0.2779  0.2935
    3TYR    SC1  938   5.864   5.229   5.363 -0.0608 -0.1267 -0.0376
    3TYR    SC2  939   5.615   5.181   5.271 -0.0021 -0.1351 -0.1951
    3TYR    SC3  940   5.821   5.028   5.189  0.0188 -0.2899  0.1268
    1TYR     BB  941   6.401   4.254   6.082 -0.1677  0.0409 -0.0127
    1TYR    SC1  942   6.386   4.012   5.914 -0.1761  0.3456 -0.2419
    1TYR    SC2  943   6.286   3.843   5.729 -0.4076  0.1288  0.0682
    1TYR    SC3  944   6.553   3.874   5.752 -0.3342 -0.4526  0.2075
    2SER     BB  945   6.160   4.392   6.283 -0.2926 -0.2737  0.3845
    2SER    SC1  946   6.230   4.620   6.358 -0.3813 -0.0007 -0.0927
    3TYR     BB  947   5.941   4.176   6.346 -0.2886 -0.1243  0.0381
    3TYR    SC1  948   6.133   3.947   6.403  0.0877  0.1890  0.3465
    3TYR    SC2  949   6.389   3.861   6.419  0.0618  0.0429  0.0602
    3TYR    SC3  950   6.185   3.688   6.457  0.0074  0.0823 -0.0455
    1TYR     BB  951   5.915   5.871   1.110 -0.0387 -0.0747 -0.2613
    1TYR    SC1  952   6.052   5.557   1.083  0.0254 -0.0060 -0.0877
    1TYR    SC2  953   6.002   5.332   0.942 -0.0504 -0.0107 -0.0537
    1TYR    SC3  954   6.152   5.320   1.166  0.2317  0.0263 -0.2352
    2SER     BB  955   5.951   5.895   1.417  0.3029 -0.0956  0.1799
    2SER    SC1  956   5.932   5.686   1.580 -0.1128  0.1743  0.1768
    3TYR     BB  957   6.333   6.062   1.421 -0.1041 -0.0572 -0.2842
    3TYR    SC1  958   6.427   5.796   1.515  0.0986  0.2173  0.0884
    3TYR    SC2  959   6.468   5.531   1.482  0.2183  0.2074  0.2940
    3TYR    SC3  960   6.532   5.649   1.716  0.0750  0.4015  0.2386
    1TYR     BB  961   6.197   6.976   0.405  0.2608  0.0876 -0.2294
    1TYR    SC1  962   6.496   7.076   0.296  0.1754 -0.1200 -0.1191
    1TYR    SC2  963   6.740   7.123   0.403  0.2112 -0.1633 -0.1806
    1TYR    SC3  964   6.685   7.205   0.152  0.1303 -0.0696 -0.1331
    2SER     BB  965   6.100   6.768   0.231 -0.1566 -0.2165 -0.0395
    2SER    SC1  966   6.271   6.554   0.231  0.1526  0.0647 -0.0510
    3TYR     BB  967   5.758   6.622   0.223 -0.0164  0.0710  0.2550
    3TYR    SC1  968   5.814   6.340   0.268  0.0855 -0.0522 -0.7311
    3TYR    SC2  969   5.778   6.087   0.354  0.1952  0.1308 -0.0780
    3TYR    SC3  970   5.959   6.139   0.161  0.4101 -0.2536  0.0066
    1TYR     BB  971   6.528   7.013   3.757 -0.1481 -0.0077  0.0220
    1TYR    SC1  972   6.659   7.271   3.872 -0.3171  0.0727 -0.0481
    1TYR    SC2  973   6.652   7.465   4.060  0.1623 -0.1306  0.2026
    1TYR    SC3  974   6.818   7.488   3.848 -0.1501 -0.0464 -0.0427
    2SER     BB  975   6.689   6.702   3.788  0.0681 -0.0955  0.1344
    2SER    SC1  976   6.934   6.713   3.832 -0.1476 -0.0627  0.1734
    3TYR     BB  977   6.586   6.340   3.848 -0.1473 -0.1448  0.1684
    3TYR    SC1  978   6.532   6.356   4.142 -0.0613 -0.1927 -0.1422
    3TYR    SC2  979   6.680   6.431   4.355 -0.1400  0.1513 -0.2008
    3TYR    SC3  980   6.429   6.338   4.390 -0.2626  0.4814 -0.1496
    1TYR     BB  981   1.674   4.848   5.549 -0.2332 -0.1108  0.1219
    1TYR    SC1  982   1.658   4.630   5.317 -0.5584 -0.0449 -0.0895
    1TYR    SC2  983   1.677   4.587   5.051  0.2644  0.0756 -0.0843
    1TYR    SC3  984   1.542   4.412   5.207 -0.0573 -0.1087 -0.5420
    2SER     BB  985   1.415   4.745   5.717 -0.2075  0.1209  0.2042
    2SER    SC1  986   1.229   4.647   5.693  0.2071  0.5451 -0.0850
    3TYR     BB  987   1.584   4.737   6.009 -0.1720  0.2439  0.2230
    3TYR    SC1  988   1.429   4.861   6.264 -0.3828  0.2705 -0.0696
    3TYR    SC2  989   1.291   4.853   6.496 -0.1337 -0.1176  0.0776
    3TYR    SC3  990   1.473   5.048   6.455  0.0456 -0.2193  0.3516
    1TYR     BB  991   1.409   3.857   6.515 -0.1133 -0.0246 -0.2272
    1TYR    SC1  992   1.250   3.611   6.507  0.2576 -0.0477 -0.0338
    1TYR    SC2  993   1.260   3.353   6.431 -0.0402 -0.1151  0.1361
    1TYR    SC3  994   1.047   3.445   6.569  0.0422  0.2333  0.0436
    2SER     BB  995   1.119   4.056   6.657 -0.3322 -0.0241 -0.0589
    2SER    SC1  996   0.938   4.168   6.484 -0.1379 -0.2505  0.0894
    3TYR     BB  997   1.217   4.187   6.866  0.0290  0.0722 -0.2562
    3TYR    SC1  998   1.104   4.235   7.154 -0.0178 -0.2831  0.0764
    3TYR    SC2  999   0.885   4.331   7.280  0.0533 -0.2574  0.1824
    3TYR    SC3 1000   1.128   4.434   7.335  0.0883 -0.2587  0.0363
    4W        W 1001   1.943   3.987   0.480 -0.0395 -0.0078  0.0473
    5W        W 1002   0.222   1.153   0.713 -0.1876  0.0970  0.2159
    6W        W 1003   5.488   2.097   0.154 -0.0828  0.1406 -0.0210
    7W        W 1004   7.538   4.101   3.214 -0.1222 -0.1387  0.0440
    8W        W 1005   3.082   4.413   2.151 -0.0369  0.0670  0.0197
    9W        W 1006   5.233   7.195   0.702  0.0863  0.3807  0.3206
   10W        W 1007   3.141   0.600   6.312  0.0374  0.1519 -0.0780
   11W        W 1008   3.438   6.440   1.496 -0.1236  0.2821  0.0254
   12W        W 1009   0.467   1.877   6.772  0.2079  0.0713  0.1671
   13W        W 1010   6.078   1.060   1.554  0.1943  0.2577  0.0135
   14W        W 1011   6.406   1.792   0.422  0.0246 -0.1529  0.1321
   15W        W 1012   1.382   0.147   0.300  0.0287  0.3807 -0.0334
   16W        W 1013   5.342   2.271   6.852  0.2400  0.1194  0.0209
   17W        W 1014   7.030   2.456   7.543 -0.3787  0.0280 -0.3101
   18W        W 1015   5.940   3.527   0.843  0.2407  0.1416 -0.1882
   19W        W 1016   4.482   6.530   2.617  0.0524 -0.2822  0.2399
   20W        W 1017   2.173   7.262   7.062 -0.0395 -0.1724 -0.2353
   21W        W 1018   5.407   0.653   5.411  0.2965 -0.3042  0.0752
   22W        W 1019   0.554   2.711   4.517 -0.1467 -0.2520  0.1129
   23W        W 1020   1.387   5.596   1.928 -0.0977  0.2114 -0.2910
   24W        W 1021   2.846   2.677   4.492 -0.2701 -0.0328  0.0186
   25W        W 1022   1.150   1.076   2.226 -0.2388  0.1229  0.3160
   26W        W 1023   1.580   5.168   1.759 -0.0595  0.0914  0.1587
   27W        W 1024   1.471   1.635   1.503 -0.0788 -0.0450  0.0091
   28W        W 1025   4.835   7.461   1.647 -0.0349  0.2838  0.0679
   29W        W 1026   2.167   1.780   6.194  0.2961 -0.0147 -0.0499
   30W        W 1027   5.862   1.860   0.516 -0.0639  0.2113  0.0503
   31W        W 1028   5.149   3.218   2.503  0.1361  0.0431  0.0076
   32W        W 1029   7.338   0.900   4.280 -0.1027 -0.2932  0.3525
   33W        W 1030   0.584   0.408   3.937 -0.0558  0.2939 -0.3339
   34W        W 1031   0.988   7.048   1.138 -0.1012  0.3236 -0.0218
   35W        W 1032   5.212   1.996   5.073 -0.1260  0.3651  0.0093
   36W        W 1033   0.403   3.321   2.267  0.1551  0.1623  0.1782
   37W        W 1034   7.603   2.396   1.164  0.1568 -0.3768 -0.2047
   38W        W 1035   4.785   5.551   6.316  0.0445  0.1947  0.0141
   39W        W 1036   3.288   4.692   7.482 -0.1776 -0.1685  0.0089
   40W        W 1037   3.345   4.854   4.334 -0.2275 -0.0042 -0.0860
   41W        W 1038   1.300   2.016   2.300  0.4716 -0.2988  0.1893
   42W        W 1039   0.983   5.574   4.692  0.0855  0.2049  0.0119
   43W        W 1040   4.753   0.388   4.424  0.0136  0.0709  0.0866
   44W        W 1041   4.437   7.359   3.755  0.1127 -0.1127  0.0877
   45W        W 1042   1.922   1.351   6.341  0.0381 -0.0093  0.3176
   46W        W 1043   5.386   3.070   3.778 -0.3869 -0.0173  0.1451
   47W        W 1044   6.220   2.879   1.511  0.2538 -0.1926 -0.0694
   48W        W 1045   1.826   3.813   1.185  0.0917 -0.1270  0.1241
   49W        W 1046   2.268   4.617   0.779 -0.0931 -0.1457  0.0770
   50W        W 1047   6.661   2.067   7.647 -0.1460  0.1386 -0.0207
   51W        W 1048   5.392   4.297   1.538  0.3950 -0.0863 -0.1354
   52W        W 1049   4.496   1.918   7.011 -0.0331  0.0382  0.0101
   53W        W 1050   1.779   1.399   2.745  0.0605  0.0297  0.1277
   54W        W 1051   6.849   2.104   3.149  0.2034  0.0556 -0.2026
   55W        W 1052   1.790   7.520   4.568  0.1952  0.4173  0.1897
   56W        W 1053   2.135   3.415   4.268 -0.3018 -0.0560 -0.0061
   57W        W 1054   4.164   2.320   1.567 -0.1503  0.0722  0.1360
   58W        W 1055   2.076   5.936   5.164  0.0499 -0.0388 -0.5431
   59W        W 1056   1.844   6.736   1.138  0.1323 -0.1288  0.4507
   60W        W 1057   1.774   6.994   6.762  0.0569  0.0747  0.2453
   61W        W 1058   0.029   0.464   1.955  0.3459 -0.0215  0.3687
   62W        W 1059   0.597   7.277   2.814  0.1937  0.0269  0.0657
   63W        W 1060   5.562   5.641   2.850  0.1547 -0.0635 -0.0143
   64W        W 1061   3.682   1.520   7.489 -0.0937  0.2963 -0.0830
   65W        W 1062   0.754   3.274   3.453  0.2473  0.0669  0.0270
   66W        W 1063   1.799   6.429   2.388  0.1158  0.0644  0.2263
   67W        W 1064   4.108   7.001   7.428  0.1356 -0.3219  0.0981
   68W        W 1065   3.329   6.053   2.300  0.1056 -0.1969  0.2508
   69W        W 1066   3.767   7.474   0.912 -0.0354 -0.3296 -0.0564
   70W        W 1067   3.297   6.779   3.955 -0.0366  0.2569 -0.2210
   71W        W 1068   4.931   2.372   6.545 -0.1794  0.0071 -0.2969
   72W        W 1069   2.408   5.306   2.042 -0.0872 -0.1548  0.0440
   73W        W 1070   2.218   2.286   6.099  0.2320 -0.2252  0.1307
   74W        W 1071   4.311   2.305   2.811 -0.0266 -0.1428 -0.0832
   75W        W 1072   7.001   1.821   2.252 -0.2013 -0.4633  0.2774
   76W        W 1073   3.595   2.807   3.789  0.2902  0.2277  0.0354
   77W        W 1074   5.728   1.399   4.608 -0.2599  0.0151  0.1305
   78W        W 1075   1.407   2.553   3.982 -0.1295  0.1111  0.0139
   79W        W 1076   3.765   4.439   4.287 -0.1313 -0.3132 -0.0749
   80W        W 1077   5.085   3.660   4.430  0.0872 -0.3437 -0.1607
   81W        W 1078   1.931   7.145   6.215  0.0206 -0.3240 -0.1965
   82W        W 1079   6.139   0.270   0.310  0.2195  0.2204  0.0985
   83W        W 1080   3.522   6.564   4.907  0.1202 -0.1464 -0.3027
   84W        W 1081   5.736   2.575   0.142 -0.3675  0.2109 -0.1254
   85W        W 1082   4.142   5.470   1.362 -0.0947  0.0445  0.0742
   86W        W 1083   3.806   0.267   0.618 -0.0030  0.0463  0.0397
   87W        W 1084   4.997   4.529   3.069 -0.0116 -0.0043 -0.1062
   88W        W 1085   1.202   6.638   5.617  0.1506  0.1781  0.0683
   89W        W 1086   3.065   6.857   1.740 -0.1032 -0.2040 -0.1147
   90W        W 1087   2.570   3.254   3.043  0.3202  0.2465 -0.0879
   91W        W 1088   6.503   0.906   5.612  0.3512 -0.2820 -0.0968
   92W        W 1089   2.100   0.600   5.256 -0.1900 -0.1721 -0.1926
   93W        W 1090   2.506   0.246   4.295 -0.0923 -0.0921  0.1463
   94W        W 1091   5.112   2.664   3.470  0.0640  0.0856 -0.2343
   95W        W 1092   3.475   5.746   6.178 -0.0083 -0.1148  0.0057
   96W        W 1093   2.363   3.906   6.311 -0.3490  0.2638 -0.1725
   97W        W 1094   6.868   3.417   1.084 -0.2273 -0.0223 -0.2302
   98W        W 1095   2.555   6.064   2.817 -0.0769 -0.3222 -0.3163
   99W        W 1096   4.634   0.398   4.983 -0.0119  0.3097 -0.1581
  100W        W 1097   5.291   4.727   1.187  0.0809  0.1298  0.1564
  101W        W 1098   5.154   4.692   0.734 -0.0334  0.0675 -0.2039
  102W        W 1099   2.155   3.973   2.302 -0.2232 -0.2471 -0.3933
  103W        W 1100   6.407   4.285   4.131  0.1338 -0.0848 -0.1647
  104W        W 1101   0.489   0.090   4.437  0.1729 -0.1025  0.1165
  105W        W 1102   6.011   5.239   3.485  0.0353  0.1080 -0.0707
  106W        W 1103   1.443   7.531   3.961  0.1822 -0.4398  0.2382
  107W        W 1104   4.979   4.205   4.511 -0.4744  0.0446  0.0891
  108W        W 1105   3.389   4.571   6.389  0.3764  0.0098  0.0678
  109W        W 1106   6.886   3.928   3.430  0.4070  0.0105  0.0569
  110W        W 1107   3.371   3.012   3.391 -0.0778  0.0868  0.0005
  111W        W 1108   6.526   2.527   4.407 -0.3818 -0.2561 -0.2588
  112W        W 1109   7.102   2.816   4.778  0.0267 -0.0588 -0.3017
  113W        W 1110   4.693   2.631   5.263  0.2018  0.1110  0.5320
  114W        W 1111   5.632   3.476   1.734  0.1534 -0.0235  0.0202
  115W        W 1112   3.154   6.814   0.665 -0.3068 -0.0541 -0.2029
  116W        W 1113   7.327   2.259   5.836  0.2551  0.2272 -0.1779
  117W        W 1114   1.823   1.334   0.125 -0.2600 -0.2046 -0.0560
  118W        W 1115   5.459   3.262   7.023 -0.0201  0.3025  0.0875
  119W        W 1116   1.613   6.314   3.899  0.0013  0.1981  0.3157
  120W        W 1117   7.371   3.926   7.561  0.2261 -0.1318  0.0199
  121W        W 1118   3.561   4.884   3.310  0.2331 -0.0466  0.3655
  122W        W 1119   4.875   0.851   5.590  0.2661  0.2203 -0.1627
  123W        W 1120   0.361   1.897   6.268  0.3378  0.0569 -0.0518
  124W        W 1121   4.608   7.345   4.224 -0.3047  0.0385 -0.0296
  125W        W 1122   0.027   3.479   0.053  0.0146 -0.1607  0.1128
  126W        W 1123   4.397   4.409   7.278  0.3785 -0.0507  0.1984
  127W        W 1124   2.160   6.371   0.999  0.0806 -0.0834 -0.0068
  128W        W 1125   2.324   5.485   5.147  0.0400  0.1414 -0.2621
  129W        W 1126   5.036   4.533   0.275  0.0342 -0.0680 -0.0544
  130W        W 1127   2.162   0.719   4.281 -0.2265 -0.1698  0.0538
  131W        W 1128   2.304   4.869   3.397 -0.0875  0.0283  0.0475
  132W        W 1129   2.765   4.019   6.621 -0.2777 -0.0525  0.0480
  133W        W 1130   1.443   6.613   3.473  0.0463 -0.1267  0.2710
  134W        W 1131   6.851   1.614   7.417 -0.0197 -0.1625 -0.2300
  135W        W 1132   4.590   1.962   2.563  0.0057 -0.1958 -0.1311
  136W        W 1133   1.401   7.536   5.563  0.0103 -0.0808  0.0515
  137W        W 1134   3.200   2.887   7.265 -0.0390  0.2143  0.0679
  138W        W 1135   2.760   2.408   2.783  0.2254 -0.1412 -0.3076
  139W        W 1136   1.736   2.802   1.932  0.0243 -0.1206  0.1850
  140W        W 1137   6.064   3.888   2.831  0.1868  0.2775  0.0259
  141W        W 1138   0.889   3.234   4.609  0.1058  0.3017  0.2224
  142W        W 1139   3.887   0.274   6.353 -0.2591 -0.0549 -0.1665
  143W        W 1140   2.676   2.256   2.282 -0.2223  0.1700 -0.0652
  144W        W 1141   3.842   5.826   1.194  0.2857 -0.0744  0.1482
  145W        W 1142   3.680   0.206   3.442  0.1382  0.1526  0.1665
  146W        W 1143   2.376   6.639   0.068 -0.0737  0.1052  0.4028
  147W        W 1144   0.225   0.327   1.428 -0.1303  0.0743  0.0417
  148W        W 1145   5.482   5.260   1.723 -0.2325  0.0184  0.1897
  149W        W 1146   5.767   0.625   0.247  0.2952  0.0640  0.3855
  150W        W 1147   1.194   0.240   1.283 -0.1529  0.0670  0.2472
  151W        W 1148   7.021   1.806   4.178 -0.2276  0.3329  0.1953
  152W        W 1149   0.158   1.209   5.221  0.0113 -0.0235  0.0778
  153W        W 1150   3.984   6.656   6.087 -0.0953 -0.2912 -0.2936
  154W        W 1151   3.777   0.995   3.669 -0.1872  0.1262 -0.1028
  155W        W 1152   1.190   4.060   1.918  0.2312 -0.1426 -0.0300
  156W        W 1153   2.077   0.767   7.122  0.1861 -0.2896  0.0026
  157W        W 1154   2.619   3.718   4.715 -0.1316  0.4211  0.2042
  158W        W 1155   4.746   1.145   6.401 -0.0492  0.1331  0.2540
  159W        W 1156   1.141   2.286   5.369 -0.1061 -0.1489  0.1252
  160W        W 1157   5.116   4.360   5.083  0.1339  0.0528  0.1574
  161W        W 1158   4.439   0.943   6.701 -0.1680 -0.2846 -0.1949
  162W        W 1159   0.106   2.708   3.744 -0.1267  0.0909 -0.2157
  163W        W 1160   5.125   2.779   7.145  0.1536 -0.3429  0.4889
  164W        W 1161   2.099   6.243   0.125 -0.3747 -0.0215  0.0710
  165W        W 1162   1.885   6.617   4.271  0.0698  0.1025 -0.1563
  166W        W 1163   3.644   1.290   2.372  0.1216  0.2283  0.1965
  167W        W 1164   4.735   5.137   4.388 -0.0395  0.2920 -0.2106
  168W        W 1165   0.915   5.445   7.462 -0.0341 -0.1418 -0.0180
  169W        W 1166   2.978   3.926   5.073 -0.3730 -0.1983 -0.1732
  170W        W 1167   1.920   1.946   5.318 -0.0193  0.3793  0.1255
  171W        W 1168   2.536   1.561   3.140  0.1488 -0.2202 -0.3395
  172W        W 1169   5.409   7.595   5.639 -0.0038 -0.1762  0.1905
  173W        W 1170   6.260   1.664   5.299  0.3586  0.0241 -0.0465
  174W        W 1171   7.551   6.661   7.264  0.0364 -0.1067  0.0995
  175W        W 1172   1.288   0.531   7.635  0.2191  0.0170  0.2727
  176W        W 1173   2.766   6.902   0.312 -0.1842 -0.0975 -0.2230
  177W        W 1174   3.072   1.135   1.486 -0.0146  0.0665  0.0035
  178W        W 1175   3.407   0.102   1.786  0.1890  0.0045  0.1964
  179W        W 1176   0.032   2.625   2.600  0.2612 -0.5001  0.1664
  180W        W 1177   6.118   3.169   6.208  0.3390  0.5754 -0.3716
  181W        W 1178   2.987   3.886   7.109 -0.0092  0.1196  0.0907
  182W        W 1179   5.865   4.466   3.492  0.1772  0.2163 -0.1198
  183W        W 1180   4.038   5.715   4.930 -0.0463  0.1678  0.1421
  184W        W 1181   4.702   3.456   3.547 -0.2049  0.1991  0.3290
  185W        W 1182   5.754   0.733   1.784 -0.3587  0.1380 -0.0340
  186W        W 1183   7.100   2.979   7.449 -0.0369 -0.0849  0.0432
  187W        W 1184   2.569   4.234   3.786 -0.0110 -0.0706 -0.0558
  188W        W 1185   6.321   1.873   2.463 -0.0763 -0.1598 -0.1274
  189W        W 1186   2.967   5.188   4.095 -0.0948 -0.1356  0.0656
  190W        W 1187   5.538   4.479   1.960 -0.0878 -0.0233 -0.0481
  191W        W 1188   0.695   7.590   7.651 -0.0560 -0.1432 -0.3142
  192W        W 1189   2.219   2.124   7.513  0.0048 -0.2779  0.3426
  193W        W 1190   3.110   0.533   5.043 -0.2458 -0.0437  0.2692
  194W        W 1191   5.588   4.315   6.702 -0.0593  0.1000  0.0299
  195W        W 1192   5.427   1.452   4.071 -0.4377  0.0996 -0.0397
  196W        W 1193   3.769   4.751   1.785 -0.0614  0.2364 -0.2944
  197W        W 1194   1.753   1.692   4.159  0.1177 -0.1355 -0.1110
  198W        W 1195   3.800   5.714   0.538  0.0169  0.1016 -0.1096
  199W        W 1196   1.724   0.201   7.611  0.1690 -0.0868  0.0286
  200W        W 1197   4.873   0.045   6.381 -0.1999 -0.2419 -0.1254
  201W        W 1198   0.438   1.298   4.780 -0.0141  0.1093  0.0886
  202W        W 1199   3.769   6.014   1.640 -0.2875  0.0093 -0.1700
  203W        W 1200   1.575   0.684   4.052 -0.2209 -0.0236 -0.1755
  204W        W 1201   6.676   0.831   1.169  0.0928  0.0875  0.0965
  205W        W 1202   2.586   7.368   7.465 -0.2813 -0.0175 -0.0392
  206W        W 1203   0.810   5.336   3.508  0.1668  0.1358  0.1887
  207W        W 1204   2.648   0.798   1.238  0.2619  0.4998  0.1770
  208W        W 1205   2.194   1.981   4.865 -0.1457 -0.1797 -0.3725
  209W        W 1206   6.152   0.945   4.678 -0.0289 -0.1196 -0.1074
  210W        W 1207   4.648   0.595   6.990 -0.3308 -0.0455  0.2022
  211W        W 1208   1.353   5.074   3.594 -0.3070  0.0892 -0.0092
  212W        W 1209   1.398   7.403   7.306 -0.0275 -0.1633  0.1098
  213W        W 1210   6.826   4.569   3.713 -0.1357  0.3766 -0.1815
  214W        W 1211   1.925   0.320   4.238  0.1886 -0.0269  0.2254
  215W        W 1212   1.585   0.191   6.710 -0.0350  0.0091 -0.0863
  216W        W 1213   1.425   5.405   7.558 -0.5800 -0.1055 -0.3731
  217W        W 1214   6.518   2.531   3.094 -0.1576  0.0188 -0.0433
  218W        W 1215   3.506   6.052   7.247  0.3559  0.1274 -0.0609
  219W        W 1216   5.456   0.883   2.848  0.2378 -0.3143 -0.0655
  220W        W 1217   0.673   0.202   6.786  0.2321 -0.0624  0.3244
  221W        W 1218   1.831   1.799   7.559  0.0995 -0.2126  0.1846
  222W        W 1219   7.161   0.904   6.062  0.0315 -0.1746 -0.1112
  223W        W 1220   2.175   2.473   5.610  0.0801 -0.2962  0.1668
  224W        W 1221   5.260   1.226   6.107  0.2159 -0.0081 -0.1807
  225W        W 1222   2.639   1.234   4.367  0.2636  0.1386  0.1890
  226W        W 1223   6.720   2.975   4.478  0.1429 -0.1600  0.0396
  227W        W 1224   5.182   7.278   6.517  0.0909  0.3618  0.2064
  228W        W 1225   2.546   6.883   7.300  0.0883 -0.3263  0.0304
  229W        W 1226   7.262   2.805   3.610 -0.0196  0.0830  0.0088
  230W        W 1227   2.407   1.072   5.206 -0.1763  0.1980  0.2208
  231W        W 1228   3.197   0.833   3.057 -0.0203 -0.3478  0.2389
  232W        W 1229   0.338   1.651   0.336 -0.1647 -0.1685  0.3909
  233W        W 1230   2.198   5.662   6.714 -0.1100  0.1694 -0.2958
  234W        W 1231   2.653   5.712   7.535 -0.0712  0.0875  0.1233
  235W        W 1232   3.508   1.362   4.386  0.2725 -0.2163  0.0202
  236W        W 1233   7.039   1.376   1.985  0.3389 -0.0234 -0.3269
  237W        W 1234   5.116   5.238   3.989  0.0892  0.1212  0.3936
  238W        W 1235   1.878   5.978   1.167 -0.0714 -0.0367 -0.0986
  239W        W 1236   2.402   5.004   6.018  0.1404 -0.0028 -0.1518
  240W        W 1237   3.178   6.382   3.043  0.0616  0.1250 -0.1828
  241W        W 1238   1.340   4.185   4.269 -0.0563 -0.0164 -0.1144
  242W        W 1239   0.747   2.401   6.977  0.0565 -0.0551 -0.1104
  243W        W 1240   2.890   1.034   6.510  0.2398 -0.1381  0.0740
  244W        W 1241   0.297   0.982   6.593  0.1177 -0.1823  0.2713
  245W        W 1242   6.045   4.137   4.937  0.0090 -0.1721  0.1533
  246W        W 1243   2.409   2.284   7.069 -0.1484  0.1017 -0.0218
  247W        W 1244   2.568   6.576   2.726  0.1801 -0.3840  0.2127
  248W        W 1245   7.497   4.074   3.705  0.0242  0.2183 -0.4191
  249W        W 1246   3.647   7.625   5.970 -0.0367  0.2057 -0.0653
  250W        W 1247   1.831   1.638   5.691  0.0901 -0.3602 -0.0956
  251W        W 1248   3.250   0.345   2.392 -0.1131  0.2429  0.0280
  252W        W 1249   5.069   3.125   1.241 -0.1338 -0.2320  0.2289
  253W        W 1250   5.602   3.752   5.623  0.0045  0.0330 -0.0728
  254W        W 1251   3.266   2.071   0.980  0.2209  0.2669 -0.1209
  255W        W 1252   1.758   2.601   6.773  0.0187  0.1158  0.2216
  256W        W 1253   1.342   5.631   7.115  0.0324  0.1051  0.1902
  257W        W 1254   3.295   6.276   3.989 -0.0286 -0.1200 -0.0896
  258W        W 1255   0.659   2.767   6.618  0.1122 -0.0439 -0.0670
  259W        W 1256   5.028   5.001   2.112 -0.0967 -0.0422 -0.0970
  260W        W 1257   4.660   7.633   5.416  0.0801  0.1040  0.0518
  261W        W 1258   1.253   2.274   4.608  0.0088 -0.0468  0.0012
  262W        W 1259   0.772   7.465   1.369  0.2801 -0.1801  0.1363
  263W        W 1260   5.436   4.164   2.892 -0.0252 -0.2949  0.0151
  264W        W 1261   1.188   1.470   6.688 -0.1848 -0.0360 -0.2354
  265W        W 1262   5.471   0.348   4.918  0.0683 -0.0487  0.1086
  266W        W 1263   7.656   2.729   3.139  0.2492  0.1336  0.3971
  267W        W 1264   4.378   6.668   2.113  0.0263  0.1721 -0.0879
  268W        W 1265   3.321   7.252   0.890  0.2209  0.0582 -0.2868
  269W        W 1266   7.661   1.775   2.911 -0.1398 -0.0647  0.0427
  270W        W 1267   3.990   0.446   4.116  0.1177 -0.3496  0.0306
  271W        W 1268   3.731   4.455   3.502  0.0374 -0.0921 -0.0222
  272W        W 1269   0.268   5.579   3.004 -0.0950  0.1514  0.2723
  273W        W 1270   3.521   6.629   2.546 -0.0571 -0.0066 -0.0063
  274W        W 1271   1.959   4.267   0.955 -0.3322 -0.2016 -0.0151
  275W        W 1272   7.229   2.974   4.306 -0.1810 -0.1262  0.1700
  276W        W 1273   5.481   0.444   1.110 -0.2363  0.0107  0.1628
  277W        W 1274   5.142   6.394   1.076  0.0947  0.0550  0.0970
  278W        W 1275   3.037   3.103   4.676 -0.2723  0.2007 -0.0424
  279W        W 1276   2.755   5.285   6.195  0.1935  0.1122  0.1298
  280W        W 1277   4.978   2.628   1.384  0.2332  0.0277  0.0650
  281W        W 1278   4.321   4.265   3.407 -0.1075 -0.2676 -0.1047
  282W        W 1279   5.555   1.343   3.204 -0.1257  0.0564  0.0302
  283W        W 1280   6.029   0.772   3.716 -0.1143 -0.0301 -0.2174
  284W        W 1281   3.743   0.874   4.162 -0.0993 -0.4557 -0.3906
  285W        W 1282   2.008   4.149   7.537  0.0912 -0.0224  0.0537
  286W        W 1283   0.132   1.192   1.251  0.0552  0.1688  0.2839
  287W        W 1284   3.340   6.498   7.359 -0.1941  0.1504 -0.3635
  288W        W 1285   6.930   2.713   5.228  0.0201 -0.1646 -0.0595
  289W        W 1286   7.494   7.237   3.244  0.0722  0.0566 -0.1888
  290W        W 1287   0.671   3.046   1.129  0.2762 -0.1086 -0.2851
  291W        W 1288   0.372   2.776   0.114 -0.0694  0.0675  0.1741
  292W        W 1289   1.209   5.134   2.149 -0.0077  0.1505  0.2500
  293W        W 1290   4.680   6.440   6.787 -0.0291 -0.0636 -0.3751
  294W        W 1291   5.540   4.971   2.162 -0.0345  0.2075  0.1301
  295W        W 1292   7.317   1.363   5.160 -0.1327 -0.0582 -0.0771
  296W        W 1293   4.477   3.496   7.223  0.1736 -0.0036  0.1835
  297W        W 1294   4.036   3.224   1.208 -0.1989  0.3824 -0.0914
  298W        W 1295   6.079   1.229   3.334 -0.2948  0.0202 -0.0608
  299W        W 1296   4.578   1.234   2.820  0.1109 -0.0940 -0.1855
  300W        W 1297   0.293   5.338   3.477 -0.0285  0.2918 -0.1319
  301W        W 1298   5.293   1.792   0.555 -0.4380 -0.0197  0.3301
  302W        W 1299   2.119   2.138   4.329  0.0360 -0.1699  0.0509
  303W        W 1300   3.356   1.238   0.696  0.2381 -0.2295  0.3308
  304W        W 1301   1.205   6.546   6.576  0.0126 -0.0429  0.2978
  305W        W 1302   4.476   7.171   5.485  0.2158 -0.0562  0.3443
  306W        W 1303   0.045   4.634   0.779  0.0390 -0.4987  0.1433
  307W        W 1304   0.699   0.497   2.753  0.2023  0.0988  0.0891
  308W        W 1305   2.743   5.085   3.318  0.1114 -0.2389  0.3191
  309W        W 1306   3.605   4.038   5.927 -0.1202 -0.0888 -0.0897
  310W        W 1307   2.894   0.871   7.178  0.1722  0.1938  0.1779
  311W        W 1308   1.465   2.752   5.109 -0.1206  0.3275 -0.0094
  312W        W 1309   2.464   4.667   4.351  0.1887 -0.0067 -0.0381
  313W        W 1310   4.430   0.822   6.012  0.1951  0.1131 -0.0416
  314W        W 1311   5.316   6.216   0.373  0.1696  0.0342 -0.1045
  315W        W 1312   4.583   5.974   3.848  0.0906 -0.0930 -0.2505
  316W        W 1313   0.825   0.930   4.788  0.1819 -0.2559  0.0032
  317W        W 1314   7.519   5.332   1.268 -0.1713  0.1958 -0.4269
  318W        W 1315   2.500   0.557   0.759  0.0537 -0.5224  0.0281
  319W        W 1316   5.443   7.429   1.746  0.2525 -0.0935  0.0848
  320W        W 1317   0.579   5.581   0.661  0.1281  0.3423 -0.1730
  321W        W 1318   3.169   0.117   5.862  0.1467  0.1688  0.2488
  322W        W 1319   0.022   4.862   1.294  0.2682  0.0985  0.3124
  323W        W 1320   4.137   0.486   2.574 -0.0746 -0.2096 -0.0423
  324W        W 1321   2.212   1.663   4.463 -0.1281  0.1395 -0.1233
  325W        W 1322   3.473   0.423   4.398  0.1495  0.3113  0.0869
  326W        W 1323   4.772   2.433   7.049 -0.0997  0.0244  0.1802
  327W        W 1324   2.124   4.179   1.430  0.0010  0.0637 -0.0773
  328W        W 1325   5.672   2.739   4.704 -0.4830 -0.0764  0.3938
  329W        W 1326   5.074   6.961   0.081 -0.0645  0.0009  0.1579
  330W        W 1327   3.017   7.642   2.752 -0.2299  0.2855 -0.2454
  331W        W 1328   4.495   0.666   0.979 -0.1430 -0.0194 -0.0317
  332W        W 1329   3.706   0.147   2.575  0.2942  0.1751 -0.3703
  333W        W 1330   1.149   2.466   2.022  0.1464 -0.0966  0.3719
  334W        W 1331   5.051   5.480   0.602  0.0048  0.2211 -0.0082
  335W        W 1332   0.181   7.335   6.067 -0.3452  0.1846 -0.1523
  336W        W 1333   7.114   2.294   4.922 -0.0655 -0.0447 -0.2976
  337W        W 1334   0.497   6.173   0.920  0.0521  0.0314 -0.2535
  338W        W 1335   4.922   1.557   4.440 -0.0968 -0.1639  0.0833
  339W        W 1336   4.604   7.093   1.311  0.2241 -0.3544  0.2535
  340W        W 1337   0.714   0.707   0.019 -0.0412  0.1339  0.2610
  341W        W 1338   2.576   4.721   0.201  0.2031  0.4520 -0.0379
  342W        W 1339   7.020   3.713   1.428  0.0508 -0.1654  0.2624
  343W        W 1340   5.566   0.106   3.378  0.2376  0.1182 -0.1209
  344W        W 1341   0.141   5.206   0.907 -0.0007  0.1086  0.0195
  345W        W 1342   4.335   6.174   0.405 -0.0885 -0.0765 -0.0477
  346W        W 1343   5.527   0.681   5.933  0.0584  0.0862  0.1025
  347W        W 1344   4.180   5.260   4.083 -0.1682 -0.0821  0.2473
  348W        W 1345   1.663   5.575   0.935  0.2357  0.1293 -0.1866
  349W        W 1346   2.945   6.424   1.627  0.0615  0.2272  0.0032
  350W        W 1347   3.730   2.795   5.396 -0.3184 -0.1797 -0.1952
  351W        W 1348   3.373   7.470   7.476 -0.0505  0.2346 -0.0611
  352W        W 1349   4.658   4.302   6.799  0.0141  0.2196 -0.2272
  353W        W 1350   2.272   7.628   4.637  0.0298 -0.0585  0.1043
  354W        W 1351   3.234   6.310   0.638 -0.0356 -0.1725  0.4368
  355W        W 1352   1.551   3.311   7.208 -0.3783 -0.0555  0.0696
  356W        W 1353   3.854   2.653   4.944 -0.0623  0.1917  0.2953
  357W        W 1354   1.934   3.181   6.934  0.2009  0.0001  0.0768
  358W        W 1355   3.638   5.878   3.689 -0.2008 -0.0653 -0.0431
  359W        W 1356   0.160   5.207   2.117 -0.4206 -0.1355  0.0268
  360W        W 1357   5.866   3.797   4.626  0.0322  0.0058 -0.2523
  361W        W 1358   0.731   4.067   0.354 -0.0060 -0.0586 -0.0642
  362W        W 1359   2.262   5.540   6.102  0.0259 -0.1928 -0.1161
  363W        W 1360   6.188   7.321   6.660 -0.2075  0.2589  0.0995
  364W        W 1361   3.443   0.649   7.551 -0.2906  0.2058 -0.1938
  365W        W 1362   1.123   2.501   1.383  0.0062  0.0423  0.0442
  366W        W 1363   0.251   2.399   4.193  0.2677 -0.1310  0.1409
  367W        W 1364   0.268   0.516   4.313 -0.0180  0.1260 -0.2103
  368W        W 1365   1.804   4.865   3.503 -0.0603 -0.2116  0.0712
  369W        W 1366   1.995   5.377   4.794  0.2869  0.0510  0.1467
  370W        W 1367   5.096   7.001   7.233  0.1727 -0.2775 -0.1228
  371W        W 1368   4.942   0.419   3.507 -0.1462 -0.0366  0.1712
  372W        W 1369   6.618   0.314   1.487  0.1876 -0.0505  0.2518
  373W        W 1370   2.170   2.779   7.022  0.0226 -0.0121  0.3207
  374W        W 1371   5.205   0.143   6.805  0.0787  0.3002 -0.1107
  375W        W 1372   0.569   7.666   2.499 -0.2463 -0.1061 -0.2482
  376W        W 1373   3.792   5.910   2.115  0.0974 -0.0189 -0.0046
  377W        W 1374   2.012   6.159   2.786 -0.1060 -0.0154  0.0966
  378W        W 1375   5.527   7.538   4.747  0.0519  0.0019  0.1138
  379W        W 1376   3.377   6.237   6.423 -0.0219 -0.0499  0.1068
  380W        W 1377   1.671   2.909   4.208  0.1976 -0.3768 -0.2597
  381W        W 1378   4.758   2.154   5.237 -0.1044 -0.1212 -0.0106
  382W        W 1379   0.972   6.257   0.961 -0.0736  0.2146 -0.1695
  383W        W 1380   4.441   1.796   1.676 -0.1925  0.3180 -0.2286
  384W        W 1381   2.100   3.133   0.712 -0.0628 -0.0041  0.3804
  385W        W 1382   0.009   0.526   2.846  0.1464  0.0393 -0.1788
  386W        W 1383   6.887   1.865   0.374 -0.1285 -0.1594 -0.1682
  387W        W 1384   0.744   7.380   6.210 -0.0768 -0.0819 -0.1797
  388W        W 1385   0.032   4.294   7.602  0.0317 -0.5708  0.0166
  389W        W 1386   4.702   2.923   2.360  0.1579  0.0579  0.0696
  390W        W 1387   4.695   3.636   1.790  0.0202 -0.1984  0.1913
  391W        W 1388   0.921   6.781   4.568  0.2892  0.1893  0.0347
  392W        W 1389   1.362   6.763   4.216 -0.0838 -0.0150  0.3108
  393W        W 1390   5.340   0.963   1.907  0.2365  0.0941  0.2864
  394W        W 1391   4.904   4.524   1.461  0.0205  0.0961  0.0077
  395W        W 1392   7.039   3.676   2.278  0.0017 -0.1725  0.1786
  396W        W 1393   6.923   1.149   4.304 -0.3787 -0.1044 -0.1393
  397W        W 1394   4.358   0.249   3.247  0.2888 -0.1014 -0.1783
  398W        W 1395   3.457   1.894   1.548 -0.2673 -0.1619  0.3669
  399W        W 1396   5.139   3.206   0.473 -0.2435  0.3189  0.1230
  400W        W 1397   6.798   3.660   0.633  0.1077 -0.1137 -0.0787
  401W        W 1398   4.264   4.345   1.121  0.0378  0.0932 -0.0690
  402W        W 1399   5.603   3.357   4.632 -0.1656  0.2911 -0.1178
  403W        W 1400   4.552   5.224   0.563 -0.2080  0.0630  0.0347
  404W        W 1401   2.094   1.727   2.950 -0.0385  0.0246 -0.1245
  405W        W 1402   1.096   3.553   0.325 -0.1541 -0.5051 -0.0632
  406W        W 1403   6.481   4.881   3.994 -0.1857  0.0001  0.0469
  407W        W 1404   3.451   5.794   4.184 -0.0200 -0.1830 -0.0610
  408W        W 1405   1.167   2.539   6.706 -0.3354 -0.1919 -0.3187
  409W        W 1406   3.167   4.376   5.931  0.0232 -0.1218 -0.3510
  410W        W 1407   5.361   1.619   5.353  0.3167  0.0281 -0.1036
  411W        W 1408   6.819   2.778   2.250  0.1381 -0.0666  0.0744
  412W        W 1409   1.317   3.555   2.190 -0.3802  0.3147 -0.2072
  413W        W 1410   5.062   5.762   3.750 -0.1376 -0.1523 -0.0289
  414W        W 1411   1.583   3.787   3.290  0.3115  0.0173 -0.1102
  415W        W 1412   3.452   0.007   3.030 -0.1871 -0.1539  0.2711
  416W        W 1413   1.435   2.440   3.006  0.2220  0.2390 -0.0339
  417W        W 1414   5.041   3.655   1.195  0.0996 -0.0107 -0.2570
  418W        W 1415   4.216   2.769   5.469  0.1013  0.0286 -0.2377
  419W        W 1416   4.599   5.278   2.055  0.3977  0.3504  0.0707
  420W        W 1417   1.803   5.136   1.267 -0.1038  0.0599 -0.1229
  421W        W 1418   7.512   4.969   1.790 -0.3168 -0.4681 -0.0778
  422W        W 1419   3.978   1.504   5.307  0.2029  0.2473  0.0640
  423W        W 1420   5.035   6.856   4.295  0.1089  0.0469  0.2022
  424W        W 1421   1.838   0.447   1.361 -0.0303  0.1223  0.0657
  425W        W 1422   1.588   0.850   7.199  0.5418 -0.1362 -0.3874
  426W        W 1423   3.617   1.339   6.006  0.2573  0.1285  0.2862
  427W        W 1424   2.555   7.634   5.747  0.2587 -0.1851 -0.4806
  428W        W 1425   6.627   0.321   0.415  0.1480  0.1833  0.2201
  429W        W 1426   5.739   4.806   0.794 -0.2458  0.2072 -0.0516
  430W        W 1427   2.368   7.247   6.592  0.1416 -0.0336 -0.0605
  431W        W 1428   2.215   5.623   4.326 -0.0964 -0.2263 -0.5122
  432W        W 1429   2.223   7.134   4.522 -0.2249 -0.1033 -0.0025
  433W        W 1430   1.267   1.531   5.746  0.0863  0.1192  0.0895
  434W        W 1431   1.264   0.204   5.178 -0.0093  0.1016 -0.0096
  435W        W 1432   4.414   3.848   2.737 -0.1763 -0.0972 -0.2875
  436W        W 1433   3.878   6.147   6.188  0.2668 -0.3897 -0.0576
  437W        W 1434   2.967   7.551   2.044 -0.0694  0.0933  0.1243
  438W        W 1435   4.514   0.173   2.663  0.0518 -0.0759 -0.1045
  439W        W 1436   4.317   1.069   3.724  0.2398  0.1382  0.2003
  440W        W 1437   4.166   4.698   3.692 -0.4425 -0.2771 -0.1874
  441W        W 1438   4.627   3.853   4.712 -0.0261 -0.3405  0.1110
  442W        W 1439   3.083   1.393   5.585  0.0171 -0.0882 -0.5183
  443W        W 1440   1.609   2.231   4.953 -0.3848  0.0158  0.0567
  444W        W 1441   5.179   4.607   6.514  0.0320 -0.1973  0.0759
  445W        W 1442   4.231   1.377   6.894  0.1073 -0.0589 -0.0938
  446W        W 1443   4.912   3.317   4.059 -0.2508  0.0617  0.1191
  447W        W 1444   2.600   0.595   5.105  0.1729  0.1836  0.1294
  448W        W 1445   7.103   4.685   2.493  0.0826  0.3010 -0.1590
  449W        W 1446   6.666   0.384   0.929  0.1057  0.0829 -0.3111
  450W        W 1447   0.924   0.964   0.407 -0.1201 -0.1325  0.2639
  451W        W 1448   5.470   0.981   4.960 -0.1285 -0.1348  0.1561
  452W        W 1449   2.845   3.149   2.159  0.1945  0.1458  0.0828
  453W        W 1450   2.555   7.306   1.547 -0.2304 -0.2362 -0.1944
  454W        W 1451   4.698   2.698   5.746  0.2002  0.0644 -0.1117
  455W        W 1452   2.608   4.219   5.246  0.2965  0.1012 -0.0465
  456W        W 1453   4.023   2.711   1.129 -0.1544  0.1278 -0.0006
  457W        W 1454   3.780   5.768   2.750  0.0180 -0.2436 -0.2663
  458W        W 1455   5.268   4.208   6.011 -0.0445 -0.0599 -0.0629
  459W        W 1456   5.292   1.115   4.425 -0.1646 -0.3334 -0.1367
  460W        W 1457   1.522   3.172   0.008  0.0922 -0.1533 -0.2219
  461W        W 1458   4.718   5.956   6.588 -0.1169 -0.0092 -0.2588
  462W        W 1459   5.351   5.681   0.290 -0.3784 -0.1009  0.1535
  463W        W 1460   1.484   3.033   6.784  0.2556 -0.2547 -0.0645
  464W        W 1461   4.438   0.236   1.966 -0.3070 -0.1411  0.0871
  465W        W 1462   0.574   6.113   1.464 -0.0683  0.0540 -0.1147
  466W        W 1463   0.755   5.030   2.383 -0.0265  0.2728  0.0239
  467W        W 1464   5.082   7.163   2.013 -0.2730  0.2826  0.0699
  468W        W 1465   7.629   4.645   2.470 -0.0833 -0.0515 -0.3768
  469W        W 1466   3.647   2.567   3.175 -0.0895  0.1455  0.0673
  470W        W 1467   4.654   3.737   0.442 -0.0331 -0.2866 -0.0031
  471W        W 1468   5.228   5.862   3.169 -0.1293 -0.0257  0.0407
  472W        W 1469   1.238   6.961   7.469 -0.0165 -0.2653  0.2775
  473W        W 1470   1.586   0.675   2.150  0.1028 -0.2815 -0.1867
  474W        W 1471   4.991   6.168   4.980 -0.2417 -0.0564 -0.2907
  475W        W 1472   4.198   7.662   5.679 -0.1452  0.1204  0.0385
  476W        W 1473   0.834   6.430   5.891  0.0328  0.0734 -0.1214
  477W        W 1474   3.935   0.863   5.918 -0.0120  0.0442  0.0419
  478W        W 1475   4.116   7.471   0.536 -0.3546  0.0304 -0.1831
  479W        W 1476   5.430   1.950   3.519 -0.0326  0.0397  0.1024
  480W        W 1477   3.881   3.916   1.930 -0.2577  0.0569  0.1679
  481W        W 1478   6.113   4.405   0.831  0.1999  0.1680 -0.2553
  482W        W 1479   6.512   0.037   6.697 -0.1755 -0.1818 -0.1498
  483W        W 1480   5.281   0.405   6.375  0.0691  0.1674 -0.2574
  484W        W 1481   6.043   7.520   5.659  0.0265  0.0183 -0.1386
  485W        W 1482   1.129   2.719   4.386  0.0057  0.0703  0.0671
  486W        W 1483   3.095   1.990   3.594  0.0335 -0.1553 -0.2046
  487W        W 1484   1.660   1.176   5.909  0.1751  0.0293 -0.2231
  488W        W 1485   0.706   3.018   4.141 -0.1198  0.5093 -0.0659
  489W        W 1486   5.215   1.733   3.139 -0.2775 -0.1030  0.2285
  490W        W 1487   3.423   1.696   0.473  0.2444  0.0593 -0.0728
  491W        W 1488   6.441   4.581   3.150  0.2401 -0.0026  0.1596
  492W        W 1489   5.413   4.543   3.676 -0.0284 -0.0494 -0.6206
  493W        W 1490   4.429   6.942   2.886 -0.0588  0.4510 -0.2304
  494W        W 1491   6.132   4.979   2.167 -0.0938 -0.1174  0.0020
  495W        W 1492   1.757   5.619   1.508  0.0339 -0.0715 -0.2899
  496W        W 1493   5.597   3.867   1.386  0.0573  0.3891  0.1535
  497W        W 1494   0.311   1.051   5.753 -0.2718 -0.1084 -0.2094
  498W        W 1495   5.326   3.483   3.544  0.3759 -0.3704  0.0407
  499W        W 1496   6.546   2.549   7.561  0.1115 -0.0690  0.0262
  500W        W 1497   0.054   2.635   0.508  0.1191 -0.0778  0.3189
  501W        W 1498   5.681   3.280   2.242 -0.0557 -0.2257 -0.1693
  502W        W 1499   3.328   2.574   6.864  0.0376 -0.1610 -0.0439
  503W        W 1500   1.155   2.965   1.830 -0.0804  0.0825 -0.0455
  504W        W 1501   2.899   2.077   6.120 -0.1923 -0.0178  0.0215
  505W        W 1502   1.430   5.860   6.039 -0.2069 -0.1386  0.2707
  506W        W 1503   1.558   6.171   6.476  0.0962 -0.0979  0.0805
  507W        W 1504   5.437   7.568   1.019 -0.2184  0.2532 -0.1341
  508W        W 1505   3.239   6.124   0.068  0.4137  0.0667 -0.3610
  509W        W 1506   6.644   3.093   5.035 -0.0531  0.2343  0.2766
  510W        W 1507   1.434   1.891   5.489  0.0934 -0.1667 -0.2187
  511W        W 1508   1.756   6.931   2.306  0.1793 -0.1341  0.0268
  512W        W 1509   2.248   3.620   5.766 -0.0324 -0.0218  0.0110
  513W        W 1510   0.311   3.595   6.908  0.0127 -0.1948 -0.0426
  514W        W 1511   7.164   4.044   1.836  0.0347 -0.0114  0.1002
  515W        W 1512   0.981   2.704   5.738 -0.2632  0.0463 -0.0047
  516W        W 1513   4.637   5.671   2.786  0.0351  0.0319 -0.3518
  517W        W 1514   3.885   6.863   1.226 -0.1922 -0.2802  0.3504
  518W        W 1515   1.157   7.061   4.879  0.1221  0.1083  0.1365
  519W        W 1516   1.914   4.501   4.253  0.1807 -0.2754  0.0103
  520W        W 1517   4.162   1.719   4.289 -0.0033  0.1413 -0.0708
  521W        W 1518   6.849   3.262   2.463 -0.1351  0.1265 -0.1957
  522W        W 1519   0.500   4.037   3.972  0.2101 -0.1587  0.1019
  523W        W 1520   2.761   2.022   7.495 -0.0591 -0.2658  0.0114
  524W        W 1521   1.518   0.179   0.845  0.1388  0.2843  0.0855
  525W        W 1522   5.013   3.150   3.323  0.2980 -0.0395  0.0431
  526W        W 1523   5.973   1.861   3.458  0.1643 -0.0177 -0.0153
  527W        W 1524   0.069   3.846   1.125 -0.3275  0.0927 -0.0944
  528W        W 1525   6.060   0.565   6.819 -0.1007 -0.1477 -0.0155
  529W        W 1526   1.328   3.624   4.293  0.1658  0.5236  0.1699
  530W        W 1527   3.222   0.837   4.166 -0.0308  0.3203  0.0348
  531W        W 1528   0.264   0.208   5.329 -0.0081  0.0025 -0.3626
  532W        W 1529   1.808   5.352   6.616  0.0897  0.0348 -0.1619
  533W        W 1530   4.264   1.295   7.589 -0.2139  0.1329 -0.0444
  534W        W 1531   0.872   1.734   6.122  0.0814  0.0214 -0.0531
  535W        W 1532   3.186   0.111   4.712 -0.3737 -0.2173  0.0937
  536W        W 1533   5.493   7.437   6.964 -0.1363 -0.2347  0.0033
  537W        W 1534   1.338   1.078   3.775 -0.3832  0.1049  0.1038
  538W        W 1535   3.525   0.562   3.839 -0.0648  0.2442 -0.1469
  539W        W 1536   1.069   2.433   6.258  0.2320  0.1114 -0.2946
  540W        W 1537   0.223   6.342   0.485  0.1567 -0.0515 -0.0139
  541W        W 1538   2.025   4.933   5.194 -0.2524 -0.0209 -0.0273
  542W        W 1539   4.701   4.913   0.066 -0.0490  0.1729 -0.0301
  543W        W 1540   1.280   5.113   2.652 -0.3138 -0.4165  0.2538
  544W        W 1541   3.669   5.992   4.639 -0.1891 -0.0709 -0.2232
  545W        W 1542   4.901   5.168   4.889  0.1463  0.1987  0.0597
  546W        W 1543   6.148   1.389   6.131  0.0270 -0.1647  0.0131
  547W        W 1544   4.971   4.147   0.610  0.0636  0.0363  0.4093
  548W        W 1545   2.558   2.497   7.552  0.1931  0.0969 -0.1136
  549W        W 1546   1.148   0.255   3.729  0.1991  0.1636 -0.0522
  550W        W 1547   2.571   2.063   6.551 -0.0181  0.1880  0.1460
  551W        W 1548   4.193   3.669   3.751  0.0997 -0.1440 -0.0277
  552W        W 1549   2.346   3.438   7.137  0.5081 -0.1438  0.0998
  553W        W 1550   7.179   7.439   6.687  0.1640 -0.1840 -0.1728
  554W        W 1551   4.280   0.885   7.148 -0.0159 -0.1255  0.0461
  555W        W 1552   4.970   5.025   3.258  0.1018 -0.0196  0.2504
  556W        W 1553   0.434   2.391   0.657  0.1804  0.0269  0.0162
  557W        W 1554   4.280   0.515   4.516  0.0979 -0.1339  0.1896
  558W        W 1555   2.275   3.604   0.474 -0.0716 -0.2017 -0.1803
  559W        W 1556   2.172   3.973   7.015  0.0098  0.0703 -0.0046
  560W        W 1557   1.875   4.414   1.979  0.0519  0.3581  0.3320
  561W        W 1558   1.558   5.338   0.441  0.4982 -0.0219  0.2333
  562W        W 1559   4.915   6.268   3.402 -0.1407  0.3130  0.4767
  563W        W 1560   4.103   1.021   2.690  0.1507 -0.0539  0.2507
  564W        W 1561   5.595   3.704   3.099 -0.0182 -0.0802  0.3367
  565W        W 1562   4.765   1.947   4.725  0.3363  0.1638 -0.0847
  566W        W 1563   5.990   5.196   4.163  0.0606 -0.2231 -0.2127
  567W        W 1564   4.863   4.339   2.423  0.1585  0.1463 -0.1124
  568W        W 1565   5.048   2.249   0.603 -0.0665  0.0087  0.1911
  569W        W 1566   2.931   5.164   2.100 -0.0930  0.0638 -0.1828
  570W        W 1567   0.654   1.958   0.606 -0.0218 -0.1045  0.1337
  571W        W 1568   7.520   5.543   3.177  0.2070 -0.2281  0.1049
  572W        W 1569   2.474   3.821   2.949 -0.2464  0.1185 -0.4302
  573W        W 1570   0.577   6.762   3.033  0.0927 -0.1831  0.2706
  574W        W 1571   3.577   6.995   7.658 -0.0488 -0.1312  0.1977
  575W        W 1572   4.522   4.773   6.592  0.1900 -0.2852 -0.0627
  576W        W 1573   1.595   0.307   5.511  0.0864  0.1369  0.0067
  577W        W 1574   3.162   4.859   2.428  0.0306  0.0938 -0.2666
  578W        W 1575   7.471   1.897   1.007 -0.1885 -0.1635 -0.1708
  579W        W 1576   4.425   6.653   1.004 -0.0032  0.2834  0.2054
  580W        W 1577   1.463   4.811   3.081  0.1413 -0.0967 -0.1408
  581W        W 1578   3.139   2.199   7.218  0.1964 -0.2207  0.2610
  582W        W 1579   1.297   0.528   6.392 -0.1248 -0.1284 -0.1321
  583W        W 1580   5.839   0.621   2.683  0.1460  0.2287 -0.1895
  584W        W 1581   6.700   3.732   3.985  0.0287  0.1913 -0.0860
  585W        W 1582   2.389   6.674   3.612  0.0237 -0.4098 -0.0718
  586W        W 1583   7.338   5.034   0.884  0.0718 -0.3452 -0.0536
  587W        W 1584   6.973   2.233   5.464  0.0632  0.0854 -0.0864
  588W        W 1585   3.416   4.486   4.686 -0.2177 -0.0335  0.2260
  589W        W 1586   2.305   3.459   7.648 -0.0130  0.0022  0.1577
  590W        W 1587   5.880   0.069   6.958  0.0581 -0.1809  0.0798
  591W        W 1588   6.635   1.023   4.736  0.0957 -0.1268  0.0210
  592W        W 1589   2.530   2.416   1.159 -0.1971 -0.0023  0.0978
  593W        W 1590   3.690   6.997   0.750 -0.2473 -0.0602 -0.0307
  594W        W 1591   6.855   0.907   5.261 -0.1523 -0.0271 -0.0298
  595W        W 1592   7.522   1.203   6.764 -0.0728 -0.0797  0.2580
  596W        W 1593   0.878   6.759   4.046  0.2630  0.0209  0.0369
  597W        W 1594   1.456   2.298   0.473 -0.0209 -0.0753  0.3285
  598W        W 1595   0.094   4.534   2.930 -0.3098  0.0962 -0.0340
  599W        W 1596   2.526   4.269   7.618 -0.1756 -0.1872  0.2081
  600W        W 1597   1.924   2.567   3.019 -0.0601  0.3004  0.2965
  601W        W 1598   5.550   4.419   4.173 -0.0120 -0.0427 -0.3556
  602W        W 1599   2.850   1.281   1.055  0.1753  0.1110 -0.0420
  603W        W 1600   5.469   2.805   7.488 -0.1156 -0.0452 -0.2432
  604W        W 1601   4.645   1.957   0.778  0.0582 -0.1890  0.1334
  605W        W 1602   2.785   1.397   1.833 -0.3729 -0.1532  0.0640
  606W        W 1603   5.172   3.452   4.924  0.3226  0.2776  0.0811
  607W        W 1604   3.833   0.272   2.048  0.1541  0.0828  0.0945
  608W        W 1605   3.039   2.628   4.994  0.2053 -0.0126 -0.0230
  609W        W 1606   3.666   2.512   7.249 -0.0961  0.1582  0.0135
  610W        W 1607   0.242   5.026   2.569 -0.0289  0.1953 -0.0900
  611W        W 1608   7.184   2.650   7.043  0.0459  0.1847  0.0642
  612W        W 1609   5.633   1.147   3.709  0.3316  0.2116  0.1500
  613W        W 1610   3.373   0.512   0.558  0.0015 -0.1350 -0.4208
  614W        W 1611   6.038   3.387   1.292 -0.1353 -0.0057  0.1357
  615W        W 1612   6.499   0.435   5.616 -0.1262  0.0507  0.2868
  616W        W 1613   4.599   4.468   3.841 -0.1044 -0.1038  0.0523
  617W        W 1614   5.732   0.831   3.264 -0.0155 -0.0453 -0.2006
  618W        W 1615   6.373   7.628   0.014  0.0121 -0.1413 -0.1394
  619W        W 1616   1.318   1.529   0.062  0.0113 -0.2855 -0.2105
  620W        W 1617   7.031   1.090   0.974  0.0742 -0.0380  0.0623
  621W        W 1618   2.938   0.533   4.475 -0.0487  0.3041  0.1286
  622W        W 1619   1.751   0.695   0.142 -0.0213 -0.1421  0.0527
  623W        W 1620   1.089   1.399   5.296  0.0623  0.0328 -0.0154
  624W        W 1621   6.225   0.918   6.061  0.2286  0.1095  0.0818
  625W        W 1622   4.355   7.218   0.199 -0.2030 -0.2690  0.5559
  626W        W 1623   6.669   4.162   1.687 -0.1596  0.0156  0.1700
  627W        W 1624   3.348   5.455   0.833  0.2035  0.0898  0.0401
  628W        W 1625   2.463   0.477   5.586  0.0930 -0.2481  0.1131
  629W        W 1626   4.861   7.365   6.894 -0.0420  0.2900 -0.0341
  630W        W 1627   1.014   2.912   6.996 -0.0082 -0.3193  0.2046
  631W        W 1628   6.566   1.984   5.620  0.1192 -0.0735 -0.2919
  632W        W 1629   2.204   1.292   4.127  0.2420 -0.0152  0.2060
  633W        W 1630   7.050   2.296   4.285  0.1533  0.0788  0.0263
  634W        W 1631   2.523   4.754   6.427 -0.1791  0.0506  0.0185
  635W        W 1632   5.958   2.283   2.615  0.0658 -0.3878  0.0761
  636W        W 1633   2.624   5.976   4.361 -0.3373  0.0344 -0.0197
  637W        W 1634   3.499   6.610   4.400  0.2790  0.2582 -0.1167
  638W        W 1635   3.920   5.445   1.988  0.1155 -0.1343  0.0869
  639W        W 1636   3.666   3.587   7.663 -0.0025  0.1566  0.0915
  640W        W 1637   7.482   7.218   5.486  0.2675 -0.0445  0.0402
  641W        W 1638   6.422   1.877   1.944 -0.1689 -0.1494 -0.1036
  642W        W 1639   5.185   3.885   1.744  0.1252 -0.0572  0.1316
  643W        W 1640   5.602   0.176   2.675  0.4360 -0.1860 -0.0900
  644W        W 1641   0.617   1.375   1.042  0.1930  0.4080 -0.2637
  645W        W 1642   2.707   5.498   1.173  0.0483 -0.4090  0.1370
  646W        W 1643   0.600   6.371   4.422 -0.1217  0.3494  0.0514
  647W        W 1644   4.357   5.195   1.006  0.4124 -0.0342 -0.0844
  648W        W 1645   4.365   4.351   2.501 -0.0772 -0.2119 -0.0566
  649W        W 1646   3.055   5.650   7.218 -0.1518 -0.5366  0.1524
  650W        W 1647   1.655   2.064   1.348  0.1740 -0.0367  0.5446
  651W        W 1648   1.533   1.052   3.046  0.0186 -0.0821  0.0906
  652W        W 1649   3.104   3.346   7.124  0.2107  0.2614 -0.1106
  653W        W 1650   1.479   2.905   1.473 -0.2070  0.0449  0.4342
  654W        W 1651   4.291   1.551   2.601  0.2794  0.0163  0.3030
  655W        W 1652   4.689   2.874   6.553 -0.1458  0.3317  0.0175
  656W        W 1653   1.015   2.151   0.285 -0.0795  0.0017 -0.0559
  657W        W 1654   4.158   6.694   6.845  0.1468  0.0507 -0.0380
  658W        W 1655   0.199   4.336   1.234 -0.0168  0.0725  0.0715
  659W        W 1656   3.969   3.423   2.134 -0.1150  0.3560  0.0837
  660W        W 1657   1.148   1.985   3.183 -0.4235  0.1235  0.0667
  661W        W 1658   5.103   7.546   5.214 -0.3632  0.2825 -0.1380
  662W        W 1659   4.182   5.947   4.489 -0.1325  0.1980 -0.1916
  663W        W 1660   1.401   4.568   2.456  0.0351  0.0138 -0.2205
  664W        W 1661   6.710   2.683   7.033 -0.1449 -0.2780  0.2944
  665W        W 1662   3.909   1.918   2.854 -0.0492 -0.0438  0.5356
  666W        W 1663   6.266   2.377   5.864  0.3482 -0.1276  0.0977
  667W        W 1664   2.073   4.955   4.381  0.1780  0.0998 -0.2383
  668W        W 1665   7.318   4.577   2.065  0.0987  0.0853  0.1336
  669W        W 1666   0.885   3.676   2.722 -0.2721  0.0190  0.0651
  670W        W 1667   2.883   6.455   4.268 -0.0563 -0.0997  0.1359
  671W        W 1668   7.535   4.673   0.210 -0.1274  0.3635  0.2457
  672W        W 1669   3.611   4.525   2.252 -0.0998  0.0045  0.0052
  673W        W 1670   2.024   3.492   3.131  0.0750  0.0968 -0.0945
  674W        W 1671   3.151   3.739   1.580 -0.2620  0.1133 -0.1970
  675W        W 1672   2.161   0.158   2.340  0.0757  0.0501 -0.0119
  676W        W 1673   1.650   2.301   6.338 -0.1022  0.0386 -0.1761
  677W        W 1674   4.078   3.990   6.252  0.1593  0.1091 -0.0802
  678W        W 1675   7.518   0.157   6.570  0.1418 -0.1015  0.2269
  679W        W 1676   0.345   3.710   4.288 -0.1953  0.3570  0.0088
  680W        W 1677   4.664   0.124   1.272 -0.0045  0.1583  0.0681
  681W        W 1678   3.224   3.707   6.727  0.2707 -0.1999  0.0277
  682W        W 1679   0.886   0.448   3.383  0.0462 -0.3052 -0.0817
  683W        W 1680   7.588   7.204   6.462  0.0104  0.5148 -0.1130
  684W        W 1681   2.064   5.457   0.531  0.2616  0.3790 -0.0078
  685W        W 1682   0.328   0.187   0.333 -0.1158  0.0089 -0.0303
  686W        W 1683   3.228   3.530   5.986  0.0126 -0.1785  0.0295
  687W        W 1684   3.205   5.569   5.013 -0.2353 -0.2830 -0.1005
  688W        W 1685   1.250   6.662   0.987 -0.0040  0.1346 -0.0184
  689W        W 1686   1.244   5.600   3.533 -0.0004 -0.1867  0.0498
  690W        W 1687   7.463   0.270   7.620  0.1901 -0.2747  0.0373
  691W        W 1688   3.181   0.380   3.225  0.3315  0.0002 -0.2344
  692W        W 1689   4.173   5.177   5.332 -0.1408  0.0769 -0.0210
  693W        W 1690   1.848   3.591   0.743  0.3175 -0.0984  0.1723
  694W        W 1691   4.556   5.619   4.323  0.1260 -0.1224 -0.2772
  695W        W 1692   5.368   1.920   5.902 -0.2836 -0.1094  0.0942
  696W        W 1693   6.130   0.246   5.263  0.1093 -0.0069 -0.3468
  697W        W 1694   1.198   0.561   2.390  0.2454  0.1277  0.0545
  698W        W 1695   5.040   4.807   3.733 -0.2193  0.1835  0.2146
  699W        W 1696   0.620   1.554   5.164  0.4769 -0.4967 -0.0911
  700W        W 1697   4.581   2.083   1.256  0.1750  0.2387  0.2033
  701W        W 1698   0.421   3.304   3.868  0.0150  0.2601  0.1199
  702W        W 1699   3.781   6.426   1.976  0.0279 -0.1723 -0.0019
  703W        W 1700   6.070   0.363   5.835 -0.2628  0.2971  0.0094
  704W        W 1701   2.927   1.645   2.843  0.1675 -0.3047  0.1160
  705W        W 1702   4.419   3.123   4.136  0.0933 -0.0123 -0.2049
  706W        W 1703   3.297   7.206   2.814 -0.2343 -0.0683 -0.0629
  707W        W 1704   3.047   7.281   1.427 -0.0855  0.0471  0.2385
  708W        W 1705   4.442   5.263   2.523 -0.0116  0.1954 -0.2059
  709W        W 1706   1.122   0.058   2.570  0.0736 -0.0069 -0.1411
  710W        W 1707   6.261   0.931   2.593  0.1026 -0.1603  0.0068
  711W        W 1708   6.031   3.943   1.123 -0.0419  0.1288 -0.2248
  712W        W 1709   5.143   1.038   2.360 -0.0227 -0.1901  0.2390
  713W        W 1710   4.140   5.606   3.677  0.0637 -0.1074 -0.0878
  714W        W 1711   1.937   3.848   2.745  0.0221 -0.4059 -0.4571
  715W        W 1712   4.791   4.513   5.747 -0.3464  0.1185  0.2073
  716W        W 1713   4.110   1.933   0.651  0.0486 -0.1426 -0.0783
  717W        W 1714   2.471   7.367   3.227  0.1738 -0.0857 -0.0082
  718W        W 1715   7.221   0.342   2.606  0.2236  0.0009 -0.0161
  719W        W 1716   7.390   0.905   0.582  0.0515 -0.2421  0.0982
  720W        W 1717   4.389   6.408   3.154 -0.1679 -0.0411 -0.0192
  721W        W 1718   7.356   4.322   0.994  0.0486  0.2130 -0.0283
  722W        W 1719   5.387   5.169   0.867  0.1020  0.0433  0.3299
  723W        W 1720   5.264   1.988   6.364  0.0870  0.2121 -0.0899
  724W        W 1721   1.705   7.118   4.241  0.2489  0.0598 -0.1578
  725W        W 1722   1.864   2.028   2.630  0.2190  0.0585  0.0377
  726W        W 1723   3.488   1.677   3.551 -0.0076 -0.1186  0.0898
  727W        W 1724   4.736   6.962   1.747 -0.2376 -0.2746  0.1413
  728W        W 1725   6.727   1.204   7.010  0.0279  0.1440 -0.0084
  729W        W 1726   4.933   6.308   5.481  0.1208 -0.2095 -0.1971
  730W        W 1727   5.306   1.470   4.893 -0.2042 -0.1629 -0.0076
  731W        W 1728   7.198   1.605   0.062 -0.0908  0.0145  0.1123
  732W        W 1729   0.500   1.984   7.276  0.1024 -0.0340  0.1329
  733W        W 1730   6.101   2.872   2.812 -0.2923  0.0574 -0.1145
  734W        W 1731   0.194   0.725   5.259 -0.2642 -0.1527 -0.1527
  735W        W 1732   0.900   5.437   2.673  0.1115 -0.0913 -0.0124
  736W        W 1733   1.035   5.395   1.709 -0.0020  0.1660  0.1393
  737W        W 1734   1.838   3.495   0.251 -0.1210 -0.1536  0.0542
  738W        W 1735   1.781   7.530   5.869 -0.0943  0.1579 -0.2378
  739W        W 1736   3.500   5.312   2.896  0.4008 -0.1471  0.0093
  740W        W 1737   2.568   6.848   5.574  0.3700  0.2155  0.1874
  741W        W 1738   4.724   7.186   5.008 -0.0038 -0.2778  0.4012
  742W        W 1739   2.114   6.623   0.552 -0.1234  0.0923  0.0309
  743W        W 1740   1.291   0.951   6.775  0.3146 -0.4448 -0.0082
  744W        W 1741   6.001   1.611   4.235  0.0032 -0.0677 -0.1014
  745W        W 1742   5.696   0.817   2.309  0.1254 -0.0589 -0.0069
  746W        W 1743   2.691   1.544   6.606 -0.1527  0.2887  0.0261
  747W        W 1744   3.937   3.620   2.938  0.0188 -0.2205  0.0706
  748W        W 1745   4.866   4.736   5.283 -0.0391  0.0558  0.1229
  749W        W 1746   2.156   2.896   4.439 -0.1211  0.2018  0.1447
  750W        W 1747   7.036   1.635   3.620 -0.1958 -0.0745  0.0523
  751W        W 1748   0.842   0.583   5.153  0.0545 -0.3915  0.2458
  752W        W 1749   2.729   3.538   6.857 -0.2151 -0.0841 -0.1033
  753W        W 1750   3.492   4.146   5.110  0.0021 -0.0552  0.1634
  754W        W 1751   4.692   6.914   0.477  0.1621  0.0352  0.3754
  755W        W 1752   6.163   2.275   0.244 -0.2053  0.2472  0.0434
  756W        W 1753   5.865   1.139   2.842 -0.2754 -0.1563  0.0169
  757W        W 1754   2.586   1.371   5.591  0.1250 -0.3112  0.0236
  758W        W 1755   4.363   3.917   6.997  0.2162  0.1395  0.1625
  759W        W 1756   2.330   1.462   1.984  0.0754  0.2215  0.2240
  760W        W 1757   3.486   4.282   0.545  0.2725 -0.3669  0.1655
  761W        W 1758   4.283   1.644   3.134  0.2004 -0.1970 -0.2166
  762W        W 1759   2.067   0.858   6.150 -0.0792  0.0496  0.0014
  763W        W 1760   0.843   1.718   0.117 -0.3749 -0.2008 -0.2137
  764W        W 1761   0.877   3.352   0.695 -0.3786  0.0918 -0.1170
  765W        W 1762   6.099   2.114   4.203  0.1622  0.0787 -0.1802
  766W        W 1763   4.691   7.307   7.353  0.0612  0.1106 -0.0129
  767W        W 1764   3.587   7.308   1.368 -0.0961  0.0371 -0.1890
  768W        W 1765   4.818   6.449   0.244 -0.0121  0.2925 -0.0033
  769W        W 1766   0.324   5.970   2.698  0.0277  0.2814 -0.1394
  770W        W 1767   4.177   3.493   1.628 -0.0862 -0.0441  0.0287
  771W        W 1768   3.957   6.980   2.039 -0.0028  0.2851  0.0827
  772W        W 1769   4.175   5.665   2.401 -0.0733 -0.1407 -0.0380
  773W        W 1770   0.457   3.047   4.933  0.0484  0.0660 -0.2232
  774W        W 1771   3.380   6.440   6.876 -0.0835  0.0900 -0.2540
  775W        W 1772   2.455   1.210   6.320 -0.0932 -0.2331 -0.1890
  776W        W 1773   4.359   3.737   2.186 -0.1334  0.2404  0.0133
  777W        W 1774   4.062   6.560   3.593  0.0574 -0.0069  0.0623
  778W        W 1775   3.272   7.201   0.344 -0.0822 -0.0603 -0.3058
  779W        W 1776   5.454   0.231   7.257 -0.1549  0.0531  0.1829
  780W        W 1777   6.978   2.899   6.606 -0.2671  0.0704 -0.1907
  781W        W 1778   4.749   0.872   1.941 -0.2985 -0.0720 -0.1288
  782W        W 1779   1.717   3.402   2.706 -0.0840 -0.0055  0.4070
  783W        W 1780   0.350   1.311   6.974  0.2092 -0.1070 -0.0594
  784W        W 1781   2.872   1.928   6.930 -0.1091 -0.2163  0.3311
  785W        W 1782   4.527   6.854   7.120 -0.0460 -0.1654 -0.0306
  786W        W 1783   7.512   0.697   4.771 -0.0653  0.1682 -0.1561
  787W        W 1784   1.381   5.949   0.970  0.0795 -0.2615  0.1218
  788W        W 1785   4.090   7.127   5.124  0.0961  0.2284 -0.2117
  789W        W 1786   4.905   0.122   7.186 -0.0850  0.1363 -0.0309
  790W        W 1787   2.747   4.746   0.665 -0.2010  0.3246 -0.1208
  791W        W 1788   6.658   0.951   0.219  0.1652  0.1324  0.4099
  792W        W 1789   0.222   3.181   2.870  0.1772 -0.0604  0.1860
  793W        W 1790   2.961   3.280   4.193 -0.1515 -0.0023  0.1915
  794W        W 1791   6.347   2.778   2.042  0.0416  0.2406  0.0286
  795W        W 1792   3.068   3.992   0.404 -0.2614  0.2024  0.0688
  796W        W 1793   3.656   7.486   0.444  0.3847  0.0180 -0.1922
  797W        W 1794   5.316   6.199   2.813 -0.2689 -0.0639 -0.3655
  798W        W 1795   4.677   6.950   3.916  0.2437 -0.1994  0.0383
  799W        W 1796   5.140   4.066   6.480  0.0341  0.0220  0.0056
  800W        W 1797   5.477   2.615   1.164 -0.0719  0.1587 -0.1097
  801W        W 1798   1.570   0.985   2.551  0.0941 -0.2102 -0.5122
  802W        W 1799   4.765   1.361   0.082  0.2825 -0.0614 -0.1823
  803W        W 1800   5.958   2.929   6.640 -0.1435 -0.1658  0.0371
  804W        W 1801   1.524   6.547   7.375 -0.0396 -0.1798  0.0305
  805W        W 1802   2.131   3.625   1.882 -0.1753  0.4426  0.0200
  806W        W 1803   3.704   5.394   5.094 -0.0736 -0.3225 -0.1290
  807W        W 1804   6.569   0.448   7.613  0.2090  0.1865 -0.2087
  808W        W 1805   4.847   5.273   7.307  0.1058 -0.1557  0.1046
  809W        W 1806   4.265   4.791   0.809  0.0019 -0.0306 -0.2825
  810W        W 1807   5.303   2.830   5.761  0.1133  0.2296 -0.0803
  811W        W 1808   1.557   0.754   0.934 -0.3297 -0.1935  0.3129
  812W        W 1809   1.684   1.412   6.824  0.1142 -0.1409  0.0588
  813W        W 1810   5.887   1.277   5.082 -0.2665  0.3269 -0.2297
  814W        W 1811   2.053   4.153   3.828 -0.0428 -0.1335 -0.1371
  815W        W 1812   0.751   5.775   3.052  0.0281 -0.0902  0.0728
  816W        W 1813   5.915   4.241   4.465 -0.1991  0.1810  0.1616
  817W        W 1814   6.749   3.107   0.658 -0.0860  0.0814  0.0458
  818W        W 1815   1.901   7.475   3.221 -0.0159 -0.1535  0.0163
  819W        W 1816   1.262   1.438   0.533  0.0992  0.2050 -0.1069
  820W        W 1817   6.787   4.668   1.570  0.1052 -0.0977  0.1073
  821W        W 1818   0.591   4.545   3.127  0.1115 -0.1357  0.2450
  822W        W 1819   3.921   2.451   3.631  0.0277 -0.2561 -0.1579
  823W        W 1820   5.066   1.253   3.052 -0.4261 -0.0831 -0.1093
  824W        W 1821   3.407   4.055   1.300  0.0020  0.0725 -0.0792
  825W        W 1822   3.114   0.405   7.073  0.0534 -0.3183 -0.0405
  826W        W 1823   5.287   0.997   0.325 -0.0893 -0.1889  0.1253
  827W        W 1824   6.857   4.378   3.244  0.0365  0.0023  0.0724
  828W        W 1825   7.092   1.276   0.483  0.0358  0.1299  0.0568
  829W        W 1826   4.780   4.805   7.035  0.1737 -0.3204 -0.0064
  830W        W 1827   2.822   2.070   3.127  0.2085 -0.1952 -0.1854
  831W        W 1828   4.323   3.741   3.263  0.4650  0.1111  0.2179
  832W        W 1829   3.630   4.943   7.127 -0.0860  0.0301  0.2002
  833W        W 1830   4.468   2.697   1.419  0.2106 -0.0865  0.0693
  834W        W 1831   2.082   5.004   1.713 -0.1700  0.2155 -0.1183
  835W        W 1832   0.538   6.182   7.270  0.0849 -0.2492  0.0623
  836W        W 1833   6.843   0.697   4.247  0.2836  0.0395  0.2204
  837W        W 1834   3.006   4.224   7.458  0.0091  0.2658 -0.1207
  838W        W 1835   3.181   3.575   2.348 -0.0436 -0.0219 -0.1618
  839W        W 1836   0.934   2.037   4.969 -0.0439  0.1070 -0.0865
  840W        W 1837   4.047   4.118   0.146 -0.1587  0.1367  0.0527
  841W        W 1838   0.090   6.684   6.336  0.2362 -0.0888 -0.2497
  842W        W 1839   1.858   5.786   6.334  0.0289  0.0701  0.0072
  843W        W 1840   4.537   0.631   2.873 -0.1844 -0.1130 -0.1750
  844W        W 1841   3.845   1.212   7.107 -0.0612  0.0100  0.1219
  845W        W 1842   0.738   7.626   3.704 -0.1682  0.1827  0.0262
  846W        W 1843   5.112   0.142   0.005 -0.0355  0.4533  0.2742
  847W        W 1844   3.311   0.930   1.123  0.0768 -0.0875  0.2398
  848W        W 1845   1.558   3.244   1.898 -0.0586 -0.2328 -0.1308
  849W        W 1846   0.722   7.311   3.337 -0.1043 -0.0491  0.2521
  850W        W 1847   3.866   4.153   5.543 -0.0926  0.0446  0.1677
  851W        W 1848   4.348   5.805   6.086 -0.1340 -0.2320 -0.3895
  852W        W 1849   5.208   5.392   3.455 -0.1095 -0.1539  0.1014
  853W        W 1850   1.307   6.350   6.075  0.1129 -0.5003 -0.4389
  854W        W 1851   2.342   4.371   3.259 -0.1436  0.1965 -0.1251
  855W        W 1852   5.084   6.239   3.932 -0.1082  0.3966 -0.1024
  856W        W 1853   7.099   0.962   2.311 -0.0618 -0.0050 -0.1194
  857W        W 1854   6.564   1.431   6.554  0.0140  0.2859  0.1765
  858W        W 1855   4.630   7.218   6.479  0.0562  0.2374  0.1492
  859W        W 1856   7.111   2.453   1.267  0.5371  0.2156  0.2364
  860W        W 1857   5.608   7.521   6.480 -0.1189  0.3098  0.0712
  861W        W 1858   5.117   4.783   4.254  0.0639  0.2837 -0.0577
  862W        W 1859   1.573   1.625   2.338 -0.0951 -0.0571  0.1679
  863W        W 1860   2.226   0.242   3.370  0.1939 -0.0379 -0.0487
  864W        W 1861   0.267   1.509   6.544  0.0769  0.3303 -0.0342
  865W        W 1862   0.173   0.901   2.198  0.0361  0.0154 -0.1014
  866W        W 1863   1.912   2.829   5.352  0.1197  0.3546  0.2713
  867W        W 1864   4.180   0.009   2.382  0.0250 -0.3759 -0.1775
  868W        W 1865   7.278   3.787   0.340 -0.2544  0.0424  0.0026
  869W        W 1866   2.269   2.523   6.582  0.2231 -0.1558 -0.1481
  870W        W 1867   2.481   7.065   6.126  0.1741 -0.1177  0.0283
  871W        W 1868   0.458   3.234   7.562  0.3635 -0.1014  0.1661
  872W        W 1869   4.872   0.243   3.019 -0.0637 -0.1968  0.1208
  873W        W 1870   3.184   7.024   3.537  0.0300 -0.0062 -0.0352
  874W        W 1871   5.651   0.143   1.457 -0.2152  0.2045  0.4349
  875W        W 1872   5.740   1.072   0.052  0.0067  0.1329  0.2664
  876W        W 1873   3.542   5.541   2.409 -0.0613 -0.1006 -0.0673
  877W        W 1874   0.545   4.250   7.571 -0.1726 -0.4183  0.1004
  878W        W 1875   0.762   0.173   5.374  0.3119 -0.0541  0.0635
  879W        W 1876   5.019   5.480   1.779 -0.0344 -0.0705 -0.2202
  880W        W 1877   5.292   4.805   1.688 -0.0528 -0.0684 -0.0826
  881W        W 1878   4.774   4.429   6.323  0.1816  0.0902  0.2592
  882W        W 1879   6.040   4.425   2.195 -0.0801  0.3826 -0.0381
  883W        W 1880   6.833   4.523   2.101  0.0093 -0.0030 -0.3914
  884W        W 1881   4.149   1.073   4.987  0.1051 -0.1432 -0.0334
  885W        W 1882   1.885   3.912   4.256 -0.0034  0.1571 -0.1935
  886W        W 1883   2.380   0.015   1.897  0.0299  0.2628  0.0329
  887W        W 1884   7.061   4.713   1.135  0.0459 -0.1901 -0.2539
  888W        W 1885   7.625   2.638   5.753 -0.1488  0.0959 -0.1605
  889W        W 1886   4.320   5.364   6.352  0.0078  0.0049  0.0553
  890W        W 1887   5.754   2.093   6.175 -0.0154 -0.1825 -0.0158
  891W        W 1888   2.125   0.455   7.492  0.2337 -0.2150  0.1924
  892W        W 1889   0.454   1.117   0.282  0.0953 -0.3841  0.0212
  893W        W 1890   1.930   0.604   5.764  0.1281  0.1991 -0.0627
  894W        W 1891   3.361   0.157   6.337 -0.2135  0.1412  0.0817
  895W        W 1892   2.841   5.569   5.366 -0.0635  0.0661  0.3054
  896W        W 1893   0.070   2.089   6.637  0.2790  0.1871 -0.2199
  897W        W 1894   6.340   4.926   4.507 -0.0809 -0.2572 -0.1628
  898W        W 1895   4.800   5.647   6.993  0.2634  0.1136  0.1071
  899W        W 1896   4.495   2.681   1.929 -0.0630 -0.2021  0.1343
  900W        W 1897   7.483   4.201   0.531 -0.3527 -0.0753 -0.1074
  901W        W 1898   1.389   2.066   4.181  0.1208  0.4568 -0.3883
  902W        W 1899   4.254   3.674   5.362 -0.3832 -0.1561  0.0100
  903W        W 1900   1.124   1.077   3.286  0.1498 -0.2411  0.0145
  904W        W 1901   3.834   3.099   3.051 -0.3057 -0.1381 -0.2093
  905W        W 1902   3.422   5.082   1.153  0.0858 -0.1245  0.1988
  906W        W 1903   3.704   1.652   6.580 -0.0448 -0.2644  0.1724
  907W        W 1904   2.002   3.091   1.613 -0.1209 -0.0159  0.0721
  908W        W 1905   4.878   5.061   0.936 -0.1777 -0.1128  0.0429
  909W        W 1906   4.289   6.652   0.311 -0.1772  0.1321 -0.1219
  910W        W 1907   7.177   2.664   0.436  0.0759  0.3103  0.1672
  911W        W 1908   2.261   5.089   1.185 -0.0565  0.0677 -0.2344
  912W        W 1909   3.753   7.023   4.288  0.0122  0.3308  0.2125
  913W        W 1910   6.013   2.482   1.215  0.0693 -0.1277  0.3417
  914W        W 1911   0.920   6.776   0.142 -0.5031  0.1376  0.2319
  915W        W 1912   2.096   6.743   7.076 -0.1273 -0.1170  0.1136
  916W        W 1913   5.541   5.121   2.976 -0.1913  0.0381  0.4680
  917W        W 1914   0.357   7.198   1.694  0.1740 -0.2198 -0.2612
  918W        W 1915   0.706   2.266   4.545 -0.1815 -0.0815 -0.1506
  919W        W 1916   2.928   6.298   2.554  0.1380  0.0071  0.2983
  920W        W 1917   1.987   0.391   1.924  0.5035  0.2476 -0.1581
  921W        W 1918   5.746   2.558   1.677  0.0565  0.3647  0.1944
  922W        W 1919   4.797   2.438   2.817 -0.0417  0.1632 -0.0007
  923W        W 1920   6.119   4.384   2.831  0.2432  0.0432 -0.1598
  924W        W 1921   7.448   3.171   3.921  0.2237 -0.0655  0.0028
  925W        W 1922   2.102   2.043   6.648 -0.0723 -0.1312  0.0400
  926W        W 1923   0.798   0.345   2.206 -0.2660  0.1792 -0.0189
  927W        W 1924   5.044   2.975   5.332 -0.1051  0.0605  0.2071
  928W        W 1925   3.212   2.076   4.817  0.1667  0.3447  0.2740
  929W        W 1926   1.636   0.159   2.269 -0.3389 -0.0316  0.2598
  930W        W 1927   1.198   6.543   0.535 -0.1202 -0.0608 -0.1097
  931W        W 1928   0.711   2.564   1.724  0.2379  0.0809  0.0489
  932W        W 1929   6.329   4.258   1.336  0.2542 -0.1375 -0.2429
  933W        W 1930   7.537   2.386   7.595  0.1174  0.1174  0.2707
  934W        W 1931   2.452   6.446   5.177  0.0884 -0.2220 -0.0249
  935W        W 1932   7.090   0.343   6.785 -0.0676  0.3837  0.1640
  936W        W 1933   5.907   4.865   3.792 -0.0600  0.3631  0.0125
  937W        W 1934   4.426   4.148   4.298 -0.0356 -0.1369 -0.1872
  938W        W 1935   3.081   4.292   3.712 -0.0559 -0.0904 -0.2916
  939W        W 1936   2.776   5.957   1.540 -0.1305 -0.1361 -0.0345
  940W        W 1937   4.445   6.650   5.678 -0.1726  0.2362 -0.4413
  941W        W 1938   2.096   3.102   5.678 -0.1120 -0.1685  0.0641
  942W        W 1939   1.162   5.309   3.094 -0.2189  0.1279 -0.1509
  943W        W 1940   3.248   4.491   2.699 -0.3466  0.0691  0.0560
  944W        W 1941   1.226   4.038   2.480 -0.0764  0.0545  0.1118
  945W        W 1942   3.787   1.022   1.970  0.0720  0.0605 -0.1403
  946W        W 1943   6.023   0.515   0.806  0.3424 -0.3861  0.1612
  947W        W 1944   3.607   0.688   3.316  0.0667 -0.0486  0.1148
  948W        W 1945   4.247   0.893   4.189  0.0336  0.0624  0.0732
  949W        W 1946   2.937   6.512   5.211  0.2278  0.0417  0.0820
  950W        W 1947   7.180   3.562   3.776  0.2473  0.0743  0.1158
  951W        W 1948   7.170   0.554   1.021  0.4856  0.1271  0.1558
  952W        W 1949   2.832   6.791   3.911  0.0399  0.0566 -0.1412
  953W        W 1950   4.859   3.030   4.875  0.0385 -0.3125  0.1446
  954W        W 1951   0.620   6.599   1.185 -0.0103  0.0778  0.0081
  955W        W 1952   7.276   2.206   2.023  0.1071 -0.0853  0.0724
  956W        W 1953   5.255   0.998   3.449  0.2040 -0.1454  0.0947
  957W        W 1954   1.615   0.967   6.364  0.1745  0.4452 -0.2064
  958W        W 1955   2.607   5.368   0.251 -0.2084 -0.0356  0.4308
  959W        W 1956   5.586   2.482   3.442 -0.0871 -0.1165  0.2866
  960W        W 1957   3.793   4.511   5.141 -0.1129  0.0033 -0.0102
  961W        W 1958   0.760   4.345   3.605  0.1208  0.0848  0.2556
  962W        W 1959   4.074   4.937   2.141  0.1161  0.0265  0.1149
  963W        W 1960   5.391   1.058   6.946  0.2685  0.0797  0.2328
  964W        W 1961   5.047   0.156   2.569  0.1252 -0.1639 -0.0251
  965W        W 1962   7.578   1.161   4.655  0.0683  0.0609 -0.0118
  966W        W 1963   3.339   0.642   5.476 -0.2005 -0.0193 -0.0636
  967W        W 1964   4.359   7.111   2.404 -0.1308  0.1079  0.4677
  968W        W 1965   1.350   7.230   5.947 -0.1340 -0.0508 -0.3152
  969W        W 1966   3.989   0.624   3.049 -0.2536  0.0450  0.2743
  970W        W 1967   0.257   1.345   1.914  0.1928 -0.4735 -0.1997
  971W        W 1968   3.507   4.959   4.859  0.0118 -0.2547 -0.0303
  972W        W 1969   6.391   1.068   4.228 -0.0725  0.1662 -0.2261
  973W        W 1970   0.556   2.365   5.022 -0.0533 -0.1845  0.0504
  974W        W 1971   1.230   5.803   2.886  0.1516  0.0187  0.1082
  975W        W 1972   5.682   3.277   5.948  0.1863  0.1787  0.0162
  976W        W 1973   0.821   4.803   7.523 -0.3210 -0.2219 -0.1248
  977W        W 1974   4.791   7.293   2.799  0.2154 -0.0305 -0.1562
  978W        W 1975   1.134   0.078   7.523  0.0562 -0.3564 -0.1253
  979W        W 1976   6.004   2.891   5.800  0.2878 -0.2807 -0.1499
  980W        W 1977   1.659   3.233   5.113 -0.2934 -0.3038  0.2922
  981W        W 1978   2.369   5.231   3.028 -0.0717  0.0133  0.3787
  982W        W 1979   4.113   4.926   6.015 -0.3830  0.1706  0.2688
  983W        W 1980   2.456   3.087   6.681 -0.0064  0.2242  0.2955
  984W        W 1981   0.751   1.494   6.521  0.1710 -0.1874  0.1937
  985W        W 1982   0.775   5.273   1.233  0.0321  0.0718 -0.0853
  986W        W 1983   5.916   0.659   6.299 -0.0781 -0.0355 -0.1167
  987W        W 1984   0.528   2.297   6.499  0.0708  0.1919  0.0167
  988W        W 1985   3.004   3.746   3.684  0.0899  0.0312 -0.0396
  989W        W 1986   1.859   6.262   3.384 -0.1270 -0.2901  0.0269
  990W        W 1987   3.143   6.567   3.580  0.2259 -0.1452  0.6877
  991W        W 1988   4.727   0.101   3.861 -0.1720  0.1934  0.4740
  992W        W 1989   2.010   1.180   5.496  0.0755  0.0889  0.0442
  993W        W 1990   6.068   3.776   1.584  0.0573  0.2199 -0.2367
  994W        W 1991   1.792   4.742   6.860 -0.0472 -0.0658 -0.3050
  995W        W 1992   5.641   3.541   0.415 -0.0119  0.3780  0.0371
  996W        W 1993   1.689   4.490   7.440  0.1197  0.0868  0.0595
  997W        W 1994   0.348   3.773   2.081 -0.0280  0.1589 -0.3660
  998W        W 1995   4.270   3.554   4.877 -0.1475 -0.3506  0.0607
  999W        W 1996   2.830   2.593   7.134  0.0725  0.4205  0.0025
 1000W        W 1997   1.983   3.084   2.368 -0.0971  0.0658  0.0037
 1001W        W 1998   7.622   5.102   7.623 -0.1074 -0.2853 -0.0758
 1002W        W 1999   2.023   4.646   1.303  0.2399 -0.0692 -0.2207
 1003W        W 2000   5.021   0.472   4.010 -0.1422  0.0245 -0.3810
 1004W        W 2001   0.070   1.617   4.942 -0.1740 -0.1104  0.0010
 1005W        W 2002   2.704   4.343   5.696 -0.2945  0.2120  0.1782
 1006W        W 2003   4.003   1.846   1.403  0.3209  0.0766  0.0262
 1007W        W 2004   6.465   3.635   3.365 -0.0489 -0.0450  0.1857
 1008W        W 2005   4.654   4.229   5.320  0.1631 -0.2034 -0.0054
 1009W        W 2006   2.757   2.559   6.643  0.0945 -0.0570 -0.0643
 1010W        W 2007   3.903   1.911   3.707 -0.4250  0.0619  0.4827
 1011W        W 2008   5.218   6.993   2.894  0.3111  0.1506  0.2065
 1012W        W 2009   6.373   0.655   5.067 -0.3982  0.1072  0.4409
 1013W        W 2010   5.237   6.729   0.534  0.0027  0.0334 -0.1321
 1014W        W 2011   0.791   4.640   0.382  0.2445  0.0269  0.4513
 1015W        W 2012   4.852   1.192   1.001  0.2625 -0.2983  0.0048
 1016W        W 2013   1.836   0.416   0.552 -0.2727  0.1323  0.0702
 1017W        W 2014   4.579   2.260   3.357  0.0021  0.2336 -0.2064
 1018W        W 2015   1.597   2.020   0.839  0.1307 -0.3102 -0.1336
 1019W        W 2016   1.887   0.144   5.076  0.0266 -0.1392 -0.2209
 1020W        W 2017   5.290   2.763   6.644  0.1926  0.1959 -0.0952
 1021W        W 2018   4.421   1.836   5.075 -0.0449 -0.1124  0.1092
 1022W        W 2019   3.564   6.367   3.381 -0.0278 -0.2282  0.1674
 1023W        W 2020   1.015   1.547   1.300 -0.1127  0.2642  0.0875
 1024W        W 2021   0.394   5.926   2.144 -0.1974 -0.2526  0.3157
 1025W        W 2022   3.120   5.673   5.819  0.1798  0.1812  0.2321
 1026W        W 2023   4.737   1.675   2.980 -0.1847 -0.1820  0.0587
 1027W        W 2024   0.704   0.910   2.294 -0.0843  0.3035  0.3449
 1028W        W 2025   4.754   1.489   2.372 -0.1040 -0.0664 -0.4052
 1029W        W 2026   7.316   1.872   3.258 -0.1321  0.1846  0.0063
 1030W        W 2027   2.893   4.521   6.527 -0.2665  0.1900  0.1444
 1031W        W 2028   6.153   3.396   1.908 -0.0300 -0.0474  0.3287
 1032W        W 2029   3.770   6.638   3.997 -0.0491 -0.0658 -0.1922
 1033W        W 2030   1.685   7.184   1.875 -0.0542 -0.1547  0.5260
 1034W        W 2031   7.577   3.142   1.844  0.0193  0.1312  0.3665
 1035W        W 2032   1.574   4.201   2.959 -0.0521  0.1577 -0.0932
 1036W        W 2033   1.023   2.778   2.800 -0.0309  0.0871 -0.0487
 1037W        W 2034   2.739   3.384   0.382 -0.1473  0.1211  0.1788
 1038W        W 2035   6.515   1.265   1.821 -0.0791  0.1427 -0.0907
 1039W        W 2036   4.062   2.137   3.290 -0.0553 -0.0340  0.0337
 1040W        W 2037   5.789   7.480   7.402  0.2607  0.1794  0.0349
 1041W        W 2038   1.560   3.380   1.357 -0.0847 -0.1703  0.0055
 1042W        W 2039   0.885   1.254   3.925 -0.1827 -0.1434 -0.0829
 1043W        W 2040   2.857   1.050   4.923 -0.2766 -0.2455 -0.1576
 1044W        W 2041   5.593   5.589   0.731 -0.0294  0.0309  0.0139
 1045W        W 2042   2.991   5.151   4.644 -0.0746  0.0374 -0.2211
 1046W        W 2043   3.986   5.316   7.282  0.0279 -0.0896 -0.0202
 1047W        W 2044   3.032   4.593   1.170 -0.2458 -0.0639  0.2668
 1048W        W 2045   4.879   6.799   5.392  0.1458 -0.3166  0.1012
 1049W        W 2046   7.189   4.313   0.182 -0.1649 -0.3069  0.0909
 1050W        W 2047   5.402   4.153   0.323 -0.1033 -0.0639  0.0563
 1051W        W 2048   4.217   6.208   6.596  0.1984  0.2932 -0.2752
 1052W        W 2049   4.491   4.831   1.315  0.0936 -0.0551  0.2614
 1053W        W 2050   1.374   1.569   4.492 -0.1223  0.0039 -0.0579
 1054W        W 2051   1.248   5.828   0.082 -0.2213 -0.1155 -0.2628
 1055W        W 2052   3.609   4.512   6.847  0.1501 -0.2711  0.1265
 1056W        W 2053   3.538   6.537   5.994  0.0035 -0.1959 -0.0918
 1057W        W 2054   5.956   2.093   7.470  0.0834 -0.0841  0.0776
 1058W        W 2055   4.832   5.740   4.736 -0.1415 -0.2887 -0.0484
 1059W        W 2056   1.492   5.175   6.959 -0.0801 -0.0873  0.1804
 1060W        W 2057   2.750   5.072   2.681  0.0822 -0.2397 -0.2683
 1061W        W 2058   5.831   1.628   0.019  0.2434 -0.1608 -0.1665
 1062W        W 2059   4.309   6.299   5.317  0.0067 -0.1996  0.0965
 1063W        W 2060   3.578   2.545   0.922 -0.1022 -0.4496  0.0920
 1064W        W 2061   4.158   3.657   6.615  0.1179 -0.0880 -0.3574
 1065W        W 2062   4.191   3.855   0.614 -0.1953  0.0370 -0.0445
 1066W        W 2063   5.933   4.600   4.872 -0.2772  0.2205  0.1569
 1067W        W 2064   3.910   5.734   5.793  0.1359  0.2063 -0.0190
 1068W        W 2065   2.886   3.542   6.345 -0.2201 -0.0386  0.2665
 1069W        W 2066   2.628   5.890   6.805 -0.0915 -0.0227 -0.1841
 1070W        W 2067   6.557   2.872   6.090  0.2292 -0.0325  0.1550
 1071W        W 2068   0.483   0.006   1.936  0.1267  0.1841  0.1954
 1072W        W 2069   5.053   4.442   1.955  0.1297  0.1011  0.0269
 1073W        W 2070   2.572   5.087   5.344 -0.3894  0.1349 -0.1355
 1074W        W 2071   3.048   1.632   0.794  0.0377 -0.4918  0.1145
 1075W        W 2072   0.500   1.951   5.769 -0.0469  0.3381  0.1271
 1076W        W 2073   5.947   4.835   3.179  0.1947  0.2020 -0.2529
 1077W        W 2074   1.388   2.110   1.742 -0.1998  0.2586  0.2261
 1078W        W 2075   3.492   3.106   0.368  0.2305  0.0452 -0.2813
 1079W        W 2076   2.155   4.934   2.206  0.3113 -0.2347  0.0238
 1080W        W 2077   4.019   0.446   7.480  0.0093 -0.0005  0.0617
 1081W        W 2078   6.228   1.027   1.045  0.3913  0.1995  0.0028
 1082W        W 2079   4.455   5.600   7.402  0.0646  0.1488 -0.3544
 1083W        W 2080   3.115   5.389   2.624 -0.2496  0.0257  0.3544
 1084W        W 2081   7.429   0.103   2.094  0.1033 -0.2117 -0.1018
 1085W        W 2082   7.548   0.067   5.623 -0.2472  0.1233 -0.0808
 1086W        W 2083   3.669   2.493   4.166 -0.0164  0.0278 -0.0852
 1087W        W 2084   6.961   0.668   3.568  0.0659 -0.0771 -0.1322
 1088W        W 2085   5.340   4.851   5.093 -0.0254 -0.0793  0.0349
 1089W        W 2086   1.518   2.929   5.654  0.4616  0.1433  0.3699
 1090W        W 2087   2.864   2.909   2.808  0.0975  0.2657 -0.0365
 1091W        W 2088   0.931   6.288   4.798  0.0190 -0.1144 -0.3470
 1092W        W 2089   3.301   5.262   6.087 -0.0929 -0.0514  0.1826
 1093W        W 2090   6.780   4.049   4.405 -0.1379  0.0422  0.0110
 1094W        W 2091   2.826   5.464   1.683  0.1907 -0.0735 -0.2124
 1095W        W 2092   3.197   1.368   0.140  0.0855 -0.1451 -0.1055
 1096W        W 2093   2.738   4.646   2.972 -0.2332  0.1037 -0.2762
 1097W        W 2094   3.696   3.263   1.635  0.0041 -0.0738  0.0289
 1098W        W 2095   6.796   4.292   2.753  0.2193  0.0435 -0.0175
 1099W        W 2096   5.667   1.662   1.477 -0.0194  0.1890  0.1699
 1100W        W 2097   5.594   0.758   0.686 -0.0994 -0.0963 -0.0271
 1101W        W 2098   3.576   5.723   7.587 -0.0519  0.2927  0.2828
 1102W        W 2099   7.389   4.960   2.807 -0.0838 -0.1297  0.2733
 1103W        W 2100   3.037   2.965   0.570 -0.3105 -0.2787  0.3100
 1104W        W 2101   1.862   7.632   1.729 -0.2303  0.1094  0.2891
 1105W        W 2102   5.397   0.586   7.624  0.0257  0.0333  0.2372
 1106W        W 2103   5.658   0.120   6.038 -0.1873  0.1744 -0.0642
 1107W        W 2104   2.445   2.701   3.102  0.0920  0.0680  0.1053
 1108W        W 2105   0.214   3.051   5.385  0.1584  0.0096  0.0491
 1109W        W 2106   4.290   0.232   0.790 -0.0464  0.0268  0.0196
 1110W        W 2107   3.553   0.812   5.057 -0.0602 -0.0147  0.1216
 1111W        W 2108   4.672   1.515   7.279  0.2490 -0.1568 -0.1269
 1112W        W 2109   5.059   7.231   4.637 -0.0211 -0.0269 -0.2805
 1113W        W 2110   5.510   3.360   1.260 -0.1787 -0.2412  0.0546
 1114W        W 2111   2.696   6.907   4.477  0.3223 -0.0388 -0.0503
 1115W        W 2112   1.865   7.328   5.370  0.0477  0.0950  0.2121
 1116W        W 2113   3.061   6.769   2.649 -0.1447  0.0052 -0.1509
 1117W        W 2114   5.323   3.999   2.294 -0.2549 -0.3064 -0.1311
 1118W        W 2115   4.239   3.596   0.115  0.2671 -0.0318  0.2194
 1119W        W 2116   5.469   3.074   0.846  0.0968 -0.0274  0.1846
 1120W        W 2117   2.444   6.890   3.087  0.3461 -0.0160  0.0595
 1121W        W 2118   1.463   3.271   0.498 -0.0989  0.1370 -0.1314
 1122W        W 2119   5.241   1.475   6.620 -0.1055  0.3850 -0.0548
 1123W        W 2120   1.882   7.507   3.745 -0.2553  0.1193 -0.0475
 1124W        W 2121   7.117   0.544   0.203 -0.2588  0.0349 -0.0814
 1125W        W 2122   6.989   2.573   2.854  0.0783  0.0808  0.0299
 1126W        W 2123   2.502   5.464   7.085  0.1567  0.0703  0.1424
 1127W        W 2124   2.799   6.248   3.292 -0.1567 -0.1474  0.4368
 1128W        W 2125   2.540   2.955   0.463 -0.0984 -0.1353  0.3524
 1129W        W 2126   2.563   1.683   0.606 -0.0394  0.0377 -0.0908
 1130W        W 2127   4.526   2.452   4.212  0.2001  0.0736 -0.1113
 1131W        W 2128   6.286   4.757   0.460 -0.2818 -0.0511 -0.0139
 1132W        W 2129   7.195   1.867   2.730  0.1912 -0.1069 -0.3572
 1133W        W 2130   3.961   4.113   7.320 -0.2752 -0.0541  0.1320
 1134W        W 2131   7.590   5.426   2.690 -0.0760 -0.0752  0.1833
 1135W        W 2132   4.600   2.850   4.521 -0.1233  0.0779  0.3374
 1136W        W 2133   3.591   0.216   7.287  0.1836  0.1404  0.2889
 1137W        W 2134   4.569   6.887   4.533 -0.0588 -0.1829  0.2728
 1138W        W 2135   3.667   4.876   2.793  0.0751  0.1585  0.1722
 1139W        W 2136   4.161   1.085   3.192 -0.0221 -0.2841 -0.0084
 1140W        W 2137   2.220   1.590   5.242  0.1582  0.1758  0.0709
 1141W        W 2138   1.349   0.652   0.426  0.0441  0.0131  0.0570
 1142W        W 2139   3.692   0.865   0.766  0.2871 -0.2574  0.2877
 1143W        W 2140   3.712   3.484   6.783  0.0177 -0.1276  0.2731
 1144W        W 2141   4.121   1.329   5.790 -0.0469 -0.1431  0.0380
 1145W        W 2142   7.506   3.508   2.254  0.2770 -0.0941 -0.1805
 1146W        W 2143   3.857   3.153   4.930 -0.1734 -0.0882 -0.1150
 1147W        W 2144   3.555   2.144   0.609  0.0097 -0.2723  0.3121
 1148W        W 2145   5.118   0.644   7.240  0.0673  0.0007  0.1131
 1149W        W 2146   4.234   1.415   0.404 -0.1315 -0.0051  0.0062
 1150W        W 2147   1.910   6.777   3.731 -0.0309  0.0757  0.2232
 1151W        W 2148   6.490   3.697   1.332  0.0396  0.1414 -0.1968
 1152W        W 2149   2.548   4.293   0.490 -0.1202 -0.1438 -0.1849
 1153W        W 2150   4.297   3.042   3.596  0.2766  0.1549  0.0863
 1154W        W 2151   5.112   7.635   3.500  0.2129  0.1745 -0.0157
 1155W        W 2152   2.603   0.916   3.629 -0.2756 -0.1399  0.4824
 1156W        W 2153   4.983   4.317   3.534 -0.0125 -0.1943  0.1613
 1157W        W 2154   3.236   4.179   6.729 -0.3524  0.1295  0.0315
 1158W        W 2155   0.178   0.930   1.659  0.1486 -0.3000  0.0556
 1159W        W 2156   1.901   4.450   2.486 -0.0461 -0.3159 -0.1367
 1160W        W 2157   1.637   1.835   0.349 -0.1377 -0.1556 -0.2016
 1161W        W 2158   0.617   0.965   3.108 -0.1151  0.1796 -0.0665
 1162W        W 2159   0.007   3.626   0.648  0.1772 -0.1167  0.1411
 1163W        W 2160   4.856   3.614   6.340 -0.2717 -0.0224 -0.0952
 1164W        W 2161   1.198   3.547   3.802  0.0961  0.2874  0.0810
 1165W        W 2162   2.967   4.468   0.294 -0.0349  0.0381  0.1536
 1166W        W 2163   0.979   7.556   0.527 -0.3639 -0.0541  0.3163
 1167W        W 2164   3.034   5.167   5.652 -0.1794 -0.2845  0.2135
 1168W        W 2165   1.162   3.148   6.021  0.2236  0.0235  0.1635
 1169W        W 2166   5.538   2.139   1.337  0.1541  0.2358  0.0963
 1170W        W 2167   5.731   0.266   5.512  0.4051 -0.1995 -0.1482
 1171W        W 2168   5.834   1.054   4.263 -0.2301 -0.2141 -0.1414
 1172W        W 2169   6.301   1.358   2.893  0.0210  0.3654 -0.0279
 1173W        W 2170   3.929   3.275   6.399  0.0245  0.0317 -0.0566
 1174W        W 2171   0.857   5.895   4.236  0.1915  0.3581  0.0209
 1175W        W 2172   3.620   5.028   2.305  0.4561 -0.0681  0.2147
 1176W        W 2173   3.005   7.334   3.219 -0.0431  0.0728  0.3080
 1177W        W 2174   7.333   3.856   4.684  0.0770 -0.0512  0.2331
 1178W        W 2175   5.570   0.566   6.843 -0.2309  0.0484 -0.0039
 1179W        W 2176   3.768   7.491   5.065  0.1888  0.3879  0.3721
 1180W        W 2177   6.275   0.738   7.302 -0.1077  0.0593  0.2594
 1181W        W 2178   4.809   3.802   6.831 -0.0900 -0.0282  0.1742
 1182W        W 2179   4.264   6.295   4.140  0.1657 -0.0670  0.2457
 1183W        W 2180   2.865   6.555   7.062  0.0164  0.3105  0.0216
 1184W        W 2181   3.517   3.865   4.633  0.0025  0.1214 -0.0949
 1185W        W 2182   4.552   4.957   3.957  0.4415  0.0062  0.1642
 1186W        W 2183   3.807   0.654   0.273 -0.0812 -0.1250 -0.1662
 1187W        W 2184   1.603   1.459   5.274 -0.0896 -0.2037  0.0706
 1188W        W 2185   5.443   7.315   4.183 -0.0088  0.4425  0.2050
 1189W        W 2186   3.853   7.342   2.456 -0.0388 -0.0105  0.0100
 1190W        W 2187   4.891   3.090   0.068 -0.1627  0.1250  0.0114
 1191W        W 2188   4.591   4.654   2.024  0.2566 -0.0027 -0.0155
 1192W        W 2189   3.964   6.445   2.902  0.1747  0.0073 -0.0913
 1193W        W 2190   4.965   2.652   1.958 -0.0950 -0.1041 -0.3036
 1194W        W 2191   6.597   1.167   2.377  0.1561  0.2214  0.0292
 1195W        W 2192   1.652   2.654   0.116  0.0063  0.3554  0.1439
 1196W        W 2193   0.682   2.352   5.510  0.2464 -0.0844 -0.1097
 1197W        W 2194   6.914   2.982   3.128  0.1148  0.0639  0.1083
 1198W        W 2195   6.569   0.591   2.207  0.1202 -0.2037  0.0876
 1199W        W 2196   2.502   2.921   2.467 -0.2630  0.0516  0.0676
 1200W        W 2197   2.808   4.141   3.169 -0.1716  0.1907 -0.1920
 1201W        W 2198   0.767   0.124   0.958 -0.2697  0.1610  0.2522
 1202W        W 2199   3.191   6.131   4.536 -0.1511  0.1942 -0.1597
 1203W        W 2200   3.828   3.474   4.560 -0.3399 -0.1902 -0.1140
 1204W        W 2201   2.226   5.837   2.365 -0.0572  0.2565 -0.1100
 1205W        W 2202   3.380   5.253   7.437 -0.3810  0.1561 -0.2353
 1206W        W 2203   5.403   2.994   4.990 -0.1855 -0.3938 -0.1650
 1207W        W 2204   4.046   2.787   4.041 -0.0779  0.1753  0.3907
 1208W        W 2205   3.781   6.445   6.554  0.1246 -0.0487 -0.2839
 1209W        W 2206   4.992   3.872   5.133  0.0506  0.1745  0.2306
 1210W        W 2207   3.184   5.519   3.246  0.2177  0.1065 -0.4089
 1211W        W 2208   1.488   2.502   1.047 -0.2032 -0.1614 -0.4819
 1212W        W 2209   3.383   1.126   7.418  0.2332 -0.1112  0.2746
 1213W        W 2210   0.978   2.287   4.094 -0.2389  0.1333  0.0083
 1214W        W 2211   0.064   2.042   0.551 -0.0122 -0.0981  0.1681
 1215W        W 2212   4.756   1.515   0.558 -0.1552  0.2151  0.0887
 1216W        W 2213   1.726   7.027   7.280 -0.2261  0.0722 -0.0892
 1217W        W 2214   6.646   5.080   1.266  0.0904  0.0842 -0.2071
 1218W        W 2215   4.609   0.156   0.196  0.0807 -0.2049 -0.0105
 1219W        W 2216   2.642   6.293   3.761 -0.0837  0.1565 -0.1819
 1220W        W 2217   2.711   0.766   4.090  0.1052 -0.2574 -0.1552
 1221W        W 2218   0.765   6.841   1.553 -0.0280 -0.0962 -0.0820
 1222W        W 2219   3.933   7.012   0.326 -0.1684 -0.1178 -0.1567
 1223W        W 2220   4.087   2.970   1.663 -0.2699 -0.0531  0.3169
 1224W        W 2221   2.354   1.521   1.040 -0.0422 -0.1668 -0.1829
 1225W        W 2222   0.353   6.645   7.325  0.2862 -0.1776 -0.3944
 1226W        W 2223   3.307   0.093   1.253  0.0587 -0.0602 -0.1364
 1227W        W 2224   1.082   1.115   0.979  0.1718 -0.2462 -0.2979
 1228W        W 2225   6.180   0.884   0.096  0.0562 -0.0622  0.3506
 1229W        W 2226   2.522   1.915   2.790 -0.4919  0.1647 -0.1242
 1230W        W 2227   3.975   6.254   4.880  0.0355 -0.3465  0.1415
 1231W        W 2228   6.208   4.930   2.736  0.1844 -0.0063 -0.2520
 1232W        W 2229   0.370   7.546   4.037 -0.1711 -0.0352  0.2482
 1233W        W 2230   5.708   4.853   4.513  0.1419 -0.0171  0.2376
 1234W        W 2231   1.818   2.641   2.482 -0.1536  0.1412  0.0667
 1235W        W 2232   2.025   7.285   4.930 -0.2109 -0.0657 -0.0749
 1236W        W 2233   0.603   6.652   3.601 -0.3553  0.2788 -0.1797
 1237W        W 2234   5.966   3.756   2.327 -0.1681 -0.0565 -0.2706
 1238W        W 2235   3.955   0.150   2.960  0.0956  0.4436  0.1515
 1239W        W 2236   6.904   0.587   4.842  0.1269 -0.6100 -0.3688
 1240W        W 2237   4.990   2.733   4.129 -0.0165  0.1124 -0.1359
 1241W        W 2238   2.587   0.732   6.227  0.2401 -0.0007  0.0790
 1242W        W 2239   4.026   3.200   5.370 -0.2942 -0.2184  0.0395
 1243W        W 2240   0.414   5.476   2.515 -0.2715 -0.3445 -0.1435
 1244W        W 2241   5.127   3.133   4.449 -0.0206 -0.1663  0.1673
 1245W        W 2242   1.257   2.375   7.216 -0.1453  0.0177 -0.1732
 1246W        W 2243   1.449   7.352   0.544 -0.1337 -0.0566 -0.1186
 1247W        W 2244   7.518   2.580   6.615 -0.0783  0.1915  0.0117
 1248W        W 2245   1.790   1.460   4.743 -0.0182  0.1381  0.0655
 1249W        W 2246   2.281   4.814   2.722  0.0985 -0.1764  0.4643
 1250W        W 2247   3.655   6.850   3.562  0.1216  0.1311  0.0487
 1251W        W 2248   7.269   2.160   0.286 -0.0997  0.1580 -0.0297
 1252W        W 2249   1.074   0.794   2.801 -0.1476  0.0169  0.2306
 1253W        W 2250   3.743   4.006   6.837  0.2264  0.1240 -0.0252
 1254W        W 2251   0.868   6.775   2.622  0.1057  0.0634  0.0933
 1255W        W 2252   3.932   5.250   6.803 -0.2728  0.1309  0.0922
 1256W        W 2253   3.420   4.833   5.862 -0.1052  0.0571 -0.0897
 1257W        W 2254   5.993   0.084   1.083  0.0623 -0.0180 -0.0488
 1258W        W 2255   1.180   2.812   7.606  0.1107  0.1585 -0.2323
 1259W        W 2256   5.781   7.070   4.979 -0.0917  0.0608  0.0815
 1260W        W 2257   2.417   6.306   7.361 -0.1226  0.2009  0.1068
 1261W        W 2258   6.477   4.069   0.377  0.0974  0.1342 -0.2613
 1262W        W 2259   0.679   2.819   5.312 -0.0018 -0.2152  0.1862
 1263W        W 2260   0.628   5.168   3.020 -0.2400  0.1344 -0.2773
 1264W        W 2261   7.405   2.915   5.156 -0.1371 -0.1833 -0.1246
 1265W        W 2262   1.068   2.929   6.439 -0.2542  0.1213  0.1758
 1266W        W 2263   4.251   7.463   1.100  0.1743 -0.2824 -0.1015
 1267W        W 2264   5.985   0.982   0.510  0.1040  0.0011 -0.1947
 1268W        W 2265   7.288   3.538   6.178 -0.3423 -0.1577 -0.3589
 1269W        W 2266   3.541   3.928   2.832 -0.0920 -0.2931 -0.0312
 1270W        W 2267   6.061   1.437   0.723 -0.0765  0.4087 -0.3099
 1271W        W 2268   4.282   5.379   5.802 -0.0637 -0.2448  0.1687
 1272W        W 2269   5.584   3.043   3.324  0.0960 -0.0542  0.0356
 1273W        W 2270   3.838   7.113   6.020  0.0236  0.0699 -0.3348
 1274W        W 2271   4.476   6.733   5.051  0.0170  0.3197 -0.1104
 1275W        W 2272   2.555   5.999   5.340 -0.0025 -0.1309 -0.3306
 1276W        W 2273   1.552   3.023   0.920 -0.2929  0.1752  0.1214
 1277W        W 2274   4.087   4.003   4.650  0.0592 -0.3051  0.0531
 1278W        W 2275   0.262   7.516   3.485  0.1919 -0.0775  0.0817
 1279W        W 2276   5.349   3.320   7.612 -0.0468  0.2470 -0.2992
 1280W        W 2277   4.084   6.101   3.735 -0.2646  0.0998  0.0487
 1281W        W 2278   6.165   3.354   4.587 -0.0564 -0.1518 -0.2307
 1282W        W 2279   3.325   4.791   1.957  0.0062 -0.0695  0.2115
 1283W        W 2280   5.775   3.785   6.743  0.0418  0.2690  0.2927
 1284W        W 2281   5.354   5.453   2.177  0.2526 -0.1120  0.2460
 1285W        W 2282   7.567   2.100   5.099  0.1222 -0.3253 -0.0342
 1286W        W 2283   2.876   7.283   0.606 -0.1336  0.2011 -0.0314
 1287W        W 2284   2.578   0.190   7.608 -0.1689 -0.1256  0.0334
 1288W        W 2285   0.356   1.947   5.221 -0.0505 -0.0989  0.3033
 1289W        W 2286   1.465   4.061   0.883  0.2457 -0.0289  0.4672
 1290W        W 2287   5.476   2.735   2.106 -0.0410 -0.1391  0.1748
 1291W        W 2288   6.734   0.626   6.001  0.0517  0.1410 -0.0551
 1292W        W 2289   6.143   1.279   5.632 -0.3186 -0.2684  0.0074
 1293W        W 2290   1.313   1.527   4.039 -0.4190  0.1277  0.2101
 1294W        W 2291   7.056   0.428   2.064 -0.0133 -0.1448  0.2122
 1295W        W 2292   1.167   3.143   4.140  0.0100  0.0456 -0.0669
 1296W        W 2293   3.958   6.343   1.284 -0.2381  0.2621  0.1134
 1297W        W 2294   7.405   3.926   4.206 -0.2510 -0.0110 -0.0448
 1298W        W 2295   3.138   5.021   1.558 -0.0965 -0.0665  0.0292
 1299W        W 2296   4.435   5.900   3.383 -0.1904 -0.1156  0.0987
 1300W        W 2297   1.254   0.754   1.366  0.0024  0.1008 -0.2624
 1301W        W 2298   3.159   2.433   3.058  0.1598 -0.0439 -0.1473
 1302W        W 2299   6.527   1.717   3.319 -0.0009 -0.1852  0.0432
 1303W        W 2300   3.244   3.437   5.014  0.0156  0.0251 -0.3354
 1304W        W 2301   5.517   4.652   0.351  0.0486 -0.0213 -0.2105
 1305W        W 2302   4.646   2.697   7.530  0.1181  0.1484  0.1068
 1306W        W 2303   0.041   1.450   3.300  0.0975  0.1361  0.2830
 1307W        W 2304   5.615   1.147   1.558 -0.0210  0.1678  0.0644
 1308W        W 2305   2.313   5.226   6.484  0.0931  0.0574  0.0771
 1309W        W 2306   2.616   1.310   7.094 -0.0478 -0.2178  0.2085
 1310W        W 2307   0.544   1.546   1.525  0.0944  0.1394 -0.1374
 1311W        W 2308   6.519   4.135   3.674  0.2850  0.0757 -0.1750
 1312W        W 2309   0.666   1.881   2.981 -0.0642  0.1173  0.1320
 1313W        W 2310   4.567   3.072   1.099  0.2618 -0.0638 -0.1359
 1314W        W 2311   4.491   5.968   4.991  0.1405 -0.1696  0.1072
 1315W        W 2312   3.258   3.294   3.783 -0.0059 -0.0995 -0.0401
 1316W        W 2313   4.883   7.378   0.230 -0.0155  0.3086  0.0938
 1317W        W 2314   7.623   0.353   7.075 -0.2207 -0.1652  0.2369
 1318W        W 2315   0.702   3.740   3.641  0.1007  0.1151 -0.1512
 1319W        W 2316   1.642   2.532   3.472  0.1666 -0.0894 -0.4153
 1320W        W 2317   1.886   2.668   5.975 -0.0640 -0.1753 -0.1761
 1321W        W 2318   4.416   3.496   6.043  0.3946  0.0342  0.2490
 1322W        W 2319   1.352   2.477   2.495 -0.1487  0.1929 -0.3726
 1323W        W 2320   5.148   2.520   5.049  0.2501 -0.2158 -0.1817
 1324W        W 2321   1.670   3.413   4.066 -0.0389  0.0349  0.0700
 1325W        W 2322   0.862   0.396   0.453  0.3763 -0.2967  0.3505
 1326W        W 2323   5.635   7.265   6.008 -0.2811 -0.2879  0.2307
 1327W        W 2324   2.489   4.302   2.131 -0.0953 -0.1673  0.0360
 1328W        W 2325   2.327   4.086   5.669  0.2541 -0.0894 -0.1574
 1329W        W 2326   2.446   7.113   3.962  0.1045  0.2305  0.0990
 1330W        W 2327   3.785   1.464   3.008  0.2409  0.3126 -0.1965
 1331W        W 2328   2.165   2.449   4.698 -0.2970 -0.3602  0.2103
 1332W        W 2329   6.151   3.633   4.999 -0.1647  0.0630  0.3352
 1333W        W 2330   4.445   5.377   4.858 -0.0546  0.0913 -0.2337
 1334W        W 2331   0.826   7.334   1.820 -0.0299 -0.0450  0.2233
 1335W        W 2332   3.042   3.458   5.486 -0.1638  0.1802 -0.0863
 1336W        W 2333   1.646   5.421   3.295  0.2409 -0.0403  0.3204
 1337W        W 2334   5.925   3.123   4.139 -0.1742 -0.1134 -0.1127
 1338W        W 2335   0.161   4.456   3.438  0.3338 -0.1027  0.1796
 1339W        W 2336   2.520   4.644   4.987  0.1531  0.1674  0.2563
 1340W        W 2337   6.935   1.943   1.247  0.0665 -0.3661 -0.1023
 1341W        W 2338   0.852   2.600   0.359 -0.2884 -0.2819  0.0400
 1342W        W 2339   2.522   4.262   1.012  0.1042  0.0953 -0.1798
 1343W        W 2340   2.740   0.859   1.767 -0.0273 -0.2622 -0.0109
 1344W        W 2341   2.207   5.025   6.963 -0.0606  0.2922  0.0126
 1345W        W 2342   4.284   6.148   2.177 -0.2470  0.0205 -0.2415
 1346W        W 2343   5.917   0.344   7.407 -0.2933  0.0517 -0.0622
 1347W        W 2344   6.883   3.468   2.977 -0.0883 -0.3984 -0.3030
 1348W        W 2345   0.026   2.344   1.762  0.1611  0.1369 -0.1159
 1349W        W 2346   4.865   4.483   7.420 -0.2089  0.0411 -0.0084
 1350W        W 2347   7.137   0.647   5.636  0.1322  0.1495  0.3461
 1351W        W 2348   0.594   6.492   1.825 -0.3039  0.1275  0.0548
 1352W        W 2349   4.461   2.306   6.676  0.1018 -0.0469 -0.0381
 1353W        W 2350   2.231   0.615   6.589 -0.3793 -0.0462  0.2497
 1354W        W 2351   0.400   2.098   2.442  0.0316 -0.2242  0.1898
 1355W        W 2352   1.856   1.643   1.146 -0.3590  0.0968 -0.0234
 1356W        W 2353   0.308   2.421   7.385 -0.0616 -0.1965 -0.1577
 1357W        W 2354   2.157   4.566   7.156  0.0675 -0.1905  0.1064
 1358W        W 2355   0.057   3.671   3.055 -0.1930  0.2120 -0.0021
 1359W        W 2356   1.511   2.774   6.311  0.1054 -0.0979  0.1619
 1360W        W 2357   0.663   4.260   1.930  0.0688 -0.0644 -0.2608
 1361W        W 2358   6.683   0.330   3.899  0.1150 -0.0867 -0.0206
 1362W        W 2359   0.441   0.124   5.754 -0.0322 -0.1219 -0.2414
 1363W        W 2360   3.366   1.238   6.404  0.1337 -0.0796 -0.0983
 1364W        W 2361   7.147   2.783   5.671 -0.2860  0.2817  0.1437
 1365W        W 2362   5.517   2.831   4.164 -0.2478  0.0280 -0.2059
 1366W        W 2363   6.904   1.685   1.655 -0.2331 -0.1286 -0.1649
 1367W        W 2364   4.274   4.013   1.587 -0.2670  0.2221  0.0876
 1368W        W 2365   2.422   6.109   4.783  0.2795  0.0185 -0.4134
 1369W        W 2366   3.032   2.003   0.405 -0.0875 -0.1207  0.0574
 1370W        W 2367   3.630   6.615   0.450 -0.0059 -0.0720 -0.1108
 1371W        W 2368   3.044   5.907   2.959  0.2848  0.0526 -0.1761
 1372W        W 2369   7.198   3.122   2.171  0.2369  0.0370  0.2771
 1373W        W 2370   1.154   3.307   2.594  0.0355  0.0721  0.1993
 1374W        W 2371   3.283   3.823   4.130  0.0068  0.0632 -0.2122
 1375W        W 2372   6.607   2.001   5.082  0.1169 -0.1111 -0.2501
 1376W        W 2373   3.574   0.468   1.122  0.1405  0.0178  0.1115
 1377W        W 2374   3.389   5.288   1.901  0.0218  0.1088  0.3049
 1378W        W 2375   0.474   1.630   3.820  0.2640 -0.2321 -0.2021
 1379W        W 2376   5.119   0.738   0.700  0.2769  0.0918  0.2546
 1380W        W 2377   5.001   3.851   2.695  0.0705  0.2109  0.2469
 1381W        W 2378   0.689   6.764   5.539  0.2207  0.2037  0.0898
 1382W        W 2379   3.962   4.845   1.297  0.2560  0.2673 -0.0176
 1383W        W 2380   4.698   3.388   5.190 -0.4613 -0.2525  0.3582
 1384W        W 2381   2.836   4.567   1.692  0.1389  0.0562 -0.0745
 1385W        W 2382   1.549   6.337   1.276  0.2582 -0.1075  0.2877
 1386W        W 2383   5.752   1.682   5.675 -0.1209  0.0291 -0.1990
 1387W        W 2384   6.250   2.877   4.696 -0.1923  0.0343  0.1991
 1388W        W 2385   2.878   0.778   2.268 -0.1250 -0.0876 -0.1212
 1389W        W 2386   3.533   3.521   3.203  0.4032 -0.1338  0.0489
 1390W        W 2387   3.682   1.821   4.330  0.2789 -0.1710 -0.0408
 1391W        W 2388   4.767   5.895   1.640  0.0639 -0.2362 -0.0609
 1392W        W 2389   3.729   7.480   6.469  0.0142 -0.0192  0.2201
 1393W        W 2390   6.020   2.581   7.438 -0.0967  0.0651 -0.0254
 1394W        W 2391   6.530   4.019   0.931  0.3692 -0.2243  0.1580
 1395W        W 2392   3.828   7.323   5.562  0.4450  0.4865 -0.3054
 1396W        W 2393   5.119   2.750   2.459 -0.0787  0.1726 -0.1756
 1397W        W 2394   5.040   7.278   3.893  0.1144  0.3582  0.0040
 1398W        W 2395   1.537   4.012   7.387  0.0552  0.2364 -0.1407
 1399W        W 2396   4.489   4.469   2.963  0.1695 -0.0177  0.0051
 1400W        W 2397   4.612   2.091   7.522 -0.0575  0.1062  0.1028
 1401W        W 2398   4.179   4.789   2.650 -0.2158 -0.2264 -0.0668
 1402W        W 2399   5.182   3.850   3.826 -0.2999  0.0920 -0.2842
 1403W        W 2400   4.469   3.223   5.628  0.0186 -0.0143  0.0560
 1404W        W 2401   3.974   5.755   7.015 -0.4870 -0.1482 -0.2379
 1405W        W 2402   6.626   1.218   3.317 -0.0494  0.1268  0.0271
 1406W        W 2403   5.635   3.036   0.324  0.0026  0.0553  0.2140
 1407W        W 2404   3.957   4.385   0.562 -0.1251 -0.0288 -0.0140
 1408W        W 2405   1.582   7.171   3.466 -0.2731  0.2460 -0.4060
 1409W        W 2406   2.366   6.870   1.195  0.1858  0.0560 -0.0575
 1410W        W 2407   3.817   5.238   6.256  0.2383  0.3643 -0.1039
 1411W        W 2408   4.967   1.664   6.148 -0.0228  0.1473 -0.0246
 1412W        W 2409   5.891   3.961   7.631  0.2138 -0.0546  0.3301
 1413W        W 2410   1.936   2.988   0.269  0.0349 -0.1450 -0.1220
 1414W        W 2411   0.643   6.600   6.440 -0.0108  0.1050  0.1711
 1415W        W 2412   4.745   0.486   2.287  0.3862  0.2591  0.1915
 1416W        W 2413   3.318   3.845   0.816 -0.3253 -0.0257 -0.2484
 1417W        W 2414   3.374   1.666   2.535  0.3252 -0.1423 -0.1640
 1418W        W 2415   1.823   0.373   6.279  0.0295  0.0445  0.1199
 1419W        W 2416   1.826   6.687   0.063  0.3634  0.3608 -0.0939
 1420W        W 2417   3.511   2.100   3.899 -0.0168 -0.3260  0.0447
 1421W        W 2418   2.385   3.492   1.479 -0.0748  0.1133  0.1647
 1422W        W 2419   3.248   3.319   2.846  0.1055 -0.0476  0.1130
 1423W        W 2420   5.894   1.638   2.943  0.0042 -0.2168  0.2504
 1424W        W 2421   3.318   3.267   7.622 -0.0663  0.2288 -0.2129
 1425W        W 2422   7.393   0.719   7.354 -0.0949 -0.3397 -0.2226
 1426W        W 2423   0.809   3.997   3.187  0.0212  0.0062  0.2967
 1427W        W 2424   5.729   3.633   7.252  0.1025 -0.1368  0.6278
 1428W        W 2425   1.070   1.101   4.362  0.0188  0.2687  0.3321
 1429W        W 2426   3.793   4.237   1.584  0.0959 -0.0682 -0.0469
 1430W        W 2427   4.016   1.006   1.176  0.0997  0.0238 -0.1096
 1431W        W 2428   0.739   0.535   4.480 -0.0517 -0.0103  0.1464
 1432W        W 2429   2.324   3.304   3.486 -0.1399 -0.1082 -0.1681
 1433W        W 2430   6.270   0.528   1.243  0.1316  0.0929 -0.0353
 1434W        W 2431   4.419   3.984   7.552 -0.2631  0.2125 -0.0465
 1435W        W 2432   1.289   0.309   3.019 -0.2293  0.1748  0.2504
 1436W        W 2433   4.852   6.879   0.948 -0.3921 -0.3228  0.1316
 1437W        W 2434   3.760   7.302   7.216  0.1469  0.0736  0.1544
 1438W        W 2435   1.569   3.901   3.876  0.2162  0.2858 -0.1772
 1439W        W 2436   1.683   4.295   3.456 -0.2924  0.0518 -0.2077
 1440W        W 2437   4.696   1.016   0.428  0.0752  0.3022 -0.0892
 1441W        W 2438   7.138   5.068   1.447  0.0136 -0.0297 -0.0197
 1442W        W 2439   2.608   4.725   6.963 -0.0551  0.0762  0.0718
 1443W        W 2440   7.040   1.622   6.911 -0.0697  0.2469  0.1613
 1444W        W 2441   0.804   5.083   0.714 -0.3515 -0.2871 -0.3770
 1445W        W 2442   1.105   1.970   6.459 -0.6609 -0.0543  0.4198
 1446W        W 2443   2.783   1.805   5.646 -0.3534 -0.0285 -0.0084
 1447W        W 2444   4.578   6.360   4.648 -0.0764  0.2248  0.1679
 1448W        W 2445   0.693   1.026   5.332  0.0468 -0.1064  0.1201
 1449W        W 2446   1.092   6.359   3.159  0.1768 -0.1257 -0.1419
 1450W        W 2447   6.982   3.119   6.175 -0.3512 -0.2671 -0.3265
 1451W        W 2448   7.225   2.697   1.805  0.0602  0.0138  0.2634
 1452W        W 2449   0.977   1.933   6.902  0.1019 -0.3970 -0.0396
 1453W        W 2450   0.351   6.775   0.184 -0.0618  0.2787 -0.2225
 1454W        W 2451   3.697   2.257   1.346 -0.0882 -0.0520  0.3592
 1455W        W 2452   5.574   2.239   2.209  0.0530  0.1345  0.1360
 1456W        W 2453   6.329   2.411   1.683 -0.0286  0.4937  0.2569
 1457W        W 2454   1.201   6.953   3.732 -0.1508  0.0100  0.0527
 1458W        W 2455   1.402   1.818   2.793 -0.3247 -0.2070 -0.2716
 1459W        W 2456   0.179   2.190   4.717 -0.0433 -0.3589 -0.1985
 1460W        W 2457   5.925   3.935   0.504 -0.0460 -0.0142  0.0633
 1461W        W 2458   1.875   7.250   0.816  0.0026  0.0951 -0.1151
 1462W        W 2459   1.887   1.255   7.282  0.0733  0.1741  0.0690
 1463W        W 2460   6.696   3.185   1.939  0.2521 -0.1832  0.0521
 1464W        W 2461   4.792   4.034   6.004  0.3934  0.2859  0.0899
 1465W        W 2462   0.272   7.008   3.353 -0.3161 -0.2948  0.0643
 1466W        W 2463   2.686   7.043   3.519  0.0258 -0.0414 -0.1997
 1467W        W 2464   5.702   1.277   1.072  0.0214 -0.3041 -0.0691
 1468W        W 2465   0.048   2.883   4.252  0.1389 -0.0163 -0.1974
 1469W        W 2466   7.003   0.356   7.325 -0.2025  0.1880 -0.3076
 1470W        W 2467   2.064   2.589   4.054  0.1684 -0.0472 -0.2479
 1471W        W 2468   4.399   1.204   0.833  0.2307 -0.0607 -0.0232
 1472W        W 2469   4.009   7.183   3.716  0.3977 -0.1104 -0.0754
 1473W        W 2470   1.436   0.150   5.995  0.0546 -0.1238  0.1413
 1474W        W 2471   0.253   7.489   1.279 -0.0855 -0.3174  0.0409
 1475W        W 2472   2.778   2.541   0.409 -0.0917 -0.0106 -0.4280
 1476W        W 2473   4.119   2.263   7.206 -0.0088  0.3458  0.1027
 1477W        W 2474   2.944   0.824   0.598 -0.0930 -0.4303  0.1308
 1478W        W 2475   4.008   2.255   2.369 -0.0934 -0.0440  0.1557
 1479W        W 2476   0.505   4.854   1.194  0.2243 -0.1265  0.0821
 1480W        W 2477   0.825   1.197   2.682 -0.2557  0.0847  0.1041
 1481W        W 2478   0.449   3.392   0.391  0.0848  0.0169 -0.0341
 1482W        W 2479   0.987   6.895   5.970 -0.0650 -0.0769  0.1001
 1483W        W 2480   0.044   1.709   1.452 -0.0278 -0.2339  0.0823
 1484W        W 2481   3.732   3.183   7.334  0.0247 -0.1975 -0.2700
 1485W        W 2482   4.507   6.348   6.117 -0.0229  0.0642  0.1272
 1486W        W 2483   2.100   0.385   2.857  0.1251  0.1124  0.3838
 1487W        W 2484   1.855   7.558   0.404  0.0220 -0.0735 -0.1453
 1488W        W 2485   3.104   2.113   2.629 -0.1915  0.0571  0.2190
 1489W        W 2486   1.518   6.808   5.276  0.1089  0.2384 -0.0260
 1490W        W 2487   3.084   1.567   3.303 -0.1088  0.1713 -0.0059
 1491W        W 2488   1.162   6.594   1.930 -0.1733  0.0230 -0.0588
 1492W        W 2489   2.289   6.378   3.126 -0.0944  0.2393 -0.1626
 1493W        W 2490   7.252   3.674   3.291  0.1065 -0.0178 -0.1288
 1494W        W 2491   3.282   1.273   5.081 -0.0999 -0.0388  0.2776
 1495W        W 2492   4.176   3.150   4.564 -0.0462 -0.0164 -0.1329
 1496W        W 2493   6.422   2.179   3.434 -0.1058  0.1545 -0.3480
 1497W        W 2494   7.169   0.082   4.797  0.0851 -0.0547 -0.1933
 1498W        W 2495   6.070   3.177   0.522 -0.0552  0.0411 -0.1072
 1499W        W 2496   3.950   7.453   0.015  0.3173 -0.0584  0.1369
 1500W        W 2497   4.299   6.494   7.358  0.2244  0.1477 -0.3476
 1501W        W 2498   6.503   2.451   5.404  0.1731 -0.1094  0.2346
 1502W        W 2499   1.970   3.122   7.423  0.1399  0.2043  0.0273
 1503W        W 2500   7.487   1.789   1.955 -0.0305  0.1090 -0.0792
 1504W        W 2501   2.927   4.739   3.935  0.3182  0.1503  0.3181
 1505W        W 2502   2.599   3.173   4.533  0.1974 -0.2706  0.1344
 1506W        W 2503   4.538   4.424   0.133 -0.0651 -0.1246  0.0326
 1507W        W 2504   3.356   1.741   7.074 -0.1335  0.0044 -0.0773
 1508W        W 2505   2.284   7.479   6.146  0.1259 -0.0734  0.0347
 1509W        W 2506   2.529   4.239   4.648 -0.0044 -0.0434 -0.0899
 1510W        W 2507   7.250   1.941   7.399  0.0359  0.1103 -0.0196
 1511W        W 2508   2.337   4.110   4.236  0.1693  0.0772 -0.0104
 1512W        W 2509   5.063   2.242   2.284 -0.1273 -0.1700  0.2330
 1513W        W 2510   5.283   0.445   4.446  0.3212  0.0368 -0.1655
 1514W        W 2511   7.217   0.221   3.575 -0.2406 -0.0530 -0.0084
 1515W        W 2512   2.909   6.337   6.598  0.0622  0.0351  0.0658
 1516W        W 2513   0.577   5.559   3.846  0.3700 -0.0414 -0.2014
 1517W        W 2514   2.902   2.834   3.820 -0.1358  0.0068 -0.2936
 1518W        W 2515   0.290   6.385   2.297 -0.2087 -0.0181 -0.0667
 1519W        W 2516   2.503   2.097   0.250 -0.1003 -0.0931  0.0342
 1520W        W 2517   7.606   1.285   6.244 -0.0688 -0.1438 -0.2162
 1521W        W 2518   4.859   4.008   7.273  0.0161 -0.0068  0.0067
 1522W        W 2519   2.750   6.662   2.131  0.0592 -0.4383 -0.0541
 1523W        W 2520   0.987   2.368   0.759  0.0917  0.1668  0.0684
 1524W        W 2521   3.220   7.204   4.363 -0.1562  0.1100 -0.0772
 1525W        W 2522   2.125   7.487   4.162  0.0637 -0.1582  0.3603
 1526W        W 2523   0.821   6.019   1.847  0.0207 -0.3317 -0.2344
 1527W        W 2524   5.027   1.913   1.512  0.3100 -0.1850 -0.4041
 1528W        W 2525   1.357   1.744   4.966  0.2822  0.2652  0.0475
 1529W        W 2526   3.690   1.302   0.278  0.1637 -0.0098 -0.2235
 1530W        W 2527   1.847   2.094   3.837 -0.0620 -0.0753 -0.1011
 1531W        W 2528   3.461   3.559   1.927  0.0236  0.2004 -0.2091
 1532W        W 2529   4.380   2.203   2.013  0.1598 -0.2112  0.1536
 1533W        W 2530   0.425   2.939   2.537  0.0465  0.5347 -0.2392
 1534W        W 2531   1.132   6.017   0.547  0.1623 -0.1878 -0.0230
 1535W        W 2532   6.218   3.172   2.347  0.0645  0.0521  0.2513
 1536W        W 2533   1.447   1.878   3.597 -0.3179 -0.0432  0.2141
 1537W        W 2534   7.452   3.405   1.383  0.0753 -0.0400  0.2230
 1538W        W 2535   5.922   2.092   1.712 -0.1990  0.0137  0.2422
 1539W        W 2536   4.942   5.236   2.540  0.0773  0.1309 -0.2172
 1540W        W 2537   6.224   4.753   1.411  0.4116 -0.0541 -0.3711
 1541W        W 2538   2.212   5.709   5.592  0.0690  0.1560  0.2043
 1542W        W 2539   4.360   2.068   3.736  0.1047  0.0337 -0.2022
 1543W        W 2540   2.414   7.033   0.667 -0.0068 -0.0420 -0.1562
 1544W        W 2541   7.644   0.437   0.544  0.2572  0.1382 -0.1609
 1545W        W 2542   0.163   1.709   4.448  0.0576  0.2738 -0.0320
 1546W        W 2543   3.234   6.682   0.142 -0.1012 -0.0369 -0.0177
 1547W        W 2544   3.797   2.247   4.603  0.0940 -0.2493  0.0992
 1548W        W 2545   2.960   3.613   3.204  0.2102 -0.2504 -0.2345
 1549W        W 2546   2.287   1.377   7.449 -0.0249  0.0772 -0.1877
 1550W        W 2547   0.094   3.462   3.480  0.2781  0.1776 -0.0739
 1551W        W 2548   4.123   7.434   3.304  0.1753 -0.1611 -0.0315
 1552W        W 2549   7.415   5.072   2.310  0.1559  0.1534 -0.0109
 1553W        W 2550   1.802   5.859   4.136 -0.2497  0.1921 -0.2412
 1554W        W 2551   3.349   6.102   1.127 -0.3190 -0.0107  0.0474
 1555W        W 2552   2.165   5.348   2.557 -0.2026 -0.1222 -0.0293
 1556W        W 2553   3.091   2.309   1.421  0.0242 -0.4559 -0.0423
 1557W        W 2554   1.806   2.816   4.756  0.0419 -0.0416  0.1297
 1558W        W 2555   1.851   1.040   5.048  0.1427 -0.3786 -0.1872
 1559W        W 2556   1.569   4.234   0.186  0.5710  0.0392 -0.2912
 1560W        W 2557   4.649   5.460   1.437 -0.0873 -0.3551  0.0346
 1561W        W 2558   6.729   0.687   3.118  0.0573  0.1098 -0.0665
 1562W        W 2559   7.526   3.473   5.626  0.0120  0.0804  0.3223
 1563W        W 2560   4.745   6.049   1.136 -0.0147  0.1224 -0.2648
 1564W        W 2561   1.586   0.855   5.483 -0.2908 -0.2777 -0.0876
 1565W        W 2562   4.730   4.542   0.985 -0.1430 -0.1283  0.2792
 1566W        W 2563   4.509   4.146   1.964 -0.0364  0.1227 -0.1947
 1567W        W 2564   6.997   3.688   5.110 -0.3118 -0.1467  0.3317
 1568W        W 2565   0.683   7.290   0.851  0.1090 -0.1314  0.0617
 1569W        W 2566   4.303   0.001   1.561 -0.0965  0.1089 -0.1642
 1570W        W 2567   1.907   3.933   6.572  0.1196  0.4095 -0.1138
 1571W        W 2568   2.047   0.125   0.897  0.1032 -0.2998 -0.1918
 1572W        W 2569   5.094   1.412   5.713  0.0650 -0.1900  0.0378
 1573W        W 2570   3.819   4.560   7.417 -0.2969  0.1684  0.2075
 1574W        W 2571   6.943   4.247   1.247 -0.0166 -0.0884  0.0760
 1575W        W 2572   5.414   2.377   2.689 -0.1357  0.2015  0.2019
 1576W        W 2573   3.648   5.983   6.743  0.1433 -0.2311 -0.1240
 1577W        W 2574   5.144   7.456   6.065 -0.2398  0.1510  0.0426
 1578W        W 2575   4.056   4.135   3.810 -0.1856  0.2137  0.1511
 1579W        W 2576   3.644   2.776   1.503  0.1023  0.2890 -0.1186
 1580W        W 2577   4.718   4.045   3.066  0.1140  0.1331 -0.0392
 1581W        W 2578   3.886   6.225   2.462  0.1452 -0.2424  0.0559
 1582W        W 2579   4.026   6.607   0.728  0.1041  0.1280  0.0355
 1583W        W 2580   2.961   4.999   0.278 -0.1868  0.0742  0.0509
 1584W        W 2581   1.536   2.910   2.823 -0.0428  0.2030  0.0409
 1585W        W 2582   2.155   7.158   3.507  0.0721  0.0337 -0.3003
 1586W        W 2583   0.844   5.756   1.074 -0.1979 -0.0861 -0.0754
 1587W        W 2584   1.025   2.808   3.798 -0.0037  0.0701 -0.1504
 1588W        W 2585   1.118   4.018   0.067 -0.1047  0.0679 -0.0444
 1589W        W 2586   7.603   3.094   4.725  0.3800  0.1431 -0.1221
 1590W        W 2587   2.746   2.849   0.928 -0.0501 -0.2858  0.0066
 1591W        W 2588   0.854   6.391   2.270  0.1584  0.3159  0.1503
 1592W        W 2589   0.812   6.307   6.874  0.4196  0.1912  0.3646
 1593W        W 2590   1.738   1.958   4.575  0.0500 -0.0375  0.3683
 1594W        W 2591   4.631   1.227   3.345  0.0686  0.0722  0.3312
 1595W        W 2592   1.926   5.076   0.743 -0.1032  0.1853 -0.2054
 1596W        W 2593   1.670   2.421   5.432  0.2765 -0.0514  0.1079
 1597W        W 2594   6.557   3.090   7.500  0.2723 -0.0938 -0.0689
 1598W        W 2595   7.237   3.314   0.693 -0.1618  0.0336 -0.1635
 1599W        W 2596   0.720   7.148   0.374 -0.2713 -0.0261 -0.0122
 1600W        W 2597   5.178   7.660   2.088 -0.1531 -0.0349 -0.0695
 1601W        W 2598   1.861   6.822   3.203  0.5358  0.2494 -0.1047
 1602W        W 2599   3.097   5.482   0.120 -0.0178 -0.0292  0.1787
 1603W        W 2600   0.525   0.293   4.870  0.0124  0.2106  0.0682
 1604W        W 2601   3.506   6.169   2.759  0.0522  0.1769  0.0849
 1605W        W 2602   4.689   2.447   4.781  0.0326  0.0406  0.2019
 1606W        W 2603   3.322   7.321   6.052  0.1053  0.0952  0.1418
 1607W        W 2604   2.297   2.667   0.766  0.3441 -0.2852  0.1923
 1608W        W 2605   2.900   6.119   7.311  0.1656 -0.0445 -0.0660
 1609W        W 2606   2.203   1.772   3.988  0.0817  0.0794  0.1014
 1610W        W 2607   2.560   7.398   2.420 -0.1957  0.1940 -0.1647
 1611W        W 2608   4.986   3.155   2.052  0.2768  0.1809 -0.2860
 1612W        W 2609   3.199   5.552   1.373 -0.0060 -0.1376  0.1914
 1613W        W 2610   4.938   0.592   1.256 -0.0286 -0.1243 -0.0883
 1614W        W 2611   5.752   1.128   6.020 -0.0572  0.0283  0.3207
 1615W        W 2612   5.704   0.147   0.634  0.2600  0.0829 -0.0578
 1616W        W 2613   7.071   1.146   1.555 -0.1164 -0.2130 -0.0071
 1617W        W 2614   5.076   2.738   0.882 -0.3522 -0.1879 -0.0558
 1618W        W 2615   3.928   5.281   2.581 -0.1700 -0.0800 -0.1583
 1619W        W 2616   6.395   0.143   3.072 -0.0284 -0.2416  0.0674
 1620W        W 2617   5.138   3.391   1.616  0.2896 -0.1720 -0.0575
 1621W        W 2618   2.761   4.642   7.390 -0.2778 -0.3965  0.0780
 1622W        W 2619   7.190   4.196   2.329 -0.1462 -0.1270 -0.1426
 1623W        W 2620   3.047   7.033   5.286  0.0286 -0.0237 -0.3680
 1624W        W 2621   5.103   5.441   2.943 -0.3090 -0.0370 -0.0207
 1625W        W 2622   6.303   1.834   3.800  0.0822 -0.0883 -0.2978
 1626W        W 2623   3.856   1.700   7.029 -0.0352  0.2846 -0.1426
 1627W        W 2624   2.016   1.076   4.572  0.0128 -0.2545  0.1846
 1628W        W 2625   7.451   2.838   1.361  0.0632 -0.3489  0.0866
 1629W        W 2626   2.037   2.608   7.486  0.1701  0.0429 -0.0313
 1630W        W 2627   3.437   4.245   7.216  0.0143 -0.1867 -0.1385
 1631W        W 2628   7.147   3.505   4.257 -0.2088 -0.0621  0.1535
 1632W        W 2629   5.229   1.097   7.436  0.2439  0.2847  0.2420
 1633W        W 2630   2.821   4.780   5.985  0.1769  0.0038  0.1200
 1634W        W 2631   3.465   3.305   4.297  0.1916 -0.3833 -0.1159
 1635W        W 2632   2.474   7.479   0.363  0.0065 -0.0627  0.2238
 1636W        W 2633   4.061   1.640   4.757  0.4561  0.1354 -0.0870
 1637W        W 2634   0.983   6.887   3.313 -0.0293  0.2195 -0.0867
 1638W        W 2635   6.981   0.083   0.105  0.1997  0.0390  0.2671
 1639W        W 2636   2.401   0.903   5.779  0.0317 -0.1392 -0.1087
 1640W        W 2637   5.431   2.623   0.508  0.1102  0.0051  0.0520
 1641W        W 2638   3.565   2.383   6.415  0.0215  0.1602  0.0458
 1642W        W 2639   1.324   1.275   7.230 -0.4076 -0.2016 -0.3047
 1643W        W 2640   5.970   2.745   2.355 -0.1141  0.0788 -0.0470
 1644W        W 2641   5.686   2.739   7.023 -0.0527 -0.2949 -0.3186
 1645W        W 2642   4.367   0.765   0.079  0.0810  0.1344  0.0128
 1646W        W 2643   1.471   0.668   5.953 -0.1669 -0.2127 -0.0308
 1647W        W 2644   3.052   3.971   2.722  0.1683  0.2091  0.0068
 1648W        W 2645   1.215   2.921   3.251 -0.2440  0.1238 -0.0901
 1649W        W 2646   0.981   4.747   2.779 -0.2375 -0.2931  0.0851
 1650W        W 2647   7.140   0.130   4.065  0.0930 -0.1025 -0.1607
 1651W        W 2648   1.021   0.139   4.618  0.1718 -0.1778 -0.3414
 1652W        W 2649   6.794   1.440   4.963  0.3042  0.1374 -0.1943
 1653W        W 2650   2.778   3.370   2.650 -0.0502  0.0886 -0.1285
 1654W        W 2651   2.433   5.138   4.822  0.3097  0.3374 -0.1180
 1655W        W 2652   4.968   5.757   7.466 -0.2343  0.0120 -0.2365
 1656W        W 2653   2.845   1.147   3.247  0.0058  0.1763 -0.2268
 1657W        W 2654   3.811   5.043   7.647 -0.1240  0.2121 -0.1451
 1658W        W 2655   2.624   4.259   7.051 -0.2555  0.0790 -0.2008
 1659W        W 2656   0.032   7.031   7.537 -0.2346 -0.1528  0.0862
 1660W        W 2657   6.846   2.951   1.128 -0.3276  0.2690 -0.1553
 1661W        W 2658   7.583   1.325   7.557 -0.0988 -0.4026  0.0704
 1662W        W 2659   2.746   2.459   3.530  0.0029  0.1824 -0.1241
 1663W        W 2660   1.686   6.387   5.568  0.4206 -0.2157  0.1081
 1664W        W 2661   2.230   4.986   0.370  0.0722  0.3895 -0.0130
 1665W        W 2662   2.366   6.620   4.161  0.1381  0.0257  0.2268
 1666W        W 2663   4.056   2.160   0.091  0.0085 -0.1706  0.0277
 1667W        W 2664   7.189   0.427   4.461  0.2741 -0.2117  0.1318
 1668W        W 2665   1.444   0.289   1.770  0.4812 -0.0901  0.2819
 1669W        W 2666   4.376   4.709   5.193 -0.0627  0.0186  0.1877
 1670W        W 2667   1.439   7.278   2.401 -0.1779 -0.1585 -0.2233
 1671W        W 2668   4.997   6.746   4.857 -0.0574  0.2541 -0.0797
 1672W        W 2669   2.282   4.543   1.765 -0.0185 -0.0344 -0.1185
 1673W        W 2670   5.973   3.637   6.007  0.0157  0.3155  0.0719
 1674W        W 2671   3.545   7.254   3.862  0.2916 -0.2738 -0.1168
 1675W        W 2672   0.799   3.477   2.045  0.3406 -0.1823 -0.0657
 1676W        W 2673   3.458   2.329   1.827  0.1311 -0.1067  0.1712
 1677W        W 2674   0.778   7.356   4.575 -0.1314  0.1287 -0.1727
 1678W        W 2675   0.445   2.903   7.127  0.3233 -0.0849  0.1469
 1679W        W 2676   2.648   3.808   0.146 -0.0043 -0.2471  0.0050
 1680W        W 2677   2.479   6.174   0.635 -0.0664  0.0363  0.1389
 1681W        W 2678   7.098   0.872   6.951  0.0026  0.0410  0.2714
 1682W        W 2679   6.183   3.710   3.783 -0.0841 -0.0656 -0.1609
 1683W        W 2680   1.664   7.296   0.048 -0.1174 -0.0465 -0.0379
 1684W        W 2681   3.324   7.430   5.520 -0.1095 -0.0540  0.1634
 1685W        W 2682   7.590   1.681   3.757  0.0917  0.2404  0.1270
 1686W        W 2683   5.003   2.261   4.361  0.2045  0.4694  0.1491
 1687W        W 2684   5.494   1.907   1.837  0.0495  0.3605 -0.0668
 1688W        W 2685   0.365   2.431   2.093 -0.1397 -0.1624 -0.0173
 1689W        W 2686   1.156   0.513   6.888 -0.1658  0.1706 -0.0245
 1690W        W 2687   7.406   0.913   1.320  0.0942  0.2344 -0.3243
 1691W        W 2688   1.217   7.047   1.957 -0.3144 -0.1651  0.1467
 1692W        W 2689   3.725   3.729   1.467  0.1317 -0.2480  0.0741
 1693W        W 2690   4.534   3.537   1.281 -0.1448  0.0010 -0.1415
 1694W        W 2691   4.585   1.343   1.885 -0.1376 -0.4967 -0.0126
 1695W        W 2692   1.936   6.250   7.185 -0.1590  0.0028  0.1296
 1696W        W 2693   4.489   0.566   3.874  0.0707 -0.0443  0.1082
 1697W        W 2694   0.106   5.655   7.465  0.5853 -0.0633 -0.3865
 1698W        W 2695   3.131   4.986   2.987 -0.1844  0.2191  0.0420
 1699W        W 2696   0.186   1.191   4.154 -0.3112  0.2408 -0.1768
 1700W        W 2697   3.265   2.899   1.213 -0.0790  0.0876 -0.1373
 1701W        W 2698   1.690   0.663   4.532 -0.0594  0.2531  0.1148
 1702W        W 2699   1.877   5.822   3.603 -0.0036  0.2345  0.2080
 1703W        W 2700   0.185   0.743   3.837 -0.0757 -0.1211 -0.1991
 1704W        W 2701   4.393   6.971   3.426 -0.0437 -0.1026 -0.1702
 1705W        W 2702   2.744   7.102   2.750 -0.1086 -0.2442  0.0302
 1706W        W 2703   6.407   2.791   0.519 -0.0857  0.0754  0.0986
 1707W        W 2704   0.975   7.483   5.054 -0.0477 -0.0356  0.1170
 1708W        W 2705   5.342   6.354   5.755 -0.4588 -0.1997  0.2178
 1709W        W 2706   1.975   4.586   3.067  0.1737 -0.0412  0.2467
 1710W        W 2707   4.081   6.703   1.617 -0.1988 -0.3234 -0.1706
 1711W        W 2708   2.278   3.884   5.125 -0.0300 -0.1233 -0.3164
 1712W        W 2709   3.661   2.867   6.415  0.3353  0.0517 -0.1936
 1713W        W 2710   2.872   6.159   2.041  0.0730 -0.0303  0.4172
 1714W        W 2711   0.785   0.375   7.318 -0.4002 -0.0340 -0.2693
 1715W        W 2712   3.525   5.542   7.079 -0.2024 -0.1693 -0.1867
 1716W        W 2713   1.315   2.827   0.437 -0.0848  0.2947 -0.2478
 1717W        W 2714   3.991   7.450   4.155 -0.1160  0.0280 -0.1926
 1718W        W 2715   5.645   0.104   0.075 -0.0351 -0.0173 -0.6018
 1719W        W 2716   1.660   4.850   2.148  0.1538  0.2484 -0.2833
 1720W        W 2717   3.124   0.869   3.640  0.0541  0.3633 -0.2229
 1721W        W 2718   6.394   0.524   6.400  0.2337  0.0824  0.1138
 1722W        W 2719   5.812   1.745   5.136 -0.1830 -0.0666 -0.0639
 1723W        W 2720   6.909   1.650   5.445  0.5054  0.0599  0.1029
 1724W        W 2721   2.070   6.595   1.550  0.1509 -0.0596  0.1250
 1725W        W 2722   2.395   1.179   0.284 -0.0346 -0.0567  0.0484
 1726W        W 2723   0.599   5.224   1.902  0.0292 -0.3154 -0.0475
 1727W        W 2724   7.509   1.173   3.828 -0.0765  0.0587  0.0116
 1728W        W 2725   6.888   4.780   2.921  0.0645 -0.2772  0.2307
 1729W        W 2726   5.015   7.368   1.160 -0.0000  0.2773  0.1421
 1730W        W 2727   1.881   6.214   5.993  0.1700 -0.0229 -0.0885
 1731W        W 2728   6.481   3.478   6.757  0.2111  0.0876 -0.0518
 1732W        W 2729   4.405   1.527   6.227  0.0688  0.0694  0.0227
 1733W        W 2730   4.430   2.231   5.601  0.0746 -0.2471  0.1287
 1734W        W 2731   1.941   1.793   7.051  0.1355  0.0010  0.0479
 1735W        W 2732   5.904   0.395   3.107  0.2178  0.1399  0.2306
 1736W        W 2733   5.390   4.491   2.423 -0.0372 -0.0443 -0.5594
 1737W        W 2734   2.946   3.064   6.694 -0.3114 -0.1882 -0.0127
 1738W        W 2735   1.999   6.807   5.282 -0.1441 -0.0600 -0.2212
 1739W        W 2736   3.842   3.910   4.224 -0.2220  0.2557  0.4699
 1740W        W 2737   2.955   7.559   0.993  0.2636  0.0246  0.1220
 1741W        W 2738   4.516   6.065   5.691 -0.2386  0.0497  0.4952
 1742W        W 2739   6.333   2.525   6.812  0.2900 -0.1510  0.4832
 1743W        W 2740   7.000   1.112   3.749  0.2431 -0.2841 -0.1099
 1744W        W 2741   6.559   2.011   4.207 -0.0972  0.0999 -0.0847
 1745W        W 2742   6.801   3.209   3.964  0.0043  0.0018  0.0164
 1746W        W 2743   5.188   5.961   0.824 -0.1006  0.0206  0.2109
 1747W        W 2744   7.548   3.516   6.627  0.2213  0.0926 -0.3465
 1748W        W 2745   5.676   5.605   3.400  0.2907  0.1211 -0.3135
 1749W        W 2746   2.148   1.594   2.405 -0.3199 -0.1633 -0.2836
 1750W        W 2747   4.817   1.883   2.015  0.1228  0.0730 -0.3046
 1751W        W 2748   2.656   1.664   6.110  0.0668 -0.2253  0.1696
 1752W        W 2749   4.590   0.916   2.435  0.0022  0.2942  0.2215
 1753W        W 2750   3.398   1.798   3.010 -0.2018  0.0125 -0.1179
 1754W        W 2751   7.002   1.514   3.104 -0.2611 -0.2620  0.0476
 1755W        W 2752   4.519   6.726   6.422 -0.1349  0.0183 -0.0156
 1756W        W 2753   2.655   3.753   5.455 -0.1447  0.0674 -0.4434
 1757W        W 2754   4.677   7.544   2.286  0.1449 -0.0883  0.1929
 1758W        W 2755   2.881   6.753   3.114  0.1203  0.0733  0.0510
 1759W        W 2756   6.728   3.519   4.604 -0.1769  0.0998  0.1763
 1760W        W 2757   1.525   6.007   7.369 -0.2546 -0.3293 -0.2886
 1761W        W 2758   7.430   3.053   6.409 -0.1166 -0.2701  0.2252
 1762W        W 2759   0.802   2.328   3.070 -0.1120  0.3260 -0.0660
 1763W        W 2760   6.348   3.224   0.938 -0.0741  0.2048 -0.1256
 1764W        W 2761   3.969   3.877   2.480 -0.0664  0.1158 -0.1682
 1765W        W 2762   0.581   4.516   0.834 -0.3289  0.2105 -0.4117
 1766W        W 2763   3.874   6.353   7.062 -0.0418 -0.0848  0.2183
 1767W        W 2764   4.931   0.706   0.103 -0.3593 -0.1365 -0.1189
 1768W        W 2765   4.960   4.055   0.072 -0.0448 -0.0740  0.0867
 1769W        W 2766   3.552   2.238   2.806  0.2061  0.2438 -0.2561
 1770W        W 2767   3.925   2.316   5.545 -0.0557  0.1226 -0.1714
 1771W        W 2768   4.322   5.218   0.118  0.0444  0.0367 -0.1190
 1772W        W 2769   0.321   0.776   4.791  0.3093  0.1177  0.2362
 1773W        W 2770   3.596   7.590   4.479  0.1640 -0.1164  0.0245
 1774W        W 2771   4.186   0.651   2.108 -0.5243 -0.3227  0.0944
 1775W        W 2772   2.270   6.966   2.417  0.0167 -0.0375  0.1757
 1776W        W 2773   1.998   2.386   1.024  0.0099 -0.0992 -0.5988
 1777W        W 2774   1.359   2.904   2.301 -0.1647 -0.1336 -0.0488
 1778W        W 2775   7.639   7.469   6.919  0.0303  0.1865 -0.1265
 1779W        W 2776   4.343   2.734   7.023 -0.0182  0.0763  0.0328
 1780W        W 2777   4.429   4.854   4.689  0.0309 -0.0464  0.0388
 1781W        W 2778   6.616   4.522   0.859  0.0201 -0.2240 -0.1283
 1782W        W 2779   5.083   5.651   1.176 -0.2753  0.1191  0.1118
 1783W        W 2780   2.833   0.930   5.440 -0.0517 -0.3330  0.0019
 1784W        W 2781   3.992   0.622   1.664  0.1381  0.0445  0.0846
 1785W        W 2782   2.521   0.501   7.211  0.1608 -0.0956  0.0953
 1786W        W 2783   1.338   1.451   6.232  0.2133  0.1405 -0.3640
 1787W        W 2784   2.076   0.091   5.545 -0.0441 -0.0277 -0.3678
 1788W        W 2785   5.244   1.380   1.336  0.0933 -0.1776 -0.2184
 1789W        W 2786   3.932   2.544   1.951  0.2474 -0.0523  0.2881
 1790W        W 2787   7.571   0.135   3.200  0.0181  0.2327  0.0625
 1791W        W 2788   2.353   2.969   7.636 -0.1830 -0.0506  0.2445
 1792W        W 2789   6.803   2.856   0.196  0.1912  0.0252 -0.1744
 1793W        W 2790   2.291   3.484   2.659 -0.2619 -0.0782 -0.1928
 1794W        W 2791   1.402   6.053   3.461  0.1251  0.0171  0.1936
 1795W        W 2792   7.521   2.075   4.132  0.2404  0.0288 -0.0162
 1796W        W 2793   1.512   1.197   1.265 -0.3320  0.1113 -0.0670
 1797W        W 2794   5.656   2.860   6.228  0.2882  0.1127  0.0561
 1798W        W 2795   5.457   5.765   1.723  0.0547  0.1762  0.1076
 1799W        W 2796   1.142   1.618   1.896  0.3643 -0.1669 -0.1020
 1800W        W 2797   1.248   4.947   4.084  0.0043 -0.1881 -0.1429
 1801W        W 2798   2.212   1.533   6.735  0.1934  0.3117 -0.0165
 1802W        W 2799   0.524   6.315   0.075 -0.1054  0.0439  0.2825
 1803W        W 2800   7.116   1.050   4.777  0.0235 -0.2400 -0.1280
 1804W        W 2801   2.694   7.370   4.289  0.0015 -0.0659 -0.0954
 1805W        W 2802   0.935   0.027   5.795  0.0407 -0.0805 -0.1915
 1806W        W 2803   4.311   7.650   7.431 -0.2573 -0.0408  0.1817
 1807W        W 2804   1.199   2.087   1.146 -0.5573 -0.0582 -0.2474
 1808W        W 2805   6.060   0.179   6.474 -0.0239 -0.0830  0.2390
 1809W        W 2806   4.340   7.055   6.033  0.0014 -0.2855 -0.2962
 1810W        W 2807   1.951   5.316   0.085  0.1008  0.0857 -0.1067
 1811W        W 2808   2.651   7.359   4.849  0.3527 -0.0741  0.1836
 1812W        W 2809   7.653   3.124   0.447  0.0900 -0.0951 -0.2734
 1813W        W 2810   1.660   5.485   2.778  0.1298 -0.0118  0.0144
 1814W        W 2811   5.059   0.633   2.701  0.0773  0.0818 -0.0686
 1815W        W 2812   3.209   6.839   6.691  0.0992 -0.2456  0.1350
 1816W        W 2813   7.027   3.407   6.573  0.1452  0.0700  0.0441
 1817W        W 2814   4.851   2.297   3.853  0.0393  0.1485 -0.0836
 1818W        W 2815   0.040   0.238   4.720  0.2818  0.0656  0.1449
 1819W        W 2816   1.769   6.331   4.900  0.1548  0.0190  0.1482
 1820W        W 2817   4.625   6.774   7.602 -0.0966 -0.3311 -0.1204
 1821W        W 2818   4.534   3.244   0.357  0.0860 -0.1297 -0.4078
 1822W        W 2819   1.729   3.438   4.572  0.0277  0.0764  0.2480
 1823W        W 2820   5.316   6.582   5.281  0.0752  0.0113  0.1356
 1824W        W 2821   1.583   0.517   2.671 -0.0258 -0.0681  0.1686
 1825W        W 2822   5.165   4.864   2.771  0.0597  0.4840  0.3904
 1826W        W 2823   5.120   6.931   1.434  0.0932 -0.1138  0.3160
 1827W        W 2824   5.217   7.367   2.514 -0.0908  0.1549 -0.1509
 1828W        W 2825   1.762   5.497   5.241  0.0476  0.0765 -0.0223
 1829W        W 2826   3.505   4.031   2.337  0.0956  0.1495 -0.0260
 1830W        W 2827   2.584   6.891   5.055 -0.0025  0.0966 -0.2768
 1831W        W 2828   6.899   2.724   4.003  0.0690 -0.0709 -0.2673
 1832W        W 2829   4.527   2.314   0.328  0.1098 -0.1833 -0.3203
 1833W        W 2830   2.369   2.993   1.269  0.1010 -0.1411  0.4263
 1834W        W 2831   4.405   6.043   7.070  0.1764 -0.0238 -0.1183
 1835W        W 2832   7.453   0.656   2.347  0.1756 -0.3632 -0.1539
 1836W        W 2833   0.456   6.824   5.987  0.2794  0.0254  0.0718
 1837W        W 2834   0.488   4.887   3.486  0.2151  0.0422 -0.3338
 1838W        W 2835   2.551   5.367   5.725  0.0818 -0.2856 -0.0755
 1839W        W 2836   2.840   0.647   0.144 -0.3687 -0.0714 -0.1986
 1840W        W 2837   2.114   6.657   5.901  0.0942  0.1339  0.0863
 1841W        W 2838   5.678   3.962   1.962  0.0846 -0.1311 -0.1903
 1842W        W 2839   6.618   1.490   4.446 -0.0848  0.2293 -0.2574
 1843W        W 2840   4.833   5.809   5.337 -0.0123  0.3215 -0.2760
 1844W        W 2841   5.954   3.107   5.019 -0.0726  0.0106  0.1201
 1845W        W 2842   7.337   7.543   6.145  0.1127 -0.0629  0.1098
 1846W        W 2843   1.290   3.706   7.022  0.0092 -0.0271  0.0783
 1847W        W 2844   6.563   2.756   3.585 -0.3834  0.2284  0.3979
 1848W        W 2845   2.286   4.715   3.854 -0.1142  0.3857  0.0470
 1849W        W 2846   4.315   2.765   0.314 -0.1211  0.0055  0.1785
 1850W        W 2847   2.635   4.790   2.240  0.0172  0.3819 -0.0961
 1851W        W 2848   5.008   1.939   6.866 -0.1730 -0.1813  0.2013
 1852W        W 2849   5.166   4.442   7.021 -0.0952  0.0015 -0.1932
 1853W        W 2850   7.312   1.836   5.570 -0.0023 -0.0819  0.0526
 1854W        W 2851   0.177   2.775   1.009  0.0609  0.2126 -0.0363
 1855W        W 2852   3.828   4.103   0.972  0.0219  0.3064 -0.0745
 1856W        W 2853   1.635   5.829   0.484  0.4270  0.2661  0.2022
 1857W        W 2854   6.105   1.675   6.540  0.3014  0.3382 -0.0194
 1858W        W 2855   7.592   2.696   2.116 -0.0705 -0.1714  0.2447
 1859W        W 2856   3.363   4.547   1.548  0.0136  0.1181  0.1200
 1860W        W 2857   1.198   0.640   4.663 -0.2115  0.3385 -0.0956
 1861W        W 2858   2.985   0.505   2.751  0.2497 -0.0473  0.0472
 1862W        W 2859   0.385   3.226   4.444  0.2714 -0.2385 -0.0492
 1863W        W 2860   4.008   5.629   0.039  0.1154 -0.1816 -0.1381
 1864W        W 2861   6.512   3.994   3.043  0.1923  0.0354 -0.3722
 1865W        W 2862   0.850   4.799   1.878 -0.0350  0.1173  0.0049
 1866W        W 2863   2.355   5.505   1.515 -0.0196  0.1179  0.0423
 1867W        W 2864   1.142   3.508   1.672 -0.1750 -0.0518 -0.2744
 1868W        W 2865   7.271   4.558   1.552  0.2636  0.0207  0.1941
 1869W        W 2866   0.000   0.543   5.747 -0.1746 -0.2957  0.3011
 1870W        W 2867   6.136   1.926   5.857  0.2244  0.1809 -0.0074
 1871W        W 2868   2.296   4.231   2.776 -0.0832  0.1339 -0.1521
 1872W        W 2869   3.058   1.299   6.930 -0.0769 -0.1064  0.0501
 1873W        W 2870   5.300   7.122   5.220  0.0002 -0.4196 -0.0392
 1874W        W 2871   7.504   0.622   3.397  0.0398 -0.0846 -0.0081
 1875W        W 2872   3.075   6.635   5.650  0.2469  0.2167 -0.2321
 1876W        W 2873   3.672   0.838   6.341 -0.0700 -0.0337  0.1178
 1877W        W 2874   3.467   4.461   5.563 -0.1556 -0.1583  0.0445
 1878W        W 2875   2.831   7.318   7.015 -0.2724  0.0135  0.1211
 1879W        W 2876   0.928   5.132   0.207 -0.0395 -0.0891 -0.0235
 1880W        W 2877   0.939   2.134   7.480 -0.1180 -0.1634  0.3960
 1881W        W 2878   3.131   5.087   3.617 -0.0346  0.0145 -0.0637
 1882W        W 2879   0.758   2.535   2.437  0.0902 -0.0492  0.3072
 1883W        W 2880   0.837   5.980   3.582 -0.0831 -0.0035 -0.0644
 1884W        W 2881   1.819   6.605   6.366 -0.2241 -0.0141  0.5684
 1885W        W 2882   4.380   5.645   6.757  0.0123  0.1656  0.2232
 1886W        W 2883   1.905   4.939   7.346 -0.2963 -0.2209 -0.1155
 1887W        W 2884   0.372   0.506   3.327 -0.1117 -0.3393 -0.0875
 1888W        W 2885   7.119   7.601   5.368  0.1308 -0.0150  0.1575
 1889W        W 2886   4.512   3.944   6.463 -0.3305 -0.0504  0.0110
 1890W        W 2887   6.535   3.952   4.856 -0.1911 -0.0322  0.3740
 1891W        W 2888   5.585   0.281   1.915  0.1039  0.0075  0.2147
 1892W        W 2889   1.279   3.601   7.525 -0.0549  0.3381 -0.1627
 1893W        W 2890   1.582   6.243   4.391  0.3421  0.2556 -0.0903
 1894W        W 2891   6.581   1.544   5.837  0.0331  0.2201 -0.1964
 1895W        W 2892   4.211   7.255   4.593 -0.2776  0.4442  0.0129
 1896W        W 2893   4.350   5.752   5.395  0.1838  0.1019  0.3510
 1897W        W 2894   6.506   3.269   0.263  0.0499 -0.0146  0.0557
 1898W        W 2895   6.228   2.515   3.826  0.0354 -0.0658 -0.1000
 1899W        W 2896   6.074   1.538   1.740 -0.0330  0.0469 -0.2741
 1900W        W 2897   4.266   2.098   4.658  0.0248 -0.1366  0.2902
 1901W        W 2898   5.368   1.423   2.677 -0.2095 -0.1286 -0.4548
 1902W        W 2899   7.653   4.962   3.617  0.1142  0.3655  0.1906
 1903W        W 2900   4.463   4.253   0.578 -0.1593 -0.0003 -0.1401
 1904W        W 2901   4.745   5.012   1.669 -0.2713 -0.1401  0.0932
 1905W        W 2902   4.278   5.929   1.369  0.1339  0.0826 -0.2106
 1906W        W 2903   2.828   1.098   2.775 -0.0251  0.0715  0.2852
 1907W        W 2904   0.927   0.018   4.161 -0.1738  0.0190 -0.1406
 1908W        W 2905   3.547   2.243   5.124  0.0608 -0.0970  0.0768
 1909W        W 2906   4.178   3.810   1.119 -0.1882  0.1180 -0.6256
 1910W        W 2907   7.631   0.109   4.175  0.1617  0.2083 -0.2584
 1911W        W 2908   6.021   7.624   4.786  0.2628 -0.3268  0.0518
 1912W        W 2909   0.336   3.785   2.638  0.2823  0.1776 -0.2640
 1913W        W 2910   4.554   4.943   5.654 -0.0337  0.4660 -0.0211
 1914W        W 2911   4.572   0.443   7.429 -0.2247  0.1779 -0.1232
 1915W        W 2912   2.974   2.295   1.895 -0.2459  0.0578 -0.4316
 1916W        W 2913   0.735   3.070   1.633 -0.0573 -0.0471 -0.2264
 1917W        W 2914   4.565   3.339   6.711  0.0546 -0.3591 -0.0767
 1918W        W 2915   4.830   3.818   2.204  0.0788  0.1459  0.0372
 1919W        W 2916   5.899   0.746   5.096 -0.0039  0.2137  0.1107
 1920W        W 2917   1.030   0.596   0.820 -0.0312  0.0974  0.0237
 1921W        W 2918   5.915   2.606   0.675 -0.0767  0.0212 -0.3212
 1922W        W 2919   6.226   4.877   0.964 -0.0775  0.1898 -0.0077
 1923W        W 2920   3.963   3.374   0.489  0.2869  0.0596 -0.2185
 1924W        W 2921   4.948   0.778   3.159 -0.1339 -0.1507 -0.2220
 1925W        W 2922   7.428   1.966   4.575 -0.0256  0.0469  0.0548
 1926W        W 2923   6.596   2.370   6.388  0.0651  0.2420  0.1459
 1927W        W 2924   1.347   5.681   4.340 -0.1225 -0.3720  0.2388
 1928W        W 2925   6.813   2.178   2.679  0.1443  0.0741 -0.0652
 1929W        W 2926   0.403   1.411   2.865  0.1736 -0.1700 -0.0440
 1930W        W 2927   3.526   5.292   0.365 -0.3318  0.0958  0.1562
 1931W        W 2928   2.759   3.305   3.685  0.0476  0.2642  0.1269
 1932W        W 2929   6.232   2.941   5.359 -0.2214  0.0970 -0.2238
 1933W        W 2930   7.321   2.102   6.303  0.1326  0.1656 -0.3527
 1934W        W 2931   4.974   2.159   6.021 -0.1842  0.0058 -0.1317
 1935W        W 2932   4.102   3.064   5.959 -0.2265 -0.0528  0.0357
 1936W        W 2933   5.267   2.945   1.659 -0.0202 -0.1059  0.2703
 1937W        W 2934   3.117   4.668   6.962  0.1198  0.3726  0.0948
 1938W        W 2935   1.481   3.825   0.458  0.0517  0.0314  0.1900
 1939W        W 2936   0.555   2.397   5.987 -0.1583 -0.1892 -0.0289
 1940W        W 2937   0.724   0.493   1.255  0.0077  0.0431 -0.0839
 1941W        W 2938   3.156   0.251   0.014  0.0082  0.1726 -0.1486
 1942W        W 2939   0.908   1.460   4.806 -0.0340 -0.0358 -0.0202
 1943W        W 2940   6.939   1.774   6.465  0.1066  0.1202  0.3908
 1944W        W 2941   5.733   1.332   6.691 -0.0918  0.1189 -0.0572
 1945W        W 2942   1.106   1.036   5.697  0.0740 -0.2360  0.0875
 1946W        W 2943   6.122   1.030   6.544  0.1244  0.0898  0.0472
 1947W        W 2944   6.004   3.352   6.909  0.1665 -0.0516 -0.1657
 1948W        W 2945   1.869   3.616   7.438 -0.3035 -0.0667  0.0965
 1949W        W 2946   2.786   5.518   3.541 -0.2745  0.1875 -0.0719
 1950W        W 2947   0.290   0.888   2.699 -0.2222  0.0082  0.0713
 1951W        W 2948   5.082   5.788   2.601  0.0250 -0.1328  0.2030
 1952W        W 2949   5.997   0.430   2.218 -0.3849 -0.3229  0.1657
 1953W        W 2950   2.180   7.320   2.809 -0.0917 -0.0053  0.1803
 1954W        W 2951   7.448   7.464   3.726  0.0016 -0.0451 -0.0552
 1955W        W 2952   4.550   5.071   2.999 -0.1232  0.0260 -0.2710
 1956W        W 2953   5.471   3.956   4.324 -0.1176  0.1263  0.0381
 1957W        W 2954   0.514   2.902   0.586  0.0877  0.1762 -0.2266
 1958W        W 2955   5.235   1.717   2.234  0.0385 -0.1860 -0.2287
 1959W        W 2956   5.403   2.408   3.944 -0.1388  0.0456 -0.0881
 1960W        W 2957   5.887   2.963   1.912  0.1564 -0.0850 -0.2616
 1961W        W 2958   2.774   3.501   1.842  0.3005  0.0876  0.1976
 1962W        W 2959   1.189   2.340   3.586  0.0812 -0.0999  0.3005
 1963W        W 2960   0.669   2.459   1.104 -0.0426  0.0547 -0.1003
 1964W        W 2961   2.177   7.172   1.863  0.2446  0.0961 -0.3637
 1965W        W 2962   3.476   6.920   5.704 -0.0256 -0.1403 -0.0202
 1966W        W 2963   7.357   2.074   1.524 -0.0179 -0.1242  0.3778
 1967W        W 2964   1.665   1.176   4.205 -0.3941  0.1483 -0.1868
 1968W        W 2965   1.192   4.910   1.491 -0.2574  0.0032  0.0608
 1969W        W 2966   6.270   7.256   4.991  0.0312 -0.0581  0.0178
 1970W        W 2967   2.955   0.654   5.876  0.0836 -0.2056 -0.1604
 1971W        W 2968   2.832   7.391   6.271 -0.0836  0.1470 -0.3092
 1972W        W 2969   7.441   0.466   1.488 -0.1042  0.1879  0.0821
 1973W        W 2970   4.861   0.861   4.288 -0.0067  0.1309 -0.1586
 1974W        W 2971   4.817   3.451   0.778 -0.2132  0.0165 -0.2841
 1975W        W 2972   3.533   5.468   4.606 -0.0423 -0.1283 -0.0874
 1976W        W 2973   2.189   1.680   0.161 -0.0819  0.2062 -0.1829
 1977W        W 2974   6.804   4.553   4.206  0.4471 -0.5634 -0.0101
 1978W        W 2975   5.589   4.326   0.797 -0.2681 -0.1808  0.3166
 1979W        W 2976   6.364   3.329   5.787 -0.0820  0.1523  0.2596
 1980W        W 2977   1.089   0.024   6.393  0.3021 -0.0114  0.1343
 1981W        W 2978   7.583   2.114   2.497 -0.1486  0.0811  0.0148
 1982W        W 2979   1.364   5.803   5.194 -0.1633 -0.0077  0.2267
 1983W        W 2980   0.917   1.856   5.463  0.0377  0.3037 -0.3180
 1984W        W 2981   2.489   6.339   1.776 -0.0723 -0.0832  0.2932
 1985W        W 2982   1.138   1.891   0.636 -0.0964  0.1150 -0.1035
 1986W        W 2983   2.870   3.721   1.198 -0.3485  0.2369  0.1472
 1987W        W 2984   5.275   1.478   3.604  0.2031 -0.0632  0.0267
 1988W        W 2985   2.644   6.354   5.709  0.0928  0.2106  0.0808
 1989W        W 2986   0.289   1.476   5.967 -0.0712  0.0015  0.0680
 1990W        W 2987   5.022   0.762   6.633 -0.0812 -0.0200  0.0040
 1991W        W 2988   2.338   6.269   6.241 -0.0464 -0.2631 -0.2099
 1992W        W 2989   0.394   4.895   0.533 -0.3965  0.0664 -0.0095
 1993W        W 2990   5.491   2.178   5.444  0.1653 -0.0001  0.0654
 1994W        W 2991   3.862   6.519   7.627  0.0477 -0.2410 -0.2019
 1995W        W 2992   2.586   2.192   1.583 -0.1402  0.0160 -0.2253
 1996W        W 2993   2.171   6.248   5.576  0.1075  0.0636 -0.0387
 1997W        W 2994   0.936   6.964   6.446 -0.2085 -0.0177 -0.0035
 1998W        W 2995   3.554   2.298   0.069  0.1768 -0.0574 -0.2124
 1999W        W 2996   2.685   2.281   4.878 -0.2844  0.1451 -0.1747
 2000W        W 2997   3.721   5.298   1.502 -0.2548  0.3408  0.2063
 2001W        W 2998   1.251   5.928   3.942 -0.0051  0.1082  0.1908
 2002W        W 2999   0.153   0.269   3.704  0.0302  0.2314 -0.2109
 2003W        W 3000   1.007   4.754   1.037  0.2317  0.0324 -0.1900
 2004W        W 3001   7.473   1.252   2.180 -0.2691 -0.3127 -0.0069
 2005W        W 3002   0.678   0.860   3.641 -0.0881  0.0659 -0.0380
 2006W        W 3003   0.247   4.082   0.742 -0.2976  0.0499 -0.1299
 2007W        W 3004   3.258   7.616   3.660  0.0984  0.3816 -0.2308
 2008W        W 3005   2.870   4.177   1.416 -0.1112 -0.0270  0.1844
 2009W        W 3006   0.018   6.017   0.764 -0.0796 -0.0554 -0.0400
 2010W        W 3007   5.096   5.001   0.364 -0.1510 -0.2926  0.0589
 2011W        W 3008   5.086   2.443   0.119 -0.1223 -0.0310  0.0584
 2012W        W 3009   2.015   3.068   3.845  0.0957  0.0003 -0.2694
 2013W        W 3010   6.828   3.816   0.056 -0.0166  0.0424 -0.2872
 2014W        W 3011   2.854   0.061   1.514 -0.0960 -0.2230  0.4090
 2015W        W 3012   7.620   3.506   7.211  0.0226 -0.1375 -0.1702
 2016W        W 3013   0.525   0.793   0.794 -0.2081  0.1821 -0.0381
 2017W        W 3014   4.690   4.786   2.594 -0.0549  0.3496  0.3225
 2018W        W 3015   1.108   6.297   4.326  0.3704  0.0137  0.0402
 2019W        W 3016   3.348   1.550   2.006 -0.0708  0.1388  0.0564
 2020W        W 3017   1.087   0.646   1.911 -0.0843 -0.0983  0.0362
 2021W        W 3018   0.885   5.499   2.172 -0.0336  0.2865 -0.1785
 2022W        W 3019   3.258   2.552   3.572  0.1965 -0.1974 -0.1214
 2023W        W 3020   1.735   7.457   6.983 -0.4294  0.1116  0.0459
 2024W        W 3021   3.355   3.576   0.358 -0.0998 -0.1838  0.0812
 2025W        W 3022   0.430   2.792   5.740 -0.1938 -0.3453  0.0263
 2026W        W 3023   3.296   5.789   0.446  0.0814  0.0591  0.1111
 2027W        W 3024   0.748   1.435   0.581  0.1137  0.1821  0.2351
 2028W        W 3025   4.432   3.185   2.040  0.0274 -0.4554 -0.0703
 2029W        W 3026   2.030   7.642   6.620 -0.1662  0.3043 -0.1944
 2030W        W 3027   2.052   0.663   2.372  0.2333  0.1364  0.2855
 2031W        W 3028   2.951   0.006   6.682  0.0639  0.2257  0.0622
 2032W        W 3029   3.452   5.601   5.471  0.1550  0.0423  0.2249
 2033W        W 3030   1.708   0.536   3.161 -0.0407 -0.0341 -0.0774
 2034W        W 3031   1.177   0.933   5.180 -0.0189  0.0803 -0.2983
 2035W        W 3032   1.384   1.596   0.973  0.4068 -0.0991 -0.1522
 2036W        W 3033   6.083   2.604   6.265  0.1896 -0.3109  0.1393
 2037W        W 3034   4.340   3.976   5.820  0.0387 -0.0566  0.0721
 2038W        W 3035   4.267   2.347   5.143  0.1308  0.0717 -0.0146
 2039W        W 3036   3.664   2.999   2.043 -0.0956  0.4078 -0.0610
 2040W        W 3037   0.219   2.120   3.796 -0.2804 -0.1390 -0.1843
 2041W        W 3038   1.655   1.104   0.544 -0.1653 -0.0796  0.0623
 2042W        W 3039   3.447   1.233   3.290 -0.0916 -0.0673  0.3928
 2043W        W 3040   6.133   2.935   0.099  0.1271 -0.1641  0.1773
 2044W        W 3041   1.487   3.319   3.115 -0.1413  0.0370  0.0044
 2045W        W 3042   3.527   2.108   3.340  0.0885 -0.1844 -0.2582
 2046W        W 3043   4.700   0.973   7.399 -0.1263  0.0244 -0.2271
 2047W        W 3044   0.303   6.552   6.861  0.0522 -0.2759  0.0483
 2048W        W 3045   1.445   5.090   0.896  0.0684  0.4051  0.1193
 2049W        W 3046   7.368   0.370   5.271 -0.1461 -0.0912  0.2543
 2050W        W 3047   5.304   3.969   7.026  0.0708 -0.2119  0.4394
 2051W        W 3048   3.665   4.194   6.402 -0.0599 -0.1391 -0.3078
 2052W        W 3049   2.405   3.350   2.221 -0.0970  0.0325 -0.1384
 2053W        W 3050   6.727   3.789   2.655 -0.0722 -0.2777 -0.1918
 2054W        W 3051   0.325   4.119   3.022 -0.0764 -0.0905  0.0347
 2055W        W 3052   2.561   1.874   1.943  0.1672 -0.1380  0.0898
 2056W        W 3053   4.680   4.982   6.170  0.1095  0.1115 -0.0535
 2057W        W 3054   3.391   1.234   3.822 -0.1564  0.2434  0.2391
 2058W        W 3055   5.472   4.415   4.686  0.0527  0.0413  0.3048
 2059W        W 3056   7.376   2.865   0.829 -0.0951  0.0658  0.0829
 2060W        W 3057   0.157   0.831   7.073  0.0174  0.2857 -0.0677
 2061W        W 3058   3.945   5.914   3.243 -0.1643 -0.1003 -0.3818
 2062W        W 3059   3.145   1.546   6.083  0.0148  0.0243  0.3024
 2063W        W 3060   2.997   2.615   2.362 -0.2126 -0.2996 -0.0585
 2064W        W 3061   5.206   1.497   7.106 -0.0157 -0.0978 -0.0106
 2065W        W 3062   1.009   4.446   4.048 -0.0183 -0.3833 -0.0502
 2066W        W 3063   2.580   5.838   5.896 -0.0945 -0.0844 -0.2187
 2067W        W 3064   1.190   5.879   1.461 -0.2939  0.1253 -0.2535
 2068W        W 3065   2.788   1.664   5.114 -0.1241  0.0221 -0.0717
 2069W        W 3066   0.212   2.247   2.936 -0.0910  0.0584  0.1544
 2070W        W 3067   2.406   7.285   5.285  0.2992 -0.2797 -0.4379
 2071W        W 3068   4.659   5.730   0.738  0.0776  0.2159  0.0626
 2072W        W 3069   3.546   4.555   1.038 -0.0255  0.1668  0.1679
 2073W        W 3070   5.739   3.004   1.463  0.2488  0.2669  0.0773
 2074W        W 3071   4.889   1.079   6.943  0.0453 -0.4191  0.0250
 2075W        W 3072   4.668   5.708   2.277 -0.0192 -0.0724  0.0043
 2076W        W 3073   2.679   3.078   7.149 -0.0225  0.0896 -0.1528
 2077W        W 3074   4.053   4.502   4.736  0.1102 -0.0841 -0.4113
 2078W        W 3075   2.080   2.400   5.144 -0.0279  0.0185  0.2084
 2079W        W 3076   2.648   3.663   4.046  0.2141 -0.2538 -0.0471
 2080W        W 3077   7.474   1.223   5.760  0.1371 -0.0553  0.0114
 2081W        W 3078   4.670   6.507   4.157  0.0010 -0.1582 -0.0536
 2082W        W 3079   0.647   0.713   6.960 -0.0821 -0.1321 -0.2048
 2083W        W 3080   4.375   3.223   3.093  0.1719  0.0542 -0.1504
 2084W        W 3081   3.818   3.726   5.019 -0.0301  0.0169  0.3254
 2085W        W 3082   3.789   3.060   2.542 -0.0637 -0.1429  0.0468
 2086W        W 3083   0.720   6.798   6.936 -0.3753 -0.2063  0.0729
 2087W        W 3084   4.162   4.201   5.095 -0.2190 -0.2257 -0.3620
 2088W        W 3085   0.733   3.659   0.031 -0.1593 -0.3463  0.0985
 2089W        W 3086   2.764   4.605   3.490  0.0636  0.0725  0.0127
 2090W        W 3087   4.654   0.345   5.971 -0.2856 -0.0818  0.0655
 2091W        W 3088   0.927   1.851   4.450 -0.2481  0.0043  0.3653
 2092W        W 3089   3.133   5.913   6.792  0.1790 -0.1315 -0.2838
 2093W        W 3090   3.311   6.876   1.307 -0.3238 -0.0928 -0.1160
 2094W        W 3091   7.080   7.426   0.443 -0.0344 -0.0686  0.0607
 2095W        W 3092   4.663   1.991   6.369  0.0099 -0.0304 -0.0052
 2096W        W 3093   0.809   3.499   4.161 -0.2324 -0.2645  0.0963
 2097W        W 3094   3.069   3.625   4.538 -0.2041 -0.0712 -0.1759
 2098W        W 3095   0.516   4.630   2.663  0.1597  0.1480  0.1312
 2099W        W 3096   3.150   6.860   4.774 -0.0751 -0.1855  0.0989
 2100W        W 3097   0.296   5.213   1.509  0.2933  0.0223  0.2777
 2101W        W 3098   4.258   5.993   2.852  0.1687  0.2881  0.0015
 2102W        W 3099   4.431   7.325   1.923  0.2250 -0.2097  0.0158
 2103W        W 3100   3.254   2.625   5.466 -0.2884  0.0631 -0.0618
 2104W        W 3101   0.427   0.655   6.098 -0.0793 -0.2855  0.0240
 2105W        W 3102   2.516   4.676   1.235 -0.4687 -0.1479 -0.2071
 2106W        W 3103   5.524   2.340   7.365  0.1942  0.4052  0.1410
 2107W        W 3104   0.293   3.013   3.378  0.0971  0.2880  0.1917
 2108W        W 3105   4.734   6.354   1.949  0.3220  0.0570 -0.0872
 2109W        W 3106   1.135   7.060   5.448 -0.0139  0.1337 -0.1205
 2110W        W 3107   3.880   4.799   5.536 -0.0850 -0.3621  0.0319
 2111W        W 3108   1.909   5.239   6.113 -0.0772  0.0070  0.0466
 2112W        W 3109   2.854   1.166   5.971  0.2023  0.0566  0.2402
 2113W        W 3110   7.062   3.206   5.341 -0.2388 -0.2051 -0.0413
 2114W        W 3111   1.324   7.349   1.536 -0.1362 -0.2194 -0.0507
 2115W        W 3112   3.282   0.890   2.500 -0.2629 -0.0376 -0.3278
 2116W        W 3113   2.053   3.370   1.151  0.0783  0.0997 -0.2825
 2117W        W 3114   5.295   1.327   0.768 -0.0711 -0.1729 -0.2385
 2118W        W 3115   2.428   3.020   5.320  0.2501 -0.2425  0.0839
 2119W        W 3116   6.533   0.125   6.036 -0.0839 -0.2079 -0.2896
 2120W        W 3117   0.860   3.124   0.219 -0.0477  0.1788  0.2266
 2121W        W 3118   1.926   3.007   3.360 -0.0460  0.1239  0.0117
 2122W        W 3119   6.504   1.627   7.071 -0.1450  0.0715  0.1195
 2123W        W 3120   1.678   4.093   2.275  0.1085  0.1836  0.0655
 2124W        W 3121   3.794   0.716   7.143 -0.1131 -0.0330 -0.1150
 2125W        W 3122   1.094   6.407   3.755  0.0105  0.0024 -0.0002
 2126W        W 3123   2.116   0.866   1.864  0.2707 -0.0093 -0.0149
 2127W        W 3124   4.861   1.573   5.196 -0.3238  0.3632  0.1839
 2128W        W 3125   2.661   3.350   5.743  0.1700  0.0731 -0.0384
 2129W        W 3126   1.967   2.903   6.477  0.0619  0.0768  0.3971
 2130W        W 3127   6.868   7.556   3.020 -0.0533 -0.1649 -0.4695
 2131W        W 3128   3.183   0.622   1.536 -0.0171  0.2111  0.1033
 2132W        W 3129   6.814   0.889   1.928 -0.1825  0.2087  0.3186
 2133W        W 3130   6.188   3.526   7.353  0.1154 -0.0838 -0.1064
 2134W        W 3131   5.368   0.488   3.106 -0.2170  0.0680 -0.1792
 2135W        W 3132   1.636   6.830   0.688 -0.0970  0.0901  0.3647
 2136W        W 3133   2.610   6.804   1.606 -0.1929  0.1742  0.0136
 2137W        W 3134   3.635   5.272   4.158  0.2136 -0.2766 -0.2742
 2138W        W 3135   4.743   6.527   1.433  0.1380  0.1719  0.1363
 2139W        W 3136   4.022   2.679   7.522 -0.1053  0.0447 -0.0376
 2140W        W 3137   5.643   7.618   2.252  0.0114 -0.1572 -0.0334
 2141W        W 3138   6.729   0.217   4.363  0.0338 -0.2325  0.2297
 2142W        W 3139   5.992   1.093   2.028 -0.0717 -0.0595  0.1493
 2143W        W 3140   6.120   1.271   7.011 -0.4272  0.0091  0.2820
 2144W        W 3141   4.393   3.133   7.551  0.3178  0.4865  0.1097
 2145W        W 3142   2.124   5.285   3.974  0.2140  0.1278  0.0340
 2146W        W 3143   1.647   0.837   1.655  0.0420  0.2495  0.0477
 2147W        W 3144   2.160   5.531   1.027  0.0351  0.1293  0.1193
 2148W        W 3145   5.053   1.688   1.002 -0.0220 -0.0761  0.5417
 2149W        W 3146   5.950   0.294   3.758  0.2795  0.1067 -0.2488
 2150W        W 3147   4.073   6.903   5.588  0.2908  0.1686 -0.0301
 2151W        W 3148   6.940   7.371   7.430 -0.1025  0.1037  0.2218
 2152W        W 3149   3.607   0.434   6.733 -0.3205 -0.3893  0.0841
 2153W        W 3150   3.256   2.452   5.940 -0.1094 -0.2696  0.0333
 2154W        W 3151   5.793   0.795   1.208 -0.0641 -0.3121  0.1361
 2155W        W 3152   6.587   2.354   1.232  0.0178 -0.1586 -0.0699
 2156W        W 3153   3.010   7.109   2.334 -0.0255  0.1886  0.2368
 2157W        W 3154   5.831   7.269   4.473  0.0968  0.1675  0.1926
 2158W        W 3155   6.714   2.365   0.340 -0.1579  0.2106 -0.0516
 2159W        W 3156   1.329   1.027   0.016  0.0842  0.2460 -0.3487
 2160W        W 3157   4.178   2.803   2.309  0.4816 -0.1168 -0.1581
 2161W        W 3158   0.534   2.251   0.163 -0.2360  0.1165 -0.0607
 2162W        W 3159   1.607   6.727   5.914 -0.1613 -0.2669  0.0915
 2163W        W 3160   2.659   5.651   2.510 -0.1790 -0.1207 -0.0683
 2164W        W 3161   4.554   2.464   2.355 -0.1388  0.1719  0.0102
 2165W        W 3162   6.015   4.384   0.308 -0.2079  0.2296  0.0805
 2166W        W 3163   4.141   0.076   3.726  0.0175  0.5954  0.1915
 2167W        W 3164   0.261   3.905   3.471  0.1316 -0.2509  0.2869
 2168W        W 3165   2.793   5.906   0.338  0.3417 -0.0746  0.0588
 2169W        W 3166   4.692   0.520   0.528 -0.1376  0.1427 -0.1348
 2170W        W 3167   3.485   5.055   5.371 -0.0365  0.1064  0.1243
 2171W        W 3168   2.753   0.210   0.449 -0.1222  0.0647 -0.2197
 2172W        W 3169   1.797   4.974   2.605  0.0044  0.0705  0.3063
 2173W        W 3170   0.504   1.980   4.179 -0.2645 -0.1737 -0.0306
 2174W        W 3171   7.482   2.545   4.509 -0.0041  0.4833  0.0313
 2175W        W 3172   4.735   3.034   1.613 -0.1385  0.0851  0.0842
 2176W        W 3173   2.696   0.205   4.757  0.0713  0.0464  0.0529
 2177W        W 3174   5.334   0.937   1.144 -0.0140 -0.2742 -0.1668
 2178W        W 3175   4.550   3.048   6.145  0.0537  0.2308  0.3978
 2179W        W 3176   0.591   7.146   3.802  0.0753  0.0269 -0.1442
 2180W        W 3177   6.040   3.507   0.131 -0.2902  0.2576 -0.0804
 2181W        W 3178   3.735   1.279   4.900  0.1528  0.1235  0.1837
 2182W        W 3179   5.069   6.393   4.512  0.2542 -0.0280  0.2534
 2183W        W 3180   0.566   0.903   4.158  0.1934 -0.0794  0.0409
 2184W        W 3181   5.843   4.819   1.781  0.0165  0.0056 -0.0198
 2185W        W 3182   1.651   7.605   1.226 -0.2022 -0.4413 -0.1448
 2186W        W 3183   3.286   3.081   2.394  0.1798 -0.0021 -0.1026
 2187W        W 3184   4.297   7.254   6.918 -0.0482  0.2133  0.0719
 2188W        W 3185   6.005   0.790   5.641 -0.1972  0.0405 -0.3645
 2189W        W 3186   3.850   6.130   0.809  0.0654 -0.1900 -0.0781
 2190W        W 3187   0.283   7.283   0.272  0.1804  0.1445 -0.0415
 2191W        W 3188   3.959   5.733   6.424 -0.3652  0.3488 -0.0974
 2192W        W 3189   5.285   2.367   1.741  0.0989 -0.0397  0.3900
 2193W        W 3190   3.664   3.093   0.861  0.0025 -0.1527 -0.2687
 2194W        W 3191   7.186   3.485   1.798  0.0189 -0.1443  0.0067
 2195W        W 3192   4.670   3.953   3.616  0.1756  0.0971  0.0601
 2196W        W 3193   3.047   0.006   4.260 -0.2228  0.3986  0.0479
 2197W        W 3194   5.521   4.997   3.464 -0.1517  0.1894 -0.1400
 2198W        W 3195   5.999   4.642   4.193 -0.1614 -0.1726 -0.0481
 2199W        W 3196   2.775   0.072   3.310  0.2437 -0.1058 -0.1962
 2200W        W 3197   2.173   0.489   4.735  0.0065  0.1792  0.1671
 2201W        W 3198   2.579   0.220   1.130  0.0200  0.0892  0.1755
 2202W        W 3199   2.387   3.374   6.178  0.2066 -0.0247 -0.1405
 2203W        W 3200   5.906   1.870   4.665 -0.0966 -0.1034  0.0226
 2204W        W 3201   3.223   2.779   1.866 -0.0655 -0.0061 -0.0893
 2205W        W 3202   3.076   2.411   7.637 -0.0547 -0.1721  0.1211
 2206W        W 3203   2.082   7.145   5.748 -0.1929 -0.1675 -0.0562
 2207W        W 3204   1.979   4.834   6.408 -0.2673 -0.0599 -0.0023
 2208W        W 3205   5.108   1.498   1.790 -0.3003 -0.2613 -0.2498
 2209W        W 3206   2.644   6.598   0.821 -0.0426  0.0894  0.2816
 2210W        W 3207   0.551   1.155   6.171 -0.0220 -0.0706 -0.0311
 2211W        W 3208   4.709   4.097   1.373  0.0454  0.2557 -0.0776
 2212W        W 3209   3.051   6.259   5.970  0.0135 -0.4532  0.0151
 2213W        W 3210   3.360   2.604   4.633  0.1252 -0.1594 -0.1106
 2214W        W 3211   3.091   1.512   4.655 -0.2834  0.0313 -0.2006
 2215W        W 3212   5.715   4.961   1.303 -0.1621  0.1454  0.1680
 2216W        W 3213   1.302   6.026   4.719 -0.0502  0.0263  0.0700
 2217W        W 3214   5.306   0.390   0.370 -0.1619 -0.0396 -0.2139
 2218W        W 3215   6.898   0.706   6.475 -0.2314 -0.2079  0.1171
 2219W        W 3216   3.229   2.808   4.209 -0.2510  0.1281  0.1508
 2220W        W 3217   4.034   0.076   4.653 -0.0392  0.2468 -0.2787
 2221W        W 3218   7.575   2.321   3.427 -0.1608  0.1820  0.0654
 2222W        W 3219   4.472   6.024   7.619 -0.1732  0.0479  0.2691
 2223W        W 3220   1.727   2.071   3.228  0.1185 -0.0236 -0.2100
 2224W        W 3221   2.311   1.305   3.585  0.1755 -0.3148 -0.0492
 2225W        W 3222   0.135   7.559   7.522  0.0271  0.1751  0.2782
 2226W        W 3223   1.358   0.669   3.486 -0.0375  0.3812  0.0313
 2227W        W 3224   2.439   2.109   5.325  0.1145  0.3860  0.1369
 2228W        W 3225   5.369   3.838   7.569  0.1913  0.4849 -0.0101
 2229W        W 3226   1.759   2.497   1.546 -0.2745  0.2659 -0.1909
 2230W        W 3227   1.361   3.745   2.852  0.1330  0.0282  0.2005
 2231W        W 3228   0.308   7.114   7.075  0.2499 -0.0567  0.2166
 2232W        W 3229   5.681   1.954   6.695  0.1174 -0.2377  0.0463
 2233W        W 3230   2.660   5.580   4.786  0.1107 -0.0854  0.0566
 2234W        W 3231   2.064   0.892   3.845 -0.0888 -0.1729  0.1140
 2235W        W 3232   5.999   7.465   0.286 -0.0633 -0.1253 -0.0107
 2236W        W 3233   4.189   2.569   5.918  0.1668  0.2817 -0.0858
 2237W        W 3234   5.493   3.388   4.158 -0.1155  0.0397 -0.0184
 2238W        W 3235   7.552   6.899   6.843  0.3394  0.1557  0.0823
 2239W        W 3236   1.768   4.940   4.039  0.1082 -0.2981 -0.1482
 2240W        W 3237   2.546   1.196   1.465  0.0625 -0.4734 -0.0655
 2241W        W 3238   6.756   4.931   3.422 -0.3001 -0.0392  0.1294
 2242W        W 3239   3.141   6.890   6.165  0.0298  0.0498 -0.1121
 2243W        W 3240   3.531   6.418   5.461  0.0133  0.2079 -0.1324
 2244W        W 3241   0.950   2.039   1.588  0.0302  0.0523 -0.0893
 2245W        W 3242   3.330   0.155   5.215  0.3917  0.1265 -0.0155
 2246W        W 3243   6.031   2.357   3.239 -0.1552  0.1531 -0.2552
 2247W        W 3244   6.642   1.427   3.901  0.2520 -0.3650 -0.0557
 2248W        W 3245   6.143   2.463   4.941 -0.0869  0.0872 -0.2327
 2249W        W 3246   3.639   0.183   0.115 -0.0141 -0.1531  0.0932
 2250W        W 3247   5.754   5.332   2.469 -0.0434  0.0017 -0.0369
 2251W        W 3248   0.360   0.468   2.346  0.0577 -0.0750 -0.0296
 2252W        W 3249   4.520   1.443   4.799 -0.1023  0.1666 -0.0254
 2253W        W 3250   7.630   3.662   1.812 -0.0477 -0.2663  0.1474
 2254W        W 3251   5.620   0.539   4.082  0.1927 -0.0024  0.1111
 2255W        W 3252   3.532   3.232   5.509  0.0746 -0.0628 -0.0727
 2256W        W 3253   1.249   1.375   2.595 -0.2218  0.0006 -0.1417
 2257W        W 3254   2.920   5.786   6.332  0.1134 -0.1084  0.0869
 2258W        W 3255   7.371   2.572   4.024 -0.0877  0.1276 -0.1793
 2259W        W 3256   2.456   0.131   6.534  0.2170 -0.0424  0.0752
 2260W        W 3257   4.660   3.754   4.093  0.2331 -0.1226 -0.2267
 2261W        W 3258   6.704   3.695   1.842  0.0582 -0.1348  0.1728
 2262W        W 3259   4.317   4.399   6.195  0.2653  0.3331 -0.0682
 2263W        W 3260   3.153   5.212   7.007  0.1172  0.2669  0.2433
 2264W        W 3261   4.140   2.669   3.258 -0.0510 -0.1381 -0.0769
 2265W        W 3262   5.583   3.835   6.260  0.2463  0.1544 -0.1769
 2266W        W 3263   6.129   5.179   1.698 -0.1745  0.0484  0.0068
 2267W        W 3264   2.307   1.983   1.152 -0.1432  0.0693 -0.1792
 2268W        W 3265   6.108   1.329   3.831 -0.0433  0.1350 -0.0459
 2269W        W 3266   7.278   1.697   0.556  0.1074 -0.0005 -0.4221
 2270W        W 3267   6.460   1.875   6.185  0.0502 -0.1562 -0.2493
 2271W        W 3268   7.496   3.101   5.928 -0.2896 -0.2008  0.1046
 2272W        W 3269   4.848   5.965   0.347 -0.1430 -0.3504 -0.1807
 2273W        W 3270   0.284   7.594   6.531 -0.0644  0.0113  0.4283
 2274W        W 3271   5.958   3.382   5.517  0.3201 -0.0481  0.1764
 2275W        W 3272   0.625   6.261   3.254  0.3474  0.0149  0.0129
 2276W        W 3273   4.978   0.803   6.074 -0.0516 -0.0185  0.0113
 2277W        W 3274   7.105   0.317   3.076 -0.0720  0.6780  0.0576
 2278W        W 3275   2.076   6.192   2.026  0.1879  0.0673  0.1319
 2279W        W 3276   4.064   2.385   6.370 -0.0122  0.1609 -0.0180
 2280W        W 3277   1.316   6.742   2.397 -0.0537 -0.0150  0.0786
 2281W        W 3278   2.328   5.738   0.206  0.4228 -0.3324  0.0643
 2282W        W 3279   7.371   7.367   0.042  0.1496 -0.0684 -0.0259
 2283W        W 3280   2.292   2.522   0.287  0.2239 -0.1175 -0.1821
 2284W        W 3281   0.423   7.232   2.202  0.0314  0.1665  0.3383
 2285W        W 3282   0.781   1.438   5.698  0.0815 -0.0565 -0.2343
 2286W        W 3283   0.547   1.024   7.355  0.2037  0.4480  0.0351
 2287W        W 3284   2.104   7.584   7.532  0.2268 -0.1945  0.0419
 2288W        W 3285   3.278   2.513   0.429 -0.0059 -0.2547  0.3144
 2289W        W 3286   7.360   2.290   2.956 -0.0914  0.3138 -0.0088
 2290W        W 3287   6.444   0.579   4.562  0.1096  0.1503  0.1329
 2291W        W 3288   4.665   4.709   0.505  0.0692  0.4900  0.0564
 2292W        W 3289   6.619   4.947   2.209 -0.2683 -0.0383  0.2407
 2293W        W 3290   1.907   2.214   0.237  0.1485  0.1069  0.1899
 2294W        W 3291   2.112   4.542   4.724 -0.0223  0.0273  0.1032
 2295W        W 3292   4.343   2.867   4.969  0.0746  0.0144 -0.7598
 2296W        W 3293   1.022   0.848   7.267  0.0610 -0.1446  0.2496
 2297W        W 3294   0.730   3.160   2.939  0.3142 -0.1772 -0.4915
 2298W        W 3295   3.761   3.882   0.444  0.1679  0.0064 -0.0663
 2299W        W 3296   2.880   5.329   0.654 -0.1285  0.1119  0.0911
 2300W        W 3297   5.145   6.242   1.563 -0.3031  0.1861  0.0975
 2301W        W 3298   2.895   6.036   0.947 -0.0700  0.1439  0.0539
 2302W        W 3299   5.092   5.155   5.441 -0.1571  0.1669  0.1632
 2303W        W 3300   2.183   0.869   1.397 -0.3721  0.0062  0.0337
 2304W        W 3301   5.015   0.240   0.842 -0.1629 -0.0607  0.3136
 2305W        W 3302   2.415   6.393   6.846 -0.0867 -0.0928  0.2570
 2306W        W 3303   1.782   3.663   6.974  0.0742 -0.0877  0.2008
 2307W        W 3304   2.362   7.365   1.035 -0.0941 -0.1351  0.0298
 2308W        W 3305   2.430   0.546   2.080 -0.0338  0.0275  0.4096
 2309W        W 3306   7.429   0.716   6.613 -0.1129 -0.0117 -0.0854
 2310W        W 3307   0.844   3.017   2.254  0.0497  0.1477  0.1026
 2311W        W 3308   2.168   5.388   3.466  0.1021  0.1243  0.1436
 2312W        W 3309   1.550   2.784   7.270 -0.0695  0.1822 -0.2182
 2313W        W 3310   4.135   1.848   5.614  0.0623 -0.0955  0.3129
 2314W        W 3311   2.982   1.844   2.199 -0.2517  0.1446  0.1828
 2315W        W 3312   3.270   7.065   7.148  0.1819 -0.0522 -0.0453
 2316W        W 3313   2.196   7.105   7.560 -0.0803 -0.1945  0.0717
 2317W        W 3314   1.237   5.153   4.530 -0.1505  0.0761 -0.0950
 2318W        W 3315   0.738   6.859   2.143 -0.1499  0.1695 -0.0084
 2319W        W 3316   1.710   5.349   2.273 -0.2011  0.1589  0.1225
 2320W        W 3317   5.667   0.815   7.274  0.2281  0.3480 -0.1970
 2321W        W 3318   1.687   6.953   4.733 -0.2261 -0.2905  0.0203
 2322W        W 3319   0.781   2.759   3.364  0.1906 -0.1392  0.2662
 2323W        W 3320   3.550   1.761   4.846 -0.0163  0.0518  0.6436
 2324W        W 3321   0.341   0.326   0.936 -0.0822 -0.2511  0.0095
 2325W        W 3322   3.482   5.491   6.587  0.1017  0.4439 -0.1584
 2326W        W 3323   3.764   4.880   0.713  0.1468  0.1526  0.0165
 2327W        W 3324   0.848   6.574   7.374  0.0442  0.1889 -0.2112
 2328W        W 3325   7.153   3.963   2.927  0.1599 -0.0183  0.0157
 2329W        W 3326   4.002   6.851   2.605 -0.0311 -0.0856 -0.0534
 2330W        W 3327   7.241   4.651   0.614  0.2994  0.2581 -0.1612
 2331W        W 3328   2.099   2.143   1.728 -0.1228  0.0235  0.0513
 2332W        W 3329   6.422   3.165   3.154 -0.0641  0.0986 -0.0583
 2333W        W 3330   4.745   3.715   5.586  0.0848  0.4440  0.1482
 2334W        W 3331   4.517   2.540   0.855  0.0445  0.1782  0.0848
 2335W        W 3332   0.617   1.438   4.323  0.0318 -0.2485 -0.2047
 2336W        W 3333   1.884   5.094   3.053  0.0135  0.1568  0.0619
 2337W        W 3334   7.250   0.430   6.230 -0.0348 -0.2463 -0.5009
 2338W        W 3335   0.293   7.391   5.468  0.0350  0.1598  0.0762
 2339W        W 3336   6.050   2.928   3.334  0.0777  0.2143  0.0859
 2340W        W 3337   2.387   0.447   3.777 -0.0471 -0.0010  0.0117
 2341W        W 3338   3.807   3.236   3.548 -0.0538 -0.1284  0.0973
 2342W        W 3339   2.172   1.373   5.891 -0.0150  0.4083  0.0225
 2343W        W 3340   2.429   5.898   3.343 -0.1600  0.0211  0.0169
 2344W        W 3341   2.074   5.919   0.686  0.0388  0.0406 -0.1351
 2345W        W 3342   1.544   4.450   3.900 -0.1055  0.0135  0.2161
 2346W        W 3343   3.940   1.706   6.101 -0.0260 -0.1676 -0.1443
 2347W        W 3344   2.950   7.087   7.528 -0.1782  0.1779 -0.0070
 2348W        W 3345   7.320   2.957   2.778  0.0780 -0.0007  0.0897
 2349W        W 3346   1.738   0.006   2.751  0.1167 -0.1720  0.0580
 2350W        W 3347   1.296   5.609   2.426 -0.0045 -0.0086 -0.3029
 2351W        W 3348   5.580   5.487   1.292  0.0232 -0.1135 -0.1310
 2352W        W 3349   0.320   3.983   1.591 -0.1557 -0.3041 -0.1701
 2353W        W 3350   7.212   1.046   7.659 -0.0764 -0.1856  0.0160
 2354W        W 3351   0.137   0.971   3.190  0.0473 -0.2618  0.1381
 2355W        W 3352   3.456   3.736   7.198 -0.0717 -0.0584  0.4638
 2356W        W 3353   3.944   1.940   5.116  0.2941  0.2638  0.0336
 2357W        W 3354   3.238   0.008   0.541 -0.0210  0.1200 -0.3160
 2358W        W 3355   2.369   2.882   6.122 -0.1067  0.0013  0.1327
 2359W        W 3356   2.847   6.417   0.364  0.0120 -0.2559  0.1803
 2360W        W 3357   2.115   5.652   2.960 -0.0021 -0.1082 -0.0623
 2361W        W 3358   7.580   1.687   7.068  0.0307 -0.1925 -0.2846
 2362W        W 3359   0.110   3.261   0.955 -0.0446 -0.0672 -0.0803
 2363W        W 3360   2.725   1.638   0.167 -0.1496 -0.2568 -0.1449
 2364W        W 3361   5.578   6.987   1.587 -0.2099  0.0304  0.2298
 2365W        W 3362   1.900   0.438   3.662 -0.2168 -0.1008  0.3256
 2366W        W 3363   2.116   5.185   5.625  0.2858 -0.0704  0.1448
 2367W        W 3364   0.193   3.546   4.762  0.2069  0.2376  0.0143
 2368W        W 3365   3.960   6.852   3.167  0.1846  0.1668  0.1237
 2369W        W 3366   4.216   3.314   2.635  0.0940 -0.1685  0.1970
 2370W        W 3367   3.013   2.370   3.973 -0.1832  0.0592 -0.1082
 2371W        W 3368   3.291   7.325   6.532 -0.0247  0.3001  0.2510
 2372W        W 3369   3.663   2.142   6.889  0.0234 -0.0490 -0.0371
 2373W        W 3370   6.669   1.325   1.334  0.2182 -0.0852  0.0354
 2374W        W 3371   1.133   4.354   3.098 -0.0583  0.2722  0.0410
 2375W        W 3372   2.085   6.687   2.769  0.0215 -0.4782 -0.3707
 2376W        W 3373   3.557   7.308   3.369 -0.2312  0.1309  0.0918
 2377W        W 3374   1.749   3.150   6.057  0.1928 -0.4140 -0.2288
 2378W        W 3375   3.282   5.982   1.747  0.0324  0.1636 -0.2558
 2379W        W 3376   3.921   5.711   4.133  0.0196  0.0238 -0.1200
 2380W        W 3377   6.313   1.719   7.538  0.1018  0.1758 -0.1078
 2381W        W 3378   0.331   2.089   1.509  0.0308  0.1464 -0.1917
 2382W        W 3379   2.250   6.576   4.740 -0.0994 -0.5438  0.3032
 2383W        W 3380   6.207   1.511   4.790 -0.2630  0.2435 -0.0743
 2384W        W 3381   7.582   4.115   2.680 -0.1692  0.2275 -0.0868
 2385W        W 3382   1.643   4.686   1.597 -0.1774 -0.3846  0.0912
 2386W        W 3383   1.699   2.291   2.109 -0.1781  0.0948  0.3144
 2387W        W 3384   2.927   0.359   5.447  0.2733 -0.4473  0.2033
 2388W        W 3385   6.726   2.240   2.149 -0.3369  0.0997 -0.3496
 2389W        W 3386   2.644   1.764   3.585 -0.0808  0.0692 -0.0586
 2390W        W 3387   2.151   2.098   0.635  0.0145 -0.2011  0.1966
 2391W        W 3388   5.830   2.215   3.779 -0.4610 -0.1238 -0.2145
 2392W        W 3389   5.180   3.663   5.953 -0.1601  0.0383  0.2449
 2393W        W 3390   5.467   6.937   4.636 -0.1268 -0.0452 -0.2359
 2394W        W 3391   2.490   5.673   0.690  0.3305  0.0031  0.3319
 2395W        W 3392   3.814   5.073   3.779 -0.0956 -0.0629  0.1372
 2396W        W 3393   1.144   7.463   3.507 -0.3726 -0.2203 -0.0303
 2397W        W 3394   3.829   4.493   6.000  0.1691 -0.2765 -0.2244
 2398W        W 3395   2.163   4.366   6.663  0.0645  0.0316 -0.1403
 2399W        W 3396   6.825   2.125   0.789 -0.1224 -0.0002  0.0539
 2400W        W 3397   3.482   0.479   2.854 -0.2856  0.1917 -0.1007
 2401W        W 3398   5.540   2.245   0.788 -0.5527  0.2207 -0.0294
 2402W        W 3399   1.126   7.040   0.694  0.2673  0.1754  0.0337
 2403W        W 3400   6.147   2.146   6.511 -0.0978 -0.1391 -0.1191
 2404W        W 3401   6.688   1.073   6.181  0.2761 -0.1659 -0.2834
 2405W        W 3402   1.714   2.409   4.457 -0.2527 -0.2343  0.2010
 2406W        W 3403   1.526   5.551   4.825 -0.1184 -0.2483 -0.1234
 2407W        W 3404   2.129   6.216   4.322 -0.1673 -0.0335 -0.0164
 2408W        W 3405   3.146   4.048   5.553  0.1507  0.2348  0.1789
 2409W        W 3406   2.290   6.708   6.485 -0.0332  0.3702  0.1076
 2410W        W 3407   5.257   0.947   3.967  0.4411 -0.0582  0.0757
 2411W        W 3408   4.150   1.768   7.404  0.1657  0.0294 -0.1498
 2412W        W 3409   4.010   6.351   5.725 -0.1934  0.1689 -0.1080
 2413W        W 3410   0.285   4.730   7.608  0.0633  0.1669 -0.4317
 2414W        W 3411   3.399   3.059   6.846  0.1586 -0.0971  0.0478
 2415W        W 3412   0.711   7.264   5.756  0.1090  0.3161  0.2500
 2416W        W 3413   4.188   1.807   6.640  0.1714 -0.1771 -0.0695
 2417W        W 3414   3.656   0.969   2.894 -0.0070 -0.0444 -0.3862
 2418W        W 3415   6.383   2.940   4.099  0.2086  0.0762 -0.2485
 2419W        W 3416   6.314   4.581   3.670  0.1912  0.1076  0.1402
 2420W        W 3417   3.391   3.437   1.206 -0.0657 -0.2642 -0.3476
 2421W        W 3418   2.125   6.271   3.830 -0.2502  0.2357  0.2819
 2422W        W 3419   4.078   4.138   2.980  0.2077  0.1837  0.0494
 2423W        W 3420   1.780   5.792   0.026 -0.0620 -0.1638  0.0993
 2424W        W 3421   7.294   2.338   0.763  0.1099 -0.2342  0.1868
 2425W        W 3422   5.465   0.931   6.406  0.0344  0.3746  0.0100
 2426W        W 3423   0.973   5.955   7.330 -0.2039  0.0099 -0.3129
 2427W        W 3424   2.953   1.546   7.379  0.5633 -0.2975  0.3642
 2428W        W 3425   0.728   1.276   1.937 -0.3734 -0.1256  0.1673
 2429W        W 3426   2.868   5.063   1.129  0.2717 -0.0963 -0.0193
 2430W        W 3427   5.631   5.198   0.419  0.0480  0.0599 -0.0534
 2431W        W 3428   4.217   6.785   4.123  0.4778  0.0457  0.0368
 2432W        W 3429   2.254   2.148   3.099  0.2204 -0.0217 -0.2633
 2433W        W 3430   0.521   1.856   4.786 -0.0173 -0.1335  0.0960
 2434W        W 3431   3.459   5.887   3.199  0.0171 -0.0370  0.1056
 2435W        W 3432   5.671   3.350   6.491 -0.0723 -0.1007 -0.4145
 2436W        W 3433   1.875   1.716   1.895  0.0626 -0.1000 -0.3650
 2437W        W 3434   7.335   7.150   7.271 -0.0865 -0.3739 -0.2340
 2438W        W 3435   0.427   1.479   7.464  0.1025 -0.3310  0.2852
 2439W        W 3436   3.653   3.617   3.822  0.0794 -0.2073  0.5178
 2440W        W 3437   2.527   3.959   1.787 -0.0743  0.1263 -0.1013
 2441W        W 3438   1.674   5.875   3.095 -0.0823 -0.2557 -0.4351
 2442W        W 3439   3.575   4.110   3.838  0.2458  0.0270 -0.2594
 2443W        W 3440   2.600   6.396   1.254 -0.1808  0.0370  0.0742
 2444W        W 3441   5.655   1.860   2.523  0.1831 -0.2274 -0.2447
 2445W        W 3442   2.127   5.958   1.542  0.0308  0.0189  0.2686
 2446W        W 3443   2.778   3.374   7.515  0.1723 -0.3475 -0.1028
 2447W        W 3444   1.933   5.413   7.159 -0.1311  0.3037  0.0937
 2448W        W 3445   5.012   6.574   2.702 -0.0305  0.1744  0.1812
 2449W        W 3446   2.272   3.816   0.915  0.1191 -0.2146 -0.3470
 2450W        W 3447   7.429   0.509   3.958  0.2415  0.3356 -0.0052
 2451W        W 3448   3.242   4.364   4.219  0.1029 -0.0067 -0.0738
 2452W        W 3449   7.235   5.050   3.335 -0.1169 -0.4864 -0.0431
 2453W        W 3450   1.725   5.361   4.330  0.2575 -0.0711 -0.1026
 2454W        W 3451   1.377   3.105   4.714 -0.0477 -0.4899  0.1602
 2455W        W 3452   0.922   0.546   6.037 -0.1072  0.5129  0.0485
 2456W        W 3453   1.535   1.561   3.222 -0.0760 -0.0923 -0.1318
 2457W        W 3454   4.890   1.915   0.238 -0.1715  0.0094  0.2253
 2458W        W 3455   4.662   3.876   0.925  0.1727 -0.2977  0.0651
 2459W        W 3456   3.908   0.978   7.561  0.0515  0.1928 -0.1832
 2460W        W 3457   5.572   2.903   2.592  0.0763 -0.1191 -0.1335
 2461W        W 3458   3.031   1.310   2.288  0.0925 -0.0687 -0.3111
 2462W        W 3459   6.219   1.461   2.218 -0.1669  0.1530  0.1749
 2463W        W 3460   6.936   1.167   5.694  0.2664 -0.1009 -0.0204
 2464W        W 3461   7.134   1.387   2.543 -0.0146 -0.0931  0.0502
 2465W        W 3462   7.003   4.108   3.963 -0.0645 -0.1426  0.0129
 2466W        W 3463   0.772   3.925   2.295  0.3026  0.1828 -0.1479
 2467W        W 3464   0.510   3.647   0.779  0.1060 -0.1161 -0.1006
 2468W        W 3465   2.180   5.867   7.255  0.1077 -0.0660  0.0368
 2469W        W 3466   3.555   3.730   5.440  0.2386  0.2405  0.1170
 2470W        W 3467   4.921   6.509   5.935  0.0560  0.0659 -0.0472
 2471W        W 3468   4.757   2.767   0.486 -0.1507  0.1121 -0.1217
 2472W        W 3469   1.022   7.209   4.160  0.2604  0.0677  0.0468
 2473W        W 3470   5.108   5.984   2.079  0.0036  0.0202  0.0575
 2474W        W 3471   2.805   4.122   4.201 -0.2318  0.0049 -0.2386
 2475W        W 3472   6.718   2.444   5.900  0.2896 -0.0102  0.1945
 2476W        W 3473   4.822   5.449   0.162  0.1604  0.2318  0.0391
 2477W        W 3474   2.378   5.062   7.509  0.0702  0.0480 -0.2050
 2478W        W 3475   1.499   7.415   6.396 -0.1067 -0.1252 -0.0377
 2479W        W 3476   6.992   0.188   5.806 -0.1172 -0.0729  0.1388
 2480W        W 3477   4.616   2.469   6.170  0.0114 -0.2247  0.1071
 2481W        W 3478   5.547   1.869   7.340  0.1371  0.0354  0.1094
 2482W        W 3479   3.212   1.561   1.313 -0.2360  0.1659 -0.3727
 2483W        W 3480   5.398   2.437   6.143 -0.0806 -0.0293 -0.1566
 2484W        W 3481   5.560   1.998   4.122 -0.1086 -0.0869 -0.3925
 2485W        W 3482   4.241   1.733   2.152 -0.3422 -0.0712 -0.2840
 2486W        W 3483   6.327   3.606   0.563  0.0280 -0.1844 -0.1014
 2487W        W 3484   6.955   1.605   0.914 -0.0848 -0.0262 -0.0943
 2488W        W 3485   6.592   3.530   5.341 -0.2170 -0.0684 -0.0857
 2489W        W 3486   4.116   7.509   6.209 -0.0126 -0.2813  0.0952
 2490W        W 3487   5.102   1.923   2.666  0.0639  0.1792  0.1205
 2491W        W 3488   3.383   7.501   2.361 -0.1037  0.1044 -0.1587
 2492W        W 3489   5.224   3.231   6.241  0.0599  0.0149  0.0867
 2493W        W 3490   6.030   3.472   3.234  0.0331 -0.1885  0.1272
 2494W        W 3491   0.926   2.778   4.888 -0.0504  0.0667 -0.2853
 2495W        W 3492   6.573   1.997   6.718 -0.1419  0.2623  0.1262
 2496W        W 3493   3.849   0.728   4.650 -0.4246  0.1197  0.0085
 2497W        W 3494   3.675   1.807   0.957 -0.0001  0.2343  0.1671
 2498W        W 3495   2.000   0.250   7.021  0.0854  0.0464  0.0109
 2499W        W 3496   4.278   4.479   5.667 -0.0921  0.1747  0.1472
 2500W        W 3497   6.434   1.263   7.486 -0.1728 -0.0322 -0.2733
 2501W        W 3498   3.852   3.914   3.400  0.1413  0.1888 -0.1632
 2502W        W 3499   0.463   1.341   2.363  0.1621 -0.3573 -0.1282
 2503W        W 3500   3.338   7.283   1.798  0.1357  0.0067 -0.0831
 2504W        W 3501   2.053   0.650   0.963  0.3806  0.0926 -0.3909
 2505W        W 3502   6.251   0.080   4.149  0.0979 -0.0241  0.0842
 2506W        W 3503   0.817   4.225   2.730  0.1262 -0.1536 -0.0480
 2507W        W 3504   3.612   3.244   6.012 -0.2819 -0.2683 -0.0037
 2508W        W 3505   2.539   2.612   4.055 -0.1256 -0.2398 -0.0284
 2509W        W 3506   2.992   1.898   1.627 -0.1317  0.1561 -0.0475
 2510W        W 3507   3.597   6.526   0.983 -0.0817 -0.4189  0.2572
 2511W        W 3508   6.903   7.651   7.038  0.2154 -0.0256 -0.1121
 2512W        W 3509   4.075   4.736   6.984 -0.0331  0.0388 -0.0792
 2513W        W 3510   2.115   0.828   0.489  0.1852 -0.3348 -0.3261
 2514W        W 3511   1.119   3.169   1.270  0.0090  0.3199 -0.2240
 2515W        W 3512   7.346   7.580   2.794  0.0495  0.0181  0.4284
 2516W        W 3513   5.203   2.810   2.992 -0.0943 -0.0301 -0.0515
 2517W        W 3514   5.018   0.100   4.792  0.2637  0.4126 -0.2188
 2518W        W 3515   6.477   0.292   7.160  0.0323  0.2193  0.1210
 2519W        W 3516   1.567   6.087   1.752 -0.1762  0.1556 -0.2722
 2520W        W 3517   0.158   2.894   6.194 -0.0541  0.1486  0.3882
 2521W        W 3518   1.244   7.219   6.783 -0.2903 -0.3992 -0.1594
 2522W        W 3519   5.557   3.109   5.464  0.3378 -0.0141 -0.1225
 2523W        W 3520   4.670   3.374   4.580 -0.0883  0.3170 -0.1715
 2524W        W 3521   4.044   6.779   4.640  0.0729 -0.2146  0.0122
 2525W        W 3522   4.164   4.686   0.222  0.0532 -0.4430  0.1252
 2526W        W 3523   2.217   3.262   4.837  0.3468  0.1445  0.5083
 2527W        W 3524   6.560   3.185   1.468  0.2134 -0.4169  0.2284
 2528W        W 3525   2.817   2.795   1.443 -0.2180  0.1527 -0.0331
 2529W        W 3526   7.613   2.755   7.274 -0.1221  0.1268  0.0410
 2530W        W 3527   3.353   5.504   3.766  0.0609  0.2214 -0.0566
 2531W        W 3528   5.686   3.762   3.692  0.0237 -0.1250 -0.1284
 2532W        W 3529   6.952   5.124   3.909 -0.0807 -0.3561  0.4232
 2533W        W 3530   4.174   5.639   0.863 -0.0079  0.1153  0.4403
 2534W        W 3531   3.288   1.280   2.824  0.2041  0.2707  0.1424
 2535W        W 3532   3.514   6.861   3.043 -0.2283  0.1095  0.1525
 2536W        W 3533   7.368   1.092   3.347  0.3297  0.1586 -0.1501
 2537W        W 3534   1.666   4.892   0.152 -0.2180  0.2376  0.0795
 2538W        W 3535   4.640   1.032   5.143  0.0408  0.4023 -0.3874
 2539W        W 3536   5.465   0.564   3.624 -0.1209  0.1244 -0.0594
 2540W        W 3537   6.913   0.709   0.593 -0.0673  0.1289 -0.3294
 2541W        W 3538   5.754   0.164   4.320 -0.1631 -0.0115  0.1225
 2542W        W 3539   4.719   7.360   3.285  0.1294 -0.0465 -0.0020
 2543W        W 3540   0.860   1.246   7.023  0.2095  0.0502  0.1692
 2544W        W 3541   4.268   0.051   5.101 -0.0618  0.2830 -0.1250
 2545W        W 3542   1.563   0.077   3.477 -0.2636 -0.0122  0.2118
 2546W        W 3543   1.739   3.403   6.533  0.0754 -0.2038 -0.0319
 2547W        W 3544   2.776   1.793   1.198 -0.0939  0.0022  0.0537
 2548W        W 3545   1.803   2.269   7.170  0.0373 -0.0592  0.0001
 2549W        W 3546   4.707   5.400   3.818  0.1522 -0.0362 -0.1352
 2550W        W 3547   2.190   2.594   2.092  0.0838 -0.0135 -0.3071
 2551W        W 3548   0.062   0.099   2.542 -0.1217 -0.0145  0.3600
 2552W        W 3549   4.035   4.814   6.482 -0.0680 -0.4753 -0.4728
 2553W        W 3550   0.342   4.753   1.636 -0.2020 -0.1680 -0.2404
 2554W        W 3551   4.125   0.474   6.877 -0.1656  0.1613 -0.2373
 2555W        W 3552   4.588   1.751   5.804  0.2570 -0.0571  0.1849
 2556W        W 3553   2.664   4.279   6.212  0.0964  0.1194 -0.2855
 2557W        W 3554   3.414   2.823   2.819 -0.1199  0.0930  0.2292
 2558W        W 3555   1.501   0.226   4.707  0.1156 -0.1228  0.1505
 2559W        W 3556   2.431   1.051   2.218  0.1728  0.0569  0.0584
 2560W        W 3557   1.092   3.582   3.235 -0.2044 -0.0359 -0.0500
 2561W        W 3558   3.067   2.492   0.862  0.1120 -0.0454 -0.3183
 2562W        W 3559   0.864   3.933   1.559  0.2668 -0.2142 -0.1120
 2563W        W 3560   3.608   4.446   3.027 -0.3591  0.2511 -0.1074
 2564W        W 3561   2.093   3.663   3.855 -0.3415  0.0780 -0.2114
 2565W        W 3562   7.443   1.457   4.216  0.3449 -0.1647 -0.1029
 2566W        W 3563   2.858   5.161   7.448  0.1190  0.3684 -0.2613
 2567W        W 3564   1.961   1.144   1.004  0.1076  0.0752 -0.1392
 2568W        W 3565   3.865   4.379   2.611 -0.2283 -0.0982 -0.3050
 2569W        W 3566   6.520   0.909   3.759  0.1391 -0.0873  0.1430
 2570W        W 3567   4.721   5.608   5.763 -0.2073 -0.0229  0.1580
 2571W        W 3568   3.772   2.686   0.422 -0.0263  0.2662  0.1479
 2572W        W 3569   5.324   0.609   1.565  0.2603 -0.2025  0.0214
 2573W        W 3570   0.370   7.020   6.460 -0.1246 -0.1511 -0.1075
 2574W        W 3571   1.582   6.457   2.974  0.3250 -0.0915 -0.0720
 2575W        W 3572   2.273   2.464   2.592  0.0154  0.2083  0.1023
 2576W        W 3573   1.655   6.303   0.732 -0.1396  0.1500 -0.1539
 2577W        W 3574   4.976   7.284   5.600 -0.0791 -0.1390 -0.0067
 2578W        W 3575   6.145   0.603   4.170  0.0200  0.0366  0.2065
 2579W        W 3576   4.207   1.216   2.232 -0.0893  0.4282  0.0577
 2580W        W 3577   4.209   1.426   1.464 -0.0232 -0.3721 -0.2417
 2581W        W 3578   1.721   5.880   6.874 -0.0316 -0.1012  0.0511
 2582W        W 3579   3.267   2.157   4.337  0.1028 -0.0585 -0.3759
 2583W        W 3580   4.233   5.043   1.682  0.1486 -0.0167  0.1827
 2584W        W 3581   2.704   0.232   2.370  0.0253  0.0459  0.1137
 2585W        W 3582   3.011   0.496   1.069 -0.2055  0.0015  0.3445
 2586W        W 3583   7.398   2.434   5.382  0.2783 -0.1656  0.1653
 2587W        W 3584   1.219   4.038   3.561  0.0048 -0.1336 -0.1426
 2588W        W 3585   5.177   3.806   3.192 -0.1429 -0.0414  0.1165
 2589W        W 3586   5.032   2.752   6.203  0.1708 -0.4109 -0.2046
 2590W        W 3587   1.345   3.840   1.375  0.1979 -0.0263 -0.0227
 2591W        W 3588   4.379   5.157   3.510  0.1456 -0.2067  0.2587
 2592W        W 3589   6.732   2.704   1.740  0.0459 -0.0984 -0.0419
 2593W        W 3590   5.952   2.244   5.396  0.0129  0.2240 -0.3036
 2594W        W 3591   6.368   1.146   5.161  0.1299 -0.3542  0.0294
 2595W        W 3592   2.047   1.242   3.134  0.0998 -0.3064 -0.0200
 2596W        W 3593   4.795   0.896   3.724  0.1378 -0.0452  0.2365
 2597W        W 3594   3.169   3.970   6.311  0.1310 -0.2586  0.2447
 2598W        W 3595   4.869   1.796   3.480  0.0054 -0.1635 -0.0193
 2599W        W 3596   5.666   2.703   5.260 -0.1468  0.0052 -0.2652
 2600W        W 3597   1.692   6.632   1.852 -0.0418 -0.0383 -0.0058
 2601W        W 3598   1.634   5.362   5.721  0.2297  0.1431 -0.1279
 2602W        W 3599   5.701   4.844   2.608 -0.1315 -0.0868  0.0954
 2603W        W 3600   4.076   0.526   5.055  0.0630 -0.1021 -0.0023
 2604W        W 3601   2.939   7.163   5.780  0.0589 -0.0334  0.2809
 2605W        W 3602   3.924   0.044   6.930  0.1366  0.1978 -0.2541
 2606W        W 3603   3.831   1.428   3.985 -0.1526  0.1145  0.0936
 2607W        W 3604   1.151   1.116   1.709 -0.0783  0.2192  0.2602
 2608W        W 3605   7.640   0.789   6.150  0.1936 -0.2268 -0.2522
 2609W        W 3606   3.916   3.091   0.128  0.0502 -0.1258  0.2751
 2610W        W 3607   2.621   3.376   5.045 -0.2243 -0.0544 -0.0984
 2611W        W 3608   5.335   3.966   4.832  0.1130 -0.3245 -0.0083
 2612W        W 3609   4.095   7.051   6.492  0.0254  0.3715  0.3544
 2613W        W 3610   4.373   2.797   2.802 -0.1265  0.1791 -0.1395
 2614W        W 3611   1.708   3.411   3.575 -0.1675  0.2615  0.3700
 2615W        W 3612   2.305   1.829   5.738 -0.1004 -0.4830 -0.0810
 2616W        W 3613   6.716   1.675   2.678  0.0150  0.1167  0.0859
 2617W        W 3614   1.494   4.692   4.450 -0.0810 -0.2660 -0.1532
 2618W        W 3615   7.564   2.311   7.099  0.3546  0.1426 -0.1565
 2619W        W 3616   0.324   1.829   1.909  0.0321 -0.0538 -0.1490
 2620W        W 3617   7.363   3.507   2.752  0.2124  0.0671  0.1633
 2621W        W 3618   4.752   6.081   2.969 -0.0965 -0.2660 -0.0333
 2622W        W 3619   6.646   2.490   4.903  0.0015 -0.1752 -0.1513
 2623W        W 3620   5.291   1.871   4.576  0.0996  0.0663  0.0350
 2624W        W 3621   2.534   7.601   3.852 -0.0866  0.4195  0.1126
 2625W        W 3622   2.896   7.531   0.155 -0.1187  0.0500 -0.1164
 2626W        W 3623   4.400   1.826   0.225 -0.1836 -0.0229  0.1210
 2627W        W 3624   0.058   6.127   7.596 -0.5460 -0.0174 -0.1557
 2628W        W 3625   7.640   3.096   2.403  0.0612 -0.2174 -0.0302
 2629W        W 3626   4.851   0.369   1.760  0.2578 -0.2810 -0.2976
 2630W        W 3627   2.364   5.815   3.875  0.0187  0.0881 -0.0061
 2631W        W 3628   6.327   3.891   4.398  0.0409  0.0174  0.0906
 2632W        W 3629   0.434   5.912   6.905 -0.1049 -0.1914  0.1697
 2633W        W 3630   1.785   3.573   2.214 -0.2781  0.0628  0.1182
 2634W        W 3631   4.211   5.488   3.090 -0.0117  0.0898 -0.1113
 2635W        W 3632   6.777   4.604   0.412 -0.2622 -0.1032 -0.1981
 2636W        W 3633   4.441   1.448   5.401 -0.0588  0.0028 -0.2393
 2637W        W 3634   1.469   7.395   5.094 -0.1467  0.1690  0.1975
 2638W        W 3635   5.786   1.383   2.420 -0.1454 -0.1901 -0.0280
 2639W        W 3636   0.896   3.288   7.400 -0.0325  0.1108  0.2656
 2640W        W 3637   4.514   0.904   4.700  0.1558  0.1665 -0.1719
 2641W        W 3638   5.606   2.299   4.515  0.2078  0.1870 -0.0009
 2642W        W 3639   6.976   4.151   4.871  0.1616  0.7570  0.1154
 2643W        W 3640   3.698   2.011   7.340  0.0579  0.0983 -0.1759
 2644W        W 3641   3.827   6.025   5.364 -0.4454  0.0229  0.2128
 2645W        W 3642   2.522   0.949   6.804  0.0682  0.2370 -0.2889
 2646W        W 3643   2.447   2.130   3.834  0.1199  0.2728  0.0203
 2647W        W 3644   7.090   0.243   0.616 -0.1703  0.1526 -0.1045
 2648W        W 3645   4.929   6.911   6.761  0.1066 -0.0077 -0.0531
 2649W        W 3646   2.941   3.917   2.032 -0.1615 -0.3169  0.0620
 2650W        W 3647   2.430   5.962   1.120 -0.0298  0.5934  0.0797
 2651W        W 3648   1.478   2.163   6.787  0.1408  0.0410 -0.2139
 2652W        W 3649   2.544   0.207   2.897 -0.1485 -0.1420  0.0917
 2653W        W 3650   4.772   2.919   3.740  0.2114 -0.2025 -0.0239
 2654W        W 3651   0.028   3.655   3.916  0.2490 -0.0805  0.3318
 2655W        W 3652   0.862   4.512   2.323  0.1286 -0.1013 -0.0423
 2656W        W 3653   5.678   2.648   2.999 -0.0504 -0.1127  0.0070
 2657W        W 3654   4.016   1.215   4.433  0.0335 -0.0678  0.0033
 2658W        W 3655   2.008   7.053   0.341 -0.1762  0.0210 -0.2306
 2659W        W 3656   4.355   6.286   1.667 -0.1512  0.0220  0.0317
 2660W        W 3657   0.263   2.100   1.007 -0.2912  0.1374  0.1031
 2661W        W 3658   3.292   1.893   7.633  0.1564 -0.1318 -0.0789
 2662W        W 3659   0.227   1.913   3.329 -0.0574  0.0986 -0.0030
 2663W        W 3660   2.250   0.738   3.283 -0.0415 -0.2743  0.0238
 2664W        W 3661   1.283   5.357   1.288 -0.0607  0.0172  0.0289
 2665W        W 3662   2.889   3.248   1.262  0.2612  0.0952  0.0078
 2666W        W 3663   4.821   6.775   3.222 -0.0817  0.1893  0.2794
 2667W        W 3664   5.750   1.612   3.781  0.1230 -0.1780  0.0401
 2668W        W 3665   6.890   2.178   7.152  0.2709 -0.1681 -0.0144
 2669W        W 3666   4.087   4.693   3.170 -0.0421 -0.2505 -0.2099
 2670W        W 3667   7.343   3.218   3.298  0.1201  0.1303  0.2701
 2671W        W 3668   0.449   2.699   2.952  0.0588 -0.0217 -0.0662
 2672W        W 3669   3.087   5.632   4.484  0.1653  0.0175  0.0952
 2673W        W 3670   2.670   2.860   5.731 -0.2235 -0.3352 -0.4832
 2674W        W 3671   5.183   3.654   0.349  0.2553 -0.1554 -0.0981
 2675W        W 3672   5.131   5.185   1.335  0.4335 -0.1264 -0.4346
 2676W        W 3673   1.793   1.406   3.745  0.3887  0.0771 -0.1908
 2677W        W 3674   5.062   2.144   1.106 -0.1186 -0.0715  0.0732
 2678W        W 3675   6.831   2.608   0.784  0.0495 -0.0207  0.1975
 2679W        W 3676   4.976   3.216   5.811 -0.1166 -0.2480 -0.2437
 2680W        W 3677   0.928   7.251   7.212 -0.1709 -0.1127  0.0063
 2681W        W 3678   1.614   0.619   5.024 -0.0639 -0.0933  0.0754
 2682W        W 3679   1.181   6.321   2.656  0.1117 -0.0509  0.1535
 2683W        W 3680   4.656   2.771   3.255  0.0257  0.0122  0.1350
 2684W        W 3681   0.411   2.440   3.352  0.3912  0.1568 -0.1199
 2685W        W 3682   1.982   0.838   2.851  0.0367  0.0240 -0.4157
 2686W        W 3683   4.212   4.871   7.431 -0.1500  0.1055  0.2900
 2687W        W 3684   0.638   0.208   6.286  0.2614  0.0641  0.2044
 2688W        W 3685   5.549   1.765   0.990 -0.0893 -0.1649 -0.2069
 2689W        W 3686   4.034   2.188   4.089  0.3682 -0.3170 -0.3554
 2690W        W 3687   3.598   0.075   3.976  0.0534 -0.0222  0.2515
 2691W        W 3688   4.666   4.599   4.310  0.2044 -0.2956  0.2265
 2692W        W 3689   3.740   5.405   3.380  0.1946 -0.1195 -0.2167
 2693W        W 3690   3.153   2.696   6.357 -0.4600  0.2418  0.1951
 2694W        W 3691   6.381   2.759   1.026  0.1120  0.2358  0.0963
 2695W        W 3692   1.768   0.988   3.466  0.0033  0.0229  0.2090
 2696W        W 3693   6.274   0.839   3.097  0.3596 -0.3204  0.1290
 2697W        W 3694   5.196   2.261   3.149 -0.1060 -0.0920 -0.3669
 2698W        W 3695   2.121   4.492   0.235 -0.2068  0.0902  0.3013
 2699W        W 3696   1.331   7.332   3.083 -0.1208  0.0847  0.1029
 2700W        W 3697   3.239   4.821   0.768  0.1026 -0.2258 -0.1774
 2701W        W 3698   3.480   0.513   5.991 -0.2012 -0.0825  0.1310
 2702W        W 3699   1.361   6.601   4.691  0.0279  0.0849  0.1228
 2703W        W 3700   5.487   3.819   0.855  0.2276  0.1772 -0.0318
 2704W        W 3701   4.529   6.484   3.662 -0.2600 -0.1501 -0.3079
 2705W        W 3702   7.026   3.075   1.563 -0.2380 -0.1461 -0.1310
 2706W        W 3703   2.786   1.128   7.616  0.1096  0.0486 -0.0284
 2707W        W 3704   1.364   6.348   5.179 -0.2298  0.0900 -0.1340
 2708W        W 3705   3.969   3.535   5.774 -0.2008  0.2494 -0.3604
 2709W        W 3706   4.977   4.710   4.730 -0.0929  0.2235 -0.2888
 2710W        W 3707   5.966   4.246   1.706  0.1309  0.0034  0.1491
 2711W        W 3708   0.529   7.606   7.155  0.0049  0.1663 -0.2946
 2712W        W 3709   4.482   0.732   3.353 -0.0275 -0.4837  0.0079
 2713W        W 3710   3.673   7.084   6.791  0.1293 -0.0790  0.1245
 2714W        W 3711   6.328   3.229   3.659  0.0407 -0.0266  0.1156
 2715W        W 3712   4.702   3.395   2.533  0.0979 -0.0825  0.1520
 2716W        W 3713   4.343   5.770   1.878  0.0009  0.1110 -0.0793
 2717W        W 3714   5.596   3.648   5.091 -0.0065  0.2090  0.2464
 2718W        W 3715   6.933   0.060   6.384  0.1398 -0.2548 -0.1945
 2719W        W 3716   0.150   1.877   7.620 -0.0167 -0.0931 -0.1807
 2720W        W 3717   4.506   1.288   4.301 -0.4362  0.2848  0.3454
 2721W        W 3718   5.680   1.370   7.221 -0.0579 -0.1415 -0.2290
 2722W        W 3719   6.601   0.726   6.831  0.1100 -0.1691 -0.1311
 2723W        W 3720   4.432   0.385   5.498  0.0791  0.1261  0.0270
 2724W        W 3721   7.477   5.561   0.778 -0.0199 -0.2191  0.0928
 2725W        W 3722   1.002   2.144   5.864  0.1136 -0.3812  0.0461
 2726W        W 3723   3.504   6.032   5.799 -0.0400  0.0004  0.0612
 2727W        W 3724   6.617   2.882   2.723 -0.0297 -0.0216  0.0850
 2728W        W 3725   4.036   0.584   3.530  0.0247 -0.1153  0.1291
 2729W        W 3726   3.154   3.756   7.610  0.1392 -0.3157  0.0426
 2730W        W 3727   2.690   3.807   0.706 -0.1736 -0.2519 -0.0378
 2731W        W 3728   5.916   3.025   0.980  0.0158  0.1765 -0.1501
 2732W        W 3729   0.391   6.844   2.550  0.3890 -0.0943 -0.1886
 2733W        W 3730   6.445   1.853   1.469  0.1285 -0.1395  0.0831
 2734W        W 3731   7.218   3.765   0.955 -0.0974 -0.0783 -0.1026
 2735W        W 3732   2.777   1.823   4.128  0.1488  0.1844  0.2999
 2736W        W 3733   6.822   0.695   2.628  0.2685  0.1748 -0.0934
 2737W        W 3734   3.543   4.736   0.274  0.0102 -0.0592 -0.0509
 2738W        W 3735   2.633   1.601   2.437  0.5573 -0.0983 -0.0367
 2739W        W 3736   3.536   4.980   6.625 -0.0903 -0.0572 -0.0726
 2740W        W 3737   5.792   4.394   1.222 -0.1282  0.1411 -0.0489
 2741W        W 3738   1.908   7.373   2.274  0.3020 -0.0113  0.0617
 2742W        W 3739   0.893   1.225   7.598  0.2810  0.1503  0.3492
 2743W        W 3740   0.293   3.867   0.290  0.1416 -0.0676  0.0843
 2744W        W 3741   0.391   0.136   3.004 -0.1324  0.0548  0.0655
 2745W        W 3742   2.718   6.650   6.207  0.1095  0.0323 -0.4282
 2746W        W 3743   1.469   0.343   7.205 -0.3633  0.0755  0.0511
 2747W        W 3744   2.795   0.533   6.661 -0.1079  0.1185  0.0266
 2748W        W 3745   0.902   0.278   1.699  0.0094  0.1602 -0.1288
 2749W        W 3746   6.447   3.003   6.631 -0.0867  0.1878  0.0415
 2750W        W 3747   2.573   2.822   4.850 -0.0614 -0.1708 -0.3412
 2751W        W 3748   4.472   0.148   6.761 -0.0472 -0.2880  0.0455
 2752W        W 3749   5.173   6.661   1.903 -0.0153  0.0908  0.1933
 2753W        W 3750   1.815   2.614   0.638  0.1172 -0.1235 -0.2211
 2754W        W 3751   6.392   2.124   7.149 -0.0429 -0.2182  0.1176
 2755W        W 3752   0.410   2.912   1.978  0.1163  0.2730 -0.1208
 2756W        W 3753   6.980   0.564   1.569 -0.1076  0.1698 -0.2493
 2757W        W 3754   5.994   2.629   4.283  0.0918  0.2188  0.1986
 2758W        W 3755   0.636   4.406   1.377 -0.1787  0.2335  0.1861
 2759W        W 3756   7.526   7.661   0.378  0.2881  0.1624  0.3171
 2760W        W 3757   3.349   0.858   6.827  0.1213  0.3297 -0.0514
 2761W        W 3758   4.627   1.891   4.194  0.0300  0.0657 -0.0635
 2762W        W 3759   6.895   0.358   5.255  0.3697  0.3827 -0.0152
 2763W        W 3760   5.302   7.581   0.386  0.0438  0.1783  0.0886
 2764W        W 3761   4.140   0.686   6.393 -0.0243 -0.0268  0.2809
 2765W        W 3762   5.252   5.199   4.530  0.1177 -0.0851 -0.1404
 2766W        W 3763   7.430   1.668   6.532  0.1710 -0.1332 -0.1611
 2767W        W 3764   2.459   0.455   1.586  0.1245 -0.0445  0.3680
 2768W        W 3765   0.540   4.017   1.106 -0.0561  0.2011  0.2370
 2769W        W 3766   3.645   0.367   4.854 -0.0070 -0.1703 -0.1162
 2770W        W 3767   6.937   2.524   3.390 -0.0823 -0.0706  0.0528
 2771W        W 3768   5.128   1.877   3.945 -0.1757 -0.1845  0.0329
 2772W        W 3769   2.911   2.967   0.074  0.0754  0.0183  0.0685
 2773W        W 3770   5.825   3.341   2.791 -0.2578  0.0805 -0.3226
 2774W        W 3771   2.506   5.795   1.914  0.2779  0.0140  0.0314
 2775W        W 3772   3.200   2.973   5.913  0.3107  0.0287 -0.0449
 2776W        W 3773   1.008   6.333   1.474  0.1417 -0.3747 -0.0982
 2777W        W 3774   7.052   4.997   1.947 -0.2212  0.0778 -0.3716
 2778W        W 3775   5.908   3.639   4.174 -0.0754 -0.0761  0.1085
 2779W        W 3776   0.254   1.654   0.816 -0.3914  0.3775  0.2950
 2780W        W 3777   5.096   2.049   7.439  0.1556 -0.2282 -0.0384
 2781W        W 3778   3.671   2.724   5.865 -0.0423 -0.0569 -0.1625
 2782W        W 3779   1.103   0.050   7.058  0.0821  0.0523  0.1493
 2783W        W 3780   3.552   7.018   5.235  0.5358 -0.2025 -0.0495
 2784W        W 3781   2.051   4.005   3.230 -0.1182 -0.0649 -0.0683
 2785W        W 3782   6.828   3.147   7.027 -0.3463 -0.5585 -0.2269
 2786W        W 3783   1.026   0.698   4.016  0.0526 -0.1687  0.3624
 2787W        W 3784   2.307   2.607   1.651 -0.0682 -0.3280  0.1321
 2788W        W 3785   7.501   1.340   1.696 -0.0220  0.0909  0.3442
 2789W        W 3786   4.145   3.200   6.955 -0.1708  0.2846  0.1686
 2790W        W 3787   5.641   1.381   0.451 -0.1408 -0.2513 -0.1697
 2791W        W 3788   5.311   3.550   2.093  0.4802  0.0332  0.0517
 2792W        W 3789   0.560   0.658   1.859  0.0149 -0.1798  0.0546
 2793W        W 3790   3.759   3.596   0.904 -0.3077  0.0512 -0.1897
 2794W        W 3791   1.201   4.346   0.605 -0.0746 -0.1623  0.2848
 2795W        W 3792   3.643   7.092   4.758 -0.1982  0.3110 -0.1204
 2796W        W 3793   7.254   0.808   2.873 -0.0598  0.0911  0.1613
 2797W        W 3794   0.292   1.205   3.620 -0.0491 -0.0343 -0.1976
 2798W        W 3795   2.495   3.139   4.045 -0.0978 -0.0434  0.0939
 2799W        W 3796   2.109   1.811   3.447 -0.3118  0.2114 -0.1703
 2800W        W 3797   2.379   1.422   4.829  0.1617  0.0096  0.1803
 2801W        W 3798   6.582   3.423   6.247  0.3124 -0.2773  0.1026
 2802W        W 3799   5.001   7.629   4.293  0.2033 -0.0733  0.2557
 2803W        W 3800   4.337   6.135   0.893 -0.1057 -0.1053  0.0548
 2804W        W 3801   2.444   1.093   0.792 -0.2019 -0.2790 -0.2519
 2805W        W 3802   5.613   7.127   0.300  0.0762 -0.0221  0.1735
 2806W        W 3803   1.165   5.530   0.797  0.0551  0.0781  0.0490
 2807W        W 3804   7.344   0.828   1.861  0.1575  0.2073  0.0533
 2808W        W 3805   4.130   4.294   6.690 -0.0757  0.0511  0.2704
 2809W        W 3806   1.023   5.445   3.985 -0.0041  0.0171  0.0519
 2810W        W 3807   0.624   3.228   6.654 -0.3019  0.1545 -0.1793
 2811W        W 3808   1.198   6.067   2.144 -0.3215 -0.0252  0.0328
 2812W        W 3809   2.124   3.004   2.875  0.0062  0.1660  0.3855
 2813W        W 3810   6.383   5.100   3.164 -0.0421 -0.1074 -0.2010
 2814W        W 3811   5.352   3.323   2.942 -0.2408 -0.1455  0.1896
 2815W        W 3812   6.572   7.584   5.473  0.0278  0.0028 -0.3370
 2816W        W 3813   0.245   0.500   7.468  0.1224  0.0601 -0.1586
 2817W        W 3814   0.191   2.943   6.659 -0.1910  0.2061  0.0393
 2818W        W 3815   3.072   3.417   0.834  0.1457 -0.1436  0.2342
 2819W        W 3816   5.279   7.602   2.999  0.0027 -0.1260  0.0831
 2820W        W 3817   2.347   1.691   1.540 -0.0883  0.0436  0.0293
 2821W        W 3818   4.970   0.365   5.429 -0.1948 -0.1354  0.0721
 2822W        W 3819   4.211   7.039   0.868 -0.1170  0.0117  0.0872
 2823W        W 3820   1.154   0.527   5.563 -0.1056 -0.0644 -0.1031
 2824W        W 3821   7.133   1.809   5.073 -0.1783 -0.0252 -0.2378
 2825W        W 3822   2.751   2.094   0.796 -0.2335  0.1468  0.2252
 2826W        W 3823   3.133   2.203   6.588 -0.0604 -0.0409 -0.2074
 2827W        W 3824   4.386   5.690   0.313  0.0382  0.0750 -0.0370
 2828W        W 3825   3.793   7.303   2.928 -0.0186  0.3223  0.3253
 2829W        W 3826   4.554   4.366   4.789 -0.1272 -0.1739  0.0078
 2830W        W 3827   0.074   2.113   5.581  0.1863 -0.1023  0.3156
 2831W        W 3828   0.072   0.191   6.127 -0.0479 -0.4779 -0.0988
 2832W        W 3829   3.897   3.274   4.049  0.2002 -0.3942  0.2069
 2833W        W 3830   4.746   1.532   1.383 -0.1952  0.2997 -0.0311
 2834W        W 3831   5.845   5.469   2.012 -0.0073  0.0872  0.2071
 2835W        W 3832   0.211   3.045   1.438  0.0854 -0.2987 -0.0261
 2836W        W 3833   6.128   2.290   2.124 -0.2976 -0.0972 -0.0992
 2837W        W 3834   1.151   3.067   5.299  0.0621  0.1332  0.2131
 2838W        W 3835   2.644   3.832   2.420  0.1944  0.0089  0.0721
 2839W        W 3836   3.818   7.423   1.939 -0.0008 -0.1757  0.0712
 2840W        W 3837   0.276   2.525   6.888 -0.2597 -0.0210 -0.1077
 2841W        W 3838   1.573   6.004   2.591  0.1082 -0.0786  0.0594
 2842W        W 3839   1.341   4.905   7.468  0.0076  0.0878 -0.1485
 2843W        W 3840   0.588   1.495   3.316  0.0747 -0.0017 -0.1741
 2844W        W 3841   4.740   3.573   7.656  0.0287 -0.2441  0.0320
 2845W        W 3842   4.230   1.047   1.742  0.0464  0.0192 -0.1136
 2846W        W 3843   2.852   7.053   1.035 -0.2589  0.0460 -0.2645
 2847W        W 3844   5.328   1.510   0.013  0.2662  0.0329 -0.0861
 2848W        W 3845   3.521   2.603   2.338  0.0568  0.0640 -0.1422
 2849W        W 3846   1.860   2.110   5.810  0.2809 -0.2877 -0.1932
 2850W        W 3847   6.190   2.975   7.151  0.1781 -0.1399  0.0235
 2851W        W 3848   4.186   4.651   4.180 -0.2055 -0.0830 -0.2527
 2852W        W 3849   0.365   3.389   1.764 -0.1516  0.1334  0.1964
 2853W        W 3850   7.450   1.359   0.852 -0.0262 -0.0932  0.2598
 2854W        W 3851   7.320   2.634   6.156 -0.3720 -0.2116 -0.2423
 2855W        W 3852   2.061   1.070   6.650 -0.1214 -0.2278  0.1155
 2856W        W 3853   2.124   0.960   7.635 -0.1516  0.4135  0.0384
 2857W        W 3854   6.694   1.446   0.217 -0.0687 -0.2307  0.2478
 2858W        W 3855   4.181   0.747   0.602 -0.0022  0.1766  0.2352
 2859W        W 3856   5.454   5.978   1.238 -0.1840 -0.1965 -0.2541
 2860W        W 3857   1.582   6.240   0.233  0.0979 -0.4754  0.2823
 2861W        W 3858   2.439   0.119   5.186  0.1775  0.0153 -0.1327
 2862W        W 3859   2.613   2.227   4.351  0.0186 -0.0241  0.1775
 2863W        W 3860   7.616   3.403   4.312 -0.2165 -0.2957  0.0900
 2864W        W 3861   5.156   0.149   1.406 -0.2342  0.0903 -0.1759
 2865W        W 3862   1.175   4.414   1.512 -0.0462 -0.0468 -0.0245
 2866W        W 3863   2.720   0.647   3.162  0.3161  0.0611 -0.0486
 2867W        W 3864   2.126   3.453   5.299 -0.1143 -0.0224  0.0944
 2868W        W 3865   1.513   7.071   1.135  0.1144 -0.4483  0.0162
 2869W        W 3866   2.639   7.125   1.995 -0.1040 -0.3484  0.3103
 2870W        W 3867   1.724   5.004   4.749 -0.0495  0.1114 -0.1653
 2871W        W 3868   4.036   5.236   0.515  0.0670  0.1613  0.1423
 2872W        W 3869   6.011   1.750   7.072 -0.0683  0.0410 -0.2260
 2873W        W 3870   0.854   4.917   3.839 -0.2354 -0.1153 -0.3767
 2874W        W 3871   6.489   2.502   2.489  0.3514 -0.3588 -0.0623
 2875W        W 3872   1.975   5.630   1.947 -0.0874 -0.0364 -0.1076
 2876W        W 3873   0.040   4.391   1.743 -0.2860 -0.5564  0.0859
 2877W        W 3874   1.281   6.883   2.852  0.0932 -0.0639 -0.1064
 2878W        W 3875   6.121   7.500   6.135  0.0746  0.1135 -0.3073
 2879W        W 3876   3.369   4.084   3.345 -0.2818 -0.0895 -0.3449
 2880W        W 3877   1.292   4.565   1.978 -0.0542  0.2403  0.0014
 2881W        W 3878   3.941   0.359   5.863  0.0692 -0.0153  0.0831
 2882W        W 3879   4.743   2.302   1.671  0.1506  0.0369  0.0598
 2883W        W 3880   1.169   7.495   0.983  0.1148 -0.2236  0.3940
 2884W        W 3881   1.408   6.941   0.274 -0.1094 -0.0285 -0.1069
 2885W        W 3882   0.960   2.135   2.633  0.0220  0.1675 -0.1538
 2886W        W 3883   0.030   0.889   0.106 -0.0229  0.0982 -0.2481
 2887W        W 3884   2.952   3.031   5.288 -0.1201 -0.0502  0.1434
 2888W        W 3885   3.251   0.884   4.645  0.1859 -0.0296 -0.1216
 2889W        W 3886   6.468   3.610   2.305  0.3350 -0.1924  0.0988
 2890W        W 3887   4.989   1.004   1.544 -0.1405  0.0115 -0.1204
 2891W        W 3888   4.925   1.199   4.786 -0.1473 -0.0220  0.1818
 2892W        W 3889   2.001   6.243   6.631 -0.3809 -0.0418  0.1935
 2893W        W 3890   2.951   7.286   3.894 -0.0935 -0.1248 -0.4706
 2894W        W 3891   6.352   4.443   4.630  0.2040 -0.2279  0.2087
 2895W        W 3892   1.673   3.757   1.757  0.0445 -0.0845 -0.1197
 2896W        W 3893   5.058   3.173   6.809  0.2922 -0.0571  0.3093
 2897W        W 3894   6.311   4.107   2.454  0.2234 -0.1112 -0.0068
 2898W        W 3895   2.691   2.680   1.957  0.3490  0.1088  0.1581
 2899W        W 3896   0.539   5.794   0.007  0.1377  0.2074  0.0797
 2900W        W 3897   5.045   4.282   4.014 -0.0026  0.0185  0.0453
 2901W        W 3898   2.257   3.609   6.694 -0.0086 -0.0358  0.0249
 2902W        W 3899   0.289   2.571   1.435 -0.0097 -0.0144  0.3220
 2903W        W 3900   3.077   4.135   4.633  0.1625 -0.5185 -0.1216
 2904W        W 3901   0.148   2.650   4.892 -0.0990  0.4727 -0.0289
 2905W        W 3902   3.936   0.915   6.738 -0.0558  0.0043  0.4010
 2906W        W 3903   2.986   0.328   3.906 -0.1332 -0.0197  0.2837
 2907W        W 3904   5.138   7.107   3.396 -0.2826  0.2826 -0.3573
 2908W        W 3905   4.275   2.060   6.052 -0.0123 -0.1452 -0.0785
 2909W        W 3906   3.554   1.139   5.489 -0.0652 -0.0042 -0.3470
 2910W        W 3907   6.474   1.768   0.948  0.1523 -0.0979  0.1417
 2911W        W 3908   2.522   0.824   4.629  0.1911  0.0151 -0.1569
 2912W        W 3909   2.803   3.063   6.205  0.2152 -0.1542 -0.1478
 2913W        W 3910   1.749   4.580   0.601 -0.0145 -0.1335 -0.1254
 2914W        W 3911   1.076   1.566   3.536  0.2763  0.3384 -0.2286
 2915W        W 3912   4.056   5.357   4.530 -0.4037 -0.0556 -0.0278
 2916W        W 3913   5.806   3.169   7.445 -0.2587 -0.0471  0.0056
 2917W        W 3914   4.142   0.239   0.227  0.0595  0.1478  0.3887
 2918W        W 3915   0.226   2.531   5.341  0.1115  0.2582  0.0116
 2919W        W 3916   5.996   1.956   1.032  0.0329 -0.2262 -0.2897
 2920W        W 3917   5.525   4.088   3.388 -0.1363  0.1184 -0.2319
 2921W        W 3918   5.673   2.107   3.020 -0.0170  0.2187  0.1511
 2922W        W 3919   4.458   0.534   1.518 -0.1210  0.3192 -0.2315
 2923W        W 3920   6.824   5.016   0.783 -0.4867 -0.1759  0.0186
 2924W        W 3921   6.317   0.499   2.752  0.0219  0.0322  0.1590
 2925W        W 3922   3.084   5.638   2.077  0.2525 -0.1883 -0.2186
 2926W        W 3923   3.829   2.030   1.882  0.1025 -0.0162 -0.2100
 2927W        W 3924   3.396   4.128   1.878  0.2998  0.0189  0.1445
 2928W        W 3925   2.456   5.124   0.768 -0.0910 -0.1506 -0.1143
 2929W        W 3926   3.406   7.559   6.934  0.0085  0.1360 -0.0617
 2930W        W 3927   4.662   7.339   0.794  0.3133  0.0476  0.1299
 2931W        W 3928   4.401   0.138   4.152  0.0261 -0.0878  0.0207
 2932W        W 3929   7.057   1.221   6.522 -0.4693  0.1866  0.5638
 2933W        W 3930   1.183   4.548   0.144  0.2760  0.1004 -0.1346
 2934W        W 3931   5.880   1.780   2.103  0.0224  0.1566  0.0377
 2935W        W 3932   7.292   4.544   3.498 -0.1904  0.2385  0.0314
 2936W        W 3933   0.641   6.013   0.478 -0.2176  0.1443 -0.1336
 2937W        W 3934   1.414   2.139   7.630  0.2907  0.0488 -0.2358
 2938W        W 3935   1.036   2.851   0.888 -0.0469  0.2465 -0.2424
 2939W        W 3936   6.691   3.583   7.267  0.1410 -0.0315 -0.3287
 2940W        W 3937   7.503   5.128   0.427 -0.0735  0.2204 -0.4561
 2941W        W 3938   4.223   2.840   6.464  0.1418 -0.1318  0.1564
 2942W        W 3939   6.270   1.988   2.967  0.0325  0.2491 -0.2667
 2943W        W 3940   5.135   2.672   4.600  0.3894 -0.5141  0.2585
 2944W        W 3941   4.207   4.512   1.679 -0.2248 -0.0073 -0.0879
 2945W        W 3942   1.540   1.257   1.966  0.3121 -0.1647 -0.0698
 2946W        W 3943   2.606   5.020   1.636  0.1357  0.3469  0.1262
 2947W        W 3944   5.274   6.832   5.729  0.0010 -0.0040 -0.1605
 2948W        W 3945   3.696   6.130   0.256  0.0325  0.3133  0.1194
 2949W        W 3946   3.060   6.503   1.074  0.3997 -0.3828 -0.2103
 2950W        W 3947   6.412   3.946   7.428 -0.0874 -0.0625  0.0736
 2951W        W 3948   1.944   1.256   1.535 -0.1850 -0.2835 -0.1640
 2952W        W 3949   7.041   3.285   0.247 -0.0144 -0.1470 -0.1246
 2953W        W 3950   0.293   0.500   6.605 -0.1165 -0.1600 -0.1476
 2954W        W 3951   0.842   5.891   2.470  0.3602 -0.2110 -0.2269
 2955W        W 3952   5.775   4.178   2.518  0.3152 -0.0242 -0.1688
 2956W        W 3953   1.246   7.559   2.066  0.3910 -0.0567 -0.0954
 2957W        W 3954   3.868   1.508   1.839  0.2412  0.1796  0.1839
 2958W        W 3955   0.308   3.784   7.433 -0.2459 -0.3360  0.1351
 2959W        W 3956   5.587   1.148   5.505 -0.1248 -0.0179 -0.1033
 2960W        W 3957   0.473   3.510   1.268  0.1554  0.1996 -0.2136
 2961W        W 3958   7.592   6.567   0.100  0.1854 -0.1162 -0.0980
 2962W        W 3959   7.132   1.556   4.623  0.1179  0.0771 -0.1620
 2963W        W 3960   2.973   4.216   0.814  0.0717 -0.0232  0.0698
 2964W        W 3961   3.845   0.102   1.480  0.0122 -0.1514  0.0402
 2965W        W 3962   4.036   7.223   1.505 -0.1333  0.0454 -0.1994
 2966W        W 3963   6.809   0.890   7.366 -0.3932  0.3889 -0.3297
 2967W        W 3964   4.103   2.423   0.625 -0.0823  0.3803  0.2834
 2968W        W 3965   7.587   7.622   5.121  0.0032  0.0490  0.0409
 2969W        W 3966   2.940   4.627   4.573 -0.3749  0.2371  0.1771
 2970W        W 3967   4.734   5.486   3.322  0.0194  0.3639 -0.0924
 2971W        W 3968   6.942   1.985   5.957 -0.0720  0.0754  0.2477
 2972W        W 3969   6.668   2.908   5.590  0.4631  0.2593  0.1643
 2973W        W 3970   6.395   3.417   4.145 -0.0642 -0.1205 -0.0112
 2974W        W 3971   7.631   1.873   6.016 -0.1454 -0.0207 -0.4018
 2975W        W 3972   4.768   6.349   0.730  0.4224  0.3234  0.1776
 2976W        W 3973   0.755   2.137   2.096 -0.1964  0.0359 -0.2046
 2977W        W 3974   6.360   2.308   0.719 -0.0771  0.2693  0.1141
 2978W        W 3975   0.693   2.909   6.121  0.0602 -0.1402 -0.2417
 2979W        W 3976   7.024   2.402   6.597 -0.0426 -0.0652  0.0744
 2980W        W 3977   3.971   1.255   6.369  0.0274  0.1232 -0.2596
 2981W        W 3978   6.413   4.573   2.448 -0.6247 -0.1543 -0.0629
 2982W        W 3979   3.407   1.898   6.229  0.0554 -0.0112  0.1734
 2983W        W 3980   4.845   6.987   6.065 -0.2707  0.1024 -0.0473
 2984W        W 3981   2.151   0.068   1.369 -0.1079 -0.0302 -0.3922
 2985W        W 3982   0.157   5.007   3.105  0.0848 -0.0554 -0.0099
 2986W        W 3983   4.082   4.371   2.108 -0.2753 -0.0251  0.0840
 2987W        W 3984   2.150   2.401   3.523  0.1779 -0.1177 -0.0735
 2988W        W 3985   6.250   1.332   0.307 -0.0052  0.3705  0.0568
 2989W        W 3986   2.958   0.018   7.318 -0.1750 -0.4064 -0.0923
 2990W        W 3987   0.375   7.510   4.939  0.0663  0.0153 -0.0732
 2991W        W 3988   4.797   3.515   3.035 -0.0527 -0.0381 -0.3460
 2992W        W 3989   5.837   3.257   3.665 -0.2089 -0.2806  0.1259
 2993W        W 3990   3.936   6.626   5.213  0.0629 -0.2722  0.0225
 2994W        W 3991   3.182   1.698   6.598  0.0234  0.0741 -0.2968
 2995W        W 3992   5.018   3.488   7.236  0.1558  0.0772  0.2359
 2996W        W 3993   0.073   1.589   5.500 -0.1547 -0.5462 -0.0588
 2997W        W 3994   3.645   3.690   6.283 -0.0044  0.0791  0.1352
 2998W        W 3995   5.176   0.297   5.926 -0.0066 -0.1731  0.0544
 2999W        W 3996   2.489   3.811   3.490 -0.2411  0.1561 -0.0419
 3000W        W 3997   4.080   2.185   1.072 -0.1392  0.1077  0.0006
 3001W        W 3998   7.500   3.471   5.141 -0.0127  0.2023  0.3823
 3002W        W 3999   1.727   0.677   6.727 -0.1749  0.1892 -0.1728
 3003W        W 4000   2.931   6.034   5.003  0.0305 -0.0869  0.1641
 3004W        W 4001   5.608   5.425   3.859  0.1469 -0.0937  0.4153
 3005W        W 4002   5.524   3.658   2.577  0.1394 -0.2866 -0.0871
 3006W        W 4003   1.670   1.827   6.463 -0.0600  0.3075 -0.3044
 3007W        W 4004   0.541   0.567   5.592  0.3071  0.1747  0.0409
 3008W        W 4005   0.989   3.866   0.722 -0.0424  0.1566  0.0676
 3009W        W 4006   5.515   4.601   3.053 -0.4194 -0.1534  0.1138
 3010W        W 4007   4.031   4.983   4.899 -0.0007  0.1162 -0.0348
 3011W        W 4008   6.976   4.179   0.664 -0.0402 -0.1255  0.1216
 3012W        W 4009   4.500   1.591   3.770 -0.1521  0.2061 -0.3619
 3013W        W 4010   1.972   1.181   2.232  0.3366  0.1728 -0.1537
 3014W        W 4011   2.548   5.228   4.335 -0.1037  0.3475  0.0342
 3015W        W 4012   5.952   2.296   7.011  0.2227  0.1762 -0.0901
 3016W        W 4013   7.430   4.093   1.456 -0.0562 -0.0977  0.1877
 3017W        W 4014   1.032   1.504   3.039  0.0158  0.2853 -0.0176
 3018W        W 4015   2.232   6.681   2.034 -0.1816 -0.3069  0.1578
 3019W        W 4016   6.782   1.131   2.819  0.1402  0.2139 -0.2394
 3020W        W 4017   5.185   3.535   5.458  0.2282  0.0517 -0.0727
 3021W        W 4018   2.916   2.903   3.308 -0.0892  0.0231 -0.1127
 3022W        W 4019   2.877   1.255   3.978 -0.3734 -0.1528  0.1494
 3023W        W 4020   5.745   2.489   5.774  0.3101  0.0393  0.0139
 3024W        W 4021   3.641   3.532   2.519 -0.2302  0.1293 -0.3080
 3025W        W 4022   1.586   5.477   3.871  0.0951 -0.0775  0.2120
 3026W        W 4023   1.340   6.774   1.508 -0.1073  0.2040 -0.2347
 3027W        W 4024   2.841   1.275   0.501 -0.1017  0.0476  0.0615
 3028W        W 4025   3.092   5.987   3.631  0.0188  0.1133  0.0908
 3029W        W 4026   2.117   3.767   4.682  0.3043  0.2916  0.2989
 3030W        W 4027   0.753   0.753   6.502  0.2375  0.1004  0.4038
 3031W        W 4028   3.487   0.616   1.965 -0.0886 -0.0132 -0.1291
 3032W        W 4029   2.685   1.815   4.626 -0.1155 -0.1643  0.2101
 3033W        W 4030   5.128   4.033   5.584  0.0476 -0.3074 -0.0358
 3034W        W 4031   4.422   5.147   6.946  0.2426  0.2719 -0.0080
 3035W        W 4032   2.814   3.886   5.955 -0.0826 -0.0164  0.0109
 3036W        W 4033   1.297   0.309   4.230  0.1477  0.0878 -0.0281
 3037W        W 4034   2.751   6.479   4.726  0.3886  0.2035  0.1703
 3038W        W 4035   1.470   1.901   6.027 -0.2066  0.0239 -0.0085
 3039W        W 4036   1.447   6.949   6.397  0.0381 -0.0877 -0.0223
 3040W        W 4037   1.656   6.509   6.873 -0.1856  0.0911  0.0172
 3041W        W 4038   1.769   4.260   7.026  0.0879  0.3556  0.2980
 3042W        W 4039   2.979   4.706   5.439 -0.0897  0.0863 -0.0470
 3043W        W 4040   1.454   3.043   3.728  0.1707 -0.1136  0.1088
 3044W        W 4041   5.806   2.755   3.760  0.2671 -0.2765 -0.0827
 3045W        W 4042   3.727   5.270   5.749  0.1111 -0.0293  0.2156
 3046W        W 4043   1.206   4.575   3.553  0.0730  0.2861 -0.0632
 3047W        W 4044   6.072   3.992   3.325  0.1515 -0.2033  0.0935
 3048W        W 4045   2.630   2.564   5.331  0.1822  0.0092 -0.0173
 3049W        W 4046   4.650   5.331   5.307 -0.1219 -0.1425 -0.0989
 3050W        W 4047   3.760   0.742   2.392 -0.3370  0.2815 -0.0788
 3051W        W 4048   2.723   5.501   3.002  0.1138 -0.1766  0.1087
 3052W        W 4049   0.110   7.092   2.875  0.2465 -0.0490 -0.0742
 3053W        W 4050   3.608   6.851   6.357  0.2200  0.2473 -0.1658
 3054W        W 4051   6.729   4.070   2.195  0.0159  0.1990  0.0376
 3055W        W 4052   0.514   3.576   3.141 -0.0007 -0.3246  0.3269
 3056W        W 4053   1.604   4.230   1.573 -0.0900  0.0867 -0.2611
 3057W        W 4054   0.341   4.700   2.141  0.0254  0.1979  0.2578
 3058W        W 4055   3.195   4.536   3.263 -0.4149  0.0239 -0.0036
 3059W        W 4056   0.706   0.966   1.385  0.1884  0.3380  0.2480
 3060W        W 4057   3.607   6.895   1.674 -0.0929  0.0064 -0.1371
 3061W        W 4058   2.713   2.533   6.134  0.2134 -0.0898 -0.2706
 3062W        W 4059   7.586   1.314   0.373 -0.1846 -0.1056  0.1142
 3063W        W 4060   1.946   1.578   0.653  0.1587 -0.0118  0.3482
 3064W        W 4061   3.547   2.044   2.311 -0.0666  0.0418 -0.0253
 3065W        W 4062   2.945   0.423   1.948 -0.1602 -0.0720  0.0848
 3066W        W 4063   3.901   1.745   0.231  0.0462 -0.0143  0.3479
 3067W        W 4064   3.961   3.638   7.226 -0.1658  0.1225 -0.0245
 3068W        W 4065   5.237   0.557   2.186 -0.1479 -0.0561  0.1293
 3069W        W 4066   5.711   2.489   6.587  0.2978  0.1711 -0.0059
 3070W        W 4067   2.559   5.146   3.764  0.0642 -0.0679  0.0937
 3071W        W 4068   6.137   1.509   1.248  0.2858  0.3539 -0.0179
 3072W        W 4069   6.607   1.304   0.713 -0.0130 -0.4244 -0.0861
 3073W        W 4070   5.091   2.401   5.573  0.1867  0.1929  0.3266
 3074W        W 4071   2.832   2.288   5.706 -0.1633 -0.1197 -0.0846
 3075W        W 4072   0.065   2.342   6.128 -0.1314  0.0948 -0.1161
 3076W        W 4073   6.442   0.754   0.640  0.0968 -0.0488 -0.0723
 3077W        W 4074   5.067   4.752   6.049  0.1211 -0.2234 -0.0861
 3078W        W 4075   1.029   4.170   1.138  0.1844  0.2171 -0.3516
 3079W        W 4076   6.355   5.460   2.180 -0.0900  0.0869  0.1379
 3080W        W 4077   5.148   4.224   1.089 -0.1089  0.0090  0.2166
 3081W        W 4078   7.515   1.276   2.839  0.0649  0.3135  0.0149
 3082W        W 4079   6.304   3.934   1.981 -0.2869  0.1926  0.2699
 3083W        W 4080   3.693   1.384   1.275  0.3517  0.1524  0.0061
 3084W        W 4081   3.339   0.974   5.938  0.0436 -0.0074 -0.1793
 3085W        W 4082   0.293   4.429   0.355  0.4065  0.0896 -0.0998
 3086W        W 4083   1.431   1.030   4.785 -0.2824 -0.1476  0.1067
 3087W        W 4084   0.708   1.902   1.163 -0.2879  0.2140  0.2474
 3088W        W 4085   4.639   7.499   5.967  0.1010 -0.1900  0.0855
 3089W        W 4086   2.399   1.230   2.702  0.1711 -0.2586 -0.1187
 3090W        W 4087   1.205   6.138   5.637 -0.0839  0.0326 -0.1672
 3091W        W 4088   0.093   1.639   2.369  0.1673 -0.2099  0.0962
 3092W        W 4089   3.449   4.736   3.895  0.2755  0.0382  0.1928
 3093W        W 4090   3.041   2.190   5.258 -0.0117  0.3319  0.0417
 3094W        W 4091   2.258   0.280   0.368 -0.1911  0.0676  0.2593
 3095W        W 4092   0.886   0.013   2.995  0.2000  0.0568  0.0143
 3096W        W 4093   0.841   1.707   2.379  0.0599 -0.3134  0.0795
 3097W        W 4094   5.678   2.217   4.988 -0.3204  0.0533 -0.0730
 3098W        W 4095   1.716   5.849   5.612  0.1527  0.0933  0.3552
 3099W        W 4096   4.334   3.433   0.822  0.0251  0.0262  0.0274
 3100W        W 4097   2.947   5.750   4.004 -0.2408  0.2773  0.2126
 3101W        W 4098   7.543   3.025   0.006  0.0638  0.2177  0.0611
 3102W        W 4099   3.804   4.929   4.432 -0.2674  0.4656 -0.0116
 3103W        W 4100   2.465   0.646   2.594  0.1146  0.3505 -0.1336
 3104W        W 4101   1.477   4.514   1.093 -0.1023 -0.2227 -0.0122
 3105W        W 4102   1.737   7.092   2.791 -0.0098  0.0179 -0.1326
 3106W        W 4103   4.715   1.557   6.722 -0.3416  0.1997  0.2364
 3107W        W 4104   3.874   1.363   0.811  0.0832  0.2838  0.0838
 3108W        W 4105   7.355   3.097   6.893  0.0101  0.0281  0.0639
 3109W        W 4106   0.753   2.050   3.485 -0.1370 -0.1393 -0.1193
 3110W        W 4107   2.451   0.014   7.052  0.0171  0.1791  0.1637
 3111W        W 4108   4.569   7.626   4.645 -0.1919 -0.1972 -0.2646
 3112W        W 4109   2.812   0.216   6.188  0.2026 -0.1071 -0.1524
 3113W        W 4110   2.436   1.800   7.197  0.0242  0.5303 -0.0518
 3114W        W 4111   0.346   4.244   2.345 -0.0821  0.2422  0.0333
 3115W        W 4112   4.840   6.946   2.447  0.6374  0.0233  0.0653
 3116W        W 4113   6.720   0.129   3.449 -0.1725 -0.0065 -0.0619
 3117W        W 4114   3.267   1.999   5.709  0.2925  0.3473 -0.2687
 3118W        W 4115   7.273   4.483   2.971  0.3051  0.2445 -0.3407
 3119W        W 4116   7.269   2.033   6.806  0.0430  0.0839 -0.2291
 3120W        W 4117   4.659   1.273   5.857 -0.1330 -0.0703 -0.1518
 3121W        W 4118   2.189   2.073   2.206 -0.0296  0.2744  0.1673
 3122W        W 4119   5.636   1.563   6.258 -0.1211 -0.2351 -0.0976
 3123W        W 4120   1.176   7.381   0.124 -0.1114 -0.1918 -0.0134
 3124W        W 4121   6.372   0.461   3.511 -0.0022 -0.2227  0.0140
 3125W        W 4122   1.284   6.123   6.894 -0.0991 -0.1136 -0.2627
 3126W        W 4123   2.846   6.543   7.545  0.2572 -0.5610 -0.1035
 3127W        W 4124   0.986   6.683   5.140  0.0113  0.1664  0.0872
 3128W        W 4125   0.677   7.293   6.736  0.1168 -0.1361 -0.2544
 3129W        W 4126   1.229   6.803   7.027  0.0870 -0.0025 -0.4207
 3130W        W 4127   5.620   0.736   4.608 -0.1689  0.2201  0.1037
 3131W        W 4128   2.002   7.182   1.436 -0.2911 -0.2712  0.0978
 3132W        W 4129   7.190   2.460   2.435  0.0999 -0.1628  0.0624
 3133W        W 4130   3.996   6.025   7.432  0.2421 -0.1245 -0.2197
 3134W        W 4131   7.348   7.646   7.255 -0.0629 -0.1788 -0.0572
 3135W        W 4132   4.073   0.434   1.181  0.0396 -0.1111  0.1359
 3136W        W 4133   4.827   6.173   2.452  0.0804 -0.1082  0.0242
 3137W        W 4134   1.926   2.839   1.197 -0.1878  0.4402 -0.2890
 3138W        W 4135   0.223   7.495   0.739 -0.0891 -0.1274  0.1306
 3139W        W 4136   0.945   3.627   1.157  0.1732 -0.1667 -0.2037
 3140W        W 4137   1.447   1.796   7.181 -0.0963 -0.1921 -0.2289
 3141W        W 4138   0.692   6.269   3.958 -0.1237 -0.1465  0.2116
 3142W        W 4139   6.875   3.506   5.812  0.0263 -0.0757 -0.2448
 3143W        W 4140   5.128   1.132   5.294 -0.1868 -0.1733  0.0943
 3144W        W 4141   3.418   2.968   5.003  0.3048 -0.0457  0.1337
 3145W        W 4142   4.150   2.958   0.703  0.0798  0.0463  0.0370
 3146W        W 4143   5.993   0.425   4.653 -0.0397  0.1751 -0.0720
 3147W        W 4144   6.879   1.990   4.634  0.2066  0.1806 -0.0846
 3148W        W 4145   3.430   4.151   0.075 -0.1455  0.0796 -0.1234
 3149W        W 4146   5.370   0.098   3.896 -0.0924  0.2224 -0.1778
 3150W        W 4147   0.909   7.331   2.356 -0.0534 -0.2454  0.1410
 3151W        W 4148   0.013   0.669   0.980 -0.0927  0.0503 -0.0261
 3152W        W 4149   5.596   1.408   1.925  0.0667 -0.2703  0.0063
 3153W        W 4150   0.944   1.660   7.329 -0.0620 -0.1713  0.1684
 3154W        W 4151   6.367   2.124   4.662 -0.2848 -0.1449 -0.0425
 3155W        W 4152   1.368   7.356   4.452 -0.0225  0.2770 -0.1069
 3156W        W 4153   0.938   1.840   3.923 -0.0291 -0.0368 -0.0051
 3157W        W 4154   4.303   0.856   5.500  0.0179 -0.0711 -0.0358
 3158W        W 4155   1.453   2.430   5.866  0.2519  0.2532 -0.4420
 3159W        W 4156   4.655   0.537   6.441 -0.2708 -0.0101 -0.0679
 3160W        W 4157   5.042   6.673   3.690  0.0579  0.0517 -0.0732
 3161W        W 4158   3.285   3.221   6.369  0.2281  0.1129 -0.1441
 3162W        W 4159   6.408   0.666   1.720  0.1334 -0.4381 -0.0069
 3163W        W 4160   3.961   1.445   3.474  0.0707 -0.0678  0.0744
 3164W        W 4161   5.917   4.216   3.941 -0.5155  0.2509  0.0495
 3165W        W 4162   1.073   1.046   6.208  0.1554 -0.0186  0.2461
 3166W        W 4163   6.703   2.309   3.822 -0.2348 -0.1483  0.0652
 3167W        W 4164   7.121   3.313   4.767  0.1181  0.1750  0.0221
 3168W        W 4165   3.005   5.112   5.118 -0.2289 -0.0777 -0.1059
 3169W        W 4166   3.248   1.057   1.916  0.2884  0.0525  0.0082
 3170W        W 4167   6.607   5.142   1.744 -0.2007  0.0930 -0.3852
 3171W        W 4168   3.908   2.627   2.709 -0.2216 -0.2955 -0.2438
 3172W        W 4169   5.518   4.958   4.074 -0.0345 -0.0594 -0.0486
 3173W        W 4170   3.284   6.535   2.051 -0.1513  0.2040 -0.2462
 3174W        W 4171   3.751   2.924   4.461  0.1013  0.1575 -0.0239
 3175W        W 4172   4.168   2.653   4.534 -0.0059 -0.1821  0.1015
 3176W        W 4173   2.685   6.895   6.723  0.1768  0.0741  0.0476
 3177W        W 4174   6.526   0.156   4.947  0.1288  0.2725 -0.0626
 3178W        W 4175   6.531   7.618   1.168 -0.0851  0.0776  0.1398
 3179W        W 4176   3.399   0.904   0.310  0.0020  0.1256  0.0686
 3180W        W 4177   3.192   7.311   4.871 -0.1867  0.1146 -0.0411
 3181W        W 4178   0.665   5.640   1.521 -0.3060 -0.2282 -0.2934
 3182W        W 4179   3.071   6.088   5.506 -0.1583 -0.1048 -0.0627
 3183W        W 4180   4.998   1.920   5.589  0.1298 -0.0351 -0.0523
 3184W        W 4181   2.886   7.562   5.268 -0.0274 -0.0000 -0.0549
 3185W        W 4182   2.559   3.336   0.918 -0.0580 -0.1165  0.0564
 3186W        W 4183   4.610   4.693   3.381  0.2316  0.4650  0.0313
 3187W        W 4184   2.552   3.843   7.320  0.1956  0.2072  0.3987
 3188W        W 4185   5.062   0.700   4.903  0.2015  0.0750 -0.0519
 3189W        W 4186   3.869   2.678   6.820 -0.2077  0.0442 -0.5414
 3190W        W 4187   2.264   0.325   6.056  0.1370 -0.0502 -0.0458
 3191W        W 4188   0.765   2.587   7.405 -0.1835  0.0306 -0.1820
 3192W        W 4189   4.906   1.330   3.949 -0.0340  0.1930 -0.4006
 3193W        W 4190   4.772   3.048   2.846  0.0192 -0.1151  0.0882
 3194W        W 4191   0.984   3.950   4.004  0.2087 -0.0605 -0.0956
 3195W        W 4192   3.654   0.854   1.447 -0.1636  0.2896  0.0646
 3196W        W 4193   4.397   2.569   3.749 -0.0549 -0.1233 -0.0036
 3197W        W 4194   3.852   5.298   0.974 -0.0814 -0.1202  0.1305
 3198W        W 4195   2.853   5.422   6.700  0.0085 -0.2655  0.2171
 3199W        W 4196   7.133   1.453   6.062 -0.2395 -0.0923 -0.0545
 3200W        W 4197   3.199   3.206   1.637 -0.1096 -0.0600 -0.0895
 3201W        W 4198   3.489   7.003   2.193  0.1452 -0.0249 -0.0139
 3202W        W 4199   0.215   5.704   1.162  0.1415 -0.1310 -0.0256
 3203W        W 4200   7.002   0.103   1.216 -0.1627 -0.0044 -0.1283
 3204W        W 4201   3.348   1.751   5.268  0.5534  0.2625  0.0640
 3205W        W 4202   0.902   5.679   6.920  0.0718  0.0950  0.2486
 3206W        W 4203   4.725   3.065   7.137 -0.0324 -0.1083  0.2050
 3207W        W 4204   3.842   0.714   5.445 -0.1337  0.1515  0.1728
 3208W        W 4205   1.062   6.316   0.066 -0.0624  0.2325  0.1197
 3209W        W 4206   7.605   4.033   2.177 -0.0995  0.0873  0.2625
 3210W        W 4207   3.510   2.772   0.004  0.0843  0.1693 -0.0004
 3211W        W 4208   1.935   5.898   4.656  0.1042  0.0933 -0.2652
 3212W        W 4209   6.374   4.583   1.909  0.2210 -0.2106 -0.1507
 3213W        W 4210   7.192   2.184   3.707  0.1516 -0.1290  0.5719
 3214W        W 4211   1.183   4.848   0.538 -0.0459  0.0604 -0.1184
 3215W        W 4212   3.429   6.006   5.077  0.2249  0.1144 -0.0626
 3216W        W 4213   0.422   5.279   7.661  0.1856  0.0345 -0.1951
 3217W        W 4214   5.828   7.512   5.196 -0.2508 -0.0029 -0.0847
 3218W        W 4215   3.739   6.784   7.193  0.1095 -0.1925 -0.1662
 3219W        W 4216   4.352   1.675   1.067  0.2102 -0.1919 -0.1943
 3220W        W 4217   7.350   0.895   5.235 -0.1166  0.2863  0.2672
 3221W        W 4218   3.745   6.196   4.188  0.1298  0.1341  0.1144
 3222W        W 4219   6.869   3.309   3.488  0.4480 -0.2012  0.2108
 3223W        W 4220   7.512   0.118   0.965 -0.0532 -0.0043  0.4481
 3224W        W 4221   0.623   7.081   7.559 -0.1100 -0.1884 -0.1087
 3225W        W 4222   5.309   3.648   6.675  0.1420  0.4695 -0.3541
 3226W        W 4223   2.797   4.349   2.538  0.0777 -0.1477 -0.1552
 3227W        W 4224   5.297   7.388   7.496  0.0099 -0.0201  0.1408
 3228W        W 4225   3.652   1.704   5.688  0.0401  0.2592  0.1505
 3229W        W 4226   4.794   6.045   4.272  0.3975 -0.0638 -0.2855
 3230W        W 4227   3.773   2.202   5.987  0.1517 -0.1847 -0.0502
 3231W        W 4228   4.293   7.420   2.872  0.0989  0.0461 -0.1113
 3232W        W 4229   4.249   3.621   4.332  0.1633  0.0528  0.2313
 3233W        W 4230   7.256   1.269   7.197 -0.0972  0.2626  0.1345
 3234W        W 4231   6.356   3.437   2.750 -0.1745 -0.1169  0.2254
 3235W        W 4232   0.672   6.343   2.750 -0.1392  0.1454 -0.1387
 3236W        W 4233   2.470   3.090   1.747 -0.0622 -0.0286 -0.1204
 3237W        W 4234   2.480   6.249   2.331 -0.0085 -0.2988  0.0232
 3238W        W 4235   4.530   1.029   1.317 -0.2384  0.1816  0.1506
 3239W        W 4236   3.794   0.224   5.379 -0.3468 -0.3707  0.0890
 3240W        W 4237   6.869   2.233   1.651 -0.2450  0.2139 -0.0136
 3241W        W 4238   1.358   3.544   0.898  0.3953 -0.1387  0.0083
 3242W        W 4239   2.418   2.840   3.615 -0.3610 -0.1484 -0.1014
 3243W        W 4240   7.157   3.482   7.479 -0.0846 -0.2037  0.1392
 3244W        W 4241   0.961   4.887   3.258  0.1663 -0.2208  0.0668
 3245W        W 4242   3.257   1.687   4.045 -0.0881  0.1872 -0.3564
 3246W        W 4243   0.576   2.560   3.847 -0.0903 -0.3054 -0.2314
 3247W        W 4244   5.696   4.080   5.274 -0.0520 -0.0216  0.0622
 3248W        W 4245   3.048   5.002   6.528 -0.0487  0.0331 -0.1281
 3249W        W 4246   7.265   1.559   1.347  0.2191  0.0368 -0.1024
 3250W        W 4247   3.073   4.420   5.042 -0.0278  0.0895  0.0819
   7.66777   7.66777   7.66777
