Martini system from ../2_Creating_coordinates/TYR-ARG-TYR_aa.pdb
 4240
    1TYR     BB    1   6.109   2.687   1.986  0.1707 -0.1779  0.0135
    1TYR    SC1    2   6.038   2.392   1.847 -0.0457 -0.1100  0.1930
    1TYR    SC2    3   6.005   2.124   1.849  0.3420 -0.1734 -0.1598
    1TYR    SC3    4   5.859   2.277   1.681 -0.0231 -0.1266  0.1802
    2ARG     BB    5   6.423   2.815   2.045  0.1675 -0.2285  0.0014
    2ARG    SC1    6   6.518   2.737   2.320  0.2641 -0.1082  0.1744
    2ARG    SC2    7   6.700   2.973   2.535 -0.1127  0.1137 -0.0635
    3TYR     BB    8   6.635   3.089   2.004  0.3066  0.0516 -0.1861
    3TYR    SC1    9   6.864   3.051   1.832  0.2301 -0.1557  0.1452
    3TYR    SC2   10   7.012   3.152   1.630 -0.0556  0.1169  0.0621
    3TYR    SC3   11   7.025   2.889   1.690  0.4382  0.1275  0.0465
    1TYR     BB   12   5.377   4.403   1.748  0.0031 -0.1565 -0.1599
    1TYR    SC1   13   5.129   4.372   1.551  0.0189 -0.0243  0.0241
    1TYR    SC2   14   4.881   4.293   1.477  0.0925 -0.4410  0.1878
    1TYR    SC3   15   5.060   4.371   1.290 -0.1473 -0.1619  0.0661
    2ARG     BB   16   5.642   4.537   1.566  0.1931 -0.0955 -0.2561
    2ARG    SC1   17   5.533   4.498   1.268 -0.1067  0.2399 -0.2657
    2ARG    SC2   18   5.462   4.718   1.029  0.1622 -0.0184 -0.2526
    3TYR     BB   19   5.793   4.840   1.604  0.3018 -0.0678 -0.1735
    3TYR    SC1   20   5.848   5.016   1.369  0.2951 -0.0558 -0.0711
    3TYR    SC2   21   5.769   5.214   1.202  0.6131  0.2435  0.1167
    3TYR    SC3   22   5.868   4.983   1.101  0.0902  0.0989 -0.1084
    1TYR     BB   23   5.907   5.124   2.063 -0.1371  0.1420  0.4346
    1TYR    SC1   24   5.835   4.813   2.132 -0.1189 -0.0385 -0.0146
    1TYR    SC2   25   5.993   4.601   2.078  0.0180  0.0800 -0.0899
    1TYR    SC3   26   5.725   4.569   2.095  0.0347 -0.0929 -0.1246
    2ARG     BB   27   6.200   5.100   2.146  0.0349 -0.0281 -0.0188
    2ARG    SC1   28   6.414   5.326   2.070  0.0787 -0.1560 -0.2839
    2ARG    SC2   29   6.447   5.577   1.833  0.2704  0.0311 -0.2369
    3TYR     BB   30   6.320   4.976   2.417 -0.0101 -0.1515  0.2248
    3TYR    SC1   31   6.545   5.155   2.530  0.0871  0.2197 -0.0567
    3TYR    SC2   32   6.722   5.347   2.460 -0.0496  0.2909 -0.2169
    3TYR    SC3   33   6.762   5.201   2.683  0.1850  0.3373 -0.2258
    1TYR     BB   34   6.722   3.376   5.580  0.1952  0.0159 -0.2828
    1TYR    SC1   35   6.724   3.333   5.269 -0.4271  0.1621 -0.0897
    1TYR    SC2   36   6.717   3.173   5.051  0.0589  0.2245 -0.1661
    1TYR    SC3   37   6.535   3.371   5.079 -0.3238 -0.0978 -0.2515
    2ARG     BB   38   6.541   3.189   5.707  0.1920  0.0709 -0.0449
    2ARG    SC1   39   6.531   2.880   5.554 -0.1869  0.0547  0.3430
    2ARG    SC2   40   6.557   2.734   5.259  0.0788 -0.3007 -0.0090
    3TYR     BB   41   6.419   3.155   5.914 -0.1589 -0.2164  0.1541
    3TYR    SC1   42   6.463   3.076   6.209  0.2338  0.1478 -0.0219
    3TYR    SC2   43   6.438   3.175   6.460 -0.4615 -0.1436  0.0528
    3TYR    SC3   44   6.433   2.908   6.418  0.3702 -0.1528 -0.2357
    1TYR     BB   45   2.996   3.732   0.065 -0.2671 -0.1998 -0.2983
    1TYR    SC1   46   3.129   3.978   0.054  0.0776 -0.1909  0.4072
    1TYR    SC2   47   3.106   4.247   0.034 -0.2586 -0.2433 -0.2465
    1TYR    SC3   48   3.332   4.138   0.134 -0.2162  0.2698  0.2824
    2ARG     BB   49   3.025   3.554   0.301  0.2331  0.0899  0.2687
    2ARG    SC1   50   2.967   3.266   0.250  0.2511  0.1659  0.0038
    2ARG    SC2   51   2.755   3.163   0.094  0.2555 -0.1047  0.0915
    3TYR     BB   52   2.923   3.620   0.579  0.1790 -0.0535  0.0501
    3TYR    SC1   53   3.018   3.919   0.629  0.1842 -0.0539  0.3146
    3TYR    SC2   54   3.030   4.132   0.464 -0.3955 -0.1323  0.1404
    3TYR    SC3   55   3.229   4.086   0.640 -0.0509  0.3000 -0.1089
    1TYR     BB   56   2.812   6.658   4.795  0.1600 -0.0638 -0.1399
    1TYR    SC1   57   2.988   6.497   4.953  0.1155  0.2451 -0.1815
    1TYR    SC2   58   3.219   6.374   5.020  0.2665  0.3270 -0.5214
    1TYR    SC3   59   3.092   6.530   5.200  0.3506  0.1018 -0.2564
    2ARG     BB   60   2.553   6.543   4.695 -0.0654 -0.1409 -0.2041
    2ARG    SC1   61   2.328   6.581   4.930 -0.0239  0.0467 -0.1438
    2ARG    SC2   62   2.065   6.423   5.039 -0.0431 -0.3288  0.0262
    3TYR     BB   63   2.452   6.252   4.602  0.0853 -0.1537 -0.2047
    3TYR    SC1   64   2.278   6.061   4.771  0.2569  0.0599  0.1475
    3TYR    SC2   65   2.049   5.935   4.842  0.3574 -0.2369 -0.0316
    3TYR    SC3   66   2.248   5.965   5.022  0.0579  0.3392  0.2365
    1TYR     BB   67   5.660   3.474   3.029 -0.3417  0.4317 -0.2126
    1TYR    SC1   68   5.844   3.690   3.077  0.0257  0.0951  0.2134
    1TYR    SC2   69   6.110   3.716   3.117  0.0410  0.1810  0.0639
    1TYR    SC3   70   5.944   3.923   3.169  0.0025  0.1272  0.1581
    2ARG     BB   71   5.668   3.201   3.099  0.2707 -0.0346 -0.2246
    2ARG    SC1   72   5.416   3.108   3.294 -0.3127  0.1285 -0.0352
    2ARG    SC2   73   5.218   2.946   3.498  0.2825 -0.0892 -0.1624
    3TYR     BB   74   5.701   2.975   2.803  0.3428 -0.1974  0.1448
    3TYR    SC1   75   5.402   3.059   2.744 -0.2121  0.5275  0.0200
    3TYR    SC2   76   5.186   3.066   2.582 -0.0640 -0.0575 -0.2351
    3TYR    SC3   77   5.154   3.070   2.850 -0.4118 -0.3028 -0.2640
    1TYR     BB   78   6.375   3.679   5.421 -0.2080  0.0053 -0.0528
    1TYR    SC1   79   6.185   3.408   5.381 -0.1273 -0.0906  0.0452
    1TYR    SC2   80   5.960   3.278   5.455  0.1096 -0.2603  0.5204
    1TYR    SC3   81   6.161   3.143   5.334 -0.0856 -0.0784 -0.0476
    2ARG     BB   82   6.291   3.925   5.515 -0.0100  0.3465 -0.4158
    2ARG    SC1   83   6.386   4.183   5.320  0.1787 -0.1522 -0.1011
    2ARG    SC2   84   6.316   4.447   5.106  0.0694 -0.0082 -0.1401
    3TYR     BB   85   6.173   4.066   5.738  0.1514  0.2841  0.0421
    3TYR    SC1   86   6.301   4.155   5.963 -0.1055 -0.1529  0.1541
    3TYR    SC2   87   6.443   4.124   6.191  0.2556 -0.0604 -0.0477
    3TYR    SC3   88   6.523   4.303   6.005 -0.1268 -0.0139 -0.1791
    1TYR     BB   89   2.191   4.047   5.899 -0.0824 -0.1586 -0.2709
    1TYR    SC1   90   2.334   3.824   6.029 -0.4953 -0.2501  0.5209
    1TYR    SC2   91   2.518   3.814   6.226 -0.1359 -0.3441  0.1956
    1TYR    SC3   92   2.488   3.604   6.059  0.0472 -0.0288 -0.2578
    2ARG     BB   93   1.882   4.083   5.919  0.1314  0.0406 -0.0896
    2ARG    SC1   94   1.721   3.822   6.035  0.3111 -0.1300 -0.3278
    2ARG    SC2   95   1.581   3.722   6.323  0.0374 -0.1427  0.1366
    3TYR     BB   96   1.683   4.289   6.022  0.2748 -0.1599 -0.0512
    3TYR    SC1   97   1.535   4.229   6.291 -0.2605  0.2575  0.1620
    3TYR    SC2   98   1.614   4.152   6.538 -0.1482  0.1131  0.0832
    3TYR    SC3   99   1.495   4.392   6.503 -0.0014  0.2133  0.2499
    1TYR     BB  100   6.827   2.827   5.920  0.2677  0.0852  0.0820
    1TYR    SC1  101   7.106   2.946   5.885  0.0095  0.0633 -0.3316
    1TYR    SC2  102   7.372   2.922   5.927 -0.0699 -0.0504  0.1925
    1TYR    SC3  103   7.257   3.166   5.931 -0.0056 -0.0199  0.2000
    2ARG     BB  104   6.845   2.584   6.074 -0.0572 -0.2400 -0.0237
    2ARG    SC1  105   7.075   2.393   6.099  0.2794 -0.0742 -0.1761
    2ARG    SC2  106   7.168   2.097   6.241  0.0226  0.0895  0.1763
    3TYR     BB  107   6.633   2.471   6.304 -0.0800  0.1633 -0.2030
    3TYR    SC1  108   6.824   2.445   6.554 -0.1849  0.0668 -0.0691
    3TYR    SC2  109   6.803   2.375   6.814  0.0159  0.3733  0.0361
    3TYR    SC3  110   7.042   2.360   6.689 -0.0880  0.1871 -0.1468
    1TYR     BB  111   5.929   3.637   1.005  0.2707  0.2582  0.1931
    1TYR    SC1  112   5.652   3.581   1.061  0.0018  0.1652 -0.3729
    1TYR    SC2  113   5.439   3.591   1.227  0.1700 -0.0966 -0.1287
    1TYR    SC3  114   5.512   3.357   1.113  0.3418 -0.0156 -0.1907
    2ARG     BB  115   6.142   3.501   0.756  0.0329  0.1685 -0.0643
    2ARG    SC1  116   6.080   3.638   0.488 -0.1134  0.0982  0.2574
    2ARG    SC2  117   6.298   3.528   0.244 -0.2866  0.1179  0.1829
    3TYR     BB  118   6.253   3.241   0.662  0.1047 -0.2157  0.1184
    3TYR    SC1  119   6.473   3.122   0.544 -0.1253 -0.1489 -0.1679
    3TYR    SC2  120   6.576   2.876   0.502  0.0859 -0.1133  0.1079
    3TYR    SC3  121   6.712   3.095   0.423 -0.2207 -0.0793 -0.3783
    1TYR     BB  122   5.045   3.001   5.375 -0.1016  0.0722  0.0865
    1TYR    SC1  123   4.850   2.809   5.559  0.3980 -0.1901 -0.0414
    1TYR    SC2  124   4.865   2.611   5.741 -0.1429 -0.1422  0.0765
    1TYR    SC3  125   4.706   2.584   5.525  0.2506 -0.0710 -0.2385
    2ARG     BB  126   4.945   3.299   5.405  0.1113 -0.0773  0.0158
    2ARG    SC1  127   4.857   3.514   5.141  0.0890  0.0338 -0.0722
    2ARG    SC2  128   4.774   3.698   4.863  0.1949 -0.0639 -0.1880
    3TYR     BB  129   5.059   3.469   5.670 -0.2061  0.0423  0.0542
    3TYR    SC1  130   5.237   3.719   5.567  0.0543  0.0987 -0.3775
    3TYR    SC2  131   5.203   3.965   5.672 -0.2624  0.0308 -0.3073
    3TYR    SC3  132   5.332   3.935   5.437  0.4352  0.1906  0.0251
    1TYR     BB  133   6.228   2.115   5.493 -0.0302 -0.1265 -0.1452
    1TYR    SC1  134   6.211   2.180   5.808  0.0415 -0.0016  0.2109
    1TYR    SC2  135   6.245   2.223   6.072  0.1632  0.1663  0.1702
    1TYR    SC3  136   6.015   2.297   5.951 -0.0214 -0.1912  0.2837
    2ARG     BB  137   6.139   2.404   5.426 -0.0156 -0.1146  0.2585
    2ARG    SC1  138   6.129   2.421   5.080  0.0290 -0.1685 -0.3310
    2ARG    SC2  139   6.135   2.465   4.779 -0.0110 -0.1744 -0.1626
    3TYR     BB  140   6.064   2.721   5.549  0.2201 -0.1397 -0.0634
    3TYR    SC1  141   6.127   2.709   5.826 -0.1127  0.2438  0.1704
    3TYR    SC2  142   6.115   2.715   6.096 -0.0547 -0.1802  0.1913
    3TYR    SC3  143   6.342   2.635   5.973 -0.1181 -0.0991  0.0175
    1TYR     BB  144   1.620   4.154   4.984  0.0428 -0.0347 -0.0496
    1TYR    SC1  145   1.539   4.061   5.259  0.0278  0.1247  0.0597
    1TYR    SC2  146   1.420   4.187   5.466 -0.0957  0.0006  0.0655
    1TYR    SC3  147   1.532   3.944   5.502 -0.0130  0.0307  0.0140
    2ARG     BB  148   1.888   4.132   4.925  0.0644 -0.0906  0.0265
    2ARG    SC1  149   2.039   3.898   4.757 -0.0651  0.0273 -0.0775
    2ARG    SC2  150   2.041   3.589   4.626  0.1025 -0.2784 -0.0632
    3TYR     BB  151   2.085   4.397   4.890 -0.1673  0.2365  0.0208
    3TYR    SC1  152   2.116   4.566   4.680  0.0556 -0.1048 -0.0812
    3TYR    SC2  153   2.306   4.648   4.506  0.1505 -0.1432  0.0030
    3TYR    SC3  154   2.070   4.554   4.414  0.0633  0.1590 -0.0978
    1TYR     BB  155   6.099   3.576   5.863  0.0199  0.0029  0.0455
    1TYR    SC1  156   5.979   3.339   5.994 -0.1700  0.0107  0.2626
    1TYR    SC2  157   5.896   3.091   5.926 -0.0946  0.0469  0.0231
    1TYR    SC3  158   5.990   3.139   6.175  0.1848 -0.2424 -0.0180
    2ARG     BB  159   6.352   3.663   5.999  0.1007  0.0668 -0.1847
    2ARG    SC1  160   6.573   3.767   5.852  0.0694  0.1668  0.1655
    2ARG    SC2  161   6.761   3.947   5.667 -0.1210 -0.1103  0.1475
    3TYR     BB  162   6.380   3.656   6.327  0.0391 -0.0188  0.1271
    3TYR    SC1  163   6.234   3.844   6.485 -0.1110 -0.1852  0.1114
    3TYR    SC2  164   6.245   4.065   6.639 -0.0910 -0.0673 -0.0559
    3TYR    SC3  165   6.073   3.867   6.700 -0.1311  0.0075  0.0782
    1TYR     BB  166   5.619   2.442   5.316  0.1510  0.1443 -0.1256
    1TYR    SC1  167   5.650   2.202   5.495 -0.2215 -0.2286 -0.0183
    1TYR    SC2  168   5.642   2.140   5.758 -0.0456 -0.0527  0.0314
    1TYR    SC3  169   5.537   1.971   5.576 -0.0706 -0.2283  0.2053
    2ARG     BB  170   5.619   2.737   5.386  0.1032 -0.1855  0.2742
    2ARG    SC1  171   5.820   2.880   5.134  0.0812  0.1035 -0.1971
    2ARG    SC2  172   5.533   2.980   4.932  0.0089 -0.1759 -0.1561
    3TYR     BB  173   5.521   3.006   5.528 -0.4498 -0.0850  0.2048
    3TYR    SC1  174   5.314   3.005   5.770 -0.1963  0.4269  0.0654
    3TYR    SC2  175   5.089   3.040   5.916 -0.2735 -0.1406  0.1116
    3TYR    SC3  176   5.253   2.832   5.969 -0.0309 -0.0638 -0.2859
    1TYR     BB  177   6.051   2.126   6.951  0.0431  0.1978  0.2160
    1TYR    SC1  178   6.360   2.029   6.987  0.2196  0.0527 -0.0859
    1TYR    SC2  179   6.616   1.959   7.039  0.2868  0.0129 -0.4355
    1TYR    SC3  180   6.417   1.874   7.201  0.4685 -0.1562 -0.2942
    2ARG     BB  181   5.907   1.871   6.853 -0.0026 -0.2475 -0.0619
    2ARG    SC1  182   5.986   1.674   7.069  0.0632 -0.1217  0.2385
    2ARG    SC2  183   6.134   1.380   7.071  0.0871 -0.1137 -0.0079
    3TYR     BB  184   5.818   1.885   6.521  0.2010 -0.1529 -0.1621
    3TYR    SC1  185   5.898   1.858   6.225 -0.2000 -0.0645  0.1903
    3TYR    SC2  186   5.869   1.827   5.958  0.2277 -0.0680  0.1367
    3TYR    SC3  187   6.066   1.696   6.089  0.0587 -0.0226  0.4480
    1TYR     BB  188   6.409   3.619   3.961 -0.2961 -0.2498 -0.1650
    1TYR    SC1  189   6.405   3.333   3.914  0.1169 -0.0465  0.1512
    1TYR    SC2  190   6.453   3.080   3.836  0.1854  0.0700 -0.2069
    1TYR    SC3  191   6.213   3.145   3.939  0.1942 -0.1532 -0.0350
    2ARG     BB  192   6.467   3.692   4.293 -0.1437  0.0183 -0.0588
    2ARG    SC1  193   6.635   3.387   4.356  0.2337 -0.1147 -0.3055
    2ARG    SC2  194   6.490   3.087   4.364  0.0123 -0.4891  0.3115
    3TYR     BB  195   6.257   3.931   4.462 -0.0850  0.0185  0.2138
    3TYR    SC1  196   6.448   4.126   4.536 -0.1789 -0.0193 -0.2318
    3TYR    SC2  197   6.684   4.254   4.506 -0.1568  0.0033  0.0102
    3TYR    SC3  198   6.604   4.174   4.751 -0.2224 -0.3509 -0.1182
    1TYR     BB  199   4.605   4.253   1.877  0.0103 -0.1592  0.2163
    1TYR    SC1  200   4.885   4.184   1.929 -0.1446 -0.1570  0.2598
    1TYR    SC2  201   5.094   4.032   1.852 -0.0419  0.0929  0.0245
    1TYR    SC3  202   5.060   4.093   2.113  0.0769 -0.0923  0.0857
    2ARG     BB  203   4.453   4.522   2.096  0.1309  0.1060 -0.3323
    2ARG    SC1  204   4.205   4.348   2.207  0.1252 -0.3813 -0.1949
    2ARG    SC2  205   3.940   4.307   2.359 -0.1737 -0.0220 -0.1451
    3TYR     BB  206   4.370   4.789   1.976 -0.2947  0.0171  0.0362
    3TYR    SC1  207   4.488   4.774   1.668  0.0924 -0.1597 -0.0775
    3TYR    SC2  208   4.664   4.674   1.490  0.2108  0.1592 -0.1484
    3TYR    SC3  209   4.468   4.841   1.408 -0.0859 -0.1306 -0.0580
    1TYR     BB  210   2.035   5.717   5.432 -0.1208  0.5815  0.2528
    1TYR    SC1  211   1.895   5.607   5.184  0.1825  0.0461 -0.0447
    1TYR    SC2  212   1.949   5.519   4.934 -0.2288 -0.0896 -0.0954
    1TYR    SC3  213   1.694   5.523   5.024 -0.0769 -0.1786  0.3767
    2ARG     BB  214   1.977   6.043   5.440 -0.1711  0.1041 -0.2870
    2ARG    SC1  215   1.759   6.087   5.649  0.0011  0.3191 -0.1541
    2ARG    SC2  216   1.605   6.280   5.851  0.0680 -0.1605  0.3088
    3TYR     BB  217   2.320   6.227   5.499  0.4541 -0.0233 -0.1050
    3TYR    SC1  218   2.551   6.190   5.284  0.1934  0.2666  0.1914
    3TYR    SC2  219   2.817   6.150   5.268  0.1837  0.2891 -0.0814
    3TYR    SC3  220   2.670   6.167   5.043 -0.0988 -0.0473  0.0663
    1TYR     BB  221   2.715   6.557   4.240 -0.1550  0.0985  0.0724
    1TYR    SC1  222   2.718   6.735   3.989 -0.0857  0.1646  0.2004
    1TYR    SC2  223   2.704   6.865   3.752 -0.3117  0.3069  0.2876
    1TYR    SC3  224   2.919   6.711   3.809 -0.2447  0.2868  0.0007
    2ARG     BB  225   2.953   6.346   4.344 -0.0513 -0.0666  0.0691
    2ARG    SC1  226   3.138   6.288   4.117  0.1197 -0.1864  0.3635
    2ARG    SC2  227   3.102   6.247   3.791  0.4698 -0.0546  0.2922
    3TYR     BB  228   2.959   6.224   4.570 -0.1350 -0.0474 -0.1625
    3TYR    SC1  229   3.137   6.045   4.740 -0.3084 -0.1045 -0.0150
    3TYR    SC2  230   3.037   5.845   4.891 -0.1790  0.0029  0.2201
    3TYR    SC3  231   3.279   5.950   4.950 -0.1599  0.0993 -0.0192
    1TYR     BB  232   3.253   3.409   7.399  0.2517  0.1390  0.5156
    1TYR    SC1  233   3.093   3.137   7.378  0.0768  0.0898  0.0732
    1TYR    SC2  234   3.170   2.892   7.295  0.1143  0.1686 -0.1329
    1TYR    SC3  235   2.912   2.970   7.268  0.0705  0.1017  0.0653
    2ARG     BB  236   3.435   3.601   7.522  0.1121  0.2249  0.0997
    2ARG    SC1  237   3.530   3.622   7.825 -0.0903 -0.3273 -0.0608
    2ARG    SC2  238   3.488   3.670   8.140  0.3068 -0.1954  0.0961
    3TYR     BB  239   3.596   3.743   7.304  0.0479 -0.0210 -0.1638
    3TYR    SC1  240   3.712   4.012   7.485  0.1485 -0.1849  0.0436
    3TYR    SC2  241   3.849   4.244   7.508  0.0224 -0.1216  0.1746
    3TYR    SC3  242   3.791   4.099   7.728 -0.2011 -0.0999  0.1334
    1TYR     BB  243   2.325   4.799   5.033 -0.1982  0.0770  0.2116
    1TYR    SC1  244   2.541   4.646   4.906 -0.2676  0.2631 -0.1367
    1TYR    SC2  245   2.670   4.513   4.710 -0.1671  0.0075  0.0951
    1TYR    SC3  246   2.766   4.508   4.962 -0.1026  0.6098  0.1011
    2ARG     BB  247   2.034   4.815   5.137 -0.2798 -0.3393  0.1752
    2ARG    SC1  248   1.855   4.605   5.230 -0.0596  0.0615  0.1561
    2ARG    SC2  249   1.882   4.360   5.402  0.1177 -0.1010 -0.0119
    3TYR     BB  250   2.026   5.095   5.278  0.2002  0.4863  0.0241
    3TYR    SC1  251   1.783   5.236   5.369  0.2016  0.0862  0.1396
    3TYR    SC2  252   1.548   5.152   5.472 -0.0145  0.1755 -0.2562
    3TYR    SC3  253   1.673   5.367   5.578 -0.0116  0.0197  0.0721
    1TYR     BB  254   3.346   5.115   6.067 -0.1782  0.1017 -0.1298
    1TYR    SC1  255   3.134   5.293   6.154 -0.1890 -0.2925 -0.1974
    1TYR    SC2  256   2.877   5.367   6.119 -0.0944  0.0886 -0.1369
    1TYR    SC3  257   3.004   5.424   6.351 -0.0576 -0.4281 -0.0156
    2ARG     BB  258   3.593   5.095   6.184 -0.0946  0.3262  0.1791
    2ARG    SC1  259   3.871   5.204   6.083 -0.0326  0.0627 -0.0017
    2ARG    SC2  260   4.071   5.451   6.051 -0.0073 -0.4681 -0.1015
    3TYR     BB  261   3.691   4.958   6.469 -0.2221 -0.0959  0.1275
    3TYR    SC1  262   3.647   5.151   6.718  0.1817 -0.0415 -0.1411
    3TYR    SC2  263   3.664   5.382   6.856  0.0555  0.0918 -0.3432
    3TYR    SC3  264   3.594   5.154   6.983 -0.0449  0.2082 -0.1842
    1TYR     BB  265   2.727   4.753   6.884  0.1641 -0.0158 -0.1359
    1TYR    SC1  266   2.691   5.114   6.927  0.3355  0.0033  0.1134
    1TYR    SC2  267   2.678   5.374   6.853  0.0646 -0.0310  0.0282
    1TYR    SC3  268   2.868   5.292   7.027  0.4670  0.1293 -0.3158
    2ARG     BB  269   2.492   4.688   6.718  0.3316  0.0972 -0.1673
    2ARG    SC1  270   2.249   4.923   6.778 -0.0121 -0.1469 -0.3925
    2ARG    SC2  271   1.947   4.936   6.899 -0.0949  0.0192  0.1447
    3TYR     BB  272   2.490   4.542   6.450  0.1000 -0.1209 -0.4102
    3TYR    SC1  273   2.787   4.495   6.385 -0.0244 -0.2053 -0.1322
    3TYR    SC2  274   3.003   4.567   6.530 -0.2607 -0.0241  0.1435
    3TYR    SC3  275   3.008   4.589   6.261  0.0791 -0.0744  0.1405
    1TYR     BB  276   4.665   4.090   2.395  0.2871 -0.1431  0.3839
    1TYR    SC1  277   4.545   4.301   2.532  0.2148  0.0904  0.0843
    1TYR    SC2  278   4.350   4.423   2.674  0.1361  0.1901 -0.1061
    1TYR    SC3  279   4.610   4.465   2.737  0.0997 -0.1038  0.2821
    2ARG     BB  280   4.901   3.976   2.573  0.1503  0.2755  0.5430
    2ARG    SC1  281   4.732   3.898   2.822 -0.1114 -0.0204 -0.1395
    2ARG    SC2  282   4.499   4.010   3.015 -0.0937  0.3005 -0.1702
    3TYR     BB  283   5.165   4.066   2.626 -0.0349  0.1274  0.0927
    3TYR    SC1  284   5.407   4.022   2.427  0.1367  0.3637  0.4090
    3TYR    SC2  285   5.645   3.923   2.343 -0.0218  0.1428  0.2026
    3TYR    SC3  286   5.508   4.097   2.188 -0.1512  0.0068  0.1612
    1TYR     BB  287   4.497   3.701   6.313  0.2606 -0.1534  0.2886
    1TYR    SC1  288   4.392   3.513   6.498  0.2083 -0.2377 -0.2141
    1TYR    SC2  289   4.155   3.444   6.607  0.2179  0.2125  0.1309
    1TYR    SC3  290   4.379   3.311   6.677  0.1690  0.2600  0.3893
    2ARG     BB  291   4.509   4.006   6.332 -0.0894  0.0229 -0.0826
    2ARG    SC1  292   4.792   4.149   6.405  0.0716 -0.0315  0.0654
    2ARG    SC2  293   4.925   4.352   6.643  0.1907  0.1413  0.0818
    3TYR     BB  294   4.329   4.213   6.216 -0.1933  0.3254  0.0605
    3TYR    SC1  295   4.411   4.473   6.301  0.3813 -0.0157  0.1166
    3TYR    SC2  296   4.565   4.661   6.419  0.0976  0.2993  0.0058
    3TYR    SC3  297   4.528   4.665   6.152  0.0771  0.0878  0.0028
    1TYR     BB  298   6.320   4.325   3.377 -0.0575  0.0878  0.0927
    1TYR    SC1  299   6.341   4.229   3.073 -0.1397 -0.0371 -0.0348
    1TYR    SC2  300   6.287   4.081   2.853 -0.3026 -0.0485  0.0109
    1TYR    SC3  301   6.170   4.323   2.886  0.2395  0.2738 -0.2438
    2ARG     BB  302   6.029   4.437   3.429 -0.0298 -0.0660 -0.0624
    2ARG    SC1  303   6.035   4.497   3.758 -0.2927 -0.0030  0.1326
    2ARG    SC2  304   5.884   4.701   3.974  0.2085 -0.0356  0.2910
    3TYR     BB  305   5.740   4.384   3.222 -0.2320  0.0390  0.1119
    3TYR    SC1  306   5.572   4.181   3.244 -0.0013  0.1212  0.1612
    3TYR    SC2  307   5.351   4.075   3.356 -0.0980  0.1649  0.0153
    3TYR    SC3  308   5.441   3.981   3.119  0.1597  0.0082  0.1693
    1TYR     BB  309   2.029   5.953   4.289 -0.1287  0.2152 -0.0332
    1TYR    SC1  310   1.774   5.763   4.438 -0.1321  0.1366  0.0952
    1TYR    SC2  311   1.519   5.790   4.355 -0.1697 -0.2596  0.0574
    1TYR    SC3  312   1.574   5.654   4.582 -0.0134  0.1789  0.2971
    2ARG     BB  313   2.194   5.910   3.981  0.1221  0.3975  0.1918
    2ARG    SC1  314   2.116   6.137   3.826  0.1259  0.1370  0.0680
    2ARG    SC2  315   2.144   6.274   3.518 -0.0162 -0.0795 -0.0637
    3TYR     BB  316   2.369   5.685   3.866  0.2128  0.2839  0.1478
    3TYR    SC1  317   2.489   5.502   4.083  0.2469  0.1910 -0.1674
    3TYR    SC2  318   2.618   5.351   4.266 -0.0251  0.0394 -0.0947
    3TYR    SC3  319   2.681   5.330   4.004  0.1129 -0.0128 -0.0580
    1TYR     BB  320   2.999   5.296   4.926 -0.2606 -0.0987 -0.2272
    1TYR    SC1  321   3.276   5.220   4.968  0.0180  0.1696 -0.3212
    1TYR    SC2  322   3.519   5.190   5.081 -0.1302  0.0710 -0.0161
    1TYR    SC3  323   3.471   5.088   4.836  0.1086  0.0143 -0.0425
    2ARG     BB  324   2.885   5.054   4.798  0.1344  0.0158  0.1055
    2ARG    SC1  325   3.057   4.837   4.756 -0.0676  0.2753  0.1430
    2ARG    SC2  326   3.154   4.555   4.640 -0.0853 -0.0870  0.0737
    3TYR     BB  327   2.606   5.029   4.639  0.0158 -0.0245  0.0093
    3TYR    SC1  328   2.688   4.903   4.401 -0.2285  0.1144 -0.2016
    3TYR    SC2  329   2.710   4.879   4.133  0.4935  0.0775 -0.1637
    3TYR    SC3  330   2.813   4.689   4.294 -0.1465 -0.0288  0.1630
    1TYR     BB  331   5.910   4.203   1.801  0.0043  0.3578  0.1722
    1TYR    SC1  332   5.939   3.914   1.898 -0.1154  0.1104  0.2820
    1TYR    SC2  333   5.806   3.685   1.950  0.0391 -0.0803 -0.1135
    1TYR    SC3  334   6.033   3.743   2.085  0.1096 -0.2631 -0.1506
    2ARG     BB  335   6.173   4.365   1.615  0.0370 -0.1449  0.3607
    2ARG    SC1  336   6.530   4.425   1.525  0.1154 -0.0042  0.3582
    2ARG    SC2  337   6.766   4.225   1.543  0.4248 -0.0273  0.4211
    3TYR     BB  338   6.117   4.548   1.336 -0.1871 -0.1656 -0.1064
    3TYR    SC1  339   6.269   4.789   1.260 -0.0192  0.3097 -0.2163
    3TYR    SC2  340   6.353   5.009   1.129  0.1278  0.3428 -0.0717
    3TYR    SC3  341   6.532   4.848   1.251  0.0284  0.1079 -0.2258
    1TYR     BB  342   4.509   3.539   7.495  0.0958 -0.1104  0.0258
    1TYR    SC1  343   4.343   3.436   7.278  0.1254  0.1510 -0.2425
    1TYR    SC2  344   4.189   3.486   7.062  0.1335  0.1517 -0.2482
    1TYR    SC3  345   4.279   3.236   7.108 -0.0199  0.1142 -0.1459
    2ARG     BB  346   4.695   3.246   7.549  0.1359  0.0138  0.0143
    2ARG    SC1  347   4.593   3.170   7.861 -0.1296 -0.0814  0.0698
    2ARG    SC2  348   4.381   3.109   8.098  0.3628  0.1384 -0.1249
    3TYR     BB  349   4.824   3.192   7.270 -0.0228 -0.1802 -0.1970
    3TYR    SC1  350   4.667   3.041   7.041  0.0019  0.0804  0.0698
    3TYR    SC2  351   4.498   2.877   6.910  0.0141 -0.0873  0.2591
    3TYR    SC3  352   4.661   3.041   6.772 -0.1635 -0.0648  0.0716
    1TYR     BB  353   5.289   3.153   6.760  0.0346  0.0672  0.0123
    1TYR    SC1  354   5.223   2.991   7.034 -0.0071 -0.0428 -0.2489
    1TYR    SC2  355   5.187   2.815   7.236 -0.1400  0.1337 -0.1151
    1TYR    SC3  356   5.051   2.784   7.004  0.0496 -0.0972 -0.2005
    2ARG     BB  357   5.050   3.439   6.671 -0.1599 -0.1958 -0.2023
    2ARG    SC1  358   5.130   3.582   6.973 -0.2239  0.1029 -0.0028
    2ARG    SC2  359   4.979   3.671   7.267  0.0263  0.1000  0.0674
    3TYR     BB  360   4.938   3.506   6.483 -0.0400 -0.3413  0.4326
    3TYR    SC1  361   5.055   3.703   6.278  0.2177 -0.1554  0.1492
    3TYR    SC2  362   5.082   3.904   6.100 -0.0425 -0.0575  0.2137
    3TYR    SC3  363   5.269   3.709   6.114  0.0480  0.0024 -0.0743
    1TYR     BB  364   2.267   6.451   4.179  0.1521 -0.0610  0.1236
    1TYR    SC1  365   2.270   6.630   3.908 -0.1087  0.2292  0.2185
    1TYR    SC2  366   2.315   6.757   3.674 -0.0103 -0.3246 -0.0855
    1TYR    SC3  367   2.062   6.722   3.762 -0.0708 -0.3913 -0.2798
    2ARG     BB  368   2.149   6.606   4.428  0.0285 -0.3066  0.0965
    2ARG    SC1  369   1.943   6.376   4.519 -0.2377 -0.2496  0.1208
    2ARG    SC2  370   1.656   6.255   4.503 -0.2054  0.2396  0.0270
    3TYR     BB  371   2.276   6.923   4.404  0.0364 -0.0738 -0.0625
    3TYR    SC1  372   2.228   7.020   4.120  0.2246  0.0498  0.1580
    3TYR    SC2  373   2.408   7.118   3.945  0.2933 -0.0792  0.1551
    3TYR    SC3  374   2.152   7.205   3.938  0.3516  0.0978  0.1530
    1TYR     BB  375   7.175   3.332   3.149 -0.1031 -0.1099  0.0897
    1TYR    SC1  376   7.151   3.287   3.449  0.1421  0.1875 -0.0689
    1TYR    SC2  377   7.280   3.414   3.649 -0.0874  0.1565  0.1050
    1TYR    SC3  378   7.271   3.144   3.644 -0.4958  0.1558  0.3393
    2ARG     BB  379   7.172   3.614   3.105  0.2778 -0.0776 -0.1734
    2ARG    SC1  380   7.504   3.735   3.131 -0.1720 -0.0507  0.1630
    2ARG    SC2  381   7.649   3.812   3.400 -0.1872 -0.1796 -0.2904
    3TYR     BB  382   7.058   3.780   3.396 -0.2640  0.0915  0.2378
    3TYR    SC1  383   7.147   4.052   3.456 -0.3859 -0.3854 -0.1137
    3TYR    SC2  384   7.316   4.197   3.304  0.0250 -0.4010  0.3015
    3TYR    SC3  385   7.140   4.321   3.467 -0.0699 -0.3805  0.1848
    1TYR     BB  386   5.593   2.276   6.224  0.1684  0.0699  0.5386
    1TYR    SC1  387   5.569   2.495   6.060 -0.0235 -0.1012  0.1097
    1TYR    SC2  388   5.704   2.582   5.843 -0.2149 -0.2252 -0.0626
    1TYR    SC3  389   5.686   2.739   6.062 -0.0890 -0.0640 -0.1650
    2ARG     BB  390   5.400   1.970   6.149  0.2607  0.1377 -0.0410
    2ARG    SC1  391   5.436   1.699   6.280  0.1127 -0.0832  0.1025
    2ARG    SC2  392   5.567   1.420   6.326 -0.2222  0.0015  0.0152
    3TYR     BB  393   5.195   1.997   5.940 -0.2454 -0.1818 -0.1623
    3TYR    SC1  394   5.178   2.246   5.791  0.0399  0.0473 -0.1639
    3TYR    SC2  395   5.147   2.317   5.533 -0.1304  0.4491 -0.0424
    3TYR    SC3  396   5.299   2.467   5.697  0.1164  0.1033  0.0593
    1TYR     BB  397   2.194   5.043   6.269 -0.1153  0.3905  0.1161
    1TYR    SC1  398   2.190   4.735   6.180 -0.1160 -0.0028 -0.3224
    1TYR    SC2  399   2.072   4.508   6.094  0.3491 -0.2958 -0.2304
    1TYR    SC3  400   2.319   4.574   6.007  0.3091  0.0705 -0.0908
    2ARG     BB  401   2.512   5.117   6.399  0.0703  0.1894  0.0286
    2ARG    SC1  402   2.494   5.455   6.432  0.1105 -0.0895  0.0598
    2ARG    SC2  403   2.370   5.735   6.436 -0.0141  0.0923  0.1026
    3TYR     BB  404   2.754   4.972   6.401 -0.1134  0.0922 -0.0252
    3TYR    SC1  405   2.963   5.028   6.572 -0.1764  0.1814 -0.1891
    3TYR    SC2  406   3.211   4.939   6.511 -0.1039  0.1267  0.1578
    3TYR    SC3  407   3.180   5.152   6.674 -0.2871  0.1202  0.1344
    1TYR     BB  408   4.501   3.646   2.493 -0.0417 -0.1316 -0.0957
    1TYR    SC1  409   4.563   3.612   2.182 -0.1962 -0.0711 -0.1381
    1TYR    SC2  410   4.598   3.529   1.928 -0.5235  0.3394 -0.3319
    1TYR    SC3  411   4.710   3.760   2.011  0.1653 -0.1084  0.1228
    2ARG     BB  412   4.199   3.896   2.576  0.0022  0.0664 -0.2041
    2ARG    SC1  413   4.063   3.752   2.832  0.0422  0.1127  0.1880
    2ARG    SC2  414   4.012   3.667   3.159 -0.0949  0.2122  0.2052
    3TYR     BB  415   4.036   3.835   2.342  0.1248 -0.3120  0.0493
    3TYR    SC1  416   4.180   3.827   2.090  0.1608  0.3219 -0.0177
    3TYR    SC2  417   4.260   3.959   1.868  0.1000  0.1170 -0.1648
    3TYR    SC3  418   4.214   3.693   1.858 -0.2085  0.1570  0.0146
    1TYR     BB  419   5.684   4.015   5.836  0.0054 -0.3115 -0.1509
    1TYR    SC1  420   5.510   4.186   6.033 -0.2088  0.0060 -0.3747
    1TYR    SC2  421   5.508   4.442   6.120 -0.2584 -0.1248  0.0344
    1TYR    SC3  422   5.275   4.309   6.085 -0.2255 -0.2413  0.2374
    2ARG     BB  423   5.675   3.824   5.796 -0.1013 -0.0455 -0.0091
    2ARG    SC1  424   5.769   3.771   5.458 -0.3662  0.2015  0.2074
    2ARG    SC2  425   5.831   3.869   5.174 -0.0322  0.1786  0.0521
    3TYR     BB  426   5.583   3.460   5.755 -0.0854 -0.1550 -0.1045
    3TYR    SC1  427   5.501   3.266   6.051 -0.1683  0.0812 -0.2974
    3TYR    SC2  428   5.575   3.105   6.255 -0.0473 -0.0113 -0.4124
    3TYR    SC3  429   5.355   3.261   6.279  0.1183  0.1884 -0.1045
    1TYR     BB  430   2.275   4.804   5.568  0.1337 -0.1488  0.3061
    1TYR    SC1  431   2.042   4.827   5.691  0.1238 -0.1053 -0.2582
    1TYR    SC2  432   1.877   4.933   5.877  0.1077 -0.0788 -0.2874
    1TYR    SC3  433   1.797   4.720   5.732  0.2931 -0.3970  0.0558
    2ARG     BB  434   2.451   4.579   5.460 -0.1541  0.0841 -0.0217
    2ARG    SC1  435   2.343   4.345   5.282  0.0539 -0.0998 -0.2019
    2ARG    SC2  436   2.413   4.130   5.142 -0.0499  0.0217  0.0460
    3TYR     BB  437   2.734   4.565   5.567 -0.2175 -0.2503  0.0667
    3TYR    SC1  438   2.711   4.417   5.862  0.3319  0.3626  0.3537
    3TYR    SC2  439   2.888   4.248   5.977  0.1069  0.0068  0.1985
    3TYR    SC3  440   2.624   4.224   6.030  0.0557  0.2140  0.0525
    1TYR     BB  441   1.633   4.666   4.751 -0.1387 -0.0030 -0.2034
    1TYR    SC1  442   1.634   4.428   4.587  0.0075  0.0409 -0.1886
    1TYR    SC2  443   1.525   4.224   4.447  0.1332  0.0447 -0.2944
    1TYR    SC3  444   1.794   4.249   4.463  0.1250 -0.0181  0.0401
    2ARG     BB  445   1.329   4.591   4.966  0.0574  0.1450 -0.0989
    2ARG    SC1  446   1.071   4.430   4.855  0.0577  0.0484 -0.1042
    2ARG    SC2  447   0.883   4.629   4.668  0.2495 -0.2146 -0.0811
    3TYR     BB  448   1.377   4.650   5.179 -0.1934  0.1533 -0.2540
    3TYR    SC1  449   1.396   4.605   5.489 -0.0671 -0.0691  0.3500
    3TYR    SC2  450   1.374   4.543   5.751 -0.5108  0.0479  0.3516
    3TYR    SC3  451   1.365   4.801   5.673  0.3366  0.0859  0.2649
    1TYR     BB  452   6.154   2.978   1.622  0.1947 -0.1565 -0.0165
    1TYR    SC1  453   6.229   2.669   1.443 -0.0302 -0.1666  0.2333
    1TYR    SC2  454   6.016   2.547   1.330 -0.0626 -0.0807  0.2007
    1TYR    SC3  455   6.241   2.407   1.379  0.0980 -0.0395 -0.3352
    2ARG     BB  456   6.197   3.152   1.329 -0.0145 -0.3375  0.0177
    2ARG    SC1  457   5.976   3.100   1.103  0.0019  0.0598 -0.4011
    2ARG    SC2  458   5.724   2.872   1.076  0.3373 -0.2353  0.2400
    3TYR     BB  459   6.357   3.384   1.175 -0.2067  0.0736  0.0117
    3TYR    SC1  460   6.596   3.492   1.303 -0.2693  0.1014 -0.0660
    3TYR    SC2  461   6.725   3.729   1.284 -0.1737  0.0309 -0.3714
    3TYR    SC3  462   6.863   3.505   1.346 -0.2843  0.0667  0.0420
    1TYR     BB  463   6.341   4.862   1.752  0.0456  0.1845  0.1069
    1TYR    SC1  464   6.464   4.689   1.970  0.0484 -0.3772 -0.2182
    1TYR    SC2  465   6.672   4.522   2.011  0.1622 -0.1502  0.2108
    1TYR    SC3  466   6.509   4.588   2.217 -0.0784  0.0139 -0.0237
    2ARG     BB  467   6.612   5.072   1.721 -0.1187 -0.0136 -0.0732
    2ARG    SC1  468   6.887   4.845   1.599  0.1218 -0.2127 -0.1217
    2ARG    SC2  469   7.141   4.982   1.623  0.1618 -0.1987  0.0394
    3TYR     BB  470   6.597   5.297   1.484 -0.1443  0.0151 -0.0935
    3TYR    SC1  471   6.317   5.320   1.432  0.0080  0.3434  0.1387
    3TYR    SC2  472   6.103   5.260   1.585 -0.1917 -0.0937 -0.2776
    3TYR    SC3  473   6.086   5.455   1.399  0.0161  0.3604  0.1511
    1TYR     BB  474   5.742   4.012   3.619 -0.2410 -0.0527  0.2643
    1TYR    SC1  475   5.556   4.147   3.801 -0.0182 -0.0590  0.3108
    1TYR    SC2  476   5.526   4.388   3.917 -0.2164  0.0650  0.0160
    1TYR    SC3  477   5.337   4.198   3.950 -0.1676  0.0260  0.0708
    2ARG     BB  478   5.986   3.954   3.667 -0.1214  0.0296 -0.0589
    2ARG    SC1  479   6.047   3.972   3.968 -0.1979 -0.1982  0.0736
    2ARG    SC2  480   5.818   3.930   4.173 -0.3114 -0.0242 -0.0496
    3TYR     BB  481   6.309   3.860   3.547  0.2487  0.0181 -0.2605
    3TYR    SC1  482   6.575   3.951   3.617  0.1801 -0.3189 -0.0597
    3TYR    SC2  483   6.714   4.169   3.541 -0.2391  0.0589  0.1969
    3TYR    SC3  484   6.802   4.018   3.747  0.0759 -0.0489 -0.0081
    1TYR     BB  485   3.209   4.650   5.752 -0.1493 -0.0923  0.0911
    1TYR    SC1  486   3.484   4.776   5.684 -0.0626 -0.2634  0.1971
    1TYR    SC2  487   3.736   4.869   5.716 -0.1232  0.0206 -0.0833
    1TYR    SC3  488   3.639   4.826   5.468 -0.3760 -0.0198  0.0188
    2ARG     BB  489   3.281   4.361   5.603 -0.1733  0.2267  0.2065
    2ARG    SC1  490   3.483   4.292   5.363 -0.1774 -0.0907 -0.0286
    2ARG    SC2  491   3.774   4.284   5.238  0.2215 -0.3464 -0.2976
    3TYR     BB  492   3.288   4.093   5.737  0.5036  0.2065  0.0872
    3TYR    SC1  493   3.194   3.822   5.549 -0.0534 -0.6565 -0.1517
    3TYR    SC2  494   3.005   3.688   5.410 -0.0790 -0.3337 -0.4474
    3TYR    SC3  495   3.213   3.800   5.280 -0.1470  0.0533 -0.2403
    1TYR     BB  496   3.905   4.247   7.025  0.0560  0.1602 -0.1486
    1TYR    SC1  497   3.576   4.161   7.076 -0.0462  0.2660 -0.1073
    1TYR    SC2  498   3.384   4.175   7.266  0.1050  0.1569  0.0571
    1TYR    SC3  499   3.318   4.114   7.011 -0.0548 -0.1000  0.1552
    2ARG     BB  500   4.013   3.958   7.037 -0.2353 -0.0123 -0.2855
    2ARG    SC1  501   4.198   3.963   7.291 -0.3021 -0.0568 -0.0203
    2ARG    SC2  502   4.510   4.066   7.277  0.0724 -0.0773  0.2043
    3TYR     BB  503   4.152   3.905   6.772  0.2825 -0.1769  0.0301
    3TYR    SC1  504   4.458   3.865   6.831 -0.0282 -0.0708 -0.2155
    3TYR    SC2  505   4.565   3.652   6.957 -0.1791 -0.1317 -0.1878
    3TYR    SC3  506   4.725   3.850   6.867 -0.0847  0.0689  0.3764
    1TYR     BB  507   5.971   4.712   2.614 -0.1346  0.0581 -0.3076
    1TYR    SC1  508   6.024   4.428   2.502 -0.0791 -0.1860  0.2722
    1TYR    SC2  509   5.965   4.222   2.336  0.1202 -0.0357  0.0049
    1TYR    SC3  510   6.222   4.299   2.370  0.0355  0.2900 -0.0514
    2ARG     BB  511   6.006   4.877   3.010  0.1602 -0.0141 -0.0313
    2ARG    SC1  512   5.693   4.875   3.000 -0.0112  0.0007 -0.0522
    2ARG    SC2  513   5.403   4.809   3.046 -0.0803  0.0049  0.0115
    3TYR     BB  514   6.221   4.751   3.159 -0.0679  0.1525  0.1131
    3TYR    SC1  515   6.487   4.868   3.248  0.0144 -0.0722  0.1881
    3TYR    SC2  516   6.645   5.029   3.100 -0.4180  0.1060 -0.1048
    3TYR    SC3  517   6.606   5.083   3.361 -0.2164  0.2168 -0.0946
    1TYR     BB  518   2.044   3.889   5.342  0.3039 -0.0602 -0.0611
    1TYR    SC1  519   1.873   3.666   5.234 -0.0427  0.2324 -0.0993
    1TYR    SC2  520   1.861   3.425   5.112  0.0443  0.1993 -0.0438
    1TYR    SC3  521   1.673   3.612   5.061 -0.0650  0.0940 -0.0320
    2ARG     BB  522   2.342   3.826   5.498 -0.0440  0.2027 -0.0367
    2ARG    SC1  523   2.553   3.532   5.498 -0.1414  0.1360  0.0269
    2ARG    SC2  524   2.423   3.235   5.611 -0.0750 -0.0245  0.1707
    3TYR     BB  525   2.567   3.987   5.617 -0.0353 -0.1280 -0.0232
    3TYR    SC1  526   2.787   3.823   5.797 -0.0921 -0.0695  0.3541
    3TYR    SC2  527   2.876   3.579   5.870 -0.0973 -0.1375  0.1428
    3TYR    SC3  528   2.950   3.798   6.011  0.2971 -0.2054  0.0558
    1TYR     BB  529   3.552   3.120   0.024  0.4053  0.0366 -0.3804
    1TYR    SC1  530   3.656   3.143   0.278 -0.1943 -0.1665 -0.0090
    1TYR    SC2  531   3.698   2.961   0.472 -0.0513 -0.0960  0.0284
    1TYR    SC3  532   3.853   3.181   0.459 -0.1502 -0.0318 -0.0832
    2ARG     BB  533   3.653   3.004  -0.228 -0.2446  0.2875  0.0904
    2ARG    SC1  534   3.607   2.700  -0.303  0.2520  0.0912  0.1901
    2ARG    SC2  535   3.406   2.494  -0.220  0.1491  0.0578  0.0200
    3TYR     BB  536   3.758   3.192  -0.392 -0.1316 -0.1085  0.4783
    3TYR    SC1  537   3.938   3.398  -0.178  0.1131  0.1747 -0.1250
    3TYR    SC2  538   3.959   3.638  -0.057  0.0577  0.1589 -0.0837
    3TYR    SC3  539   4.067   3.420   0.058  0.0656  0.1557 -0.0972
    1TYR     BB  540   3.695   3.824   5.630  0.3278 -0.1230 -0.2103
    1TYR    SC1  541   3.747   4.076   5.750 -0.2722 -0.0931  0.0409
    1TYR    SC2  542   3.866   4.191   5.963  0.0164 -0.1282 -0.0960
    1TYR    SC3  543   3.726   4.342   5.790  0.0438 -0.0494 -0.0502
    2ARG     BB  544   3.589   3.519   5.646 -0.1561  0.0395  0.1394
    2ARG    SC1  545   3.886   3.367   5.545  0.1761  0.0556  0.0688
    2ARG    SC2  546   4.119   3.543   5.380 -0.3051 -0.0585 -0.1350
    3TYR     BB  547   3.306   3.417   5.831 -0.0273 -0.0457 -0.2366
    3TYR    SC1  548   3.103   3.293   5.619 -0.3656 -0.0758 -0.1744
    3TYR    SC2  549   2.923   3.100   5.559  0.2048 -0.5463 -0.5095
    3TYR    SC3  550   3.059   3.224   5.362 -0.0308  0.1172 -0.2906
    1TYR     BB  551   6.298   3.471   1.786 -0.0567  0.0996 -0.1964
    1TYR    SC1  552   6.577   3.542   1.824  0.1209  0.1006 -0.1635
    1TYR    SC2  553   6.799   3.573   1.975  0.2989 -0.0252 -0.3914
    1TYR    SC3  554   6.767   3.719   1.751 -0.1135  0.3967 -0.0833
    2ARG     BB  555   6.177   3.657   1.547 -0.0401  0.1472 -0.0515
    2ARG    SC1  556   5.922   3.548   1.492 -0.0123  0.1469  0.1262
    2ARG    SC2  557   5.713   3.324   1.595 -0.0788  0.0391 -0.1817
    3TYR     BB  558   6.272   3.900   1.579 -0.0547  0.0900  0.4636
    3TYR    SC1  559   6.397   3.991   1.811  0.0490 -0.4001  0.0414
    3TYR    SC2  560   6.362   4.152   2.025  0.1274  0.0605 -0.2750
    3TYR    SC3  561   6.508   3.926   2.049 -0.1665 -0.0960  0.2339
    1TYR     BB  562   5.737   3.652   6.286 -0.1624  0.2106  0.1141
    1TYR    SC1  563   5.812   3.922   6.336 -0.2294  0.0398  0.0581
    1TYR    SC2  564   5.790   4.180   6.413  0.1127  0.0526  0.1336
    1TYR    SC3  565   5.964   4.111   6.218 -0.1491 -0.0943 -0.0576
    2ARG     BB  566   5.726   3.476   6.555 -0.0784 -0.0906  0.1930
    2ARG    SC1  567   6.001   3.362   6.614  0.1203  0.2537 -0.1587
    2ARG    SC2  568   6.210   3.440   6.829 -0.1834 -0.1445  0.1942
    3TYR     BB  569   5.632   3.670   6.784  0.0549 -0.0346  0.1464
    3TYR    SC1  570   5.454   3.887   6.648 -0.3489 -0.5724  0.0504
    3TYR    SC2  571   5.365   4.042   6.445 -0.2140 -0.0818  0.3441
    3TYR    SC3  572   5.193   3.956   6.635 -0.2750 -0.2347  0.2228
    1TYR     BB  573   3.316   3.138   6.305  0.0920  0.1469  0.4325
    1TYR    SC1  574   3.283   2.964   6.037 -0.2196 -0.1046 -0.0847
    1TYR    SC2  575   3.512   2.948   5.895 -0.1550 -0.1842  0.0263
    1TYR    SC3  576   3.274   2.938   5.769 -0.1007  0.1769 -0.1202
    2ARG     BB  577   3.181   3.394   6.371  0.3993  0.1307 -0.0971
    2ARG    SC1  578   3.325   3.667   6.316 -0.1579 -0.0242  0.0192
    2ARG    SC2  579   3.514   3.827   6.107 -0.1398  0.2214 -0.0770
    3TYR     BB  580   2.900   3.443   6.357 -0.1944 -0.0045 -0.0992
    3TYR    SC1  581   2.775   3.637   6.540  0.0054  0.4304 -0.2359
    3TYR    SC2  582   2.753   3.768   6.774 -0.1242 -0.0878  0.0631
    3TYR    SC3  583   2.531   3.686   6.644 -0.0466  0.0086 -0.1359
    1TYR     BB  584   1.755   6.422   3.982 -0.1202 -0.2091  0.0687
    1TYR    SC1  585   1.767   6.674   4.114  0.0142 -0.1323  0.3225
    1TYR    SC2  586   1.776   6.937   4.051  0.2034 -0.2290 -0.0924
    1TYR    SC3  587   1.746   6.861   4.308 -0.2721  0.1942 -0.0037
    2ARG     BB  588   1.663   6.429   3.670 -0.2755 -0.0293 -0.4218
    2ARG    SC1  589   1.488   6.642   3.650 -0.0522 -0.1372  0.2157
    2ARG    SC2  590   1.156   6.580   3.601 -0.2063 -0.1455  0.0715
    3TYR     BB  591   1.650   6.168   3.517  0.2389 -0.0749  0.0126
    3TYR    SC1  592   1.604   5.988   3.719 -0.3148  0.2705  0.0553
    3TYR    SC2  593   1.684   5.815   3.910 -0.1599  0.3114  0.0290
    3TYR    SC3  594   1.436   5.921   3.920 -0.2035  0.2031  0.1273
    1TYR     BB  595   6.082   3.390   3.516 -0.0220  0.3786  0.1313
    1TYR    SC1  596   6.127   3.077   3.383 -0.0254 -0.0833 -0.0715
    1TYR    SC2  597   6.282   2.865   3.318 -0.1026 -0.1432 -0.0630
    1TYR    SC3  598   6.040   2.896   3.202 -0.1421 -0.1239  0.0230
    2ARG     BB  599   5.774   3.519   3.513 -0.0718  0.0173 -0.1712
    2ARG    SC1  600   5.763   3.559   3.848 -0.0040 -0.0246  0.0944
    2ARG    SC2  601   5.515   3.495   4.082 -0.0805  0.1912  0.0717
    3TYR     BB  602   5.439   3.600   3.462  0.1411 -0.1449 -0.3153
    3TYR    SC1  603   5.302   3.727   3.727  0.1309 -0.3275 -0.0739
    3TYR    SC2  604   5.097   3.900   3.758  0.3290 -0.0531 -0.2344
    3TYR    SC3  605   5.166   3.735   3.960  0.0326 -0.0636 -0.1351
    1TYR     BB  606   2.060   5.098   4.717 -0.2902 -0.3948  0.0320
    1TYR    SC1  607   1.750   5.115   4.838 -0.0158  0.0199 -0.2295
    1TYR    SC2  608   1.521   5.185   4.713  0.0694  0.2559 -0.2605
    1TYR    SC3  609   1.515   5.103   4.970 -0.0781  0.0008 -0.3409
    2ARG     BB  610   2.170   5.268   4.502 -0.2371  0.0603 -0.0708
    2ARG    SC1  611   2.221   5.066   4.248 -0.0074  0.1319  0.0796
    2ARG    SC2  612   2.246   5.022   3.948  0.2458  0.0229  0.0843
    3TYR     BB  613   2.188   5.563   4.512 -0.2008  0.1453  0.2481
    3TYR    SC1  614   2.444   5.690   4.579 -0.3195 -0.1173  0.2226
    3TYR    SC2  615   2.632   5.816   4.726 -0.2230  0.2028 -0.1529
    3TYR    SC3  616   2.661   5.555   4.664 -0.0619  0.1695  0.0495
    1TYR     BB  617   6.975   4.772   2.644  0.3183  0.0551  0.1320
    1TYR    SC1  618   6.852   4.831   2.363 -0.2828  0.0128 -0.1092
    1TYR    SC2  619   6.741   4.959   2.153 -0.0512 -0.0768 -0.2928
    1TYR    SC3  620   6.969   4.818   2.120 -0.0160 -0.1030  0.0192
    2ARG     BB  621   6.973   4.640   2.946 -0.4489 -0.0321 -0.2317
    2ARG    SC1  622   7.226   4.647   3.077 -0.2883  0.4113 -0.0042
    2ARG    SC2  623   7.582   4.580   3.081 -0.1988  0.1634 -0.0291
    3TYR     BB  624   6.760   4.471   3.151 -0.1285 -0.0863 -0.1538
    3TYR    SC1  625   6.814   4.170   3.106  0.1531 -0.2157 -0.1052
    3TYR    SC2  626   6.682   3.943   3.169  0.0779 -0.0930  0.2032
    3TYR    SC3  627   6.697   4.023   2.912  0.3075 -0.5654  0.0556
    1TYR     BB  628   3.815   6.098   4.902  0.0075  0.1519  0.1343
    1TYR    SC1  629   3.620   6.173   4.702  0.1892  0.1985  0.0340
    1TYR    SC2  630   3.564   6.185   4.438 -0.1830 -0.2094  0.0781
    1TYR    SC3  631   3.423   6.335   4.613  0.0266  0.0193  0.0587
    2ARG     BB  632   3.733   5.908   5.190 -0.1431 -0.1115 -0.0924
    2ARG    SC1  633   3.771   6.146   5.448 -0.3624  0.0945  0.1270
    2ARG    SC2  634   3.973   6.191   5.715 -0.0238 -0.0885 -0.1065
    3TYR     BB  635   3.665   5.654   5.170  0.0451 -0.3775 -0.0240
    3TYR    SC1  636   3.590   5.601   4.853  0.1454  0.1991  0.2523
    3TYR    SC2  637   3.380   5.527   4.700  0.3044  0.0155  0.1163
    3TYR    SC3  638   3.535   5.736   4.626  0.2061  0.1145  0.1862
    1TYR     BB  639   7.036   4.362   2.431  0.0906 -0.1158 -0.4117
    1TYR    SC1  640   7.123   4.242   2.684 -0.1760 -0.1166 -0.2397
    1TYR    SC2  641   7.163   4.035   2.853 -0.4146  0.1521  0.1696
    1TYR    SC3  642   7.358   4.218   2.814 -0.1668 -0.1791 -0.2674
    2ARG     BB  643   6.754   4.204   2.428  0.0477  0.0107  0.0672
    2ARG    SC1  644   6.617   4.404   2.642 -0.1049 -0.1367 -0.1342
    2ARG    SC2  645   6.490   4.662   2.734 -0.1347  0.2548  0.1671
    3TYR     BB  646   6.820   3.822   2.442  0.1434 -0.0549 -0.1698
    3TYR    SC1  647   6.804   3.624   2.681 -0.2233 -0.7574 -0.2115
    3TYR    SC2  648   6.691   3.567   2.919 -0.0757 -0.3669 -0.0384
    3TYR    SC3  649   6.845   3.383   2.795  0.3851 -0.3733  0.4919
    1TYR     BB  650   5.562   5.771   2.537 -0.3264  0.2507 -0.1515
    1TYR    SC1  651   5.340   5.969   2.486  0.1477  0.1900  0.2946
    1TYR    SC2  652   5.157   6.164   2.522 -0.1545  0.0325 -0.2505
    1TYR    SC3  653   5.077   5.911   2.473  0.2303 -0.2118  0.2670
    2ARG     BB  654   5.667   5.527   2.194  0.1141  0.0766 -0.2600
    2ARG    SC1  655   5.378   5.578   2.066 -0.0219 -0.1539 -0.1919
    2ARG    SC2  656   5.295   5.712   1.791  0.1037 -0.1552 -0.0898
    3TYR     BB  657   5.953   5.579   1.992  0.0844 -0.0151 -0.0295
    3TYR    SC1  658   6.060   5.798   2.173 -0.1120  0.1592 -0.2407
    3TYR    SC2  659   6.274   5.874   2.319 -0.2711  0.0649  0.0506
    3TYR    SC3  660   6.025   5.934   2.403 -0.3669  0.0586 -0.2165
    1TYR     BB  661   4.637   4.436   3.229 -0.0467 -0.0179 -0.3344
    1TYR    SC1  662   4.906   4.428   3.094 -0.0808 -0.2891 -0.1321
    1TYR    SC2  663   5.170   4.373   3.086 -0.0034  0.0384 -0.0372
    1TYR    SC3  664   5.047   4.474   2.868 -0.0441 -0.0767 -0.0687
    2ARG     BB  665   4.559   4.622   3.445  0.2870  0.3802 -0.1583
    2ARG    SC1  666   4.706   4.615   3.764 -0.1177 -0.2953  0.1235
    2ARG    SC2  667   4.928   4.683   3.926 -0.3965  0.2545  0.0970
    3TYR     BB  668   4.420   4.954   3.415 -0.2660  0.1180  0.3037
    3TYR    SC1  669   4.604   5.125   3.576  0.0718  0.0323 -0.1811
    3TYR    SC2  670   4.637   5.360   3.705  0.0624 -0.0001 -0.1191
    3TYR    SC3  671   4.786   5.146   3.774  0.0121 -0.0350 -0.1186
    1TYR     BB  672   6.283   1.841   5.141 -0.4637  0.2454 -0.1751
    1TYR    SC1  673   6.443   2.021   4.977  0.3851 -0.3066  0.3973
    1TYR    SC2  674   6.564   2.252   5.047 -0.2372  0.0860  0.2777
    1TYR    SC3  675   6.598   2.153   4.799  0.1544 -0.0511  0.3769
    2ARG     BB  676   5.954   1.837   5.217  0.2098 -0.1960  0.3218
    2ARG    SC1  677   5.954   1.712   5.510  0.2242  0.1107 -0.0481
    2ARG    SC2  678   5.804   1.472   5.646 -0.2497  0.1273  0.2338
    3TYR     BB  679   5.817   2.051   5.023 -0.3298 -0.2271 -0.2907
    3TYR    SC1  680   5.527   2.066   5.053  0.0884 -0.1847  0.1080
    3TYR    SC2  681   5.312   2.195   4.950  0.1962 -0.1345 -0.0589
    3TYR    SC3  682   5.301   2.091   5.199  0.1121  0.2154  0.0907
    1TYR     BB  683   5.979   4.613   0.794  0.2387 -0.2620  0.1623
    1TYR    SC1  684   5.763   4.480   0.587 -0.0068  0.0277  0.0605
    1TYR    SC2  685   5.664   4.582   0.357  0.0078 -0.2909 -0.0938
    1TYR    SC3  686   5.531   4.385   0.486  0.1370 -0.3033  0.0241
    2ARG     BB  687   6.291   4.604   0.743  0.0530  0.0357  0.0936
    2ARG    SC1  688   6.254   4.481   0.425  0.4251  0.2856  0.0509
    2ARG    SC2  689   6.182   4.380   0.172  0.1520 -0.0384 -0.0029
    3TYR     BB  690   6.515   4.532   0.824 -0.1821 -0.0481  0.1934
    3TYR    SC1  691   6.681   4.276   0.792  0.0750 -0.0406 -0.2384
    3TYR    SC2  692   6.764   4.085   0.964 -0.0938  0.3093  0.2635
    3TYR    SC3  693   6.882   4.110   0.722  0.1505 -0.2065  0.3111
    1TYR     BB  694   5.620   2.009   7.229 -0.1615 -0.0611  0.1803
    1TYR    SC1  695   5.401   1.935   7.355  0.2078 -0.3782 -0.2297
    1TYR    SC2  696   5.255   2.020   7.565  0.3997  0.2662 -0.3305
    1TYR    SC3  697   5.142   1.862   7.378  0.0488  0.1801 -0.0594
    2ARG     BB  698   5.822   2.213   7.380  0.3042  0.2146  0.0005
    2ARG    SC1  699   5.686   2.415   7.556 -0.2275 -0.0279 -0.0260
    2ARG    SC2  700   5.342   2.524   7.610 -0.0406 -0.0739  0.1809
    3TYR     BB  701   6.142   2.172   7.474 -0.4431 -0.0634 -0.1640
    3TYR    SC1  702   6.227   2.345   7.712  0.2515 -0.2960  0.1396
    3TYR    SC2  703   6.440   2.483   7.803 -0.0955  0.2411  0.1947
    3TYR    SC3  704   6.257   2.387   7.977 -0.3168  0.5151  0.1223
    1TYR     BB  705   6.435   4.719   3.685 -0.0383 -0.2398 -0.1145
    1TYR    SC1  706   6.237   4.938   3.612 -0.1315  0.0222  0.4208
    1TYR    SC2  707   6.027   5.085   3.698 -0.3563  0.0055 -0.0597
    1TYR    SC3  708   6.139   5.136   3.458  0.1116 -0.0772  0.1264
    2ARG     BB  709   6.710   4.660   3.615  0.0207  0.0016  0.3522
    2ARG    SC1  710   6.964   4.792   3.498 -0.2012 -0.1402 -0.2891
    2ARG    SC2  711   7.129   5.076   3.488  0.0659  0.3031  0.1109
    3TYR     BB  712   6.933   4.502   3.881  0.3524  0.1410 -0.1058
    3TYR    SC1  713   6.700   4.331   4.057  0.2014 -0.0764  0.0809
    3TYR    SC2  714   6.451   4.432   4.079  0.2372  0.0170  0.0624
    3TYR    SC3  715   6.489   4.165   4.082  0.1262 -0.0007 -0.0396
    1TYR     BB  716   6.670   2.335   5.618 -0.0658 -0.1121 -0.2432
    1TYR    SC1  717   6.752   2.126   5.790  0.4866  0.1092  0.0396
    1TYR    SC2  718   6.878   1.893   5.841 -0.1037 -0.2653 -0.1033
    1TYR    SC3  719   6.741   2.018   6.037  0.2540  0.0057 -0.0134
    2ARG     BB  720   6.866   2.397   5.405  0.1162 -0.2259 -0.2117
    2ARG    SC1  721   7.048   2.209   5.200  0.2763 -0.1154 -0.3376
    2ARG    SC2  722   7.186   2.028   5.417  0.1129 -0.0099  0.1254
    3TYR     BB  723   7.114   2.553   5.609 -0.0484 -0.0706  0.1052
    3TYR    SC1  724   7.183   2.876   5.471 -0.2866  0.1219  0.1851
    3TYR    SC2  725   7.126   3.139   5.490 -0.2336  0.1391  0.1098
    3TYR    SC3  726   6.968   2.977   5.343 -0.1314  0.1741 -0.0419
    1TYR     BB  727   7.317   2.957   2.057 -0.1217  0.2733  0.3365
    1TYR    SC1  728   7.059   2.762   2.155  0.0212 -0.2947 -0.2801
    1TYR    SC2  729   7.007   2.565   2.332 -0.5006 -0.0018 -0.0775
    1TYR    SC3  730   6.913   2.547   2.080 -0.4462 -0.0608 -0.0940
    2ARG     BB  731   7.190   3.326   2.083  0.1243 -0.0554 -0.0488
    2ARG    SC1  732   7.325   3.506   1.931 -0.2273  0.1027  0.0636
    2ARG    SC2  733   7.304   3.610   1.661  0.1162 -0.2554  0.1456
    3TYR     BB  734   7.037   3.352   2.351  0.4005 -0.0565  0.0784
    3TYR    SC1  735   7.169   3.191   2.569 -0.1405 -0.1250  0.1915
    3TYR    SC2  736   7.112   3.028   2.777 -0.3141 -0.0512  0.2044
    3TYR    SC3  737   7.277   2.944   2.580  0.1995  0.0275  0.5776
    1TYR     BB  738   3.466   4.468   6.672 -0.0291  0.3316 -0.0611
    1TYR    SC1  739   3.438   4.468   6.362  0.0661 -0.1213 -0.1114
    1TYR    SC2  740   3.490   4.593   6.128  0.0052  0.0618 -0.0292
    1TYR    SC3  741   3.379   4.347   6.128  0.0481  0.0412 -0.1923
    2ARG     BB  742   3.475   4.635   6.839 -0.0309  0.2047 -0.0284
    2ARG    SC1  743   3.209   4.785   7.011  0.0254 -0.0801 -0.0523
    2ARG    SC2  744   3.199   4.997   7.241  0.1328  0.1766  0.0446
    3TYR     BB  745   3.683   4.651   7.105  0.1787 -0.0969 -0.0254
    3TYR    SC1  746   3.513   4.601   7.386  0.2839  0.4771  0.2265
    3TYR    SC2  747   3.323   4.657   7.570 -0.2644 -0.3003 -0.0399
    3TYR    SC3  748   3.558   4.548   7.647 -0.2804 -0.1550  0.2278
    1TYR     BB  749   4.986   2.924   6.436 -0.3060  0.0141  0.4478
    1TYR    SC1  750   4.879   2.661   6.561  0.1196  0.1887  0.1273
    1TYR    SC2  751   4.870   2.488   6.768  0.1256  0.1263  0.0757
    1TYR    SC3  752   4.659   2.510   6.601  0.0078  0.3787  0.2498
    2ARG     BB  753   4.752   3.060   6.312  0.1816 -0.0974 -0.1231
    2ARG    SC1  754   4.612   2.832   6.143  0.0796 -0.1129  0.0496
    2ARG    SC2  755   4.431   2.703   5.959  0.0473 -0.0056 -0.4651
    3TYR     BB  756   4.727   3.379   6.080 -0.1003 -0.0595 -0.2998
    3TYR    SC1  757   4.598   3.295   5.880  0.1597 -0.0184 -0.3480
    3TYR    SC2  758   4.536   3.372   5.629  0.3016 -0.1338 -0.4207
    3TYR    SC3  759   4.526   3.111   5.696  0.3578 -0.1141 -0.3337
    1TYR     BB  760   7.287   3.685   2.565 -0.1803 -0.4116  0.0671
    1TYR    SC1  761   7.492   3.482   2.606  0.1463  0.2517  0.1467
    1TYR    SC2  762   7.610   3.315   2.781  0.1815  0.3702  0.2378
    1TYR    SC3  763   7.636   3.273   2.515  0.0302  0.1206  0.2581
    2ARG     BB  764   7.279   3.946   2.320 -0.1178  0.0636  0.0622
    2ARG    SC1  765   7.489   4.120   2.290 -0.0976 -0.0627 -0.1905
    2ARG    SC2  766   7.779   4.232   2.146  0.0644 -0.2048 -0.1769
    3TYR     BB  767   7.086   3.990   2.058 -0.0672  0.2922 -0.2321
    3TYR    SC1  768   7.064   4.277   1.946  0.2058 -0.1495  0.0690
    3TYR    SC2  769   7.250   4.455   2.026 -0.1757  0.3130 -0.0135
    3TYR    SC3  770   7.132   4.484   1.785 -0.0852 -0.2043 -0.1345
    1TYR     BB  771   3.885   5.667   5.630  0.1437 -0.4229  0.1661
    1TYR    SC1  772   4.174   5.759   5.495  0.2610  0.4455  0.1646
    1TYR    SC2  773   4.430   5.690   5.445  0.1192 -0.2396  0.2555
    1TYR    SC3  774   4.262   5.744   5.240  0.1661 -0.4963  0.1452
    2ARG     BB  775   3.832   5.365   5.612  0.0917  0.2851 -0.2992
    2ARG    SC1  776   3.976   5.209   5.360  0.0721 -0.0328 -0.1538
    2ARG    SC2  777   4.080   5.241   5.044 -0.1023 -0.2225  0.0932
    3TYR     BB  778   3.503   5.303   5.596 -0.0857 -0.0787  0.3143
    3TYR    SC1  779   3.408   5.555   5.784  0.0669  0.2027 -0.0691
    3TYR    SC2  780   3.524   5.678   5.994  0.0545  0.1543 -0.0337
    3TYR    SC3  781   3.258   5.701   5.955  0.0514  0.1354 -0.0245
    1TYR     BB  782   5.647   5.341   1.674  0.0812 -0.1023  0.1263
    1TYR    SC1  783   5.649   5.612   1.508  0.0489  0.0683  0.1266
    1TYR    SC2  784   5.665   5.634   1.239  0.0483  0.0711  0.1268
    1TYR    SC3  785   5.599   5.849   1.389 -0.0754  0.0391  0.1197
    2ARG     BB  786   5.365   5.198   1.577  0.0930 -0.1637  0.0728
    2ARG    SC1  787   5.035   5.294   1.562 -0.0593 -0.2080  0.1619
    2ARG    SC2  788   4.856   5.206   1.337  0.1406 -0.2230  0.1608
    3TYR     BB  789   5.314   4.882   1.489 -0.0557 -0.3106 -0.1251
    3TYR    SC1  790   5.058   4.806   1.676 -0.0649  0.2534  0.0646
    3TYR    SC2  791   5.009   4.680   1.910 -0.0285  0.2313  0.0605
    3TYR    SC3  792   4.872   4.904   1.846 -0.0196  0.2525  0.1149
    1TYR     BB  793   3.578   3.983   6.614 -0.1220  0.2391 -0.0067
    1TYR    SC1  794   3.616   3.745   6.797  0.1321  0.1446 -0.1610
    1TYR    SC2  795   3.555   3.482   6.814 -0.3492  0.2460 -0.1370
    1TYR    SC3  796   3.811   3.563   6.838 -0.1775 -0.2246 -0.2443
    2ARG     BB  797   3.780   4.069   6.456 -0.0396  0.1143 -0.0203
    2ARG    SC1  798   3.927   4.362   6.519 -0.1721  0.0494 -0.0515
    2ARG    SC2  799   4.064   4.629   6.631 -0.1065 -0.1130  0.1489
    3TYR     BB  800   3.963   3.856   6.335  0.2470  0.1174 -0.2303
    3TYR    SC1  801   3.820   3.567   6.349  0.2476 -0.0671 -0.3176
    3TYR    SC2  802   3.746   3.324   6.441  0.4733  0.0012  0.0726
    3TYR    SC3  803   3.783   3.363   6.176 -0.0073 -0.2608 -0.0470
    1TYR     BB  804   6.031   4.099   0.725 -0.1294  0.0115 -0.1748
    1TYR    SC1  805   6.298   4.047   0.892  0.4950  0.1129  0.0285
    1TYR    SC2  806   6.370   3.864   1.077  0.4736  0.2777  0.2033
    1TYR    SC3  807   6.364   4.126   1.141  0.2042  0.3143  0.0474
    2ARG     BB  808   5.810   4.200   0.992 -0.0186 -0.1352 -0.0704
    2ARG    SC1  809   5.562   4.055   0.883 -0.0822  0.2782  0.1309
    2ARG    SC2  810   5.537   3.872   0.576 -0.0996  0.2686 -0.0710
    3TYR     BB  811   5.892   4.099   1.295 -0.0769  0.1343  0.0285
    3TYR    SC1  812   5.646   3.984   1.432 -0.0321 -0.2920 -0.2914
    3TYR    SC2  813   5.378   4.004   1.413 -0.0278  0.5109  0.0075
    3TYR    SC3  814   5.490   3.896   1.634 -0.0908  0.1764 -0.1168
    1TYR     BB  815   5.570   2.248   6.711  0.2109 -0.2131 -0.0585
    1TYR    SC1  816   5.657   2.417   6.939 -0.1602 -0.1245 -0.0960
    1TYR    SC2  817   5.617   2.606   7.128 -0.0128 -0.2570  0.0722
    1TYR    SC3  818   5.866   2.557   7.037 -0.0954 -0.1106 -0.2505
    2ARG     BB  819   5.331   2.151   6.653 -0.3357 -0.3887 -0.1656
    2ARG    SC1  820   5.325   1.831   6.796  0.0656  0.1271  0.1319
    2ARG    SC2  821   5.161   1.563   6.976 -0.0128 -0.4218  0.1395
    3TYR     BB  822   5.089   2.140   6.507  0.0595 -0.2975 -0.3796
    3TYR    SC1  823   4.989   2.266   6.296 -0.0030  0.0760  0.0777
    3TYR    SC2  824   5.071   2.489   6.167 -0.0934  0.0292 -0.0635
    3TYR    SC3  825   4.817   2.401   6.138 -0.0777 -0.0551  0.0450
    1TYR     BB  826   2.723   4.961   5.273  0.0977  0.3866 -0.0347
    1TYR    SC1  827   2.998   4.841   5.225  0.3127  0.0746  0.0238
    1TYR    SC2  828   3.263   4.861   5.271  0.3296 -0.1740  0.0504
    1TYR    SC3  829   3.155   4.622   5.208  0.0629 -0.1435  0.3591
    2ARG     BB  830   2.540   5.170   5.230 -0.3070 -0.1192  0.1559
    2ARG    SC1  831   2.436   5.272   5.503  0.0718 -0.0160 -0.2756
    2ARG    SC2  832   2.173   5.279   5.721 -0.1468 -0.2195 -0.0182
    3TYR     BB  833   2.376   5.329   4.990  0.0225  0.2482 -0.3793
    3TYR    SC1  834   2.466   5.600   5.097 -0.1799  0.2063 -0.0881
    3TYR    SC2  835   2.711   5.699   5.153  0.0466 -0.4068  0.1199
    3TYR    SC3  836   2.503   5.753   5.317  0.0618  0.0034  0.0192
    1TYR     BB  837   3.902   3.039   6.808  0.0470  0.1671 -0.0627
    1TYR    SC1  838   3.558   3.047   6.794  0.0940 -0.1972 -0.3695
    1TYR    SC2  839   3.367   3.150   6.955  0.4424  0.1497 -0.1572
    1TYR    SC3  840   3.330   2.909   6.839  0.0207  0.0591  0.1357
    2ARG     BB  841   4.034   2.945   6.488  0.0591 -0.2787  0.2115
    2ARG    SC1  842   3.801   2.820   6.302  0.1014 -0.3436  0.2345
    2ARG    SC2  843   3.804   2.512   6.138 -0.1011 -0.3142  0.1766
    3TYR     BB  844   4.271   2.831   6.497 -0.1960 -0.1643  0.0544
    3TYR    SC1  845   4.198   2.521   6.583 -0.1330 -0.0865 -0.3120
    3TYR    SC2  846   4.184   2.418   6.832 -0.0971  0.0411 -0.2565
    3TYR    SC3  847   4.074   2.285   6.625  0.1375 -0.2171 -0.2224
    1TYR     BB  848   5.228   5.782   2.959  0.2893  0.2171 -0.1081
    1TYR    SC1  849   5.089   5.816   3.239 -0.1216 -0.4332 -0.0339
    1TYR    SC2  850   4.890   5.721   3.394  0.0773 -0.4441  0.2225
    1TYR    SC3  851   5.034   5.934   3.475 -0.1115 -0.1538 -0.1662
    2ARG     BB  852   5.070   5.554   2.801  0.1137 -0.1086  0.0078
    2ARG    SC1  853   4.858   5.406   2.988  0.1310 -0.1992 -0.0589
    2ARG    SC2  854   4.584   5.436   3.137 -0.1943 -0.0286 -0.3335
    3TYR     BB  855   5.218   5.443   2.548 -0.2407 -0.0411  0.1522
    3TYR    SC1  856   4.986   5.393   2.373 -0.0052  0.2100 -0.2686
    3TYR    SC2  857   4.929   5.462   2.118 -0.0359  0.0810 -0.2975
    3TYR    SC3  858   4.747   5.503   2.314  0.0463  0.3243 -0.2678
    1TYR     BB  859   6.025   5.756   2.891  0.0927  0.1324 -0.2665
    1TYR    SC1  860   5.968   5.530   2.669  0.0410  0.2014 -0.2718
    1TYR    SC2  861   6.140   5.402   2.506  0.2394 -0.1401  0.1784
    1TYR    SC3  862   5.894   5.299   2.551  0.1160  0.0509 -0.0337
    2ARG     BB  863   5.789   5.851   3.022  0.0699  0.2415  0.0731
    2ARG    SC1  864   5.720   6.108   2.811  0.2688 -0.0278 -0.0355
    2ARG    SC2  865   5.738   6.280   2.525 -0.0344  0.0596  0.0788
    3TYR     BB  866   5.561   5.814   3.302 -0.2188 -0.1542  0.0804
    3TYR    SC1  867   5.784   5.718   3.492 -0.3363 -0.0423 -0.3694
    3TYR    SC2  868   5.795   5.453   3.545 -0.3234  0.0234 -0.0183
    3TYR    SC3  869   6.022   5.591   3.498 -0.3331 -0.0314 -0.2370
    1TYR     BB  870   5.085   3.558   3.032 -0.1193 -0.0151  0.0814
    1TYR    SC1  871   4.994   3.777   3.224 -0.1287  0.1012 -0.2973
    1TYR    SC2  872   4.805   3.827   3.410  0.0998 -0.1736  0.0257
    1TYR    SC3  873   4.932   4.032   3.287  0.0206  0.0172  0.2532
    2ARG     BB  874   5.183   3.570   2.782 -0.1903  0.0702 -0.1493
    2ARG    SC1  875   4.925   3.487   2.573  0.2841 -0.2913  0.3444
    2ARG    SC2  876   4.713   3.282   2.695 -0.1919  0.1360 -0.0437
    3TYR     BB  877   5.390   3.502   2.541 -0.1585 -0.0284 -0.1855
    3TYR    SC1  878   5.322   3.529   2.235  0.1927 -0.2467 -0.0385
    3TYR    SC2  879   5.315   3.679   2.010 -0.0380 -0.2221 -0.0175
    3TYR    SC3  880   5.097   3.663   2.169  0.1324 -0.2132  0.2234
    1TYR     BB  881   3.039   5.698   4.375  0.4138 -0.0312  0.2094
    1TYR    SC1  882   3.023   5.360   4.366 -0.0578 -0.1209  0.0632
    1TYR    SC2  883   3.214   5.184   4.439 -0.2283 -0.2341  0.2525
    1TYR    SC3  884   3.034   5.117   4.249  0.0838 -0.0203 -0.1394
    2ARG     BB  885   2.903   5.805   4.181  0.0386 -0.1035  0.0001
    2ARG    SC1  886   2.924   5.744   3.881  0.0390  0.1073  0.0092
    2ARG    SC2  887   2.864   5.633   3.601 -0.2299 -0.0609  0.1182
    3TYR     BB  888   2.604   5.956   4.214 -0.1404  0.0708 -0.0932
    3TYR    SC1  889   2.621   6.133   3.937  0.1022 -0.3202 -0.1551
    3TYR    SC2  890   2.613   6.054   3.679 -0.6160 -0.1155 -0.2209
    3TYR    SC3  891   2.605   6.316   3.740  0.4326 -0.0846  0.0243
    1TYR     BB  892   4.678   3.844   5.862 -0.2871  0.2405  0.0295
    1TYR    SC1  893   4.760   4.146   5.846  0.0709 -0.0934  0.2720
    1TYR    SC2  894   4.924   4.330   5.737 -0.0604 -0.2283 -0.1773
    1TYR    SC3  895   4.825   4.368   5.985  0.2275  0.1064 -0.1037
    2ARG     BB  896   4.340   3.867   5.733 -0.2307 -0.0594  0.2141
    2ARG    SC1  897   4.321   4.163   5.664 -0.1923 -0.2764 -0.1195
    2ARG    SC2  898   4.312   4.478   5.731 -0.0540 -0.1236 -0.1896
    3TYR     BB  899   4.125   3.674   5.904  0.0246 -0.2504  0.1062
    3TYR    SC1  900   4.154   3.387   5.975 -0.0797  0.0931  0.1230
    3TYR    SC2  901   4.255   3.238   6.176 -0.1481 -0.2980 -0.1173
    3TYR    SC3  902   4.142   3.117   5.963  0.1407  0.0908 -0.5118
    1TYR     BB  903   6.012   2.326   6.487 -0.2488 -0.1865  0.3325
    1TYR    SC1  904   6.250   2.107   6.479 -0.0846 -0.1005 -0.3445
    1TYR    SC2  905   6.439   1.935   6.392 -0.0960 -0.2729 -0.0455
    1TYR    SC3  906   6.492   2.100   6.598 -0.1355 -0.0161 -0.2347
    2ARG     BB  907   6.094   2.576   6.581 -0.2248 -0.2293  0.0394
    2ARG    SC1  908   6.312   2.514   6.836 -0.0653 -0.4553  0.1117
    2ARG    SC2  909   6.346   2.502   7.162 -0.0923  0.0262  0.0699
    3TYR     BB  910   5.948   2.817   6.577 -0.2456 -0.0874 -0.0113
    3TYR    SC1  911   5.637   2.699   6.513 -0.0013  0.0324 -0.0814
    3TYR    SC2  912   5.445   2.705   6.703  0.1685 -0.1422  0.1013
    3TYR    SC3  913   5.379   2.652   6.447 -0.1068  0.3946  0.0431
    1TYR     BB  914   5.260   5.003   3.729  0.0753 -0.1293 -0.0245
    1TYR    SC1  915   5.519   4.926   3.624  0.0286 -0.0321  0.0592
    1TYR    SC2  916   5.714   4.791   3.496 -0.0372 -0.0064 -0.0697
    1TYR    SC3  917   5.672   5.052   3.441 -0.3600 -0.1062 -0.3379
    2ARG     BB  918   5.188   5.265   3.546 -0.1780  0.1067  0.3798
    2ARG    SC1  919   5.350   5.509   3.685 -0.3287 -0.0715  0.1571
    2ARG    SC2  920   5.398   5.720   3.998  0.1405  0.0417  0.1125
    3TYR     BB  921   5.214   5.274   3.256 -0.0150 -0.3878  0.0567
    3TYR    SC1  922   5.491   5.387   3.142 -0.1430  0.0597  0.0024
    3TYR    SC2  923   5.756   5.381   3.089 -0.1553  0.3125 -0.1084
    3TYR    SC3  924   5.580   5.423   2.889 -0.3125 -0.2286 -0.1038
    1TYR     BB  925   1.998   4.515   6.600 -0.0735  0.1422  0.2682
    1TYR    SC1  926   1.830   4.720   6.440  0.4377  0.0337  0.0133
    1TYR    SC2  927   1.769   4.960   6.332  0.1903 -0.0095  0.0505
    1TYR    SC3  928   1.661   4.734   6.230  0.2916 -0.0905  0.1199
    2ARG     BB  929   2.132   4.221   6.550  0.2358  0.0385  0.0225
    2ARG    SC1  930   2.230   4.048   6.806 -0.0287  0.0997  0.0009
    2ARG    SC2  931   2.356   3.924   7.048  0.4445  0.0530  0.0764
    3TYR     BB  932   2.046   4.097   6.364  0.1416  0.2628  0.1203
    3TYR    SC1  933   2.109   3.784   6.395  0.0618  0.0038  0.0160
    3TYR    SC2  934   2.084   3.529   6.310 -0.2827  0.0021  0.1041
    3TYR    SC3  935   2.100   3.582   6.574  0.0379  0.0601  0.0787
    1TYR     BB  936   6.828   2.408   1.228  0.1586 -0.0262  0.5147
    1TYR    SC1  937   6.715   2.662   1.361 -0.1470 -0.1924  0.0828
    1TYR    SC2  938   6.629   2.662   1.617 -0.4555 -0.4751 -0.0117
    1TYR    SC3  939   6.621   2.889   1.472 -0.2963 -0.3169  0.2173
    2ARG     BB  940   6.559   2.317   1.027 -0.3011 -0.1985  0.1382
    2ARG    SC1  941   6.538   2.002   1.039  0.3633  0.0301 -0.2313
    2ARG    SC2  942   6.607   1.721   0.910  0.3577 -0.1873  0.1199
    3TYR     BB  943   6.613   2.396   0.742 -0.1206 -0.0522  0.1834
    3TYR    SC1  944   6.846   2.551   0.671  0.0170  0.2226  0.0372
    3TYR    SC2  945   7.073   2.588   0.812  0.3074 -0.1673 -0.2960
    3TYR    SC3  946   7.015   2.752   0.606  0.0010  0.2568  0.1003
    1TYR     BB  947   4.055   2.765   7.164 -0.1089 -0.1738 -0.2861
    1TYR    SC1  948   4.030   2.488   7.273 -0.0387  0.1332  0.1802
    1TYR    SC2  949   3.838   2.300   7.250  0.1157  0.0207 -0.3554
    1TYR    SC3  950   4.095   2.226   7.285  0.0861  0.1706  0.3698
    2ARG     BB  951   4.189   2.913   7.435  0.2311 -0.2220 -0.0244
    2ARG    SC1  952   4.515   2.801   7.437  0.0027 -0.0817  0.0723
    2ARG    SC2  953   4.530   2.558   7.235 -0.2481 -0.2949 -0.2088
    3TYR     BB  954   4.055   2.892   7.683 -0.0182 -0.5124  0.1932
    3TYR    SC1  955   3.863   2.688   7.777  0.0046  0.0162 -0.0287
    3TYR    SC2  956   3.673   2.536   7.895  0.2527 -0.1749  0.1378
    3TYR    SC3  957   3.846   2.424   7.720  0.1193  0.0304 -0.1338
    1TYR     BB  958   6.082   2.333   0.839 -0.4878  0.2460  0.0716
    1TYR    SC1  959   5.968   2.164   0.599  0.1634  0.3615  0.0377
    1TYR    SC2  960   5.942   1.952   0.435  0.0331  0.3119  0.1201
    1TYR    SC3  961   5.794   2.174   0.393  0.3791  0.5053 -0.1428
    2ARG     BB  962   6.197   2.671   0.829  0.1599 -0.0566  0.0399
    2ARG    SC1  963   6.084   2.800   0.603  0.1663  0.1432 -0.0316
    2ARG    SC2  964   5.891   2.671   0.312 -0.0195 -0.1151  0.0631
    3TYR     BB  965   6.393   2.775   0.993 -0.1567 -0.1479  0.1091
    3TYR    SC1  966   6.678   2.917   0.974  0.1759 -0.2399  0.1388
    3TYR    SC2  967   6.898   3.031   1.083  0.1611 -0.0309 -0.0421
    3TYR    SC3  968   6.793   3.130   0.855 -0.0908 -0.1622  0.0116
    1TYR     BB  969   2.765   3.986   7.272 -0.0955 -0.1585 -0.0561
    1TYR    SC1  970   2.682   4.152   7.558 -0.0137 -0.2019  0.2190
    1TYR    SC2  971   2.661   4.081   7.818 -0.0761 -0.0435  0.2594
    1TYR    SC3  972   2.666   4.342   7.750 -0.0777 -0.0839  0.0989
    2ARG     BB  973   2.830   4.207   7.070 -0.0009  0.2638 -0.0738
    2ARG    SC1  974   2.943   4.419   7.263 -0.0714 -0.0478 -0.0682
    2ARG    SC2  975   2.801   4.650   7.383 -0.0092 -0.0532  0.1747
    3TYR     BB  976   2.760   4.239   6.835 -0.2549 -0.2228  0.1658
    3TYR    SC1  977   2.917   4.151   6.589 -0.0628 -0.2070  0.0886
    3TYR    SC2  978   2.897   3.985   6.377  0.0344 -0.2731  0.1302
    3TYR    SC3  979   3.124   4.125   6.417 -0.1080  0.0033 -0.0005
    1TYR     BB  980   5.562   4.411   2.757 -0.1936 -0.0249  0.0771
    1TYR    SC1  981   5.675   4.162   2.724 -0.2322  0.1409  0.5247
    1TYR    SC2  982   5.876   3.982   2.707 -0.2499  0.1412  0.2690
    1TYR    SC3  983   5.625   3.899   2.762 -0.2572  0.0852  0.1571
    2ARG     BB  984   5.400   4.638   2.565 -0.3613  0.0793  0.0805
    2ARG    SC1  985   5.274   4.511   2.299 -0.0591  0.2725  0.0052
    2ARG    SC2  986   4.929   4.515   2.364 -0.0076 -0.0250  0.5341
    3TYR     BB  987   5.476   4.944   2.490 -0.1541 -0.0763 -0.0657
    3TYR    SC1  988   5.414   5.032   2.222  0.1098  0.0512 -0.0802
    3TYR    SC2  989   5.438   4.937   1.970 -0.2543  0.0732 -0.1301
    3TYR    SC3  990   5.223   5.085   2.038 -0.0680  0.2270  0.1480
    1TYR     BB  991   1.963   5.450   4.073 -0.0364  0.3207 -0.0055
    1TYR    SC1  992   1.958   5.446   3.811 -0.1058 -0.0354  0.1024
    1TYR    SC2  993   1.945   5.625   3.609  0.1628  0.1519  0.2433
    1TYR    SC3  994   2.085   5.396   3.578 -0.1761 -0.0413  0.0650
    2ARG     BB  995   1.742   5.293   4.280  0.1668 -0.0788 -0.1357
    2ARG    SC1  996   1.432   5.348   4.076 -0.0398  0.0739  0.2780
    2ARG    SC2  997   1.159   5.484   3.963  0.2032 -0.1105 -0.0098
    3TYR     BB  998   1.769   4.947   4.330 -0.1317  0.4174 -0.0413
    3TYR    SC1  999   1.522   4.804   4.262  0.0682 -0.0930  0.2054
    3TYR    SC2 1000   1.279   4.735   4.356 -0.1680  0.3402 -0.0430
    3TYR    SC3 1001   1.369   4.630   4.124 -0.0078  0.0101  0.1581
    1TYR     BB 1002   6.618   3.428   3.475 -0.2263  0.1472  0.0348
    1TYR    SC1 1003   6.843   3.488   3.697  0.1091  0.0660  0.0752
    1TYR    SC2 1004   6.941   3.625   3.909 -0.4626 -0.2195  0.5612
    1TYR    SC3 1005   6.887   3.361   3.931  0.0349 -0.4196 -0.1597
    2ARG     BB 1006   6.713   3.118   3.361  0.1384  0.2485  0.1289
    2ARG    SC1 1007   6.820   2.927   3.568 -0.1410  0.0065 -0.0085
    2ARG    SC2 1008   6.887   2.567   3.639 -0.2375  0.1426  0.0877
    3TYR     BB 1009   6.683   3.046   3.086 -0.2057 -0.2991 -0.1838
    3TYR    SC1 1010   6.426   3.178   2.964 -0.1528 -0.2122  0.0416
    3TYR    SC2 1011   6.201   3.325   2.990 -0.0445  0.0052 -0.1993
    3TYR    SC3 1012   6.210   3.123   2.811 -0.0552 -0.0204 -0.1711
    1TYR     BB 1013   6.424   5.845   3.264  0.1045 -0.2671  0.0455
    1TYR    SC1 1014   6.176   6.070   3.358 -0.1226 -0.2705  0.1065
    1TYR    SC2 1015   5.972   6.128   3.524  0.1645  0.1099  0.3471
    1TYR    SC3 1016   5.974   6.229   3.274 -0.2824 -0.4863  0.0690
    2ARG     BB 1017   6.532   5.978   3.028 -0.0817 -0.0002 -0.0355
    2ARG    SC1 1018   6.834   5.951   3.014  0.1797 -0.0956 -0.2846
    2ARG    SC2 1019   7.138   6.042   3.116  0.0574  0.0049 -0.0678
    3TYR     BB 1020   6.530   5.707   2.735 -0.0952  0.0837  0.1455
    3TYR    SC1 1021   6.435   5.497   2.910 -0.0047 -0.0093 -0.2933
    3TYR    SC2 1022   6.268   5.286   2.913  0.2323 -0.2025 -0.1675
    3TYR    SC3 1023   6.309   5.428   3.138 -0.0466  0.0845 -0.2873
    1TYR     BB 1024   3.144   6.795   4.499  0.0235  0.2459  0.1105
    1TYR    SC1 1025   2.944   6.980   4.450  0.4465  0.0336 -0.2569
    1TYR    SC2 1026   2.725   7.068   4.318  0.2301  0.0609  0.1039
    1TYR    SC3 1027   2.895   7.245   4.430  0.0397  0.0422  0.4401
    2ARG     BB 1028   3.328   6.848   4.765 -0.1603 -0.1054  0.3337
    2ARG    SC1 1029   3.141   7.088   4.920 -0.0145 -0.3462  0.0481
    2ARG    SC2 1030   2.990   7.304   5.106  0.2206  0.3280 -0.1088
    3TYR     BB 1031   3.657   6.742   4.717  0.2452 -0.1617  0.2322
    3TYR    SC1 1032   3.703   6.593   4.939 -0.0060 -0.0669 -0.0052
    3TYR    SC2 1033   3.839   6.585   5.172 -0.1865 -0.2844  0.0981
    3TYR    SC3 1034   3.594   6.473   5.155 -0.2778 -0.0617 -0.1342
    1TYR     BB 1035   6.074   3.208   2.160 -0.1096  0.1039 -0.0314
    1TYR    SC1 1036   6.300   3.317   2.314  0.2031  0.1703 -0.1876
    1TYR    SC2 1037   6.507   3.365   2.481 -0.0189  0.0870  0.1237
    1TYR    SC3 1038   6.476   3.514   2.258  0.3232  0.1573  0.1158
    2ARG     BB 1039   5.798   3.301   2.329  0.4092 -0.1367 -0.1483
    2ARG    SC1 1040   5.587   3.123   2.293  0.1266  0.0450  0.1132
    2ARG    SC2 1041   5.591   2.809   2.218 -0.0834  0.4297  0.4312
    3TYR     BB 1042   5.866   3.497   2.531 -0.1789 -0.1044  0.2997
    3TYR    SC1 1043   6.122   3.695   2.489  0.2215 -0.0663  0.0276
    3TYR    SC2 1044   6.311   3.722   2.680  0.0906  0.0773  0.1399
    3TYR    SC3 1045   6.315   3.882   2.463  0.2204 -0.0640  0.0357
    1TYR     BB 1046   3.060   5.150   5.615  0.0187  0.0959  0.0734
    1TYR    SC1 1047   2.847   5.036   5.770  0.0015  0.3232  0.3620
    1TYR    SC2 1048   2.771   4.856   5.955 -0.2371 -0.2854 -0.2719
    1TYR    SC3 1049   2.604   5.055   5.885 -0.1694 -0.0866  0.0971
    2ARG     BB 1050   3.003   5.389   5.439 -0.1952 -0.1310  0.1700
    2ARG    SC1 1051   2.848   5.554   5.651  0.0564  0.0256  0.0936
    2ARG    SC2 1052   2.844   5.867   5.628 -0.3315 -0.1507 -0.1890
    3TYR     BB 1053   3.185   5.613   5.293  0.2216  0.2984 -0.1041
    3TYR    SC1 1054   3.243   5.840   5.439  0.1275 -0.1416 -0.0606
    3TYR    SC2 1055   3.335   5.998   5.638 -0.0162 -0.1455  0.0104
    3TYR    SC3 1056   3.225   6.108   5.417 -0.1273 -0.1444  0.0653
    1TYR     BB 1057   5.016   4.961   2.802  0.1224 -0.1123 -0.1752
    1TYR    SC1 1058   4.848   4.955   2.533 -0.1672  0.3138  0.0490
    1TYR    SC2 1059   4.754   5.007   2.285 -0.2208  0.2214  0.0494
    1TYR    SC3 1060   4.615   4.846   2.451  0.1222 -0.2463 -0.0895
    2ARG     BB 1061   4.863   4.923   3.084 -0.1537 -0.0805  0.1486
    2ARG    SC1 1062   4.567   4.873   2.989 -0.0019 -0.0115 -0.0311
    2ARG    SC2 1063   4.303   4.895   2.869  0.2677  0.0695  0.0357
    3TYR     BB 1064   4.982   4.857   3.364  0.0183 -0.0264  0.0272
    3TYR    SC1 1065   5.084   4.606   3.469 -0.1451  0.0194 -0.2501
    3TYR    SC2 1066   5.094   4.358   3.576  0.0251  0.2218  0.2381
    3TYR    SC3 1067   5.321   4.500   3.542 -0.0493  0.2520 -0.2152
    1TYR     BB 1068   1.444   5.771   5.409  0.3341 -0.0150 -0.0128
    1TYR    SC1 1069   1.556   5.936   5.168 -0.0421 -0.2554  0.1177
    1TYR    SC2 1070   1.671   6.151   5.052  0.1695 -0.2474  0.3334
    1TYR    SC3 1071   1.606   5.936   4.903  0.4606 -0.2487  0.2007
    2ARG     BB 1072   1.201   5.475   5.212  0.0749  0.0887 -0.3468
    2ARG    SC1 1073   1.220   5.544   4.903 -0.1065  0.1100 -0.1701
    2ARG    SC2 1074   1.075   5.629   4.644 -0.2175 -0.1104  0.0373
    3TYR     BB 1075   1.111   5.111   5.336 -0.3437 -0.2426 -0.2698
    3TYR    SC1 1076   1.013   5.041   5.009  0.0783 -0.4399 -0.0061
    3TYR    SC2 1077   1.140   4.982   4.778  0.1742  0.2934 -0.1722
    3TYR    SC3 1078   0.937   5.159   4.778  0.0536  0.1725  0.2905
    1TYR     BB 1079   4.864   1.953   6.937  0.1764 -0.0778 -0.2518
    1TYR    SC1 1080   5.044   2.156   7.051  0.2073  0.0496  0.1451
    1TYR    SC2 1081   5.267   2.299   7.107  0.2273  0.0205  0.1402
    1TYR    SC3 1082   5.031   2.366   7.220  0.2085  0.1425  0.0311
    2ARG     BB 1083   4.584   2.038   6.854 -0.1142 -0.3919  0.0480
    2ARG    SC1 1084   4.343   1.905   7.039 -0.1891 -0.0924  0.2145
    2ARG    SC2 1085   4.254   1.722   7.275 -0.1340  0.2707 -0.0198
    3TYR     BB 1086   4.571   2.000   6.495 -0.0653  0.0160  0.1753
    3TYR    SC1 1087   4.775   1.837   6.359  0.1942 -0.2198  0.1877
    3TYR    SC2 1088   4.900   1.681   6.177 -0.2622 -0.3081 -0.0689
    3TYR    SC3 1089   4.978   1.677   6.436  0.1121 -0.5156 -0.1763
    1TYR     BB 1090   2.737   3.483   7.365  0.1930  0.1982 -0.1436
    1TYR    SC1 1091   2.518   3.545   7.535  0.1412 -0.0404  0.0526
    1TYR    SC2 1092   2.402   3.782   7.594  0.1473  0.0140 -0.1449
    1TYR    SC3 1093   2.486   3.619   7.793 -0.0756  0.0676 -0.0022
    2ARG     BB 1094   2.664   3.419   7.088 -0.1146  0.2258  0.1176
    2ARG    SC1 1095   2.341   3.447   7.029 -0.1272 -0.1659 -0.2952
    2ARG    SC2 1096   2.160   3.216   6.967  0.0130  0.0291 -0.0771
    3TYR     BB 1097   2.933   3.279   6.866  0.6067 -0.1684 -0.0657
    3TYR    SC1 1098   3.081   3.536   6.824  0.2351  0.1309 -0.0942
    3TYR    SC2 1099   3.186   3.773   6.748 -0.0687  0.3585  0.1619
    3TYR    SC3 1100   3.185   3.703   7.009 -0.0269  0.0934  0.0940
    4W        W 1101   2.663   1.869   4.446 -0.0925  0.0968  0.2595
    5W        W 1102   0.224   5.026   7.049  0.2406 -0.1020 -0.0560
    6W        W 1103   6.042   2.069   2.773 -0.1156  0.1213  0.0245
    7W        W 1104   0.705   6.912   4.180 -0.0322 -0.1549  0.4987
    8W        W 1105   2.949   4.858   3.195 -0.0108 -0.0468  0.0457
    9W        W 1106   7.507   2.234   3.661  0.1603 -0.0714  0.1447
   10W        W 1107   0.704   0.770   6.671 -0.3684  0.0596 -0.0992
   11W        W 1108   3.842   2.835   3.390  0.2140  0.0508 -0.2755
   12W        W 1109   3.755   4.139   1.904 -0.2806  0.0791 -0.2791
   13W        W 1110   4.219   7.624   4.200 -0.3044  0.3740  0.0556
   14W        W 1111   0.419   6.238   6.359 -0.1371  0.1546 -0.0628
   15W        W 1112   5.022   4.694   6.300  0.0688  0.1118  0.0839
   16W        W 1113   4.895   1.309   5.834 -0.0511  0.3027  0.2783
   17W        W 1114   5.481   6.630   2.296  0.3515 -0.1158  0.0628
   18W        W 1115   0.089   1.478   5.983  0.2199 -0.0173 -0.1956
   19W        W 1116   5.769   5.409   6.085  0.0405 -0.1320 -0.0623
   20W        W 1117   6.268   6.773   0.929  0.0377 -0.1183  0.1045
   21W        W 1118   2.982   2.063   4.782 -0.0502  0.1370 -0.0638
   22W        W 1119   6.247   5.474   3.977 -0.1398  0.0259  0.0140
   23W        W 1120   5.681   6.189   5.369  0.0197 -0.2012 -0.0984
   24W        W 1121   0.152   7.304   6.476  0.3197 -0.0111 -0.0948
   25W        W 1122   5.540   0.436   7.384  0.1639 -0.2699  0.0137
   26W        W 1123   6.116   0.897   5.386 -0.1377  0.0400 -0.1657
   27W        W 1124   6.652   1.485   1.590 -0.1062 -0.1463  0.0586
   28W        W 1125   4.935   0.762   6.309  0.0133  0.1374  0.0560
   29W        W 1126   4.902   2.473   1.593  0.0966 -0.1582  0.2456
   30W        W 1127   6.076   0.746   0.581  0.2877  0.0472  0.1292
   31W        W 1128   3.629   5.394   3.570  0.0727 -0.0649  0.2106
   32W        W 1129   3.453   4.350   2.525  0.0883 -0.0444 -0.2268
   33W        W 1130   5.027   0.751   1.116  0.2877 -0.3990 -0.0403
   34W        W 1131   3.484   7.192   3.999 -0.0426  0.1228  0.1061
   35W        W 1132   3.279   4.038   1.191 -0.2352 -0.0414  0.0318
   36W        W 1133   6.636   7.593   2.581 -0.1803  0.0389  0.1115
   37W        W 1134   6.129   7.523   6.918 -0.1072 -0.2536  0.0061
   38W        W 1135   5.583   2.061   0.876  0.3641  0.0072  0.2471
   39W        W 1136   2.830   4.471   0.898 -0.0064  0.0015  0.2874
   40W        W 1137   4.120   4.438   1.693 -0.1412 -0.0441 -0.2098
   41W        W 1138   5.822   6.970   6.241  0.0358 -0.2613  0.0014
   42W        W 1139   7.534   6.153   0.365  0.0965 -0.0412 -0.1184
   43W        W 1140   0.370   2.884   0.018  0.3219 -0.2118 -0.0275
   44W        W 1141   1.441   2.876   6.436  0.0798 -0.1703  0.0217
   45W        W 1142   4.849   0.418   1.867 -0.1119  0.4406 -0.0933
   46W        W 1143   5.615   1.625   1.195 -0.2423  0.1022  0.0682
   47W        W 1144   2.866   0.876   6.787  0.2489 -0.1504  0.0960
   48W        W 1145   0.633   1.286   4.977 -0.0939  0.0619  0.0209
   49W        W 1146   3.673   2.268   1.867 -0.3172 -0.2417 -0.0039
   50W        W 1147   0.668   1.105   1.423  0.3041 -0.2898 -0.2566
   51W        W 1148   6.123   1.188   4.556 -0.0944  0.2429 -0.3079
   52W        W 1149   1.085   3.619   0.194 -0.1444  0.0919 -0.1887
   53W        W 1150   5.127   6.931   5.078  0.1328 -0.1214 -0.1805
   54W        W 1151   3.690   0.353   1.692  0.0144  0.0007  0.1074
   55W        W 1152   2.746   6.203   6.478  0.1968 -0.1063  0.0227
   56W        W 1153   7.213   3.284   0.495  0.2524  0.1992 -0.1817
   57W        W 1154   7.173   1.365   2.920  0.1356  0.0404  0.0691
   58W        W 1155   4.887   7.119   5.969  0.0514  0.1009  0.0974
   59W        W 1156   2.055   1.046   0.783  0.0853  0.0600 -0.1938
   60W        W 1157   7.624   3.000   1.014  0.1331 -0.2110 -0.2366
   61W        W 1158   1.207   6.529   6.189 -0.0534  0.0036 -0.0391
   62W        W 1159   6.678   7.169   2.238 -0.2167  0.2171  0.2818
   63W        W 1160   6.648   2.533   3.227 -0.1647  0.1415  0.5164
   64W        W 1161   4.538   6.191   0.239  0.0807 -0.0217 -0.0599
   65W        W 1162   0.486   4.763   1.671  0.0607  0.4468  0.2834
   66W        W 1163   4.427   6.923   2.721  0.2013 -0.1566  0.1380
   67W        W 1164   6.977   6.060   5.604  0.1371 -0.1828  0.1521
   68W        W 1165   6.462   1.969   3.878  0.0412  0.1011 -0.0186
   69W        W 1166   1.760   6.682   0.205 -0.0570 -0.0746  0.1198
   70W        W 1167   0.764   5.683   3.213 -0.0729 -0.0017 -0.1434
   71W        W 1168   0.786   5.019   6.869 -0.1111 -0.1096  0.2053
   72W        W 1169   6.813   5.611   4.074  0.1512  0.2767  0.0192
   73W        W 1170   1.980   1.211   4.044 -0.1474  0.1428  0.1071
   74W        W 1171   2.487   1.210   3.213 -0.0336  0.2298 -0.0479
   75W        W 1172   2.381   7.501   3.676 -0.1950 -0.1312  0.1268
   76W        W 1173   7.625   6.389   7.457  0.0848  0.0504  0.1309
   77W        W 1174   5.322   1.021   7.036  0.1083  0.0361 -0.3240
   78W        W 1175   3.734   5.746   3.260 -0.1991 -0.2236 -0.0235
   79W        W 1176   6.672   1.081   5.921 -0.0337 -0.1429  0.0045
   80W        W 1177   6.831   6.043   3.534  0.0532  0.1753  0.1596
   81W        W 1178   6.707   0.889   2.413  0.1938 -0.0036  0.0243
   82W        W 1179   3.428   4.483   3.025 -0.0651 -0.3496 -0.2498
   83W        W 1180   4.769   0.341   1.363  0.2993 -0.0971 -0.1627
   84W        W 1181   0.794   6.380   0.155 -0.4540 -0.4100  0.2156
   85W        W 1182   0.386   3.683   6.450  0.1695  0.0468 -0.0674
   86W        W 1183   3.136   2.246   2.278 -0.1961 -0.0244 -0.1778
   87W        W 1184   2.025   5.525   6.160  0.1244  0.1165 -0.0890
   88W        W 1185   7.071   5.539   3.667 -0.1970 -0.1021 -0.1724
   89W        W 1186   7.332   5.131   5.506 -0.2694  0.0557 -0.0599
   90W        W 1187   5.106   2.526   0.469  0.1214  0.1530 -0.3113
   91W        W 1188   5.825   7.159   0.890 -0.4005  0.2248 -0.2477
   92W        W 1189   2.689   0.049   7.577 -0.0121 -0.2066  0.4629
   93W        W 1190   5.061   6.777   6.320 -0.1325 -0.0338  0.0954
   94W        W 1191   3.208   6.220   3.281 -0.2970 -0.2455  0.2710
   95W        W 1192   4.532   4.443   7.619  0.0603  0.0585  0.1183
   96W        W 1193   4.502   2.782   2.012  0.1695 -0.1371 -0.0306
   97W        W 1194   2.386   6.873   2.041 -0.2998  0.0770  0.1315
   98W        W 1195   7.087   3.984   4.198  0.3242  0.1253 -0.0510
   99W        W 1196   3.642   6.281   3.959 -0.1563 -0.4994 -0.1457
  100W        W 1197   5.354   5.343   7.588 -0.1391  0.1139  0.0142
  101W        W 1198   3.824   7.106   4.357  0.0355 -0.1416  0.1753
  102W        W 1199   5.474   4.278   5.076  0.1145 -0.2380 -0.1556
  103W        W 1200   1.989   2.407   0.822 -0.1004  0.0978  0.0500
  104W        W 1201   1.645   3.787   0.594 -0.1214 -0.0553  0.2547
  105W        W 1202   7.064   2.291   3.257 -0.1085 -0.2629 -0.1552
  106W        W 1203   5.502   6.341   0.449  0.0315 -0.0316  0.0562
  107W        W 1204   4.561   4.378   4.200  0.0880  0.1650  0.1389
  108W        W 1205   0.293   1.033   6.187  0.1859 -0.0856  0.0310
  109W        W 1206   1.105   3.064   1.995  0.0550  0.0248 -0.1137
  110W        W 1207   6.232   0.437   5.332  0.0564  0.2772  0.3674
  111W        W 1208   7.088   2.072   7.058 -0.0464  0.2891  0.0410
  112W        W 1209   0.376   0.836   2.141  0.2180 -0.1720  0.0475
  113W        W 1210   4.506   3.273   3.582  0.0293  0.3412  0.2152
  114W        W 1211   0.742   5.526   5.083 -0.0784  0.1811  0.1574
  115W        W 1212   5.427   3.915   7.222 -0.0508 -0.2473 -0.3073
  116W        W 1213   3.741   2.808   3.884 -0.1937  0.0621  0.1016
  117W        W 1214   0.339   1.233   1.058 -0.1070  0.0575  0.0251
  118W        W 1215   2.704   5.555   1.919  0.3660 -0.1973 -0.2412
  119W        W 1216   1.766   5.361   6.679  0.4403 -0.1741  0.2178
  120W        W 1217   0.061   2.659   6.766  0.0770  0.2454 -0.0377
  121W        W 1218   2.556   7.601   0.863 -0.1547  0.0024 -0.1363
  122W        W 1219   2.280   1.213   2.530  0.0145  0.0078  0.0260
  123W        W 1220   5.926   0.706   0.099  0.1709 -0.4825  0.1375
  124W        W 1221   2.199   0.647   6.151 -0.3221  0.1226 -0.0632
  125W        W 1222   2.205   2.643   0.040 -0.1780  0.0932  0.0383
  126W        W 1223   7.349   0.294   0.529  0.1998 -0.4522  0.4070
  127W        W 1224   4.757   3.982   5.382 -0.0060 -0.2931  0.1275
  128W        W 1225   0.250   2.693   2.605  0.3747  0.0259 -0.0091
  129W        W 1226   2.176   1.746   0.039  0.2490  0.0558 -0.1336
  130W        W 1227   1.731   6.276   6.811  0.2639 -0.2637  0.0480
  131W        W 1228   6.868   0.384   0.696 -0.1540 -0.4191 -0.0497
  132W        W 1229   0.023   0.820   7.324  0.0521 -0.0061  0.1322
  133W        W 1230   6.913   1.847   6.642 -0.0353 -0.0598  0.0786
  134W        W 1231   1.418   4.922   3.413  0.2300 -0.0471 -0.0102
  135W        W 1232   0.072   7.398   6.000  0.1522 -0.1577 -0.2865
  136W        W 1233   7.370   6.629   0.216 -0.2048  0.1153 -0.0768
  137W        W 1234   0.024   4.776   4.769  0.1481 -0.1333  0.1938
  138W        W 1235   0.741   6.667   1.841 -0.1113  0.1017 -0.0773
  139W        W 1236   1.302   5.187   0.198 -0.0641  0.1132  0.0882
  140W        W 1237   7.038   5.184   7.059 -0.2746 -0.0708 -0.1442
  141W        W 1238   3.399   0.870   5.266 -0.0710 -0.0430  0.0243
  142W        W 1239   2.453   1.706   3.397 -0.0537  0.1424  0.5857
  143W        W 1240   1.791   4.461   1.333  0.0620 -0.1349  0.1642
  144W        W 1241   1.304   2.354   0.940 -0.0110 -0.1059  0.1154
  145W        W 1242   3.817   0.129   0.058 -0.4010  0.0528  0.3625
  146W        W 1243   5.041   0.702   0.613  0.0120 -0.3863 -0.1653
  147W        W 1244   4.815   6.195   4.561 -0.0585  0.1601  0.0233
  148W        W 1245   2.601   1.966   0.521 -0.1543  0.2910 -0.0223
  149W        W 1246   3.817   6.154   2.428  0.0346  0.0450  0.0198
  150W        W 1247   2.257   3.160   3.215  0.2732  0.1763  0.0836
  151W        W 1248   6.021   6.290   0.430  0.1208  0.1057 -0.2965
  152W        W 1249   4.838   7.155   1.445  0.4214 -0.0994  0.0443
  153W        W 1250   3.977   5.231   2.606  0.3915  0.3963  0.0125
  154W        W 1251   3.397   1.955   6.104 -0.0005  0.3188  0.0318
  155W        W 1252   7.226   5.186   0.618  0.2446 -0.1718 -0.1590
  156W        W 1253   1.425   5.643   2.741  0.1525 -0.0906  0.3455
  157W        W 1254   5.808   0.784   4.394 -0.1368  0.0251 -0.2453
  158W        W 1255   4.466   2.087   0.471 -0.2539  0.3117 -0.2195
  159W        W 1256   1.765   2.440   4.062  0.0895  0.0630 -0.0915
  160W        W 1257   2.564   7.412   5.690 -0.1385 -0.0233 -0.0287
  161W        W 1258   0.299   3.880   5.038  0.0669 -0.3505  0.0075
  162W        W 1259   1.248   1.073   2.815 -0.0374 -0.0515  0.1302
  163W        W 1260   6.192   4.248   7.139  0.3124 -0.0943  0.0660
  164W        W 1261   7.501   7.571   4.308 -0.1719 -0.1832  0.2807
  165W        W 1262   3.666   7.090   2.697  0.2504  0.2095 -0.2957
  166W        W 1263   5.553   5.670   5.738 -0.2093  0.2368  0.0297
  167W        W 1264   7.081   3.764   6.861 -0.1569  0.1735  0.5723
  168W        W 1265   2.875   2.025   6.920 -0.1769 -0.0140  0.0534
  169W        W 1266   6.340   6.783   0.328 -0.1015  0.0148 -0.0775
  170W        W 1267   0.316   7.544   1.809  0.1194 -0.0071 -0.3101
  171W        W 1268   4.066   0.072   6.828  0.0485  0.1978 -0.3200
  172W        W 1269   6.089   5.038   6.073  0.1038 -0.1290  0.1681
  173W        W 1270   7.579   1.121   2.139 -0.1597 -0.3995 -0.4905
  174W        W 1271   0.482   2.650   4.011 -0.0364  0.0967  0.2771
  175W        W 1272   7.337   5.558   3.247 -0.4000  0.0281 -0.1022
  176W        W 1273   5.861   3.382   4.982  0.1355  0.1971 -0.0395
  177W        W 1274   7.368   2.568   2.814 -0.3559 -0.0254 -0.0263
  178W        W 1275   4.230   5.681   3.497 -0.0569 -0.0665  0.0438
  179W        W 1276   3.834   1.147   5.096  0.3401  0.1900 -0.0167
  180W        W 1277   2.421   3.822   1.565  0.2074  0.0161  0.1847
  181W        W 1278   1.971   4.904   0.910  0.1505 -0.1943  0.0059
  182W        W 1279   6.550   0.075   1.831 -0.1245 -0.0571 -0.1927
  183W        W 1280   7.143   6.945   3.125  0.2996 -0.0349  0.0938
  184W        W 1281   3.390   7.343   4.450  0.1504 -0.2979 -0.0619
  185W        W 1282   0.386   2.289   7.445 -0.2219  0.0860  0.0031
  186W        W 1283   0.339   7.518   7.369 -0.4397 -0.0259 -0.1174
  187W        W 1284   7.119   0.932   5.764 -0.1689 -0.2904 -0.0545
  188W        W 1285   5.886   3.046   4.631  0.0126 -0.1208  0.1216
  189W        W 1286   1.523   0.459   2.626  0.1072  0.1198 -0.0598
  190W        W 1287   1.442   0.109   2.203 -0.0130  0.2910 -0.4508
  191W        W 1288   1.984   0.677   0.301  0.3703  0.1943 -0.0535
  192W        W 1289   4.222   6.616   1.653 -0.2741  0.3105  0.1171
  193W        W 1290   4.254   5.820   0.424  0.2530 -0.0448 -0.0260
  194W        W 1291   1.584   4.241   3.998  0.0666  0.0399 -0.0322
  195W        W 1292   0.776   2.833   5.832  0.1364 -0.2281  0.1300
  196W        W 1293   1.372   6.831   1.869 -0.1063 -0.1741  0.1014
  197W        W 1294   6.581   7.281   4.918  0.1532  0.0911  0.0961
  198W        W 1295   0.445   4.445   6.830 -0.1077  0.1435  0.3661
  199W        W 1296   0.894   2.541   3.704 -0.2107  0.1180 -0.0323
  200W        W 1297   1.379   3.821   3.865  0.0972 -0.0899  0.0955
  201W        W 1298   7.333   5.559   0.914  0.5131  0.2838  0.0477
  202W        W 1299   2.238   4.985   0.455 -0.1378 -0.1439  0.0321
  203W        W 1300   0.520   5.225   1.440  0.0201 -0.1797 -0.1415
  204W        W 1301   2.376   2.199   2.260 -0.0333  0.3391 -0.2911
  205W        W 1302   4.535   4.413   5.241 -0.1165 -0.2873  0.1450
  206W        W 1303   0.327   0.817   0.098 -0.2799  0.0515 -0.0731
  207W        W 1304   7.222   7.412   7.011 -0.1688  0.0641  0.0588
  208W        W 1305   5.721   6.044   0.087  0.1357  0.0404 -0.2020
  209W        W 1306   6.515   5.509   4.552 -0.0264 -0.2299  0.0918
  210W        W 1307   5.198   6.587   4.299 -0.0179 -0.2440 -0.0203
  211W        W 1308   2.420   0.326   7.315  0.0583 -0.0283  0.2210
  212W        W 1309   5.289   1.033   6.131  0.0160  0.0773 -0.2496
  213W        W 1310   0.247   4.126   3.103 -0.0056 -0.2407 -0.1217
  214W        W 1311   4.016   6.371   1.169 -0.2282 -0.4922 -0.0939
  215W        W 1312   4.252   1.264   6.532 -0.1731  0.0147 -0.2515
  216W        W 1313   4.016   0.351   2.304  0.0843 -0.0527 -0.3636
  217W        W 1314   5.907   0.716   4.965  0.3201 -0.0962 -0.0418
  218W        W 1315   2.816   4.157   2.307  0.1748 -0.1905  0.0858
  219W        W 1316   7.565   3.467   0.896 -0.3098 -0.1626 -0.2279
  220W        W 1317   3.262   6.882   0.019  0.0762  0.0199 -0.0929
  221W        W 1318   6.640   0.995   1.825  0.1095  0.1683 -0.1567
  222W        W 1319   0.322   7.287   5.564 -0.0023 -0.0230  0.0311
  223W        W 1320   4.387   1.135   4.327  0.0338  0.2526  0.0683
  224W        W 1321   0.559   4.018   2.721  0.0855 -0.0193  0.1380
  225W        W 1322   3.040   0.371   3.005 -0.0244  0.1771 -0.1987
  226W        W 1323   4.146   1.464   3.400 -0.0465  0.1283  0.3663
  227W        W 1324   3.688   2.332   4.245 -0.1765 -0.3337  0.3862
  228W        W 1325   2.122   2.386   1.412  0.2188 -0.0234  0.0497
  229W        W 1326   6.996   6.141   2.525  0.1367 -0.1803  0.2055
  230W        W 1327   3.575   5.400   7.569 -0.2192 -0.0953  0.1277
  231W        W 1328   3.767   3.740   3.606 -0.1873  0.2955  0.0799
  232W        W 1329   6.022   0.176   4.240 -0.0911  0.1214 -0.4121
  233W        W 1330   4.450   3.278   5.028  0.0894  0.3128 -0.3508
  234W        W 1331   0.402   2.192   1.748 -0.0162  0.0327 -0.0851
  235W        W 1332   1.028   1.012   6.998 -0.1450 -0.2911  0.2920
  236W        W 1333   1.912   4.587   3.929  0.0217 -0.0001 -0.0874
  237W        W 1334   0.726   4.201   7.157 -0.1501  0.1659  0.1180
  238W        W 1335   0.430   2.338   4.474  0.1895 -0.0618 -0.1398
  239W        W 1336   6.499   5.285   6.262  0.3169  0.3723  0.1046
  240W        W 1337   4.747   6.428   2.465 -0.0563  0.3650 -0.1655
  241W        W 1338   2.146   1.563   0.627 -0.1410  0.0731  0.2041
  242W        W 1339   3.378   2.610   6.434 -0.2780  0.0506  0.2307
  243W        W 1340   0.482   5.936   5.281 -0.1172 -0.2731  0.0751
  244W        W 1341   7.483   7.334   7.454  0.1630 -0.0129 -0.1991
  245W        W 1342   6.011   5.260   7.011 -0.0443 -0.0383  0.0754
  246W        W 1343   1.316   6.843   5.299 -0.0693  0.1727 -0.1825
  247W        W 1344   2.298   0.267   3.168 -0.4613  0.0945  0.2302
  248W        W 1345   2.523   0.248   4.521 -0.0195 -0.0097 -0.1141
  249W        W 1346   1.639   3.890   7.362 -0.1446  0.0395 -0.0749
  250W        W 1347   4.907   7.555   6.895 -0.1237 -0.0596 -0.2525
  251W        W 1348   0.588   0.329   0.129 -0.2092  0.1436 -0.0014
  252W        W 1349   0.966   1.614   4.124  0.0362 -0.0219  0.2430
  253W        W 1350   1.022   6.109   3.763 -0.3288  0.0297  0.2706
  254W        W 1351   1.284   6.242   5.389 -0.1922 -0.1575 -0.0275
  255W        W 1352   3.776   6.989   3.440  0.1008 -0.0281 -0.0533
  256W        W 1353   2.694   5.600   0.122  0.3271  0.2008  0.0882
  257W        W 1354   4.593   7.249   2.300  0.0646  0.0090 -0.2057
  258W        W 1355   7.223   4.856   4.995 -0.1323  0.1199 -0.1219
  259W        W 1356   3.820   1.984   3.299  0.0447  0.0026  0.1959
  260W        W 1357   5.329   5.245   6.715 -0.2062  0.2006  0.2675
  261W        W 1358   2.134   2.161   0.351  0.0949  0.1422  0.1653
  262W        W 1359   7.468   7.629   6.656  0.2186 -0.1314  0.0666
  263W        W 1360   0.984   7.077   4.893 -0.2807  0.1087 -0.1669
  264W        W 1361   3.655   6.575   0.232  0.0924  0.2243 -0.1121
  265W        W 1362   1.456   6.833   7.461  0.0173  0.0840 -0.0957
  266W        W 1363   6.937   6.275   1.964 -0.0806  0.4133 -0.0585
  267W        W 1364   2.497   5.490   7.307  0.1458  0.0010  0.1433
  268W        W 1365   2.498   2.448   0.483  0.1924  0.1779  0.3573
  269W        W 1366   0.761   2.680   2.096  0.1161  0.0924  0.1963
  270W        W 1367   2.069   7.602   5.820  0.1323 -0.0343 -0.2829
  271W        W 1368   6.075   1.742   4.159  0.0364  0.0534  0.0095
  272W        W 1369   0.859   5.657   2.697  0.3082 -0.0839  0.1457
  273W        W 1370   2.645   7.452   6.576  0.0725 -0.1210 -0.1445
  274W        W 1371   3.150   3.603   4.482 -0.1934  0.2239  0.0597
  275W        W 1372   5.220   3.264   7.536 -0.0422 -0.1515  0.1187
  276W        W 1373   3.493   6.104   2.863  0.1134  0.0368 -0.2266
  277W        W 1374   6.763   0.557   5.203  0.0758 -0.0225 -0.1837
  278W        W 1375   7.087   1.342   1.392  0.0817  0.0583  0.1221
  279W        W 1376   0.910   2.262   0.644 -0.0239 -0.2673 -0.0560
  280W        W 1377   5.358   7.576   6.644  0.2066 -0.0264  0.0532
  281W        W 1378   0.172   4.408   6.295  0.1972 -0.0855 -0.1556
  282W        W 1379   0.933   6.746   3.176  0.1607 -0.2755  0.2254
  283W        W 1380   4.435   0.710   0.616  0.1361 -0.2264  0.0403
  284W        W 1381   1.455   5.168   6.018 -0.0078 -0.0200 -0.1364
  285W        W 1382   1.398   5.141   6.955 -0.3039  0.0171 -0.1930
  286W        W 1383   6.790   1.491   4.445 -0.1912  0.2568  0.0402
  287W        W 1384   4.187   4.247   3.422 -0.1760  0.0980 -0.1104
  288W        W 1385   2.886   5.858   7.231  0.2505 -0.4399  0.0834
  289W        W 1386   2.268   5.366   3.088 -0.2044 -0.2316  0.1259
  290W        W 1387   3.371   2.699   0.733 -0.2613 -0.1391  0.0062
  291W        W 1388   6.803   7.220   7.184 -0.2186 -0.0174  0.0623
  292W        W 1389   1.825   6.705   0.736  0.2043  0.2495 -0.0368
  293W        W 1390   6.295   1.370   4.958 -0.0173  0.1343  0.1850
  294W        W 1391   7.603   2.534   0.839  0.2106  0.1845 -0.0336
  295W        W 1392   1.846   0.569   1.209  0.0498  0.1392  0.1206
  296W        W 1393   7.180   0.342   1.935 -0.2902 -0.0596 -0.1393
  297W        W 1394   5.257   2.199   4.384 -0.3024  0.2471  0.1459
  298W        W 1395   1.601   4.855   2.454  0.0648  0.3053  0.3645
  299W        W 1396   6.788   6.951   2.770 -0.2375 -0.2464  0.1567
  300W        W 1397   3.379   1.817   3.629  0.0488  0.1393  0.0891
  301W        W 1398   7.186   5.168   2.401 -0.1894 -0.4966 -0.0919
  302W        W 1399   2.668   5.616   1.433 -0.3584 -0.1648  0.0473
  303W        W 1400   6.942   1.877   1.278 -0.0124  0.0030  0.0139
  304W        W 1401   1.692   1.998   6.602  0.3525  0.1604 -0.0264
  305W        W 1402   1.230   5.919   1.719 -0.0365 -0.2139  0.3734
  306W        W 1403   5.242   0.823   4.177  0.1960 -0.0967 -0.2133
  307W        W 1404   4.697   1.096   0.522  0.0798  0.0282 -0.1802
  308W        W 1405   0.041   0.281   3.267 -0.0483  0.1270  0.2263
  309W        W 1406   4.129   3.667   4.862 -0.2172 -0.1348 -0.0084
  310W        W 1407   0.622   4.129   4.739 -0.0059 -0.0257  0.1312
  311W        W 1408   3.126   6.429   7.461 -0.1748  0.0645  0.0910
  312W        W 1409   0.784   0.006   1.007  0.0257 -0.2193  0.3623
  313W        W 1410   7.391   2.108   1.544 -0.0010  0.1772 -0.0188
  314W        W 1411   5.535   5.938   7.279  0.1997 -0.2905  0.1771
  315W        W 1412   3.090   6.219   5.983 -0.0300  0.3021 -0.1824
  316W        W 1413   0.818   1.744   4.847  0.0667 -0.0490  0.0983
  317W        W 1414   0.499   0.944   7.159  0.0133  0.2512  0.1658
  318W        W 1415   3.968   2.768   1.858  0.0373  0.0163  0.0749
  319W        W 1416   6.850   7.277   5.421  0.0908  0.0401  0.1418
  320W        W 1417   0.903   2.223   1.898  0.0766 -0.2894  0.2569
  321W        W 1418   4.787   5.758   6.797  0.1331 -0.0820  0.0746
  322W        W 1419   7.371   2.680   3.733 -0.0881 -0.1618 -0.2269
  323W        W 1420   3.354   1.104   2.984  0.1495 -0.0670 -0.0663
  324W        W 1421   0.479   5.672   1.167  0.1551  0.1639 -0.3224
  325W        W 1422   7.474   4.575   0.890 -0.3015 -0.0523 -0.1875
  326W        W 1423   1.240   0.265   3.129 -0.1189  0.2148 -0.2149
  327W        W 1424   4.793   0.055   2.230  0.0850  0.2614 -0.0172
  328W        W 1425   4.167   0.693   5.746  0.2753  0.0698  0.0219
  329W        W 1426   6.908   5.663   1.256 -0.0578  0.1238 -0.0386
  330W        W 1427   0.994   5.481   1.256  0.1803  0.0808  0.0833
  331W        W 1428   5.893   6.394   0.920 -0.1666 -0.0022 -0.0526
  332W        W 1429   2.051   6.102   6.073  0.1958 -0.1664 -0.1521
  333W        W 1430   6.746   6.491   5.528 -0.3412  0.0477 -0.0267
  334W        W 1431   3.747   7.615   7.168  0.1268  0.0748 -0.0817
  335W        W 1432   3.934   1.246   6.052 -0.1098  0.1090 -0.2006
  336W        W 1433   3.939   6.201   6.988 -0.0239 -0.1738  0.2329
  337W        W 1434   4.094   0.801   3.257  0.1705 -0.0619 -0.1990
  338W        W 1435   6.144   7.420   5.928 -0.0934  0.3684 -0.0232
  339W        W 1436   6.886   2.574   2.798 -0.2000  0.0926 -0.1330
  340W        W 1437   0.869   3.196   0.999 -0.2724  0.0827  0.0828
  341W        W 1438   3.169   0.042   3.340 -0.1813  0.0384  0.0346
  342W        W 1439   0.985   3.110   1.458  0.1596  0.0115  0.0477
  343W        W 1440   2.331   3.913   2.764 -0.0523  0.0717 -0.2468
  344W        W 1441   5.549   2.042   2.733  0.2805 -0.3009 -0.0071
  345W        W 1442   5.038   6.311   0.062 -0.2818 -0.1236 -0.0629
  346W        W 1443   1.700   3.226   4.649 -0.1327  0.0355  0.0509
  347W        W 1444   5.187   6.719   7.034  0.1677 -0.1459 -0.3038
  348W        W 1445   2.237   2.227   4.150 -0.2162  0.0048  0.0083
  349W        W 1446   1.145   0.929   0.644 -0.1913  0.1459  0.3500
  350W        W 1447   7.505   4.037   1.782  0.0972  0.2753 -0.0802
  351W        W 1448   6.880   1.283   7.527  0.2572 -0.0474 -0.2966
  352W        W 1449   5.097   4.817   6.748  0.0722 -0.0962  0.0787
  353W        W 1450   2.152   1.090   5.108  0.2264  0.1342  0.1506
  354W        W 1451   3.595   7.409   3.149  0.0589  0.1239 -0.1821
  355W        W 1452   4.685   3.631   3.880 -0.0893  0.0167 -0.2871
  356W        W 1453   4.429   3.150   2.316 -0.1564  0.1713  0.1238
  357W        W 1454   4.228   1.163   0.622 -0.1187  0.0921 -0.0594
  358W        W 1455   7.017   4.521   1.216 -0.4214  0.1374 -0.1460
  359W        W 1456   1.098   5.065   1.013  0.1578  0.5702 -0.0986
  360W        W 1457   6.448   1.433   4.091 -0.4923  0.3642  0.1483
  361W        W 1458   2.922   3.671   4.059 -0.1779 -0.2327  0.0545
  362W        W 1459   1.820   7.147   0.489 -0.1711 -0.0664 -0.0274
  363W        W 1460   7.042   7.609   7.415  0.1257  0.0471  0.2402
  364W        W 1461   2.380   4.836   3.116 -0.1517 -0.2421 -0.2521
  365W        W 1462   5.312   3.127   1.742  0.0795  0.1835 -0.0651
  366W        W 1463   0.835   1.645   0.083  0.1229 -0.1404  0.0752
  367W        W 1464   7.275   4.862   5.912  0.2213 -0.1918  0.0407
  368W        W 1465   2.805   4.702   2.053  0.2799  0.0673  0.3061
  369W        W 1466   3.601   0.270   0.512 -0.0314 -0.0564  0.2594
  370W        W 1467   5.355   0.611   3.705 -0.0507 -0.4014  0.0248
  371W        W 1468   5.304   1.123   0.668  0.0841 -0.0415  0.2334
  372W        W 1469   3.092   1.710   5.677 -0.1264  0.2745 -0.2231
  373W        W 1470   5.095   1.384   2.320  0.0220  0.0226  0.0289
  374W        W 1471   2.172   4.289   3.094  0.0106  0.1251  0.0466
  375W        W 1472   5.659   5.165   4.030 -0.4860  0.2831  0.0269
  376W        W 1473   0.629   4.168   3.547  0.1025  0.3360 -0.0335
  377W        W 1474   4.610   4.238   0.442  0.4322 -0.0685  0.2024
  378W        W 1475   1.803   7.055   3.538  0.0054 -0.1053  0.0385
  379W        W 1476   3.353   4.632   0.519  0.1200 -0.1003  0.1171
  380W        W 1477   6.989   1.411   5.674  0.2659 -0.1929  0.0004
  381W        W 1478   5.952   6.681   7.565  0.1153  0.0289 -0.0761
  382W        W 1479   5.514   0.990   7.519  0.0290 -0.0541 -0.1319
  383W        W 1480   3.998   5.423   6.547 -0.3301  0.3920  0.0784
  384W        W 1481   7.131   0.232   1.447  0.0015 -0.3282 -0.1095
  385W        W 1482   5.298   3.974   4.437  0.3464  0.1120 -0.1807
  386W        W 1483   3.408   6.704   2.287 -0.1413  0.1553 -0.1312
  387W        W 1484   6.589   7.538   0.736  0.1325  0.0985  0.2284
  388W        W 1485   2.369   7.274   5.294 -0.0403 -0.0310 -0.1084
  389W        W 1486   1.956   5.881   7.068  0.3084  0.2580 -0.1684
  390W        W 1487   4.490   5.111   7.274 -0.0925 -0.3915 -0.0475
  391W        W 1488   6.357   0.190   6.553  0.1698  0.0153 -0.1147
  392W        W 1489   6.067   4.372   4.313  0.2119 -0.0467 -0.3701
  393W        W 1490   4.671   5.298   0.493 -0.2295  0.1121  0.0241
  394W        W 1491   7.207   7.397   3.837 -0.0229 -0.3403  0.0915
  395W        W 1492   0.330   1.782   7.489 -0.2107  0.3264 -0.1302
  396W        W 1493   1.846   1.906   6.093  0.1608 -0.2657 -0.2314
  397W        W 1494   7.242   4.574   7.117  0.3748 -0.0235 -0.4119
  398W        W 1495   1.937   4.573   7.335 -0.2548 -0.0756 -0.0377
  399W        W 1496   6.938   5.190   1.147  0.0387  0.1126  0.2073
  400W        W 1497   1.842   4.192   7.021 -0.0709  0.0996 -0.0482
  401W        W 1498   1.855   1.926   4.166  0.1029  0.0199 -0.0560
  402W        W 1499   0.484   1.804   3.923 -0.0523  0.2930 -0.0261
  403W        W 1500   4.432   6.062   5.943 -0.0930 -0.0322 -0.0365
  404W        W 1501   2.421   2.670   5.847 -0.4921 -0.3691  0.1915
  405W        W 1502   4.595   2.088   7.388 -0.1267 -0.2547 -0.0470
  406W        W 1503   5.019   4.385   5.286 -0.1402 -0.0346 -0.5009
  407W        W 1504   4.478   3.662   0.403 -0.0952 -0.2745 -0.1986
  408W        W 1505   1.479   2.823   5.942  0.0215  0.2986 -0.2594
  409W        W 1506   5.610   4.364   4.489  0.4544  0.2561  0.3747
  410W        W 1507   4.196   5.681   2.950 -0.1302  0.2878  0.2625
  411W        W 1508   3.794   6.386   1.612  0.2668  0.0177  0.1878
  412W        W 1509   1.028   1.327   1.734  0.0649  0.0135 -0.0081
  413W        W 1510   1.231   2.718   1.275  0.3915 -0.0193 -0.4094
  414W        W 1511   5.703   0.930   3.902 -0.1860  0.2232  0.0534
  415W        W 1512   7.317   5.676   0.421 -0.4669 -0.0004  0.0631
  416W        W 1513   3.423   6.128   0.426 -0.1905  0.0236  0.1031
  417W        W 1514   0.011   3.206   5.597  0.0309  0.0348  0.1306
  418W        W 1515   2.775   1.012   4.991  0.2461  0.0965 -0.1718
  419W        W 1516   2.601   0.529   4.069  0.1504  0.0727 -0.3045
  420W        W 1517   5.630   1.497   7.314  0.0696 -0.0686  0.0416
  421W        W 1518   5.365   4.497   7.085  0.1843  0.1639 -0.0003
  422W        W 1519   6.325   6.352   1.208  0.0375 -0.1895 -0.0450
  423W        W 1520   1.177   0.626   3.859 -0.2431 -0.3508  0.1845
  424W        W 1521   6.262   4.873   0.107 -0.2107 -0.3336 -0.0892
  425W        W 1522   1.003   6.009   5.054  0.2955  0.3168  0.1029
  426W        W 1523   6.399   1.752   3.062  0.5323  0.0924 -0.2210
  427W        W 1524   6.818   1.290   4.909 -0.0664  0.0964  0.2225
  428W        W 1525   2.944   1.412   0.442  0.0585 -0.0427  0.1046
  429W        W 1526   1.823   0.349   3.479  0.2531  0.0979  0.4184
  430W        W 1527   2.323   1.830   6.115 -0.0734 -0.3511 -0.0618
  431W        W 1528   1.038   5.126   4.286  0.0585  0.4571  0.2252
  432W        W 1529   4.930   1.698   4.855  0.2816  0.0840  0.0860
  433W        W 1530   2.859   3.254   3.689  0.0421  0.0455 -0.2215
  434W        W 1531   7.319   2.207   1.063 -0.1826  0.1789  0.0712
  435W        W 1532   1.094   4.109   2.527 -0.1679 -0.0077  0.0747
  436W        W 1533   2.514   0.040   6.088 -0.0902  0.1905 -0.1309
  437W        W 1534   3.977   6.130   3.026  0.0570 -0.2311 -0.1983
  438W        W 1535   7.203   1.173   7.152 -0.1965  0.1864 -0.1164
  439W        W 1536   0.373   3.790   1.787 -0.1722 -0.1747  0.2474
  440W        W 1537   2.981   7.636   4.701 -0.0965  0.1103 -0.3975
  441W        W 1538   4.124   7.284   6.616 -0.0234  0.4731  0.2265
  442W        W 1539   7.269   0.264   2.426 -0.0959  0.0236 -0.3299
  443W        W 1540   3.975   7.211   3.895 -0.0340 -0.4289 -0.2446
  444W        W 1541   0.137   4.337   7.221  0.3608  0.3473 -0.3096
  445W        W 1542   5.975   0.007   7.524 -0.1196 -0.0384 -0.0204
  446W        W 1543   7.223   3.861   0.419  0.0625 -0.0677  0.3106
  447W        W 1544   5.986   6.015   4.529 -0.0754  0.1344  0.0331
  448W        W 1545   3.741   0.527   6.737  0.1433 -0.0119 -0.2047
  449W        W 1546   6.770   4.887   0.306 -0.0118  0.0313  0.5744
  450W        W 1547   5.532   6.248   6.857  0.3468  0.2642 -0.0151
  451W        W 1548   2.647   2.266   6.188 -0.0594  0.1165 -0.3269
  452W        W 1549   1.121   6.679   5.727 -0.2762 -0.0574 -0.0926
  453W        W 1550   6.922   3.034   4.593  0.0975 -0.0776  0.0210
  454W        W 1551   5.421   1.364   3.950 -0.0409 -0.0404  0.0723
  455W        W 1552   1.272   0.774   6.291 -0.3381  0.1785 -0.1804
  456W        W 1553   7.621   4.292   4.872  0.1083 -0.0193  0.1369
  457W        W 1554   3.856   0.185   3.307  0.0121  0.1256 -0.0798
  458W        W 1555   7.469   3.771   4.671  0.0231  0.2010 -0.1285
  459W        W 1556   6.528   0.149   4.353  0.1983  0.2089 -0.0595
  460W        W 1557   1.607   0.595   4.434  0.0366  0.0125 -0.0417
  461W        W 1558   2.871   6.759   1.732 -0.1231 -0.0252  0.1883
  462W        W 1559   3.666   6.223   3.503 -0.1882 -0.0201 -0.3627
  463W        W 1560   1.081   6.496   7.353  0.3430 -0.0969  0.2458
  464W        W 1561   6.231   1.570   0.401  0.0440  0.1795  0.0052
  465W        W 1562   1.595   6.117   2.772 -0.1013  0.2821 -0.0230
  466W        W 1563   3.551   4.914   3.331 -0.4169 -0.2105  0.1236
  467W        W 1564   0.856   0.950   2.543  0.2554  0.4162 -0.0340
  468W        W 1565   2.958   5.185   1.165 -0.1949  0.3566 -0.4955
  469W        W 1566   5.727   5.465   6.570  0.1837  0.3631  0.1416
  470W        W 1567   6.128   5.709   0.320 -0.0435  0.0955 -0.0118
  471W        W 1568   7.634   7.159   3.073  0.1710  0.0087  0.0449
  472W        W 1569   1.870   2.156   2.361 -0.0965  0.2780  0.2832
  473W        W 1570   6.201   5.081   0.647  0.2633 -0.0157 -0.2528
  474W        W 1571   1.258   7.558   4.578  0.0555  0.1225 -0.0201
  475W        W 1572   7.219   6.418   5.322 -0.3111  0.0476 -0.1675
  476W        W 1573   0.826   6.821   1.399 -0.1619  0.0300  0.1624
  477W        W 1574   7.003   4.541   7.604 -0.1452 -0.0122 -0.1209
  478W        W 1575   4.116   1.568   4.094 -0.2609 -0.1104 -0.0906
  479W        W 1576   2.841   5.768   6.653 -0.1314  0.3371 -0.0425
  480W        W 1577   5.865   4.833   5.475 -0.0258 -0.1129 -0.0545
  481W        W 1578   0.386   7.573   6.846  0.0721 -0.1063  0.2395
  482W        W 1579   1.109   4.517   2.849  0.1587 -0.0615 -0.0604
  483W        W 1580   3.711   5.827   7.224 -0.0322  0.0435  0.1098
  484W        W 1581   3.088   0.216   1.855  0.1038 -0.0714 -0.1101
  485W        W 1582   0.137   1.990   1.108 -0.1779  0.0429  0.2538
  486W        W 1583   6.588   0.654   6.517  0.3807 -0.1128  0.1161
  487W        W 1584   7.451   7.045   3.570 -0.0589  0.0700  0.0638
  488W        W 1585   7.049   2.250   4.679 -0.0710  0.2500 -0.2431
  489W        W 1586   4.189   6.255   7.410  0.1817 -0.0010  0.0384
  490W        W 1587   1.256   3.480   0.673  0.0664  0.0620  0.1832
  491W        W 1588   0.811   6.444   2.312  0.0759 -0.0750  0.4615
  492W        W 1589   2.902   1.071   6.318  0.2237 -0.4083  0.0170
  493W        W 1590   6.313   2.312   2.408  0.1010 -0.2133  0.1710
  494W        W 1591   5.730   4.210   6.929 -0.3151  0.1759  0.0086
  495W        W 1592   2.559   2.720   4.287  0.1732 -0.3480 -0.2058
  496W        W 1593   0.380   0.814   2.641 -0.0707 -0.1349 -0.0274
  497W        W 1594   3.340   3.386   4.988 -0.2513 -0.0565 -0.2669
  498W        W 1595   6.088   7.014   4.584  0.0818  0.2209 -0.0699
  499W        W 1596   1.146   0.928   3.433 -0.0584 -0.1598  0.0777
  500W        W 1597   7.440   5.899   2.764 -0.2881  0.2647  0.1379
  501W        W 1598   0.801   3.781   6.867 -0.1508  0.2842  0.0924
  502W        W 1599   1.037   0.363   4.645 -0.2406  0.1372  0.1308
  503W        W 1600   4.247   6.364   4.855  0.1370 -0.2943 -0.0278
  504W        W 1601   3.346   0.122   1.416 -0.1139 -0.0565 -0.0884
  505W        W 1602   5.193   0.040   1.849  0.0299  0.0252 -0.0024
  506W        W 1603   2.222   6.753   5.385  0.1421 -0.1769  0.0593
  507W        W 1604   2.971   2.184   5.844  0.1048  0.2851 -0.0457
  508W        W 1605   0.412   6.039   3.531  0.2013  0.1311 -0.0604
  509W        W 1606   0.346   5.214   1.954  0.0018 -0.2704  0.0022
  510W        W 1607   6.629   6.519   3.708 -0.0263  0.0152  0.2609
  511W        W 1608   5.339   5.386   4.989  0.1011  0.0475  0.0588
  512W        W 1609   4.427   6.447   3.043 -0.3172  0.0424  0.0249
  513W        W 1610   1.167   6.587   2.656  0.0192  0.1877  0.0975
  514W        W 1611   6.603   6.703   6.006 -0.1289  0.0117  0.3172
  515W        W 1612   0.998   5.449   7.033  0.2398  0.3373 -0.1034
  516W        W 1613   0.017   5.026   1.586  0.0964 -0.0356 -0.0956
  517W        W 1614   2.168   3.664   0.608  0.0663 -0.1458  0.1363
  518W        W 1615   4.146   0.891   2.462 -0.0042  0.2023  0.0486
  519W        W 1616   3.839   7.154   0.875 -0.1669  0.0808  0.1792
  520W        W 1617   7.092   3.310   6.687  0.0878  0.0281 -0.1754
  521W        W 1618   4.238   0.481   6.590 -0.0976  0.0224  0.1031
  522W        W 1619   4.998   0.367   4.105 -0.0149  0.0843 -0.0444
  523W        W 1620   1.660   2.383   1.219 -0.2457  0.1137 -0.0507
  524W        W 1621   1.700   7.361   2.530  0.2786 -0.0007 -0.1613
  525W        W 1622   3.919   1.166   2.039  0.1790 -0.0013 -0.2830
  526W        W 1623   3.594   0.655   3.222  0.0502 -0.0055  0.0214
  527W        W 1624   0.052   4.095   5.936  0.0310  0.3072  0.0078
  528W        W 1625   0.433   7.246   4.902  0.0714  0.1718  0.3538
  529W        W 1626   0.736   6.442   6.865 -0.2197  0.1422  0.0769
  530W        W 1627   5.043   6.931   7.449 -0.2440 -0.2619  0.0296
  531W        W 1628   7.339   1.065   6.640 -0.1206 -0.3341 -0.0261
  532W        W 1629   4.413   0.117   2.591  0.1360 -0.3277 -0.1805
  533W        W 1630   5.546   5.714   5.252 -0.0261  0.0997 -0.2125
  534W        W 1631   1.061   4.358   3.340  0.0300  0.1008 -0.1782
  535W        W 1632   2.539   7.085   6.137  0.0347  0.0193  0.0555
  536W        W 1633   5.833   7.203   7.281 -0.0010 -0.1090  0.0294
  537W        W 1634   0.437   2.330   2.296 -0.0213  0.2170 -0.2347
  538W        W 1635   3.695   6.653   6.963 -0.2461  0.0908  0.1149
  539W        W 1636   2.931   0.902   0.706 -0.0237 -0.3670 -0.1070
  540W        W 1637   0.735   6.730   0.622  0.1477 -0.2407  0.0771
  541W        W 1638   0.023   3.566   4.184  0.2979 -0.5536  0.4256
  542W        W 1639   4.226   6.673   7.063  0.0883 -0.1234 -0.2665
  543W        W 1640   0.951   3.635   2.746 -0.0343 -0.0989  0.3800
  544W        W 1641   6.557   1.135   7.121 -0.1303  0.1340  0.1559
  545W        W 1642   1.778   7.186   6.765  0.1403 -0.2967 -0.1056
  546W        W 1643   7.227   1.592   0.952  0.0669  0.1017  0.3591
  547W        W 1644   6.541   0.578   0.366  0.0881 -0.2960 -0.0175
  548W        W 1645   3.000   2.374   0.340 -0.0684  0.1020 -0.0397
  549W        W 1646   5.220   0.180   7.136  0.3200  0.1737  0.0859
  550W        W 1647   3.430   1.671   0.485 -0.1940  0.1814  0.2762
  551W        W 1648   6.757   5.906   6.534  0.2799  0.1474 -0.0647
  552W        W 1649   0.363   0.034   2.296  0.1611 -0.4932  0.0604
  553W        W 1650   4.011   1.906   1.849  0.3125 -0.1804  0.3442
  554W        W 1651   4.635   5.934   4.980 -0.2803 -0.0437 -0.2114
  555W        W 1652   5.324   7.056   1.635 -0.0792 -0.2947  0.2861
  556W        W 1653   0.969   7.119   0.881 -0.0533  0.1349  0.1693
  557W        W 1654   5.714   0.250   3.021 -0.1324  0.1180  0.0012
  558W        W 1655   0.630   5.279   2.967  0.0781 -0.3485  0.0661
  559W        W 1656   0.339   2.278   6.474 -0.2386  0.3372 -0.0755
  560W        W 1657   6.849   1.292   0.812 -0.4390 -0.0241  0.4606
  561W        W 1658   1.700   6.664   2.798  0.0363 -0.0162  0.4018
  562W        W 1659   7.101   0.427   6.575 -0.0153 -0.3174  0.1185
  563W        W 1660   0.674   5.920   4.643  0.1246  0.1013  0.0691
  564W        W 1661   3.750   2.586   6.791  0.1366 -0.1480  0.0003
  565W        W 1662   2.014   3.041   6.509 -0.0712  0.2049 -0.2366
  566W        W 1663   2.487   3.519   3.016  0.1258 -0.0005  0.2949
  567W        W 1664   5.922   4.448   5.851 -0.2585  0.0776 -0.2037
  568W        W 1665   3.245   5.655   6.926 -0.4187 -0.1946  0.1766
  569W        W 1666   1.040   5.008   7.276 -0.1277  0.3873 -0.0231
  570W        W 1667   1.474   2.783   4.583 -0.2793  0.3379  0.0918
  571W        W 1668   2.269   2.500   4.995 -0.0532  0.0399 -0.2100
  572W        W 1669   5.974   5.672   4.868 -0.0597  0.0815 -0.0392
  573W        W 1670   7.101   3.644   5.425 -0.2020  0.0423 -0.1276
  574W        W 1671   2.117   2.851   0.535 -0.0546  0.0979 -0.0376
  575W        W 1672   4.352   1.520   0.131  0.1329 -0.1739 -0.3486
  576W        W 1673   4.799   1.137   7.035 -0.0847 -0.0079  0.3211
  577W        W 1674   4.252   3.194   1.720  0.2148 -0.3425  0.0620
  578W        W 1675   1.054   2.635   6.158  0.0192  0.3168 -0.0893
  579W        W 1676   2.630   6.297   0.715 -0.1084  0.1532 -0.1009
  580W        W 1677   4.951   6.912   0.700  0.1588  0.0233 -0.1219
  581W        W 1678   5.421   7.572   7.561 -0.2903  0.1178  0.0563
  582W        W 1679   4.041   3.296   4.580  0.0932  0.3872  0.1916
  583W        W 1680   2.054   6.777   2.448 -0.3791  0.2237  0.0961
  584W        W 1681   1.437   3.084   5.133 -0.1127 -0.1399 -0.0337
  585W        W 1682   0.283   1.826   6.805  0.0876 -0.1927 -0.1203
  586W        W 1683   2.382   4.071   3.672  0.1618 -0.2134  0.2424
  587W        W 1684   6.695   6.702   7.079 -0.2472 -0.1400  0.2877
  588W        W 1685   4.207   2.550   5.237  0.0976  0.1233 -0.3091
  589W        W 1686   3.912   4.918   4.135 -0.0287  0.0267 -0.0215
  590W        W 1687   0.534   6.540   1.004  0.2065  0.0512  0.0250
  591W        W 1688   5.524   0.216   1.514 -0.2777  0.0705  0.0894
  592W        W 1689   0.221   6.368   6.775  0.2008  0.0569  0.0925
  593W        W 1690   3.401   2.756   3.200  0.3096 -0.3888  0.0562
  594W        W 1691   5.087   3.155   4.899 -0.2298 -0.2493 -0.2702
  595W        W 1692   4.012   0.084   5.085 -0.1565 -0.0638  0.0196
  596W        W 1693   4.428   6.706   2.215  0.0270  0.0363 -0.0281
  597W        W 1694   0.719   7.224   7.215  0.3769  0.1591 -0.1032
  598W        W 1695   0.045   3.310   3.266 -0.0885  0.0686  0.2001
  599W        W 1696   5.033   1.994   1.785 -0.0473  0.0574 -0.0272
  600W        W 1697   6.528   0.172   2.985  0.1247 -0.3127  0.1668
  601W        W 1698   2.241   4.368   2.530  0.0187  0.2068  0.2378
  602W        W 1699   3.359   1.808   5.085  0.4149  0.0667 -0.0545
  603W        W 1700   4.729   5.951   7.494 -0.0342  0.3330 -0.2100
  604W        W 1701   0.609   2.886   4.950  0.0052 -0.1400 -0.1987
  605W        W 1702   7.487   0.627   1.308 -0.2719 -0.5097 -0.0440
  606W        W 1703   4.508   0.301   6.981  0.1030  0.0907 -0.1000
  607W        W 1704   6.275   6.760   4.201  0.1701 -0.1030 -0.0667
  608W        W 1705   2.897   0.194   2.414  0.0526 -0.1895 -0.1299
  609W        W 1706   0.128   6.327   2.750 -0.2677  0.0481  0.1115
  610W        W 1707   2.701   7.124   1.067 -0.0178  0.0621  0.2613
  611W        W 1708   1.515   4.638   7.010 -0.0144 -0.1146  0.1939
  612W        W 1709   6.163   1.116   3.547 -0.0591  0.0858 -0.2202
  613W        W 1710   3.738   4.650   1.921  0.0420 -0.1271  0.1320
  614W        W 1711   4.394   1.629   6.133 -0.0336 -0.3303 -0.2923
  615W        W 1712   0.621   1.298   6.588  0.1043  0.3631  0.1873
  616W        W 1713   0.810   5.458   6.555  0.2866  0.1352 -0.1085
  617W        W 1714   7.567   6.641   3.237  0.3452 -0.0529  0.1000
  618W        W 1715   7.537   0.701   6.359  0.4388  0.0120  0.3214
  619W        W 1716   6.456   1.563   6.756 -0.1564 -0.0062 -0.3135
  620W        W 1717   6.073   0.605   2.974 -0.0816 -0.0298  0.1316
  621W        W 1718   3.876   0.258   5.831  0.3593 -0.3005 -0.0084
  622W        W 1719   1.944   1.300   2.164 -0.1445  0.1549  0.1023
  623W        W 1720   3.292   7.182   3.527  0.0429 -0.0326  0.2052
  624W        W 1721   2.773   5.071   1.655  0.1959  0.0261  0.0592
  625W        W 1722   1.080   0.297   1.743 -0.0189  0.1349 -0.0932
  626W        W 1723   7.427   5.698   7.043 -0.0516  0.2132 -0.0852
  627W        W 1724   6.995   1.704   2.433 -0.1491 -0.2107  0.1554
  628W        W 1725   3.594   5.489   1.116 -0.2766 -0.1184  0.0387
  629W        W 1726   1.233   4.009   3.004  0.2675 -0.0291  0.0899
  630W        W 1727   0.885   4.855   3.232 -0.1591 -0.3245  0.1066
  631W        W 1728   5.201   2.605   2.535  0.0711  0.0059 -0.1621
  632W        W 1729   4.599   5.356   4.178 -0.2438  0.0647 -0.2486
  633W        W 1730   5.111   6.770   0.297 -0.1729 -0.0547 -0.1389
  634W        W 1731   3.394   7.004   6.658 -0.1111  0.2003 -0.0525
  635W        W 1732   4.672   2.253   3.184 -0.2214  0.1252 -0.2205
  636W        W 1733   3.617   0.621   1.262 -0.1122  0.0710  0.0129
  637W        W 1734   0.116   3.354   3.757  0.0594 -0.3352 -0.2802
  638W        W 1735   2.764   5.205   0.445  0.0666  0.2701  0.0139
  639W        W 1736   0.839   3.703   6.092 -0.4936  0.1208  0.1446
  640W        W 1737   4.181   1.180   1.616  0.0492  0.1516 -0.1060
  641W        W 1738   0.117   6.784   4.657 -0.0115 -0.1376  0.0112
  642W        W 1739   7.507   1.672   2.661  0.0870 -0.0076 -0.0319
  643W        W 1740   1.030   1.983   3.768 -0.1206 -0.1007  0.0752
  644W        W 1741   4.851   5.867   1.829 -0.2061  0.2062  0.1447
  645W        W 1742   1.941   0.072   1.899  0.0996 -0.2390 -0.3483
  646W        W 1743   4.114   0.762   4.114  0.0945 -0.0534 -0.0366
  647W        W 1744   6.078   6.581   3.709 -0.0559  0.2446  0.0437
  648W        W 1745   3.006   2.542   7.012 -0.3507  0.0365 -0.2045
  649W        W 1746   1.511   5.691   5.924 -0.3911 -0.0872  0.1504
  650W        W 1747   4.956   3.519   0.238  0.1674  0.2219  0.2593
  651W        W 1748   0.103   4.321   3.525  0.0685 -0.0366 -0.1943
  652W        W 1749   4.995   2.149   2.845  0.1264  0.2140  0.3007
  653W        W 1750   1.689   1.486   0.099  0.0713  0.1644 -0.5870
  654W        W 1751   2.373   7.621   4.940 -0.0875 -0.0521  0.1546
  655W        W 1752   2.612   3.541   1.001  0.1747 -0.0941 -0.0802
  656W        W 1753   4.290   2.349   5.688 -0.2439  0.0133 -0.0545
  657W        W 1754   6.764   2.178   2.431  0.2225 -0.3125  0.0952
  658W        W 1755   5.905   6.772   2.489  0.1064 -0.1886 -0.0018
  659W        W 1756   1.263   1.889   0.884 -0.0253 -0.0236 -0.2130
  660W        W 1757   1.022   7.484   4.015  0.0680  0.1558  0.0590
  661W        W 1758   2.216   4.196   0.296  0.0869 -0.2583 -0.0518
  662W        W 1759   3.248   5.416   3.867  0.3159  0.4183 -0.1471
  663W        W 1760   6.345   7.307   1.220  0.2288 -0.2070  0.0740
  664W        W 1761   1.437   5.424   3.602  0.2350  0.0660 -0.0497
  665W        W 1762   2.795   1.316   4.168 -0.1154  0.3826  0.1128
  666W        W 1763   3.980   4.920   4.664 -0.1460 -0.1934 -0.2499
  667W        W 1764   0.113   5.391   7.418 -0.1903 -0.0470  0.1940
  668W        W 1765   1.357   0.849   5.704  0.0975 -0.0506 -0.0828
  669W        W 1766   4.230   4.196   0.719  0.0921 -0.3541 -0.0896
  670W        W 1767   6.761   4.028   6.644 -0.0246  0.0024  0.3984
  671W        W 1768   1.998   0.277   0.038 -0.0335  0.2463 -0.0884
  672W        W 1769   0.843   2.192   4.186  0.0085 -0.2399 -0.0964
  673W        W 1770   4.330   2.998   0.950 -0.1019  0.1302  0.2407
  674W        W 1771   2.237   3.108   6.074  0.0806  0.3076  0.0290
  675W        W 1772   5.775   3.828   4.681 -0.2496  0.2280 -0.0421
  676W        W 1773   0.906   2.823   3.250  0.0524  0.1055 -0.2029
  677W        W 1774   5.826   2.107   4.533 -0.1471  0.0509 -0.2003
  678W        W 1775   3.699   3.927   1.430  0.0648 -0.1937 -0.1054
  679W        W 1776   4.619   7.573   1.122  0.1248 -0.2325  0.1346
  680W        W 1777   6.627   7.150   6.741 -0.2204 -0.0887 -0.1131
  681W        W 1778   1.778   6.737   1.194  0.2161  0.4175  0.0092
  682W        W 1779   6.484   1.986   1.563 -0.1002  0.2761 -0.2418
  683W        W 1780   3.246   0.829   4.781  0.0347  0.0734  0.1335
  684W        W 1781   7.553   1.577   0.223 -0.1783  0.0853 -0.2774
  685W        W 1782   3.998   2.400   2.627 -0.2750  0.0953 -0.1854
  686W        W 1783   2.828   2.327   4.135  0.0825  0.0593 -0.2762
  687W        W 1784   4.499   6.515   0.910 -0.0373  0.1551 -0.1597
  688W        W 1785   5.314   6.615   1.428  0.0313 -0.1284  0.2409
  689W        W 1786   5.665   5.992   2.056  0.0841  0.1046  0.0609
  690W        W 1787   2.779   5.820   0.599 -0.2251  0.1607 -0.4592
  691W        W 1788   0.440   5.197   3.415  0.1584  0.2826 -0.1597
  692W        W 1789   2.226   7.171   1.720 -0.2794  0.3316 -0.0303
  693W        W 1790   2.615   0.650   2.394  0.0106  0.1309 -0.1469
  694W        W 1791   6.903   0.626   4.751  0.0003 -0.2778 -0.2018
  695W        W 1792   4.043   0.110   1.402  0.0730  0.0474 -0.0436
  696W        W 1793   6.930   4.277   5.258  0.1217 -0.3472  0.0555
  697W        W 1794   0.192   5.421   6.414 -0.1206  0.0087  0.0836
  698W        W 1795   5.517   0.589   5.903 -0.0933  0.1602  0.0485
  699W        W 1796   6.836   2.177   0.234 -0.0459 -0.2596 -0.0880
  700W        W 1797   6.276   4.824   7.115 -0.0225 -0.0502  0.0064
  701W        W 1798   0.118   3.245   2.015  0.1149  0.1664  0.2588
  702W        W 1799   6.803   4.780   7.046  0.1150  0.0041 -0.3556
  703W        W 1800   1.187   7.340   2.414  0.0879  0.0272  0.1856
  704W        W 1801   4.355   6.715   5.186  0.0861 -0.3123 -0.0726
  705W        W 1802   6.816   7.610   1.184  0.2585 -0.0571 -0.0595
  706W        W 1803   0.911   5.954   7.130  0.0769 -0.1064  0.0949
  707W        W 1804   1.048   5.732   6.134  0.2898 -0.1343 -0.0663
  708W        W 1805   7.400   7.508   1.707  0.1697  0.1770 -0.3001
  709W        W 1806   4.708   1.770   1.163 -0.2293  0.1367 -0.0461
  710W        W 1807   4.389   4.081   4.668 -0.0116  0.1218  0.2222
  711W        W 1808   4.146   1.756   6.586  0.0842  0.2522  0.0228
  712W        W 1809   3.949   0.051   2.832  0.1044  0.0602  0.0824
  713W        W 1810   3.374   0.913   6.178  0.0121  0.1348  0.1182
  714W        W 1811   0.295   3.106   6.522  0.0951  0.2346 -0.1349
  715W        W 1812   0.770   3.268   4.570 -0.3499 -0.1260 -0.0069
  716W        W 1813   0.201   6.705   1.358 -0.0831  0.3549  0.3361
  717W        W 1814   3.362   4.955   1.724  0.0568  0.1988  0.0087
  718W        W 1815   2.017   1.219   6.824  0.0218  0.1575  0.3405
  719W        W 1816   1.210   7.382   7.374 -0.0976  0.1978  0.0947
  720W        W 1817   0.127   7.535   1.312 -0.2163  0.0601  0.2414
  721W        W 1818   0.952   0.535   0.926  0.1544 -0.0962 -0.2011
  722W        W 1819   5.151   3.474   0.780 -0.1539 -0.1760 -0.0364
  723W        W 1820   0.337   1.049   3.187  0.2279  0.0503  0.2076
  724W        W 1821   5.695   7.246   5.830  0.0758  0.0516 -0.3888
  725W        W 1822   7.362   1.170   6.121 -0.0169  0.2520 -0.2770
  726W        W 1823   6.003   1.835   2.295 -0.2293  0.0719 -0.1166
  727W        W 1824   0.597   1.418   7.089  0.3489 -0.1369  0.2936
  728W        W 1825   2.403   6.429   1.744 -0.1188  0.0735 -0.3526
  729W        W 1826   5.655   4.906   6.931  0.0452 -0.2091 -0.0645
  730W        W 1827   0.418   2.295   0.784 -0.1254  0.1810  0.0985
  731W        W 1828   2.501   1.408   6.311 -0.1110  0.3133  0.0156
  732W        W 1829   0.022   7.480   5.101 -0.1172  0.1239  0.0158
  733W        W 1830   3.004   7.084   2.138  0.0415 -0.2418  0.1016
  734W        W 1831   3.514   4.293   4.404 -0.3588  0.0164  0.0261
  735W        W 1832   5.697   0.019   7.082  0.1441 -0.1248  0.1690
  736W        W 1833   2.746   1.695   7.249  0.0319  0.1289 -0.2883
  737W        W 1834   0.536   3.099   0.497  0.2498  0.1181 -0.1411
  738W        W 1835   0.856   0.582   1.420  0.0418 -0.1412 -0.0175
  739W        W 1836   4.248   5.319   1.349  0.0999 -0.1946  0.2184
  740W        W 1837   4.986   1.210   2.974 -0.1506  0.5359 -0.0529
  741W        W 1838   6.183   0.097   0.359  0.0571  0.0858 -0.0234
  742W        W 1839   3.251   4.577   3.468  0.0046  0.0378 -0.1757
  743W        W 1840   2.090   3.111   0.932 -0.1657  0.1175 -0.3512
  744W        W 1841   7.418   3.058   6.438 -0.1860  0.0333  0.1084
  745W        W 1842   7.587   2.062   0.039  0.1095 -0.1745 -0.2275
  746W        W 1843   6.801   6.811   4.230  0.5255 -0.0764 -0.2667
  747W        W 1844   0.185   4.938   7.585  0.1014  0.2077  0.2601
  748W        W 1845   0.786   3.665   4.947  0.2575  0.1048 -0.1615
  749W        W 1846   4.800   2.844   3.798 -0.0354 -0.2137 -0.0944
  750W        W 1847   4.400   4.890   4.105 -0.1575  0.0310 -0.1871
  751W        W 1848   4.625   6.054   3.753  0.1193  0.0838 -0.1694
  752W        W 1849   0.760   0.070   7.208 -0.2547 -0.2397  0.0914
  753W        W 1850   0.833   3.833   3.945 -0.1972  0.0085  0.2173
  754W        W 1851   1.182   6.370   2.001  0.4393 -0.1747 -0.0534
  755W        W 1852   2.404   0.712   0.487 -0.2351 -0.1743 -0.3185
  756W        W 1853   1.884   4.100   0.858 -0.0941 -0.1595 -0.1447
  757W        W 1854   4.350   2.060   5.204  0.0526 -0.2624  0.0847
  758W        W 1855   0.921   3.684   1.049 -0.2731  0.1830 -0.2151
  759W        W 1856   4.022   2.240   1.460 -0.1918  0.1487 -0.0425
  760W        W 1857   5.363   5.001   4.594  0.0897 -0.1248 -0.0568
  761W        W 1858   5.236   5.855   0.046  0.0506 -0.1139 -0.2397
  762W        W 1859   0.918   0.954   2.034  0.1781  0.0425  0.0248
  763W        W 1860   1.045   3.819   3.484 -0.0412 -0.0244  0.1514
  764W        W 1861   0.204   0.425   5.130 -0.1090  0.0769  0.2453
  765W        W 1862   1.843   6.902   1.634  0.1995 -0.0999 -0.1479
  766W        W 1863   4.790   7.449   4.831  0.2578 -0.1605 -0.2134
  767W        W 1864   1.048   6.539   4.903 -0.1763  0.2782 -0.2189
  768W        W 1865   2.688   5.126   2.859  0.2841  0.1353 -0.0351
  769W        W 1866   6.820   6.215   4.056 -0.1033 -0.0487  0.0483
  770W        W 1867   6.794   1.965   4.335  0.2290 -0.1963 -0.0284
  771W        W 1868   0.226   7.358   3.490  0.0195  0.0166  0.2911
  772W        W 1869   5.429   0.109   2.320 -0.0869  0.0554  0.0529
  773W        W 1870   1.840   3.519   0.950 -0.0685 -0.0501 -0.3248
  774W        W 1871   2.356   5.756   5.831  0.3315 -0.2036  0.0117
  775W        W 1872   5.222   7.070   1.107  0.1085 -0.0133 -0.0448
  776W        W 1873   5.381   2.414   1.756 -0.1113 -0.0733  0.0511
  777W        W 1874   0.417   5.498   4.709 -0.2304 -0.0789 -0.3592
  778W        W 1875   3.810   3.282   1.316 -0.2944 -0.0487  0.0420
  779W        W 1876   1.734   5.383   0.621 -0.2677 -0.0314 -0.1072
  780W        W 1877   0.550   6.414   7.323  0.2812  0.0101 -0.1909
  781W        W 1878   1.591   3.316   1.969 -0.3386  0.0128 -0.1346
  782W        W 1879   2.264   3.383   2.593  0.1047 -0.2851  0.2373
  783W        W 1880   0.215   5.466   0.685 -0.0450  0.0434 -0.1556
  784W        W 1881   1.216   0.888   0.137 -0.5465  0.0850 -0.1438
  785W        W 1882   5.173   7.061   5.527  0.4090 -0.2403 -0.1427
  786W        W 1883   5.390   6.175   5.760 -0.0038  0.4165 -0.0399
  787W        W 1884   4.622   4.528   4.692  0.0828 -0.1178 -0.0054
  788W        W 1885   1.218   1.793   1.896  0.1783 -0.1301  0.1085
  789W        W 1886   3.263   1.213   5.739  0.3142 -0.1375  0.1351
  790W        W 1887   4.791   0.021   4.364 -0.3366  0.0469  0.1976
  791W        W 1888   5.497   5.867   6.235 -0.0086 -0.0199  0.0771
  792W        W 1889   2.169   2.247   6.329 -0.0371 -0.0564  0.3281
  793W        W 1890   4.921   4.147   4.850 -0.4106 -0.0750 -0.0118
  794W        W 1891   5.003   1.051   3.688 -0.0996 -0.0849  0.4182
  795W        W 1892   1.512   0.338   4.842  0.0077  0.1308  0.3319
  796W        W 1893   2.820   5.501   2.461 -0.0339 -0.3957 -0.4411
  797W        W 1894   6.769   2.296   7.385  0.1835 -0.4917  0.2161
  798W        W 1895   2.523   6.747   5.743 -0.0691 -0.1804  0.0164
  799W        W 1896   1.643   5.863   1.361 -0.0094 -0.1785  0.0174
  800W        W 1897   7.013   0.066   4.360  0.0590 -0.0155  0.1185
  801W        W 1898   3.260   1.537   1.330  0.1836 -0.3086 -0.1324
  802W        W 1899   5.626   6.616   3.419 -0.2595 -0.0971 -0.1797
  803W        W 1900   1.377   2.740   3.348 -0.2712  0.1981 -0.0255
  804W        W 1901   3.398   6.644   3.703 -0.1697 -0.3191  0.1172
  805W        W 1902   0.969   6.828   7.048  0.0527 -0.1342 -0.3133
  806W        W 1903   0.043   7.031   2.016 -0.3175  0.1683 -0.1853
  807W        W 1904   2.007   0.287   4.745  0.0906  0.0272  0.1344
  808W        W 1905   0.675   2.583   1.563  0.1463  0.0747 -0.0437
  809W        W 1906   1.880   1.771   1.959 -0.0135 -0.3253 -0.0830
  810W        W 1907   5.830   0.767   1.983  0.0463 -0.2958  0.2218
  811W        W 1908   1.972   6.708   6.695 -0.0525  0.3168  0.0723
  812W        W 1909   4.624   1.794   2.710 -0.1383 -0.0020 -0.2786
  813W        W 1910   6.946   1.582   7.051  0.2793  0.2350 -0.0624
  814W        W 1911   2.109   2.573   6.695 -0.2951 -0.1674 -0.1153
  815W        W 1912   6.585   6.407   4.455  0.3485  0.0196 -0.1193
  816W        W 1913   6.460   6.106   1.921 -0.0100 -0.1268  0.0938
  817W        W 1914   7.303   3.988   5.115  0.0960 -0.3004  0.0728
  818W        W 1915   0.960   7.080   1.888 -0.1049 -0.1034  0.1796
  819W        W 1916   0.722   2.713   2.779  0.0115 -0.0885  0.1806
  820W        W 1917   6.294   1.614   1.272 -0.0818 -0.0687 -0.3827
  821W        W 1918   6.006   6.602   6.586 -0.3263  0.2001 -0.1275
  822W        W 1919   0.619   6.840   4.712  0.1495  0.1994  0.3554
  823W        W 1920   0.431   7.071   1.083 -0.0923 -0.1212 -0.4048
  824W        W 1921   2.091   1.932   5.330 -0.3081  0.0789  0.1124
  825W        W 1922   5.768   7.378   4.428  0.0692 -0.3852 -0.0516
  826W        W 1923   4.997   0.839   2.077  0.2276 -0.1615 -0.0074
  827W        W 1924   1.179   1.206   6.022 -0.2846 -0.0616  0.1217
  828W        W 1925   3.985   5.080   1.678  0.0256  0.0869 -0.4037
  829W        W 1926   6.738   7.362   3.931  0.1535  0.1919 -0.0762
  830W        W 1927   6.867   0.411   2.706  0.0666 -0.0201 -0.0253
  831W        W 1928   1.213   3.952   4.767  0.0525  0.3041  0.0703
  832W        W 1929   3.257   5.784   3.156 -0.2187  0.1407  0.0096
  833W        W 1930   4.404   6.997   7.391 -0.3348 -0.0851 -0.1023
  834W        W 1931   2.788   6.939   0.161 -0.1120 -0.0399  0.2020
  835W        W 1932   2.593   4.023   4.122 -0.4019  0.1858  0.3366
  836W        W 1933   6.603   0.051   5.273  0.2548  0.2778 -0.0924
  837W        W 1934   6.693   5.138   0.714 -0.0717 -0.1587  0.3180
  838W        W 1935   3.559   3.270   0.843 -0.1908 -0.4148 -0.1033
  839W        W 1936   0.760   3.593   0.594 -0.1370  0.2119  0.1184
  840W        W 1937   4.621   6.966   4.818 -0.0984 -0.0125 -0.2936
  841W        W 1938   4.110   4.708   5.382 -0.0655 -0.2247  0.0628
  842W        W 1939   6.538   3.533   7.441 -0.3042  0.1316  0.2970
  843W        W 1940   0.423   7.090   1.647 -0.1886  0.1218 -0.2348
  844W        W 1941   6.107   6.477   6.124 -0.4397  0.0215 -0.0541
  845W        W 1942   4.204   1.877   1.054  0.0082  0.3467 -0.0260
  846W        W 1943   5.264   0.860   2.517 -0.2442  0.0227 -0.1357
  847W        W 1944   5.579   1.806   4.148  0.2138  0.0303 -0.4566
  848W        W 1945   7.434   2.474   4.986  0.0999  0.0118  0.0212
  849W        W 1946   3.280   2.757   4.129 -0.2887 -0.1164  0.0877
  850W        W 1947   6.401   4.662   4.532 -0.1483  0.0799 -0.0687
  851W        W 1948   3.747   1.473   3.730  0.0525  0.0319  0.0698
  852W        W 1949   0.059   6.286   4.433 -0.1245  0.1927 -0.0224
  853W        W 1950   7.359   4.968   1.158  0.2714 -0.1706  0.0997
  854W        W 1951   2.493   3.202   6.501 -0.0499 -0.1894 -0.1417
  855W        W 1952   0.733   6.470   3.919 -0.0891 -0.4685 -0.0599
  856W        W 1953   1.260   7.055   6.054 -0.2439 -0.1324  0.0654
  857W        W 1954   6.956   5.399   1.945  0.1928 -0.1749 -0.0656
  858W        W 1955   4.551   2.719   4.304  0.4034 -0.0944 -0.0048
  859W        W 1956   3.802   2.897   0.937  0.2719  0.4081 -0.1044
  860W        W 1957   4.209   4.505   3.809  0.0915 -0.0552  0.1537
  861W        W 1958   1.687   2.337   4.639 -0.0517  0.1687  0.1458
  862W        W 1959   6.016   5.957   1.701 -0.3477 -0.1285 -0.1526
  863W        W 1960   7.292   1.182   0.573 -0.0016  0.1269 -0.1803
  864W        W 1961   4.858   2.328   4.115 -0.1985 -0.3151 -0.1299
  865W        W 1962   4.051   5.384   0.119  0.0621 -0.1705  0.1747
  866W        W 1963   1.578   1.522   6.787  0.2121 -0.0492  0.1133
  867W        W 1964   0.471   0.511   6.158 -0.0631  0.0261  0.0260
  868W        W 1965   2.981   6.716   3.314  0.2762 -0.0640 -0.0722
  869W        W 1966   0.475   3.830   1.107 -0.0626  0.0367  0.2830
  870W        W 1967   3.539   7.636   4.967  0.2571  0.2966  0.1383
  871W        W 1968   7.368   0.345   4.036  0.0414  0.2352 -0.2360
  872W        W 1969   2.061   2.175   7.422 -0.1529 -0.0478  0.1849
  873W        W 1970   3.131   1.560   4.472 -0.1586  0.0918 -0.1221
  874W        W 1971   1.117   3.109   6.070 -0.1344 -0.2012 -0.0181
  875W        W 1972   4.087   0.727   1.965  0.2226  0.0888  0.0158
  876W        W 1973   1.245   7.583   5.983 -0.1657  0.0674  0.1453
  877W        W 1974   6.283   1.152   0.742 -0.0404  0.1382 -0.2541
  878W        W 1975   6.068   6.293   4.151  0.2840  0.0867  0.1342
  879W        W 1976   1.307   5.417   1.681  0.4781  0.3160  0.3916
  880W        W 1977   0.001   0.817   5.834  0.2228 -0.0571 -0.0051
  881W        W 1978   2.318   5.819   3.332  0.2905  0.1124  0.0057
  882W        W 1979   0.337   2.497   5.046 -0.0467  0.1466 -0.1014
  883W        W 1980   2.968   0.010   0.617  0.0620  0.2086 -0.1078
  884W        W 1981   6.123   6.523   4.688 -0.0730  0.3669 -0.0238
  885W        W 1982   5.751   6.540   5.690  0.1762 -0.2788  0.0096
  886W        W 1983   4.500   2.408   3.783 -0.1244 -0.1743  0.0621
  887W        W 1984   0.498   3.005   1.305  0.3067  0.1083 -0.2227
  888W        W 1985   4.241   6.850   4.166 -0.0462  0.1578 -0.0815
  889W        W 1986   1.160   7.631   0.316  0.2063  0.2275 -0.2995
  890W        W 1987   5.542   6.481   1.854 -0.0346  0.1354  0.2835
  891W        W 1988   4.372   0.371   1.041  0.0369  0.1406  0.1906
  892W        W 1989   6.871   4.243   7.104 -0.0998 -0.1768 -0.0297
  893W        W 1990   1.675   7.449   0.058 -0.1667  0.2143  0.3646
  894W        W 1991   3.675   5.330   4.193  0.4417  0.1838  0.4686
  895W        W 1992   1.562   0.296   1.637  0.0438 -0.0990 -0.2247
  896W        W 1993   0.850   1.551   1.105 -0.1705 -0.2217  0.0862
  897W        W 1994   2.602   7.118   6.999 -0.1154 -0.0587  0.1581
  898W        W 1995   4.733   1.227   6.308  0.0649 -0.0794  0.0728
  899W        W 1996   5.560   6.918   4.537 -0.1478 -0.1026 -0.1644
  900W        W 1997   5.049   5.632   6.356  0.1233 -0.0212  0.3845
  901W        W 1998   3.250   2.895   4.999 -0.0354 -0.1190  0.1131
  902W        W 1999   1.368   7.410   1.750  0.0541  0.3161 -0.3090
  903W        W 2000   6.004   4.219   4.826 -0.3990  0.0930  0.1411
  904W        W 2001   1.778   1.842   4.864 -0.1893 -0.2592  0.2790
  905W        W 2002   0.682   4.920   0.057 -0.0117  0.1726 -0.0134
  906W        W 2003   4.756   6.949   4.170  0.1091  0.3818  0.0065
  907W        W 2004   0.011   7.551   0.716  0.0532  0.2273  0.1093
  908W        W 2005   6.248   1.591   1.874 -0.1016 -0.0786 -0.0949
  909W        W 2006   4.474   5.176   5.444 -0.1341 -0.0535 -0.1829
  910W        W 2007   0.844   7.358   5.336  0.3149  0.0377 -0.0473
  911W        W 2008   0.278   5.971   7.122  0.2387 -0.1953 -0.2847
  912W        W 2009   0.537   5.759   6.273 -0.0076  0.0623 -0.1399
  913W        W 2010   0.098   4.813   5.308  0.3922  0.0695 -0.1012
  914W        W 2011   5.610   1.010   5.628 -0.0084  0.3078 -0.1394
  915W        W 2012   4.759   7.392   3.440 -0.4643  0.2269 -0.1353
  916W        W 2013   2.646   0.487   4.938 -0.3132 -0.1928 -0.1832
  917W        W 2014   2.706   0.376   6.783 -0.0359  0.1381  0.0850
  918W        W 2015   5.013   0.467   2.398  0.2750 -0.2666 -0.0034
  919W        W 2016   0.514   6.090   5.828 -0.0750 -0.2130 -0.1665
  920W        W 2017   7.509   0.745   0.255 -0.1313  0.2592 -0.3616
  921W        W 2018   1.935   0.208   2.539  0.3054 -0.0269  0.0365
  922W        W 2019   6.967   2.079   3.807  0.0802  0.0526 -0.2664
  923W        W 2020   6.150   1.951   3.448 -0.1229 -0.1942 -0.2757
  924W        W 2021   5.780   7.346   2.378  0.1574  0.0176  0.0197
  925W        W 2022   1.759   4.035   3.047  0.0907  0.5845  0.0133
  926W        W 2023   4.349   3.947   4.062 -0.0720 -0.0062  0.1082
  927W        W 2024   5.223   0.089   3.685 -0.0231  0.0891  0.2819
  928W        W 2025   4.279   4.028   0.121  0.0012 -0.1334  0.5074
  929W        W 2026   5.303   0.394   3.238  0.3534 -0.1761  0.1406
  930W        W 2027   0.836   0.824   4.774 -0.0428 -0.0420  0.0231
  931W        W 2028   4.836   6.963   3.682  0.1594  0.3321  0.1214
  932W        W 2029   5.763   1.013   2.468 -0.1431  0.2000 -0.0250
  933W        W 2030   3.359   2.435   1.195 -0.0546 -0.1402  0.0763
  934W        W 2031   7.608   1.113   4.449  0.0686 -0.2365 -0.0424
  935W        W 2032   1.038   1.173   3.904  0.2988  0.1120  0.0182
  936W        W 2033   6.068   6.625   1.657 -0.1530  0.0601 -0.0438
  937W        W 2034   1.278   3.542   5.905 -0.0109 -0.3714  0.1251
  938W        W 2035   4.318   2.810   2.591 -0.0235 -0.0130 -0.2074
  939W        W 2036   2.607   3.990   3.233  0.1126  0.1754 -0.0280
  940W        W 2037   2.779   0.206   3.604 -0.0196 -0.1602  0.0680
  941W        W 2038   3.257   2.321   3.862  0.3113  0.2389  0.2098
  942W        W 2039   2.070   2.230   3.689  0.2485 -0.1160 -0.1091
  943W        W 2040   1.870   7.191   2.041 -0.0476 -0.1170 -0.2078
  944W        W 2041   2.077   4.095   7.451 -0.0897 -0.1131 -0.0052
  945W        W 2042   0.043   2.040   7.165  0.0603 -0.2243  0.0767
  946W        W 2043   3.089   5.485   7.441  0.0449  0.0353 -0.1909
  947W        W 2044   1.519   2.657   5.448 -0.0311 -0.1216 -0.1429
  948W        W 2045   2.169   0.761   3.369  0.2062 -0.0982 -0.1247
  949W        W 2046   4.508   5.647   4.574  0.2759 -0.0324 -0.2432
  950W        W 2047   0.847   2.406   7.139 -0.1161 -0.0608 -0.0612
  951W        W 2048   2.725   1.720   1.105  0.1378  0.0426  0.1016
  952W        W 2049   4.940   2.136   0.758  0.1586  0.0074 -0.2626
  953W        W 2050   1.924   1.894   1.480  0.1858  0.1324 -0.0764
  954W        W 2051   6.974   4.688   0.737 -0.0235 -0.0386  0.0667
  955W        W 2052   5.929   5.485   0.863 -0.1837  0.0644  0.1148
  956W        W 2053   6.776   1.766   5.370  0.0269  0.2122  0.0397
  957W        W 2054   6.429   6.372   0.708  0.1850 -0.0065 -0.2215
  958W        W 2055   6.366   1.451   7.494 -0.3149 -0.0338  0.1219
  959W        W 2056   6.583   1.051   4.414 -0.0096  0.3309  0.2619
  960W        W 2057   1.255   7.480   1.177  0.0607  0.1430  0.0269
  961W        W 2058   3.664   3.254   4.168  0.0616  0.0591 -0.0815
  962W        W 2059   1.235   1.381   0.311  0.0076  0.0125  0.1640
  963W        W 2060   3.073   2.528   5.525  0.1351 -0.5555  0.0897
  964W        W 2061   2.966   5.071   2.468 -0.1512 -0.1995 -0.0037
  965W        W 2062   3.149   1.593   2.390 -0.3423  0.0198 -0.1519
  966W        W 2063   1.735   5.782   7.504  0.0097 -0.0211  0.1673
  967W        W 2064   1.798   7.499   1.438  0.4136  0.0191 -0.1002
  968W        W 2065   1.702   0.843   6.088  0.1290 -0.0234  0.1476
  969W        W 2066   2.504   1.994   5.011 -0.1794  0.0675  0.0642
  970W        W 2067   7.040   6.831   5.783 -0.1065  0.2372  0.1708
  971W        W 2068   1.217   3.534   2.255 -0.1430 -0.1706 -0.0987
  972W        W 2069   4.694   1.677   0.598 -0.1490  0.0124 -0.1113
  973W        W 2070   5.971   6.067   5.863  0.4261 -0.3244  0.2925
  974W        W 2071   2.742   7.407   2.605  0.1199 -0.2234 -0.0001
  975W        W 2072   0.080   4.240   5.449 -0.0397  0.1414  0.2768
  976W        W 2073   0.069   3.892   2.690 -0.2701 -0.0814  0.0846
  977W        W 2074   4.237   7.075   6.173 -0.0781 -0.1237 -0.1026
  978W        W 2075   1.780   3.720   6.895  0.0612 -0.2646 -0.2023
  979W        W 2076   0.450   0.026   6.242 -0.0316 -0.2004 -0.1942
  980W        W 2077   5.581   1.229   3.481 -0.2436  0.1024 -0.0574
  981W        W 2078   3.389   1.140   3.537 -0.2691 -0.2005  0.0704
  982W        W 2079   0.007   0.291   1.640 -0.1422  0.1593  0.0978
  983W        W 2080   2.984   4.952   3.715 -0.1272  0.2380  0.0620
  984W        W 2081   5.366   7.248   6.268  0.2656  0.0022 -0.1609
  985W        W 2082   1.279   1.392   0.817  0.2171 -0.0197 -0.1109
  986W        W 2083   7.602   0.709   0.823  0.3772 -0.1357 -0.4276
  987W        W 2084   4.716   2.765   1.116 -0.1663  0.1116  0.0280
  988W        W 2085   0.830   4.689   6.513  0.2889 -0.0444 -0.0357
  989W        W 2086   5.233   3.026   4.421  0.2248  0.0844  0.2311
  990W        W 2087   5.595   0.136   6.090  0.2415  0.4290 -0.1542
  991W        W 2088   5.311   1.986   0.431 -0.0052  0.0835  0.0137
  992W        W 2089   6.239   0.584   4.459  0.0769  0.2862 -0.0805
  993W        W 2090   3.572   0.406   3.641 -0.0273  0.2139 -0.1881
  994W        W 2091   0.917   0.001   4.936  0.0064  0.0649 -0.1036
  995W        W 2092   7.508   0.619   3.588  0.1387 -0.2572  0.0876
  996W        W 2093   2.581   3.641   4.479 -0.4056 -0.1012  0.0487
  997W        W 2094   5.463   6.395   6.212 -0.1031  0.0809  0.1325
  998W        W 2095   5.174   6.752   3.214 -0.1936 -0.0683 -0.2420
  999W        W 2096   2.911   1.554   3.576 -0.0358 -0.0960  0.2492
 1000W        W 2097   0.423   1.311   4.538 -0.2459 -0.3558  0.2782
 1001W        W 2098   4.552   6.562   6.248 -0.2256  0.2487 -0.0514
 1002W        W 2099   1.942   4.277   3.537  0.0100 -0.1650  0.1005
 1003W        W 2100   3.205   3.566   1.940  0.1803 -0.1012 -0.3848
 1004W        W 2101   3.327   4.909   2.853  0.0210  0.0063  0.0683
 1005W        W 2102   5.856   5.770   6.936  0.1735 -0.1478  0.0170
 1006W        W 2103   2.306   2.026   0.945 -0.0135  0.1693  0.1136
 1007W        W 2104   3.170   7.125   3.070  0.3878  0.0178  0.1348
 1008W        W 2105   1.024   0.291   7.564 -0.0165  0.1608 -0.0987
 1009W        W 2106   5.885   7.172   2.853 -0.2590 -0.0852  0.0128
 1010W        W 2107   6.697   1.079   3.422  0.0104  0.2098 -0.3740
 1011W        W 2108   1.150   5.221   2.513 -0.0799  0.0625  0.0659
 1012W        W 2109   5.393   1.749   4.642 -0.0679  0.2873 -0.1906
 1013W        W 2110   1.496   3.602   3.292  0.0186 -0.0254  0.3225
 1014W        W 2111   1.018   6.016   0.493 -0.0146  0.1924 -0.0277
 1015W        W 2112   7.362   4.078   0.889 -0.3069 -0.3194 -0.0650
 1016W        W 2113   0.370   6.123   1.430  0.2349  0.0505 -0.1575
 1017W        W 2114   0.718   0.733   3.933 -0.1948  0.0347 -0.1617
 1018W        W 2115   1.566   1.198   3.269  0.0430 -0.3610  0.3206
 1019W        W 2116   7.523   3.479   5.059 -0.0735  0.1873 -0.1676
 1020W        W 2117   3.708   3.717   0.985 -0.2141  0.1121  0.0867
 1021W        W 2118   3.489   6.608   5.621 -0.3822  0.1800 -0.0083
 1022W        W 2119   1.527   5.842   0.748  0.1177  0.0115  0.0760
 1023W        W 2120   7.620   6.778   6.431  0.1265  0.2376 -0.4871
 1024W        W 2121   7.447   4.313   3.911 -0.1303  0.1156  0.2110
 1025W        W 2122   0.393   1.729   6.331  0.1335  0.2209 -0.0233
 1026W        W 2123   6.437   5.507   0.999 -0.2093 -0.2532  0.1172
 1027W        W 2124   5.417   1.637   3.147  0.0632  0.0384 -0.0498
 1028W        W 2125   0.655   5.102   3.935  0.1341 -0.4455 -0.1306
 1029W        W 2126   1.947   7.066   7.583 -0.0024 -0.1196 -0.1982
 1030W        W 2127   7.141   7.020   0.649  0.2257 -0.1162 -0.0179
 1031W        W 2128   7.185   5.474   7.420 -0.0381  0.2211 -0.0504
 1032W        W 2129   6.676   2.865   6.842  0.1746  0.1049  0.0466
 1033W        W 2130   6.032   0.756   6.369 -0.0311  0.3269 -0.0006
 1034W        W 2131   0.515   6.721   6.520 -0.0655  0.0445  0.0990
 1035W        W 2132   2.603   3.035   0.975  0.2123 -0.3810 -0.0677
 1036W        W 2133   5.668   1.134   4.714  0.1645  0.2367  0.0751
 1037W        W 2134   7.313   1.886   3.181  0.2731  0.3190 -0.1833
 1038W        W 2135   6.276   3.409   4.681 -0.0158  0.0716  0.0642
 1039W        W 2136   5.298   7.197   3.580  0.1585 -0.3641 -0.2145
 1040W        W 2137   5.524   0.724   2.887  0.3516 -0.0077  0.0388
 1041W        W 2138   7.161   6.111   1.300 -0.1454  0.0348 -0.4590
 1042W        W 2139   1.538   0.963   1.042 -0.1367 -0.1469 -0.3277
 1043W        W 2140   2.247   6.882   0.338  0.1394 -0.0755  0.2875
 1044W        W 2141   5.093   1.167   1.688  0.0744 -0.0229 -0.0829
 1045W        W 2142   4.663   2.793   5.083  0.1302  0.1990 -0.3085
 1046W        W 2143   6.051   0.024   1.597  0.1451  0.2323  0.0112
 1047W        W 2144   6.813   5.640   0.672 -0.1863 -0.2219 -0.2936
 1048W        W 2145   6.214   5.562   6.618  0.1970  0.1047 -0.1010
 1049W        W 2146   3.006   2.848   2.457  0.0676  0.0994  0.0180
 1050W        W 2147   1.575   3.359   5.525  0.1004  0.0267 -0.1509
 1051W        W 2148   1.028   4.225   4.398  0.1080  0.1501 -0.2437
 1052W        W 2149   4.252   0.257   5.515 -0.1351  0.0551 -0.0273
 1053W        W 2150   5.761   5.053   7.427  0.1715 -0.2443 -0.1890
 1054W        W 2151   6.821   7.366   3.448 -0.2773  0.2909 -0.2828
 1055W        W 2152   1.245   3.448   4.790 -0.1920  0.1105 -0.1999
 1056W        W 2153   0.426   2.308   6.930  0.4495  0.1970 -0.3014
 1057W        W 2154   6.614   1.089   5.347 -0.0774 -0.1250  0.0283
 1058W        W 2155   6.072   3.322   7.340 -0.0257  0.2227  0.1015
 1059W        W 2156   0.548   6.417   5.049 -0.0337 -0.0424  0.1870
 1060W        W 2157   1.473   4.372   2.155  0.2290  0.3284 -0.1296
 1061W        W 2158   6.871   1.588   3.917  0.1777  0.4312  0.0732
 1062W        W 2159   1.838   0.608   6.567 -0.2751 -0.1413 -0.1499
 1063W        W 2160   5.629   5.574   0.392  0.1241  0.0483 -0.0850
 1064W        W 2161   7.221   5.652   2.293 -0.0428 -0.0948  0.2042
 1065W        W 2162   6.268   1.350   2.473  0.2835 -0.2962 -0.2116
 1066W        W 2163   2.876   6.011   2.203  0.2819 -0.0704  0.1424
 1067W        W 2164   2.664   0.855   7.247  0.1591  0.0126  0.2026
 1068W        W 2165   4.420   7.411   7.028 -0.0845 -0.1336 -0.1759
 1069W        W 2166   2.886   2.680   2.011  0.0427 -0.0625  0.4069
 1070W        W 2167   0.934   2.962   6.504 -0.2339 -0.1555  0.1026
 1071W        W 2168   4.555   6.973   1.834  0.1973  0.1376 -0.1887
 1072W        W 2169   3.703   6.329   6.509 -0.1094 -0.0020  0.1454
 1073W        W 2170   2.856   1.751   1.611  0.4930  0.2369  0.0250
 1074W        W 2171   1.766   7.583   3.779 -0.1571 -0.1875  0.0366
 1075W        W 2172   4.983   2.531   4.661 -0.1210 -0.0607  0.1715
 1076W        W 2173   2.578   0.822   1.473  0.3192 -0.2698  0.2661
 1077W        W 2174   5.810   5.241   5.088 -0.1773 -0.0996 -0.0762
 1078W        W 2175   1.156   4.943   3.840  0.2377 -0.0542  0.1202
 1079W        W 2176   7.006   6.845   1.477 -0.1640 -0.1142  0.0123
 1080W        W 2177   4.626   5.395   5.000 -0.3584 -0.0840 -0.3124
 1081W        W 2178   7.477   5.380   1.987 -0.2515 -0.2774 -0.1221
 1082W        W 2179   1.336   1.967   3.257  0.0267 -0.2740 -0.0889
 1083W        W 2180   4.513   7.482   6.020 -0.2115 -0.0815 -0.0720
 1084W        W 2181   4.326   6.179   2.642 -0.2629 -0.1940 -0.1753
 1085W        W 2182   5.281   2.772   3.971 -0.0850 -0.2129  0.2168
 1086W        W 2183   7.404   6.478   6.880  0.0879 -0.4996  0.0567
 1087W        W 2184   0.248   1.050   0.564  0.1303  0.0265  0.1135
 1088W        W 2185   2.484   0.981   5.983 -0.1155  0.1554  0.0944
 1089W        W 2186   6.175   6.878   5.755  0.2862 -0.0455  0.1288
 1090W        W 2187   5.243   0.081   0.457  0.1966 -0.0718  0.0513
 1091W        W 2188   6.738   7.176   0.399  0.1219  0.0940 -0.0425
 1092W        W 2189   0.800   2.551   1.061  0.2733  0.1071  0.0647
 1093W        W 2190   7.356   5.950   4.636 -0.3230  0.1943 -0.2424
 1094W        W 2191   5.102   1.578   3.571 -0.1111  0.2072 -0.0664
 1095W        W 2192   3.687   4.279   0.550  0.1458  0.4006 -0.0445
 1096W        W 2193   3.750   5.833   6.695 -0.0157 -0.2874  0.0624
 1097W        W 2194   0.924   7.214   0.400  0.0687  0.0216  0.0772
 1098W        W 2195   3.731   7.230   6.200 -0.0078 -0.0331 -0.1314
 1099W        W 2196   4.790   5.061   5.950 -0.1891 -0.0351 -0.4065
 1100W        W 2197   1.046   1.123   1.163 -0.1062 -0.0626 -0.0395
 1101W        W 2198   4.026   1.371   6.958  0.0689 -0.1935  0.0834
 1102W        W 2199   5.890   2.138   3.890 -0.0612  0.0571  0.3448
 1103W        W 2200   2.091   0.592   4.296 -0.0659 -0.1179 -0.1870
 1104W        W 2201   3.417   0.527   5.864 -0.2929  0.0143 -0.1392
 1105W        W 2202   2.886   1.256   5.383  0.0051  0.1982 -0.5459
 1106W        W 2203   4.460   2.355   4.787 -0.0340 -0.3087  0.3344
 1107W        W 2204   4.027   7.117   7.064  0.0913  0.0349 -0.1131
 1108W        W 2205   6.599   0.743   2.952 -0.2216 -0.1975  0.0725
 1109W        W 2206   7.447   4.016   6.957 -0.2447  0.2730 -0.4774
 1110W        W 2207   7.246   7.063   4.287  0.0985 -0.0997 -0.1894
 1111W        W 2208   7.219   0.039   6.251  0.3243 -0.1289  0.0698
 1112W        W 2209   4.515   0.043   5.174  0.0050 -0.0569 -0.1515
 1113W        W 2210   5.196   2.466   0.957  0.0371  0.0717  0.3857
 1114W        W 2211   6.489   4.468   6.821  0.1471  0.0891  0.2603
 1115W        W 2212   1.678   1.242   4.913 -0.0959 -0.1003  0.0821
 1116W        W 2213   3.725   1.600   2.190  0.2410 -0.1690 -0.2170
 1117W        W 2214   2.438   1.296   3.811  0.0320  0.0596 -0.0063
 1118W        W 2215   4.840   4.885   4.959  0.2621  0.2713  0.1076
 1119W        W 2216   4.840   4.752   0.973  0.0177 -0.2066  0.2792
 1120W        W 2217   1.366   6.394   3.160  0.0989 -0.1967 -0.0148
 1121W        W 2218   2.362   5.184   0.032 -0.1021 -0.6226  0.2915
 1122W        W 2219   6.965   4.394   5.768  0.2011 -0.1995  0.2314
 1123W        W 2220   0.795   4.600   3.669 -0.3362 -0.2306 -0.0821
 1124W        W 2221   5.694   7.383   1.286  0.0898 -0.1420 -0.0927
 1125W        W 2222   5.428   1.519   1.876 -0.1822  0.0319  0.2048
 1126W        W 2223   3.084   6.549   0.389 -0.1975 -0.3565 -0.0334
 1127W        W 2224   5.259   0.391   6.387 -0.0971  0.1969 -0.2268
 1128W        W 2225   5.249   7.514   5.834 -0.1741 -0.0178  0.3519
 1129W        W 2226   1.365   3.177   1.077 -0.0216 -0.1424 -0.1676
 1130W        W 2227   3.183   5.288   3.317 -0.0694 -0.1297 -0.1422
 1131W        W 2228   1.445   1.822   1.389  0.2573  0.1511  0.0429
 1132W        W 2229   2.231   6.976   0.861 -0.0370 -0.3345  0.2302
 1133W        W 2230   0.548   7.335   3.917 -0.0297  0.4321  0.1295
 1134W        W 2231   1.314   0.230   3.633  0.2198  0.2263 -0.0336
 1135W        W 2232   6.222   3.931   7.630 -0.0621 -0.0016  0.3440
 1136W        W 2233   3.005   2.534   4.560 -0.1249 -0.2914 -0.1361
 1137W        W 2234   3.312   4.094   3.774  0.0850  0.2990  0.0908
 1138W        W 2235   1.145   5.337   3.087  0.2382 -0.2357  0.3374
 1139W        W 2236   4.609   1.516   6.752  0.0473 -0.0183  0.2424
 1140W        W 2237   2.433   7.450   4.435  0.0068  0.4480 -0.1972
 1141W        W 2238   1.257   2.192   6.394  0.0259 -0.3975 -0.0738
 1142W        W 2239   1.698   0.815   1.665  0.1796 -0.3116  0.1250
 1143W        W 2240   3.468   5.786   4.138 -0.1555 -0.0449  0.0442
 1144W        W 2241   2.665   1.752   2.494 -0.1987  0.1344 -0.0022
 1145W        W 2242   1.668   2.354   7.106 -0.3313 -0.0757 -0.1398
 1146W        W 2243   4.443   6.947   0.524 -0.0256 -0.1079 -0.1754
 1147W        W 2244   3.677   3.754   5.144 -0.0245  0.1653 -0.1330
 1148W        W 2245   1.262   2.563   0.154 -0.1654  0.0143  0.5960
 1149W        W 2246   2.719   2.683   7.581  0.1934 -0.3511  0.1208
 1150W        W 2247   6.698   5.088   4.357  0.0666 -0.0569  0.0793
 1151W        W 2248   1.694   3.302   7.126  0.0088 -0.2879  0.2821
 1152W        W 2249   1.687   2.290   3.319 -0.2165  0.1096  0.1308
 1153W        W 2250   0.832   2.421   6.614  0.2662  0.0444  0.1274
 1154W        W 2251   7.549   2.625   7.625  0.1145 -0.3370 -0.1097
 1155W        W 2252   5.846   1.531   1.607  0.1573 -0.1027  0.3070
 1156W        W 2253   1.287   6.317   4.137  0.4111  0.0482  0.4296
 1157W        W 2254   6.647   6.853   7.601 -0.0750 -0.5994  0.2069
 1158W        W 2255   6.318   1.043   0.251  0.0908  0.1419 -0.0265
 1159W        W 2256   1.519   4.397   2.646 -0.3355 -0.2090 -0.1798
 1160W        W 2257   5.053   4.495   0.309  0.2135 -0.1209  0.0372
 1161W        W 2258   1.462   7.385   6.421  0.1050  0.2376 -0.1771
 1162W        W 2259   3.415   2.632   2.192  0.0015  0.0972  0.1749
 1163W        W 2260   5.969   0.100   5.162 -0.0811 -0.0369  0.0736
 1164W        W 2261   1.210   2.711   2.340  0.0091 -0.2000  0.0295
 1165W        W 2262   3.728   0.009   4.142  0.0878 -0.0440  0.3078
 1166W        W 2263   5.058   1.744   5.574  0.0282  0.1948  0.0744
 1167W        W 2264   5.517   6.708   6.563  0.1002  0.0096  0.1378
 1168W        W 2265   4.572   7.085   0.985 -0.1143 -0.3594 -0.2834
 1169W        W 2266   5.836   6.903   2.000  0.2059 -0.1076  0.0381
 1170W        W 2267   7.373   2.555   1.740  0.0629  0.1168 -0.2347
 1171W        W 2268   3.441   6.614   3.094 -0.0035 -0.0989  0.0766
 1172W        W 2269   2.556   1.816   5.629  0.1633 -0.0324  0.1396
 1173W        W 2270   3.706   5.455   1.645 -0.0480  0.0583  0.3048
 1174W        W 2271   3.513   7.315   0.008 -0.0260 -0.1275 -0.2004
 1175W        W 2272   2.340   0.213   0.500  0.0888  0.0741 -0.0020
 1176W        W 2273   0.189   1.518   2.295 -0.0771 -0.0545  0.0564
 1177W        W 2274   1.328   4.174   6.987 -0.0611  0.1600  0.1176
 1178W        W 2275   4.932   6.864   2.319 -0.2249  0.0931 -0.4173
 1179W        W 2276   1.526   5.630   6.988 -0.1665  0.1054  0.0221
 1180W        W 2277   0.647   7.427   2.602 -0.0769  0.4151  0.3454
 1181W        W 2278   5.289   3.863   0.099 -0.1269  0.1091 -0.1131
 1182W        W 2279   2.120   2.588   2.438 -0.3507 -0.3033  0.2030
 1183W        W 2280   0.647   4.449   3.010 -0.1421 -0.1556 -0.1315
 1184W        W 2281   2.985   3.220   1.205  0.0097 -0.0499 -0.0489
 1185W        W 2282   7.380   5.582   6.501  0.1375 -0.2656 -0.0254
 1186W        W 2283   3.721   3.226   3.091 -0.0047 -0.0701 -0.0247
 1187W        W 2284   2.389   4.176   4.525  0.0554 -0.0799 -0.2227
 1188W        W 2285   2.930   2.832   6.455 -0.0024 -0.2164  0.2570
 1189W        W 2286   5.096   1.652   2.770  0.0852 -0.0878  0.0998
 1190W        W 2287   3.977   1.819   5.451  0.1185  0.1920 -0.1488
 1191W        W 2288   5.082   6.204   6.581 -0.1227  0.2624  0.0267
 1192W        W 2289   1.031   4.615   0.780  0.0481  0.1880 -0.0708
 1193W        W 2290   5.735   0.355   0.727 -0.1054  0.0694  0.2807
 1194W        W 2291   2.241   3.840   1.082 -0.2249  0.0236  0.0560
 1195W        W 2292   0.060   1.510   0.673  0.0313  0.0322 -0.1512
 1196W        W 2293   3.267   5.146   0.231  0.0788 -0.3839 -0.0885
 1197W        W 2294   0.416   6.703   2.299  0.1196  0.2017  0.1605
 1198W        W 2295   7.149   5.094   2.991 -0.0192 -0.3320  0.0582
 1199W        W 2296   3.992   0.925   0.984  0.0436 -0.0491 -0.0825
 1200W        W 2297   6.523   6.876   5.398 -0.1126 -0.0969 -0.4221
 1201W        W 2298   7.122   7.082   0.016  0.0461 -0.2738  0.1415
 1202W        W 2299   3.231   2.114   4.351 -0.2685  0.1176  0.1012
 1203W        W 2300   3.991   1.270   5.538 -0.0603 -0.0659 -0.1585
 1204W        W 2301   0.036   2.661   5.620  0.1812 -0.1362  0.0515
 1205W        W 2302   4.073   5.029   6.967  0.1134  0.1543 -0.3256
 1206W        W 2303   4.507   2.167   1.686  0.0233 -0.1640  0.1479
 1207W        W 2304   0.574   4.691   7.247  0.2863  0.1901  0.1063
 1208W        W 2305   5.805   0.852   7.142 -0.0764 -0.0117 -0.2356
 1209W        W 2306   3.920   0.803   7.495  0.0194 -0.2816  0.2304
 1210W        W 2307   5.717   3.042   3.703  0.0489  0.2177  0.0187
 1211W        W 2308   5.858   6.835   0.453  0.3070  0.1080 -0.0395
 1212W        W 2309   7.182   0.817   2.734  0.0331  0.1924  0.0235
 1213W        W 2310   6.364   7.033   3.728 -0.0600 -0.0961  0.1040
 1214W        W 2311   2.006   3.472   5.763  0.3450 -0.1198  0.1667
 1215W        W 2312   7.463   6.196   2.135 -0.1011  0.0593 -0.0147
 1216W        W 2313   6.967   0.866   0.385  0.0069  0.1671 -0.0916
 1217W        W 2314   5.526   0.182   5.063  0.0387  0.0076 -0.1576
 1218W        W 2315   7.438   1.641   7.344 -0.0634 -0.0793  0.1701
 1219W        W 2316   0.063   4.570   5.802  0.0030 -0.2356  0.1306
 1220W        W 2317   2.879   7.553   1.204  0.0343  0.4014 -0.2045
 1221W        W 2318   1.741   2.251   5.265 -0.0171 -0.0995  0.2625
 1222W        W 2319   0.024   7.111   0.257 -0.0994 -0.1739 -0.2070
 1223W        W 2320   4.723   7.106   6.516  0.0496  0.0975  0.2491
 1224W        W 2321   7.059   0.423   0.104 -0.1473  0.0646 -0.1366
 1225W        W 2322   0.894   0.514   3.420 -0.4368  0.2501  0.1887
 1226W        W 2323   0.499   3.995   4.287  0.0075  0.0442  0.1308
 1227W        W 2324   7.555   3.273   4.569 -0.0020 -0.1724 -0.1687
 1228W        W 2325   3.875   1.721   4.939  0.0429  0.4348 -0.3339
 1229W        W 2326   2.851   0.892   4.409 -0.1743 -0.0420  0.0742
 1230W        W 2327   5.272   0.047   4.516  0.5059  0.1683 -0.3062
 1231W        W 2328   6.827   5.154   3.874  0.1110  0.2841 -0.0601
 1232W        W 2329   1.083   7.338   3.023 -0.1752  0.0775 -0.1962
 1233W        W 2330   7.455   1.243   5.592 -0.1169  0.3763  0.2402
 1234W        W 2331   1.539   4.918   7.412 -0.0708  0.0824 -0.0759
 1235W        W 2332   4.548   1.721   5.527 -0.0529  0.2561  0.1691
 1236W        W 2333   1.163   1.364   2.291 -0.1907 -0.1040 -0.2892
 1237W        W 2334   1.613   4.499   3.154 -0.0417  0.0674 -0.0253
 1238W        W 2335   5.843   6.981   4.146 -0.0804 -0.1530  0.4186
 1239W        W 2336   6.390   0.893   4.933  0.0993 -0.1115 -0.0592
 1240W        W 2337   3.449   0.720   2.614  0.1225  0.1986 -0.1488
 1241W        W 2338   7.300   1.468   4.702 -0.0920 -0.0324 -0.0035
 1242W        W 2339   0.605   5.228   7.259  0.1511  0.2144 -0.2028
 1243W        W 2340   1.417   5.722   0.289 -0.1676  0.2411 -0.0623
 1244W        W 2341   0.769   3.457   2.046  0.0934 -0.2716  0.0364
 1245W        W 2342   2.927   5.940   2.700 -0.1419 -0.3578  0.0784
 1246W        W 2343   0.016   0.886   5.345 -0.1013  0.0311 -0.0763
 1247W        W 2344   7.549   2.209   4.549  0.0941  0.2476 -0.0061
 1248W        W 2345   6.856   4.874   5.506  0.3851 -0.1076 -0.0437
 1249W        W 2346   2.418   1.425   5.346 -0.0464  0.0048 -0.1650
 1250W        W 2347   7.594   3.977   6.518 -0.0265  0.2456  0.3680
 1251W        W 2348   5.155   6.212   2.039  0.0214  0.0508  0.3820
 1252W        W 2349   2.009   3.132   1.743  0.2606  0.0255  0.0443
 1253W        W 2350   4.169   6.297   3.511  0.3464 -0.4554  0.2908
 1254W        W 2351   0.086   2.876   3.054  0.0823  0.2000 -0.3664
 1255W        W 2352   4.570   1.611   4.363 -0.0653 -0.1179  0.0552
 1256W        W 2353   1.724   4.819   0.256 -0.2709  0.1080 -0.0883
 1257W        W 2354   2.304   2.623   1.878 -0.0750  0.0728 -0.0796
 1258W        W 2355   0.077   1.695   4.474  0.1171  0.1001  0.2431
 1259W        W 2356   6.279   5.890   0.758  0.2831  0.0881 -0.0050
 1260W        W 2357   2.632   2.182   1.291  0.1632 -0.0141  0.0945
 1261W        W 2358   0.869   4.951   0.501 -0.1546 -0.0603 -0.2918
 1262W        W 2359   1.671   0.982   5.344 -0.0296  0.1219 -0.0346
 1263W        W 2360   2.504   6.034   7.480 -0.1473 -0.1795 -0.4359
 1264W        W 2361   3.550   0.560   4.095  0.0134 -0.0260  0.0718
 1265W        W 2362   5.446   6.553   7.527 -0.3233 -0.1114 -0.1769
 1266W        W 2363   0.633   4.470   2.479  0.1389 -0.0864 -0.0419
 1267W        W 2364   0.020   2.058   0.617 -0.0363  0.0908  0.0978
 1268W        W 2365   7.632   4.086   0.183  0.1860  0.0861  0.0742
 1269W        W 2366   5.900   1.322   2.091  0.0320  0.0367  0.0823
 1270W        W 2367   4.028   4.393   4.338 -0.3602 -0.2483  0.1036
 1271W        W 2368   2.037   3.959   4.205  0.0917 -0.3863  0.2003
 1272W        W 2369   3.534   3.996   2.853  0.0379  0.0740  0.0698
 1273W        W 2370   6.528   4.889   6.603  0.3037  0.0009 -0.1244
 1274W        W 2371   7.256   4.868   0.240 -0.2213 -0.0849 -0.0785
 1275W        W 2372   0.419   0.621   3.519 -0.0423 -0.0726  0.0671
 1276W        W 2373   7.287   6.390   5.888  0.0721  0.1879 -0.1203
 1277W        W 2374   6.262   7.172   0.620 -0.3417  0.2560 -0.1507
 1278W        W 2375   0.329   0.877   4.873 -0.2959 -0.0180 -0.0804
 1279W        W 2376   4.305   6.236   5.355  0.0058  0.1789 -0.0030
 1280W        W 2377   6.343   1.674   4.591  0.3192 -0.5754 -0.4152
 1281W        W 2378   6.964   0.357   7.074  0.2588 -0.0429 -0.0927
 1282W        W 2379   3.373   6.295   1.893  0.2381 -0.0491 -0.1706
 1283W        W 2380   3.279   1.091   0.303 -0.2859  0.0470 -0.2224
 1284W        W 2381   3.577   1.802   0.944 -0.1700  0.0463  0.0871
 1285W        W 2382   5.522   0.380   4.167 -0.0809  0.0396 -0.0514
 1286W        W 2383   7.167   0.269   3.564  0.0359  0.0449  0.0921
 1287W        W 2384   6.806   0.081   0.315 -0.3511  0.0768 -0.1771
 1288W        W 2385   2.681   7.581   7.084  0.0938 -0.2771  0.2176
 1289W        W 2386   2.702   2.377   2.561 -0.2009 -0.3653  0.1452
 1290W        W 2387   4.617   0.799   3.220  0.0486 -0.1983  0.1391
 1291W        W 2388   2.911   0.575   5.400 -0.1058 -0.1323 -0.0727
 1292W        W 2389   0.529   5.045   4.459 -0.0705  0.1362 -0.0337
 1293W        W 2390   6.225   5.116   4.733  0.0640  0.1440 -0.0841
 1294W        W 2391   1.738   2.338   5.783 -0.0699  0.0686  0.1067
 1295W        W 2392   6.372   5.501   5.085 -0.1014 -0.0493  0.0173
 1296W        W 2393   1.578   2.989   0.123 -0.2827  0.0371  0.1936
 1297W        W 2394   6.511   7.174   1.749  0.0538 -0.1416 -0.0760
 1298W        W 2395   4.114   0.669   1.447 -0.0371 -0.0569  0.1531
 1299W        W 2396   6.163   2.740   4.257 -0.0529  0.0619 -0.2039
 1300W        W 2397   4.310   2.908   4.676  0.0892 -0.1268 -0.0994
 1301W        W 2398   5.447   3.425   0.309 -0.1665 -0.0342  0.0939
 1302W        W 2399   5.375   4.766   7.621 -0.1227  0.0355 -0.1905
 1303W        W 2400   2.415   2.741   6.356  0.0903 -0.2443  0.2415
 1304W        W 2401   6.940   2.276   1.707 -0.3402  0.1459  0.0417
 1305W        W 2402   1.318   1.684   7.449 -0.0970 -0.3516 -0.0246
 1306W        W 2403   4.614   5.583   5.864  0.1887  0.1351  0.3951
 1307W        W 2404   5.144   2.012   3.312 -0.1855  0.0477  0.1861
 1308W        W 2405   4.534   3.828   0.879  0.3034  0.0397  0.2695
 1309W        W 2406   6.372   2.633   2.801 -0.0937  0.0964 -0.2309
 1310W        W 2407   1.224   3.632   5.254  0.0946  0.0779  0.3178
 1311W        W 2408   2.557   5.429   0.890  0.0996 -0.3763  0.2388
 1312W        W 2409   6.747   4.397   0.329 -0.0129 -0.3265 -0.0533
 1313W        W 2410   3.949   5.810   4.303  0.2215  0.0352 -0.4072
 1314W        W 2411   0.183   2.783   4.700  0.0311 -0.0236 -0.1468
 1315W        W 2412   0.354   7.236   0.624 -0.1153  0.1081  0.1389
 1316W        W 2413   6.755   6.353   1.499 -0.1015 -0.0307  0.0920
 1317W        W 2414   2.532   6.245   5.947  0.1427 -0.3334 -0.0778
 1318W        W 2415   3.470   4.976   3.814 -0.0633  0.2205  0.1481
 1319W        W 2416   2.437   0.356   2.707 -0.2615 -0.1089  0.2265
 1320W        W 2417   3.728   1.513   6.466 -0.0281 -0.1238 -0.0492
 1321W        W 2418   4.562   4.874   6.838  0.0522 -0.1797  0.0542
 1322W        W 2419   1.135   0.720   4.353 -0.0075 -0.0678 -0.0961
 1323W        W 2420   3.186   5.508   1.455  0.0191 -0.1085 -0.0275
 1324W        W 2421   4.045   0.230   3.798  0.0109  0.0694 -0.0955
 1325W        W 2422   4.227   5.796   7.575 -0.2102  0.1736 -0.2033
 1326W        W 2423   5.717   0.266   0.162  0.0676  0.1451 -0.0338
 1327W        W 2424   6.424   1.703   5.710  0.3185  0.0693 -0.3193
 1328W        W 2425   2.741   0.400   0.887 -0.0624 -0.0896  0.2316
 1329W        W 2426   0.173   1.883   3.532  0.0526 -0.1516 -0.2589
 1330W        W 2427   4.384   4.891   0.093 -0.0625 -0.1173  0.2857
 1331W        W 2428   5.074   5.633   7.181 -0.0606 -0.0567  0.1203
 1332W        W 2429   6.681   2.849   7.321  0.0905  0.0285  0.1558
 1333W        W 2430   3.455   5.278   2.516 -0.0249  0.0443  0.0444
 1334W        W 2431   1.626   1.774   0.548  0.1162 -0.0937  0.0391
 1335W        W 2432   0.886   5.389   7.615 -0.0489 -0.1790  0.1231
 1336W        W 2433   1.908   0.357   7.160  0.1645  0.0201  0.1929
 1337W        W 2434   7.217   6.205   7.233  0.0445 -0.1108 -0.0855
 1338W        W 2435   7.522   4.539   7.607 -0.1614  0.1440 -0.2731
 1339W        W 2436   0.533   2.958   5.431  0.1014 -0.1643 -0.1707
 1340W        W 2437   5.349   1.177   1.198  0.0296  0.2468 -0.2308
 1341W        W 2438   7.610   2.533   4.115  0.0654 -0.1606 -0.1413
 1342W        W 2439   0.708   1.927   5.675 -0.0616  0.0435 -0.1300
 1343W        W 2440   5.872   5.819   4.068  0.1305 -0.0683 -0.0884
 1344W        W 2441   7.638   1.638   1.773  0.0547  0.0801 -0.0539
 1345W        W 2442   3.642   1.801   4.203  0.0648 -0.1621 -0.0919
 1346W        W 2443   1.408   6.865   0.933 -0.0414 -0.2207  0.1410
 1347W        W 2444   2.765   7.606   4.049  0.0376  0.0489 -0.0490
 1348W        W 2445   1.975   6.208   2.478 -0.0660  0.2366  0.1358
 1349W        W 2446   3.707   5.586   2.186 -0.1237 -0.0777  0.0698
 1350W        W 2447   4.090   6.443   6.162 -0.0026 -0.1085 -0.3534
 1351W        W 2448   3.501   6.888   0.568 -0.3184 -0.2362  0.1589
 1352W        W 2449   0.672   1.344   2.259  0.2227 -0.1408 -0.1473
 1353W        W 2450   2.797   5.123   7.542 -0.3070  0.1911  0.0342
 1354W        W 2451   5.365   7.192   7.181 -0.1005 -0.1738 -0.1092
 1355W        W 2452   1.470   0.909   2.345  0.0416 -0.0773 -0.0104
 1356W        W 2453   1.291   1.920   5.072 -0.2152  0.3067  0.1325
 1357W        W 2454   4.356   1.177   7.322  0.0912  0.1771  0.0575
 1358W        W 2455   4.138   2.421   4.181 -0.1258  0.0702  0.1801
 1359W        W 2456   6.664   2.007   3.381 -0.0591 -0.1543 -0.0897
 1360W        W 2457   1.700   2.970   4.161  0.0333  0.0739 -0.0419
 1361W        W 2458   4.067   5.689   4.806 -0.2705  0.0041  0.3086
 1362W        W 2459   2.419   6.009   0.352 -0.1044  0.1245  0.0907
 1363W        W 2460   2.979   0.254   5.892  0.0281  0.1605  0.0855
 1364W        W 2461   1.256   2.138   2.774 -0.2742  0.0442 -0.1912
 1365W        W 2462   2.160   5.684   0.006  0.0779  0.0222  0.1793
 1366W        W 2463   2.344   5.224   1.288  0.0842  0.1694 -0.0060
 1367W        W 2464   5.173   6.247   5.175  0.0031  0.4365  0.1452
 1368W        W 2465   0.694   5.737   2.227  0.0993  0.3517 -0.2249
 1369W        W 2466   2.211   1.603   2.965 -0.3633 -0.3584 -0.0305
 1370W        W 2467   5.150   5.245   4.169  0.0976  0.2544 -0.1968
 1371W        W 2468   4.028   5.768   1.286 -0.1261  0.3080  0.2666
 1372W        W 2469   5.914   0.284   1.173  0.0630 -0.1676 -0.1585
 1373W        W 2470   4.325   0.349   3.121 -0.3888 -0.2206  0.0563
 1374W        W 2471   2.367   4.587   3.589 -0.1036 -0.0400  0.0600
 1375W        W 2472   1.411   4.977   2.903  0.1238 -0.2091 -0.0524
 1376W        W 2473   5.743   3.048   6.967  0.0714 -0.0996  0.0696
 1377W        W 2474   7.479   6.970   5.996 -0.0719  0.1502  0.1823
 1378W        W 2475   1.249   0.152   0.802 -0.2122 -0.0302  0.0644
 1379W        W 2476   4.795   3.089   3.164  0.0612 -0.1138  0.0038
 1380W        W 2477   3.328   4.796   2.213 -0.0185  0.1954  0.2526
 1381W        W 2478   2.013   3.687   1.821  0.0091 -0.0209  0.1017
 1382W        W 2479   3.599   3.668   4.601  0.0650 -0.0582 -0.0557
 1383W        W 2480   6.892   6.319   6.806 -0.3184 -0.0030 -0.2239
 1384W        W 2481   5.366   0.777   5.066  0.0547  0.1486 -0.0889
 1385W        W 2482   5.236   0.706   4.639  0.1326  0.0645  0.0331
 1386W        W 2483   1.517   4.348   0.559  0.1820  0.0349 -0.0926
 1387W        W 2484   1.022   4.571   6.943 -0.0223  0.1430  0.1043
 1388W        W 2485   7.218   1.192   3.717 -0.0763  0.0565  0.0442
 1389W        W 2486   2.875   0.334   1.398  0.0237 -0.0666  0.3738
 1390W        W 2487   0.479   1.806   2.555  0.0050 -0.2404 -0.1121
 1391W        W 2488   0.591   0.787   5.245 -0.1598 -0.0471  0.0356
 1392W        W 2489   0.201   2.452   1.322  0.4396  0.0994  0.1738
 1393W        W 2490   7.094   1.220   1.847 -0.0375 -0.1930 -0.0543
 1394W        W 2491   0.748   3.409   5.660 -0.1697  0.0470 -0.1893
 1395W        W 2492   0.010   6.861   7.415  0.2161 -0.1216  0.0994
 1396W        W 2493   1.690   3.330   3.717 -0.2023 -0.2647 -0.1394
 1397W        W 2494   3.713   4.977   0.279  0.2278  0.0993  0.1184
 1398W        W 2495   2.553   0.453   5.769 -0.0744  0.2045  0.0600
 1399W        W 2496   3.507   3.738   4.048  0.3872  0.1966 -0.0775
 1400W        W 2497   1.464   6.095   6.433  0.1247  0.2003  0.0323
 1401W        W 2498   1.492   3.754   2.632  0.1456 -0.0372 -0.1127
 1402W        W 2499   4.800   0.503   5.496  0.0272  0.0282 -0.1844
 1403W        W 2500   2.979   7.175   3.951  0.1016  0.0486  0.0074
 1404W        W 2501   1.970   7.318   4.390  0.2711  0.0393 -0.0193
 1405W        W 2502   3.709   1.885   7.434  0.1793 -0.0486 -0.4997
 1406W        W 2503   3.861   6.891   7.445  0.3520  0.1543 -0.1181
 1407W        W 2504   0.098   4.787   4.041 -0.2629 -0.1778 -0.3280
 1408W        W 2505   7.077   0.970   5.248 -0.0751  0.0959  0.2680
 1409W        W 2506   0.331   4.860   2.840 -0.0429 -0.1280 -0.1471
 1410W        W 2507   2.462   2.735   2.851 -0.2724 -0.0663 -0.0644
 1411W        W 2508   7.135   3.663   0.919 -0.1650 -0.6735  0.1838
 1412W        W 2509   5.776   2.490   2.827 -0.2303  0.1031 -0.3325
 1413W        W 2510   0.356   6.832   5.660 -0.0200  0.1486 -0.0102
 1414W        W 2511   5.805   1.336   4.251 -0.1796 -0.1837  0.3484
 1415W        W 2512   1.488   7.460   3.373 -0.1161 -0.1409 -0.0441
 1416W        W 2513   5.530   7.563   0.800 -0.1261  0.1360  0.0459
 1417W        W 2514   6.751   0.329   2.184 -0.2229 -0.3337 -0.0746
 1418W        W 2515   1.116   6.460   0.926 -0.3054 -0.1116 -0.1068
 1419W        W 2516   5.889   5.139   0.263  0.0248 -0.1665  0.1739
 1420W        W 2517   0.152   0.511   4.560  0.0998  0.0490 -0.0293
 1421W        W 2518   1.671   0.436   3.970 -0.1227  0.0948 -0.1250
 1422W        W 2519   1.363   2.943   3.833  0.0613 -0.1512 -0.1307
 1423W        W 2520   1.998   6.260   1.453 -0.1400 -0.0278 -0.0441
 1424W        W 2521   2.836   1.598   5.050  0.0055  0.1803  0.2457
 1425W        W 2522   3.269   0.621   1.638  0.1207  0.3467 -0.0410
 1426W        W 2523   5.038   6.196   1.471  0.0825  0.0956 -0.2334
 1427W        W 2524   0.273   6.816   5.191  0.3057 -0.1004 -0.1120
 1428W        W 2525   6.389   5.766   7.044  0.1340  0.0490  0.1169
 1429W        W 2526   4.369   0.337   1.752 -0.1344  0.0012 -0.0764
 1430W        W 2527   5.230   0.289   0.979  0.2009  0.0012 -0.0037
 1431W        W 2528   0.484   3.982   5.497  0.0564 -0.0700 -0.0317
 1432W        W 2529   2.676   0.476   1.862  0.1237 -0.0828  0.1046
 1433W        W 2530   7.094   7.120   1.946  0.2935  0.2653  0.0602
 1434W        W 2531   6.839   5.691   4.957  0.1509 -0.0109 -0.1551
 1435W        W 2532   0.248   1.263   7.553  0.3334  0.0844  0.1022
 1436W        W 2533   1.202   3.534   1.575  0.3399  0.1353 -0.0106
 1437W        W 2534   0.943   3.143   2.533 -0.1183  0.0091 -0.3182
 1438W        W 2535   6.878   2.877   4.082  0.0397 -0.1261  0.2849
 1439W        W 2536   5.936   1.069   3.002  0.2174  0.1057 -0.0646
 1440W        W 2537   6.779   0.305   6.200 -0.0499 -0.0286  0.2525
 1441W        W 2538   2.474   7.171   7.469  0.0650  0.1952  0.2851
 1442W        W 2539   2.582   2.224   1.776 -0.0962  0.3339  0.2898
 1443W        W 2540   2.220   7.600   6.886 -0.1477 -0.0971 -0.0296
 1444W        W 2541   4.983   6.557   1.042  0.0105 -0.3547 -0.0290
 1445W        W 2542   0.209   0.531   3.945 -0.2155 -0.0786  0.2275
 1446W        W 2543   0.789   4.444   0.360  0.4852  0.0413  0.0557
 1447W        W 2544   4.197   7.289   5.018 -0.4004 -0.2092 -0.3463
 1448W        W 2545   5.081   0.016   5.195 -0.1267 -0.0697 -0.2067
 1449W        W 2546   2.561   6.481   0.201  0.0132 -0.0797  0.1231
 1450W        W 2547   0.468   0.838   5.729 -0.0261 -0.0664 -0.0210
 1451W        W 2548   0.714   6.558   6.011  0.2219  0.1074 -0.2017
 1452W        W 2549   3.212   3.615   0.986  0.1763  0.1027  0.2059
 1453W        W 2550   4.592   5.576   7.219 -0.0828  0.0240  0.0539
 1454W        W 2551   2.713   6.856   5.309 -0.0718  0.3122 -0.0158
 1455W        W 2552   2.560   2.049   0.013 -0.3633  0.0251 -0.0392
 1456W        W 2553   6.539   6.655   6.584  0.0461  0.0675 -0.1419
 1457W        W 2554   4.029   1.667   0.655 -0.1308  0.2652 -0.2322
 1458W        W 2555   0.582   2.789   6.825  0.2789 -0.1144 -0.1156
 1459W        W 2556   0.125   3.379   0.406  0.1005 -0.0574  0.0938
 1460W        W 2557   3.244   6.000   6.409  0.0682  0.3481 -0.0034
 1461W        W 2558   5.425   6.962   2.671  0.1749  0.1824 -0.2647
 1462W        W 2559   7.576   6.972   1.006 -0.0489 -0.1097  0.1805
 1463W        W 2560   7.193   2.316   7.594  0.1195 -0.0413 -0.0078
 1464W        W 2561   1.709   3.384   1.471  0.0662 -0.1212 -0.1267
 1465W        W 2562   0.156   0.850   6.761  0.0453  0.0337 -0.1803
 1466W        W 2563   6.342   2.221   4.369  0.1028  0.0254 -0.1231
 1467W        W 2564   2.542   0.884   5.472 -0.3447 -0.2715 -0.0648
 1468W        W 2565   0.554   6.075   4.152 -0.3094  0.0364 -0.1219
 1469W        W 2566   0.332   4.839   0.406 -0.2893 -0.1655  0.0950
 1470W        W 2567   6.450   7.254   2.993 -0.0617 -0.1050  0.0284
 1471W        W 2568   0.989   5.857   5.500  0.2517  0.0528  0.0241
 1472W        W 2569   5.145   2.136   1.298  0.0018 -0.0789 -0.5598
 1473W        W 2570   3.257   5.702   2.397  0.1070 -0.0180  0.0078
 1474W        W 2571   4.693   4.748   5.556 -0.0070  0.2725  0.0081
 1475W        W 2572   4.804   2.258   5.137  0.0981 -0.2004  0.3596
 1476W        W 2573   0.911   6.418   4.406 -0.1933  0.2360 -0.1030
 1477W        W 2574   0.030   6.320   1.052 -0.2063  0.0875  0.1431
 1478W        W 2575   6.420   0.221   5.743  0.0344 -0.0047 -0.3203
 1479W        W 2576   4.642   5.809   2.734 -0.0500  0.3062  0.1029
 1480W        W 2577   3.238   3.616   3.636  0.3652 -0.1814 -0.0282
 1481W        W 2578   4.365   2.008   4.100  0.0372  0.4346  0.1792
 1482W        W 2579   1.935   5.192   2.773 -0.1800 -0.0946  0.2229
 1483W        W 2580   4.962   5.320   4.631 -0.0839  0.1913 -0.0638
 1484W        W 2581   3.382   2.200   7.014 -0.2380 -0.0888  0.2599
 1485W        W 2582   0.659   4.331   1.891 -0.2176 -0.0026 -0.1360
 1486W        W 2583   0.368   3.613   3.006 -0.0637  0.1821  0.2107
 1487W        W 2584   4.731   1.365   5.237 -0.1546 -0.0926  0.0242
 1488W        W 2585   0.369   0.682   1.622 -0.0478 -0.0504  0.1193
 1489W        W 2586   7.589   5.840   1.261  0.0597 -0.2214  0.0228
 1490W        W 2587   4.456   3.365   1.241  0.2766  0.1651 -0.3598
 1491W        W 2588   4.368   2.426   0.066  0.0187 -0.0997 -0.1044
 1492W        W 2589   0.130   3.433   1.484  0.0196  0.1578  0.1312
 1493W        W 2590   3.086   3.193   0.697 -0.0209  0.2019 -0.1976
 1494W        W 2591   7.590   5.402   4.543 -0.3806 -0.0103  0.2716
 1495W        W 2592   2.480   6.604   3.277 -0.2516 -0.1989  0.0620
 1496W        W 2593   7.470   3.137   0.014 -0.2230 -0.1692 -0.0471
 1497W        W 2594   3.709   3.610   1.838  0.3145 -0.0959  0.2857
 1498W        W 2595   2.976   1.260   7.071 -0.0808 -0.1739  0.0244
 1499W        W 2596   3.265   1.190   6.671  0.2654  0.3298 -0.1710
 1500W        W 2597   0.052   6.221   3.834  0.0718 -0.2656 -0.0466
 1501W        W 2598   1.911   4.023   2.528 -0.1027 -0.0010 -0.0766
 1502W        W 2599   3.967   0.647   0.452 -0.3093  0.0252 -0.1806
 1503W        W 2600   5.446   5.988   4.418  0.0969  0.1129 -0.1042
 1504W        W 2601   5.190   2.588   3.024  0.1342  0.2259 -0.1806
 1505W        W 2602   1.947   5.728   2.670 -0.0137  0.0827  0.0755
 1506W        W 2603   6.006   5.944   1.201 -0.0146  0.2712 -0.1414
 1507W        W 2604   2.849   6.301   7.003 -0.0298  0.1896  0.2070
 1508W        W 2605   5.980   7.085   1.579  0.0242  0.2428  0.1515
 1509W        W 2606   7.011   5.231   6.293 -0.0350 -0.3326 -0.0911
 1510W        W 2607   0.546   5.685   7.468 -0.1282 -0.0782  0.1399
 1511W        W 2608   1.418   2.780   7.336 -0.0045  0.1157  0.4657
 1512W        W 2609   2.523   2.293   7.196 -0.2848  0.2584  0.3885
 1513W        W 2610   3.393   4.439   0.979  0.1119 -0.1701  0.1375
 1514W        W 2611   5.124   4.320   7.511 -0.0758 -0.3104 -0.0613
 1515W        W 2612   6.844   6.693   0.406  0.0561  0.3981  0.0544
 1516W        W 2613   5.519   0.591   6.830  0.0054  0.1523  0.2078
 1517W        W 2614   1.856   5.349   1.432 -0.0251 -0.2790  0.0105
 1518W        W 2615   1.124   3.962   6.534 -0.0430  0.1272 -0.0378
 1519W        W 2616   3.718   0.912   1.612 -0.1735  0.3086  0.2667
 1520W        W 2617   3.043   7.366   0.116 -0.0563  0.0648 -0.0374
 1521W        W 2618   4.283   7.556   3.497  0.1115 -0.2658  0.1263
 1522W        W 2619   5.730   0.550   5.400 -0.0095 -0.3803  0.2106
 1523W        W 2620   7.232   4.848   4.007  0.1830 -0.0311 -0.0672
 1524W        W 2621   1.331   3.338   2.891  0.1332  0.0608 -0.0285
 1525W        W 2622   6.613   7.407   7.603 -0.0161 -0.0295 -0.2840
 1526W        W 2623   4.123   5.676   1.862 -0.0412  0.2118 -0.0517
 1527W        W 2624   0.525   0.095   3.425  0.0004 -0.0212 -0.1799
 1528W        W 2625   2.856   4.061   4.697  0.3741  0.1942 -0.1951
 1529W        W 2626   1.295   3.635   6.917 -0.0308  0.1522 -0.3408
 1530W        W 2627   4.294   7.271   1.535 -0.3806 -0.1739  0.0240
 1531W        W 2628   5.317   0.257   2.771  0.1240  0.1136  0.0742
 1532W        W 2629   6.427   0.323   4.856 -0.3171  0.2073 -0.0864
 1533W        W 2630   6.145   6.905   3.272  0.4874 -0.0490  0.2488
 1534W        W 2631   6.698   1.355   2.696  0.3012  0.0010  0.1096
 1535W        W 2632   2.209   2.625   7.158  0.2040  0.1669  0.1182
 1536W        W 2633   0.800   6.981   3.647 -0.1648  0.1126  0.0870
 1537W        W 2634   2.523   2.309   4.600 -0.0292 -0.2242  0.1693
 1538W        W 2635   3.946   3.814   4.314  0.3286 -0.2418 -0.2973
 1539W        W 2636   3.131   6.787   7.007 -0.1707  0.0764  0.0897
 1540W        W 2637   0.202   0.046   4.683 -0.0588  0.0050  0.0275
 1541W        W 2638   4.339   7.246   4.476 -0.2175  0.2591 -0.1013
 1542W        W 2639   4.425   6.641   3.740  0.1310 -0.1378 -0.0360
 1543W        W 2640   1.163   3.159   0.320  0.0541  0.1653  0.1805
 1544W        W 2641   3.672   4.186   3.351 -0.0076  0.3507 -0.2886
 1545W        W 2642   1.526   1.303   1.454  0.1073 -0.0889 -0.1382
 1546W        W 2643   4.726   0.881   4.955 -0.0742 -0.1576 -0.1990
 1547W        W 2644   3.904   6.585   2.082  0.0691  0.0649  0.1062
 1548W        W 2645   0.628   0.380   5.506 -0.0296 -0.4564  0.0857
 1549W        W 2646   5.579   2.376   1.261  0.0962 -0.1681 -0.0172
 1550W        W 2647   5.109   5.807   5.409 -0.0661  0.1732 -0.0725
 1551W        W 2648   6.891   5.984   4.546  0.1434  0.0574  0.1777
 1552W        W 2649   2.807   7.248   3.471 -0.0938 -0.2120 -0.2585
 1553W        W 2650   3.276   2.360   5.064  0.1449  0.3444 -0.0480
 1554W        W 2651   3.819   6.044   0.068 -0.1990 -0.0797  0.2179
 1555W        W 2652   3.148   0.638   3.464  0.0141  0.0733  0.0093
 1556W        W 2653   6.072   5.109   6.539  0.0417  0.0723 -0.0427
 1557W        W 2654   0.942   7.387   6.350 -0.1436 -0.1952 -0.0640
 1558W        W 2655   7.506   7.002   1.529  0.1485  0.2896 -0.1529
 1559W        W 2656   0.624   0.400   2.584 -0.2557  0.1073 -0.2309
 1560W        W 2657   4.480   0.908   5.388  0.0723  0.2595  0.1858
 1561W        W 2658   6.062   0.252   6.164  0.3078 -0.2484  0.0777
 1562W        W 2659   0.098   2.947   5.192  0.0754 -0.3667 -0.1579
 1563W        W 2660   7.483   3.054   4.112 -0.0977 -0.0684 -0.2307
 1564W        W 2661   2.330   3.964   2.184 -0.3514 -0.4144  0.2890
 1565W        W 2662   7.435   4.552   4.346  0.1492 -0.3225  0.1468
 1566W        W 2663   3.256   1.832   6.666 -0.0973  0.2214 -0.3028
 1567W        W 2664   7.255   1.583   6.380 -0.1605 -0.1971 -0.0139
 1568W        W 2665   0.892   3.920   1.581  0.0572  0.2290  0.1257
 1569W        W 2666   3.360   2.192   0.684  0.1221 -0.2837  0.2100
 1570W        W 2667   1.419   1.630   2.865 -0.0444  0.0584  0.0020
 1571W        W 2668   3.040   0.745   1.146 -0.1189  0.0869  0.1068
 1572W        W 2669   1.251   0.265   4.156  0.0315  0.3552 -0.0086
 1573W        W 2670   0.210   2.843   3.614  0.1661 -0.1730  0.1434
 1574W        W 2671   1.665   1.854   7.141  0.1695  0.0533  0.1881
 1575W        W 2672   3.385   3.055   2.757 -0.2104 -0.3158  0.3659
 1576W        W 2673   0.132   3.833   7.358 -0.0081 -0.1479  0.0704
 1577W        W 2674   1.495   3.473   7.617 -0.1261 -0.0828  0.0454
 1578W        W 2675   0.108   5.809   4.308  0.0738  0.0313  0.2978
 1579W        W 2676   2.928   0.789   5.878 -0.1118  0.1773 -0.3026
 1580W        W 2677   3.857   4.125   3.945  0.2580 -0.2931  0.0773
 1581W        W 2678   0.936   1.776   2.346  0.2221 -0.1273  0.1494
 1582W        W 2679   0.558   0.529   3.041 -0.1537 -0.0582  0.2146
 1583W        W 2680   0.447   5.291   0.266  0.0727  0.2397 -0.2963
 1584W        W 2681   1.046   4.264   3.903  0.0540 -0.0379 -0.4690
 1585W        W 2682   2.238   5.498   0.504 -0.2184 -0.1452 -0.0526
 1586W        W 2683   1.883   1.016   4.487  0.1105 -0.3538 -0.0580
 1587W        W 2684   7.047   6.670   4.711  0.2311  0.4190 -0.2866
 1588W        W 2685   2.906   3.586   3.284  0.0320 -0.1333  0.1600
 1589W        W 2686   1.915   2.924   7.387 -0.1627 -0.0896 -0.4367
 1590W        W 2687   3.695   1.949   2.828 -0.0791 -0.0663  0.3759
 1591W        W 2688   7.256   1.873   4.285  0.1731 -0.1425 -0.1878
 1592W        W 2689   4.137   3.750   1.274  0.2055 -0.0309 -0.1649
 1593W        W 2690   2.307   0.269   1.139  0.2217  0.0181  0.0104
 1594W        W 2691   6.955   2.064   0.779  0.0154 -0.0013  0.0452
 1595W        W 2692   5.657   1.040   1.618 -0.1761 -0.1333 -0.2445
 1596W        W 2693   4.560   0.896   6.673  0.3464 -0.0590 -0.1404
 1597W        W 2694   5.767   1.120   0.438  0.2269  0.1630 -0.0452
 1598W        W 2695   4.384   0.312   6.056  0.3770  0.1390  0.1614
 1599W        W 2696   2.857   3.588   4.947  0.1009 -0.1894  0.0863
 1600W        W 2697   0.290   7.561   2.951 -0.0846  0.0851 -0.1501
 1601W        W 2698   7.207   2.112   2.707 -0.1674 -0.0397  0.0631
 1602W        W 2699   1.039   0.608   2.841 -0.1082  0.1548  0.1017
 1603W        W 2700   0.392   5.536   6.932  0.1849  0.1470  0.0991
 1604W        W 2701   0.604   0.392   4.827 -0.1260  0.1263 -0.3799
 1605W        W 2702   7.011   6.178   4.959  0.1716 -0.2805 -0.0572
 1606W        W 2703   5.094   5.545   5.818  0.4733 -0.2612 -0.4600
 1607W        W 2704   4.361   0.513   5.040 -0.3755  0.1046 -0.1988
 1608W        W 2705   3.035   1.125   1.603 -0.1063  0.1676 -0.0587
 1609W        W 2706   6.359   7.024   6.317 -0.1023  0.0525  0.0082
 1610W        W 2707   2.677   7.053   3.028  0.3136 -0.1344  0.1833
 1611W        W 2708   5.518   0.644   0.390 -0.1230 -0.3824  0.3285
 1612W        W 2709   1.834   5.858   3.140  0.0292 -0.2225  0.0095
 1613W        W 2710   4.097   0.845   6.898  0.0778 -0.0156  0.1771
 1614W        W 2711   4.698   4.261   0.941  0.3598  0.0656  0.3178
 1615W        W 2712   1.909   4.546   2.208 -0.2996 -0.0554 -0.3283
 1616W        W 2713   1.898   5.812   6.595  0.2165  0.0240  0.1839
 1617W        W 2714   3.352   6.758   6.155 -0.0629  0.0937  0.1272
 1618W        W 2715   2.937   6.552   2.232  0.2114  0.1948 -0.0596
 1619W        W 2716   0.180   5.040   5.855  0.3324 -0.1831  0.3220
 1620W        W 2717   6.918   6.461   7.614 -0.0683 -0.0219 -0.1454
 1621W        W 2718   5.514   5.444   7.112 -0.1678  0.5986 -0.1485
 1622W        W 2719   3.167   3.169   3.286 -0.1097  0.1852  0.1895
 1623W        W 2720   2.920   6.110   0.162 -0.1811 -0.0738 -0.0203
 1624W        W 2721   7.028   1.833   7.558  0.0222  0.0311 -0.0968
 1625W        W 2722   5.956   1.522   3.728 -0.0096 -0.0928  0.0613
 1626W        W 2723   0.510   3.685   3.514 -0.4808 -0.3148 -0.0185
 1627W        W 2724   7.586   1.129   2.642 -0.1574 -0.0960 -0.2770
 1628W        W 2725   0.406   3.477   5.327 -0.1625 -0.0101 -0.2421
 1629W        W 2726   2.096   1.005   1.337  0.1324 -0.0571  0.2143
 1630W        W 2727   7.457   6.863   5.061  0.1854  0.1184 -0.2216
 1631W        W 2728   4.113   1.356   2.442 -0.1582 -0.3544  0.0452
 1632W        W 2729   2.488   6.342   2.251 -0.1449  0.0027 -0.2116
 1633W        W 2730   4.761   3.965   4.361 -0.1731 -0.0112  0.0505
 1634W        W 2731   3.248   7.356   1.710  0.0851  0.0224 -0.1889
 1635W        W 2732   3.591   7.477   6.684 -0.0106  0.0307 -0.0228
 1636W        W 2733   7.213   5.829   6.007  0.0259 -0.0534 -0.2047
 1637W        W 2734   3.089   0.447   3.977  0.1257  0.0663  0.1655
 1638W        W 2735   1.351   4.943   0.620  0.1155  0.1189 -0.2165
 1639W        W 2736   7.258   4.129   7.428 -0.3825  0.0919 -0.2878
 1640W        W 2737   6.196   0.956   6.817  0.0393 -0.1797  0.1435
 1641W        W 2738   7.634   3.462   6.141 -0.1544 -0.1376  0.1550
 1642W        W 2739   3.831   5.942   0.857 -0.0968 -0.2159  0.3329
 1643W        W 2740   5.043   1.453   0.395  0.1868  0.1471  0.2699
 1644W        W 2741   7.542   6.205   6.332  0.0383 -0.1381  0.0907
 1645W        W 2742   7.138   3.987   1.372  0.2047  0.1430 -0.5038
 1646W        W 2743   4.874   4.972   0.017  0.2380 -0.0544 -0.1588
 1647W        W 2744   0.177   0.362   6.646 -0.0324 -0.0997  0.1311
 1648W        W 2745   5.319   0.269   5.569  0.5208  0.0251 -0.0675
 1649W        W 2746   7.400   7.206   5.448  0.2559  0.0245 -0.0845
 1650W        W 2747   0.774   0.961   6.189  0.1190 -0.0095  0.1519
 1651W        W 2748   7.371   5.877   1.760 -0.1231  0.2332  0.2052
 1652W        W 2749   5.846   1.252   5.125  0.1469  0.0999  0.1936
 1653W        W 2750   6.739   1.464   0.325 -0.2774 -0.1906 -0.3032
 1654W        W 2751   3.860   3.298   5.054  0.2688 -0.0265  0.0727
 1655W        W 2752   3.593   5.268   2.964  0.0193  0.3644 -0.1255
 1656W        W 2753   4.417   7.087   5.664 -0.1834 -0.1622  0.1406
 1657W        W 2754   3.913   2.104   0.469  0.1088 -0.2425  0.3572
 1658W        W 2755   6.799   3.280   7.144 -0.4806 -0.1241 -0.1514
 1659W        W 2756   0.600   5.974   6.709 -0.3040  0.1875 -0.2053
 1660W        W 2757   1.107   1.227   6.534  0.0065  0.1751  0.1185
 1661W        W 2758   1.490   0.734   3.090  0.0820  0.3277 -0.1030
 1662W        W 2759   1.329   3.335   4.229 -0.3316 -0.3674  0.0055
 1663W        W 2760   5.540   1.956   1.547  0.0172 -0.2848  0.0999
 1664W        W 2761   4.910   5.260   6.977  0.1685  0.2844  0.0268
 1665W        W 2762   6.031   5.781   5.413 -0.2471 -0.1591 -0.2350
 1666W        W 2763   2.518   4.037   0.703 -0.1725 -0.3195  0.0115
 1667W        W 2764   3.289   1.720   1.775 -0.1284 -0.1687 -0.3529
 1668W        W 2765   0.003   3.880   1.281 -0.1263 -0.0733  0.0582
 1669W        W 2766   0.743   5.751   1.588  0.1598 -0.1833  0.0403
 1670W        W 2767   1.326   7.020   1.395 -0.2543  0.1609  0.0815
 1671W        W 2768   5.706   6.727   7.090  0.0373 -0.2878  0.0009
 1672W        W 2769   6.474   1.584   3.516  0.2010  0.1070  0.2404
 1673W        W 2770   7.121   3.469   4.377  0.0130  0.1067 -0.1198
 1674W        W 2771   2.558   0.617   0.027  0.3070  0.1110 -0.0085
 1675W        W 2772   2.414   5.920   2.764  0.0982  0.1616 -0.0136
 1676W        W 2773   5.115   7.387   2.464 -0.0375  0.0003  0.2449
 1677W        W 2774   2.123   1.705   2.398 -0.0594 -0.3065 -0.3243
 1678W        W 2775   2.995   5.953   1.321 -0.0008 -0.1715 -0.1510
 1679W        W 2776   2.688   3.116   6.012 -0.2843  0.1100  0.4653
 1680W        W 2777   6.931   2.892   6.410 -0.1828 -0.3073  0.4240
 1681W        W 2778   7.289   5.046   4.480  0.0590 -0.0290 -0.1131
 1682W        W 2779   1.190   6.669   0.445  0.2166 -0.1858 -0.2069
 1683W        W 2780   5.384   6.182   1.021 -0.1333  0.3481 -0.2275
 1684W        W 2781   0.575   1.853   4.426  0.1885 -0.0173  0.1543
 1685W        W 2782   4.292   5.288   2.191  0.2512 -0.0157 -0.2766
 1686W        W 2783   5.459   4.435   5.613  0.1165 -0.0437 -0.2385
 1687W        W 2784   0.693   3.344   0.128 -0.1048 -0.2196  0.0300
 1688W        W 2785   2.173   0.814   1.915 -0.3077 -0.2238 -0.1480
 1689W        W 2786   4.194   1.884   2.473 -0.1411 -0.1815  0.0977
 1690W        W 2787   7.601   5.302   0.232 -0.2891 -0.1076 -0.1503
 1691W        W 2788   0.313   2.005   4.838 -0.0041  0.0603 -0.0755
 1692W        W 2789   4.089   7.187   3.072 -0.4164 -0.0923  0.2567
 1693W        W 2790   0.020   4.069   4.262  0.1073  0.0997  0.0809
 1694W        W 2791   2.811   2.594   1.541 -0.1939 -0.0693  0.2040
 1695W        W 2792   5.197   7.497   1.399 -0.5088  0.0257 -0.1045
 1696W        W 2793   1.732   0.103   1.002  0.1689 -0.0158  0.0003
 1697W        W 2794   3.116   7.256   6.212 -0.1386  0.1468  0.0988
 1698W        W 2795   0.432   1.473   0.334  0.0589  0.3751 -0.0309
 1699W        W 2796   5.018   4.150   7.071 -0.2428 -0.1740 -0.3628
 1700W        W 2797   5.412   7.142   0.611 -0.0507  0.0985 -0.0552
 1701W        W 2798   2.455   0.906   2.844 -0.1509  0.2117 -0.1076
 1702W        W 2799   4.233   1.978   0.037 -0.0531  0.0542 -0.3208
 1703W        W 2800   2.173   6.815   2.931 -0.0308  0.0047 -0.1753
 1704W        W 2801   3.124   1.993   1.217  0.1031 -0.1683  0.1888
 1705W        W 2802   0.545   3.448   4.063  0.1082  0.2037 -0.1195
 1706W        W 2803   6.739   4.862   5.984 -0.1633  0.1016  0.0699
 1707W        W 2804   0.860   1.127   4.400  0.0068 -0.1370 -0.0726
 1708W        W 2805   2.536   6.631   6.830  0.1926  0.0451  0.1597
 1709W        W 2806   0.798   1.011   3.045  0.2856 -0.1056  0.0683
 1710W        W 2807   1.545   4.665   0.987  0.1709  0.2602 -0.1531
 1711W        W 2808   2.620   0.837   3.682  0.0922  0.3596  0.1023
 1712W        W 2809   7.242   1.398   4.168  0.0213 -0.0742 -0.0429
 1713W        W 2810   6.839   3.791   4.577 -0.2398  0.2034 -0.1908
 1714W        W 2811   0.379   4.416   3.944 -0.0310 -0.2077  0.1104
 1715W        W 2812   7.095   6.947   6.755  0.1633 -0.0922 -0.1490
 1716W        W 2813   1.739   5.261   3.249 -0.1098 -0.2042  0.0756
 1717W        W 2814   6.332   0.478   2.589 -0.1683 -0.0793  0.3388
 1718W        W 2815   3.923   2.813   5.692  0.1599 -0.1491  0.0761
 1719W        W 2816   4.960   5.999   6.014  0.1257 -0.1797 -0.2414
 1720W        W 2817   1.863   3.795   0.164 -0.1744 -0.2284  0.0161
 1721W        W 2818   0.544   5.240   6.166 -0.0755  0.2122 -0.2315
 1722W        W 2819   4.929   1.885   2.340 -0.1142  0.3846 -0.0464
 1723W        W 2820   2.011   3.502   7.396  0.2335 -0.2345  0.2602
 1724W        W 2821   0.026   4.521   1.787 -0.0786  0.0293  0.0259
 1725W        W 2822   1.096   4.623   2.346 -0.1410 -0.1286 -0.1465
 1726W        W 2823   3.638   3.492   2.649  0.0677 -0.0534  0.3342
 1727W        W 2824   6.442   1.991   0.550  0.0411 -0.2536 -0.4724
 1728W        W 2825   2.947   2.027   3.532  0.1369 -0.2742 -0.0468
 1729W        W 2826   3.817   2.720   1.412 -0.2785  0.0228  0.0273
 1730W        W 2827   2.994   2.753   1.040 -0.3885 -0.1945 -0.1765
 1731W        W 2828   0.200   4.362   0.514  0.0565  0.0136 -0.4757
 1732W        W 2829   1.083   1.282   4.807  0.2357 -0.2591  0.3856
 1733W        W 2830   3.608   2.404   3.535 -0.1637 -0.2464 -0.1973
 1734W        W 2831   7.510   0.777   1.818 -0.2966  0.0346 -0.0268
 1735W        W 2832   0.756   4.866   2.121 -0.1186 -0.3203  0.0215
 1736W        W 2833   4.607   6.364   1.877 -0.3497 -0.3244 -0.2647
 1737W        W 2834   5.553   5.529   4.564  0.3440  0.0210 -0.0984
 1738W        W 2835   0.934   7.491   3.523  0.1703 -0.2068  0.3379
 1739W        W 2836   0.732   7.590   4.375  0.2340 -0.1881  0.4380
 1740W        W 2837   1.045   6.051   2.822  0.0441  0.0906  0.1925
 1741W        W 2838   0.461   0.738   1.014  0.1038 -0.1552  0.3324
 1742W        W 2839   1.633   1.107   6.503 -0.1032 -0.0551  0.0482
 1743W        W 2840   5.975   1.990   1.243  0.2172  0.2847  0.0658
 1744W        W 2841   4.797   7.638   5.625  0.3443 -0.1719 -0.0775
 1745W        W 2842   4.280   3.797   3.608 -0.1901 -0.0273  0.3457
 1746W        W 2843   3.515   0.224   6.392  0.0711 -0.0402 -0.1367
 1747W        W 2844   7.387   0.157   1.052 -0.0621  0.3181 -0.1745
 1748W        W 2845   4.636   6.728   0.136  0.2747  0.0306  0.2073
 1749W        W 2846   6.860   0.609   3.326 -0.0505 -0.2976 -0.1872
 1750W        W 2847   0.529   3.471   2.581  0.0977  0.0609  0.6547
 1751W        W 2848   2.306   0.125   5.383 -0.4428  0.1189 -0.1943
 1752W        W 2849   6.110   1.730   0.821 -0.0859  0.2903  0.0242
 1753W        W 2850   4.879   2.964   0.608  0.0639 -0.0378  0.0893
 1754W        W 2851   2.520   6.114   1.282 -0.2548  0.0132  0.0865
 1755W        W 2852   6.715   4.097   7.522  0.0967  0.0399 -0.0827
 1756W        W 2853   4.300   4.283   1.271 -0.0053 -0.0014 -0.1350
 1757W        W 2854   5.946   0.592   1.545  0.2238 -0.1057 -0.2703
 1758W        W 2855   1.227   1.936   0.268  0.1187  0.0584 -0.2187
 1759W        W 2856   3.929   4.719   1.330  0.0242 -0.0385  0.2153
 1760W        W 2857   5.441   1.089   2.120  0.1342  0.2217  0.0369
 1761W        W 2858   5.970   3.446   4.254 -0.0206  0.2579 -0.1231
 1762W        W 2859   4.062   0.340   7.228 -0.1052  0.1305  0.2171
 1763W        W 2860   0.846   2.705   7.515 -0.0003 -0.2497  0.2197
 1764W        W 2861   4.234   0.454   0.058  0.1725  0.1897  0.1036
 1765W        W 2862   0.025   0.254   6.166  0.4052  0.0091  0.1883
 1766W        W 2863   0.689   7.625   0.529  0.0558  0.2858 -0.2295
 1767W        W 2864   3.483   0.433   7.295 -0.0918  0.0790  0.0883
 1768W        W 2865   6.755   7.288   4.425  0.1990 -0.3264 -0.1419
 1769W        W 2866   3.207   7.623   7.288  0.1639 -0.2686  0.1695
 1770W        W 2867   3.494   0.285   4.506  0.0847  0.2551 -0.1620
 1771W        W 2868   0.835   1.156   5.706 -0.1084  0.1897 -0.1124
 1772W        W 2869   2.679   2.466   6.655  0.2748 -0.3053  0.1057
 1773W        W 2870   2.655   3.232   4.205  0.0862  0.4431 -0.2955
 1774W        W 2871   2.246   5.333   1.790 -0.0655  0.1850  0.2349
 1775W        W 2872   5.925   7.515   3.738 -0.1181  0.0428  0.0362
 1776W        W 2873   3.399   2.059   5.585  0.1743  0.2545  0.0303
 1777W        W 2874   4.876   0.555   3.615  0.0935  0.0238 -0.0146
 1778W        W 2875   3.929   1.857   6.134 -0.1601  0.2712 -0.1736
 1779W        W 2876   7.479   1.148   1.066 -0.0537  0.1190 -0.0073
 1780W        W 2877   2.317   3.600   4.029  0.0056  0.2059 -0.2095
 1781W        W 2878   0.927   6.879   7.608  0.1017 -0.2474 -0.0067
 1782W        W 2879   7.116   0.802   0.944  0.0749  0.0334 -0.2211
 1783W        W 2880   0.776   6.780   5.310 -0.5572  0.3030  0.2535
 1784W        W 2881   2.306   2.072   2.764 -0.0330 -0.1920 -0.1502
 1785W        W 2882   6.377   0.227   1.320  0.2284  0.0405  0.1662
 1786W        W 2883   1.572   0.508   5.351  0.2273 -0.0723 -0.0434
 1787W        W 2884   0.293   2.394   6.003 -0.0868 -0.0844  0.1164
 1788W        W 2885   4.646   6.860   3.222 -0.1678  0.1155  0.4519
 1789W        W 2886   0.340   6.862   3.835  0.2989  0.0753  0.0931
 1790W        W 2887   4.682   0.841   1.594 -0.0886 -0.0027  0.0346
 1791W        W 2888   2.613   7.266   0.434  0.1517  0.1273  0.0492
 1792W        W 2889   7.558   5.187   3.714 -0.0547 -0.0756  0.0132
 1793W        W 2890   6.569   2.188   2.898  0.0712  0.0410 -0.0354
 1794W        W 2891   7.313   2.656   4.566  0.0989 -0.0481  0.0658
 1795W        W 2892   7.171   6.718   7.242 -0.1312  0.2383  0.1216
 1796W        W 2893   7.248   0.053   5.264 -0.0686  0.1608  0.0660
 1797W        W 2894   0.073   7.158   7.006 -0.1114  0.1936 -0.3106
 1798W        W 2895   6.227   7.521   4.618 -0.0887  0.2309 -0.2288
 1799W        W 2896   2.532   5.197   2.174  0.1389 -0.0633 -0.0102
 1800W        W 2897   5.730   3.194   0.702 -0.0392  0.1318  0.3430
 1801W        W 2898   7.060   1.714   1.758  0.1445  0.0934  0.0250
 1802W        W 2899   0.757   1.534   6.035  0.2134  0.1269  0.0759
 1803W        W 2900   0.345   1.285   5.524 -0.0067  0.0175 -0.2630
 1804W        W 2901   2.391   3.416   2.010 -0.1068 -0.1180  0.0257
 1805W        W 2902   3.377   3.161   2.271 -0.3304 -0.0203  0.1298
 1806W        W 2903   4.533   0.526   2.222  0.1958  0.0603  0.0315
 1807W        W 2904   3.688   2.070   6.476  0.0670 -0.2449 -0.1098
 1808W        W 2905   3.604   3.112   1.729 -0.1847 -0.3005 -0.0963
 1809W        W 2906   6.525   2.316   1.953 -0.0493 -0.1697 -0.2455
 1810W        W 2907   0.703   3.327   6.768  0.1377 -0.0068 -0.0305
 1811W        W 2908   5.118   6.164   3.964 -0.2407  0.1554  0.4502
 1812W        W 2909   7.638   0.062   3.751 -0.1654 -0.0482  0.2581
 1813W        W 2910   2.015   2.636   4.495  0.3220  0.2150  0.0650
 1814W        W 2911   4.364   6.839   6.607  0.2451 -0.1044  0.3521
 1815W        W 2912   4.800   6.733   5.445 -0.0877 -0.0842 -0.2767
 1816W        W 2913   3.501   5.514   6.415  0.0457  0.1558 -0.2007
 1817W        W 2914   2.645   6.163   3.210 -0.1571 -0.1726 -0.0355
 1818W        W 2915   6.635   0.800   0.785 -0.3762 -0.1048  0.0094
 1819W        W 2916   0.487   6.254   0.548 -0.3021 -0.1604  0.0514
 1820W        W 2917   2.842   4.459   3.837 -0.0217  0.1957 -0.1439
 1821W        W 2918   0.860   2.206   0.081 -0.2445  0.0962 -0.0177
 1822W        W 2919   6.684   1.351   2.170 -0.1105  0.0426 -0.2873
 1823W        W 2920   3.721   1.295   0.734  0.1322 -0.0687  0.2241
 1824W        W 2921   0.109   5.778   6.084  0.1714 -0.2860 -0.1388
 1825W        W 2922   2.607   7.157   4.801 -0.1305  0.3209 -0.1185
 1826W        W 2923   2.463   1.322   6.948 -0.0834  0.1692 -0.2138
 1827W        W 2924   5.373   6.844   5.912 -0.0043 -0.1202 -0.3281
 1828W        W 2925   1.688   0.057   0.517 -0.0449  0.0985  0.1171
 1829W        W 2926   2.527   2.935   2.336  0.0998 -0.0405  0.0215
 1830W        W 2927   4.622   6.102   6.381 -0.0702  0.1425  0.0613
 1831W        W 2928   0.966   4.397   5.635  0.3179  0.0956 -0.2148
 1832W        W 2929   3.873   5.028   7.397  0.1408  0.1403 -0.2351
 1833W        W 2930   1.132   3.483   6.398  0.0423  0.0751  0.0840
 1834W        W 2931   2.014   6.969   4.870 -0.0381 -0.1178  0.0476
 1835W        W 2932   7.071   7.205   4.891  0.1144 -0.0850 -0.0375
 1836W        W 2933   1.933   4.778   3.458  0.1848  0.0684  0.2155
 1837W        W 2934   6.738   4.673   4.862 -0.3550 -0.1617 -0.0578
 1838W        W 2935   4.265   3.094   3.115  0.4253  0.1850 -0.0706
 1839W        W 2936   2.752   0.992   0.263  0.1538  0.2458  0.0004
 1840W        W 2937   1.468   2.160   1.754 -0.1117 -0.0879  0.0625
 1841W        W 2938   5.261   2.998   0.875 -0.1674 -0.0526  0.0699
 1842W        W 2939   2.707   2.918   3.341  0.3434 -0.1492  0.2775
 1843W        W 2940   3.565   3.081   5.372 -0.0010  0.0670  0.4186
 1844W        W 2941   2.475   2.538   0.950 -0.0521  0.1011 -0.1554
 1845W        W 2942   3.026   1.857   0.217  0.1963  0.0122  0.0670
 1846W        W 2943   7.394   1.911   4.973 -0.1980 -0.2939  0.2533
 1847W        W 2944   4.771   6.403   3.424 -0.0430 -0.1261 -0.3080
 1848W        W 2945   2.540   4.710   1.342  0.1214  0.0943 -0.3520
 1849W        W 2946   5.705   2.098   3.174  0.0227  0.0013  0.3294
 1850W        W 2947   3.531   1.506   2.702  0.1488  0.0385  0.2537
 1851W        W 2948   1.301   2.217   7.422 -0.1157  0.0898 -0.0990
 1852W        W 2949   4.894   7.452   7.395  0.0077  0.0281  0.0447
 1853W        W 2950   6.209   0.947   4.051  0.4449 -0.0368 -0.3042
 1854W        W 2951   1.777   1.667   3.343 -0.0002  0.2804 -0.2955
 1855W        W 2952   6.742   0.540   1.207 -0.0041 -0.0196  0.1854
 1856W        W 2953   6.978   6.957   3.745 -0.0381 -0.0498  0.2716
 1857W        W 2954   5.095   1.264   4.843  0.1417  0.2367 -0.1476
 1858W        W 2955   2.060   0.506   0.780  0.0450 -0.1515 -0.0039
 1859W        W 2956   2.878   6.269   1.708  0.1894  0.1676 -0.0070
 1860W        W 2957   6.682   3.521   6.676 -0.0142  0.1643 -0.0528
 1861W        W 2958   5.693   1.588   0.675 -0.0867  0.2020 -0.0423
 1862W        W 2959   0.290   0.102   4.149  0.2083  0.1156 -0.0862
 1863W        W 2960   3.133   5.425   2.825  0.0923  0.2000  0.0173
 1864W        W 2961   1.074   0.445   5.170  0.2210  0.0810  0.2451
 1865W        W 2962   0.611   3.971   2.237 -0.2820 -0.2946 -0.2084
 1866W        W 2963   5.605   1.795   3.598  0.3464  0.2396 -0.2011
 1867W        W 2964   0.802   2.077   5.206 -0.0967  0.0356 -0.0993
 1868W        W 2965   0.365   4.720   3.427 -0.1343 -0.0105 -0.0100
 1869W        W 2966   6.989   3.736   7.341  0.3416 -0.1546 -0.0712
 1870W        W 2967   4.522   1.669   3.775 -0.0573  0.0690  0.0475
 1871W        W 2968   0.194   2.696   2.005 -0.0999 -0.2706  0.2231
 1872W        W 2969   2.109   7.512   0.740 -0.2008  0.2216  0.2641
 1873W        W 2970   2.702   3.678   2.515  0.0128  0.1103 -0.2430
 1874W        W 2971   3.774   2.231   5.209  0.3247 -0.0174 -0.0644
 1875W        W 2972   6.536   6.862   4.651 -0.3833 -0.2732  0.0452
 1876W        W 2973   3.173   3.557   2.868 -0.2095 -0.0100 -0.0535
 1877W        W 2974   5.778   3.631   7.624 -0.0971  0.1848 -0.1012
 1878W        W 2975   6.517   2.495   4.019  0.1159  0.0038 -0.2150
 1879W        W 2976   0.508   3.041   2.320 -0.1115  0.0276  0.3753
 1880W        W 2977   5.476   7.428   2.800  0.0145  0.2202 -0.2462
 1881W        W 2978   2.179   5.724   1.473  0.0869 -0.0831 -0.0484
 1882W        W 2979   5.340   4.795   5.186 -0.3022  0.1832 -0.0426
 1883W        W 2980   2.837   3.632   1.427 -0.2314 -0.0567 -0.0798
 1884W        W 2981   0.075   5.004   0.792  0.1588  0.4446 -0.1086
 1885W        W 2982   1.665   2.009   0.072  0.1941 -0.1683  0.1683
 1886W        W 2983   4.501   1.894   2.113 -0.1358 -0.0796  0.1483
 1887W        W 2984   0.849   7.191   5.847  0.3094  0.0202  0.1895
 1888W        W 2985   5.311   7.021   4.035  0.0228  0.0908 -0.1322
 1889W        W 2986   2.874   6.662   6.137  0.0086 -0.0139  0.2714
 1890W        W 2987   2.540   6.846   2.515  0.0976  0.0055 -0.2564
 1891W        W 2988   4.733   0.115   0.259  0.2554  0.1779 -0.0403
 1892W        W 2989   2.006   0.586   2.851  0.0219 -0.0776  0.2000
 1893W        W 2990   3.498   1.068   7.460 -0.0812 -0.0527  0.5990
 1894W        W 2991   0.341   3.638   4.559 -0.3478  0.0291 -0.1290
 1895W        W 2992   7.301   0.561   5.050 -0.1386  0.0768  0.1329
 1896W        W 2993   6.370   6.078   3.796 -0.0123  0.0067  0.3012
 1897W        W 2994   4.531   5.950   3.198  0.0478 -0.2026 -0.2342
 1898W        W 2995   4.222   1.451   5.153  0.1197  0.1281  0.2487
 1899W        W 2996   0.210   5.735   0.221 -0.0638  0.0949 -0.0791
 1900W        W 2997   6.417   3.095   0.021  0.1642 -0.1488  0.2758
 1901W        W 2998   3.827   4.096   4.754  0.4160 -0.0209  0.2692
 1902W        W 2999   4.468   7.635   6.544 -0.0174  0.0570 -0.0064
 1903W        W 3000   1.384   4.002   0.205 -0.0515  0.0119  0.0166
 1904W        W 3001   1.633   1.803   5.515  0.1861  0.1144 -0.1067
 1905W        W 3002   3.397   0.336   2.267  0.2431 -0.1175  0.2617
 1906W        W 3003   4.744   1.217   7.619  0.1329  0.0245  0.2001
 1907W        W 3004   4.862   1.328   0.986 -0.1190  0.1455 -0.1588
 1908W        W 3005   5.675   6.432   4.488 -0.3035  0.0379 -0.1220
 1909W        W 3006   1.667   3.275   6.051  0.2580 -0.1807 -0.2134
 1910W        W 3007   3.212   1.809   7.235 -0.0498 -0.0438  0.1213
 1911W        W 3008   0.728   6.168   1.913 -0.2035 -0.0902  0.0479
 1912W        W 3009   5.532   7.430   5.355  0.1288 -0.2271  0.0225
 1913W        W 3010   4.479   0.899   1.108 -0.1796  0.1154  0.2141
 1914W        W 3011   2.183   7.439   0.261  0.0418  0.0533 -0.3622
 1915W        W 3012   5.860   1.617   4.697  0.0012  0.2357 -0.1924
 1916W        W 3013   5.030   7.280   0.272 -0.0004 -0.1694  0.0595
 1917W        W 3014   1.855   1.545   4.472 -0.3267 -0.0917 -0.1050
 1918W        W 3015   0.916   2.336   2.449  0.1326 -0.0841  0.0801
 1919W        W 3016   5.201   6.497   4.759  0.1296  0.2605 -0.2053
 1920W        W 3017   3.873   5.832   3.811 -0.0142  0.1966  0.1651
 1921W        W 3018   0.106   5.608   5.575  0.1535 -0.0547  0.0169
 1922W        W 3019   3.253   0.011   3.979 -0.2006  0.0356 -0.0845
 1923W        W 3020   7.558   4.943   6.316 -0.0839  0.2795  0.0893
 1924W        W 3021   1.786   2.644   1.728  0.0528  0.0126 -0.1369
 1925W        W 3022   7.416   2.474   7.158 -0.3350  0.0812  0.0219
 1926W        W 3023   3.957   7.009   5.387  0.0489  0.0370 -0.0437
 1927W        W 3024   2.237   6.470   1.003 -0.2168  0.1423  0.2698
 1928W        W 3025   6.762   1.016   3.967  0.2664 -0.1114  0.0588
 1929W        W 3026   6.658   0.769   7.508  0.1532  0.0681  0.1084
 1930W        W 3027   4.938   6.488   5.863  0.1434  0.0203  0.0172
 1931W        W 3028   1.693   0.990   0.004  0.1169  0.1166 -0.0353
 1932W        W 3029   0.594   4.223   5.958  0.0322  0.4996 -0.1605
 1933W        W 3030   3.219   0.805   7.104 -0.1538  0.2349 -0.1690
 1934W        W 3031   7.462   5.175   6.753 -0.1990  0.1730  0.3336
 1935W        W 3032   6.460   5.216   5.726 -0.0137 -0.1243  0.2144
 1936W        W 3033   2.219   1.595   4.878 -0.0856 -0.1866  0.3345
 1937W        W 3034   6.938   0.208   5.686  0.0571  0.1876  0.1359
 1938W        W 3035   6.993   6.507   3.324  0.1165  0.0505 -0.0087
 1939W        W 3036   0.236   5.645   3.249 -0.2830  0.2222 -0.0102
 1940W        W 3037   2.177   1.140   0.259  0.0940  0.0223  0.1073
 1941W        W 3038   3.118   7.375   6.870  0.1608  0.1563  0.2954
 1942W        W 3039   5.259   5.893   0.551 -0.3328 -0.0611 -0.3753
 1943W        W 3040   3.241   4.315   2.060 -0.1322  0.0114 -0.0630
 1944W        W 3041   5.674   2.984   7.464 -0.1025 -0.1750 -0.2515
 1945W        W 3042   4.153   3.296   2.655  0.1803 -0.2766  0.0920
 1946W        W 3043   5.611   1.969   2.069 -0.2716  0.0738  0.1108
 1947W        W 3044   1.140   7.637   6.911 -0.0593  0.1543 -0.1846
 1948W        W 3045   1.600   1.931   3.739  0.0696 -0.4380 -0.3606
 1949W        W 3046   2.428   3.007   7.339  0.0093 -0.0087  0.3253
 1950W        W 3047   3.029   1.934   2.749 -0.2209 -0.3548 -0.1501
 1951W        W 3048   6.113   0.238   3.317  0.1393  0.0875 -0.0341
 1952W        W 3049   5.088   2.708   1.988  0.2491  0.0777 -0.1722
 1953W        W 3050   4.446   1.146   2.906  0.1077 -0.0518  0.1755
 1954W        W 3051   2.350   2.836   1.374  0.1672  0.2495  0.1834
 1955W        W 3052   2.336   0.358   3.690 -0.1791  0.2843 -0.2550
 1956W        W 3053   2.270   7.122   3.347  0.1496 -0.1137  0.1261
 1957W        W 3054   2.801   3.149   2.878  0.2770 -0.1208 -0.2389
 1958W        W 3055   5.163   0.419   0.112 -0.1192 -0.0113 -0.0781
 1959W        W 3056   3.058   6.959   2.612 -0.0945 -0.2310  0.0172
 1960W        W 3057   6.328   6.783   2.821  0.1790  0.2334 -0.0738
 1961W        W 3058   4.558   1.315   4.781  0.0769  0.0249 -0.1171
 1962W        W 3059   7.116   5.517   4.513  0.0895  0.2793 -0.1967
 1963W        W 3060   4.085   1.414   4.591 -0.3653  0.0053  0.2075
 1964W        W 3061   0.635   6.405   2.770 -0.0509 -0.2173 -0.0404
 1965W        W 3062   6.762   7.109   0.972  0.1398  0.1614 -0.0927
 1966W        W 3063   6.923   7.597   6.660 -0.0184 -0.2477 -0.2174
 1967W        W 3064   5.018   7.470   0.796  0.1158  0.1282  0.0407
 1968W        W 3065   7.313   6.577   1.221  0.0646 -0.1384 -0.0583
 1969W        W 3066   0.604   7.160   6.733  0.2147 -0.0670  0.2114
 1970W        W 3067   6.875   3.360   6.184 -0.3804  0.2350 -0.0839
 1971W        W 3068   6.516   6.092   5.251  0.3596 -0.1679 -0.0347
 1972W        W 3069   5.427   2.954   0.294 -0.2437  0.5206  0.1020
 1973W        W 3070   5.398   7.105   2.145  0.1143  0.4015 -0.2233
 1974W        W 3071   4.503   0.366   4.129 -0.1290 -0.0631 -0.0599
 1975W        W 3072   6.339   6.241   6.826  0.0520 -0.0032  0.1503
 1976W        W 3073   3.253   6.406   1.343 -0.1844 -0.1177  0.1199
 1977W        W 3074   1.893   0.405   5.762  0.0985  0.0624  0.1556
 1978W        W 3075   4.970   3.892   0.560 -0.0626 -0.1153 -0.0126
 1979W        W 3076   4.164   5.285   3.933 -0.2266 -0.4241  0.0797
 1980W        W 3077   5.211   1.693   0.868  0.0515 -0.2909 -0.1195
 1981W        W 3078   6.206   0.931   7.389 -0.1348  0.3595 -0.1239
 1982W        W 3079   3.938   0.696   5.296 -0.1103 -0.0062 -0.2542
 1983W        W 3080   0.239   4.268   1.005 -0.1116  0.0397 -0.0983
 1984W        W 3081   4.724   0.701   0.121  0.1555  0.0817  0.0427
 1985W        W 3082   0.912   1.757   0.613  0.1238 -0.0153  0.0488
 1986W        W 3083   4.258   0.216   0.507  0.2284 -0.0504 -0.0058
 1987W        W 3084   0.218   1.931   5.775 -0.0889  0.0393  0.0472
 1988W        W 3085   6.660   3.626   0.775 -0.0202 -0.1641 -0.5351
 1989W        W 3086   4.023   7.395   5.756  0.0337 -0.2650 -0.0245
 1990W        W 3087   6.060   7.580   0.865  0.0496  0.2403  0.2064
 1991W        W 3088   7.189   2.791   6.796 -0.0375  0.0660 -0.0494
 1992W        W 3089   1.572   1.662   2.392 -0.4496 -0.2238  0.3844
 1993W        W 3090   2.416   0.022   1.614 -0.3539  0.0987  0.0527
 1994W        W 3091   1.586   6.799   6.980 -0.2624 -0.0370 -0.2437
 1995W        W 3092   1.371   2.389   3.780 -0.0116  0.1093  0.0137
 1996W        W 3093   3.356   3.503   1.422  0.0518  0.1515  0.3151
 1997W        W 3094   7.276   5.439   5.031  0.1402 -0.0395 -0.2750
 1998W        W 3095   6.760   1.554   6.174  0.2671  0.3416  0.0763
 1999W        W 3096   3.191   6.492   6.516  0.1725 -0.3931  0.3302
 2000W        W 3097   3.979   3.836   0.471  0.0267 -0.1012 -0.0273
 2001W        W 3098   7.154   6.035   0.830 -0.2844  0.0917  0.1912
 2002W        W 3099   1.419   6.902   3.235 -0.0955  0.0529 -0.1418
 2003W        W 3100   1.546   0.546   0.776 -0.0614 -0.1340  0.4326
 2004W        W 3101   7.589   1.707   5.477 -0.0562  0.0830 -0.0120
 2005W        W 3102   1.398   7.064   2.751  0.0533 -0.1998 -0.1893
 2006W        W 3103   5.860   4.821   4.453  0.0811 -0.0350 -0.2507
 2007W        W 3104   7.613   6.749   4.103  0.4048 -0.0200  0.0933
 2008W        W 3105   6.049   1.129   5.971 -0.0130 -0.0588 -0.2524
 2009W        W 3106   1.690   2.395   6.308 -0.0937 -0.1059 -0.0553
 2010W        W 3107   3.782   5.106   2.126  0.0121 -0.2488 -0.1091
 2011W        W 3108   1.363   7.308   0.692 -0.0536  0.2284  0.0700
 2012W        W 3109   3.112   0.752   7.609  0.2439 -0.0864  0.2459
 2013W        W 3110   2.076   1.714   3.784 -0.1119  0.1403 -0.1802
 2014W        W 3111   3.660   1.507   3.263 -0.1136 -0.2358 -0.1381
 2015W        W 3112   1.472   7.342   4.153 -0.0158 -0.1078  0.0721
 2016W        W 3113   7.201   6.580   2.810 -0.0787 -0.1886 -0.0990
 2017W        W 3114   3.044   4.893   0.764  0.0552  0.3195  0.0287
 2018W        W 3115   2.008   4.870   1.474 -0.2685 -0.1072 -0.1093
 2019W        W 3116   0.074   1.274   7.006  0.1540  0.0438  0.0483
 2020W        W 3117   5.139   0.812   5.615 -0.0208  0.0794 -0.0241
 2021W        W 3118   2.760   1.394   5.857 -0.2180 -0.1659  0.0979
 2022W        W 3119   0.653   0.264   6.609  0.0022 -0.0745 -0.1060
 2023W        W 3120   3.347   5.844   3.654  0.1432 -0.0773 -0.1744
 2024W        W 3121   1.067   3.952   2.052 -0.2767 -0.0044  0.0750
 2025W        W 3122   7.209   6.450   4.318 -0.2945 -0.2417  0.2143
 2026W        W 3123   2.046   3.081   2.186  0.2420  0.3034 -0.0509
 2027W        W 3124   6.939   4.631   4.385  0.1251 -0.0178 -0.1427
 2028W        W 3125   2.322   1.424   1.120  0.3129  0.1129  0.0041
 2029W        W 3126   1.091   0.492   2.317 -0.1280  0.0040 -0.0306
 2030W        W 3127   3.877   6.829   5.905  0.1047  0.1379  0.2413
 2031W        W 3128   7.201   1.530   5.212 -0.1259 -0.1211  0.0994
 2032W        W 3129   3.017   2.690   2.914  0.0694  0.0512  0.0199
 2033W        W 3130   5.603   4.927   6.408 -0.0906  0.0485 -0.0972
 2034W        W 3131   1.527   4.995   1.369  0.1339  0.2855  0.0917
 2035W        W 3132   5.160   4.802   5.771  0.0024  0.1017 -0.0002
 2036W        W 3133   0.359   2.292   3.698  0.0309  0.2214 -0.1239
 2037W        W 3134   6.246   6.326   2.642 -0.0798 -0.1566  0.0490
 2038W        W 3135   3.023   6.432   2.820 -0.3486  0.1921 -0.0602
 2039W        W 3136   0.336   1.431   3.528  0.0989 -0.0431 -0.1856
 2040W        W 3137   6.838   1.266   6.645  0.4049 -0.0565  0.1500
 2041W        W 3138   2.831   1.923   2.088  0.1012  0.0541 -0.1857
 2042W        W 3139   1.405   6.484   1.419 -0.1382  0.2424  0.1870
 2043W        W 3140   4.030   6.750   0.688  0.2280  0.1887  0.1001
 2044W        W 3141   1.065   6.159   5.922 -0.0321 -0.0397 -0.0352
 2045W        W 3142   2.359   1.792   1.438 -0.3126  0.0384  0.5666
 2046W        W 3143   4.303   1.357   1.104  0.0375 -0.0011 -0.2462
 2047W        W 3144   0.296   6.631   0.201 -0.0938  0.0404  0.1166
 2048W        W 3145   2.792   4.365   1.584  0.3453 -0.1461  0.1021
 2049W        W 3146   2.174   3.160   3.777  0.2762 -0.1362 -0.1538
 2050W        W 3147   5.840   5.559   7.563  0.0202 -0.1148  0.3425
 2051W        W 3148   0.606   5.584   5.703  0.0531 -0.4928  0.1092
 2052W        W 3149   2.518   6.457   2.808 -0.0684  0.0716 -0.1160
 2053W        W 3150   7.447   4.404   1.378  0.0195 -0.1268  0.0900
 2054W        W 3151   3.101   7.460   5.607 -0.2151  0.0083  0.2894
 2055W        W 3152   4.319   5.782   4.028 -0.0408  0.0258 -0.1141
 2056W        W 3153   4.206   0.933   4.809  0.2014  0.0977 -0.1922
 2057W        W 3154   6.226   4.594   6.262  0.1064 -0.1407 -0.4388
 2058W        W 3155   6.360   4.616   5.656  0.1097 -0.0086  0.3894
 2059W        W 3156   4.819   0.215   3.210  0.1339  0.0156  0.0024
 2060W        W 3157   6.962   1.556   3.388  0.1545 -0.1989  0.0404
 2061W        W 3158   5.745   0.670   3.342  0.1381 -0.3737 -0.2030
 2062W        W 3159   5.371   6.500   2.765 -0.1049  0.0863  0.0984
 2063W        W 3160   3.074   0.930   3.902  0.0175  0.2657 -0.2439
 2064W        W 3161   6.565   5.532   3.602  0.2522 -0.0273 -0.1574
 2065W        W 3162   2.023   6.588   5.833  0.0077  0.0565 -0.4615
 2066W        W 3163   0.135   5.146   2.434  0.1433  0.1386  0.0428
 2067W        W 3164   2.135   3.066   5.241 -0.2962 -0.1569 -0.2109
 2068W        W 3165   3.572   6.207   6.015 -0.3729  0.0619  0.1817
 2069W        W 3166   1.526   1.534   6.232 -0.2242  0.1150  0.0325
 2070W        W 3167   1.542   6.295   0.572  0.0359 -0.1557 -0.2622
 2071W        W 3168   2.012   7.508   3.348 -0.3262 -0.1102 -0.0208
 2072W        W 3169   3.480   4.415   1.541 -0.0692  0.3559  0.4295
 2073W        W 3170   2.056   2.486   2.935 -0.3984  0.0456  0.0336
 2074W        W 3171   5.190   1.308   4.385 -0.0515 -0.0003  0.1683
 2075W        W 3172   0.779   4.894   2.678  0.0344  0.2375 -0.1111
 2076W        W 3173   0.583   1.496   3.152 -0.4204  0.2894  0.3832
 2077W        W 3174   5.664   6.920   5.367 -0.2637 -0.0255 -0.1311
 2078W        W 3175   4.364   1.131   3.752  0.3363 -0.1753 -0.3290
 2079W        W 3176   3.193   6.897   1.426  0.1201 -0.1349  0.5257
 2080W        W 3177   1.438   0.621   6.812 -0.0303  0.1661  0.0322
 2081W        W 3178   3.700   0.916   5.678 -0.0861 -0.0122  0.2424
 2082W        W 3179   1.137   1.554   7.012  0.0643  0.1297 -0.5025
 2083W        W 3180   0.821   5.326   1.851 -0.3120  0.0437 -0.2899
 2084W        W 3181   4.149   6.542   0.175  0.1277  0.0565  0.3106
 2085W        W 3182   2.833   3.931   3.668 -0.1206  0.1727 -0.0172
 2086W        W 3183   4.110   3.447   4.043  0.1565 -0.1987  0.1567
 2087W        W 3184   2.513   5.090   3.565 -0.1956  0.0517 -0.0956
 2088W        W 3185   7.316   1.730   5.896 -0.2940  0.0104  0.2035
 2089W        W 3186   2.670   6.699   7.294 -0.2418 -0.0677 -0.2188
 2090W        W 3187   0.387   4.477   4.997 -0.2098 -0.1643 -0.4345
 2091W        W 3188   0.969   2.618   5.382  0.1894 -0.2188  0.3331
 2092W        W 3189   7.543   3.502   6.745  0.0273  0.2448  0.2199
 2093W        W 3190   5.181   7.121   6.727  0.1265 -0.2744 -0.1617
 2094W        W 3191   3.389   6.277   6.995  0.0945 -0.1746 -0.0852
 2095W        W 3192   1.047   6.862   2.279  0.4676  0.2054  0.0078
 2096W        W 3193   3.601   6.387   0.811 -0.2385  0.0005 -0.0588
 2097W        W 3194   6.224   0.025   2.351  0.2022 -0.1069  0.1751
 2098W        W 3195   0.379   0.415   7.191 -0.1149  0.1274 -0.1124
 2099W        W 3196   0.725   6.097   0.938 -0.2688  0.0471 -0.0425
 2100W        W 3197   7.085   6.549   6.370  0.3330  0.0895 -0.2083
 2101W        W 3198   4.809   6.184   5.506  0.0397 -0.0678 -0.1043
 2102W        W 3199   2.090   0.616   5.309  0.2338  0.0773 -0.0965
 2103W        W 3200   0.093   5.921   0.772  0.1283  0.0887  0.1977
 2104W        W 3201   2.016   1.233   3.546 -0.1332 -0.1352  0.3527
 2105W        W 3202   7.368   5.441   4.077 -0.1849 -0.0615 -0.0935
 2106W        W 3203   4.755   0.272   0.764 -0.1752  0.1457  0.1964
 2107W        W 3204   1.329   5.440   6.457  0.1841 -0.2203  0.0024
 2108W        W 3205   5.135   4.926   0.534 -0.3256  0.1917 -0.1834
 2109W        W 3206   5.836   7.290   4.906 -0.3735 -0.0112  0.0658
 2110W        W 3207   1.119   2.204   1.414  0.1027 -0.0614  0.0257
 2111W        W 3208   3.000   2.242   7.510 -0.2002  0.1579 -0.1443
 2112W        W 3209   1.220   5.966   1.080  0.3552 -0.0840  0.1868
 2113W        W 3210   0.134   7.197   2.563 -0.0421  0.1428 -0.1570
 2114W        W 3211   2.363   6.830   1.386  0.2710  0.1151 -0.2050
 2115W        W 3212   4.893   0.370   4.811 -0.0783  0.1308  0.1129
 2116W        W 3213   2.382   6.592   6.289 -0.0542 -0.2578 -0.1983
 2117W        W 3214   7.259   7.124   2.493  0.2201 -0.0300 -0.2263
 2118W        W 3215   4.359   6.015   0.928 -0.0725 -0.1837 -0.2856
 2119W        W 3216   6.959   5.931   0.005 -0.3380 -0.0280 -0.0797
 2120W        W 3217   0.892   3.718   4.460  0.0353  0.0143  0.1347
 2121W        W 3218   2.366   7.025   6.594  0.1469  0.4332  0.1562
 2122W        W 3219   6.615   6.913   3.302 -0.2567 -0.1221  0.0034
 2123W        W 3220   1.686   0.092   4.419  0.1485 -0.1663 -0.1662
 2124W        W 3221   7.318   5.974   3.558  0.1318 -0.0670  0.1186
 2125W        W 3222   0.758   2.728   4.449  0.0236  0.1474  0.1805
 2126W        W 3223   0.589   4.142   6.437 -0.0249 -0.1927  0.0860
 2127W        W 3224   6.294   6.876   2.125  0.0341 -0.2878 -0.1132
 2128W        W 3225   0.951   4.508   7.520  0.1577 -0.0463 -0.0284
 2129W        W 3226   5.632   0.985   6.526  0.0411 -0.1263  0.0660
 2130W        W 3227   1.746   6.521   5.420  0.0250 -0.2263  0.3260
 2131W        W 3228   1.840   2.000   2.864  0.0681 -0.2016  0.2482
 2132W        W 3229   4.716   1.743   3.225  0.0769  0.3648 -0.1251
 2133W        W 3230   4.708   5.810   0.530  0.1263 -0.0142 -0.0959
 2134W        W 3231   3.017   0.126   6.410 -0.0927 -0.2670 -0.3564
 2135W        W 3232   6.525   6.023   0.366  0.3372 -0.4884  0.2828
 2136W        W 3233   0.396   2.797   0.860  0.1354  0.0989  0.1616
 2137W        W 3234   1.807   7.168   2.998 -0.1028 -0.3080 -0.0352
 2138W        W 3235   5.613   4.851   5.876 -0.3070  0.1887  0.0343
 2139W        W 3236   7.324   7.188   6.398 -0.1757  0.1729  0.0647
 2140W        W 3237   3.904   1.993   3.797 -0.3500 -0.1231 -0.2830
 2141W        W 3238   3.872   1.663   0.200 -0.3437 -0.0649 -0.2576
 2142W        W 3239   5.771   5.936   0.746 -0.1260  0.0433  0.0566
 2143W        W 3240   1.769   6.451   6.276 -0.1681  0.2547  0.1121
 2144W        W 3241   1.317   1.506   3.644  0.0340 -0.1220 -0.0254
 2145W        W 3242   6.221   5.301   7.480 -0.0408  0.0676 -0.3146
 2146W        W 3243   0.459   1.751   0.777 -0.0608  0.3450 -0.0492
 2147W        W 3244   4.897   3.216   2.122 -0.1700 -0.1712 -0.0692
 2148W        W 3245   6.374   6.330   0.031  0.0590  0.2030 -0.0616
 2149W        W 3246   0.557   7.194   3.184  0.1494  0.0916 -0.1018
 2150W        W 3247   5.258   2.769   1.344  0.0153  0.1504  0.0652
 2151W        W 3248   1.891   3.528   2.937 -0.0918  0.0794 -0.1156
 2152W        W 3249   5.549   0.642   1.267 -0.2219  0.0809  0.2001
 2153W        W 3250   3.847   2.810   2.338 -0.2125  0.0474 -0.0452
 2154W        W 3251   4.029   2.495   4.662  0.4419  0.1804 -0.2117
 2155W        W 3252   0.442   0.005   5.218 -0.3226  0.0237  0.2016
 2156W        W 3253   3.860   7.501   0.463 -0.1779 -0.0774 -0.2975
 2157W        W 3254   6.532   1.854   0.051  0.1627  0.0865 -0.1164
 2158W        W 3255   6.454   5.329   0.278  0.2994  0.0982 -0.1584
 2159W        W 3256   4.007   6.486   4.446  0.0716 -0.2020  0.3627
 2160W        W 3257   1.693   7.287   5.999  0.1642 -0.0245  0.1523
 2161W        W 3258   1.063   2.346   3.174  0.0103  0.0823 -0.1733
 2162W        W 3259   1.724   2.816   6.885  0.1386 -0.1052  0.1138
 2163W        W 3260   0.899   4.142   5.197  0.0932 -0.1220 -0.1733
 2164W        W 3261   1.875   3.845   3.722 -0.1449  0.3606  0.0564
 2165W        W 3262   0.190   5.318   5.123  0.3004 -0.2754  0.0991
 2166W        W 3263   4.932   4.869   4.363  0.2931 -0.1088  0.1267
 2167W        W 3264   5.000   6.697   1.848 -0.1691 -0.3397 -0.3867
 2168W        W 3265   4.679   3.378   0.813 -0.0667 -0.0922 -0.0237
 2169W        W 3266   0.062   2.150   5.311 -0.1024 -0.1124  0.1785
 2170W        W 3267   3.139   3.964   1.670 -0.1110 -0.0721 -0.3592
 2171W        W 3268   3.160   5.795   1.859  0.0675  0.3056 -0.3144
 2172W        W 3269   6.058   6.415   2.153  0.1267 -0.0815 -0.2979
 2173W        W 3270   1.780   6.494   7.369  0.1702 -0.2200  0.4101
 2174W        W 3271   1.190   0.211   5.560 -0.3374 -0.0327 -0.0119
 2175W        W 3272   4.324   6.117   4.464 -0.0325 -0.0757  0.0189
 2176W        W 3273   0.868   1.393   2.721  0.1325  0.1895 -0.1398
 2177W        W 3274   3.784   2.383   0.865  0.2372  0.1040  0.0891
 2178W        W 3275   1.105   3.911   7.322 -0.3859  0.3780  0.1701
 2179W        W 3276   6.748   4.505   6.386 -0.0280  0.0885  0.0341
 2180W        W 3277   1.731   3.112   3.218  0.0559  0.1238  0.2485
 2181W        W 3278   7.456   4.807   2.595  0.3191  0.1285 -0.0590
 2182W        W 3279   6.092   2.738   7.465  0.1369 -0.0386 -0.1747
 2183W        W 3280   1.352   1.204   4.426  0.1611  0.1022 -0.2222
 2184W        W 3281   7.325   0.636   4.572 -0.0919  0.1633 -0.2496
 2185W        W 3282   7.118   3.697   5.937  0.1379 -0.0499  0.2959
 2186W        W 3283   0.901   1.855   2.923  0.3006  0.1681  0.1480
 2187W        W 3284   3.469   7.091   5.785 -0.2656  0.1552  0.1193
 2188W        W 3285   2.005   1.305   7.380  0.4207  0.1516 -0.0698
 2189W        W 3286   0.984   5.070   6.213 -0.0500  0.1426  0.1078
 2190W        W 3287   1.492   5.390   1.062 -0.1410  0.0497 -0.0439
 2191W        W 3288   6.950   5.252   5.849 -0.3238 -0.3840 -0.1750
 2192W        W 3289   7.420   0.501   6.952  0.0551 -0.2653 -0.0116
 2193W        W 3290   2.029   1.665   6.497  0.2076  0.1427  0.2170
 2194W        W 3291   1.360   2.174   2.272  0.1014  0.1356  0.3355
 2195W        W 3292   0.169   4.717   1.221  0.0144  0.1228  0.1935
 2196W        W 3293   6.700   0.662   5.670  0.1627  0.0706 -0.2780
 2197W        W 3294   1.073   2.848   4.911  0.1129  0.1145  0.3757
 2198W        W 3295   1.348   5.434   7.429 -0.0388 -0.3836  0.0330
 2199W        W 3296   7.500   4.929   2.115 -0.0786 -0.3023 -0.3109
 2200W        W 3297   4.195   6.824   1.190  0.3002 -0.2745 -0.0255
 2201W        W 3298   7.216   4.264   6.606 -0.1892  0.0607  0.1418
 2202W        W 3299   4.791   7.257   5.275 -0.1606 -0.0507 -0.1364
 2203W        W 3300   1.162   1.723   6.520 -0.0272 -0.0445  0.2215
 2204W        W 3301   3.970   0.432   4.565 -0.0140  0.3385 -0.0026
 2205W        W 3302   3.483   5.141   0.737 -0.0034 -0.0293 -0.0298
 2206W        W 3303   5.879   4.635   7.321  0.1506  0.0345  0.2145
 2207W        W 3304   1.447   3.022   1.608 -0.0882 -0.2995  0.1156
 2208W        W 3305   1.604   2.800   0.856  0.3241 -0.1121  0.1035
 2209W        W 3306   5.042   3.510   4.364 -0.0505 -0.0101 -0.2131
 2210W        W 3307   1.645   5.856   2.281  0.3344 -0.0296  0.0642
 2211W        W 3308   3.215   2.920   3.672  0.0480  0.1342  0.0620
 2212W        W 3309   4.073   6.262   0.582 -0.1855 -0.3927 -0.1346
 2213W        W 3310   2.068   2.198   1.876 -0.4081 -0.2973  0.1376
 2214W        W 3311   4.453   5.354   6.773 -0.2171  0.1245  0.0205
 2215W        W 3312   4.307   5.888   6.749 -0.1545 -0.0819  0.1192
 2216W        W 3313   1.865   0.155   5.170 -0.3985 -0.1292 -0.4713
 2217W        W 3314   0.842   1.524   3.619  0.1529  0.0083 -0.1440
 2218W        W 3315   7.357   0.873   4.098 -0.2622 -0.0361  0.0331
 2219W        W 3316   3.924   6.673   3.787 -0.2359 -0.1887 -0.0194
 2220W        W 3317   0.283   4.720   2.156 -0.2164 -0.1510  0.0349
 2221W        W 3318   3.730   4.538   3.706  0.2285  0.2417 -0.1932
 2222W        W 3319   3.876   2.831   2.840 -0.1151  0.0768 -0.0667
 2223W        W 3320   4.974   5.177   5.392 -0.0382  0.0903  0.1344
 2224W        W 3321   1.114   4.542   1.805 -0.2392 -0.2788 -0.2028
 2225W        W 3322   0.746   5.505   4.308  0.4996 -0.0138  0.0294
 2226W        W 3323   2.181   6.345   7.099 -0.1561 -0.1306  0.2074
 2227W        W 3324   1.854   3.549   2.332  0.2906 -0.1187  0.2065
 2228W        W 3325   0.786   0.087   2.984  0.1078  0.1485  0.1803
 2229W        W 3326   6.409   1.120   6.366 -0.0597  0.1982  0.1886
 2230W        W 3327   4.553   7.435   0.631 -0.0499  0.1165  0.0319
 2231W        W 3328   1.013   3.410   7.283 -0.0731 -0.3657 -0.1220
 2232W        W 3329   1.334   0.217   6.521  0.1043 -0.1503  0.0941
 2233W        W 3330   3.732   5.695   2.719 -0.1060  0.0276 -0.0855
 2234W        W 3331   3.084   4.128   4.233 -0.0209  0.2109  0.1628
 2235W        W 3332   3.860   0.408   0.905 -0.1603 -0.4412 -0.2714
 2236W        W 3333   7.283   4.056   5.644  0.0106 -0.0481 -0.0507
 2237W        W 3334   6.859   7.005   6.305 -0.0450  0.1030 -0.0922
 2238W        W 3335   5.059   3.566   1.661 -0.0358  0.2155 -0.0691
 2239W        W 3336   2.549   4.744   2.459 -0.0029  0.2713 -0.3053
 2240W        W 3337   4.820   0.342   7.414 -0.1262 -0.0426 -0.2422
 2241W        W 3338   4.161   7.519   0.979  0.4192 -0.2546 -0.1487
 2242W        W 3339   5.578   2.596   0.698  0.1829 -0.0440  0.1099
 2243W        W 3340   7.423   1.658   6.839  0.0493 -0.4670  0.0189
 2244W        W 3341   4.121   7.286   2.605  0.0297  0.2202 -0.0388
 2245W        W 3342   2.755   4.411   3.343 -0.2089  0.0021  0.0614
 2246W        W 3343   7.493   6.732   5.531 -0.0896 -0.0275 -0.2497
 2247W        W 3344   1.906   3.014   5.671 -0.1835 -0.2928  0.0199
 2248W        W 3345   0.525   4.578   0.754 -0.0635 -0.4274  0.1026
 2249W        W 3346   0.072   5.700   3.769  0.1790  0.3321 -0.3669
 2250W        W 3347   3.385   2.410   2.675 -0.1298 -0.1279 -0.2208
 2251W        W 3348   0.476   3.105   2.936 -0.1550 -0.0789 -0.0097
 2252W        W 3349   3.669   7.148   4.987  0.1513  0.0071  0.0132
 2253W        W 3350   4.996   0.618   2.907 -0.4246 -0.0809 -0.3499
 2254W        W 3351   1.116   6.014   2.328  0.1290 -0.1151  0.0460
 2255W        W 3352   4.696   2.685   2.883  0.0165  0.1221  0.4317
 2256W        W 3353   4.631   3.189   4.098  0.2413 -0.0784 -0.0391
 2257W        W 3354   0.504   3.057   1.812  0.0671  0.2113  0.0240
 2258W        W 3355   4.386   2.652   1.480  0.1171  0.0296 -0.2564
 2259W        W 3356   4.078   7.352   7.589 -0.0789  0.2325  0.2427
 2260W        W 3357   2.788   6.561   1.213  0.0536 -0.0632  0.0098
 2261W        W 3358   0.705   0.223   3.871 -0.2024  0.3339 -0.1640
 2262W        W 3359   1.551   1.549   4.078 -0.2676  0.2088 -0.2538
 2263W        W 3360   1.455   4.118   1.641  0.0662  0.2532 -0.0675
 2264W        W 3361   2.531   1.202   0.703 -0.0973  0.0888  0.2078
 2265W        W 3362   1.580   1.306   5.785  0.3921 -0.0430 -0.0908
 2266W        W 3363   0.401   6.792   7.004 -0.0950 -0.1062 -0.2006
 2267W        W 3364   7.404   4.972   7.339  0.0145 -0.1686 -0.1185
 2268W        W 3365   0.360   3.068   4.325  0.0955  0.0073  0.0722
 2269W        W 3366   7.375   7.543   3.282  0.2015  0.1208 -0.0586
 2270W        W 3367   3.665   2.083   2.315  0.1272 -0.2227 -0.4182
 2271W        W 3368   3.166   3.221   4.079 -0.1281 -0.0571 -0.1487
 2272W        W 3369   5.542   6.168   3.639  0.2657  0.0824 -0.2715
 2273W        W 3370   5.640   4.269   7.521 -0.1758  0.2352 -0.2006
 2274W        W 3371   6.309   7.059   7.286 -0.0884  0.1979 -0.0866
 2275W        W 3372   2.990   0.873   2.742  0.2467  0.4819  0.1255
 2276W        W 3373   3.322   4.530   4.006 -0.3557 -0.0885 -0.0485
 2277W        W 3374   0.061   2.001   4.058  0.1357 -0.0310  0.2251
 2278W        W 3375   4.683   1.273   3.387  0.0398  0.1380 -0.0209
 2279W        W 3376   6.929   4.106   6.168 -0.0314  0.2513  0.0686
 2280W        W 3377   1.154   4.598   1.306 -0.0780 -0.0087 -0.0045
 2281W        W 3378   3.832   4.215   1.057  0.0440  0.1666  0.2374
 2282W        W 3379   4.760   2.800   2.425 -0.0207  0.0780  0.0796
 2283W        W 3380   1.256   6.489   6.700 -0.0041 -0.2546  0.0077
 2284W        W 3381   3.854   1.470   1.246  0.1056  0.2433 -0.0125
 2285W        W 3382   2.058   0.987   5.701 -0.1744  0.1256  0.1638
 2286W        W 3383   3.069   2.270   6.481 -0.0923  0.2448 -0.4099
 2287W        W 3384   0.772   1.925   6.745  0.3229 -0.2066 -0.0606
 2288W        W 3385   1.896   5.864   0.378 -0.0005  0.0401 -0.2384
 2289W        W 3386   1.366   0.395   1.191 -0.1036 -0.3295 -0.0093
 2290W        W 3387   5.754   7.437   0.350 -0.0640  0.1219 -0.0056
 2291W        W 3388   3.213   7.490   2.357 -0.3685 -0.0468 -0.0366
 2292W        W 3389   0.828   0.743   7.470 -0.0579  0.2772 -0.0361
 2293W        W 3390   5.683   0.831   0.869 -0.1422 -0.0299  0.0006
 2294W        W 3391   5.167   5.716   1.280 -0.1816 -0.1443 -0.2273
 2295W        W 3392   6.167   2.635   3.737  0.2702 -0.0328 -0.1125
 2296W        W 3393   5.419   5.528   0.852 -0.3685  0.0435 -0.3066
 2297W        W 3394   7.158   5.578   5.586  0.1623 -0.3215  0.1424
 2298W        W 3395   4.068   4.508   0.278  0.2531  0.3924 -0.1315
 2299W        W 3396   1.011   4.991   1.557  0.1885 -0.0296  0.1371
 2300W        W 3397   5.908   6.132   6.560 -0.0577 -0.1656 -0.1954
 2301W        W 3398   1.278   7.168   6.852 -0.3884  0.4047  0.2425
 2302W        W 3399   4.855   6.054   1.044  0.2158 -0.0499  0.0154
 2303W        W 3400   6.051   6.198   5.070 -0.0162  0.0414  0.0262
 2304W        W 3401   0.792   2.060   6.209 -0.2830  0.2397  0.2279
 2305W        W 3402   1.792   0.172   6.273 -0.1944 -0.2116 -0.4694
 2306W        W 3403   1.210   6.127   4.638  0.0178 -0.0971  0.3096
 2307W        W 3404   1.529   6.842   6.453  0.0630 -0.0646  0.1498
 2308W        W 3405   5.642   5.079   0.670  0.0363  0.0097 -0.3766
 2309W        W 3406   3.496   1.455   7.029 -0.3393 -0.3394 -0.0809
 2310W        W 3407   0.115   3.704   2.257  0.1584 -0.1996 -0.0256
 2311W        W 3408   3.439   1.551   0.014  0.0137  0.2142  0.0738
 2312W        W 3409   0.848   1.494   5.328  0.2406  0.1410 -0.0421
 2313W        W 3410   1.500   1.200   7.154 -0.0662  0.3040  0.0157
 2314W        W 3411   5.168   5.393   0.451 -0.1463  0.0546  0.1760
 2315W        W 3412   4.398   1.752   4.811 -0.3320 -0.0858  0.1436
 2316W        W 3413   5.218   6.611   3.709 -0.1196 -0.3285 -0.1045
 2317W        W 3414   1.279   2.079   6.911 -0.0372 -0.4001  0.0352
 2318W        W 3415   5.560   1.552   2.382  0.2842  0.0235 -0.3528
 2319W        W 3416   7.301   0.485   5.526  0.1307  0.0128  0.0207
 2320W        W 3417   1.352   6.139   7.104 -0.0541  0.0993 -0.1038
 2321W        W 3418   0.254   2.441   0.293 -0.0168  0.1694 -0.0116
 2322W        W 3419   5.683   7.179   6.814 -0.2828 -0.0717  0.3457
 2323W        W 3420   6.220   7.326   4.126 -0.0676  0.1263 -0.2076
 2324W        W 3421   1.935   4.680   2.841  0.3421 -0.0358 -0.3217
 2325W        W 3422   1.111   1.468   3.178  0.1428  0.1058  0.1847
 2326W        W 3423   4.720   6.475   4.048  0.4251 -0.1814 -0.0039
 2327W        W 3424   7.362   0.151   4.703 -0.2956 -0.3294  0.2286
 2328W        W 3425   0.688   2.035   1.117 -0.2325 -0.1157 -0.3171
 2329W        W 3426   6.962   0.861   6.229  0.0281  0.1710 -0.0487
 2330W        W 3427   3.992   6.686   2.551  0.0299 -0.3004  0.1202
 2331W        W 3428   2.359   4.899   7.301  0.0413 -0.0653  0.0737
 2332W        W 3429   5.044   0.789   7.400 -0.0843 -0.1121 -0.0330
 2333W        W 3430   0.472   4.547   5.556 -0.1339 -0.0132 -0.1113
 2334W        W 3431   5.915   6.242   7.219  0.0053 -0.1920 -0.1974
 2335W        W 3432   6.283   3.803   4.962  0.0524 -0.3760 -0.1097
 2336W        W 3433   4.159   5.065   0.495  0.2757 -0.1522  0.2133
 2337W        W 3434   4.525   0.604   2.732  0.0524 -0.0960  0.1376
 2338W        W 3435   1.080   1.014   5.251 -0.1357 -0.1187  0.1038
 2339W        W 3436   3.191   0.629   6.578 -0.1616 -0.1761 -0.0477
 2340W        W 3437   4.391   1.260   5.813  0.1635  0.0733  0.0394
 2341W        W 3438   2.050   6.163   0.022  0.0571 -0.2055 -0.0964
 2342W        W 3439   4.214   2.424   2.208 -0.0150  0.4629  0.2224
 2343W        W 3440   0.544   1.261   3.972 -0.3816  0.0353  0.2060
 2344W        W 3441   4.515   6.592   4.463 -0.0359  0.1402  0.0236
 2345W        W 3442   4.960   7.249   1.916 -0.0437 -0.1107 -0.1160
 2346W        W 3443   6.708   6.070   1.016 -0.1113 -0.1665 -0.1631
 2347W        W 3444   1.875   3.930   1.395 -0.1291 -0.2624 -0.1107
 2348W        W 3445   1.119   5.385   5.768  0.0132  0.1183  0.2823
 2349W        W 3446   4.797   0.326   6.539  0.1524  0.3706  0.2843
 2350W        W 3447   0.301   4.867   6.602 -0.0326  0.0353 -0.2962
 2351W        W 3448   2.437   4.454   4.080  0.1231  0.0003 -0.1307
 2352W        W 3449   0.954   6.236   1.393 -0.0470  0.1566 -0.1563
 2353W        W 3450   0.357   4.249   1.491  0.2530 -0.1787 -0.1821
 2354W        W 3451   4.537   0.717   7.274  0.2270 -0.1022 -0.0534
 2355W        W 3452   2.244   7.437   2.829  0.2611  0.1446  0.3950
 2356W        W 3453   7.370   3.448   7.212  0.0014 -0.1568  0.1532
 2357W        W 3454   1.581   3.331   6.649 -0.1599 -0.2539  0.3123
 2358W        W 3455   7.205   3.753   6.396  0.2594  0.2407  0.0751
 2359W        W 3456   3.858   4.716   0.702 -0.0820  0.1119  0.1789
 2360W        W 3457   6.765   5.355   5.356 -0.4341  0.1020  0.0111
 2361W        W 3458   0.335   1.403   2.759  0.4537  0.4035  0.0243
 2362W        W 3459   1.858   7.455   4.850  0.0470  0.2682  0.2057
 2363W        W 3460   6.488   0.554   7.101  0.3697 -0.0174 -0.0651
 2364W        W 3461   4.221   2.791   3.732 -0.0089  0.2559 -0.1567
 2365W        W 3462   6.983   7.467   2.970  0.2595 -0.1631 -0.3244
 2366W        W 3463   4.045   3.301   3.521 -0.1057 -0.0393  0.1601
 2367W        W 3464   7.618   6.354   4.929 -0.0730  0.0974 -0.2129
 2368W        W 3465   2.229   2.076   3.235  0.5503 -0.2730 -0.3138
 2369W        W 3466   4.265   1.006   0.162  0.0516 -0.2286 -0.2631
 2370W        W 3467   0.712   1.933   3.373  0.1286 -0.1603 -0.0522
 2371W        W 3468   4.425   6.196   1.381 -0.2716  0.0042 -0.0502
 2372W        W 3469   1.852   0.844   7.066  0.4910  0.4094 -0.0939
 2373W        W 3470   3.213   0.237   6.879 -0.1332  0.0130 -0.0188
 2374W        W 3471   4.935   6.758   2.830 -0.1058 -0.0985 -0.2044
 2375W        W 3472   3.290   6.251   2.411  0.4220  0.3243  0.3232
 2376W        W 3473   3.090   2.226   1.757  0.0813 -0.0151 -0.0008
 2377W        W 3474   0.112   5.349   1.151 -0.1660 -0.2440 -0.1581
 2378W        W 3475   5.611   6.522   3.987 -0.0306 -0.1690 -0.3127
 2379W        W 3476   3.986   0.532   2.801  0.1330 -0.0045 -0.2147
 2380W        W 3477   1.226   4.994   2.025 -0.1149 -0.1095 -0.0040
 2381W        W 3478   4.336   1.687   1.520  0.0617 -0.0805  0.3066
 2382W        W 3479   4.110   7.099   2.072 -0.0872 -0.1357  0.1054
 2383W        W 3480   2.604   1.575   0.167 -0.2094  0.0204 -0.0722
 2384W        W 3481   5.723   6.554   5.011  0.0652 -0.1329 -0.0565
 2385W        W 3482   4.253   1.526   2.009 -0.0691  0.1564  0.2963
 2386W        W 3483   7.464   7.546   2.746 -0.3441 -0.0102 -0.0272
 2387W        W 3484   4.471   1.054   2.073  0.1333  0.0236  0.0448
 2388W        W 3485   2.282   0.313   2.216  0.2701  0.3281 -0.0774
 2389W        W 3486   1.031   0.485   0.377 -0.4858  0.1682 -0.1218
 2390W        W 3487   2.261   4.627   0.071 -0.1264 -0.0803  0.3194
 2391W        W 3488   0.322   3.947   6.870  0.0270 -0.1251  0.1907
 2392W        W 3489   2.654   4.413   2.881 -0.0858  0.0124  0.3135
 2393W        W 3490   3.237   3.834   2.415 -0.2541 -0.1047  0.1048
 2394W        W 3491   7.620   0.757   3.029  0.0651  0.2110  0.2482
 2395W        W 3492   6.705   6.441   2.852  0.1109  0.2161  0.0204
 2396W        W 3493   4.274   7.047   3.505  0.0784 -0.0283 -0.2980
 2397W        W 3494   6.249   6.602   7.181 -0.1530  0.2563  0.0392
 2398W        W 3495   1.228   0.866   1.621  0.1526 -0.3843  0.1401
 2399W        W 3496   4.698   0.834   5.882  0.1378  0.0630 -0.0297
 2400W        W 3497   4.801   5.455   0.058 -0.1033  0.0065  0.1863
 2401W        W 3498   4.798   2.026   3.642 -0.0430  0.4421  0.0093
 2402W        W 3499   2.744   0.575   6.274  0.0107 -0.0062  0.1653
 2403W        W 3500   1.688   0.042   6.818 -0.0509 -0.1356 -0.1763
 2404W        W 3501   7.486   7.265   4.702  0.0691  0.0463 -0.2755
 2405W        W 3502   7.585   0.357   7.546 -0.2050  0.0502 -0.1033
 2406W        W 3503   6.871   5.797   1.721  0.0307  0.0648  0.1682
 2407W        W 3504   4.046   2.904   4.234 -0.2633  0.2765 -0.1840
 2408W        W 3505   6.830   5.206   4.859  0.2524 -0.1583 -0.1342
 2409W        W 3506   0.173   6.388   5.457 -0.1430  0.2323  0.1341
 2410W        W 3507   0.196   0.284   5.682 -0.0299 -0.1126 -0.0870
 2411W        W 3508   0.023   3.089   7.036  0.0524 -0.0742 -0.0042
 2412W        W 3509   0.548   5.106   5.462 -0.0846  0.4479  0.4505
 2413W        W 3510   5.714   6.782   1.211 -0.2300  0.0740  0.0525
 2414W        W 3511   0.632   5.249   0.913  0.0578  0.3082 -0.1250
 2415W        W 3512   3.568   2.011   4.703 -0.3076 -0.0921  0.2546
 2416W        W 3513   0.784   6.936   2.690  0.1050 -0.1188 -0.1839
 2417W        W 3514   2.209   6.636   7.557 -0.1393 -0.0246 -0.0432
 2418W        W 3515   2.126   0.810   7.475 -0.2497 -0.1996  0.0480
 2419W        W 3516   5.486   1.229   2.791 -0.0600 -0.1768  0.1595
 2420W        W 3517   3.780   1.159   0.218 -0.1696 -0.1794 -0.1773
 2421W        W 3518   3.511   0.313   2.898 -0.0894  0.0697  0.1655
 2422W        W 3519   1.569   3.880   2.049 -0.4074  0.0378 -0.2934
 2423W        W 3520   0.253   2.997   6.020 -0.0395  0.2574 -0.5125
 2424W        W 3521   3.010   0.401   4.446  0.0421 -0.0679  0.1047
 2425W        W 3522   2.344   4.854   1.806 -0.3337 -0.0717 -0.0716
 2426W        W 3523   5.132   6.171   7.138 -0.0095 -0.1558  0.1892
 2427W        W 3524   3.130   5.542   0.885  0.2602 -0.0435 -0.0574
 2428W        W 3525   2.059   1.549   5.779 -0.0642  0.4591  0.0760
 2429W        W 3526   6.528   5.265   7.034  0.3615 -0.3633  0.0593
 2430W        W 3527   5.292   3.765   4.941 -0.1160 -0.0386 -0.1141
 2431W        W 3528   5.012   2.464   3.531  0.2637  0.0107 -0.1834
 2432W        W 3529   7.304   3.280   1.292 -0.1136  0.2939  0.1458
 2433W        W 3530   0.419   1.698   5.216  0.0025 -0.0201  0.0917
 2434W        W 3531   7.050   7.530   2.181  0.1223 -0.1626 -0.0157
 2435W        W 3532   2.903   6.436   5.629 -0.0421  0.1146  0.0964
 2436W        W 3533   0.829   6.336   5.512  0.0012 -0.0443 -0.0496
 2437W        W 3534   3.315   0.161   0.134 -0.2457  0.1487  0.1701
 2438W        W 3535   2.297   1.561   4.311 -0.0472 -0.0297  0.1201
 2439W        W 3536   6.315   0.363   0.824  0.0256 -0.1609 -0.5080
 2440W        W 3537   3.715   1.472   1.684  0.0694  0.1069 -0.1658
 2441W        W 3538   3.608   6.722   4.172  0.5575  0.0239 -0.2305
 2442W        W 3539   0.991   6.926   6.567 -0.0918  0.0830 -0.0243
 2443W        W 3540   5.653   0.208   3.519 -0.2905 -0.2015 -0.0848
 2444W        W 3541   1.629   7.629   5.594 -0.0146 -0.0297  0.0475
 2445W        W 3542   4.960   1.849   4.126  0.1049  0.1546  0.1397
 2446W        W 3543   4.185   5.731   2.386 -0.0424 -0.0319  0.0176
 2447W        W 3544   0.269   0.242   0.992 -0.0760 -0.1904 -0.2345
 2448W        W 3545   7.426   1.061   4.927  0.1459 -0.0800 -0.1838
 2449W        W 3546   0.799   4.656   5.208  0.1532 -0.0190 -0.0458
 2450W        W 3547   7.352   2.435   0.409  0.1875 -0.1975  0.1820
 2451W        W 3548   5.582   2.596   3.452  0.1495  0.0252  0.0360
 2452W        W 3549   3.656   1.116   2.455  0.0433  0.0834 -0.1976
 2453W        W 3550   2.086   2.156   6.924  0.0516 -0.0460  0.0401
 2454W        W 3551   1.750   1.977   0.977  0.2741 -0.0624  0.3490
 2455W        W 3552   2.184   6.191   6.544  0.1643 -0.0191 -0.2342
 2456W        W 3553   2.493   1.957   6.592 -0.1234 -0.2158 -0.0394
 2457W        W 3554   3.501   3.642   3.226 -0.0685  0.2416 -0.0340
 2458W        W 3555   3.515   2.048   0.185  0.0665 -0.4885 -0.3402
 2459W        W 3556   2.023   1.182   6.224 -0.2422 -0.2036  0.0216
 2460W        W 3557   2.101   2.597   5.494  0.1935 -0.1745 -0.0859
 2461W        W 3558   2.114   6.284   3.017 -0.2635  0.2293 -0.3876
 2462W        W 3559   5.797   2.334   2.340  0.0502  0.1575  0.0186
 2463W        W 3560   0.393   3.767   0.224 -0.1111  0.3252 -0.1778
 2464W        W 3561   3.724   2.425   3.057  0.2742 -0.1773  0.0588
 2465W        W 3562   4.853   5.510   0.946  0.2364  0.1835  0.0303
 2466W        W 3563   6.959   6.805   5.148 -0.1028 -0.1190 -0.3045
 2467W        W 3564   2.667   0.991   1.987  0.1081 -0.1256  0.0205
 2468W        W 3565   1.145   5.831   6.707  0.2001 -0.4829 -0.0095
 2469W        W 3566   3.237   1.287   4.939 -0.0179 -0.3269 -0.1426
 2470W        W 3567   0.445   6.532   3.316  0.0508 -0.0247  0.0838
 2471W        W 3568   6.196   1.083   1.621 -0.1055  0.0937 -0.0248
 2472W        W 3569   1.495   4.065   3.430  0.0391  0.2987 -0.1222
 2473W        W 3570   4.932   0.303   6.062  0.0742  0.1557  0.1015
 2474W        W 3571   4.603   6.021   2.241 -0.1133  0.3536 -0.0383
 2475W        W 3572   2.784   1.168   1.146  0.0543  0.4072  0.0935
 2476W        W 3573   0.471   6.030   3.008  0.2737 -0.1254 -0.0355
 2477W        W 3574   1.301   4.827   6.568 -0.2175 -0.0580  0.1751
 2478W        W 3575   0.854   1.829   1.589 -0.1515  0.0547  0.0082
 2479W        W 3576   7.371   0.036   5.761 -0.4270  0.2419 -0.0443
 2480W        W 3577   1.509   1.079   3.960 -0.2860  0.1922  0.0736
 2481W        W 3578   7.447   5.339   5.978  0.0083 -0.0865 -0.1074
 2482W        W 3579   4.102   1.622   2.927 -0.0017  0.2154 -0.1184
 2483W        W 3580   0.032   7.250   3.988 -0.1782  0.0368  0.2868
 2484W        W 3581   7.078   1.045   4.504 -0.1608 -0.0370 -0.0135
 2485W        W 3582   4.730   0.817   4.039 -0.0664 -0.1213 -0.1376
 2486W        W 3583   7.607   5.075   3.226  0.2690  0.2021 -0.0026
 2487W        W 3584   7.321   2.991   4.927 -0.2309  0.1137 -0.1014
 2488W        W 3585   2.525   2.265   5.426  0.2963  0.1235  0.0481
 2489W        W 3586   7.211   0.952   3.254  0.0399  0.1678 -0.0834
 2490W        W 3587   2.753   4.084   1.187 -0.0581 -0.1826 -0.2481
 2491W        W 3588   0.190   1.014   3.809 -0.2444 -0.1259 -0.0287
 2492W        W 3589   3.512   7.169   7.193 -0.2296  0.0554  0.0978
 2493W        W 3590   2.879   2.284   0.834  0.1753  0.3377  0.3177
 2494W        W 3591   2.756   2.865   0.474  0.2849  0.0130 -0.1149
 2495W        W 3592   5.410   4.465   6.601 -0.0293 -0.0054  0.0055
 2496W        W 3593   2.008   1.104   3.013 -0.1181 -0.2597 -0.1969
 2497W        W 3594   2.520   1.851   3.866 -0.1661  0.2755  0.3396
 2498W        W 3595   7.264   2.125   2.057  0.2578  0.0314 -0.1135
 2499W        W 3596   0.074   1.186   1.525  0.0386  0.2394 -0.0343
 2500W        W 3597   0.699   1.262   0.714 -0.0288  0.0150 -0.0564
 2501W        W 3598   0.903   4.067   0.090  0.2464  0.1380  0.1833
 2502W        W 3599   3.097   6.172   0.787 -0.0582  0.0854 -0.2109
 2503W        W 3600   6.919   2.669   0.106 -0.1096 -0.1798  0.0737
 2504W        W 3601   2.277   7.330   2.334  0.1583 -0.2082  0.0240
 2505W        W 3602   2.420   1.034   4.254 -0.1126 -0.1765 -0.0340
 2506W        W 3603   4.264   5.541   0.869  0.0054  0.0146  0.2482
 2507W        W 3604   2.939   3.001   4.560  0.0712  0.2847  0.0645
 2508W        W 3605   1.824   2.916   1.290 -0.0733 -0.1394 -0.2181
 2509W        W 3606   3.523   3.079   4.603 -0.1416 -0.0471 -0.4690
 2510W        W 3607   1.835   5.296   0.101  0.0299  0.1508 -0.0455
 2511W        W 3608   3.529   0.258   5.417  0.0313  0.0327 -0.1429
 2512W        W 3609   6.097   2.386   3.189 -0.0579 -0.0489 -0.1906
 2513W        W 3610   6.738   5.795   2.230  0.1089 -0.1178  0.0556
 2514W        W 3611   4.038   0.040   6.296 -0.1476  0.2247  0.0106
 2515W        W 3612   1.674   0.822   3.555 -0.1029  0.0084  0.1892
 2516W        W 3613   6.524   0.532   3.855  0.1998 -0.0844  0.0578
 2517W        W 3614   5.563   7.020   3.134 -0.0438 -0.0352  0.0266
 2518W        W 3615   5.387   6.689   0.767  0.1355  0.0810 -0.1621
 2519W        W 3616   7.067   7.547   0.700 -0.2008  0.0023 -0.0054
 2520W        W 3617   2.483   3.271   0.518 -0.1324  0.1303 -0.4551
 2521W        W 3618   2.207   1.676   7.163 -0.3170 -0.5511  0.2260
 2522W        W 3619   6.453   3.897   7.017 -0.0910  0.3683 -0.2735
 2523W        W 3620   5.943   0.485   3.805  0.2872 -0.2425  0.0530
 2524W        W 3621   1.458   0.429   5.979 -0.0128 -0.0007  0.3025
 2525W        W 3622   4.959   2.818   0.066  0.0748 -0.0285 -0.0907
 2526W        W 3623   2.652   3.074   4.962 -0.0021  0.1293 -0.1832
 2527W        W 3624   4.758   6.567   6.777  0.1726 -0.0680  0.2053
 2528W        W 3625   3.016   7.130   0.661 -0.0151 -0.1296 -0.3756
 2529W        W 3626   6.635   2.610   4.568 -0.4173  0.0410  0.1729
 2530W        W 3627   0.637   5.289   2.407  0.3212 -0.0518  0.1393
 2531W        W 3628   0.218   6.570   1.885 -0.1123  0.0725  0.0845
 2532W        W 3629   7.492   5.863   7.510 -0.1594  0.0501  0.1397
 2533W        W 3630   3.348   0.996   4.336  0.3326  0.0842  0.1300
 2534W        W 3631   2.656   2.306   3.103  0.1521  0.0310  0.1537
 2535W        W 3632   1.025   1.246   7.461  0.1051  0.0810  0.0057
 2536W        W 3633   5.444   7.525   4.078  0.0084 -0.1263  0.3839
 2537W        W 3634   1.314   7.076   0.209  0.0006  0.0059 -0.2625
 2538W        W 3635   0.162   5.555   1.650 -0.0233  0.0346  0.1127
 2539W        W 3636   4.770   2.346   2.150 -0.1014  0.0087 -0.1771
 2540W        W 3637   3.376   1.393   4.096 -0.0838  0.0214 -0.1239
 2541W        W 3638   2.630   0.626   3.175 -0.0883  0.1266  0.0177
 2542W        W 3639   2.896   1.007   3.291 -0.0080  0.1770  0.0203
 2543W        W 3640   6.446   6.157   5.756 -0.3484  0.4136 -0.0372
 2544W        W 3641   2.957   2.011   5.317  0.0553 -0.0566  0.1575
 2545W        W 3642   3.770   0.882   4.627 -0.0421  0.1492 -0.1856
 2546W        W 3643   2.202   3.066   4.257  0.0805 -0.0675 -0.1554
 2547W        W 3644   3.635   0.482   4.975  0.0671  0.0664  0.0740
 2548W        W 3645   2.561   4.924   0.920 -0.1385  0.0695 -0.0371
 2549W        W 3646   5.076   5.787   4.861  0.1918 -0.1522  0.1917
 2550W        W 3647   5.959   4.562   6.761  0.1962 -0.2762  0.2198
 2551W        W 3648   1.839   2.709   3.604 -0.0273 -0.3400 -0.3858
 2552W        W 3649   4.703   2.055   5.871  0.2080  0.2501 -0.3587
 2553W        W 3650   6.373   1.810   2.588 -0.3555 -0.1152  0.0310
 2554W        W 3651   2.044   1.405   1.652 -0.0589  0.1999 -0.1846
 2555W        W 3652   3.175   6.655   0.841  0.1355  0.3873 -0.4515
 2556W        W 3653   4.022   1.963   4.453  0.0697 -0.2188 -0.0831
 2557W        W 3654   0.010   6.124   3.185  0.5262 -0.0053 -0.1220
 2558W        W 3655   6.492   6.839   1.370  0.2591 -0.1005  0.1176
 2559W        W 3656   1.463   4.518   3.649  0.3753  0.0801  0.2266
 2560W        W 3657   4.908   7.238   2.996  0.1576 -0.0696 -0.0697
 2561W        W 3658   1.082   4.481   6.182  0.0290  0.0378  0.1184
 2562W        W 3659   6.184   7.233   0.144 -0.1234  0.2400  0.1595
 2563W        W 3660   4.583   5.352   1.770  0.0660 -0.0232  0.0106
 2564W        W 3661   4.029   5.917   6.242  0.4200 -0.0495  0.0833
 2565W        W 3662   2.028   5.494   1.006 -0.0284 -0.1242  0.0367
 2566W        W 3663   3.467   7.611   5.951 -0.2421  0.2545  0.0571
 2567W        W 3664   3.641   1.558   5.825  0.1314  0.0637  0.1843
 2568W        W 3665   6.541   3.978   0.384 -0.1091  0.2759 -0.0114
 2569W        W 3666   0.287   3.506   7.024  0.0085 -0.2261  0.3254
 2570W        W 3667   0.273   2.705   7.219  0.4039  0.3808 -0.0218
 2571W        W 3668   4.565   7.290   0.104 -0.2379 -0.0358  0.1188
 2572W        W 3669   6.097   7.348   1.976 -0.1731  0.1564  0.0564
 2573W        W 3670   7.341   1.152   0.063  0.1914 -0.2816  0.4098
 2574W        W 3671   6.782   6.707   1.875 -0.0301  0.0871 -0.1190
 2575W        W 3672   5.928   1.556   3.248  0.0424  0.0957  0.1474
 2576W        W 3673   7.077   3.477   4.910 -0.0639 -0.1150 -0.2072
 2577W        W 3674   2.537   2.813   5.320 -0.0633 -0.0424  0.0467
 2578W        W 3675   0.546   7.138   2.204 -0.1024  0.3344 -0.2037
 2579W        W 3676   4.813   5.179   6.460  0.1489 -0.3184 -0.1129
 2580W        W 3677   4.405   0.047   7.450 -0.2546 -0.0623  0.2990
 2581W        W 3678   1.176   0.108   2.656  0.2071  0.1566 -0.0135
 2582W        W 3679   7.352   1.587   2.156 -0.2039 -0.1659 -0.0264
 2583W        W 3680   7.431   3.620   0.056  0.3458 -0.4288 -0.1055
 2584W        W 3681   5.842   7.451   3.246  0.0984  0.0178  0.1095
 2585W        W 3682   1.710   0.181   3.032 -0.1006 -0.0230  0.0802
 2586W        W 3683   4.595   1.417   2.369 -0.2403 -0.3454  0.1895
 2587W        W 3684   6.738   5.086   7.462 -0.0108  0.1045  0.0740
 2588W        W 3685   6.935   7.404   1.627  0.0814 -0.4376  0.3992
 2589W        W 3686   5.314   6.573   5.479  0.1345  0.1647 -0.2218
 2590W        W 3687   3.629   7.395   5.441 -0.3643  0.2371 -0.0986
 2591W        W 3688   5.239   2.253   2.215  0.0105  0.0493 -0.1100
 2592W        W 3689   7.197   0.482   6.022 -0.3526  0.4339 -0.1164
 2593W        W 3690   0.750   3.900   3.140  0.1597 -0.1858 -0.3566
 2594W        W 3691   1.956   2.726   6.062  0.0126 -0.0087 -0.1023
 2595W        W 3692   4.779   2.022   4.528  0.1295 -0.1919  0.1574
 2596W        W 3693   1.125   3.033   5.582 -0.3603  0.2231 -0.0342
 2597W        W 3694   4.498   7.494   3.043  0.0710  0.1443 -0.0662
 2598W        W 3695   0.415   4.402   0.019  0.0072 -0.2268  0.2297
 2599W        W 3696   7.100   7.252   5.946 -0.0506  0.0337  0.0372
 2600W        W 3697   0.114   1.462   4.888  0.1544  0.0978 -0.2141
 2601W        W 3698   3.349   2.676   1.674  0.2831 -0.0003 -0.2154
 2602W        W 3699   1.168   2.617   1.817 -0.0219  0.0108 -0.2357
 2603W        W 3700   4.598   3.861   1.527  0.0499  0.1209 -0.0891
 2604W        W 3701   7.145   2.781   3.204 -0.1815 -0.0335 -0.0871
 2605W        W 3702   4.958   0.626   6.904  0.3533  0.0433 -0.0849
 2606W        W 3703   1.417   7.502   5.054 -0.1448 -0.2647  0.0345
 2607W        W 3704   4.723   6.547   7.306 -0.0233  0.2074  0.0507
 2608W        W 3705   7.030   5.584   2.766 -0.2143  0.2671  0.0154
 2609W        W 3706   7.623   4.463   6.775  0.0731 -0.3691  0.1323
 2610W        W 3707   0.536   5.649   3.789 -0.2196  0.2372  0.0382
 2611W        W 3708   0.087   3.871   0.611 -0.1525  0.1450 -0.1164
 2612W        W 3709   1.214   3.186   3.339  0.1191 -0.1641 -0.1219
 2613W        W 3710   0.683   4.790   1.212 -0.2436  0.0249 -0.1437
 2614W        W 3711   2.920   4.156   5.278 -0.0603 -0.1999 -0.0269
 2615W        W 3712   5.344   7.334   4.900 -0.0614 -0.0289 -0.1136
 2616W        W 3713   3.357   5.922   7.581  0.0163 -0.0295  0.2192
 2617W        W 3714   6.557   6.494   4.980  0.2561 -0.1962 -0.0309
 2618W        W 3715   3.021   4.633   2.625  0.0042 -0.2280 -0.2971
 2619W        W 3716   3.949   5.136   0.957  0.0367  0.0784  0.3053
 2620W        W 3717   7.055   0.843   1.485 -0.1327 -0.0880 -0.2791
 2621W        W 3718   1.256   7.308   5.593 -0.0305 -0.0377 -0.1340
 2622W        W 3719   6.256   7.339   5.424  0.2794 -0.1244  0.3970
 2623W        W 3720   3.651   6.802   1.186  0.1617  0.0836 -0.1140
 2624W        W 3721   4.322   0.873   6.217  0.1734  0.0345 -0.3058
 2625W        W 3722   5.839   0.231   2.019 -0.0258 -0.1606 -0.0462
 2626W        W 3723   0.277   0.445   0.534  0.0659  0.3676  0.0492
 2627W        W 3724   7.001   6.226   0.399  0.0156  0.3580 -0.1965
 2628W        W 3725   0.320   6.783   2.847 -0.1959  0.2178  0.2060
 2629W        W 3726   5.800   0.216   6.599 -0.2171 -0.1940 -0.1265
 2630W        W 3727   0.323   3.276   4.875 -0.2502 -0.2571  0.1460
 2631W        W 3728   0.916   3.258   5.183 -0.0949  0.2036  0.2507
 2632W        W 3729   1.547   2.314   0.490  0.0650 -0.1919 -0.3293
 2633W        W 3730   1.878   1.433   5.330  0.1458 -0.0255 -0.0051
 2634W        W 3731   7.055   0.785   2.079 -0.2104  0.0454  0.2649
 2635W        W 3732   6.974   3.201   7.625 -0.0525  0.0255 -0.1758
 2636W        W 3733   5.627   2.495   4.230 -0.2647  0.1552 -0.0547
 2637W        W 3734   5.811   7.060   3.621 -0.0093  0.1817 -0.2513
 2638W        W 3735   4.312   4.683   0.962  0.3282 -0.3127 -0.2892
 2639W        W 3736   0.750   7.460   1.554  0.0035 -0.2432 -0.1683
 2640W        W 3737   1.443   4.397   7.438 -0.3660  0.2688  0.3194
 2641W        W 3738   4.227   6.357   6.648 -0.1499  0.1010 -0.0820
 2642W        W 3739   6.601   6.167   7.284  0.0223  0.1109  0.0256
 2643W        W 3740   7.514   2.147   6.687 -0.2710  0.0040  0.1328
 2644W        W 3741   5.239   5.207   6.154  0.3489 -0.0946 -0.2542
 2645W        W 3742   2.905   1.788   6.268 -0.0342 -0.1125 -0.2546
 2646W        W 3743   4.950   7.523   6.378 -0.0280  0.0464  0.3809
 2647W        W 3744   5.070   1.178   6.644  0.1722  0.2718 -0.3282
 2648W        W 3745   3.011   7.155   7.307 -0.0332 -0.1573 -0.1735
 2649W        W 3746   0.203   6.718   0.681 -0.0689 -0.0664 -0.2225
 2650W        W 3747   0.915   5.308   3.579 -0.2883 -0.1566  0.4512
 2651W        W 3748   2.288   5.892   0.831 -0.0057 -0.1444  0.1704
 2652W        W 3749   1.083   5.462   0.654 -0.1425 -0.1906 -0.0490
 2653W        W 3750   0.652   3.137   3.681 -0.0464  0.2706 -0.0965
 2654W        W 3751   0.035   2.848   0.454 -0.2175  0.1882  0.2448
 2655W        W 3752   6.957   5.803   7.053  0.3014 -0.0221 -0.1009
 2656W        W 3753   5.221   0.854   3.314  0.1177  0.0851 -0.0809
 2657W        W 3754   2.586   3.061   1.765 -0.1018  0.0098 -0.0522
 2658W        W 3755   3.330   2.485   5.950  0.2417  0.1792 -0.1918
 2659W        W 3756   7.637   0.065   7.106  0.1731  0.0283  0.1573
 2660W        W 3757   2.469   0.789   0.984  0.2011 -0.0140  0.0027
 2661W        W 3758   2.033   6.920   6.233  0.0490  0.1231  0.2888
 2662W        W 3759   2.428   5.798   2.273 -0.2329  0.1542 -0.1302
 2663W        W 3760   3.717   5.969   1.835  0.0995  0.2732  0.0346
 2664W        W 3761   2.720   2.787   3.828 -0.1286  0.2814  0.3706
 2665W        W 3762   1.525   6.368   2.332 -0.1214 -0.1153 -0.0261
 2666W        W 3763   5.933   1.265   7.640 -0.1676  0.0341 -0.1295
 2667W        W 3764   2.184   0.104   4.087 -0.0520 -0.0813 -0.1091
 2668W        W 3765   5.163   1.037   0.200  0.0907 -0.0836  0.2152
 2669W        W 3766   0.493   1.979   0.353 -0.1551  0.1177  0.2888
 2670W        W 3767   5.152   1.676   1.417  0.0732  0.2620 -0.2126
 2671W        W 3768   1.238   4.056   5.921 -0.0382  0.2493 -0.0921
 2672W        W 3769   2.116   0.766   3.856  0.0646 -0.0732  0.1476
 2673W        W 3770   5.052   4.367   4.331 -0.0204 -0.0315 -0.0134
 2674W        W 3771   3.146   0.393   5.022 -0.3782  0.0570  0.3164
 2675W        W 3772   2.759   3.771   1.961 -0.3003 -0.2587 -0.0774
 2676W        W 3773   2.220   2.679   3.929  0.1497 -0.1459  0.1922
 2677W        W 3774   3.643   0.990   7.009 -0.1424  0.0106  0.1149
 2678W        W 3775   1.377   0.820   4.820 -0.0772 -0.0842  0.3437
 2679W        W 3776   1.360   1.442   5.254  0.1001 -0.0639 -0.1784
 2680W        W 3777   1.732   1.246   2.630 -0.0256 -0.2127 -0.0236
 2681W        W 3778   3.705   6.418   7.391 -0.0095  0.0894  0.2651
 2682W        W 3779   7.163   2.881   7.311  0.0813 -0.0243 -0.3133
 2683W        W 3780   2.254   2.978   4.757  0.0113 -0.5539  0.0465
 2684W        W 3781   1.650   6.232   1.050  0.4654 -0.3536  0.2816
 2685W        W 3782   0.737   7.473   0.017  0.2641 -0.2513 -0.2251
 2686W        W 3783   5.439   6.251   3.157 -0.0711  0.0155 -0.5212
 2687W        W 3784   3.944   6.639   3.108 -0.2546  0.2583 -0.0095
 2688W        W 3785   1.438   3.705   1.162  0.0861 -0.0850  0.3168
 2689W        W 3786   6.412   1.194   3.055 -0.0251 -0.0209  0.0660
 2690W        W 3787   3.735   7.540   2.382 -0.2213  0.0366 -0.0630
 2691W        W 3788   2.263   7.358   1.203 -0.0896  0.1540 -0.1772
 2692W        W 3789   0.789   2.451   4.883 -0.1744 -0.0817 -0.1786
 2693W        W 3790   1.096   3.984   0.600 -0.0825  0.2208 -0.2108
 2694W        W 3791   4.702   7.578   1.624  0.1081  0.0089  0.0090
 2695W        W 3792   2.119   7.126   5.752  0.1882  0.0329 -0.0694
 2696W        W 3793   1.935   3.030   2.764  0.1670  0.1507  0.0399
 2697W        W 3794   4.207   2.533   3.107  0.3050  0.1133  0.0706
 2698W        W 3795   1.756   5.653   1.806  0.0725 -0.0447  0.0340
 2699W        W 3796   2.917   6.946   6.529  0.3134  0.2756  0.2121
 2700W        W 3797   3.567   7.582   0.910 -0.1969 -0.0901  0.0262
 2701W        W 3798   3.657   7.513   3.642 -0.1260 -0.0271 -0.0040
 2702W        W 3799   7.177   0.765   7.426  0.0531 -0.3999 -0.0783
 2703W        W 3800   7.248   5.990   6.686  0.0817 -0.3765 -0.0647
 2704W        W 3801   6.542   6.453   2.237 -0.2626  0.0463 -0.1054
 2705W        W 3802   2.327   0.805   4.717 -0.2203 -0.2289 -0.3627
 2706W        W 3803   2.414   1.551   2.010  0.2205  0.1519 -0.1468
 2707W        W 3804   4.704   0.133   3.765  0.2028  0.2579  0.2747
 2708W        W 3805   1.323   2.436   5.007 -0.3230 -0.2332  0.1507
 2709W        W 3806   3.396   2.972   1.240 -0.1076 -0.0135 -0.0772
 2710W        W 3807   1.691   7.289   7.225 -0.0347  0.0963 -0.1666
 2711W        W 3808   3.323   6.972   5.332  0.1342  0.0300  0.1212
 2712W        W 3809   4.646   6.639   1.407 -0.0233 -0.0501 -0.0122
 2713W        W 3810   0.003   3.698   5.524  0.2209  0.0024  0.0675
 2714W        W 3811   1.507   7.118   4.686  0.1507  0.4419  0.4142
 2715W        W 3812   2.060   7.401   6.383 -0.1970 -0.2623 -0.0224
 2716W        W 3813   3.574   0.723   2.040 -0.4408 -0.4171  0.0539
 2717W        W 3814   2.682   7.606   3.097  0.3055 -0.1132  0.2709
 2718W        W 3815   1.613   5.339   2.405 -0.0838  0.1518 -0.2202
 2719W        W 3816   4.973   3.385   3.505 -0.0596  0.1124  0.0961
 2720W        W 3817   1.289   2.557   6.830 -0.0175 -0.0625 -0.1784
 2721W        W 3818   0.628   0.383   1.949  0.2530 -0.2580  0.0579
 2722W        W 3819   0.103   1.346   6.525  0.1628 -0.0542  0.2997
 2723W        W 3820   4.876   0.029   2.751 -0.0085  0.0423 -0.0794
 2724W        W 3821   3.507   4.816   4.418 -0.0123  0.0930  0.2562
 2725W        W 3822   0.977   0.571   5.829 -0.1367  0.1268  0.0484
 2726W        W 3823   7.014   5.314   0.195  0.0022  0.0218 -0.0273
 2727W        W 3824   7.298   2.705   1.295  0.1413  0.0330 -0.0005
 2728W        W 3825   1.763   4.336   0.147 -0.1030  0.1681  0.1737
 2729W        W 3826   0.963   3.866   5.589 -0.0829  0.0522  0.1299
 2730W        W 3827   0.429   3.391   0.948 -0.2888  0.3066 -0.1241
 2731W        W 3828   6.322   6.053   6.275 -0.2500 -0.2052  0.1424
 2732W        W 3829   3.983   7.013   0.256 -0.2057  0.3165  0.1619
 2733W        W 3830   0.466   1.319   1.812  0.2706  0.2412  0.0809
 2734W        W 3831   7.304   5.445   1.480  0.2388  0.0474  0.4396
 2735W        W 3832   2.097   5.003   2.299 -0.0874  0.0104 -0.3430
 2736W        W 3833   3.058   0.566   0.397 -0.0227  0.2261  0.2002
 2737W        W 3834   6.027   1.431   6.544 -0.1968  0.1886  0.0275
 2738W        W 3835   1.403   6.330   0.068  0.2032  0.3453  0.1464
 2739W        W 3836   1.008   0.509   7.031  0.1367  0.0033  0.2785
 2740W        W 3837   4.791   0.997   2.522  0.1463 -0.1775  0.1253
 2741W        W 3838   4.352   0.159   4.669 -0.1040  0.0589 -0.2649
 2742W        W 3839   0.914   6.189   6.406 -0.0648  0.1868  0.2667
 2743W        W 3840   0.511   0.222   1.447  0.4020 -0.2131 -0.4831
 2744W        W 3841   3.035   1.776   4.004  0.0242  0.2119 -0.1935
 2745W        W 3842   2.114   3.199   0.150 -0.0900 -0.1451  0.1892
 2746W        W 3843   3.543   5.026   1.234 -0.0796  0.1850 -0.2094
 2747W        W 3844   2.420   0.937   6.512  0.2494 -0.0683  0.0080
 2748W        W 3845   0.374   6.590   4.276  0.0216  0.0921 -0.1564
 2749W        W 3846   5.916   4.324   5.366  0.6387  0.1039  0.3145
 2750W        W 3847   2.277   3.373   1.399 -0.1125 -0.1545 -0.0110
 2751W        W 3848   0.610   4.104   0.681 -0.0263 -0.1939 -0.2536
 2752W        W 3849   6.722   5.428   6.648 -0.0072  0.0079  0.1240
 2753W        W 3850   4.504   5.146   0.945 -0.0742  0.2925  0.0494
 2754W        W 3851   5.338   5.797   6.710  0.0565  0.1751 -0.0690
 2755W        W 3852   1.023   7.176   4.433  0.1139  0.2213  0.3122
 2756W        W 3853   1.317   7.104   3.659  0.2294 -0.2770  0.1957
 2757W        W 3854   0.431   0.882   4.314 -0.1443  0.3241  0.1690
 2758W        W 3855   0.427   7.036   6.135  0.2299  0.0919  0.1439
 2759W        W 3856   6.522   4.527   7.449  0.0306  0.0578  0.0806
 2760W        W 3857   6.612   0.999   1.302  0.2260  0.1596  0.0032
 2761W        W 3858   4.181   3.017   5.314  0.4285 -0.1137  0.2392
 2762W        W 3859   3.856   1.916   6.954 -0.1595 -0.3177  0.0652
 2763W        W 3860   1.227   4.658   0.235  0.2159  0.2090 -0.1226
 2764W        W 3861   6.137   5.925   7.494  0.1077  0.1756 -0.1009
 2765W        W 3862   6.930   1.774   4.880 -0.0690 -0.0899 -0.1333
 2766W        W 3863   6.040   0.400   7.090  0.0406  0.2393 -0.0710
 2767W        W 3864   1.598   6.883   2.330 -0.1945 -0.1979 -0.3440
 2768W        W 3865   4.375   4.879   5.038  0.2026 -0.1714  0.2729
 2769W        W 3866   1.473   0.170   7.310  0.1499 -0.2855  0.1404
 2770W        W 3867   6.502   5.666   5.575 -0.0033  0.1111  0.0940
 2771W        W 3868   6.448   5.985   4.764 -0.2295  0.3125 -0.1957
 2772W        W 3869   2.388   4.416   2.030 -0.2276 -0.5053 -0.0828
 2773W        W 3870   4.428   3.591   4.404 -0.2069 -0.0748  0.1458
 2774W        W 3871   2.157   0.468   1.571 -0.0800  0.1454  0.1157
 2775W        W 3872   1.283   2.212   5.501  0.1578 -0.1258  0.0952
 2776W        W 3873   7.093   4.303   4.743  0.0442 -0.2996 -0.0635
 2777W        W 3874   4.806   1.805   0.068  0.1625 -0.2079  0.1624
 2778W        W 3875   7.530   6.302   1.584  0.1341  0.0769  0.0104
 2779W        W 3876   3.557   0.635   0.090  0.1813  0.3168 -0.1468
 2780W        W 3877   4.470   5.051   4.551 -0.0450 -0.1846  0.3246
 2781W        W 3878   6.751   6.228   6.117 -0.1146 -0.1516 -0.0829
 2782W        W 3879   0.854   1.879   7.259  0.0292  0.3528  0.1160
 2783W        W 3880   3.867   0.971   3.692 -0.2254 -0.0930  0.0561
 2784W        W 3881   0.637   3.482   1.480  0.0241  0.0328 -0.2728
 2785W        W 3882   0.794   3.404   3.152 -0.0562  0.3456 -0.1152
 2786W        W 3883   3.687   7.387   1.321  0.1620 -0.1727 -0.0922
 2787W        W 3884   3.974   3.287   2.117 -0.1509  0.0473 -0.0390
 2788W        W 3885   6.508   0.272   7.566  0.1346  0.1067  0.2066
 2789W        W 3886   3.322   7.149   0.994  0.0024 -0.0663 -0.1222
 2790W        W 3887   4.727   6.418   5.042  0.0966 -0.1951 -0.2377
 2791W        W 3888   0.537   1.844   2.061  0.0830  0.2067  0.0738
 2792W        W 3889   2.343   0.284   6.486 -0.0491 -0.1040 -0.0738
 2793W        W 3890   2.902   3.275   2.260 -0.0774  0.0303  0.1116
 2794W        W 3891   4.094   4.463   4.913 -0.0245 -0.0517 -0.0263
 2795W        W 3892   4.956   3.717   1.193  0.1824 -0.0054 -0.2102
 2796W        W 3893   0.379   3.664   5.905  0.0668  0.0017  0.0507
 2797W        W 3894   0.133   5.638   2.348 -0.0431  0.3743 -0.0528
 2798W        W 3895   6.441   6.471   3.267 -0.2911  0.1197  0.1667
 2799W        W 3896   3.730   0.981   6.510  0.0286  0.1775  0.1202
 2800W        W 3897   1.961   0.764   2.398 -0.1753  0.0440  0.2153
 2801W        W 3898   4.050   4.668   3.252  0.1734  0.0640 -0.0774
 2802W        W 3899   4.832   1.011   4.491  0.1838  0.0609 -0.0878
 2803W        W 3900   6.395   5.894   4.221 -0.2827  0.0652 -0.5070
 2804W        W 3901   1.727   2.499   7.616  0.0991 -0.1943  0.1192
 2805W        W 3902   5.197   1.341   7.446  0.0197 -0.1830  0.2053
 2806W        W 3903   1.132   2.825   0.736  0.3246 -0.1883  0.0074
 2807W        W 3904   3.843   0.610   6.199 -0.0257 -0.0063  0.1679
 2808W        W 3905   3.120   0.723   2.225  0.3191  0.0917 -0.1129
 2809W        W 3906   2.121   7.516   7.384  0.1112 -0.0838 -0.0396
 2810W        W 3907   1.604   4.691   1.776  0.0807  0.1549 -0.0612
 2811W        W 3908   4.161   6.285   4.008 -0.0054  0.0675 -0.2584
 2812W        W 3909   6.650   1.834   2.052 -0.0931 -0.0544 -0.0438
 2813W        W 3910   3.495   1.433   5.371  0.0799  0.2663 -0.2306
 2814W        W 3911   6.712   5.712   6.064 -0.1693 -0.0579 -0.0597
 2815W        W 3912   5.711   6.319   1.383 -0.0535  0.0337  0.2254
 2816W        W 3913   3.250   0.345   0.901 -0.0866  0.2201  0.0565
 2817W        W 3914   5.592   6.018   4.873  0.0551  0.0263  0.1015
 2818W        W 3915   7.589   6.726   2.441 -0.1604 -0.2663 -0.0832
 2819W        W 3916   0.560   2.743   6.293  0.1532  0.1676 -0.2538
 2820W        W 3917   3.897   1.383   7.442  0.1185  0.2542  0.0874
 2821W        W 3918   0.052   2.000   2.167  0.1957 -0.1195 -0.2024
 2822W        W 3919   5.232   4.579   4.762 -0.0741  0.1608 -0.2219
 2823W        W 3920   5.371   0.552   2.017  0.0164 -0.2437 -0.2079
 2824W        W 3921   5.718   0.284   4.618 -0.0493  0.0141 -0.0520
 2825W        W 3922   4.365   0.596   3.664 -0.2479 -0.3764 -0.0460
 2826W        W 3923   2.503   4.526   0.531  0.0183  0.1827  0.3440
 2827W        W 3924   7.454   1.684   1.336 -0.0142  0.1988  0.1611
 2828W        W 3925   0.843   2.361   5.858  0.2006  0.0075  0.3242
 2829W        W 3926   4.124   6.854   4.712 -0.0948 -0.2659  0.2363
 2830W        W 3927   0.515   4.966   4.971 -0.0495 -0.2652 -0.1599
 2831W        W 3928   5.607   7.418   1.851  0.1517 -0.2136  0.1159
 2832W        W 3929   2.281   4.350   1.538  0.0379 -0.2992  0.0303
 2833W        W 3930   6.897   0.166   4.879 -0.1976 -0.0951 -0.0256
 2834W        W 3931   0.338   7.188   4.398  0.1265 -0.2655 -0.1243
 2835W        W 3932   1.139   2.564   4.202  0.2155 -0.2929  0.0211
 2836W        W 3933   0.257   5.320   4.079  0.0878 -0.0858 -0.0303
 2837W        W 3934   5.987   1.202   1.171  0.1604 -0.0064  0.3151
 2838W        W 3935   2.147   2.029   4.595 -0.0739 -0.0165 -0.0191
 2839W        W 3936   7.344   5.947   5.186 -0.1119  0.1917  0.0449
 2840W        W 3937   2.723   7.228   1.597 -0.0831 -0.0393  0.2351
 2841W        W 3938   7.140   1.194   2.427  0.0285  0.1239 -0.3429
 2842W        W 3939   1.642   2.512   2.683 -0.2055 -0.2494 -0.1506
 2843W        W 3940   1.762   2.719   4.971  0.1009 -0.1413  0.1121
 2844W        W 3941   1.629   6.198   1.763  0.5246  0.0555 -0.2064
 2845W        W 3942   0.832   7.521   2.071  0.2440 -0.0753 -0.1191
 2846W        W 3943   6.325   7.446   3.469 -0.2220 -0.4554  0.2792
 2847W        W 3944   4.255   2.071   2.961 -0.0212  0.4980  0.0615
 2848W        W 3945   5.160   0.589   1.556 -0.4066  0.0021  0.0733
 2849W        W 3946   7.277   6.564   3.717  0.2856 -0.3519 -0.1146
 2850W        W 3947   4.841   1.549   1.895  0.2076 -0.0481  0.1991
 2851W        W 3948   1.114   3.404   3.773  0.0273 -0.0410 -0.0975
 2852W        W 3949   7.024   2.427   4.215 -0.0660 -0.1480  0.5266
 2853W        W 3950   5.938   0.116   5.659  0.3176  0.1373  0.1258
 2854W        W 3951   7.234   0.378   3.037 -0.0518  0.1370  0.0896
 2855W        W 3952   6.201   6.889   5.044  0.0682 -0.0312 -0.0688
 2856W        W 3953   1.835   3.477   4.159 -0.0626  0.1049  0.1553
 2857W        W 3954   5.966   0.692   5.809 -0.0294 -0.0670 -0.0277
 2858W        W 3955   3.507   7.160   2.115  0.0595  0.1937  0.0756
 2859W        W 3956   4.745   3.149   4.609 -0.4963 -0.0269  0.2029
 2860W        W 3957   7.426   2.250   5.811  0.2222  0.0344 -0.0639
 2861W        W 3958   4.954   7.388   3.975  0.0508  0.2289  0.1060
 2862W        W 3959   1.290   2.840   2.869  0.0116  0.1529 -0.0072
 2863W        W 3960   1.517   1.355   1.942  0.1329  0.0540 -0.1536
 2864W        W 3961   5.990   1.756   7.607  0.2072 -0.0782  0.0747
 2865W        W 3962   3.546   3.259   3.592  0.0923 -0.0983 -0.0475
 2866W        W 3963   0.548   2.453   3.286  0.1204  0.1279  0.0885
 2867W        W 3964   0.377   1.706   1.437  0.1041  0.1635  0.0685
 2868W        W 3965   7.323   1.750   3.672 -0.1213 -0.1065 -0.3897
 2869W        W 3966   3.511   6.754   1.754 -0.0213 -0.1654 -0.2211
 2870W        W 3967   5.171   4.381   0.795  0.0731 -0.3058  0.1101
 2871W        W 3968   2.547   2.305   3.698 -0.0449  0.4094  0.0303
 2872W        W 3969   1.260   6.825   4.046 -0.4557 -0.0676 -0.1109
 2873W        W 3970   3.884   6.995   1.587 -0.0746 -0.1159 -0.1289
 2874W        W 3971   7.255   4.365   0.427 -0.2150 -0.1046 -0.1788
 2875W        W 3972   5.206   2.639   5.105  0.2230 -0.0906 -0.0607
 2876W        W 3973   3.815   1.184   4.232  0.0937  0.4208 -0.0386
 2877W        W 3974   3.239   5.274   2.074  0.0950  0.3347 -0.0791
 2878W        W 3975   4.256   4.611   7.275  0.3216 -0.0748  0.0053
 2879W        W 3976   4.272   7.570   2.011  0.1182 -0.0223  0.1421
 2880W        W 3977   0.564   2.239   2.801 -0.1222  0.0822  0.3268
 2881W        W 3978   3.803   7.514   1.840  0.2087 -0.0415 -0.2502
 2882W        W 3979   1.416   1.742   4.562  0.0288 -0.0621  0.0037
 2883W        W 3980   4.256   5.059   6.316  0.1250  0.1695  0.3767
 2884W        W 3981   3.369   7.438   0.459  0.2839 -0.0307 -0.2526
 2885W        W 3982   4.130   5.367   4.422 -0.1908 -0.2773  0.0004
 2886W        W 3983   6.761   0.498   1.742 -0.2657  0.1201 -0.0985
 2887W        W 3984   4.591   2.598   0.482  0.1891  0.5929 -0.1528
 2888W        W 3985   1.161   1.615   5.701 -0.0115  0.3612 -0.0977
 2889W        W 3986   5.840   0.404   2.507 -0.3198 -0.0087  0.0455
 2890W        W 3987   6.171   7.005   6.810  0.1616  0.2457  0.0013
 2891W        W 3988   0.920   4.886   5.763  0.1304  0.1454 -0.3866
 2892W        W 3989   0.631   5.709   0.580 -0.4323 -0.0508  0.2543
 2893W        W 3990   3.216   5.674   0.351  0.0570 -0.0506  0.0604
 2894W        W 3991   2.906   3.971   2.833  0.2435 -0.2463  0.0516
 2895W        W 3992   4.539   6.191   7.065 -0.0679 -0.1923  0.1386
 2896W        W 3993   3.545   5.958   1.300 -0.0725 -0.0146  0.0251
 2897W        W 3994   3.153   4.028   3.255  0.1799 -0.4502 -0.1244
 2898W        W 3995   2.186   2.159   5.781  0.2883 -0.1058  0.2062
 2899W        W 3996   5.962   5.345   4.403 -0.1024  0.0692 -0.2537
 2900W        W 3997   4.549   4.746   0.534  0.1512 -0.0347  0.1751
 2901W        W 3998   2.009   5.542   2.221 -0.1330 -0.2552  0.0724
 2902W        W 3999   2.807   2.466   5.013 -0.1524 -0.1357  0.0725
 2903W        W 4000   0.183   1.831   3.025 -0.0048 -0.4460 -0.0393
 2904W        W 4001   3.807   4.725   2.803 -0.0504 -0.0002  0.0125
 2905W        W 4002   7.439   2.574   6.291 -0.3212  0.0300  0.0720
 2906W        W 4003   5.507   1.550   0.181 -0.1089 -0.1288 -0.0079
 2907W        W 4004   0.831   4.259   1.113 -0.1794 -0.0112 -0.0710
 2908W        W 4005   4.566   2.312   2.617  0.0475  0.2316 -0.0115
 2909W        W 4006   0.146   0.034   0.202 -0.1407  0.2066 -0.0910
 2910W        W 4007   6.231   0.950   2.193 -0.1018  0.2081 -0.1539
 2911W        W 4008   6.891   1.784   2.888  0.1249  0.1053  0.1709
 2912W        W 4009   0.061   2.195   2.664  0.0981  0.2143  0.1499
 2913W        W 4010   6.413   0.083   3.842 -0.0174 -0.0171  0.4674
 2914W        W 4011   2.755   1.185   2.456 -0.3148 -0.0034 -0.1515
 2915W        W 4012   0.657   0.766   0.518 -0.2465  0.0581  0.1088
 2916W        W 4013   2.632   7.585   2.076 -0.2653 -0.0982  0.1238
 2917W        W 4014   5.459   5.220   5.471  0.0527  0.1422 -0.0061
 2918W        W 4015   0.143   0.359   2.699 -0.1145  0.0053 -0.0652
 2919W        W 4016   3.068   4.706   1.360  0.2293 -0.0631  0.3724
 2920W        W 4017   2.684   1.342   4.653 -0.2922 -0.2060 -0.2123
 2921W        W 4018   6.196   0.746   1.160 -0.1035 -0.0181  0.3686
 2922W        W 4019   2.530   1.347   1.573 -0.0218 -0.0478 -0.1801
 2923W        W 4020   4.823   1.301   4.029  0.0622 -0.1397 -0.0070
 2924W        W 4021   2.500   3.555   3.535 -0.1584  0.0928  0.0141
 2925W        W 4022   4.953   5.663   3.908  0.0826  0.3229 -0.0847
 2926W        W 4023   5.689   3.008   4.183  0.0009  0.0368 -0.0575
 2927W        W 4024   2.333   4.365   1.030 -0.3270  0.1512 -0.0559
 2928W        W 4025   6.706   0.181   3.419 -0.2026 -0.0743  0.1008
 2929W        W 4026   1.608   0.528   2.080 -0.0156  0.2089 -0.1148
 2930W        W 4027   0.041   1.478   3.956  0.0110  0.0294  0.0609
 2931W        W 4028   3.063   1.821   0.751 -0.0708  0.0886 -0.0188
 2932W        W 4029   6.244   7.177   2.495 -0.3374  0.1344  0.0456
 2933W        W 4030   3.302   2.181   3.175 -0.1661  0.2494  0.1169
 2934W        W 4031   0.591   3.135   7.280 -0.2526 -0.1859 -0.0309
 2935W        W 4032   1.294   6.675   4.536 -0.2857  0.1818 -0.0316
 2936W        W 4033   4.587   2.703   3.387 -0.1056  0.0156  0.2947
 2937W        W 4034   3.696   5.541   0.557 -0.0358 -0.0513  0.0244
 2938W        W 4035   6.200   5.593   5.962 -0.1168 -0.2417 -0.0538
 2939W        W 4036   1.337   5.867   3.234  0.6527  0.1165 -0.1776
 2940W        W 4037   5.491   1.588   5.180  0.1186 -0.4918  0.0228
 2941W        W 4038   2.743   5.606   3.071 -0.0524 -0.0556  0.2378
 2942W        W 4039   2.282   0.588   6.878  0.3332  0.0105  0.2725
 2943W        W 4040   4.660   2.274   1.162  0.2665 -0.0479  0.2170
 2944W        W 4041   6.854   5.471   3.240 -0.0945  0.1702 -0.0207
 2945W        W 4042   7.584   3.008   1.609  0.0732  0.0375 -0.1004
 2946W        W 4043   3.008   2.511   3.419  0.3091 -0.0317 -0.1161
 2947W        W 4044   1.524   3.123   2.425 -0.0003 -0.2902  0.1704
 2948W        W 4045   6.423   4.919   5.280  0.2058  0.0023  0.0101
 2949W        W 4046   0.391   6.198   2.360  0.3536 -0.0179  0.4137
 2950W        W 4047   6.952   0.843   6.868  0.0046  0.0567 -0.0376
 2951W        W 4048   5.511   7.063   0.045  0.1850  0.1797  0.2072
 2952W        W 4049   7.069   0.694   3.778  0.1851  0.0867  0.0317
 2953W        W 4050   7.353   4.588   5.431  0.2544  0.3136  0.1619
 2954W        W 4051   4.995   6.314   0.602 -0.0081  0.2803  0.2557
 2955W        W 4052   3.807   2.789   5.030  0.1099 -0.1967 -0.0494
 2956W        W 4053   7.368   3.829   3.839  0.3715  0.0664  0.0558
 2957W        W 4054   0.916   3.042   4.107 -0.0554 -0.3032  0.0883
 2958W        W 4055   4.636   4.132   3.712 -0.1946  0.0242 -0.3678
 2959W        W 4056   6.133   6.530   5.392  0.4210  0.1961 -0.0235
 2960W        W 4057   4.292   2.083   3.478  0.2538  0.1313  0.1297
 2961W        W 4058   0.653   0.455   4.317  0.0843  0.2612 -0.1041
 2962W        W 4059   1.820   7.277   5.323 -0.2539  0.1397 -0.0984
 2963W        W 4060   0.132   5.887   6.653  0.2520  0.0800  0.0494
 2964W        W 4061   7.148   4.809   6.564  0.0522  0.0155 -0.0745
 2965W        W 4062   0.496   7.061   0.108  0.1206  0.0901  0.1458
 2966W        W 4063   2.210   5.509   6.897  0.1159 -0.4137 -0.0379
 2967W        W 4064   6.570   7.205   5.822 -0.3702 -0.1300 -0.4269
 2968W        W 4065   1.244   3.077   6.904  0.1207  0.2053  0.1416
 2969W        W 4066   3.509   1.112   1.186 -0.4784 -0.0272  0.1031
 2970W        W 4067   0.834   4.616   4.159  0.0410 -0.0627 -0.3422
 2971W        W 4068   6.630   5.571   7.520 -0.0366  0.1360 -0.1484
 2972W        W 4069   0.398   4.544   4.447  0.2820  0.2984  0.2315
 2973W        W 4070   7.327   6.642   1.904 -0.1397  0.0570 -0.0854
 2974W        W 4071   1.379   1.996   5.952  0.0358 -0.1431  0.1629
 2975W        W 4072   5.178   1.235   5.325 -0.0450  0.0353  0.0181
 2976W        W 4073   6.015   7.433   6.410 -0.0708  0.0231  0.0557
 2977W        W 4074   3.527   0.816   0.755  0.0851 -0.1602  0.4469
 2978W        W 4075   5.884   6.603   2.955  0.1679  0.3600 -0.0721
 2979W        W 4076   2.883   2.670   5.979 -0.0242 -0.0495  0.1077
 2980W        W 4077   1.669   2.680   2.185  0.1284 -0.0717  0.0435
 2981W        W 4078   0.335   6.170   0.065 -0.0264 -0.1838  0.3314
 2982W        W 4079   0.761   2.669   0.370 -0.3244  0.0727 -0.0498
 2983W        W 4080   1.899   4.210   1.835  0.0292 -0.0396 -0.0760
 2984W        W 4081   1.383   4.181   1.004 -0.4535  0.0436 -0.1283
 2985W        W 4082   0.678   0.017   5.835  0.0389 -0.2609  0.3139
 2986W        W 4083   2.414   5.960   6.982 -0.2879 -0.0216 -0.0713
 2987W        W 4084   1.332   2.126   4.192 -0.1182 -0.1551 -0.2630
 2988W        W 4085   7.200   7.289   1.173 -0.1410 -0.0475 -0.2844
 2989W        W 4086   4.037   5.246   3.204 -0.4311  0.0141 -0.0501
 2990W        W 4087   5.113   7.209   4.491  0.1152 -0.0097 -0.0345
 2991W        W 4088   1.586   6.771   5.842 -0.1418  0.0339  0.1344
 2992W        W 4089   3.510   2.579   4.652 -0.0947 -0.0294  0.0724
 2993W        W 4090   3.842   2.219   5.753  0.4761 -0.1167  0.1107
 2994W        W 4091   0.538   4.714   6.065  0.2018 -0.1055 -0.2022
 2995W        W 4092   4.485   7.291   3.877  0.1089 -0.0345  0.0245
 2996W        W 4093   7.485   5.382   2.751 -0.1783  0.1069 -0.0216
 2997W        W 4094   4.933   3.187   1.239  0.0625 -0.1604 -0.0930
 2998W        W 4095   1.775   1.464   0.979  0.1417 -0.0732 -0.3724
 2999W        W 4096   2.489   1.209   7.503 -0.2283 -0.2189  0.0142
 3000W        W 4097   3.171   7.562   2.843  0.1198  0.1244  0.0368
 3001W        W 4098   7.543   7.448   2.201  0.0752  0.0080  0.2809
 3002W        W 4099   1.809   7.212   1.009  0.0265 -0.2073  0.3279
 3003W        W 4100   7.303   6.535   0.696 -0.1925 -0.1609 -0.0589
 3004W        W 4101   1.713   3.186   0.558 -0.0210  0.1979  0.1448
 3005W        W 4102   3.399   1.228   1.965 -0.2227  0.1567  0.1131
 3006W        W 4103   2.263   2.590   3.360  0.0916  0.0257 -0.3969
 3007W        W 4104   0.451   2.384   5.508  0.0643  0.0440  0.1677
 3008W        W 4105   6.783   6.594   0.932 -0.3065  0.1364  0.1858
 3009W        W 4106   1.506   0.406   0.214  0.0830  0.0030 -0.1297
 3010W        W 4107   1.089   2.122   4.655  0.2860 -0.1379 -0.0223
 3011W        W 4108   1.144   5.579   2.115  0.0079 -0.1169  0.1391
 3012W        W 4109   0.092   0.407   2.126 -0.2140 -0.0549  0.1100
 3013W        W 4110   0.782   1.142   0.210  0.1692  0.1942  0.1418
 3014W        W 4111   7.256   5.960   4.155  0.2488 -0.0111  0.0531
 3015W        W 4112   7.500   0.719   2.409 -0.0868 -0.2388  0.2453
 3016W        W 4113   5.545   3.430   7.179  0.2276  0.0364 -0.0777
 3017W        W 4114   4.261   2.483   1.031 -0.1154 -0.1084 -0.1241
 3018W        W 4115   0.188   5.922   4.888 -0.1136  0.2765 -0.0172
 3019W        W 4116   6.400   0.628   6.032 -0.1211  0.4445 -0.2785
 3020W        W 4117   0.089   6.509   5.994  0.1393  0.0325  0.1504
 3021W        W 4118   7.338   4.423   6.166  0.0547 -0.1651 -0.1003
 3022W        W 4119   4.673   1.328   1.470 -0.0970 -0.4850  0.1163
 3023W        W 4120   5.369   2.196   3.819 -0.0355  0.0711 -0.2357
 3024W        W 4121   5.935   5.311   5.634  0.1108  0.2234  0.3317
 3025W        W 4122   2.798   1.554   6.683 -0.2192 -0.2887 -0.0881
 3026W        W 4123   3.891   1.163   2.963  0.0948 -0.0923 -0.0865
 3027W        W 4124   0.087   2.314   3.134  0.0173  0.0477  0.3386
 3028W        W 4125   4.837   2.937   1.641  0.0606  0.1233  0.1286
 3029W        W 4126   6.923   0.631   4.243  0.1064  0.3057 -0.2672
 3030W        W 4127   7.038   6.644   2.292 -0.1280  0.2341 -0.0364
 3031W        W 4128   3.165   1.275   0.883  0.1433 -0.1032  0.5010
 3032W        W 4129   0.212   3.380   7.493 -0.1830  0.1281  0.0378
 3033W        W 4130   0.979   5.937   7.625 -0.1197 -0.0487 -0.0939
 3034W        W 4131   2.644   6.761   0.636 -0.1261 -0.0814 -0.2329
 3035W        W 4132   2.087   6.091   2.031  0.1592 -0.2104  0.0384
 3036W        W 4133   5.216   5.010   7.261 -0.0494 -0.0144  0.3616
 3037W        W 4134   6.595   0.053   7.082  0.2272  0.4697 -0.1498
 3038W        W 4135   4.514   0.628   4.517 -0.0594  0.0065 -0.1241
 3039W        W 4136   4.096   5.473   7.163  0.0566  0.0613 -0.1502
 3040W        W 4137   3.853   6.838   6.477 -0.0522  0.2997  0.1811
 3041W        W 4138   2.946   1.433   1.992  0.1553  0.0235  0.0416
 3042W        W 4139   2.118   6.934   7.113  0.2602 -0.0714 -0.0610
 3043W        W 4140   7.480   2.477   2.317  0.1307  0.0970  0.0556
 3044ION    CL- 4141   5.899   1.565   2.756 -0.2711  0.0087 -0.1314
 3045ION    CL- 4142   0.677   1.048   3.533 -0.1085 -0.0028  0.0509
 3046ION    CL- 4143   7.471   4.698   3.579  0.4494 -0.0912  0.0756
 3047ION    CL- 4144   5.956   3.177   0.224 -0.0641  0.1970 -0.1032
 3048ION    CL- 4145   3.997   4.236   2.943 -0.1016 -0.2140  0.0335
 3049ION    CL- 4146   0.158   4.423   2.656 -0.1740 -0.1617  0.1336
 3050ION    CL- 4147   3.932   4.952   3.661 -0.1240 -0.2777  0.0394
 3051ION    CL- 4148   3.960   4.670   6.153  0.2637 -0.1623 -0.3137
 3052ION    CL- 4149   1.870   0.705   4.907 -0.0091 -0.0403 -0.0593
 3053ION    CL- 4150   6.239   4.979   4.128  0.1864  0.1110 -0.3120
 3054ION    CL- 4151   3.158   1.582   3.066  0.0468 -0.2219 -0.3106
 3055ION    CL- 4152   6.865   3.581   0.309 -0.0778 -0.0370  0.2603
 3056ION    CL- 4153   5.690   2.808   1.637  0.2575  0.0191  0.1109
 3057ION    CL- 4154   0.616   3.770   7.439  0.1532  0.0137 -0.1579
 3058ION    CL- 4155   2.793   5.840   6.116 -0.2023  0.1118 -0.0711
 3059ION    CL- 4156   1.514   3.751   4.440  0.0369 -0.1930  0.1373
 3060ION    CL- 4157   2.149   6.428   0.488 -0.0142  0.1266  0.2479
 3061ION    CL- 4158   4.899   6.216   2.970 -0.4119 -0.0146  0.2591
 3062ION    CL- 4159   1.735   5.031   3.825  0.0655  0.2027  0.1341
 3063ION    CL- 4160   0.872   6.208   3.277  0.1276  0.0943 -0.0045
 3064ION    CL- 4161   7.623   2.035   6.200  0.0265 -0.3522 -0.1521
 3065ION    CL- 4162   2.347   3.596   5.052 -0.0474  0.4325  0.1717
 3066ION    CL- 4163   2.336   5.424   2.566  0.2484  0.2368 -0.0692
 3067ION    CL- 4164   3.565   2.589   5.478  0.3172  0.0831  0.0514
 3068ION    CL- 4165   2.860   4.757   0.290 -0.1410 -0.2846  0.0160
 3069ION    CL- 4166   4.537   3.522   3.082 -0.1854 -0.1818 -0.3199
 3070ION    CL- 4167   4.731   1.585   7.234  0.2145  0.2393  0.0527
 3071ION    CL- 4168   6.213   3.012   6.998  0.0665  0.2526  0.3856
 3072ION    CL- 4169   5.658   2.518   4.837 -0.0062  0.0153  0.2400
 3073ION    CL- 4170   3.080   3.101   1.730 -0.1776 -0.0533  0.0112
 3074ION    CL- 4171   4.836   2.330   0.059  0.0945  0.1868 -0.1994
 3075ION    CL- 4172   6.118   7.607   2.848 -0.3351 -0.1092 -0.0192
 3076ION    CL- 4173   2.827   0.134   5.267 -0.0792 -0.0956  0.1092
 3077ION    CL- 4174   4.138   3.435   0.754  0.0261  0.1698 -0.0823
 3078ION    CL- 4175   4.213   4.054   5.186 -0.1133 -0.0605 -0.2285
 3079ION    CL- 4176   7.299   7.502   0.250  0.0731 -0.1095 -0.1070
 3080ION    CL- 4177   3.888   7.542   4.618  0.1868 -0.2948  0.0646
 3081ION    CL- 4178   4.260   4.954   5.824 -0.0503 -0.0937 -0.4922
 3082ION    CL- 4179   1.997   4.511   0.576  0.1848  0.1993 -0.2826
 3083ION    CL- 4180   0.263   6.043   1.891  0.3872 -0.2752 -0.1554
 3084ION    CL- 4181   6.615   7.468   6.306  0.3581  0.2352 -0.1232
 3085ION    CL- 4182   4.398   6.545   5.711 -0.0704  0.1180 -0.0117
 3086ION    CL- 4183   5.853   4.055   0.276  0.1511  0.2020  0.3503
 3087ION    CL- 4184   3.320   4.083   4.826  0.3663  0.2635 -0.0430
 3088ION    CL- 4185   0.251   3.877   3.863  0.1464  0.2170 -0.2581
 3089ION    CL- 4186   4.494   5.645   6.330  0.1383  0.0423  0.1742
 3090ION    CL- 4187   5.592   1.376   6.827 -0.1563 -0.0227 -0.0771
 3091ION    CL- 4188   2.478   5.962   1.781 -0.0787  0.0891  0.0851
 3092ION    CL- 4189   1.769   5.145   1.955  0.0133 -0.1318  0.0393
 3093ION    CL- 4190   3.595   4.622   4.920  0.0672  0.3207 -0.1475
 3094ION    CL- 4191   6.449   5.824   1.408  0.0895  0.1151  0.1715
 3095ION    CL- 4192   7.124   1.744   0.459  0.0249 -0.1487  0.2700
 3096ION    CL- 4193   4.091   4.801   2.409 -0.0198  0.1068 -0.0261
 3097ION    CL- 4194   1.024   5.897   4.198  0.1380 -0.1112 -0.1472
 3098ION    CL- 4195   4.180   6.150   1.946  0.1802 -0.0676 -0.0214
 3099ION    CL- 4196   5.424   3.359   5.230 -0.0254 -0.0560  0.0939
 3100ION    CL- 4197   2.999   1.340   7.553  0.2919 -0.1464  0.1333
 3101ION    CL- 4198   3.626   1.912   1.445 -0.2743  0.2206  0.2411
 3102ION    CL- 4199   6.036   2.831   2.455 -0.0636  0.1301 -0.0515
 3103ION    CL- 4200   2.918   0.420   7.246 -0.1235  0.0871 -0.3465
 3104ION    CL- 4201   6.288   0.487   1.917  0.0212 -0.1189  0.0917
 3105ION    CL- 4202   0.923   0.285   6.207 -0.0388  0.3170  0.1152
 3106ION    CL- 4203   5.167   5.089   0.987 -0.0742  0.1315  0.0046
 3107ION    CL- 4204   4.426   5.312   2.673  0.1650  0.2860 -0.1467
 3108ION    CL- 4205   3.199   2.810   0.163  0.1108  0.2275 -0.2250
 3109ION    CL- 4206   2.380   4.426   7.139  0.0473 -0.1046  0.2403
 3110ION    CL- 4207   1.596   6.641   4.939 -0.2289  0.1009  0.4514
 3111ION    CL- 4208   6.886   0.193   3.915  0.0056  0.1850  0.0953
 3112ION    CL- 4209   2.948   6.980   5.706 -0.1574  0.3235  0.0299
 3113ION    CL- 4210   6.779   3.842   5.110  0.0839 -0.0425 -0.4159
 3114ION    CL- 4211   2.516   2.899   6.865 -0.2935  0.1141  0.1880
 3115ION    CL- 4212   2.149   3.788   3.274  0.0964 -0.0418 -0.1222
 3116ION    CL- 4213   7.545   6.031   5.698  0.1320  0.2914 -0.0625
 3117ION    CL- 4214   1.412   0.716   7.325 -0.5311 -0.0060  0.1609
 3118ION    CL- 4215   7.562   1.455   3.290  0.0515  0.0761  0.3075
 3119ION    CL- 4216   6.372   2.901   4.833 -0.0708 -0.1787  0.0428
 3120ION    CL- 4217   3.266   1.448   6.227 -0.0539 -0.0861  0.1315
 3121ION    CL- 4218   3.594   1.463   4.596 -0.1711 -0.1864 -0.0989
 3122ION    CL- 4219   6.341   0.707   3.358 -0.0562  0.1406 -0.0251
 3123ION    CL- 4220   1.848   6.640   3.278 -0.2787  0.2590 -0.3454
 3124ION    CL- 4221   1.657   1.211   0.535 -0.3751 -0.1280 -0.2093
 3125ION    CL- 4222   6.947   2.645   4.961 -0.1752 -0.1009 -0.1179
 3126ION    CL- 4223   4.982   5.753   4.367  0.1752 -0.2457 -0.1616
 3127ION    CL- 4224   5.871   4.681   4.980 -0.1071  0.1428  0.0464
 3128ION    CL- 4225   4.788   7.073   7.053  0.0970  0.1695 -0.0189
 3129ION    CL- 4226   5.090   3.230   3.969 -0.0480 -0.1443  0.2594
 3130ION    CL- 4227   4.758   3.943   0.012 -0.1529  0.1754 -0.2027
 3131ION    CL- 4228   5.368   4.727   4.193 -0.0415 -0.2085  0.4267
 3132ION    CL- 4229   5.539   3.391   4.592  0.1206  0.0338  0.0556
 3133ION    CL- 4230   5.942   3.809   7.195  0.0768 -0.0170 -0.1195
 3134ION    CL- 4231   5.226   7.552   3.232 -0.0811 -0.1670 -0.1190
 3135ION    CL- 4232   4.283   2.238   6.190 -0.3952 -0.3550  0.3058
 3136ION    CL- 4233   5.366   1.494   5.867 -0.1120 -0.3140  0.1044
 3137ION    CL- 4234   4.132   2.677   0.552  0.2367  0.1997  0.0428
 3138ION    CL- 4235   1.869   6.570   2.019 -0.1110  0.2268  0.0614
 3139ION    CL- 4236   4.435   4.325   6.776  0.0259  0.1785  0.1278
 3140ION    CL- 4237   0.643   3.267   6.180 -0.0471 -0.0138 -0.1713
 3141ION    CL- 4238   1.929   5.350   7.274 -0.0627 -0.3097 -0.0925
 3142ION    CL- 4239   4.664   5.679   1.375  0.2294 -0.4981  0.1507
 3143ION    CL- 4240   4.887   4.650   7.209  0.4449 -0.0869  0.2043
   7.64069   7.64069   7.64069
