Martini system from ../2_Creating_coordinates/TYR-GLU-TYR_aa.pdb
 4207
    1TYR     BB    1   2.978   4.481   4.852
    1TYR    SC1    2   3.247   4.497   5.021
    1TYR    SC2    3   3.482   4.600   5.105
    1TYR    SC3    4   3.338   4.442   5.269
    2GLU     BB    5   2.763   4.468   5.071
    2GLU    SC1    6   2.391   4.492   4.977
    3TYR     BB    7   2.843   4.554   5.327
    3TYR    SC1    8   2.920   4.380   5.551
    3TYR    SC2    9   2.758   4.291   5.748
    3TYR    SC3   10   3.017   4.346   5.801
    1TYR     BB   11   2.201   6.165   3.475
    1TYR    SC1   12   2.268   6.305   3.745
    1TYR    SC2   13   2.169   6.310   3.996
    1TYR    SC3   14   2.417   6.214   3.950
    2GLU     BB   15   2.172   5.843   3.661
    2GLU    SC1   16   1.943   5.699   3.400
    3TYR     BB   17   1.967   5.812   3.919
    3TYR    SC1   18   2.141   5.875   4.167
    3TYR    SC2   19   2.306   5.757   4.346
    3TYR    SC3   20   2.257   6.022   4.361
    1TYR     BB   21   0.401   3.209   5.227
    1TYR    SC1   22   0.165   3.254   5.023
    1TYR    SC2   23   7.895   3.248   5.022
    1TYR    SC3   24   0.028   3.391   4.835
    2GLU     BB   25   0.288   3.400   5.473
    2GLU    SC1   26   0.565   3.559   5.688
    3TYR     BB   27   7.997   3.465   5.471
    3TYR    SC1   28   7.919   3.655   5.238
    3TYR    SC2   29   7.886   3.912   5.162
    3TYR    SC3   30   7.748   3.716   5.038
    1TYR     BB   31   5.886   6.191   1.274
    1TYR    SC1   32   5.708   6.427   1.191
    1TYR    SC2   33   5.615   6.668   1.269
    1TYR    SC3   34   5.475   6.520   1.091
    2GLU     BB   35   5.837   6.164   1.598
    2GLU    SC1   36   6.228   6.137   1.670
    3TYR     BB   37   5.848   6.462   1.725
    3TYR    SC1   38   6.000   6.624   1.515
    3TYR    SC2   39   6.005   6.868   1.401
    3TYR    SC3   40   6.118   6.657   1.275
    1TYR     BB   41   5.020   0.618   2.325
    1TYR    SC1   42   5.199   0.410   2.477
    1TYR    SC2   43   5.349   0.186   2.495
    1TYR    SC3   44   5.284   0.324   2.718
    2GLU     BB   45   5.219   0.882   2.235
    2GLU    SC1   46   5.020   0.972   1.905
    3TYR     BB   47   5.454   0.693   2.052
    3TYR    SC1   48   5.609   0.587   2.298
    3TYR    SC2   49   5.738   0.434   2.480
    3TYR    SC3   50   5.585   0.641   2.562
    1TYR     BB   51   5.641   1.508   6.006
    1TYR    SC1   52   5.862   1.604   5.817
    1TYR    SC2   53   6.112   1.707   5.811
    1TYR    SC3   54   6.053   1.488   5.664
    2GLU     BB   55   5.821   1.255   6.146
    2GLU    SC1   56   5.721   0.927   6.341
    3TYR     BB   57   6.118   1.243   6.247
    3TYR    SC1   58   6.307   1.383   6.060
    3TYR    SC2   59   6.504   1.556   5.996
    3TYR    SC3   60   6.453   1.345   5.836
    1TYR     BB   61   1.582   4.340   2.359
    1TYR    SC1   62   1.849   4.408   2.490
    1TYR    SC2   63   2.104   4.360   2.417
    1TYR    SC3   64   2.053   4.503   2.640
    2GLU     BB   65   1.755   4.438   2.019
    2GLU    SC1   66   1.523   4.748   2.045
    3TYR     BB   67   2.094   4.389   1.923
    3TYR    SC1   68   2.344   4.529   2.051
    3TYR    SC2   69   2.510   4.510   2.263
    3TYR    SC3   70   2.505   4.736   2.116
    1TYR     BB   71   1.666   6.935   1.794
    1TYR    SC1   72   1.863   7.187   1.811
    1TYR    SC2   73   2.069   7.305   1.682
    1TYR    SC3   74   1.919   7.447   1.855
    2GLU     BB   75   1.510   7.032   1.500
    2GLU    SC1   76   1.224   6.763   1.504
    3TYR     BB   77   1.741   7.097   1.298
    3TYR    SC1   78   1.802   7.405   1.315
    3TYR    SC2   79   1.734   7.644   1.208
    3TYR    SC3   80   1.914   7.633   1.409
    1TYR     BB   81   2.030   1.743   4.093
    1TYR    SC1   82   1.734   1.679   4.170
    1TYR    SC2   83   1.566   1.474   4.223
    1TYR    SC3   84   1.472   1.699   4.107
    2GLU     BB   85   2.229   1.536   4.221
    2GLU    SC1   86   2.578   1.400   4.078
    3TYR     BB   87   2.065   1.226   4.129
    3TYR    SC1   88   1.893   1.211   4.383
    3TYR    SC2   89   1.860   1.117   4.634
    3TYR    SC3   90   1.889   1.382   4.592
    1TYR     BB   91   2.869   3.734   0.754
    1TYR    SC1   92   2.716   3.990   0.698
    1TYR    SC2   93   2.685   4.256   0.735
    1TYR    SC3   94   2.477   4.106   0.649
    2GLU     BB   95   2.982   3.613   0.524
    2GLU    SC1   96   3.353   3.674   0.563
    3TYR     BB   97   2.895   3.590   0.221
    3TYR    SC1   98   2.728   3.861   0.198
    3TYR    SC2   99   2.702   4.125   0.250
    3TYR    SC3  100   2.486   3.980   0.180
    1TYR     BB  101   4.690   6.533   4.010
    1TYR    SC1  102   4.445   6.682   4.144
    1TYR    SC2  103   4.355   6.913   4.251
    1TYR    SC3  104   4.252   6.677   4.333
    2GLU     BB  105   4.903   6.520   4.216
    2GLU    SC1  106   5.089   6.180   4.200
    3TYR     BB  107   4.853   6.535   4.505
    3TYR    SC1  108   4.617   6.709   4.597
    3TYR    SC2  109   4.404   6.735   4.761
    3TYR    SC3  110   4.530   6.955   4.668
    1TYR     BB  111   4.113   7.114   2.163
    1TYR    SC1  112   3.821   7.172   2.259
    1TYR    SC2  113   3.575   7.151   2.367
    1TYR    SC3  114   3.634   7.359   2.206
    2GLU     BB  115   4.187   6.828   2.070
    2GLU    SC1  116   4.564   6.888   1.968
    3TYR     BB  117   4.200   6.600   2.294
    3TYR    SC1  118   3.916   6.621   2.408
    3TYR    SC2  119   3.687   6.705   2.292
    3TYR    SC3  120   3.734   6.758   2.553
    1TYR     BB  121   4.717   1.129   0.016
    1TYR    SC1  122   4.547   0.942   0.210
    1TYR    SC2  123   4.410   0.715   0.260
    1TYR    SC3  124   4.435   0.903   0.453
    2GLU     BB  125   5.001   0.992   0.009
    2GLU    SC1  126   5.120   0.877   7.643
    3TYR     BB  127   5.035   0.725   0.171
    3TYR    SC1  128   4.852   0.635   0.407
    3TYR    SC2  129   4.705   0.431   0.505
    3TYR    SC3  130   4.771   0.638   0.664
    1TYR     BB  131   0.043   1.864   2.370
    1TYR    SC1  132   0.309   2.006   2.343
    1TYR    SC2  133   0.541   1.997   2.481
    1TYR    SC3  134   0.529   2.128   2.245
    2GLU     BB  135   0.177   1.538   2.312
    2GLU    SC1  136   7.830   1.348   2.326
    3TYR     BB  137   0.461   1.498   2.498
    3TYR    SC1  138   0.687   1.590   2.301
    3TYR    SC2  139   0.923   1.565   2.172
    3TYR    SC3  140   0.752   1.762   2.104
    1TYR     BB  141   7.561   1.671   6.226
    1TYR    SC1  142   7.247   1.635   6.269
    1TYR    SC2  143   6.997   1.726   6.222
    1TYR    SC3  144   7.037   1.531   6.403
    2GLU     BB  145   7.579   1.901   5.966
    2GLU    SC1  146   7.739   2.264   6.033
    3TYR     BB  147   7.296   2.009   5.930
    3TYR    SC1  148   7.106   1.815   5.780
    3TYR    SC2  149   6.842   1.764   5.760
    3TYR    SC3  150   7.011   1.677   5.569
    1TYR     BB  151   6.526   4.292   7.175
    1TYR    SC1  152   6.613   4.116   6.925
    1TYR    SC2  153   6.806   4.047   6.749
    1TYR    SC3  154   6.638   3.859   6.846
    2GLU     BB  155   6.689   4.148   7.406
    2GLU    SC1  156   6.803   4.244   7.780
    3TYR     BB  157   6.960   4.012   7.277
    3TYR    SC1  158   6.893   3.713   7.199
    3TYR    SC2  159   6.946   3.468   7.299
    3TYR    SC3  160   6.763   3.497   7.102
    1TYR     BB  161   6.140   4.265   2.511
    1TYR    SC1  162   6.236   4.534   2.644
    1TYR    SC2  163   6.204   4.696   2.857
    1TYR    SC3  164   6.442   4.686   2.731
    2GLU     BB  165   6.202   4.056   2.766
    2GLU    SC1  166   5.864   3.954   2.952
    3TYR     BB  167   6.275   4.221   3.043
    3TYR    SC1  168   6.499   4.047   3.169
    3TYR    SC2  169   6.680   3.926   3.328
    3TYR    SC3  170   6.664   3.859   3.067
    1TYR     BB  171   2.696   2.343   1.872
    1TYR    SC1  172   2.486   2.473   1.696
    1TYR    SC2  173   2.359   2.455   1.459
    1TYR    SC3  174   2.357   2.688   1.596
    2GLU     BB  175   2.640   2.251   2.156
    2GLU    SC1  176   2.998   2.127   2.226
    3TYR     BB  177   2.386   2.056   2.211
    3TYR    SC1  178   2.168   2.203   2.042
    3TYR    SC2  179   2.082   2.320   1.815
    3TYR    SC3  180   1.918   2.304   2.029
    1TYR     BB  181   4.132   1.346   2.242
    1TYR    SC1  182   4.310   1.310   2.500
    1TYR    SC2  183   4.523   1.419   2.625
    1TYR    SC3  184   4.362   1.247   2.758
    2GLU     BB  185   4.300   1.582   2.080
    2GLU    SC1  186   4.253   1.428   1.713
    3TYR     BB  187   4.575   1.687   2.216
    3TYR    SC1  188   4.831   1.518   2.273
    3TYR    SC2  189   5.031   1.456   2.443
    3TYR    SC3  190   5.057   1.401   2.180
    1TYR     BB  191   6.571   5.608   2.690
    1TYR    SC1  192   6.795   5.447   2.845
    1TYR    SC2  193   6.931   5.416   3.075
    1TYR    SC3  194   7.013   5.288   2.852
    2GLU     BB  195   6.661   5.928   2.770
    2GLU    SC1  196   6.824   6.033   2.437
    3TYR     BB  197   6.819   5.928   3.066
    3TYR    SC1  198   6.622   5.721   3.210
    3TYR    SC2  199   6.531   5.480   3.294
    3TYR    SC3  200   6.368   5.646   3.156
    1TYR     BB  201   2.315   5.042   7.196
    1TYR    SC1  202   2.196   5.070   7.484
    1TYR    SC2  203   1.949   5.115   7.583
    1TYR    SC3  204   2.143   5.018   7.744
    2GLU     BB  205   2.105   4.882   7.037
    2GLU    SC1  206   2.360   4.587   6.953
    3TYR     BB  207   1.812   4.895   7.126
    3TYR    SC1  208   1.746   4.760   7.390
    3TYR    SC2  209   1.793   4.678   7.643
    3TYR    SC3  210   1.591   4.569   7.500
    1TYR     BB  211   2.457   1.879   6.022
    1TYR    SC1  212   2.189   1.824   6.168
    1TYR    SC2  213   1.931   1.745   6.153
    1TYR    SC3  214   2.088   1.654   6.352
    2GLU     BB  215   2.387   1.895   5.717
    2GLU    SC1  216   2.746   1.917   5.569
    3TYR     BB  217   2.110   2.004   5.624
    3TYR    SC1  218   1.902   1.771   5.663
    3TYR    SC2  219   1.753   1.576   5.775
    3TYR    SC3  220   1.764   1.600   5.506
    1TYR     BB  221   1.192   2.552   4.780
    1TYR    SC1  222   1.445   2.380   4.821
    1TYR    SC2  223   1.588   2.216   4.980
    1TYR    SC3  224   1.607   2.194   4.712
    2GLU     BB  225   1.123   2.483   4.468
    2GLU    SC1  226   0.811   2.743   4.486
    3TYR     BB  227   1.188   2.199   4.350
    3TYR    SC1  228   1.469   2.147   4.245
    3TYR    SC2  229   1.626   2.114   4.028
    3TYR    SC3  230   1.738   2.140   4.272
    1TYR     BB  231   0.431   6.135   1.126
    1TYR    SC1  232   0.138   6.076   1.025
    1TYR    SC2  233   7.981   5.901   0.893
    1TYR    SC3  234   7.877   6.053   1.090
    2GLU     BB  235   0.540   5.807   1.056
    2GLU    SC1  236   0.879   5.707   1.239
    3TYR     BB  237   0.543   5.796   0.743
    3TYR    SC1  238   0.295   5.642   0.617
    3TYR    SC2  239   0.219   5.565   0.370
    3TYR    SC3  240   0.036   5.582   0.568
    1TYR     BB  241   0.417   2.337   6.688
    1TYR    SC1  242   0.231   2.590   6.730
    1TYR    SC2  243   0.041   2.756   6.826
    1TYR    SC3  244   0.283   2.853   6.759
    2GLU     BB  245   0.687   2.481   6.872
    2GLU    SC1  246   1.023   2.281   6.949
    3TYR     BB  247   0.549   2.489   7.160
    3TYR    SC1  248   0.421   2.770   7.190
    3TYR    SC2  249   0.247   2.977   7.193
    3TYR    SC3  250   0.494   3.006   7.300
    1TYR     BB  251   1.127   2.253   6.029
    1TYR    SC1  252   1.076   2.560   6.100
    1TYR    SC2  253   1.210   2.789   6.150
    1TYR    SC3  254   0.967   2.798   6.033
    2GLU     BB  255   1.295   2.257   5.795
    2GLU    SC1  256   1.086   2.085   5.505
    3TYR     BB  257   1.484   2.519   5.770
    3TYR    SC1  258   1.311   2.768   5.705
    3TYR    SC2  259   1.255   3.025   5.763
    3TYR    SC3  260   1.196   2.926   5.519
    1TYR     BB  261   5.341   6.149   0.335
    1TYR    SC1  262   5.032   6.199   0.374
    1TYR    SC2  263   4.790   6.320   0.383
    1TYR    SC3  264   4.806   6.051   0.377
    2GLU     BB  265   5.308   5.952   0.069
    2GLU    SC1  266   5.693   5.945   7.957
    3TYR     BB  267   5.002   5.980   7.904
    3TYR    SC1  268   4.751   6.171   7.921
    3TYR    SC2  269   4.525   6.261   0.037
    3TYR    SC3  270   4.555   6.276   7.769
    1TYR     BB  271   3.949   2.912   1.299
    1TYR    SC1  272   3.792   3.184   1.246
    1TYR    SC2  273   3.554   3.310   1.265
    1TYR    SC3  274   3.714   3.354   1.051
    2GLU     BB  275   4.115   2.993   1.552
    2GLU    SC1  276   3.890   2.828   1.824
    3TYR     BB  277   4.148   3.282   1.694
    3TYR    SC1  278   4.158   3.479   1.456
    3TYR    SC2  279   4.328   3.641   1.323
    3TYR    SC3  280   4.101   3.556   1.204
    1TYR     BB  281   4.382   0.001   1.198
    1TYR    SC1  282   4.147   0.211   1.174
    1TYR    SC2  283   4.080   0.465   1.234
    1TYR    SC3  284   3.962   0.340   1.026
    2GLU     BB  285   4.650   0.219   1.233
    2GLU    SC1  286   4.818   0.118   0.890
    3TYR     BB  287   4.572   0.519   1.126
    3TYR    SC1  288   4.402   0.458   0.873
    3TYR    SC2  289   4.266   0.480   0.641
    3TYR    SC3  290   4.329   0.236   0.738
    1TYR     BB  291   6.721   6.505   6.602
    1TYR    SC1  292   6.997   6.655   6.633
    1TYR    SC2  293   7.166   6.864   6.603
    1TYR    SC3  294   7.263   6.614   6.633
    2GLU     BB  295   6.809   6.210   6.728
    2GLU    SC1  296   6.545   6.168   7.015
    3TYR     BB  297   7.095   6.199   6.880
    3TYR    SC1  298   7.300   6.151   6.650
    3TYR    SC2  299   7.449   6.227   6.438
    3TYR    SC3  300   7.487   5.984   6.550
    1TYR     BB  301   5.719   3.471   2.911
    1TYR    SC1  302   5.875   3.549   2.645
    1TYR    SC2  303   5.905   3.533   2.377
    1TYR    SC3  304   5.871   3.773   2.495
    2GLU     BB  305   5.428   3.550   2.839
    2GLU    SC1  306   5.246   3.200   2.897
    3TYR     BB  307   5.373   3.561   2.526
    3TYR    SC1  308   5.480   3.691   2.271
    3TYR    SC2  309   5.393   3.832   2.058
    3TYR    SC3  310   5.634   3.711   2.051
    1TYR     BB  311   2.859   5.356   6.881
    1TYR    SC1  312   2.964   5.142   6.693
    1TYR    SC2  313   3.095   5.084   6.464
    1TYR    SC3  314   3.202   5.017   6.703
    2GLU     BB  315   3.133   5.534   6.901
    2GLU    SC1  316   3.075   5.815   6.650
    3TYR     BB  317   3.414   5.453   6.812
    3TYR    SC1  318   3.527   5.315   6.560
    3TYR    SC2  319   3.678   5.326   6.337
    3TYR    SC3  320   3.548   5.098   6.401
    1TYR     BB  321   2.382   0.912   1.033
    1TYR    SC1  322   2.392   0.954   0.725
    1TYR    SC2  323   2.366   0.837   0.483
    1TYR    SC3  324   2.553   1.028   0.521
    2GLU     BB  325   2.692   0.826   1.097
    2GLU    SC1  326   2.687   0.780   1.484
    3TYR     BB  327   2.894   1.014   1.018
    3TYR    SC1  328   2.974   1.045   0.722
    3TYR    SC2  329   2.986   1.219   0.517
    3TYR    SC3  330   3.179   1.033   0.547
    1TYR     BB  331   4.240   0.767   3.481
    1TYR    SC1  332   4.327   1.065   3.473
    1TYR    SC2  333   4.478   1.213   3.305
    1TYR    SC3  334   4.257   1.320   3.419
    2GLU     BB  335   4.429   0.644   3.216
    2GLU    SC1  336   4.741   0.720   3.450
    3TYR     BB  337   4.597   0.838   2.968
    3TYR    SC1  338   4.391   0.797   2.738
    3TYR    SC2  339   4.268   0.844   2.502
    3TYR    SC3  340   4.158   0.673   2.680
    1TYR     BB  341   4.395   1.022   5.894
    1TYR    SC1  342   4.604   0.827   5.798
    1TYR    SC2  343   4.683   0.591   5.695
    1TYR    SC3  344   4.757   0.822   5.576
    2GLU     BB  345   4.314   1.143   5.568
    2GLU    SC1  346   3.942   1.115   5.671
    3TYR     BB  347   4.350   1.039   5.253
    3TYR    SC1  348   4.519   0.791   5.191
    3TYR    SC2  349   4.583   0.533   5.241
    3TYR    SC3  350   4.751   0.689   5.098
    1TYR     BB  351   0.571   5.225   4.258
    1TYR    SC1  352   0.782   5.439   4.332
    1TYR    SC2  353   0.888   5.569   4.543
    1TYR    SC3  354   0.936   5.658   4.293
    2GLU     BB  355   0.663   4.955   4.388
    2GLU    SC1  356   0.318   4.879   4.572
    3TYR     BB  357   0.837   4.880   4.589
    3TYR    SC1  358   1.006   5.099   4.724
    3TYR    SC2  359   1.057   5.316   4.876
    3TYR    SC3  360   1.237   5.116   4.862
    1TYR     BB  361   6.393   6.938   7.638
    1TYR    SC1  362   6.083   6.901   7.557
    1TYR    SC2  363   5.823   6.836   7.531
    1TYR    SC3  364   6.009   6.704   7.388
    2GLU     BB  365   6.498   6.924   7.324
    2GLU    SC1  366   6.853   7.086   7.354
    3TYR     BB  367   6.357   7.090   7.105
    3TYR    SC1  368   6.050   7.045   7.063
    3TYR    SC2  369   5.789   7.070   7.130
    3TYR    SC3  370   5.860   7.047   6.871
    1TYR     BB  371   6.442   5.359   2.199
    1TYR    SC1  372   6.145   5.412   2.262
    1TYR    SC2  373   5.899   5.307   2.300
    1TYR    SC3  374   5.974   5.529   2.435
    2GLU     BB  375   6.432   5.065   2.064
    2GLU    SC1  376   6.801   4.955   2.023
    3TYR     BB  377   6.324   4.844   2.260
    3TYR    SC1  378   6.207   5.015   2.509
    3TYR    SC2  379   6.017   5.088   2.686
    3TYR    SC3  380   6.254   5.217   2.682
    1TYR     BB  381   2.814   0.348   1.759
    1TYR    SC1  382   2.847   0.048   1.876
    1TYR    SC2  383   2.775   7.867   2.063
    1TYR    SC3  384   2.784   7.797   1.802
    2GLU     BB  385   2.485   0.328   1.713
    2GLU    SC1  386   2.211   0.619   1.717
    3TYR     BB  387   2.351   0.167   1.977
    3TYR    SC1  388   2.326   7.872   1.877
    3TYR    SC2  389   2.357   7.606   1.911
    3TYR    SC3  390   2.324   7.707   1.663
    1TYR     BB  391   5.537   5.288   4.418
    1TYR    SC1  392   5.374   5.029   4.413
    1TYR    SC2  393   5.404   4.762   4.439
    1TYR    SC3  394   5.164   4.864   4.370
    2GLU     BB  395   5.502   5.391   4.731
    2GLU    SC1  396   5.835   5.445   4.915
    3TYR     BB  397   5.280   5.202   4.878
    3TYR    SC1  398   5.045   5.241   4.670
    3TYR    SC2  399   4.825   5.164   4.533
    3TYR    SC3  400   4.884   5.426   4.557
    1TYR     BB  401   7.146   1.491   4.720
    1TYR    SC1  402   7.266   1.684   4.934
    1TYR    SC2  403   7.443   1.871   5.017
    1TYR    SC3  404   7.262   1.770   5.190
    2GLU     BB  405   6.916   1.691   4.594
    2GLU    SC1  406   6.635   1.422   4.566
    3TYR     BB  407   6.783   1.910   4.720
    3TYR    SC1  408   6.890   2.005   4.998
    3TYR    SC2  409   7.044   2.154   5.163
    3TYR    SC3  410   6.857   1.988   5.265
    1TYR     BB  411   3.739   5.010   4.710
    1TYR    SC1  412   3.899   5.108   4.955
    1TYR    SC2  413   3.999   4.992   5.177
    1TYR    SC3  414   4.063   5.247   5.118
    2GLU     BB  415   3.821   4.686   4.745
    2GLU    SC1  416   3.817   4.575   4.389
    3TYR     BB  417   3.952   4.535   4.926
    3TYR    SC1  418   4.171   4.569   5.133
    3TYR    SC2  419   4.218   4.609   5.396
    3TYR    SC3  420   4.421   4.544   5.231
    1TYR     BB  421   4.789   6.011   2.912
    1TYR    SC1  422   4.872   5.718   2.857
    1TYR    SC2  423   5.027   5.496   2.855
    1TYR    SC3  424   4.784   5.492   2.737
    2GLU     BB  425   4.592   6.027   3.164
    2GLU    SC1  426   4.714   6.335   3.372
    3TYR     BB  427   4.652   5.793   3.384
    3TYR    SC1  428   4.631   5.534   3.216
    3TYR    SC2  429   4.733   5.294   3.145
    3TYR    SC3  430   4.488   5.368   3.058
    1TYR     BB  431   0.974   2.813   2.358
    1TYR    SC1  432   1.213   3.004   2.318
    1TYR    SC2  433   1.429   3.145   2.399
    1TYR    SC3  434   1.419   3.043   2.149
    2GLU     BB  435   1.144   2.548   2.495
    2GLU    SC1  436   0.798   2.411   2.618
    3TYR     BB  437   1.398   2.654   2.639
    3TYR    SC1  438   1.628   2.716   2.444
    3TYR    SC2  439   1.855   2.628   2.328
    3TYR    SC3  440   1.808   2.893   2.350
    1TYR     BB  441   1.490   0.036   5.389
    1TYR    SC1  442   1.451   7.789   5.595
    1TYR    SC2  443   1.417   7.525   5.638
    1TYR    SC3  444   1.356   7.702   5.833
    2GLU     BB  445   1.342   7.961   5.137
    2GLU    SC1  446   1.417   0.165   4.809
    3TYR     BB  447   1.410   7.677   4.977
    3TYR    SC1  448   1.587   7.535   5.187
    3TYR    SC2  449   1.792   7.363   5.218
    3TYR    SC3  450   1.785   7.592   5.361
    1TYR     BB  451   0.584   4.141   0.970
    1TYR    SC1  452   0.626   3.875   0.813
    1TYR    SC2  453   0.460   3.682   0.723
    1TYR    SC3  454   0.699   3.615   0.829
    2GLU     BB  455   0.371   3.984   1.209
    2GLU    SC1  456   0.560   4.134   1.509
    3TYR     BB  457   0.438   3.668   1.295
    3TYR    SC1  458   0.263   3.504   1.106
    3TYR    SC2  459   0.120   3.279   1.064
    3TYR    SC3  460   0.054   3.508   0.935
    1TYR     BB  461   3.725   7.234   4.995
    1TYR    SC1  462   3.563   7.006   4.886
    1TYR    SC2  463   3.457   6.783   4.994
    1TYR    SC3  464   3.330   6.907   4.791
    2GLU     BB  465   3.754   7.127   5.326
    2GLU    SC1  466   4.145   7.161   5.271
    3TYR     BB  467   3.635   6.841   5.474
    3TYR    SC1  468   3.329   6.877   5.562
    3TYR    SC2  469   3.103   6.769   5.664
    3TYR    SC3  470   3.136   7.037   5.661
    1TYR     BB  471   7.345   6.728   2.434
    1TYR    SC1  472   7.542   6.862   2.633
    1TYR    SC2  473   7.745   6.927   2.800
    1TYR    SC3  474   7.530   7.090   2.778
    2GLU     BB  475   7.144   7.001   2.391
    2GLU    SC1  476   6.903   6.966   2.090
    3TYR     BB  477   7.305   7.242   2.288
    3TYR    SC1  478   7.382   7.459   2.491
    3TYR    SC2  479   7.559   7.545   2.676
    3TYR    SC3  480   7.322   7.672   2.646
    1TYR     BB  481   5.787   5.523   7.651
    1TYR    SC1  482   5.986   5.539   7.885
    1TYR    SC2  483   6.246   5.573   7.950
    1TYR    SC3  484   6.056   5.593   0.141
    2GLU     BB  485   5.876   5.788   7.472
    2GLU    SC1  486   5.743   5.668   7.130
    3TYR     BB  487   6.094   5.964   7.542
    3TYR    SC1  488   6.373   5.858   7.588
    3TYR    SC2  489   6.612   5.869   7.462
    3TYR    SC3  490   6.588   5.733   7.694
    1TYR     BB  491   5.834   2.119   5.762
    1TYR    SC1  492   5.794   2.423   5.772
    1TYR    SC2  493   5.711   2.680   5.766
    1TYR    SC3  494   5.796   2.570   5.998
    2GLU     BB  495   5.730   2.027   6.047
    2GLU    SC1  496   5.381   2.217   6.031
    3TYR     BB  497   5.779   2.130   6.309
    3TYR    SC1  498   5.910   2.319   6.494
    3TYR    SC2  499   5.933   2.333   6.762
    3TYR    SC3  500   6.093   2.484   6.606
    1TYR     BB  501   2.226   1.793   0.795
    1TYR    SC1  502   2.291   2.089   0.865
    1TYR    SC2  503   2.345   2.336   0.771
    1TYR    SC3  504   2.407   2.272   1.026
    2GLU     BB  505   1.922   1.764   0.883
    2GLU    SC1  506   1.836   1.439   0.679
    3TYR     BB  507   1.737   1.942   0.666
    3TYR    SC1  508   1.815   2.228   0.747
    3TYR    SC2  509   1.899   2.485   0.742
    3TYR    SC3  510   1.910   2.344   0.972
    1TYR     BB  511   1.842   5.158   6.053
    1TYR    SC1  512   1.932   5.349   5.833
    1TYR    SC2  513   1.971   5.418   5.575
    1TYR    SC3  514   2.096   5.554   5.772
    2GLU     BB  515   1.543   5.219   6.143
    2GLU    SC1  516   1.563   5.366   6.496
    3TYR     BB  517   1.354   5.462   6.038
    3TYR    SC1  518   1.511   5.576   5.792
    3TYR    SC2  519   1.548   5.584   5.524
    3TYR    SC3  520   1.680   5.756   5.685
    1TYR     BB  521   2.144   5.912   6.973
    1TYR    SC1  522   2.194   5.666   6.805
    1TYR    SC2  523   2.253   5.488   6.611
    1TYR    SC3  524   2.372   5.469   6.852
    2GLU     BB  525   2.432   5.931   7.157
    2GLU    SC1  526   2.429   5.840   7.545
    3TYR     BB  527   2.701   5.789   7.093
    3TYR    SC1  528   2.773   5.576   7.307
    3TYR    SC2  529   2.898   5.380   7.444
    3TYR    SC3  530   2.634   5.361   7.392
    1TYR     BB  531   3.754   2.041   5.002
    1TYR    SC1  532   3.537   2.168   5.191
    1TYR    SC2  533   3.280   2.233   5.244
    1TYR    SC3  534   3.477   2.308   5.414
    2GLU     BB  535   3.725   1.746   5.068
    2GLU    SC1  536   3.529   1.667   4.731
    3TYR     BB  537   3.631   1.654   5.404
    3TYR    SC1  538   3.479   1.864   5.573
    3TYR    SC2  539   3.252   1.994   5.638
    3TYR    SC3  540   3.408   1.891   5.832
    1TYR     BB  541   0.331   1.066   3.698
    1TYR    SC1  542   0.212   1.078   3.988
    1TYR    SC2  543   7.995   1.088   4.149
    1TYR    SC3  544   0.234   1.178   4.237
    2GLU     BB  545   0.562   0.862   3.697
    2GLU    SC1  546   0.637   0.848   3.312
    3TYR     BB  547   0.510   0.578   3.818
    3TYR    SC1  548   0.315   0.621   4.054
    3TYR    SC2  549   0.051   0.627   4.113
    3TYR    SC3  550   0.233   0.701   4.298
    1TYR     BB  551   0.166   6.562   0.912
    1TYR    SC1  552   0.012   6.492   1.173
    1TYR    SC2  553   0.065   6.369   1.408
    1TYR    SC3  554   7.813   6.450   1.351
    2GLU     BB  555   0.468   6.662   1.055
    2GLU    SC1  556   0.580   6.847   0.716
    3TYR     BB  557   0.749   6.549   1.121
    3TYR    SC1  558   0.802   6.398   1.381
    3TYR    SC2  559   0.876   6.145   1.439
    3TYR    SC3  560   0.917   6.342   1.619
    1TYR     BB  561   6.440   0.360   3.662
    1TYR    SC1  562   6.425   0.615   3.484
    1TYR    SC2  563   6.475   0.868   3.402
    1TYR    SC3  564   6.273   0.727   3.291
    2GLU     BB  565   6.615   0.154   3.430
    2GLU    SC1  566   6.813   7.848   3.572
    3TYR     BB  567   6.818   0.316   3.270
    3TYR    SC1  568   6.658   0.522   3.098
    3TYR    SC2  569   6.635   0.764   2.982
    3TYR    SC3  570   6.488   0.556   2.892
    1TYR     BB  571   4.174   5.986   1.652
    1TYR    SC1  572   3.899   5.947   1.788
    1TYR    SC2  573   3.649   6.026   1.721
    1TYR    SC3  574   3.685   5.830   1.904
    2GLU     BB  575   4.080   5.897   1.337
    2GLU    SC1  576   4.349   5.859   1.052
    3TYR     BB  577   3.898   6.122   1.267
    3TYR    SC1  578   3.612   6.034   1.243
    3TYR    SC2  579   3.359   6.123   1.275
    3TYR    SC3  580   3.413   5.935   1.089
    1TYR     BB  581   0.453   7.638   4.676
    1TYR    SC1  582   0.466   7.950   4.706
    1TYR    SC2  583   0.350   0.192   4.680
    1TYR    SC3  584   0.566   0.163   4.839
    2GLU     BB  585   0.208   7.488   4.876
    2GLU    SC1  586   0.194   7.094   4.966
    3TYR     BB  587   0.210   7.498   5.252
    3TYR    SC1  588   7.896   7.481   5.260
    3TYR    SC2  589   7.699   7.597   5.117
    3TYR    SC3  590   7.639   7.409   5.300
    1TYR     BB  591   2.529   3.097   6.817
    1TYR    SC1  592   2.261   3.136   6.671
    1TYR    SC2  593   2.042   3.030   6.553
    1TYR    SC3  594   2.145   3.263   6.463
    2GLU     BB  595   2.628   3.400   6.930
    2GLU    SC1  596   2.610   3.214   7.294
    3TYR     BB  597   2.432   3.687   6.838
    3TYR    SC1  598   2.365   3.735   6.535
    3TYR    SC2  599   2.354   3.936   6.355
    3TYR    SC3  600   2.251   3.694   6.294
    1TYR     BB  601   0.184   2.285   1.892
    1TYR    SC1  602   0.276   2.487   2.114
    1TYR    SC2  603   0.220   2.715   2.248
    1TYR    SC3  604   0.452   2.585   2.294
    2GLU     BB  605   7.894   2.217   2.021
    2GLU    SC1  606   7.684   2.463   1.789
    3TYR     BB  607   7.823   2.362   2.290
    3TYR    SC1  608   0.043   2.379   2.505
    3TYR    SC2  609   0.134   2.565   2.678
    3TYR    SC3  610   0.274   2.338   2.639
    1TYR     BB  611   2.752   7.082   6.545
    1TYR    SC1  612   2.983   6.943   6.371
    1TYR    SC2  613   3.138   6.740   6.284
    1TYR    SC3  614   3.033   6.916   6.108
    2GLU     BB  615   2.490   6.992   6.322
    2GLU    SC1  616   2.141   7.137   6.448
    3TYR     BB  617   2.554   6.760   6.110
    3TYR    SC1  618   2.557   6.871   5.824
    3TYR    SC2  619   2.394   6.895   5.611
    3TYR    SC3  620   2.645   6.994   5.600
    1TYR     BB  621   3.579   4.233   3.143
    1TYR    SC1  622   3.707   4.239   3.414
    1TYR    SC2  623   3.747   4.427   3.604
    1TYR    SC3  624   3.943   4.252   3.544
    2GLU     BB  625   3.481   4.564   3.140
    2GLU    SC1  626   3.255   4.680   2.844
    3TYR     BB  627   3.689   4.760   3.230
    3TYR    SC1  628   3.655   4.885   3.515
    3TYR    SC2  629   3.747   5.070   3.689
    3TYR    SC3  630   3.488   4.995   3.696
    1TYR     BB  631   6.152   3.635   7.723
    1TYR    SC1  632   6.344   3.536   7.948
    1TYR    SC2  633   6.584   3.439   0.023
    1TYR    SC3  634   6.399   3.501   0.210
    2GLU     BB  635   6.240   3.967   7.711
    2GLU    SC1  636   5.876   4.104   7.784
    3TYR     BB  637   6.365   4.070   7.951
    3TYR    SC1  638   6.571   3.922   0.120
    3TYR    SC2  639   6.813   3.811   0.167
    3TYR    SC3  640   6.645   3.860   0.372
    1TYR     BB  641   6.637   6.908   4.358
    1TYR    SC1  642   6.471   6.987   4.592
    1TYR    SC2  643   6.204   7.009   4.628
    1TYR    SC3  644   6.368   7.001   4.842
    2GLU     BB  645   6.925   6.786   4.348
    2GLU    SC1  646   7.016   6.988   4.021
    3TYR     BB  647   6.976   6.485   4.513
    3TYR    SC1  648   6.811   6.555   4.767
    3TYR    SC2  649   6.641   6.583   4.975
    3TYR    SC3  650   6.773   6.798   4.879
    1TYR     BB  651   1.497   0.904   5.864
    1TYR    SC1  652   1.581   1.176   5.966
    1TYR    SC2  653   1.740   1.315   6.135
    1TYR    SC3  654   1.480   1.382   6.107
    2GLU     BB  655   1.399   0.891   5.582
    2GLU    SC1  656   1.300   0.497   5.657
    3TYR     BB  657   1.427   1.215   5.458
    3TYR    SC1  658   1.335   1.450   5.639
    3TYR    SC2  659   1.350   1.718   5.671
    3TYR    SC3  660   1.163   1.576   5.805
    1TYR     BB  661   5.038   1.943   7.644
    1TYR    SC1  662   4.882   2.081   7.416
    1TYR    SC2  663   4.851   2.347   7.381
    1TYR    SC3  664   4.903   2.188   7.169
    2GLU     BB  665   5.308   2.167   7.613
    2GLU    SC1  666   5.374   2.275   7.980
    3TYR     BB  667   5.368   2.429   7.494
    3TYR    SC1  668   5.235   2.547   7.246
    3TYR    SC2  669   5.026   2.703   7.178
    3TYR    SC3  670   5.146   2.549   6.991
    1TYR     BB  671   7.440   4.186   3.844
    1TYR    SC1  672   7.167   4.268   3.720
    1TYR    SC2  673   7.023   4.460   3.596
    1TYR    SC3  674   6.963   4.200   3.556
    2GLU     BB  675   7.558   3.981   3.628
    2GLU    SC1  676   7.927   4.091   3.595
    3TYR     BB  677   7.474   3.964   3.353
    3TYR    SC1  678   7.259   4.150   3.238
    3TYR    SC2  679   7.158   4.387   3.155
    3TYR    SC3  680   7.028   4.157   3.099
    1TYR     BB  681   1.245   3.700   3.454
    1TYR    SC1  682   1.472   3.525   3.341
    1TYR    SC2  683   1.503   3.434   3.089
    1TYR    SC3  684   1.637   3.317   3.292
    2GLU     BB  685   1.115   3.851   3.212
    2GLU    SC1  686   1.119   4.242   3.146
    3TYR     BB  687   0.942   3.768   2.992
    3TYR    SC1  688   1.101   3.600   2.794
    3TYR    SC2  689   1.255   3.390   2.722
    3TYR    SC3  690   1.215   3.594   2.549
    1TYR     BB  691   1.544   0.976   1.527
    1TYR    SC1  692   1.637   1.031   1.234
    1TYR    SC2  693   1.806   1.018   1.024
    1TYR    SC3  694   1.572   1.150   1.001
    2GLU     BB  695   1.211   0.899   1.444
    2GLU    SC1  696   1.311   0.511   1.454
    3TYR     BB  697   1.153   0.877   1.123
    3TYR    SC1  698   1.061   1.124   0.960
    3TYR    SC2  699   0.909   1.184   0.746
    3TYR    SC3  700   0.956   1.371   0.934
    1TYR     BB  701   1.359   7.052   3.996
    1TYR    SC1  702   1.536   7.110   3.748
    1TYR    SC2  703   1.630   7.020   3.511
    1TYR    SC3  704   1.638   7.284   3.567
    2GLU     BB  705   1.061   7.019   3.821
    2GLU    SC1  706   0.843   7.093   4.142
    3TYR     BB  707   1.032   6.809   3.560
    3TYR    SC1  708   0.791   6.941   3.415
    3TYR    SC2  709   0.595   7.027   3.250
    3TYR    SC3  710   0.608   7.118   3.504
    1TYR     BB  711   3.742   3.748   4.680
    1TYR    SC1  712   3.602   3.962   4.840
    1TYR    SC2  713   3.546   4.091   5.070
    1TYR    SC3  714   3.568   4.230   4.840
    2GLU     BB  715   3.970   3.609   4.852
    2GLU    SC1  716   4.310   3.791   4.740
    3TYR     BB  717   3.877   3.445   5.094
    3TYR    SC1  718   3.813   3.596   5.349
    3TYR    SC2  719   3.765   3.607   5.614
    3TYR    SC3  720   3.890   3.812   5.491
    1TYR     BB  721   4.392   4.388   0.352
    1TYR    SC1  722   4.643   4.544   0.429
    1TYR    SC2  723   4.812   4.752   0.399
    1TYR    SC3  724   4.747   4.666   0.646
    2GLU     BB  725   4.302   4.512   0.047
    2GLU    SC1  726   3.968   4.303   0.098
    3TYR     BB  727   4.422   4.715   7.833
    3TYR    SC1  728   4.540   4.984   7.941
    3TYR    SC2  729   4.610   5.244   7.919
    3TYR    SC3  730   4.733   5.086   0.100
    1TYR     BB  731   2.695   1.346   3.417
    1TYR    SC1  732   2.459   1.482   3.550
    1TYR    SC2  733   2.253   1.432   3.718
    1TYR    SC3  734   2.368   1.676   3.715
    2GLU     BB  735   2.847   1.177   3.625
    2GLU    SC1  736   3.016   0.926   3.372
    3TYR     BB  737   2.961   1.070   3.895
    3TYR    SC1  738   3.092   1.312   4.045
    3TYR    SC2  739   3.036   1.535   4.188
    3TYR    SC3  740   3.245   1.379   4.258
    1TYR     BB  741   2.413   6.528   2.273
    1TYR    SC1  742   2.185   6.327   2.265
    1TYR    SC2  743   2.123   6.071   2.323
    1TYR    SC3  744   1.973   6.272   2.423
    2GLU     BB  745   2.587   6.367   2.526
    2GLU    SC1  746   2.875   6.550   2.704
    3TYR     BB  747   2.501   6.132   2.642
    3TYR    SC1  748   2.235   6.071   2.787
    3TYR    SC2  749   2.125   5.962   3.008
    3TYR    SC3  750   1.971   6.101   2.835
    1TYR     BB  751   4.295   5.802   5.889
    1TYR    SC1  752   4.372   5.599   5.664
    1TYR    SC2  753   4.250   5.467   5.462
    1TYR    SC3  754   4.513   5.527   5.444
    2GLU     BB  755   3.978   5.884   5.679
    2GLU    SC1  756   3.834   6.087   5.984
    3TYR     BB  757   3.863   5.791   5.385
    3TYR    SC1  758   3.761   6.003   5.169
    3TYR    SC2  759   3.718   6.027   4.903
    3TYR    SC3  760   3.732   6.247   5.058
    1TYR     BB  761   7.918   5.052   7.870
    1TYR    SC1  762   0.163   5.243   7.846
    1TYR    SC2  763   0.264   5.447   7.701
    1TYR    SC3  764   0.367   5.391   7.944
    2GLU     BB  765   7.708   5.170   7.619
    2GLU    SC1  766   7.948   4.983   7.361
    3TYR     BB  767   7.463   5.409   7.751
    3TYR    SC1  768   7.647   5.498   7.986
    3TYR    SC2  769   7.903   5.580   0.019
    3TYR    SC3  770   7.788   5.418   0.202
    1TYR     BB  771   6.547   1.328   1.788
    1TYR    SC1  772   6.766   1.110   1.760
    1TYR    SC2  773   6.846   0.853   1.731
    1TYR    SC3  774   7.020   1.039   1.821
    2GLU     BB  775   6.643   1.598   1.681
    2GLU    SC1  776   6.359   1.656   1.422
    3TYR     BB  777   6.868   1.685   1.527
    3TYR    SC1  778   7.107   1.842   1.645
    3TYR    SC2  779   7.352   1.802   1.751
    3TYR    SC3  780   7.270   2.052   1.690
    1TYR     BB  781   5.123   4.353   4.537
    1TYR    SC1  782   5.283   4.363   4.270
    1TYR    SC2  783   5.534   4.405   4.179
    1TYR    SC3  784   5.360   4.259   4.033
    2GLU     BB  785   5.341   4.338   4.785
    2GLU    SC1  786   5.280   4.700   4.903
    3TYR     BB  787   5.657   4.396   4.692
    3TYR    SC1  788   5.824   4.137   4.741
    3TYR    SC2  789   6.068   4.051   4.818
    3TYR    SC3  790   5.911   3.893   4.665
    1TYR     BB  791   1.473   5.765   7.118
    1TYR    SC1  792   1.526   5.536   7.314
    1TYR    SC2  793   1.691   5.485   7.522
    1TYR    SC3  794   1.571   5.281   7.391
    2GLU     BB  795   1.706   5.969   7.193
    2GLU    SC1  796   1.600   6.315   7.330
    3TYR     BB  797   1.915   5.921   7.433
    3TYR    SC1  798   1.771   5.930   7.695
    3TYR    SC2  799   1.828   5.955   7.958
    3TYR    SC3  800   1.623   5.798   7.878
    1TYR     BB  801   5.005   2.492   1.593
    1TYR    SC1  802   5.019   2.757   1.764
    1TYR    SC2  803   4.887   2.956   1.890
    1TYR    SC3  804   5.155   2.932   1.920
    2GLU     BB  805   4.726   2.372   1.660
    2GLU    SC1  806   4.622   2.289   1.295
    3TYR     BB  807   4.615   2.485   1.917
    3TYR    SC1  808   4.835   2.521   2.118
    3TYR    SC2  809   4.963   2.706   2.267
    3TYR    SC3  810   5.100   2.498   2.163
    1TYR     BB  811   2.178   7.258   2.897
    1TYR    SC1  812   2.356   7.008   2.873
    1TYR    SC2  813   2.492   6.791   2.957
    1TYR    SC3  814   2.451   6.830   2.693
    2GLU     BB  815   1.999   7.150   3.178
    2GLU    SC1  816   2.035   7.514   3.325
    3TYR     BB  817   1.836   6.895   3.068
    3TYR    SC1  818   2.042   6.682   2.985
    3TYR    SC2  819   2.157   6.452   3.069
    3TYR    SC3  820   2.156   6.515   2.806
    1TYR     BB  821   6.014   3.183   3.558
    1TYR    SC1  822   5.878   3.359   3.767
    1TYR    SC2  823   5.817   3.421   4.022
    1TYR    SC3  824   5.891   3.615   3.851
    2GLU     BB  825   6.287   3.087   3.749
    2GLU    SC1  826   6.332   2.693   3.734
    3TYR     BB  827   6.264   3.080   4.075
    3TYR    SC1  828   6.236   3.374   4.167
    3TYR    SC2  829   6.133   3.574   4.316
    3TYR    SC3  830   6.270   3.631   4.091
    1TYR     BB  831   1.506   0.851   3.012
    1TYR    SC1  832   1.693   0.809   2.775
    1TYR    SC2  833   1.888   0.727   2.607
    1TYR    SC3  834   1.733   0.938   2.541
    2GLU     BB  835   1.215   0.909   2.847
    2GLU    SC1  836   1.008   0.626   3.009
    3TYR     BB  837   1.222   0.838   2.549
    3TYR    SC1  838   0.998   0.963   2.374
    3TYR    SC2  839   0.919   1.074   2.141
    3TYR    SC3  840   0.798   1.143   2.372
    1TYR     BB  841   6.880   2.969   3.114
    1TYR    SC1  842   6.583   2.993   3.170
    1TYR    SC2  843   6.351   2.920   3.286
    1TYR    SC3  844   6.397   3.180   3.228
    2GLU     BB  845   6.895   3.149   2.827
    2GLU    SC1  846   7.261   3.269   2.881
    3TYR     BB  847   6.750   3.413   2.865
    3TYR    SC1  848   6.546   3.493   2.646
    3TYR    SC2  849   6.377   3.659   2.517
    3TYR    SC3  850   6.306   3.403   2.563
    1TYR     BB  851   7.336   6.386   7.680
    1TYR    SC1  852   7.588   6.548   7.771
    1TYR    SC2  853   7.677   6.778   7.881
    1TYR    SC3  854   7.841   6.630   7.726
    2GLU     BB  855   7.088   6.464   7.832
    2GLU    SC1  856   6.837   6.635   7.596
    3TYR     BB  857   7.128   6.714   0.042
    3TYR    SC1  858   7.365   6.601   0.206
    3TYR    SC2  859   7.622   6.570   0.284
    3TYR    SC3  860   7.477   6.355   0.209
    1TYR     BB  861   4.612   2.126   6.718
    1TYR    SC1  862   4.549   2.337   6.940
    1TYR    SC2  863   4.460   2.389   7.190
    1TYR    SC3  864   4.603   2.575   7.056
    2GLU     BB  865   4.619   1.861   6.858
    2GLU    SC1  866   4.827   1.660   6.577
    3TYR     BB  867   4.499   1.862   7.165
    3TYR    SC1  868   4.414   2.013   7.424
    3TYR    SC2  869   4.249   2.046   7.636
    3TYR    SC3  870   4.481   2.184   7.623
    1TYR     BB  871   4.467   6.958   0.604
    1TYR    SC1  872   4.339   6.988   0.320
    1TYR    SC2  873   4.403   6.887   0.078
    1TYR    SC3  874   4.145   6.942   0.138
    2GLU     BB  875   4.459   6.617   0.609
    2GLU    SC1  876   4.521   6.646   0.999
    3TYR     BB  877   4.227   6.482   0.438
    3TYR    SC1  878   4.140   6.495   0.143
    3TYR    SC2  879   4.191   6.534   7.881
    3TYR    SC3  880   3.936   6.516   7.968
    1TYR     BB  881   7.705   1.022   1.542
    1TYR    SC1  882   7.423   0.897   1.573
    1TYR    SC2  883   7.193   0.881   1.433
    1TYR    SC3  884   7.265   0.679   1.597
    2GLU     BB  885   7.691   1.226   1.277
    2GLU    SC1  886   7.747   1.533   1.508
    3TYR     BB  887   7.538   1.419   1.020
    3TYR    SC1  888   7.298   1.236   0.985
    3TYR    SC2  889   7.064   1.126   1.063
    3TYR    SC3  890   7.276   0.968   1.009
    1TYR     BB  891   3.288   4.294   7.403
    1TYR    SC1  892   3.442   4.467   7.613
    1TYR    SC2  893   3.419   4.559   7.866
    1TYR    SC3  894   3.662   4.543   7.749
    2GLU     BB  895   3.518   4.212   7.194
    2GLU    SC1  896   3.295   4.209   6.863
    3TYR     BB  897   3.734   4.029   7.323
    3TYR    SC1  898   3.917   4.185   7.513
    3TYR    SC2  899   4.177   4.149   7.574
    3TYR    SC3  900   4.061   4.389   7.616
    1TYR     BB  901   5.753   1.463   0.434
    1TYR    SC1  902   5.982   1.656   0.510
    1TYR    SC2  903   6.131   1.830   0.366
    1TYR    SC3  904   6.195   1.778   0.623
    2GLU     BB  905   5.789   1.438   0.120
    2GLU    SC1  906   5.830   1.045   0.136
    3TYR     BB  907   6.015   1.576   7.956
    3TYR    SC1  908   5.960   1.880   7.874
    3TYR    SC2  909   5.826   2.111   7.833
    3TYR    SC3  910   6.064   2.069   7.712
    1TYR     BB  911   5.520   1.390   3.247
    1TYR    SC1  912   5.561   1.617   3.034
    1TYR    SC2  913   5.475   1.863   2.964
    1TYR    SC3  914   5.739   1.810   2.974
    2GLU     BB  915   5.647   1.566   3.515
    2GLU    SC1  916   5.316   1.483   3.698
    3TYR     BB  917   5.824   1.831   3.469
    3TYR    SC1  918   6.107   1.770   3.580
    3TYR    SC2  919   6.291   1.685   3.758
    3TYR    SC3  920   6.357   1.709   3.498
    1TYR     BB  921   3.513   6.848   3.768
    1TYR    SC1  922   3.765   6.861   3.942
    1TYR    SC2  923   3.940   7.003   4.091
    1TYR    SC3  924   4.026   6.794   3.943
    2GLU     BB  925   3.266   6.895   3.982
    2GLU    SC1  926   3.121   7.171   3.735
    3TYR     BB  927   3.265   6.838   4.289
    3TYR    SC1  928   3.524   6.707   4.396
    3TYR    SC2  929   3.685   6.655   4.606
    3TYR    SC3  930   3.788   6.664   4.357
    1TYR     BB  931   6.843   2.450   3.834
    1TYR    SC1  932   6.938   2.213   4.020
    1TYR    SC2  933   7.171   2.122   4.122
    1TYR    SC3  934   6.936   2.046   4.232
    2GLU     BB  935   7.125   2.645   3.860
    2GLU    SC1  936   7.172   2.666   3.466
    3TYR     BB  937   7.418   2.531   4.012
    3TYR    SC1  938   7.670   2.691   4.132
    3TYR    SC2  939   7.867   2.678   4.316
    3TYR    SC3  940   7.879   2.861   4.117
    1TYR     BB  941   6.573   5.123   0.784
    1TYR    SC1  942   6.712   5.361   0.926
    1TYR    SC2  943   6.676   5.613   1.016
    1TYR    SC3  944   6.924   5.525   0.955
    2GLU     BB  945   6.560   4.893   1.016
    2GLU    SC1  946   6.464   4.602   0.762
    3TYR     BB  947   6.439   5.017   1.265
    3TYR    SC1  948   6.609   5.239   1.398
    3TYR    SC2  949   6.711   5.292   1.642
    3TYR    SC3  950   6.786   5.440   1.429
    1TYR     BB  951   5.217   3.940   5.624
    1TYR    SC1  952   5.322   3.755   5.858
    1TYR    SC2  953   5.303   3.673   6.115
    1TYR    SC3  954   5.479   3.554   5.949
    2GLU     BB  955   5.255   3.750   5.361
    2GLU    SC1  956   5.080   3.944   5.068
    3TYR     BB  957   5.214   3.462   5.368
    3TYR    SC1  958   5.398   3.319   5.578
    3TYR    SC2  959   5.455   3.126   5.758
    3TYR    SC3  960   5.655   3.259   5.634
    1TYR     BB  961   6.439   0.368   1.857
    1TYR    SC1  962   6.391   0.655   1.738
    1TYR    SC2  963   6.387   0.884   1.596
    1TYR    SC3  964   6.316   0.886   1.856
    2GLU     BB  965   6.458   0.091   1.732
    2GLU    SC1  966   6.802   7.881   1.681
    3TYR     BB  967   6.406   0.040   1.415
    3TYR    SC1  968   6.277   0.307   1.339
    3TYR    SC2  969   6.296   0.572   1.295
    3TYR    SC3  970   6.065   0.467   1.389
    1TYR     BB  971   2.951   3.066   7.884
    1TYR    SC1  972   3.244   3.163   7.938
    1TYR    SC2  973   3.477   3.137   0.071
    1TYR    SC3  974   3.478   3.207   7.811
    2GLU     BB  975   2.992   2.952   7.560
    2GLU    SC1  976   2.946   2.560   7.643
    3TYR     BB  977   3.274   2.899   7.474
    3TYR    SC1  978   3.429   3.132   7.365
    3TYR    SC2  979   3.677   3.228   7.324
    3TYR    SC3  980   3.483   3.273   7.141
    1TYR     BB  981   5.177   3.203   6.198
    1TYR    SC1  982   5.471   3.237   6.291
    1TYR    SC2  983   5.695   3.384   6.325
    1TYR    SC3  984   5.568   3.282   6.539
    2GLU     BB  985   5.034   3.308   6.474
    2GLU    SC1  986   4.648   3.311   6.484
    3TYR     BB  987   5.096   3.450   6.743
    3TYR    SC1  988   5.266   3.276   6.919
    3TYR    SC2  989   5.498   3.151   6.977
    3TYR    SC3  990   5.269   3.069   7.093
    1TYR     BB  991   6.617   6.108   4.610
    1TYR    SC1  992   6.710   5.908   4.842
    1TYR    SC2  993   6.644   5.752   5.053
    1TYR    SC3  994   6.880   5.716   4.927
    2GLU     BB  995   6.311   5.960   4.551
    2GLU    SC1  996   5.988   6.145   4.681
    3TYR     BB  997   6.237   5.712   4.739
    3TYR    SC1  998   6.431   5.489   4.703
    3TYR    SC2  999   6.606   5.337   4.842
    3TYR    SC3 1000   6.536   5.267   4.591
    4W        W 1001   4.816   7.253   1.550
    5W        W 1002   3.532   4.392   0.337
    6W        W 1003   5.926   0.242   3.823
    7W        W 1004   2.593   3.261   3.116
    8W        W 1005   3.731   5.743   3.034
    9W        W 1006   3.480   7.731   5.100
   10W        W 1007   3.089   3.536   6.198
   11W        W 1008   3.678   2.726   5.591
   12W        W 1009   6.669   2.535   3.357
   13W        W 1010   0.893   6.524   6.131
   14W        W 1011   3.290   7.433   4.720
   15W        W 1012   7.237   3.201   3.392
   16W        W 1013   6.002   6.458   3.212
   17W        W 1014   7.233   3.091   2.001
   18W        W 1015   4.511   6.737   6.587
   19W        W 1016   3.672   2.011   1.102
   20W        W 1017   4.789   4.410   4.144
   21W        W 1018   4.450   4.148   0.796
   22W        W 1019   3.456   5.439   3.970
   23W        W 1020   5.593   4.667   0.070
   24W        W 1021   4.214   5.413   1.260
   25W        W 1022   0.080   3.232   3.819
   26W        W 1023   2.073   6.147   4.989
   27W        W 1024   5.277   2.497   5.623
   28W        W 1025   3.178   0.396   4.935
   29W        W 1026   1.810   4.266   3.664
   30W        W 1027   2.949   2.394   5.578
   31W        W 1028   0.603   6.756   3.853
   32W        W 1029   3.050   1.195   5.216
   33W        W 1030   1.054   7.572   5.317
   34W        W 1031   0.974   4.623   4.130
   35W        W 1032   6.800   4.561   2.367
   36W        W 1033   7.549   6.431   5.942
   37W        W 1034   3.463   1.982   1.570
   38W        W 1035   4.470   0.377   4.782
   39W        W 1036   3.396   4.035   2.276
   40W        W 1037   3.622   3.238   0.566
   41W        W 1038   2.897   7.050   2.847
   42W        W 1039   5.339   0.765   3.562
   43W        W 1040   2.238   0.747   4.280
   44W        W 1041   3.761   4.460   6.811
   45W        W 1042   4.526   2.234   6.220
   46W        W 1043   4.427   6.257   2.619
   47W        W 1044   5.083   5.851   6.317
   48W        W 1045   0.640   2.267   5.990
   49W        W 1046   1.217   5.441   1.844
   50W        W 1047   2.479   6.987   0.753
   51W        W 1048   1.304   3.338   4.118
   52W        W 1049   3.450   0.296   1.138
   53W        W 1050   6.665   1.304   3.693
   54W        W 1051   1.645   0.831   3.497
   55W        W 1052   1.882   2.530   3.972
   56W        W 1053   4.078   7.535   3.212
   57W        W 1054   1.751   6.226   3.762
   58W        W 1055   5.168   5.742   0.620
   59W        W 1056   4.043   5.013   2.470
   60W        W 1057   2.431   4.141   2.708
   61W        W 1058   6.306   1.754   4.740
   62W        W 1059   1.155   1.135   7.313
   63W        W 1060   1.318   6.572   0.306
   64W        W 1061   2.531   7.212   1.574
   65W        W 1062   6.635   3.901   3.815
   66W        W 1063   3.333   3.646   4.382
   67W        W 1064   3.189   4.042   0.213
   68W        W 1065   3.348   3.643   5.203
   69W        W 1066   6.410   6.372   2.521
   70W        W 1067   6.893   0.758   0.752
   71W        W 1068   3.444   1.232   7.347
   72W        W 1069   7.319   3.009   1.124
   73W        W 1070   5.670   4.616   7.158
   74W        W 1071   6.368   5.226   0.274
   75W        W 1072   5.855   5.357   6.731
   76W        W 1073   0.314   0.485   7.418
   77W        W 1074   5.953   2.299   2.257
   78W        W 1075   5.501   6.119   3.895
   79W        W 1076   2.089   2.224   6.937
   80W        W 1077   6.347   7.954   0.925
   81W        W 1078   1.728   4.430   2.992
   82W        W 1079   7.882   6.960   5.411
   83W        W 1080   1.055   1.726   4.441
   84W        W 1081   1.976   0.642   6.535
   85W        W 1082   3.928   4.193   4.051
   86W        W 1083   2.403   5.160   5.655
   87W        W 1084   5.685   6.956   2.667
   88W        W 1085   5.879   5.609   5.506
   89W        W 1086   4.773   4.026   4.666
   90W        W 1087   2.424   3.640   1.007
   91W        W 1088   2.323   0.466   1.246
   92W        W 1089   5.867   4.162   1.256
   93W        W 1090   6.148   0.092   2.162
   94W        W 1091   0.737   4.184   3.974
   95W        W 1092   2.294   4.602   6.451
   96W        W 1093   2.071   4.842   4.816
   97W        W 1094   7.401   3.744   1.421
   98W        W 1095   3.338   4.591   4.529
   99W        W 1096   0.924   3.718   3.840
  100W        W 1097   7.738   6.796   7.269
  101W        W 1098   3.023   4.525   0.345
  102W        W 1099   3.638   0.653   4.803
  103W        W 1100   3.461   5.094   5.178
  104W        W 1101   7.087   6.802   0.980
  105W        W 1102   4.304   1.275   7.726
  106W        W 1103   0.590   2.769   0.932
  107W        W 1104   5.104   7.087   5.132
  108W        W 1105   1.572   7.972   3.217
  109W        W 1106   1.051   6.962   1.063
  110W        W 1107   1.958   0.791   6.025
  111W        W 1108   3.937   2.537   4.166
  112W        W 1109   5.001   0.652   6.800
  113W        W 1110   3.060   0.556   0.856
  114W        W 1111   3.721   4.521   2.700
  115W        W 1112   2.434   4.981   3.269
  116W        W 1113   3.250   4.139   1.459
  117W        W 1114   1.192   6.258   5.118
  118W        W 1115   6.694   3.234   4.929
  119W        W 1116   3.308   0.836   2.395
  120W        W 1117   2.970   2.656   2.167
  121W        W 1118   5.067   2.798   7.674
  122W        W 1119   7.288   6.244   3.704
  123W        W 1120   4.056   2.923   5.869
  124W        W 1121   6.908   5.525   2.324
  125W        W 1122   6.591   7.339   5.536
  126W        W 1123   6.262   6.266   6.600
  127W        W 1124   1.170   5.443   3.650
  128W        W 1125   4.356   5.421   2.428
  129W        W 1126   3.526   6.906   0.850
  130W        W 1127   4.204   3.857   0.405
  131W        W 1128   4.557   1.905   0.966
  132W        W 1129   5.921   6.972   3.195
  133W        W 1130   3.298   4.186   2.740
  134W        W 1131   1.118   5.032   2.755
  135W        W 1132   2.686   3.769   1.614
  136W        W 1133   3.333   4.548   2.355
  137W        W 1134   4.133   5.043   1.974
  138W        W 1135   2.827   1.098   4.409
  139W        W 1136   7.019   5.039   1.176
  140W        W 1137   2.620   7.126   3.760
  141W        W 1138   5.021   7.302   7.086
  142W        W 1139   3.559   5.585   0.609
  143W        W 1140   6.168   6.019   2.823
  144W        W 1141   0.480   4.687   5.820
  145W        W 1142   0.955   4.374   1.255
  146W        W 1143   0.684   4.502   2.246
  147W        W 1144   4.838   4.857   6.095
  148W        W 1145   3.948   7.669   3.840
  149W        W 1146   6.956   3.017   7.536
  150W        W 1147   4.369   2.915   1.979
  151W        W 1148   5.929   5.339   0.593
  152W        W 1149   1.003   0.679   6.889
  153W        W 1150   2.565   4.575   1.145
  154W        W 1151   0.340   5.635   6.175
  155W        W 1152   1.559   0.516   6.198
  156W        W 1153   7.248   4.977   4.950
  157W        W 1154   2.695   6.033   1.754
  158W        W 1155   3.754   1.469   4.322
  159W        W 1156   0.466   6.553   3.413
  160W        W 1157   3.771   3.798   0.822
  161W        W 1158   1.613   6.555   5.243
  162W        W 1159   2.829   6.869   1.805
  163W        W 1160   6.180   2.581   2.992
  164W        W 1161   7.378   4.758   6.764
  165W        W 1162   3.110   4.191   3.242
  166W        W 1163   4.102   0.374   4.055
  167W        W 1164   7.049   5.322   4.623
  168W        W 1165   4.444   3.721   6.287
  169W        W 1166   3.001   4.953   5.037
  170W        W 1167   5.877   3.393   4.725
  171W        W 1168   2.338   3.608   1.999
  172W        W 1169   1.277   1.008   5.026
  173W        W 1170   3.091   7.304   2.451
  174W        W 1171   1.715   6.587   1.377
  175W        W 1172   1.013   1.773   3.420
  176W        W 1173   2.949   1.648   1.362
  177W        W 1174   6.301   4.129   0.939
  178W        W 1175   7.030   4.108   2.172
  179W        W 1176   2.745   3.240   0.775
  180W        W 1177   0.025   2.783   5.099
  181W        W 1178   2.385   0.284   4.388
  182W        W 1179   2.870   6.700   0.266
  183W        W 1180   5.672   6.145   2.921
  184W        W 1181   5.406   7.319   4.784
  185W        W 1182   6.777   3.009   0.134
  186W        W 1183   5.971   2.397   4.927
  187W        W 1184   3.530   4.127   4.336
  188W        W 1185   2.340   4.996   0.711
  189W        W 1186   5.350   6.689   4.365
  190W        W 1187   3.683   2.369   1.927
  191W        W 1188   6.819   1.081   7.300
  192W        W 1189   4.368   6.373   6.238
  193W        W 1190   0.622   7.859   3.020
  194W        W 1191   5.203   6.764   3.874
  195W        W 1192   5.626   0.692   4.055
  196W        W 1193   7.314   6.059   5.157
  197W        W 1194   2.503   6.280   4.749
  198W        W 1195   2.472   2.608   3.940
  199W        W 1196   1.171   7.507   0.358
  200W        W 1197   0.018   7.067   4.475
  201W        W 1198   0.839   3.567   6.616
  202W        W 1199   3.541   0.670   0.770
  203W        W 1200   7.354   5.250   3.276
  204W        W 1201   6.928   2.547   7.951
  205W        W 1202   1.531   4.924   3.080
  206W        W 1203   3.593   1.075   4.024
  207W        W 1204   0.916   1.023   4.662
  208W        W 1205   6.838   7.090   7.868
  209W        W 1206   5.942   3.296   0.330
  210W        W 1207   2.769   5.989   4.366
  211W        W 1208   1.760   5.194   1.201
  212W        W 1209   2.905   6.327   5.081
  213W        W 1210   6.717   1.794   0.619
  214W        W 1211   3.289   1.946   6.371
  215W        W 1212   7.946   1.974   6.395
  216W        W 1213   1.441   4.286   5.093
  217W        W 1214   1.819   4.826   0.834
  218W        W 1215   0.966   2.761   7.250
  219W        W 1216   1.116   4.065   0.829
  220W        W 1217   2.800   0.061   2.954
  221W        W 1218   6.344   3.616   4.790
  222W        W 1219   5.063   1.018   5.962
  223W        W 1220   1.621   2.858   3.633
  224W        W 1221   2.150   2.761   4.305
  225W        W 1222   1.462   3.780   3.890
  226W        W 1223   1.261   5.462   7.766
  227W        W 1224   2.374   4.335   3.617
  228W        W 1225   1.763   3.044   6.971
  229W        W 1226   7.065   7.272   2.815
  230W        W 1227   1.395   0.045   2.397
  231W        W 1228   3.752   4.675   1.091
  232W        W 1229   3.060   4.234   4.167
  233W        W 1230   5.003   6.039   1.552
  234W        W 1231   1.658   1.369   5.037
  235W        W 1232   3.624   0.533   4.164
  236W        W 1233   3.021   7.340   1.605
  237W        W 1234   1.827   4.267   1.078
  238W        W 1235   1.295   4.535   2.780
  239W        W 1236   5.176   6.895   1.376
  240W        W 1237   3.579   6.377   6.350
  241W        W 1238   7.170   5.772   2.736
  242W        W 1239   5.277   1.090   4.059
  243W        W 1240   5.579   4.526   6.671
  244W        W 1241   1.704   5.279   7.974
  245W        W 1242   0.938   0.503   3.547
  246W        W 1243   1.149   4.355   2.071
  247W        W 1244   6.867   5.252   3.590
  248W        W 1245   3.973   5.407   4.069
  249W        W 1246   7.931   6.291   4.663
  250W        W 1247   5.313   4.618   7.581
  251W        W 1248   1.564   3.330   1.272
  252W        W 1249   1.606   4.132   5.576
  253W        W 1250   6.813   7.397   2.362
  254W        W 1251   1.514   5.818   3.600
  255W        W 1252   5.589   3.691   7.827
  256W        W 1253   4.836   3.893   1.838
  257W        W 1254   2.773   4.600   3.363
  258W        W 1255   4.547   0.604   3.898
  259W        W 1256   3.685   3.794   1.340
  260W        W 1257   1.439   5.579   0.306
  261W        W 1258   0.811   2.283   3.443
  262W        W 1259   2.573   2.753   3.005
  263W        W 1260   3.314   6.980   0.377
  264W        W 1261   5.830   5.987   5.817
  265W        W 1262   0.196   6.594   0.395
  266W        W 1263   1.762   1.516   1.300
  267W        W 1264   1.856   1.773   6.973
  268W        W 1265   0.227   4.612   2.447
  269W        W 1266   2.616   4.210   6.695
  270W        W 1267   1.074   4.936   1.890
  271W        W 1268   2.358   4.526   5.517
  272W        W 1269   7.833   4.072   2.559
  273W        W 1270   4.943   1.151   6.642
  274W        W 1271   2.977   2.116   3.415
  275W        W 1272   6.165   1.216   1.283
  276W        W 1273   0.770   4.094   3.478
  277W        W 1274   1.829   2.200   5.990
  278W        W 1275   3.219   3.615   1.559
  279W        W 1276   4.768   2.839   0.611
  280W        W 1277   7.031   3.989   1.147
  281W        W 1278   2.348   2.353   5.976
  282W        W 1279   5.927   0.829   6.798
  283W        W 1280   0.667   3.937   6.904
  284W        W 1281   0.681   7.381   5.033
  285W        W 1282   6.148   6.523   7.859
  286W        W 1283   7.432   6.401   4.811
  287W        W 1284   4.627   4.151   6.535
  288W        W 1285   2.839   4.401   2.852
  289W        W 1286   6.649   4.529   3.196
  290W        W 1287   5.050   5.552   1.474
  291W        W 1288   6.811   1.273   0.678
  292W        W 1289   1.945   1.191   2.959
  293W        W 1290   2.062   5.246   2.495
  294W        W 1291   3.086   0.873   4.783
  295W        W 1292   7.386   6.960   5.227
  296W        W 1293   2.408   6.733   3.456
  297W        W 1294   5.547   4.895   3.973
  298W        W 1295   0.853   2.257   6.447
  299W        W 1296   6.921   5.057   5.767
  300W        W 1297   7.204   3.477   0.983
  301W        W 1298   6.887   6.782   0.482
  302W        W 1299   6.434   6.256   1.206
  303W        W 1300   1.726   5.214   2.077
  304W        W 1301   4.815   2.020   3.203
  305W        W 1302   3.311   5.756   2.257
  306W        W 1303   6.114   3.943   6.913
  307W        W 1304   2.229   6.456   5.865
  308W        W 1305   1.390   1.773   5.187
  309W        W 1306   2.661   1.553   4.548
  310W        W 1307   6.146   1.626   6.862
  311W        W 1308   1.576   6.519   2.223
  312W        W 1309   0.684   1.736   1.221
  313W        W 1310   2.554   1.471   6.280
  314W        W 1311   3.498   1.678   2.939
  315W        W 1312   6.996   4.315   5.487
  316W        W 1313   6.146   1.477   5.117
  317W        W 1314   2.861   3.882   7.079
  318W        W 1315   7.216   3.294   1.524
  319W        W 1316   5.740   6.311   7.587
  320W        W 1317   0.072   2.796   0.909
  321W        W 1318   2.669   5.068   1.243
  322W        W 1319   5.561   3.200   2.094
  323W        W 1320   7.692   3.609   4.516
  324W        W 1321   4.922   5.582   7.613
  325W        W 1322   4.588   3.104   4.211
  326W        W 1323   1.095   4.873   1.364
  327W        W 1324   4.614   7.004   7.000
  328W        W 1325   2.577   5.921   6.623
  329W        W 1326   6.178   1.848   1.851
  330W        W 1327   5.626   5.129   0.955
  331W        W 1328   4.911   5.310   7.170
  332W        W 1329   5.832   3.954   0.760
  333W        W 1330   4.365   3.152   0.353
  334W        W 1331   0.792   5.424   6.068
  335W        W 1332   0.473   2.603   4.875
  336W        W 1333   7.131   3.018   4.725
  337W        W 1334   4.135   5.002   5.648
  338W        W 1335   5.292   1.625   0.367
  339W        W 1336   4.444   3.572   2.044
  340W        W 1337   2.936   1.018   5.667
  341W        W 1338   6.399   2.436   2.552
  342W        W 1339   2.384   5.598   5.355
  343W        W 1340   2.491   4.586   0.387
  344W        W 1341   2.257   3.121   0.680
  345W        W 1342   3.058   3.575   4.795
  346W        W 1343   5.292   1.367   5.099
  347W        W 1344   4.965   3.791   2.745
  348W        W 1345   7.800   3.736   6.660
  349W        W 1346   4.624   4.730   3.662
  350W        W 1347   1.111   1.360   3.127
  351W        W 1348   6.209   5.038   4.952
  352W        W 1349   4.243   0.982   6.389
  353W        W 1350   0.978   6.184   0.396
  354W        W 1351   1.967   5.361   0.740
  355W        W 1352   0.916   0.195   2.735
  356W        W 1353   7.213   1.598   0.607
  357W        W 1354   1.838   4.850   3.767
  358W        W 1355   7.237   6.382   0.674
  359W        W 1356   6.095   3.955   2.096
  360W        W 1357   3.352   1.238   3.569
  361W        W 1358   0.108   3.339   1.553
  362W        W 1359   0.932   0.250   5.173
  363W        W 1360   5.077   4.810   2.006
  364W        W 1361   5.356   7.327   1.684
  365W        W 1362   1.972   2.887   3.243
  366W        W 1363   2.410   4.150   7.191
  367W        W 1364   6.232   5.452   6.399
  368W        W 1365   1.364   3.755   4.382
  369W        W 1366   3.720   2.287   5.854
  370W        W 1367   0.736   5.710   7.721
  371W        W 1368   0.508   2.216   5.510
  372W        W 1369   2.433   3.579   0.505
  373W        W 1370   7.545   2.358   5.024
  374W        W 1371   6.299   3.490   6.824
  375W        W 1372   4.637   1.134   1.487
  376W        W 1373   6.360   2.384   7.413
  377W        W 1374   0.479   5.814   4.146
  378W        W 1375   3.735   2.041   0.601
  379W        W 1376   6.514   5.033   5.371
  380W        W 1377   7.823   5.955   6.952
  381W        W 1378   0.989   1.748   3.937
  382W        W 1379   7.408   2.119   2.163
  383W        W 1380   2.599   2.240   6.939
  384W        W 1381   0.844   3.825   4.340
  385W        W 1382   5.591   1.104   2.844
  386W        W 1383   3.465   2.368   4.225
  387W        W 1384   4.004   3.570   7.123
  388W        W 1385   2.805   4.913   7.122
  389W        W 1386   4.665   3.336   1.638
  390W        W 1387   0.434   6.553   5.874
  391W        W 1388   7.634   6.944   6.792
  392W        W 1389   1.040   3.840   2.136
  393W        W 1390   7.127   1.745   6.869
  394W        W 1391   0.670   2.099   1.735
  395W        W 1392   6.555   4.784   7.015
  396W        W 1393   4.342   6.999   3.361
  397W        W 1394   5.201   2.929   5.344
  398W        W 1395   6.351   6.189   5.027
  399W        W 1396   1.297   2.132   0.821
  400W        W 1397   6.222   4.123   3.977
  401W        W 1398   4.499   6.209   4.358
  402W        W 1399   4.351   6.463   1.760
  403W        W 1400   4.768   3.745   5.456
  404W        W 1401   6.307   1.788   2.980
  405W        W 1402   1.150   0.444   7.313
  406W        W 1403   5.708   4.852   0.532
  407W        W 1404   3.168   0.315   4.015
  408W        W 1405   1.530   5.532   4.836
  409W        W 1406   1.622   0.119   6.664
  410W        W 1407   4.817   7.060   1.042
  411W        W 1408   4.941   3.458   3.985
  412W        W 1409   2.492   1.775   1.219
  413W        W 1410   0.292   3.312   2.520
  414W        W 1411   7.607   3.503   3.159
  415W        W 1412   0.677   0.325   7.109
  416W        W 1413   3.453   1.931   2.085
  417W        W 1414   1.558   2.190   6.956
  418W        W 1415   5.863   2.157   0.690
  419W        W 1416   7.108   3.733   3.659
  420W        W 1417   6.790   6.162   5.303
  421W        W 1418   0.656   0.281   6.613
  422W        W 1419   4.432   1.679   3.067
  423W        W 1420   0.805   6.682   0.241
  424W        W 1421   3.132   3.755   3.901
  425W        W 1422   2.629   4.194   4.620
  426W        W 1423   0.435   6.923   6.227
  427W        W 1424   1.507   3.306   5.431
  428W        W 1425   4.873   2.371   7.865
  429W        W 1426   2.897   1.707   3.736
  430W        W 1427   6.447   7.658   3.259
  431W        W 1428   2.678   3.053   2.071
  432W        W 1429   6.517   7.107   0.300
  433W        W 1430   6.959   2.818   5.723
  434W        W 1431   2.863   2.913   3.770
  435W        W 1432   2.594   3.723   4.825
  436W        W 1433   6.583   2.998   5.413
  437W        W 1434   1.477   3.241   0.764
  438W        W 1435   1.350   1.292   2.328
  439W        W 1436   7.315   3.853   4.784
  440W        W 1437   0.957   4.357   4.564
  441W        W 1438   0.086   3.353   3.003
  442W        W 1439   4.305   6.880   6.137
  443W        W 1440   3.846   4.032   5.929
  444W        W 1441   3.791   2.843   7.705
  445W        W 1442   6.836   3.053   0.919
  446W        W 1443   1.487   5.649   2.227
  447W        W 1444   4.589   2.839   1.499
  448W        W 1445   3.251   7.248   5.205
  449W        W 1446   6.310   7.611   1.740
  450W        W 1447   4.614   4.095   2.489
  451W        W 1448   6.969   7.126   5.844
  452W        W 1449   5.370   2.618   1.277
  453W        W 1450   2.323   5.391   1.080
  454W        W 1451   1.054   4.081   1.671
  455W        W 1452   2.214   2.806   5.288
  456W        W 1453   2.344   1.972   3.308
  457W        W 1454   1.995   2.574   5.695
  458W        W 1455   5.613   3.219   5.134
  459W        W 1456   5.625   1.817   2.483
  460W        W 1457   6.399   2.182   3.771
  461W        W 1458   2.852   7.557   3.532
  462W        W 1459   4.379   0.710   4.364
  463W        W 1460   3.494   3.320   4.808
  464W        W 1461   3.109   1.362   3.103
  465W        W 1462   4.836   7.019   3.146
  466W        W 1463   0.271   6.657   5.265
  467W        W 1464   0.280   5.889   7.938
  468W        W 1465   4.954   6.283   2.523
  469W        W 1466   3.357   3.555   2.071
  470W        W 1467   4.991   3.472   7.317
  471W        W 1468   2.808   0.733   5.200
  472W        W 1469   2.019   1.875   4.580
  473W        W 1470   1.369   4.492   0.994
  474W        W 1471   3.003   6.968   0.809
  475W        W 1472   6.997   7.852   3.047
  476W        W 1473   0.318   3.695   6.621
  477W        W 1474   6.949   4.719   2.823
  478W        W 1475   0.840   1.836   6.739
  479W        W 1476   4.440   4.031   7.986
  480W        W 1477   4.852   2.958   6.798
  481W        W 1478   1.370   2.986   5.013
  482W        W 1479   4.567   7.520   6.945
  483W        W 1480   7.281   6.910   7.591
  484W        W 1481   7.970   6.273   0.045
  485W        W 1482   0.107   7.959   5.053
  486W        W 1483   5.947   5.897   5.115
  487W        W 1484   0.520   0.167   4.208
  488W        W 1485   6.155   0.438   0.839
  489W        W 1486   6.087   5.961   0.489
  490W        W 1487   0.061   7.894   5.552
  491W        W 1488   1.052   5.715   0.633
  492W        W 1489   0.071   3.321   4.321
  493W        W 1490   6.344   5.049   4.138
  494W        W 1491   4.153   0.963   1.383
  495W        W 1492   5.374   4.216   7.915
  496W        W 1493   1.288   4.819   6.294
  497W        W 1494   1.260   6.013   5.569
  498W        W 1495   4.114   1.626   5.674
  499W        W 1496   4.068   4.073   1.137
  500W        W 1497   1.701   5.830   6.680
  501W        W 1498   6.973   4.437   5.980
  502W        W 1499   0.603   3.367   2.929
  503W        W 1500   0.939   3.137   0.719
  504W        W 1501   6.209   2.176   3.298
  505W        W 1502   4.072   1.632   7.420
  506W        W 1503   3.107   1.535   5.569
  507W        W 1504   5.640   3.528   1.327
  508W        W 1505   0.139   4.043   6.307
  509W        W 1506   3.539   6.916   6.009
  510W        W 1507   7.892   5.492   7.219
  511W        W 1508   5.686   4.635   1.076
  512W        W 1509   6.236   5.388   7.474
  513W        W 1510   5.370   5.469   7.933
  514W        W 1511   7.188   2.611   7.270
  515W        W 1512   4.948   5.309   5.291
  516W        W 1513   3.186   4.151   0.699
  517W        W 1514   3.224   5.417   3.514
  518W        W 1515   0.621   4.063   2.002
  519W        W 1516   0.263   3.928   5.506
  520W        W 1517   2.715   1.949   2.618
  521W        W 1518   7.002   5.911   1.964
  522W        W 1519   5.727   0.900   0.623
  523W        W 1520   5.189   3.428   1.805
  524W        W 1521   2.161   7.140   4.952
  525W        W 1522   2.106   0.724   4.779
  526W        W 1523   4.320   2.661   0.468
  527W        W 1524   5.036   5.053   6.718
  528W        W 1525   4.644   5.835   5.071
  529W        W 1526   2.413   0.959   5.842
  530W        W 1527   7.312   4.703   5.715
  531W        W 1528   0.105   5.266   6.497
  532W        W 1529   3.823   7.141   0.476
  533W        W 1530   2.190   1.409   5.897
  534W        W 1531   2.502   6.693   5.076
  535W        W 1532   2.110   2.782   2.739
  536W        W 1533   5.133   5.017   3.059
  537W        W 1534   5.479   3.800   6.553
  538W        W 1535   6.856   2.930   1.425
  539W        W 1536   2.995   6.121   5.567
  540W        W 1537   1.259   1.385   1.333
  541W        W 1538   1.886   4.485   5.274
  542W        W 1539   3.530   7.359   1.660
  543W        W 1540   1.421   7.204   4.479
  544W        W 1541   3.754   4.944   5.982
  545W        W 1542   5.660   1.350   1.398
  546W        W 1543   3.005   1.449   6.489
  547W        W 1544   6.548   4.333   4.740
  548W        W 1545   3.585   3.574   6.128
  549W        W 1546   5.331   1.272   6.328
  550W        W 1547   4.968   6.449   1.223
  551W        W 1548   2.486   3.094   4.062
  552W        W 1549   5.306   6.857   7.084
  553W        W 1550   1.093   5.056   5.867
  554W        W 1551   5.367   6.329   6.324
  555W        W 1552   6.904   1.220   0.168
  556W        W 1553   2.876   4.638   6.664
  557W        W 1554   5.652   1.523   7.121
  558W        W 1555   6.346   0.621   4.838
  559W        W 1556   4.663   3.036   4.709
  560W        W 1557   7.667   6.703   4.486
  561W        W 1558   5.324   1.716   1.249
  562W        W 1559   6.241   3.242   6.365
  563W        W 1560   6.591   4.417   4.210
  564W        W 1561   2.309   6.861   6.842
  565W        W 1562   3.218   2.580   3.530
  566W        W 1563   6.398   3.094   0.507
  567W        W 1564   5.304   4.887   1.261
  568W        W 1565   0.615   6.881   6.712
  569W        W 1566   0.116   2.455   5.732
  570W        W 1567   7.432   3.891   2.839
  571W        W 1568   3.206   2.589   7.079
  572W        W 1569   4.044   0.410   5.087
  573W        W 1570   3.938   1.369   6.568
  574W        W 1571   0.493   5.578   7.255
  575W        W 1572   5.433   1.224   7.841
  576W        W 1573   1.808   7.244   5.747
  577W        W 1574   3.782   3.956   6.824
  578W        W 1575   5.954   3.681   5.135
  579W        W 1576   1.366   4.992   0.955
  580W        W 1577   5.695   6.585   4.012
  581W        W 1578   6.324   6.512   4.597
  582W        W 1579   1.971   1.614   3.341
  583W        W 1580   6.510   0.567   0.039
  584W        W 1581   7.477   3.438   6.355
  585W        W 1582   4.857   4.702   7.381
  586W        W 1583   5.433   5.726   3.043
  587W        W 1584   2.842   3.781   4.358
  588W        W 1585   3.196   4.812   5.571
  589W        W 1586   4.036   5.383   5.969
  590W        W 1587   1.018   3.325   3.213
  591W        W 1588   7.915   4.324   5.459
  592W        W 1589   3.787   2.078   4.492
  593W        W 1590   2.630   6.486   4.304
  594W        W 1591   6.229   7.176   1.091
  595W        W 1592   6.605   1.838   6.955
  596W        W 1593   4.738   4.675   4.566
  597W        W 1594   6.262   5.463   5.209
  598W        W 1595   2.988   0.597   6.370
  599W        W 1596   3.007   2.528   4.955
  600W        W 1597   4.023   6.926   7.621
  601W        W 1598   6.880   6.965   3.516
  602W        W 1599   5.729   4.919   4.794
  603W        W 1600   4.169   5.715   3.256
  604W        W 1601   3.681   0.769   1.270
  605W        W 1602   6.997   0.919   5.104
  606W        W 1603   0.931   7.418   4.542
  607W        W 1604   7.810   6.158   3.085
  608W        W 1605   4.614   7.534   1.147
  609W        W 1606   5.454   5.462   6.418
  610W        W 1607   1.006   4.193   2.531
  611W        W 1608   0.557   1.336   1.884
  612W        W 1609   6.884   4.241   1.610
  613W        W 1610   6.735   5.944   5.773
  614W        W 1611   5.404   1.787   6.356
  615W        W 1612   1.998   3.050   1.426
  616W        W 1613   1.620   4.024   6.830
  617W        W 1614   0.825   3.271   6.046
  618W        W 1615   5.063   5.073   2.542
  619W        W 1616   5.757   0.311   0.549
  620W        W 1617   0.593   5.415   6.562
  621W        W 1618   7.380   6.272   1.152
  622W        W 1619   4.562   7.702   3.086
  623W        W 1620   1.712   5.115   4.604
  624W        W 1621   4.439   4.079   4.300
  625W        W 1622   3.141   4.758   6.090
  626W        W 1623   6.651   1.128   6.313
  627W        W 1624   2.656   5.358   5.017
  628W        W 1625   3.399   2.824   2.568
  629W        W 1626   3.053   0.420   2.705
  630W        W 1627   6.457   0.923   2.542
  631W        W 1628   2.382   5.760   6.185
  632W        W 1629   3.942   1.213   7.068
  633W        W 1630   1.313   6.177   4.030
  634W        W 1631   4.369   4.673   2.235
  635W        W 1632   5.535   5.774   3.535
  636W        W 1633   3.518   2.828   4.972
  637W        W 1634   3.231   3.307   0.888
  638W        W 1635   3.267   5.960   5.122
  639W        W 1636   3.471   5.984   2.686
  640W        W 1637   7.452   2.624   4.602
  641W        W 1638   5.479   3.646   4.908
  642W        W 1639   4.176   0.649   5.533
  643W        W 1640   3.638   4.212   6.353
  644W        W 1641   4.662   3.144   2.308
  645W        W 1642   1.773   1.404   3.756
  646W        W 1643   0.105   3.243   2.049
  647W        W 1644   4.404   2.374   5.215
  648W        W 1645   5.897   5.292   4.019
  649W        W 1646   2.866   3.795   6.579
  650W        W 1647   4.673   2.787   0.094
  651W        W 1648   3.847   1.120   2.608
  652W        W 1649   5.573   6.632   3.032
  653W        W 1650   4.042   4.939   7.595
  654W        W 1651   1.022   5.548   7.313
  655W        W 1652   1.398   4.621   5.849
  656W        W 1653   5.742   4.491   3.734
  657W        W 1654   6.985   5.892   0.577
  658W        W 1655   7.701   3.142   0.806
  659W        W 1656   0.266   1.984   1.397
  660W        W 1657   2.925   4.223   2.391
  661W        W 1658   6.788   2.968   3.623
  662W        W 1659   5.958   4.875   6.802
  663W        W 1660   0.439   5.712   2.062
  664W        W 1661   4.932   2.019   2.010
  665W        W 1662   0.752   1.103   2.876
  666W        W 1663   7.705   5.916   0.340
  667W        W 1664   3.398   1.134   7.910
  668W        W 1665   6.347   5.912   5.436
  669W        W 1666   1.096   3.237   1.516
  670W        W 1667   3.574   1.161   3.083
  671W        W 1668   1.452   3.554   2.110
  672W        W 1669   0.951   5.288   0.966
  673W        W 1670   0.492   0.730   6.855
  674W        W 1671   6.143   1.172   0.549
  675W        W 1672   7.831   6.690   4.980
  676W        W 1673   5.068   6.930   1.871
  677W        W 1674   4.199   0.060   3.112
  678W        W 1675   2.763   2.453   6.518
  679W        W 1676   5.827   5.709   4.439
  680W        W 1677   2.723   1.591   5.171
  681W        W 1678   6.080   6.322   2.142
  682W        W 1679   5.210   2.289   2.977
  683W        W 1680   4.248   2.163   4.269
  684W        W 1681   0.139   1.014   1.231
  685W        W 1682   5.530   5.678   2.194
  686W        W 1683   0.437   2.702   5.382
  687W        W 1684   2.983   1.916   1.779
  688W        W 1685   7.462   2.989   5.573
  689W        W 1686   5.648   2.695   6.943
  690W        W 1687   1.869   3.764   3.583
  691W        W 1688   3.719   6.920   1.842
  692W        W 1689   4.143   4.235   7.071
  693W        W 1690   5.420   4.048   2.711
  694W        W 1691   2.248   5.175   2.000
  695W        W 1692   5.067   1.034   7.131
  696W        W 1693   2.825   6.646   3.825
  697W        W 1694   5.192   2.766   3.161
  698W        W 1695   5.866   0.078   1.121
  699W        W 1696   3.446   3.756   2.958
  700W        W 1697   3.179   5.913   7.210
  701W        W 1698   1.845   6.780   4.011
  702W        W 1699   1.431   1.742   3.083
  703W        W 1700   2.423   3.710   2.971
  704W        W 1701   2.032   3.901   0.769
  705W        W 1702   2.465   2.848   6.301
  706W        W 1703   4.591   7.709   6.467
  707W        W 1704   7.717   2.574   5.461
  708W        W 1705   7.003   2.532   4.383
  709W        W 1706   6.436   3.968   5.142
  710W        W 1707   2.757   1.884   0.801
  711W        W 1708   6.591   6.820   1.184
  712W        W 1709   3.230   0.309   6.007
  713W        W 1710   5.897   1.662   4.443
  714W        W 1711   7.249   5.282   6.729
  715W        W 1712   1.180   7.236   4.949
  716W        W 1713   1.840   3.691   1.762
  717W        W 1714   4.024   4.520   5.874
  718W        W 1715   4.767   1.028   4.207
  719W        W 1716   3.340   0.089   2.028
  720W        W 1717   3.383   0.247   3.543
  721W        W 1718   2.086   2.041   1.359
  722W        W 1719   3.626   6.190   4.430
  723W        W 1720   1.312   5.419   1.320
  724W        W 1721   1.096   6.635   4.143
  725W        W 1722   6.089   4.472   0.053
  726W        W 1723   3.833   4.624   2.223
  727W        W 1724   3.415   4.148   3.812
  728W        W 1725   3.355   1.280   2.642
  729W        W 1726   4.557   1.149   2.024
  730W        W 1727   0.561   4.822   3.915
  731W        W 1728   6.566   2.428   6.409
  732W        W 1729   4.483   6.680   7.456
  733W        W 1730   6.576   0.276   2.426
  734W        W 1731   6.547   0.030   2.905
  735W        W 1732   1.420   6.593   6.937
  736W        W 1733   5.772   1.814   1.545
  737W        W 1734   1.273   1.093   6.812
  738W        W 1735   6.754   7.275   5.042
  739W        W 1736   4.121   6.015   3.667
  740W        W 1737   0.797   6.017   7.304
  741W        W 1738   0.394   7.920   6.910
  742W        W 1739   5.841   3.809   7.352
  743W        W 1740   4.761   1.320   5.716
  744W        W 1741   1.761   6.750   6.576
  745W        W 1742   6.500   5.814   6.642
  746W        W 1743   4.217   2.496   1.563
  747W        W 1744   4.521   4.763   1.736
  748W        W 1745   3.814   4.319   5.437
  749W        W 1746   4.363   4.088   2.052
  750W        W 1747   7.980   6.448   5.658
  751W        W 1748   6.237   0.777   6.355
  752W        W 1749   5.040   7.715   6.747
  753W        W 1750   1.400   2.643   0.718
  754W        W 1751   6.415   6.926   6.588
  755W        W 1752   5.673   6.356   5.021
  756W        W 1753   3.228   6.788   2.432
  757W        W 1754   0.180   6.079   0.460
  758W        W 1755   1.642   2.364   3.573
  759W        W 1756   6.366   2.742   5.016
  760W        W 1757   6.737   6.076   1.571
  761W        W 1758   0.660   5.326   0.533
  762W        W 1759   3.569   6.219   7.326
  763W        W 1760   1.889   1.835   5.075
  764W        W 1761   7.177   6.190   5.655
  765W        W 1762   3.857   5.416   2.192
  766W        W 1763   2.781   1.751   3.109
  767W        W 1764   2.989   6.808   5.189
  768W        W 1765   1.586   4.031   3.266
  769W        W 1766   3.614   6.500   1.468
  770W        W 1767   2.370   5.666   2.505
  771W        W 1768   1.729   6.221   3.256
  772W        W 1769   5.735   4.307   3.271
  773W        W 1770   6.387   5.749   1.383
  774W        W 1771   5.416   3.990   1.072
  775W        W 1772   7.348   2.640   6.341
  776W        W 1773   3.685   2.746   7.203
  777W        W 1774   3.067   3.047   1.288
  778W        W 1775   7.207   3.879   6.321
  779W        W 1776   3.587   1.586   0.797
  780W        W 1777   5.019   1.767   0.801
  781W        W 1778   5.836   1.894   4.907
  782W        W 1779   4.067   1.745   0.892
  783W        W 1780   3.843   1.800   6.256
  784W        W 1781   2.623   5.580   5.792
  785W        W 1782   5.417   4.377   1.424
  786W        W 1783   0.039   2.965   5.587
  787W        W 1784   4.927   6.638   4.985
  788W        W 1785   0.743   3.245   3.707
  789W        W 1786   2.995   1.145   7.553
  790W        W 1787   0.984   2.922   4.023
  791W        W 1788   3.366   0.807   5.202
  792W        W 1789   4.671   7.380   3.476
  793W        W 1790   2.515   6.250   6.237
  794W        W 1791   3.221   7.149   6.812
  795W        W 1792   7.110   7.347   5.414
  796W        W 1793   5.647   5.904   6.279
  797W        W 1794   6.520   2.388   4.218
  798W        W 1795   2.003   2.031   3.691
  799W        W 1796   3.278   5.154   7.197
  800W        W 1797   6.052   2.941   0.857
  801W        W 1798   5.984   3.089   6.807
  802W        W 1799   6.617   2.095   1.642
  803W        W 1800   4.844   7.268   6.587
  804W        W 1801   6.098   7.641   1.280
  805W        W 1802   1.387   2.565   2.011
  806W        W 1803   5.127   2.199   1.099
  807W        W 1804   5.989   2.784   0.368
  808W        W 1805   3.691   1.129   0.576
  809W        W 1806   1.871   0.959   0.521
  810W        W 1807   0.364   3.158   3.382
  811W        W 1808   4.962   3.430   5.811
  812W        W 1809   7.066   2.891   2.428
  813W        W 1810   7.226   3.427   4.444
  814W        W 1811   3.895   3.085   6.903
  815W        W 1812   1.210   0.176   6.023
  816W        W 1813   2.086   1.356   6.772
  817W        W 1814   1.966   0.816   3.865
  818W        W 1815   5.547   2.772   7.939
  819W        W 1816   0.792   2.887   3.271
  820W        W 1817   1.280   4.920   7.203
  821W        W 1818   4.813   3.894   5.940
  822W        W 1819   5.436   1.015   6.794
  823W        W 1820   6.793   3.653   2.178
  824W        W 1821   4.925   4.627   7.917
  825W        W 1822   6.897   6.931   1.579
  826W        W 1823   3.753   4.302   1.494
  827W        W 1824   4.027   1.404   5.236
  828W        W 1825   0.368   5.123   6.089
  829W        W 1826   3.990   7.812   0.904
  830W        W 1827   0.548   3.654   6.179
  831W        W 1828   2.027   6.953   0.033
  832W        W 1829   0.949   1.126   5.630
  833W        W 1830   6.872   6.543   2.396
  834W        W 1831   3.704   1.919   6.721
  835W        W 1832   5.217   4.646   6.347
  836W        W 1833   0.913   3.287   7.300
  837W        W 1834   1.703   0.526   1.787
  838W        W 1835   4.839   4.927   4.983
  839W        W 1836   3.187   4.888   1.945
  840W        W 1837   5.878   2.669   1.380
  841W        W 1838   5.573   2.499   0.386
  842W        W 1839   4.509   1.578   5.374
  843W        W 1840   3.144   7.354   4.217
  844W        W 1841   2.763   7.140   7.077
  845W        W 1842   1.243   0.069   7.681
  846W        W 1843   0.009   3.397   6.328
  847W        W 1844   3.284   3.525   5.712
  848W        W 1845   4.543   5.361   4.928
  849W        W 1846   5.968   4.453   0.718
  850W        W 1847   3.149   5.453   4.921
  851W        W 1848   4.375   2.617   3.425
  852W        W 1849   3.137   6.352   4.305
  853W        W 1850   2.708   6.645   7.080
  854W        W 1851   0.596   7.842   5.258
  855W        W 1852   1.743   0.884   5.175
  856W        W 1853   4.150   2.295   3.771
  857W        W 1854   1.818   0.570   1.299
  858W        W 1855   4.874   2.694   1.115
  859W        W 1856   6.499   3.282   7.552
  860W        W 1857   0.091   6.317   6.689
  861W        W 1858   4.526   3.206   5.916
  862W        W 1859   6.455   1.835   7.993
  863W        W 1860   1.216   5.733   6.531
  864W        W 1861   0.333   7.491   3.274
  865W        W 1862   2.137   3.266   2.880
  866W        W 1863   6.427   6.516   5.427
  867W        W 1864   5.190   4.443   7.074
  868W        W 1865   4.196   5.844   6.885
  869W        W 1866   4.571   5.731   1.485
  870W        W 1867   0.380   4.397   3.677
  871W        W 1868   0.591   5.763   5.708
  872W        W 1869   6.575   2.230   2.961
  873W        W 1870   4.233   5.486   7.275
  874W        W 1871   6.707   6.426   2.917
  875W        W 1872   5.760   3.977   6.035
  876W        W 1873   6.084   0.712   7.823
  877W        W 1874   5.034   7.007   4.609
  878W        W 1875   0.586   4.551   4.870
  879W        W 1876   0.637   4.282   5.476
  880W        W 1877   4.550   2.687   7.589
  881W        W 1878   4.100   4.858   2.943
  882W        W 1879   2.864   5.594   0.218
  883W        W 1880   3.470   0.334   2.460
  884W        W 1881   5.949   5.942   3.287
  885W        W 1882   4.925   5.846   1.089
  886W        W 1883   6.662   3.386   3.895
  887W        W 1884   0.534   3.545   2.116
  888W        W 1885   5.618   2.068   4.359
  889W        W 1886   6.413   6.361   3.734
  890W        W 1887   5.676   1.596   5.324
  891W        W 1888   7.431   4.817   7.303
  892W        W 1889   4.018   3.507   2.840
  893W        W 1890   7.731   6.877   4.007
  894W        W 1891   1.542   5.097   5.659
  895W        W 1892   6.938   3.753   1.612
  896W        W 1893   2.705   2.525   3.453
  897W        W 1894   1.292   2.175   3.295
  898W        W 1895   6.816   6.109   3.543
  899W        W 1896   0.682   3.238   1.160
  900W        W 1897   1.344   5.861   1.063
  901W        W 1898   3.860   0.909   5.206
  902W        W 1899   4.002   5.932   7.377
  903W        W 1900   5.165   7.426   1.204
  904W        W 1901   3.307   1.734   3.407
  905W        W 1902   7.155   4.514   1.264
  906W        W 1903   6.326   5.886   2.347
  907W        W 1904   2.921   2.934   6.557
  908W        W 1905   0.322   2.898   1.345
  909W        W 1906   5.571   3.043   1.090
  910W        W 1907   0.286   5.220   5.237
  911W        W 1908   5.812   1.319   0.912
  912W        W 1909   3.677   2.500   2.844
  913W        W 1910   2.822   5.072   3.619
  914W        W 1911   5.638   3.099   2.579
  915W        W 1912   6.065   6.270   4.190
  916W        W 1913   2.707   2.691   1.195
  917W        W 1914   2.900   3.881   2.886
  918W        W 1915   5.354   0.615   7.226
  919W        W 1916   1.123   5.867   0.029
  920W        W 1917   4.505   7.045   5.687
  921W        W 1918   3.292   2.774   3.992
  922W        W 1919   4.353   4.326   3.825
  923W        W 1920   2.264   5.833   1.367
  924W        W 1921   0.844   5.773   1.761
  925W        W 1922   4.393   2.863   5.462
  926W        W 1923   1.952   5.614   0.296
  927W        W 1924   2.246   4.782   5.977
  928W        W 1925   6.665   3.728   0.877
  929W        W 1926   7.386   5.548   6.286
  930W        W 1927   6.604   7.514   1.336
  931W        W 1928   4.474   4.366   3.315
  932W        W 1929   4.160   2.969   7.340
  933W        W 1930   1.213   6.364   4.551
  934W        W 1931   3.739   0.752   7.996
  935W        W 1932   3.359   5.540   5.383
  936W        W 1933   6.918   2.001   2.081
  937W        W 1934   7.216   4.309   2.641
  938W        W 1935   2.321   1.093   2.644
  939W        W 1936   6.807   7.076   6.855
  940W        W 1937   3.233   5.628   3.001
  941W        W 1938   6.549   3.655   6.382
  942W        W 1939   4.600   6.807   1.458
  943W        W 1940   1.925   5.642   5.124
  944W        W 1941   5.228   5.013   0.154
  945W        W 1942   6.188   6.063   0.013
  946W        W 1943   1.501   6.100   0.280
  947W        W 1944   6.054   7.786   2.960
  948W        W 1945   1.058   4.752   3.184
  949W        W 1946   1.936   0.336   4.079
  950W        W 1947   4.895   6.019   4.642
  951W        W 1948   5.265   2.706   2.654
  952W        W 1949   5.723   4.215   0.310
  953W        W 1950   5.485   2.132   2.074
  954W        W 1951   2.892   3.750   3.413
  955W        W 1952   3.352   0.626   6.737
  956W        W 1953   5.588   3.119   3.279
  957W        W 1954   5.509   5.627   4.033
  958W        W 1955   6.213   5.346   1.691
  959W        W 1956   7.743   1.006   0.797
  960W        W 1957   0.427   7.376   6.732
  961W        W 1958   6.945   1.029   4.613
  962W        W 1959   2.666   4.913   6.276
  963W        W 1960   1.625   6.022   5.212
  964W        W 1961   4.931   4.580   3.271
  965W        W 1962   3.339   6.429   5.333
  966W        W 1963   1.880   3.614   5.543
  967W        W 1964   1.728   3.130   4.655
  968W        W 1965   6.520   2.688   0.795
  969W        W 1966   4.887   4.946   1.027
  970W        W 1967   3.340   2.681   7.949
  971W        W 1968   5.887   5.690   1.427
  972W        W 1969   7.669   3.178   1.742
  973W        W 1970   5.329   2.289   3.497
  974W        W 1971   6.006   0.736   3.719
  975W        W 1972   7.520   3.290   6.860
  976W        W 1973   6.566   4.467   5.221
  977W        W 1974   1.997   6.797   2.410
  978W        W 1975   2.488   5.013   6.718
  979W        W 1976   0.651   1.412   4.479
  980W        W 1977   1.002   3.345   2.010
  981W        W 1978   3.530   5.027   2.309
  982W        W 1979   3.773   1.510   3.405
  983W        W 1980   1.723   3.528   2.629
  984W        W 1981   4.364   7.786   3.558
  985W        W 1982   6.791   5.693   3.842
  986W        W 1983   5.407   5.874   6.723
  987W        W 1984   2.910   1.054   0.059
  988W        W 1985   4.721   1.114   7.485
  989W        W 1986   0.509   4.256   7.262
  990W        W 1987   1.139   4.006   6.643
  991W        W 1988   2.416   6.668   7.860
  992W        W 1989   5.641   5.735   0.411
  993W        W 1990   3.421   4.884   0.269
  994W        W 1991   3.448   5.338   1.901
  995W        W 1992   5.427   2.393   6.536
  996W        W 1993   4.627   1.428   0.790
  997W        W 1994   2.881   6.214   6.912
  998W        W 1995   5.034   6.155   5.134
  999W        W 1996   0.878   2.543   5.605
 1000W        W 1997   2.036   0.589   0.832
 1001W        W 1998   0.952   6.996   6.309
 1002W        W 1999   1.535   1.694   2.088
 1003W        W 2000   1.465   1.753   2.568
 1004W        W 2001   2.226   2.881   7.173
 1005W        W 2002   5.735   1.639   2.030
 1006W        W 2003   5.287   2.139   0.596
 1007W        W 2004   2.913   4.734   1.527
 1008W        W 2005   1.867   0.226   2.575
 1009W        W 2006   6.247   6.990   5.348
 1010W        W 2007   4.829   4.638   2.444
 1011W        W 2008   5.255   6.388   6.826
 1012W        W 2009   6.013   1.705   6.330
 1013W        W 2010   7.079   2.284   3.098
 1014W        W 2011   2.016   2.600   6.262
 1015W        W 2012   0.554   4.066   4.689
 1016W        W 2013   5.863   3.645   3.348
 1017W        W 2014   0.510   1.354   5.567
 1018W        W 2015   0.592   4.516   3.223
 1019W        W 2016   3.617   3.163   5.847
 1020W        W 2017   5.359   6.397   1.607
 1021W        W 2018   3.990   2.111   7.129
 1022W        W 2019   0.474   3.508   4.053
 1023W        W 2020   5.013   6.316   5.613
 1024W        W 2021   1.899   4.362   4.796
 1025W        W 2022   5.413   4.820   3.462
 1026W        W 2023   4.574   7.807   4.611
 1027W        W 2024   1.271   5.009   0.047
 1028W        W 2025   0.821   2.309   5.118
 1029W        W 2026   1.602   7.261   0.205
 1030W        W 2027   5.280   1.676   1.780
 1031W        W 2028   6.523   3.920   1.832
 1032W        W 2029   3.321   2.073   3.799
 1033W        W 2030   1.420   6.641   3.235
 1034W        W 2031   7.642   0.666   1.176
 1035W        W 2032   4.927   1.944   1.500
 1036W        W 2033   7.390   0.602   0.676
 1037W        W 2034   1.430   2.821   1.554
 1038W        W 2035   1.500   5.062   1.631
 1039W        W 2036   2.533   4.914   5.241
 1040W        W 2037   3.100   7.936   2.477
 1041W        W 2038   6.015   1.037   4.127
 1042W        W 2039   6.013   1.978   4.044
 1043W        W 2040   1.370   3.306   6.143
 1044W        W 2041   6.045   2.148   2.755
 1045W        W 2042   0.801   3.789   5.323
 1046W        W 2043   1.518   1.711   4.664
 1047W        W 2044   5.992   1.762   1.082
 1048W        W 2045   4.322   1.405   1.184
 1049W        W 2046   7.428   1.437   5.780
 1050W        W 2047   2.247   1.532   5.393
 1051W        W 2048   4.658   5.862   2.366
 1052W        W 2049   0.203   6.953   7.498
 1053W        W 2050   0.535   6.264   0.148
 1054W        W 2051   6.931   3.821   5.586
 1055W        W 2052   0.782   1.297   3.499
 1056W        W 2053   6.478   4.822   7.980
 1057W        W 2054   1.818   2.069   3.175
 1058W        W 2055   3.170   5.267   0.477
 1059W        W 2056   3.097   1.315   2.208
 1060W        W 2057   5.511   6.033   5.390
 1061W        W 2058   1.165   5.768   3.245
 1062W        W 2059   6.110   4.537   4.927
 1063W        W 2060   5.812   7.946   3.387
 1064W        W 2061   3.572   0.331   5.256
 1065W        W 2062   3.016   1.343   7.064
 1066W        W 2063   5.042   3.557   3.192
 1067W        W 2064   7.215   2.580   5.356
 1068W        W 2065   7.943   6.321   7.319
 1069W        W 2066   5.852   3.042   4.354
 1070W        W 2067   3.617   1.545   7.700
 1071W        W 2068   3.451   0.262   3.002
 1072W        W 2069   3.421   2.809   2.026
 1073W        W 2070   3.827   4.733   0.580
 1074W        W 2071   5.554   1.276   2.363
 1075W        W 2072   3.194   6.276   2.380
 1076W        W 2073   1.549   6.813   7.938
 1077W        W 2074   3.974   5.676   0.280
 1078W        W 2075   6.371   2.239   0.603
 1079W        W 2076   3.092   6.401   7.353
 1080W        W 2077   7.250   6.872   4.749
 1081W        W 2078   7.352   2.525   5.842
 1082W        W 2079   2.952   1.775   6.030
 1083W        W 2080   4.021   7.027   4.630
 1084W        W 2081   7.777   1.734   1.977
 1085W        W 2082   0.249   3.440   7.425
 1086W        W 2083   2.845   3.059   6.043
 1087W        W 2084   0.311   3.216   5.952
 1088W        W 2085   3.940   2.051   5.472
 1089W        W 2086   4.094   2.593   6.975
 1090W        W 2087   3.296   6.880   1.559
 1091W        W 2088   3.248   2.691   4.558
 1092W        W 2089   0.354   4.689   5.319
 1093W        W 2090   7.293   4.271   0.800
 1094W        W 2091   6.393   1.364   4.123
 1095W        W 2092   3.904   5.437   1.659
 1096W        W 2093   3.836   2.709   2.331
 1097W        W 2094   5.003   1.644   5.433
 1098W        W 2095   2.732   2.873   4.734
 1099W        W 2096   3.396   4.618   6.511
 1100W        W 2097   2.534   2.142   3.743
 1101W        W 2098   6.917   5.282   5.200
 1102W        W 2099   4.022   5.371   2.842
 1103W        W 2100   4.998   5.305   6.257
 1104W        W 2101   7.056   5.725   5.422
 1105W        W 2102   0.625   6.652   4.340
 1106W        W 2103   7.254   2.951   4.247
 1107W        W 2104   4.508   4.619   5.794
 1108W        W 2105   5.476   0.655   3.059
 1109W        W 2106   1.999   6.761   0.955
 1110W        W 2107   4.584   5.015   6.500
 1111W        W 2108   3.522   1.282   5.077
 1112W        W 2109   6.677   2.492   5.323
 1113W        W 2110   7.071   3.051   5.232
 1114W        W 2111   3.863   3.316   3.792
 1115W        W 2112   1.655   5.162   5.168
 1116W        W 2113   5.675   4.196   2.302
 1117W        W 2114   4.302   7.512   5.613
 1118W        W 2115   1.165   0.938   3.376
 1119W        W 2116   0.969   5.875   3.811
 1120W        W 2117   2.224   3.993   1.635
 1121W        W 2118   5.729   4.767   5.696
 1122W        W 2119   4.044   7.435   4.292
 1123W        W 2120   4.472   1.329   3.907
 1124W        W 2121   6.681   2.836   4.613
 1125W        W 2122   7.612   2.033   2.623
 1126W        W 2123   0.327   3.975   4.242
 1127W        W 2124   4.307   3.675   5.260
 1128W        W 2125   2.989   3.146   5.543
 1129W        W 2126   6.032   4.204   5.327
 1130W        W 2127   2.899   6.666   4.689
 1131W        W 2128   0.911   4.179   5.042
 1132W        W 2129   0.714   1.819   5.746
 1133W        W 2130   3.863   3.003   2.744
 1134W        W 2131   6.961   3.315   5.653
 1135W        W 2132   7.845   4.680   2.088
 1136W        W 2133   0.910   6.450   3.199
 1137W        W 2134   3.816   6.362   5.537
 1138W        W 2135   6.069   5.022   7.776
 1139W        W 2136   4.144   2.149   1.200
 1140W        W 2137   1.208   0.791   4.324
 1141W        W 2138   4.009   0.829   0.872
 1142W        W 2139   5.483   2.245   4.822
 1143W        W 2140   5.663   6.795   6.100
 1144W        W 2141   4.464   2.043   5.580
 1145W        W 2142   1.209   6.036   2.047
 1146W        W 2143   1.872   6.731   7.109
 1147W        W 2144   1.263   5.948   7.532
 1148W        W 2145   1.034   4.818   6.757
 1149W        W 2146   5.917   5.052   1.384
 1150W        W 2147   6.541   4.971   7.505
 1151W        W 2148   4.148   3.811   2.426
 1152W        W 2149   6.485   4.383   6.103
 1153W        W 2150   6.203   3.232   5.103
 1154W        W 2151   4.050   4.069   5.070
 1155W        W 2152   6.711   3.247   6.636
 1156W        W 2153   2.997   6.168   0.917
 1157W        W 2154   1.222   2.949   1.101
 1158W        W 2155   6.243   2.759   6.222
 1159W        W 2156   1.738   6.845   0.445
 1160W        W 2157   3.632   5.024   4.206
 1161W        W 2158   1.869   2.290   2.682
 1162W        W 2159   2.754   7.356   1.111
 1163W        W 2160   3.637   2.721   6.115
 1164W        W 2161   2.245   3.501   1.487
 1165W        W 2162   1.192   7.437   6.257
 1166W        W 2163   6.290   5.724   7.101
 1167W        W 2164   1.976   4.171   7.618
 1168W        W 2165   2.724   4.791   5.775
 1169W        W 2166   5.063   3.839   3.643
 1170W        W 2167   6.907   0.224   2.044
 1171W        W 2168   5.303   5.926   2.592
 1172W        W 2169   4.331   3.970   2.896
 1173W        W 2170   1.516   6.079   2.508
 1174W        W 2171   6.343   1.049   7.508
 1175W        W 2172   2.805   0.850   2.523
 1176W        W 2173   3.983   5.858   4.515
 1177W        W 2174   3.903   2.469   3.308
 1178W        W 2175   0.561   6.334   0.662
 1179W        W 2176   0.840   5.052   3.550
 1180W        W 2177   4.505   2.168   2.347
 1181W        W 2178   4.461   5.266   1.667
 1182W        W 2179   5.477   2.575   1.775
 1183W        W 2180   3.799   0.524   3.673
 1184W        W 2181   3.268   2.566   6.463
 1185W        W 2182   1.950   7.008   4.487
 1186W        W 2183   6.212   1.295   2.222
 1187W        W 2184   0.495   5.783   4.801
 1188W        W 2185   4.756   2.332   0.755
 1189W        W 2186   0.381   3.884   3.744
 1190W        W 2187   2.347   1.154   4.540
 1191W        W 2188   4.531   1.925   4.681
 1192W        W 2189   6.574   1.966   2.544
 1193W        W 2190   0.198   5.431   5.705
 1194W        W 2191   1.985   3.854   7.181
 1195W        W 2192   4.860   6.483   1.723
 1196W        W 2193   0.417   3.182   0.690
 1197W        W 2194   6.401   6.360   0.386
 1198W        W 2195   2.332   4.620   4.442
 1199W        W 2196   3.694   1.204   1.579
 1200W        W 2197   5.724   2.281   3.157
 1201W        W 2198   2.182   5.823   0.851
 1202W        W 2199   3.025   3.063   7.047
 1203W        W 2200   0.683   0.658   2.624
 1204W        W 2201   3.512   4.451   5.873
 1205W        W 2202   6.530   4.154   5.636
 1206W        W 2203   3.675   1.487   5.892
 1207W        W 2204   6.557   0.932   0.400
 1208W        W 2205   3.395   2.399   2.331
 1209W        W 2206   1.513   2.442   6.321
 1210W        W 2207   5.978   2.711   2.548
 1211W        W 2208   6.548   4.085   2.309
 1212W        W 2209   2.095   4.142   3.212
 1213W        W 2210   3.312   0.399   7.208
 1214W        W 2211   3.661   3.478   6.711
 1215W        W 2212   4.167   1.410   6.116
 1216W        W 2213   5.233   4.621   5.821
 1217W        W 2214   1.001   7.982   5.599
 1218W        W 2215   5.232   5.352   1.898
 1219W        W 2216   3.200   1.739   2.488
 1220W        W 2217   5.825   4.590   7.635
 1221W        W 2218   3.853   2.486   0.429
 1222W        W 2219   0.902   4.434   5.923
 1223W        W 2220   0.936   7.285   6.737
 1224W        W 2221   1.856   7.913   4.964
 1225W        W 2222   4.007   6.449   7.430
 1226W        W 2223   0.971   0.148   4.501
 1227W        W 2224   0.882   6.235   7.773
 1228W        W 2225   6.144   6.776   4.187
 1229W        W 2226   1.030   2.977   2.821
 1230W        W 2227   0.435   4.506   6.332
 1231W        W 2228   1.636   3.236   1.751
 1232W        W 2229   3.751   2.375   7.937
 1233W        W 2230   0.683   5.453   3.826
 1234W        W 2231   4.486   7.737   5.144
 1235W        W 2232   1.810   0.059   2.008
 1236W        W 2233   5.333   4.545   2.478
 1237W        W 2234   1.805   0.579   5.575
 1238W        W 2235   0.561   7.439   7.573
 1239W        W 2236   3.397   6.428   0.121
 1240W        W 2237   5.793   7.884   2.517
 1241W        W 2238   4.250   0.286   3.583
 1242W        W 2239   1.040   5.118   4.036
 1243W        W 2240   6.711   4.817   6.180
 1244W        W 2241   1.538   0.526   2.288
 1245W        W 2242   4.471   5.365   4.226
 1246W        W 2243   6.430   2.199   2.101
 1247W        W 2244   2.706   2.690   7.169
 1248W        W 2245   3.855   7.296   0.954
 1249W        W 2246   5.035   7.487   3.090
 1250W        W 2247   0.418   1.775   5.297
 1251W        W 2248   3.878   0.178   2.199
 1252W        W 2249   4.814   0.188   6.599
 1253W        W 2250   2.458   2.812   5.763
 1254W        W 2251   5.251   0.799   0.691
 1255W        W 2252   3.251   2.063   7.770
 1256W        W 2253   0.727   4.980   5.119
 1257W        W 2254   7.875   6.845   5.955
 1258W        W 2255   5.563   3.640   0.430
 1259W        W 2256   5.636   1.184   4.423
 1260W        W 2257   6.610   0.875   5.827
 1261W        W 2258   7.252   4.713   0.390
 1262W        W 2259   5.084   5.789   3.795
 1263W        W 2260   6.180   4.633   3.933
 1264W        W 2261   5.993   3.540   5.965
 1265W        W 2262   7.241   2.257   6.890
 1266W        W 2263   1.308   5.346   4.419
 1267W        W 2264   0.395   0.646   6.340
 1268W        W 2265   7.254   7.379   4.928
 1269W        W 2266   4.652   3.035   3.218
 1270W        W 2267   1.883   2.552   1.419
 1271W        W 2268   3.798   0.884   6.641
 1272W        W 2269   7.506   4.320   2.219
 1273W        W 2270   5.079   0.437   5.425
 1274W        W 2271   1.841   2.554   7.241
 1275W        W 2272   3.926   1.659   1.383
 1276W        W 2273   2.761   6.896   2.310
 1277W        W 2274   1.953   3.945   2.189
 1278W        W 2275   1.635   6.750   5.764
 1279W        W 2276   1.102   6.423   7.336
 1280W        W 2277   3.993   2.937   0.761
 1281W        W 2278   5.071   5.538   2.341
 1282W        W 2279   2.340   1.587   2.525
 1283W        W 2280   3.936   5.804   2.505
 1284W        W 2281   4.826   7.020   4.132
 1285W        W 2282   2.197   6.582   6.424
 1286W        W 2283   0.904   7.428   5.783
 1287W        W 2284   6.390   6.805   0.719
 1288W        W 2285   2.110   3.524   4.780
 1289W        W 2286   6.384   5.373   3.759
 1290W        W 2287   2.836   5.871   4.855
 1291W        W 2288   5.089   4.107   2.328
 1292W        W 2289   3.351   5.831   0.191
 1293W        W 2290   4.752   2.001   5.160
 1294W        W 2291   6.583   2.358   4.713
 1295W        W 2292   5.740   6.255   6.649
 1296W        W 2293   0.769   1.233   1.404
 1297W        W 2294   5.827   3.229   7.791
 1298W        W 2295   4.414   5.375   0.361
 1299W        W 2296   1.135   3.469   1.064
 1300W        W 2297   6.225   1.080   2.945
 1301W        W 2298   4.791   4.254   5.560
 1302W        W 2299   7.165   1.211   3.754
 1303W        W 2300   3.973   2.055   1.673
 1304W        W 2301   3.925   6.265   6.945
 1305W        W 2302   1.810   5.683   1.172
 1306W        W 2303   7.344   2.804   1.589
 1307W        W 2304   5.512   5.003   6.608
 1308W        W 2305   7.617   3.288   4.121
 1309W        W 2306   4.112   6.606   1.328
 1310W        W 2307   6.893   4.622   7.441
 1311W        W 2308   6.949   6.202   7.365
 1312W        W 2309   2.716   2.809   5.282
 1313W        W 2310   0.519   4.468   4.327
 1314W        W 2311   0.643   6.056   3.454
 1315W        W 2312   1.363   4.986   3.604
 1316W        W 2313   6.651   6.208   7.850
 1317W        W 2314   7.978   5.884   6.430
 1318W        W 2315   1.506   0.689   0.787
 1319W        W 2316   6.227   4.137   0.440
 1320W        W 2317   3.516   3.641   7.547
 1321W        W 2318   0.665   4.061   6.422
 1322W        W 2319   1.496   0.743   0.218
 1323W        W 2320   2.809   4.635   3.886
 1324W        W 2321   4.288   2.111   3.320
 1325W        W 2322   1.185   0.557   7.824
 1326W        W 2323   5.836   4.718   2.396
 1327W        W 2324   2.327   2.634   6.740
 1328W        W 2325   5.401   6.943   5.683
 1329W        W 2326   3.472   5.996   5.601
 1330W        W 2327   5.303   7.183   4.156
 1331W        W 2328   2.126   6.333   7.281
 1332W        W 2329   6.003   3.188   1.313
 1333W        W 2330   3.304   3.086   6.266
 1334W        W 2331   6.069   4.459   2.031
 1335W        W 2332   5.363   0.763   1.559
 1336W        W 2333   0.732   7.566   7.108
 1337W        W 2334   4.075   5.615   6.423
 1338W        W 2335   3.907   2.488   5.173
 1339W        W 2336   7.668   3.361   1.262
 1340W        W 2337   1.381   6.734   6.230
 1341W        W 2338   6.031   3.090   2.909
 1342W        W 2339   6.718   3.737   7.669
 1343W        W 2340   4.436   2.605   6.551
 1344W        W 2341   3.666   0.798   7.133
 1345W        W 2342   6.751   0.785   1.256
 1346W        W 2343   3.798   1.999   3.511
 1347W        W 2344   3.590   0.582   6.275
 1348W        W 2345   4.901   1.594   4.877
 1349W        W 2346   0.363   4.123   2.429
 1350W        W 2347   1.778   4.711   6.233
 1351W        W 2348   4.219   2.636   2.925
 1352W        W 2349   3.637   0.120   4.768
 1353W        W 2350   1.105   3.695   7.049
 1354W        W 2351   2.675   5.744   1.023
 1355W        W 2352   5.932   6.260   3.681
 1356W        W 2353   6.556   3.566   5.859
 1357W        W 2354   2.244   1.535   2.040
 1358W        W 2355   2.151   3.983   3.937
 1359W        W 2356   0.210   1.970   5.903
 1360W        W 2357   3.975   7.641   5.199
 1361W        W 2358   6.601   5.035   3.045
 1362W        W 2359   4.848   2.395   2.625
 1363W        W 2360   3.162   5.175   2.760
 1364W        W 2361   6.599   4.510   6.593
 1365W        W 2362   0.399   6.234   7.571
 1366W        W 2363   2.082   5.975   5.476
 1367W        W 2364   0.066   3.710   2.273
 1368W        W 2365   5.886   4.786   4.323
 1369W        W 2366   6.975   2.454   1.603
 1370W        W 2367   0.766   0.312   7.626
 1371W        W 2368   1.451   4.295   4.580
 1372W        W 2369   5.576   0.613   5.400
 1373W        W 2370   2.607   4.133   3.215
 1374W        W 2371   5.927   7.644   2.068
 1375W        W 2372   3.195   1.321   6.012
 1376W        W 2373   5.820   3.405   0.830
 1377W        W 2374   0.882   2.817   5.130
 1378W        W 2375   3.804   1.012   3.531
 1379W        W 2376   3.640   0.701   2.796
 1380W        W 2377   3.664   0.084   3.941
 1381W        W 2378   5.291   4.322   3.514
 1382W        W 2379   4.103   3.431   0.702
 1383W        W 2380   1.860   5.709   2.556
 1384W        W 2381   4.626   0.694   7.771
 1385W        W 2382   7.357   6.876   6.144
 1386W        W 2383   0.273   6.644   7.068
 1387W        W 2384   5.889   6.349   6.164
 1388W        W 2385   4.492   5.418   6.216
 1389W        W 2386   4.664   5.663   0.690
 1390W        W 2387   0.048   3.298   6.830
 1391W        W 2388   0.933   7.808   4.874
 1392W        W 2389   3.660   6.936   0.008
 1393W        W 2390   2.994   6.177   0.349
 1394W        W 2391   6.362   2.715   2.155
 1395W        W 2392   5.829   6.339   0.281
 1396W        W 2393   0.651   5.171   5.625
 1397W        W 2394   4.887   6.053   6.778
 1398W        W 2395   5.591   5.242   5.677
 1399W        W 2396   6.385   7.153   3.434
 1400W        W 2397   6.854   2.189   7.247
 1401W        W 2398   6.747   0.933   7.791
 1402W        W 2399   5.154   1.247   1.480
 1403W        W 2400   6.584   7.799   2.122
 1404W        W 2401   5.053   0.341   3.605
 1405W        W 2402   7.318   3.590   5.888
 1406W        W 2403   7.339   5.739   6.966
 1407W        W 2404   1.713   5.864   0.671
 1408W        W 2405   1.637   1.591   6.558
 1409W        W 2406   1.708   0.260   3.634
 1410W        W 2407   2.358   1.484   3.030
 1411W        W 2408   2.077   2.974   3.806
 1412W        W 2409   4.643   5.750   7.108
 1413W        W 2410   1.842   7.145   7.403
 1414W        W 2411   7.368   6.732   1.419
 1415W        W 2412   5.677   6.123   0.769
 1416W        W 2413   7.429   4.793   2.982
 1417W        W 2414   1.456   7.530   1.656
 1418W        W 2415   2.865   3.499   1.207
 1419W        W 2416   1.715   3.342   3.787
 1420W        W 2417   7.196   0.666   2.114
 1421W        W 2418   4.539   7.358   4.375
 1422W        W 2419   7.577   2.623   0.912
 1423W        W 2420   7.752   3.697   1.840
 1424W        W 2421   1.860   1.393   2.384
 1425W        W 2422   4.088   2.091   0.208
 1426W        W 2423   4.274   5.628   1.978
 1427W        W 2424   3.773   5.318   5.534
 1428W        W 2425   1.153   5.213   0.508
 1429W        W 2426   0.628   0.875   1.066
 1430W        W 2427   2.691   4.429   6.206
 1431W        W 2428   3.207   1.698   7.383
 1432W        W 2429   4.279   5.065   3.829
 1433W        W 2430   6.147   0.227   2.667
 1434W        W 2431   4.753   3.735   7.696
 1435W        W 2432   5.636   0.111   2.076
 1436W        W 2433   0.946   1.262   6.117
 1437W        W 2434   6.160   4.435   6.866
 1438W        W 2435   3.549   2.969   3.590
 1439W        W 2436   3.173   0.687   1.337
 1440W        W 2437   5.442   5.031   6.105
 1441W        W 2438   0.348   6.209   3.042
 1442W        W 2439   0.811   5.978   2.965
 1443W        W 2440   2.656   0.585   2.952
 1444W        W 2441   3.166   0.878   7.128
 1445W        W 2442   2.910   4.812   2.431
 1446W        W 2443   7.693   7.154   4.847
 1447W        W 2444   2.392   2.395   2.582
 1448W        W 2445   5.956   7.999   1.659
 1449W        W 2446   5.380   2.771   3.647
 1450W        W 2447   2.325   5.261   6.156
 1451W        W 2448   3.368   2.298   0.284
 1452W        W 2449   2.847   0.535   6.918
 1453W        W 2450   7.181   3.076   6.542
 1454W        W 2451   2.597   1.269   1.338
 1455W        W 2452   0.786   1.156   6.941
 1456W        W 2453   6.999   5.017   7.108
 1457W        W 2454   2.071   0.044   3.362
 1458W        W 2455   7.304   3.057   6.043
 1459W        W 2456   7.624   5.090   6.416
 1460W        W 2457   6.940   7.249   4.553
 1461W        W 2458   3.440   4.404   1.890
 1462W        W 2459   7.031   1.507   1.992
 1463W        W 2460   0.539   7.510   4.192
 1464W        W 2461   1.393   5.666   4.051
 1465W        W 2462   3.177   2.004   1.095
 1466W        W 2463   3.349   4.643   0.742
 1467W        W 2464   1.798   1.354   1.789
 1468W        W 2465   0.285   4.213   5.096
 1469W        W 2466   4.855   2.711   4.363
 1470W        W 2467   6.108   2.049   7.127
 1471W        W 2468   6.888   0.979   4.112
 1472W        W 2469   0.763   6.511   5.296
 1473W        W 2470   1.592   3.532   7.092
 1474W        W 2471   5.333   3.769   7.073
 1475W        W 2472   5.728   7.393   2.958
 1476W        W 2473   2.015   4.934   2.921
 1477W        W 2474   0.130   4.396   4.644
 1478W        W 2475   2.600   1.208   2.237
 1479W        W 2476   3.077   3.425   3.070
 1480W        W 2477   5.531   5.900   4.842
 1481W        W 2478   1.784   4.636   4.385
 1482W        W 2479   0.470   1.506   6.054
 1483W        W 2480   1.695   2.914   6.023
 1484W        W 2481   0.219   2.386   6.228
 1485W        W 2482   4.958   7.995   2.941
 1486W        W 2483   3.223   2.743   5.352
 1487W        W 2484   5.311   6.054   5.901
 1488W        W 2485   6.181   4.575   1.198
 1489W        W 2486   2.764   3.491   5.825
 1490W        W 2487   5.564   5.040   7.690
 1491W        W 2488   5.360   3.864   1.571
 1492W        W 2489   1.985   5.156   3.394
 1493W        W 2490   4.033   0.684   6.016
 1494W        W 2491   6.205   3.782   5.564
 1495W        W 2492   6.799   1.338   6.830
 1496W        W 2493   5.105   4.681   3.858
 1497W        W 2494   6.683   0.691   2.152
 1498W        W 2495   0.685   4.441   6.804
 1499W        W 2496   1.823   0.406   7.040
 1500W        W 2497   2.551   5.343   7.896
 1501W        W 2498   1.987   4.907   5.527
 1502W        W 2499   5.695   2.595   0.876
 1503W        W 2500   4.485   5.037   5.303
 1504W        W 2501   1.947   6.497   1.853
 1505W        W 2502   2.343   3.708   4.345
 1506W        W 2503   5.917   5.571   2.930
 1507W        W 2504   1.025   0.934   3.845
 1508W        W 2505   4.049   4.369   3.056
 1509W        W 2506   3.474   0.699   3.281
 1510W        W 2507   5.375   5.383   6.912
 1511W        W 2508   3.124   4.998   4.074
 1512W        W 2509   1.039   5.552   5.636
 1513W        W 2510   0.838   4.860   0.345
 1514W        W 2511   2.581   4.950   4.726
 1515W        W 2512   2.545   0.671   2.097
 1516W        W 2513   1.903   6.626   7.629
 1517W        W 2514   1.779   6.047   1.537
 1518W        W 2515   3.150   3.387   6.691
 1519W        W 2516   2.186   0.757   3.011
 1520W        W 2517   2.455   2.376   5.481
 1521W        W 2518   2.210   1.515   1.542
 1522W        W 2519   6.561   0.431   0.520
 1523W        W 2520   2.940   2.397   3.911
 1524W        W 2521   2.859   2.805   4.253
 1525W        W 2522   7.696   6.468   3.492
 1526W        W 2523   3.529   7.706   4.265
 1527W        W 2524   2.834   2.091   5.098
 1528W        W 2525   0.863   7.824   6.095
 1529W        W 2526   1.936   1.891   2.362
 1530W        W 2527   4.055   1.686   7.917
 1531W        W 2528   4.354   4.636   7.312
 1532W        W 2529   1.433   6.327   7.822
 1533W        W 2530   4.071   3.419   6.047
 1534W        W 2531   7.242   1.374   1.471
 1535W        W 2532   3.892   4.831   0.077
 1536W        W 2533   5.733   1.392   4.861
 1537W        W 2534   4.939   5.562   0.190
 1538W        W 2535   6.830   2.258   0.787
 1539W        W 2536   0.814   0.913   6.470
 1540W        W 2537   3.964   4.696   3.934
 1541W        W 2538   5.809   2.870   3.888
 1542W        W 2539   4.639   4.303   7.602
 1543W        W 2540   2.007   5.453   2.969
 1544W        W 2541   1.385   4.052   1.272
 1545W        W 2542   4.434   2.684   2.448
 1546W        W 2543   4.625   6.008   5.535
 1547W        W 2544   2.089   0.554   3.461
 1548W        W 2545   7.561   6.514   5.389
 1549W        W 2546   3.225   6.594   1.126
 1550W        W 2547   1.524   2.970   6.517
 1551W        W 2548   5.114   2.714   4.788
 1552W        W 2549   3.884   0.878   4.406
 1553W        W 2550   1.002   0.744   5.985
 1554W        W 2551   1.722   1.079   6.566
 1555W        W 2552   1.142   4.278   5.497
 1556W        W 2553   1.254   1.386   3.685
 1557W        W 2554   4.956   1.031   1.058
 1558W        W 2555   4.148   2.468   5.647
 1559W        W 2556   5.828   0.970   3.283
 1560W        W 2557   6.263   5.658   5.853
 1561W        W 2558   1.385   0.572   3.859
 1562W        W 2559   6.184   0.590   2.281
 1563W        W 2560   5.179   6.491   2.109
 1564W        W 2561   2.163   2.499   3.557
 1565W        W 2562   4.524   2.599   3.972
 1566W        W 2563   4.405   1.356   7.187
 1567W        W 2564   1.107   0.187   6.847
 1568W        W 2565   2.840   4.636   4.395
 1569W        W 2566   5.584   6.169   4.380
 1570W        W 2567   7.108   3.821   0.619
 1571W        W 2568   3.751   5.869   4.040
 1572W        W 2569   1.404   1.625   0.908
 1573W        W 2570   6.772   4.202   0.723
 1574W        W 2571   3.295   3.975   6.022
 1575W        W 2572   2.515   6.074   5.239
 1576W        W 2573   1.815   5.363   6.933
 1577W        W 2574   3.452   2.777   0.463
 1578W        W 2575   7.266   4.774   2.408
 1579W        W 2576   5.423   7.790   2.873
 1580W        W 2577   3.754   5.284   7.324
 1581W        W 2578   3.002   2.992   2.807
 1582W        W 2579   2.251   7.341   5.431
 1583W        W 2580   0.587   2.384   1.331
 1584W        W 2581   4.261   4.963   6.113
 1585W        W 2582   6.720   2.869   4.107
 1586W        W 2583   7.995   1.658   1.080
 1587W        W 2584   2.314   2.209   6.458
 1588W        W 2585   0.714   3.772   2.530
 1589W        W 2586   7.146   0.473   1.123
 1590W        W 2587   3.834   0.019   3.463
 1591W        W 2588   5.532   6.127   7.154
 1592W        W 2589   4.532   4.866   3.183
 1593W        W 2590   2.254   6.316   0.865
 1594W        W 2591   2.904   5.221   5.476
 1595W        W 2592   2.788   4.890   2.931
 1596W        W 2593   2.227   3.126   1.863
 1597W        W 2594   4.197   6.109   2.167
 1598W        W 2595   4.052   2.309   2.559
 1599W        W 2596   1.308   0.227   1.918
 1600W        W 2597   4.848   4.359   6.105
 1601W        W 2598   5.378   2.138   1.567
 1602W        W 2599   2.117   3.252   4.355
 1603W        W 2600   1.202   7.684   6.927
 1604W        W 2601   1.706   7.611   7.115
 1605W        W 2602   4.171   6.312   0.905
 1606W        W 2603   1.030   3.128   6.469
 1607W        W 2604   3.042   4.038   5.131
 1608W        W 2605   0.787   6.454   4.778
 1609W        W 2606   6.459   2.316   7.894
 1610W        W 2607   5.690   7.186   2.125
 1611W        W 2608   3.729   6.640   0.446
 1612W        W 2609   2.460   3.685   7.366
 1613W        W 2610   2.316   4.228   5.947
 1614W        W 2611   4.353   4.152   6.045
 1615W        W 2612   1.879   0.303   4.586
 1616W        W 2613   1.491   4.020   1.954
 1617W        W 2614   1.643   0.966   2.051
 1618W        W 2615   0.782   5.988   5.270
 1619W        W 2616   1.034   0.439   2.305
 1620W        W 2617   2.225   5.349   3.844
 1621W        W 2618   5.118   3.115   0.868
 1622W        W 2619   4.048   6.285   4.110
 1623W        W 2620   4.267   3.326   4.542
 1624W        W 2621   4.965   4.106   1.355
 1625W        W 2622   3.308   1.517   1.786
 1626W        W 2623   6.064   1.605   7.442
 1627W        W 2624   3.786   7.621   4.693
 1628W        W 2625   1.022   6.889   4.584
 1629W        W 2626   4.630   4.927   6.992
 1630W        W 2627   6.117   2.161   4.507
 1631W        W 2628   0.553   2.651   1.761
 1632W        W 2629   4.460   4.947   1.261
 1633W        W 2630   2.229   6.640   0.449
 1634W        W 2631   2.419   5.817   0.086
 1635W        W 2632   1.711   4.149   4.162
 1636W        W 2633   1.006   3.319   5.176
 1637W        W 2634   2.160   5.210   5.136
 1638W        W 2635   4.124   4.228   6.527
 1639W        W 2636   6.425   0.926   0.901
 1640W        W 2637   4.798   1.567   0.354
 1641W        W 2638   1.011   6.160   2.509
 1642W        W 2639   4.922   5.552   6.703
 1643W        W 2640   4.446   1.349   6.682
 1644W        W 2641   0.096   5.925   5.824
 1645W        W 2642   7.246   7.301   3.653
 1646W        W 2643   5.887   7.134   5.710
 1647W        W 2644   4.099   4.487   1.822
 1648W        W 2645   5.725   0.197   2.934
 1649W        W 2646   5.714   7.069   4.446
 1650W        W 2647   5.590   2.321   2.623
 1651W        W 2648   5.633   2.232   5.317
 1652W        W 2649   4.045   0.985   3.065
 1653W        W 2650   7.516   5.592   5.696
 1654W        W 2651   2.129   0.999   2.186
 1655W        W 2652   0.660   6.667   7.441
 1656W        W 2653   2.430   5.513   0.525
 1657W        W 2654   4.475   5.750   4.593
 1658W        W 2655   1.506   0.923   7.671
 1659W        W 2656   1.295   7.622   7.431
 1660W        W 2657   6.044   3.361   7.273
 1661W        W 2658   3.786   3.156   6.354
 1662W        W 2659   2.471   6.507   1.730
 1663W        W 2660   5.006   1.988   0.170
 1664W        W 2661   6.927   6.041   1.067
 1665W        W 2662   3.666   1.633   7.142
 1666W        W 2663   4.319   4.555   4.284
 1667W        W 2664   6.474   6.703   2.116
 1668W        W 2665   3.392   2.379   0.796
 1669W        W 2666   3.358   3.742   7.048
 1670W        W 2667   3.912   2.931   0.210
 1671W        W 2668   4.775   6.507   7.023
 1672W        W 2669   7.362   4.090   1.781
 1673W        W 2670   1.653   1.301   7.062
 1674W        W 2671   6.698   5.285   7.894
 1675W        W 2672   0.805   4.716   7.223
 1676W        W 2673   3.440   2.942   6.751
 1677W        W 2674   0.535   4.914   6.650
 1678W        W 2675   0.928   6.139   6.469
 1679W        W 2676   2.378   4.545   3.022
 1680W        W 2677   6.375   3.478   1.523
 1681W        W 2678   2.626   3.782   3.908
 1682W        W 2679   5.725   6.580   7.013
 1683W        W 2680   4.176   2.269   4.769
 1684W        W 2681   3.052   3.980   1.911
 1685W        W 2682   7.325   2.162   0.858
 1686W        W 2683   7.452   5.907   0.798
 1687W        W 2684   4.953   2.920   5.785
 1688W        W 2685   6.387   3.304   0.982
 1689W        W 2686   1.133   2.653   3.588
 1690W        W 2687   6.042   1.355   1.746
 1691W        W 2688   2.760   1.921   6.490
 1692W        W 2689   6.984   0.701   0.243
 1693W        W 2690   6.837   3.684   4.703
 1694W        W 2691   4.647   2.221   3.650
 1695W        W 2692   3.018   1.872   4.669
 1696W        W 2693   5.570   6.873   1.726
 1697W        W 2694   3.566   5.138   1.346
 1698W        W 2695   1.385   1.171   0.541
 1699W        W 2696   6.460   4.927   3.525
 1700W        W 2697   6.458   2.109   5.642
 1701W        W 2698   6.251   4.265   1.587
 1702W        W 2699   4.492   3.890   7.277
 1703W        W 2700   0.333   6.639   7.885
 1704W        W 2701   6.602   2.525   5.911
 1705W        W 2702   5.861   7.077   4.962
 1706W        W 2703   5.931   6.482   2.650
 1707W        W 2704   1.359   6.235   0.736
 1708W        W 2705   3.633   5.482   4.459
 1709W        W 2706   7.938   3.709   3.981
 1710W        W 2707   6.987   1.587   3.413
 1711W        W 2708   5.638   3.995   3.665
 1712W        W 2709   1.938   1.101   5.586
 1713W        W 2710   6.916   4.054   5.054
 1714W        W 2711   1.212   3.371   4.689
 1715W        W 2712   4.657   4.485   1.135
 1716W        W 2713   1.111   2.655   6.613
 1717W        W 2714   0.711   6.156   2.079
 1718W        W 2715   3.353   6.555   1.953
 1719W        W 2716   0.323   0.503   5.831
 1720W        W 2717   3.064   6.274   6.436
 1721W        W 2718   0.669   5.778   0.255
 1722W        W 2719   1.455   4.560   3.945
 1723W        W 2720   5.097   5.669   4.951
 1724W        W 2721   6.907   6.301   0.287
 1725W        W 2722   1.116   4.737   2.363
 1726W        W 2723   4.149   2.037   5.961
 1727W        W 2724   6.330   3.494   2.042
 1728W        W 2725   0.411   0.997   4.684
 1729W        W 2726   3.366   5.211   5.817
 1730W        W 2727   1.461   3.704   5.835
 1731W        W 2728   4.964   6.651   0.740
 1732W        W 2729   6.401   2.104   5.093
 1733W        W 2730   1.343   4.501   1.621
 1734W        W 2731   6.347   4.103   6.501
 1735W        W 2732   1.296   5.894   1.563
 1736W        W 2733   0.564   5.895   2.530
 1737W        W 2734   4.139   5.029   7.085
 1738W        W 2735   2.078   1.022   1.438
 1739W        W 2736   3.728   1.591   2.439
 1740W        W 2737   6.964   4.669   0.812
 1741W        W 2738   5.252   0.514   4.947
 1742W        W 2739   5.241   4.854   0.690
 1743W        W 2740   4.927   2.469   6.546
 1744W        W 2741   1.338   2.924   3.211
 1745W        W 2742   3.468   1.222   6.841
 1746W        W 2743   6.048   2.291   0.229
 1747W        W 2744   7.542   4.508   3.461
 1748W        W 2745   0.347   4.901   3.451
 1749W        W 2746   0.926   0.462   4.073
 1750W        W 2747   5.735   5.396   1.831
 1751W        W 2748   0.471   5.967   6.576
 1752W        W 2749   1.701   3.005   4.148
 1753W        W 2750   4.111   7.528   1.337
 1754W        W 2751   0.780   7.766   6.621
 1755W        W 2752   2.004   4.818   2.246
 1756W        W 2753   5.501   5.369   1.383
 1757W        W 2754   3.916   2.021   2.995
 1758W        W 2755   1.924   5.603   6.265
 1759W        W 2756   7.665   6.359   2.613
 1760W        W 2757   3.528   2.857   0.995
 1761W        W 2758   1.069   2.525   3.033
 1762W        W 2759   5.289   1.518   6.774
 1763W        W 2760   6.040   0.985   5.007
 1764W        W 2761   2.069   5.017   4.209
 1765W        W 2762   6.490   5.226   6.007
 1766W        W 2763   1.649   6.311   4.777
 1767W        W 2764   3.109   2.185   6.788
 1768W        W 2765   7.728   3.861   5.647
 1769W        W 2766   7.179   2.150   3.592
 1770W        W 2767   2.695   6.586   6.568
 1771W        W 2768   6.775   1.223   5.463
 1772W        W 2769   3.117   3.153   0.416
 1773W        W 2770   6.934   2.625   6.722
 1774W        W 2771   5.764   4.419   2.780
 1775W        W 2772   2.179   2.418   3.072
 1776W        W 2773   6.119   5.196   5.658
 1777W        W 2774   0.379   3.705   5.057
 1778W        W 2775   5.979   3.790   0.177
 1779W        W 2776   1.579   4.729   4.887
 1780W        W 2777   2.266   3.132   2.387
 1781W        W 2778   2.856   5.891   6.158
 1782W        W 2779   1.943   4.851   1.738
 1783W        W 2780   6.012   3.806   1.620
 1784W        W 2781   5.523   0.640   0.237
 1785W        W 2782   3.906   4.657   6.365
 1786W        W 2783   2.270   0.459   5.769
 1787W        W 2784   4.620   1.863   4.009
 1788W        W 2785   6.298   5.551   4.228
 1789W        W 2786   3.401   0.762   7.574
 1790W        W 2787   6.733   1.196   2.249
 1791W        W 2788   3.772   3.375   4.362
 1792W        W 2789   0.788   5.469   2.787
 1793W        W 2790   2.460   3.151   1.179
 1794W        W 2791   2.750   5.143   1.879
 1795W        W 2792   6.725   5.392   7.321
 1796W        W 2793   0.388   6.203   5.511
 1797W        W 2794   0.937   1.650   1.654
 1798W        W 2795   2.592   6.002   0.597
 1799W        W 2796   2.348   6.763   3.992
 1800W        W 2797   1.804   7.451   4.719
 1801W        W 2798   2.024   0.272   6.191
 1802W        W 2799   4.373   3.513   7.982
 1803W        W 2800   1.325   4.158   6.031
 1804W        W 2801   7.264   6.599   7.186
 1805W        W 2802   4.980   7.212   5.839
 1806W        W 2803   5.977   5.818   1.973
 1807W        W 2804   3.951   4.250   0.648
 1808W        W 2805   4.250   1.207   4.367
 1809W        W 2806   1.145   5.161   5.350
 1810W        W 2807   0.337   6.072   7.075
 1811W        W 2808   3.061   5.145   7.952
 1812W        W 2809   6.850   2.603   2.777
 1813W        W 2810   6.876   2.046   7.754
 1814W        W 2811   7.641   2.211   4.363
 1815W        W 2812   0.925   2.016   2.948
 1816W        W 2813   3.569   7.336   3.920
 1817W        W 2814   2.207   3.478   3.888
 1818W        W 2815   6.661   4.405   1.189
 1819W        W 2816   6.465   1.425   7.201
 1820W        W 2817   5.878   2.290   3.658
 1821W        W 2818   3.273   3.786   1.061
 1822W        W 2819   2.680   3.252   1.616
 1823W        W 2820   5.167   4.199   6.632
 1824W        W 2821   3.138   4.063   4.643
 1825W        W 2822   4.760   3.202   7.772
 1826W        W 2823   5.969   0.637   2.908
 1827W        W 2824   4.078   5.088   6.557
 1828W        W 2825   6.309   7.753   2.525
 1829W        W 2826   4.185   4.524   1.324
 1830W        W 2827   6.863   1.210   2.803
 1831W        W 2828   1.286   2.947   4.448
 1832W        W 2829   5.715   2.564   4.503
 1833W        W 2830   2.805   1.791   7.000
 1834W        W 2831   3.098   1.388   4.755
 1835W        W 2832   5.033   2.483   0.322
 1836W        W 2833   1.554   5.333   2.747
 1837W        W 2834   5.292   1.331   0.801
 1838W        W 2835   1.996   3.118   5.664
 1839W        W 2836   6.950   0.770   2.569
 1840W        W 2837   4.518   4.241   1.582
 1841W        W 2838   2.319   7.234   4.177
 1842W        W 2839   1.474   5.451   0.818
 1843W        W 2840   6.086   6.754   3.647
 1844W        W 2841   2.851   3.528   2.043
 1845W        W 2842   7.338   6.778   3.669
 1846W        W 2843   5.352   0.770   4.482
 1847W        W 2844   4.745   6.860   3.638
 1848W        W 2845   1.201   4.164   4.154
 1849W        W 2846   5.985   6.685   6.533
 1850W        W 2847   1.367   3.516   6.622
 1851W        W 2848   1.848   2.784   1.859
 1852W        W 2849   2.310   6.814   7.366
 1853W        W 2850   1.893   4.468   5.799
 1854W        W 2851   3.145   3.642   2.523
 1855W        W 2852   1.182   6.126   6.929
 1856W        W 2853   5.680   4.533   6.142
 1857W        W 2854   1.584   0.241   0.019
 1858W        W 2855   1.820   5.481   4.274
 1859W        W 2856   1.157   1.478   6.516
 1860W        W 2857   1.488   0.622   6.701
 1861W        W 2858   0.878   5.345   0.072
 1862W        W 2859   7.647   6.429   6.897
 1863W        W 2860   4.411   6.204   7.236
 1864W        W 2861   7.323   1.229   4.287
 1865W        W 2862   5.592   5.255   3.169
 1866W        W 2863   3.050   3.465   7.381
 1867W        W 2864   2.767   3.929   6.090
 1868W        W 2865   0.201   5.643   6.829
 1869W        W 2866   1.337   3.664   1.609
 1870W        W 2867   5.333   4.942   5.346
 1871W        W 2868   3.915   3.044   4.737
 1872W        W 2869   5.707   6.666   2.190
 1873W        W 2870   1.685   5.563   1.681
 1874W        W 2871   6.747   6.463   5.812
 1875W        W 2872   5.909   0.780   4.554
 1876W        W 2873   4.238   1.894   5.109
 1877W        W 2874   4.671   0.097   3.824
 1878W        W 2875   7.420   1.838   1.245
 1879W        W 2876   2.004   0.067   5.463
 1880W        W 2877   5.839   4.597   1.580
 1881W        W 2878   5.651   1.959   0.276
 1882W        W 2879   4.476   0.973   0.960
 1883W        W 2880   4.226   1.772   3.688
 1884W        W 2881   0.592   3.195   1.663
 1885W        W 2882   6.447   3.102   7.094
 1886W        W 2883   6.147   2.436   1.013
 1887W        W 2884   5.833   0.494   4.969
 1888W        W 2885   0.484   2.745   5.905
 1889W        W 2886   0.220   7.495   7.194
 1890W        W 2887   6.823   1.763   2.952
 1891W        W 2888   2.013   5.631   2.079
 1892W        W 2889   1.111   1.468   4.881
 1893W        W 2890   1.676   0.169   5.836
 1894W        W 2891   6.893   7.415   3.288
 1895W        W 2892   6.551   1.374   3.185
 1896W        W 2893   2.866   0.650   0.390
 1897W        W 2894   2.223   4.020   4.923
 1898W        W 2895   7.223   2.152   4.657
 1899W        W 2896   6.926   6.500   1.872
 1900W        W 2897   5.123   1.318   4.492
 1901W        W 2898   4.571   2.257   0.277
 1902W        W 2899   1.267   1.288   1.831
 1903W        W 2900   6.456   2.926   2.683
 1904W        W 2901   7.734   4.598   2.589
 1905W        W 2902   4.872   4.762   5.471
 1906W        W 2903   3.613   1.890   0.093
 1907W        W 2904   4.549   6.287   4.878
 1908W        W 2905   1.006   2.869   1.859
 1909W        W 2906   2.137   5.508   7.291
 1910W        W 2907   1.302   0.951   6.331
 1911W        W 2908   3.102   1.507   0.903
 1912W        W 2909   7.475   3.466   5.417
 1913W        W 2910   2.665   1.439   5.775
 1914W        W 2911   6.154   2.679   7.060
 1915W        W 2912   3.232   4.564   3.578
 1916W        W 2913   2.919   2.432   2.611
 1917W        W 2914   3.310   7.583   2.816
 1918W        W 2915   1.064   5.241   6.454
 1919W        W 2916   1.984   4.727   0.364
 1920W        W 2917   4.807   1.213   5.206
 1921W        W 2918   6.461   1.456   2.633
 1922W        W 2919   3.913   5.430   6.867
 1923W        W 2920   2.194   5.320   4.623
 1924W        W 2921   0.831   5.738   6.874
 1925W        W 2922   2.353   4.845   3.751
 1926W        W 2923   7.246   7.248   1.787
 1927W        W 2924   3.939   2.977   5.247
 1928W        W 2925   2.421   0.650   6.254
 1929W        W 2926   0.684   0.947   4.205
 1930W        W 2927   2.291   3.642   5.252
 1931W        W 2928   2.550   4.075   2.024
 1932W        W 2929   2.097   5.547   7.802
 1933W        W 2930   3.945   3.364   7.698
 1934W        W 2931   2.915   0.988   6.698
 1935W        W 2932   5.009   6.812   6.675
 1936W        W 2933   7.120   3.664   3.149
 1937W        W 2934   0.548   0.981   5.968
 1938W        W 2935   4.824   4.267   3.670
 1939W        W 2936   0.837   2.819   1.384
 1940W        W 2937   6.787   3.309   1.798
 1941W        W 2938   5.297   3.235   7.796
 1942W        W 2939   6.466   2.633   0.275
 1943W        W 2940   2.575   7.329   2.539
 1944W        W 2941   1.263   6.219   3.480
 1945W        W 2942   0.463   7.935   7.416
 1946W        W 2943   7.091   3.572   6.714
 1947W        W 2944   2.633   2.829   2.513
 1948W        W 2945   6.758   7.389   1.840
 1949W        W 2946   2.180   5.174   0.231
 1950W        W 2947   4.203   1.800   2.591
 1951W        W 2948   6.718   5.063   2.515
 1952W        W 2949   2.965   2.970   3.298
 1953W        W 2950   5.207   4.256   1.861
 1954W        W 2951   6.297   6.209   5.841
 1955W        W 2952   2.508   2.028   4.679
 1956W        W 2953   1.696   4.700   1.319
 1957W        W 2954   1.323   4.722   0.515
 1958W        W 2955   5.525   2.216   7.031
 1959W        W 2956   3.987   2.972   3.241
 1960W        W 2957   0.905   3.860   1.245
 1961W        W 2958   0.819   3.286   2.480
 1962W        W 2959   3.891   0.565   7.532
 1963W        W 2960   6.550   1.666   2.154
 1964W        W 2961   2.093   6.072   6.470
 1965W        W 2962   0.836   3.664   4.835
 1966W        W 2963   3.897   2.719   6.549
 1967W        W 2964   4.178   0.813   4.820
 1968W        W 2965   6.061   3.103   2.243
 1969W        W 2966   1.306   4.782   4.466
 1970W        W 2967   0.025   6.626   3.133
 1971W        W 2968   5.509   4.182   7.425
 1972W        W 2969   6.683   0.496   4.119
 1973W        W 2970   7.811   2.149   1.062
 1974W        W 2971   6.082   0.656   5.402
 1975W        W 2972   2.849   5.340   3.165
 1976W        W 2973   0.126   6.184   3.525
 1977W        W 2974   5.961   5.821   3.944
 1978W        W 2975   5.309   4.174   6.134
 1979W        W 2976   4.656   0.188   3.305
 1980W        W 2977   3.616   7.821   2.476
 1981W        W 2978   5.783   5.160   7.224
 1982W        W 2979   5.597   2.893   7.439
 1983W        W 2980   5.566   2.701   2.249
 1984W        W 2981   0.161   4.301   2.859
 1985W        W 2982   6.999   2.332   6.170
 1986W        W 2983   3.456   2.085   7.159
 1987W        W 2984   7.149   3.296   3.904
 1988W        W 2985   0.890   2.416   2.078
 1989W        W 2986   6.633   5.479   5.572
 1990W        W 2987   3.201   7.853   3.244
 1991W        W 2988   1.244   4.160   3.653
 1992W        W 2989   3.894   0.234   2.722
 1993W        W 2990   5.509   0.513   6.733
 1994W        W 2991   2.122   5.332   1.541
 1995W        W 2992   5.262   5.741   4.443
 1996W        W 2993   5.499   6.761   6.585
 1997W        W 2994   5.149   4.463   1.001
 1998W        W 2995   2.899   0.067   3.612
 1999W        W 2996   6.777   5.698   4.385
 2000W        W 2997   2.147   4.157   4.420
 2001W        W 2998   4.730   2.527   3.084
 2002W        W 2999   5.480   1.204   1.861
 2003W        W 3000   1.931   3.676   3.094
 2004W        W 3001   1.969   0.898   6.986
 2005W        W 3002   4.121   5.387   4.619
 2006W        W 3003   3.609   5.631   5.936
 2007W        W 3004   6.187   0.236   3.192
 2008W        W 3005   5.757   2.814   6.439
 2009W        W 3006   6.683   7.029   3.045
 2010W        W 3007   2.586   5.039   4.183
 2011W        W 3008   1.226   7.907   6.445
 2012W        W 3009   6.601   2.419   1.241
 2013W        W 3010   4.023   4.972   1.478
 2014W        W 3011   7.833   3.106   3.380
 2015W        W 3012   0.462   5.074   7.421
 2016W        W 3013   3.202   2.382   1.783
 2017W        W 3014   2.849   0.578   3.694
 2018W        W 3015   2.145   1.151   5.056
 2019W        W 3016   0.668   0.559   4.510
 2020W        W 3017   1.290   6.336   1.234
 2021W        W 3018   5.154   0.193   6.992
 2022W        W 3019   3.642   5.009   2.796
 2023W        W 3020   6.529   1.100   4.951
 2024W        W 3021   6.673   1.270   1.298
 2025W        W 3022   7.595   3.796   0.937
 2026W        W 3023   1.219   0.739   1.924
 2027W        W 3024   7.260   1.075   0.509
 2028W        W 3025   3.532   5.116   0.812
 2029W        W 3026   5.561   3.003   0.569
 2030W        W 3027   6.742   6.456   0.836
 2031W        W 3028   2.232   2.199   4.173
 2032W        W 3029   6.605   6.672   0.049
 2033W        W 3030   0.563   7.095   7.167
 2034W        W 3031   1.722   7.200   0.808
 2035W        W 3032   1.881   0.398   5.094
 2036W        W 3033   6.035   4.261   7.316
 2037W        W 3034   6.799   6.887   5.390
 2038W        W 3035   0.919   3.932   5.792
 2039W        W 3036   4.146   5.521   0.754
 2040W        W 3037   2.168   1.358   1.059
 2041W        W 3038   5.021   7.505   4.448
 2042W        W 3039   6.232   7.273   2.934
 2043W        W 3040   5.417   1.857   5.664
 2044W        W 3041   4.821   0.615   7.293
 2045W        W 3042   3.222   5.462   1.060
 2046W        W 3043   5.422   3.944   4.492
 2047W        W 3044   4.951   1.491   4.035
 2048W        W 3045   3.661   5.541   4.967
 2049W        W 3046   4.732   2.239   4.322
 2050W        W 3047   6.972   6.125   4.116
 2051W        W 3048   7.408   7.123   4.336
 2052W        W 3049   0.755   2.987   6.854
 2053W        W 3050   2.668   3.800   2.424
 2054W        W 3051   0.998   7.512   7.844
 2055W        W 3052   6.813   3.391   0.519
 2056W        W 3053   6.791   3.972   6.059
 2057W        W 3054   2.528   6.311   0.197
 2058W        W 3055   2.193   4.493   0.803
 2059W        W 3056   2.807   2.557   6.035
 2060W        W 3057   4.975   4.307   2.796
 2061W        W 3058   2.783   6.975   4.226
 2062W        W 3059   4.616   6.034   1.874
 2063W        W 3060   4.339   1.387   0.224
 2064W        W 3061   6.467   0.913   4.417
 2065W        W 3062   4.282   4.146   5.543
 2066W        W 3063   1.751   6.190   4.280
 2067W        W 3064   6.510   5.729   1.878
 2068W        W 3065   4.858   0.682   1.508
 2069W        W 3066   6.780   6.607   7.085
 2070W        W 3067   2.032   0.502   2.174
 2071W        W 3068   1.075   2.427   1.594
 2072W        W 3069   4.949   3.597   2.243
 2073W        W 3070   4.138   7.969   4.826
 2074W        W 3071   6.296   3.151   4.603
 2075W        W 3072   3.310   6.359   4.788
 2076W        W 3073   5.816   6.010   2.457
 2077W        W 3074   3.748   6.976   1.323
 2078W        W 3075   0.419   6.290   3.956
 2079W        W 3076   0.042   4.767   6.616
 2080W        W 3077   1.479   4.367   6.476
 2081W        W 3078   5.441   6.434   2.547
 2082W        W 3079   7.525   2.876   5.055
 2083W        W 3080   6.408   1.456   0.915
 2084W        W 3081   4.471   5.818   7.580
 2085W        W 3082   4.865   1.293   2.960
 2086W        W 3083   1.845   7.746   3.745
 2087W        W 3084   0.789   0.434   5.639
 2088W        W 3085   3.668   6.422   0.924
 2089W        W 3086   7.635   3.362   2.215
 2090W        W 3087   5.324   0.049   1.076
 2091W        W 3088   5.594   4.274   5.652
 2092W        W 3089   6.340   5.858   3.616
 2093W        W 3090   7.121   4.557   1.938
 2094W        W 3091   7.055   2.593   1.078
 2095W        W 3092   6.952   1.624   1.044
 2096W        W 3093   3.868   1.239   0.080
 2097W        W 3094   0.187   2.937   4.624
 2098W        W 3095   2.793   6.806   7.552
 2099W        W 3096   4.759   1.024   2.468
 2100W        W 3097   7.121   0.902   5.638
 2101W        W 3098   1.196   2.181   3.795
 2102W        W 3099   7.232   3.086   0.607
 2103W        W 3100   3.653   2.452   3.750
 2104W        W 3101   4.191   3.408   3.407
 2105W        W 3102   4.276   0.882   7.367
 2106W        W 3103   2.824   1.433   2.655
 2107W        W 3104   6.491   6.905   5.804
 2108W        W 3105   5.590   6.765   3.535
 2109W        W 3106   3.979   3.828   7.886
 2110W        W 3107   1.317   1.695   6.959
 2111W        W 3108   5.931   4.955   1.955
 2112W        W 3109   1.566   0.685   4.747
 2113W        W 3110   3.236   7.080   2.014
 2114W        W 3111   0.276   7.074   4.041
 2115W        W 3112   7.785   2.870   1.333
 2116W        W 3113   6.208   4.804   5.953
 2117W        W 3114   4.789   5.767   4.198
 2118W        W 3115   5.921   5.046   6.301
 2119W        W 3116   1.860   3.436   6.063
 2120W        W 3117   6.294   1.117   5.423
 2121W        W 3118   6.037   2.478   4.098
 2122W        W 3119   6.216   2.666   4.519
 2123W        W 3120   7.185   6.699   5.680
 2124W        W 3121   3.940   7.201   3.602
 2125W        W 3122   3.114   4.807   7.522
 2126W        W 3123   6.957   5.257   6.294
 2127W        W 3124   6.780   3.428   3.404
 2128W        W 3125   7.378   1.747   4.362
 2129W        W 3126   2.403   4.846   2.604
 2130W        W 3127   4.372   7.254   3.884
 2131W        W 3128   4.796   6.918   6.216
 2132W        W 3129   5.963   7.381   2.510
 2133W        W 3130   6.909   4.892   6.638
 2134W        W 3131   0.406   6.207   4.490
 2135W        W 3132   5.818   6.598   4.569
 2136W        W 3133   6.167   5.390   1.082
 2137W        W 3134   4.326   6.499   3.666
 2138W        W 3135   1.901   3.376   2.169
 2139W        W 3136   5.924   4.973   3.614
 2140W        W 3137   5.075   6.311   3.714
 2141W        W 3138   2.043   0.149   1.548
 2142W        W 3139   6.646   7.526   2.824
 2143W        W 3140   6.543   3.919   1.329
 2144W        W 3141   1.794   2.705   4.931
 2145W        W 3142   6.347   7.284   2.149
 2146W        W 3143   2.912   6.413   5.969
 2147W        W 3144   4.299   7.422   0.735
 2148W        W 3145   6.119   1.815   2.364
 2149W        W 3146   4.066   3.807   3.740
 2150W        W 3147   3.328   6.018   6.092
 2151W        W 3148   4.163   1.281   0.687
 2152W        W 3149   5.715   4.158   1.792
 2153W        W 3150   4.162   3.402   6.611
 2154W        W 3151   4.147   3.264   2.349
 2155W        W 3152   1.396   1.188   4.573
 2156W        W 3153   4.089   6.028   7.884
 2157W        W 3154   6.570   3.512   5.342
 2158W        W 3155   5.626   7.168   1.246
 2159W        W 3156   4.010   0.401   4.554
 2160W        W 3157   2.979   2.179   7.303
 2161W        W 3158   2.620   6.309   3.103
 2162W        W 3159   5.399   3.922   3.204
 2163W        W 3160   2.124   4.116   6.765
 2164W        W 3161   5.081   3.080   1.396
 2165W        W 3162   2.696   5.469   4.522
 2166W        W 3163   5.091   1.594   5.994
 2167W        W 3164   7.284   7.015   3.217
 2168W        W 3165   5.578   4.076   5.158
 2169W        W 3166   5.056   3.177   4.405
 2170W        W 3167   2.529   0.307   3.363
 2171W        W 3168   1.378   2.600   4.033
 2172W        W 3169   2.141   3.336   3.408
 2173W        W 3170   1.785   3.929   5.145
 2174W        W 3171   5.849   4.164   6.486
 2175W        W 3172   5.081   3.222   4.946
 2176W        W 3173   5.131   5.468   3.370
 2177W        W 3174   7.039   3.564   5.160
 2178W        W 3175   4.103   5.206   3.346
 2179W        W 3176   3.126   1.563   7.883
 2180W        W 3177   7.017   4.863   3.307
 2181W        W 3178   4.369   3.708   5.773
 2182W        W 3179   3.368   7.273   6.329
 2183W        W 3180   3.191   6.077   1.875
 2184W        W 3181   6.470   5.989   4.080
 2185W        W 3182   1.427   0.331   4.319
 2186W        W 3183   2.994   6.433   1.554
 2187W        W 3184   1.283   3.886   4.847
 2188W        W 3185   5.146   5.773   7.136
 2189W        W 3186   5.764   6.771   5.363
 2190W        W 3187   3.607   5.283   3.209
 2191W        W 3188   2.210   2.744   1.052
 2192W        W 3189   6.109   0.675   0.364
 2193W        W 3190   0.672   6.891   4.979
 2194W        W 3191   5.454   5.493   5.258
 2195W        W 3192   4.007   5.074   0.959
 2196W        W 3193   5.182   6.199   0.834
 2197W        W 3194   2.606   0.699   4.678
 2198W        W 3195   0.674   3.752   7.371
 2199W        W 3196   3.365   1.882   4.289
 2200W        W 3197   1.085   1.292   4.189
 2201W        W 3198   3.714   7.834   3.003
 2202W        W 3199   3.749   1.076   6.160
 2203W        W 3200   7.345   5.521   5.041
 2204W        W 3201   1.128   2.019   4.841
 2205W        W 3202   4.734   6.552   2.913
 2206W        W 3203   3.004   5.606   1.866
 2207W        W 3204   3.713   3.923   0.323
 2208W        W 3205   5.036   2.407   3.942
 2209W        W 3206   6.981   2.095   1.242
 2210W        W 3207   4.424   2.028   1.880
 2211W        W 3208   2.512   5.617   2.003
 2212W        W 3209   4.871   2.667   3.540
 2213W        W 3210   3.803   0.705   2.297
 2214W        W 3211   2.201   6.048   1.830
 2215W        W 3212   5.797   4.794   3.132
 2216W        W 3213   2.690   1.083   2.990
 2217W        W 3214   6.453   2.830   6.678
 2218W        W 3215   7.586   3.482   3.660
 2219W        W 3216   4.751   6.104   6.012
 2220W        W 3217   6.487   1.654   5.436
 2221W        W 3218   3.406   3.621   0.063
 2222W        W 3219   5.225   4.402   5.335
 2223W        W 3220   2.267   4.582   7.460
 2224W        W 3221   4.594   3.862   3.877
 2225W        W 3222   1.044   0.099   3.220
 2226W        W 3223   6.647   0.368   1.009
 2227W        W 3224   4.971   2.940   3.937
 2228W        W 3225   5.048   1.922   3.718
 2229W        W 3226   5.055   0.634   4.029
 2230W        W 3227   3.667   3.645   2.471
 2231W        W 3228   3.660   0.677   5.638
 2232W        W 3229   4.399   7.755   4.084
 2233W        W 3230   0.406   6.232   5.006
 2234W        W 3231   7.166   6.286   2.733
 2235W        W 3232   6.150   1.258   4.595
 2236W        W 3233   6.270   3.940   6.042
 2237W        W 3234   4.696   3.049   7.277
 2238W        W 3235   2.629   4.302   1.570
 2239W        W 3236   7.752   3.305   5.892
 2240W        W 3237   6.135   5.165   3.181
 2241W        W 3238   0.058   3.602   3.456
 2242W        W 3239   7.267   6.278   2.209
 2243W        W 3240   5.554   3.048   1.596
 2244W        W 3241   2.821   4.010   1.185
 2245W        W 3242   1.375   7.214   7.122
 2246W        W 3243   3.584   5.825   6.491
 2247W        W 3244   3.369   3.827   6.523
 2248W        W 3245   2.973   6.048   2.786
 2249W        W 3246   2.394   5.475   3.362
 2250W        W 3247   7.058   6.771   2.835
 2251W        W 3248   1.614   1.995   1.200
 2252W        W 3249   4.714   0.409   2.699
 2253W        W 3250   0.957   5.980   4.774
 2254W        W 3251   1.446   4.490   6.986
 2255W        W 3252   1.461   1.880   6.121
 2256W        W 3253   7.698   2.840   2.131
 2257W        W 3254   4.864   4.425   4.991
 2258W        W 3255   5.767   1.106   5.419
 2259W        W 3256   3.141   2.051   2.887
 2260W        W 3257   6.814   5.431   0.411
 2261W        W 3258   3.895   7.117   6.315
 2262W        W 3259   4.047   2.472   7.484
 2263W        W 3260   3.282   0.816   5.952
 2264W        W 3261   4.158   2.437   2.067
 2265W        W 3262   4.108   0.890   3.950
 2266W        W 3263   5.101   2.375   5.161
 2267W        W 3264   3.092   5.285   2.262
 2268W        W 3265   2.639   4.906   7.638
 2269W        W 3266   6.791   4.756   1.547
 2270W        W 3267   2.018   4.637   3.359
 2271W        W 3268   7.315   6.262   1.663
 2272W        W 3269   5.376   5.883   7.570
 2273W        W 3270   1.877   4.569   6.713
 2274W        W 3271   3.227   6.547   0.618
 2275W        W 3272   4.628   3.609   4.358
 2276W        W 3273   0.844   3.298   4.344
 2277W        W 3274   6.052   6.655   5.777
 2278W        W 3275   4.230   2.224   0.702
 2279W        W 3276   2.874   5.702   5.330
 2280W        W 3277   0.457   2.999   4.162
 2281W        W 3278   1.353   7.033   6.647
 2282W        W 3279   0.151   2.878   6.282
 2283W        W 3280   1.498   0.790   7.172
 2284W        W 3281   5.537   2.675   5.077
 2285W        W 3282   7.448   2.744   6.838
 2286W        W 3283   2.499   2.839   7.638
 2287W        W 3284   0.542   2.496   3.051
 2288W        W 3285   6.575   4.458   1.941
 2289W        W 3286   7.298   6.104   3.193
 2290W        W 3287   2.433   4.835   1.630
 2291W        W 3288   2.462   5.288   2.848
 2292W        W 3289   4.501   2.689   5.939
 2293W        W 3290   5.085   0.524   1.082
 2294W        W 3291   6.472   1.852   4.261
 2295W        W 3292   6.116   2.924   7.487
 2296W        W 3293   0.825   2.430   4.057
 2297W        W 3294   5.600   7.692   1.397
 2298W        W 3295   0.517   0.007   5.751
 2299W        W 3296   6.035   6.176   7.093
 2300W        W 3297   1.101   5.270   3.176
 2301W        W 3298   2.019   6.652   4.909
 2302W        W 3299   6.860   7.948   1.178
 2303W        W 3300   5.901   3.060   6.017
 2304W        W 3301   1.182   6.626   5.567
 2305W        W 3302   5.587   0.497   0.988
 2306W        W 3303   5.888   1.499   3.961
 2307W        W 3304   0.722   6.399   6.951
 2308W        W 3305   2.665   6.490   5.515
 2309W        W 3306   1.617   5.796   3.000
 2310W        W 3307   0.662   5.045   3.058
 2311W        W 3308   5.712   3.775   5.560
 2312W        W 3309   1.891   3.800   1.268
 2313W        W 3310   0.074   3.892   4.689
 2314W        W 3311   6.944   3.395   6.189
 2315W        W 3312   0.542   6.099   6.089
 2316W        W 3313   4.471   5.112   0.784
 2317W        W 3314   7.085   6.449   6.181
 2318W        W 3315   0.611   0.651   5.002
 2319W        W 3316   3.444   5.628   1.498
 2320W        W 3317   4.602   6.480   5.352
 2321W        W 3318   1.288   2.025   6.560
 2322W        W 3319   3.192   4.968   3.260
 2323W        W 3320   3.645   3.285   1.744
 2324W        W 3321   0.465   1.929   6.361
 2325W        W 3322   6.939   0.453   7.773
 2326W        W 3323   1.111   2.013   1.306
 2327W        W 3324   0.635   2.722   6.405
 2328W        W 3325   5.773   3.569   6.898
 2329W        W 3326   1.879   1.667   2.834
 2330W        W 3327   0.490   3.223   6.466
 2331W        W 3328   4.338   3.229   5.051
 2332W        W 3329   1.731   7.899   7.576
 2333W        W 3330   2.754   7.330   2.043
 2334W        W 3331   5.473   1.738   7.844
 2335W        W 3332   3.594   7.646   1.220
 2336W        W 3333   7.410   5.166   5.953
 2337W        W 3334   3.067   3.119   5.028
 2338W        W 3335   0.517   7.118   4.552
 2339W        W 3336   4.157   5.733   4.991
 2340W        W 3337   6.588   0.720   5.321
 2341W        W 3338   2.210   3.626   2.512
 2342W        W 3339   1.016   1.530   2.667
 2343W        W 3340   4.278   5.823   4.113
 2344W        W 3341   3.869   5.939   0.794
 2345W        W 3342   5.199   0.935   5.358
 2346W        W 3343   1.807   6.395   0.616
 2347W        W 3344   3.619   2.415   6.828
 2348W        W 3345   1.128   7.071   0.094
 2349W        W 3346   0.791   6.915   5.829
 2350W        W 3347   1.462   0.061   7.179
 2351W        W 3348   3.696   4.793   5.512
 2352W        W 3349   6.170   2.126   1.397
 2353W        W 3350   6.581   6.453   4.189
 2354W        W 3351   5.687   1.931   7.405
 2355W        W 3352   2.696   5.084   0.333
 2356W        W 3353   5.132   0.863   2.759
 2357W        W 3354   1.771   6.188   1.061
 2358W        W 3355   2.820   7.540   2.965
 2359W        W 3356   3.147   3.172   1.804
 2360W        W 3357   5.748   5.178   0.144
 2361W        W 3358   5.093   5.981   2.077
 2362W        W 3359   5.348   1.333   5.633
 2363W        W 3360   4.903   1.114   0.523
 2364W        W 3361   7.059   4.239   0.289
 2365W        W 3362   6.188   4.796   0.402
 2366W        W 3363   0.723   3.072   5.590
 2367W        W 3364   0.627   1.390   3.966
 2368W        W 3365   5.637   5.634   0.930
 2369W        W 3366   5.444   6.804   4.867
 2370W        W 3367   1.268   5.210   2.306
 2371W        W 3368   0.657   7.396   6.268
 2372W        W 3369   4.227   6.664   7.013
 2373W        W 3370   5.233   2.391   4.412
 2374W        W 3371   5.935   0.735   7.328
 2375W        W 3372   3.928   0.486   3.176
 2376W        W 3373   2.200   6.217   7.791
 2377W        W 3374   7.012   2.565   4.901
 2378W        W 3375   1.396   0.397   2.773
 2379W        W 3376   2.658   0.983   7.160
 2380W        W 3377   6.970   4.704   7.951
 2381W        W 3378   2.109   4.084   5.491
 2382W        W 3379   5.178   5.376   0.988
 2383W        W 3380   2.363   3.788   3.482
 2384W        W 3381   2.781   0.588   5.892
 2385W        W 3382   1.839   6.307   6.837
 2386W        W 3383   7.129   5.138   0.674
 2387W        W 3384   6.915   3.733   4.187
 2388W        W 3385   4.353   2.627   1.021
 2389W        W 3386   3.542   6.838   6.553
 2390W        W 3387   2.237   0.721   5.318
 2391W        W 3388   1.557   7.523   6.614
 2392W        W 3389   6.956   2.265   5.668
 2393W        W 3390   3.968   1.372   3.859
 2394W        W 3391   7.262   3.591   1.940
 2395W        W 3392   3.603   1.191   2.136
 2396W        W 3393   1.598   3.504   4.973
 2397W        W 3394   4.519   0.220   4.300
 2398W        W 3395   4.640   6.415   2.173
 2399W        W 3396   4.059   1.719   4.675
 2400W        W 3397   4.645   1.507   4.428
 2401W        W 3398   3.966   6.711   5.045
 2402W        W 3399   6.196   2.269   6.075
 2403W        W 3400   5.540   2.425   3.999
 2404W        W 3401   5.654   4.126   6.952
 2405W        W 3402   1.722   2.878   1.045
 2406W        W 3403   3.086   2.540   3.057
 2407W        W 3404   0.913   4.728   5.508
 2408W        W 3405   5.381   7.090   3.171
 2409W        W 3406   5.974   6.290   5.427
 2410W        W 3407   6.100   5.870   0.977
 2411W        W 3408   4.078   3.945   1.656
 2412W        W 3409   3.864   2.479   0.940
 2413W        W 3410   0.694   1.762   4.867
 2414W        W 3411   5.548   7.259   5.313
 2415W        W 3412   4.308   7.094   1.135
 2416W        W 3413   7.230   1.155   2.332
 2417W        W 3414   0.672   7.019   7.844
 2418W        W 3415   7.260   1.294   5.310
 2419W        W 3416   1.611   4.864   2.556
 2420W        W 3417   5.665   2.735   2.949
 2421W        W 3418   4.982   3.945   4.201
 2422W        W 3419   0.106   6.651   3.750
 2423W        W 3420   0.245   5.176   6.977
 2424W        W 3421   5.301   1.894   5.133
 2425W        W 3422   2.788   2.190   1.377
 2426W        W 3423   2.151   6.339   1.376
 2427W        W 3424   0.512   6.462   6.453
 2428W        W 3425   4.238   2.522   7.970
 2429W        W 3426   3.652   3.367   3.244
 2430W        W 3427   2.722   5.462   6.413
 2431W        W 3428   1.903   3.628   6.695
 2432W        W 3429   1.758   4.196   1.576
 2433W        W 3430   6.151   4.563   3.389
 2434W        W 3431   2.826   3.550   5.261
 2435W        W 3432   0.278   5.763   5.286
 2436W        W 3433   2.887   2.358   0.852
 2437W        W 3434   7.864   7.344   3.077
 2438W        W 3435   1.436   7.236   7.707
 2439W        W 3436   2.598   2.753   0.699
 2440W        W 3437   2.354   7.570   3.725
 2441W        W 3438   0.655   1.586   3.044
 2442W        W 3439   5.100   5.979   3.327
 2443W        W 3440   3.406   6.211   6.818
 2444W        W 3441   4.965   7.815   3.479
 2445W        W 3442   2.917   4.469   1.959
 2446W        W 3443   6.399   4.992   6.544
 2447W        W 3444   4.269   6.284   5.755
 2448W        W 3445   2.872   4.176   3.690
 2449W        W 3446   1.095   0.473   6.422
 2450W        W 3447   3.383   1.097   1.022
 2451W        W 3448   1.914   1.849   1.793
 2452W        W 3449   7.335   5.165   5.448
 2453W        W 3450   3.803   1.606   1.889
 2454W        W 3451   2.591   5.773   2.999
 2455W        W 3452   3.421   6.092   0.617
 2456W        W 3453   1.805   2.935   0.535
 2457W        W 3454   4.007   6.110   6.468
 2458W        W 3455   5.450   5.811   1.708
 2459W        W 3456   4.543   5.011   2.675
 2460W        W 3457   4.085   3.740   4.266
 2461W        W 3458   2.362   1.977   5.181
 2462W        W 3459   4.151   4.319   2.514
 2463W        W 3460   1.033   4.221   7.124
 2464W        W 3461   2.624   5.499   1.513
 2465W        W 3462   3.924   7.040   6.838
 2466W        W 3463   4.337   1.787   6.422
 2467W        W 3464   2.898   0.626   7.473
 2468W        W 3465   5.595   0.748   7.733
 2469W        W 3466   7.805   4.576   7.031
 2470W        W 3467   3.538   5.035   7.721
 2471W        W 3468   2.809   5.948   2.265
 2472W        W 3469   1.170   2.030   1.930
 2473W        W 3470   2.339   3.731   5.772
 2474W        W 3471   3.436   3.784   3.467
 2475W        W 3472   4.021   2.807   3.727
 2476W        W 3473   7.941   6.227   5.184
 2477W        W 3474   6.046   1.916   5.370
 2478W        W 3475   7.120   5.699   3.445
 2479W        W 3476   1.949   4.244   6.314
 2480W        W 3477   1.671   2.613   4.448
 2481W        W 3478   6.863   2.063   6.582
 2482W        W 3479   3.551   5.471   2.609
 2483W        W 3480   5.168   1.411   7.461
 2484W        W 3481   7.312   2.760   2.971
 2485W        W 3482   2.957   3.882   5.605
 2486W        W 3483   6.832   2.454   2.291
 2487W        W 3484   2.627   6.203   1.262
 2488W        W 3485   5.533   1.942   3.860
 2489W        W 3486   6.615   1.438   7.721
 2490W        W 3487   3.112   3.162   2.325
 2491W        W 3488   3.072   2.825   0.818
 2492W        W 3489   4.695   1.610   3.533
 2493W        W 3490   4.841   7.511   3.945
 2494W        W 3491   1.003   6.853   7.059
 2495W        W 3492   5.418   5.991   1.236
 2496W        W 3493   6.690   4.866   4.918
 2497W        W 3494   5.137   7.208   3.609
 2498W        W 3495   7.360   3.965   5.306
 2499W        W 3496   4.138   4.713   3.461
 2500W        W 3497   7.117   5.711   7.474
 2501W        W 3498   7.415   4.493   5.244
 2502W        W 3499   6.367   5.569   0.630
 2503W        W 3500   4.669   6.195   0.842
 2504W        W 3501   4.862   0.612   4.535
 2505W        W 3502   7.787   2.030   1.559
 2506W        W 3503   1.037   5.881   6.037
 2507W        W 3504   3.662   5.828   7.016
 2508W        W 3505   4.388   1.801   0.498
 2509W        W 3506   6.106   6.778   0.300
 2510W        W 3507   2.465   1.917   1.723
 2511W        W 3508   0.787   4.867   6.214
 2512W        W 3509   6.214   2.768   5.728
 2513W        W 3510   0.525   3.420   6.989
 2514W        W 3511   1.549   5.045   4.112
 2515W        W 3512   4.333   4.898   4.791
 2516W        W 3513   5.343   2.743   6.112
 2517W        W 3514   1.513   2.191   2.309
 2518W        W 3515   4.938   2.464   6.028
 2519W        W 3516   2.871   6.911   1.306
 2520W        W 3517   0.224   4.242   6.775
 2521W        W 3518   2.590   1.366   6.780
 2522W        W 3519   1.404   0.500   5.183
 2523W        W 3520   3.779   2.550   4.657
 2524W        W 3521   1.558   5.392   3.286
 2525W        W 3522   6.300   4.783   1.671
 2526W        W 3523   2.036   6.876   6.033
 2527W        W 3524   3.553   6.392   3.975
 2528W        W 3525   5.019   2.066   4.728
 2529W        W 3526   6.977   4.482   6.966
 2530W        W 3527   2.820   4.774   0.748
 2531W        W 3528   7.393   5.323   7.239
 2532W        W 3529   5.533   3.413   7.386
 2533W        W 3530   4.754   4.396   2.013
 2534W        W 3531   5.958   0.972   2.533
 2535W        W 3532   7.104   6.536   5.182
 2536W        W 3533   4.500   4.504   2.822
 2537W        W 3534   3.617   6.654   7.038
 2538W        W 3535   7.678   3.077   4.580
 2539W        W 3536   1.830   7.169   6.863
 2540W        W 3537   3.461   2.439   7.518
 2541W        W 3538   2.875   5.575   2.621
 2542W        W 3539   6.062   6.902   1.915
 2543W        W 3540   4.911   1.129   3.686
 2544W        W 3541   3.405   7.064   2.833
 2545W        W 3542   2.325   4.111   1.141
 2546W        W 3543   1.073   6.706   7.760
 2547W        W 3544   1.242   3.145   6.938
 2548W        W 3545   0.716   2.222   4.599
 2549W        W 3546   6.354   3.038   1.761
 2550W        W 3547   5.238   0.767   6.366
 2551W        W 3548   4.761   2.789   5.138
 2552W        W 3549   5.954   5.491   3.520
 2553W        W 3550   3.196   6.877   7.254
 2554W        W 3551   3.604   7.197   4.410
 2555W        W 3552   2.960   2.670   0.318
 2556W        W 3553   1.903   3.932   5.937
 2557W        W 3554   1.294   2.494   5.280
 2558W        W 3555   7.108   7.703   2.083
 2559W        W 3556   4.498   3.027   3.703
 2560W        W 3557   6.255   3.042   0.004
 2561W        W 3558   0.278   2.322   0.943
 2562W        W 3559   1.215   5.718   2.705
 2563W        W 3560   7.649   4.328   2.996
 2564W        W 3561   3.819   4.025   2.752
 2565W        W 3562   3.712   2.429   1.419
 2566W        W 3563   5.921   2.789   1.879
 2567W        W 3564   7.077   5.099   7.604
 2568W        W 3565   7.250   2.577   2.033
 2569W        W 3566   3.905   3.446   0.209
 2570W        W 3567   0.810   4.531   1.728
 2571W        W 3568   5.094   5.318   4.094
 2572W        W 3569   0.472   4.125   5.937
 2573W        W 3570   5.480   5.061   2.232
 2574W        W 3571   1.494   1.315   2.798
 2575W        W 3572   0.925   4.752   0.865
 2576W        W 3573   3.368   2.224   4.732
 2577W        W 3574   4.213   6.173   5.252
 2578W        W 3575   6.797   5.266   4.126
 2579W        W 3576   5.093   5.150   5.753
 2580W        W 3577   4.545   1.827   7.992
 2581W        W 3578   3.508   1.601   3.874
 2582W        W 3579   7.411   1.645   2.318
 2583W        W 3580   2.352   5.749   4.851
 2584W        W 3581   4.866   1.487   7.063
 2585W        W 3582   1.435   6.609   3.760
 2586W        W 3583   4.755   7.367   4.872
 2587W        W 3584   1.504   1.051   3.979
 2588W        W 3585   5.472   3.037   4.687
 2589W        W 3586   2.853   6.433   2.062
 2590W        W 3587   1.384   2.183   2.803
 2591W        W 3588   4.870   4.040   3.208
 2592W        W 3589   1.198   5.707   5.165
 2593W        W 3590   2.350   0.591   2.554
 2594W        W 3591   3.867   4.128   2.133
 2595W        W 3592   4.163   3.302   5.554
 2596W        W 3593   6.290   6.745   2.892
 2597W        W 3594   6.713   7.372   3.779
 2598W        W 3595   1.041   6.606   6.612
 2599W        W 3596   7.701   2.995   6.465
 2600W        W 3597   5.509   6.274   3.395
 2601W        W 3598   4.528   5.107   7.455
 2602W        W 3599   6.525   6.022   0.748
 2603W        W 3600   4.820   5.617   5.884
 2604W        W 3601   2.083   1.087   3.430
 2605W        W 3602   6.503   2.340   6.904
 2606W        W 3603   0.099   7.043   3.436
 2607W        W 3604   2.317   2.675   2.130
 2608W        W 3605   6.124   4.055   3.495
 2609W        W 3606   7.453   2.136   5.485
 2610W        W 3607   5.174   2.048   2.469
 2611W        W 3608   7.734   5.085   6.918
 2612W        W 3609   7.017   3.051   7.016
 2613W        W 3610   6.965   4.147   4.500
 2614W        W 3611   5.982   7.464   3.391
 2615W        W 3612   3.056   4.448   1.103
 2616W        W 3613   1.527   4.927   6.724
 2617W        W 3614   1.088   3.722   6.211
 2618W        W 3615   6.803   2.809   1.921
 2619W        W 3616   2.814   0.323   1.249
 2620W        W 3617   2.879   6.902   3.349
 2621W        W 3618   4.265   4.643   6.783
 2622W        W 3619   6.064   4.344   5.816
 2623W        W 3620   6.483   1.464   0.329
 2624W        W 3621   5.499   3.444   4.400
 2625W        W 3622   1.081   0.562   4.796
 2626W        W 3623   4.172   7.054   1.623
 2627W        W 3624   3.557   6.661   7.579
 2628W        W 3625   4.566   4.063   5.125
 2629W        W 3626   2.337   1.808   6.765
 2630W        W 3627   1.865   6.446   0.112
 2631W        W 3628   6.120   4.581   6.394
 2632W        W 3629   2.116   6.082   0.394
 2633W        W 3630   3.948   3.791   6.379
 2634W        W 3631   6.580   5.856   0.244
 2635W        W 3632   5.190   6.306   2.970
 2636W        W 3633   7.853   5.474   6.099
 2637W        W 3634   5.913   2.881   5.353
 2638W        W 3635   4.770   1.840   2.690
 2639W        W 3636   1.532   1.826   3.592
 2640W        W 3637   6.402   7.103   1.598
 2641W        W 3638   6.485   0.565   7.512
 2642W        W 3639   4.961   4.580   1.540
 2643W        W 3640   2.489   7.789   3.262
 2644W        W 3641   4.132   7.770   2.695
 2645W        W 3642   2.736   1.697   2.191
 2646W        W 3643   3.015   0.462   2.202
 2647W        W 3644   3.054   5.736   0.663
 2648W        W 3645   6.765   4.900   0.388
 2649W        W 3646   1.463   7.697   7.962
 2650W        W 3647   1.233   7.149   3.245
 2651W        W 3648   1.017   6.592   0.710
 2652W        W 3649   0.849   6.247   5.717
 2653W        W 3650   3.215   5.527   6.259
 2654W        W 3651   2.015   2.342   5.208
 2655W        W 3652   2.801   1.036   6.183
 2656W        W 3653   1.442   2.463   1.200
 2657W        W 3654   7.441   2.369   1.339
 2658W        W 3655   4.675   2.435   4.786
 2659W        W 3656   3.149   0.520   5.541
 2660W        W 3657   6.852   2.831   6.254
 2661W        W 3658   5.268   7.082   6.247
 2662W        W 3659   6.616   4.655   5.690
 2663W        W 3660   7.487   7.117   5.707
 2664W        W 3661   5.131   6.655   3.338
 2665W        W 3662   2.633   3.316   4.506
 2666W        W 3663   3.291   7.219   1.184
 2667W        W 3664   5.576   6.446   5.729
 2668W        W 3665   1.435   6.286   6.508
 2669W        W 3666   2.786   1.426   1.785
 2670W        W 3667   1.720   6.053   2.033
 2671W        W 3668   4.647   6.587   5.867
 2672W        W 3669   7.918   3.800   1.359
 2673W        W 3670   5.549   4.586   2.010
 2674W        W 3671   3.679   4.965   6.879
 2675W        W 3672   7.766   6.333   3.982
 2676W        W 3673   1.566   2.240   1.661
 2677W        W 3674   1.600   3.852   6.334
 2678W        W 3675   3.848   1.260   1.086
 2679W        W 3676   5.950   1.455   2.684
 2680W        W 3677   4.418   6.271   6.734
 2681W        W 3678   4.551   3.527   3.057
 2682W        W 3679   1.064   3.462   5.654
 2683W        W 3680   6.913   1.645   7.336
 2684W        W 3681   3.313   1.012   6.408
 2685W        W 3682   2.909   3.346   4.067
 2686W        W 3683   3.544   4.060   7.848
 2687W        W 3684   4.829   1.535   1.230
 2688W        W 3685   6.133   2.416   5.397
 2689W        W 3686   3.923   6.589   5.996
 2690W        W 3687   5.033   7.559   6.223
 2691W        W 3688   2.612   1.406   0.846
 2692W        W 3689   5.006   0.494   3.101
 2693W        W 3690   0.727   5.490   5.219
 2694W        W 3691   3.900   5.206   0.452
 2695W        W 3692   4.078   6.337   4.675
 2696W        W 3693   3.426   6.448   5.854
 2697W        W 3694   7.661   6.051   5.564
 2698W        W 3695   2.435   6.876   4.596
 2699W        W 3696   6.021   1.445   3.199
 2700W        W 3697   1.438   6.370   1.740
 2701W        W 3698   4.663   4.326   7.054
 2702W        W 3699   5.011   4.048   7.366
 2703W        W 3700   3.245   7.820   1.572
 2704W        W 3701   5.224   0.308   0.613
 2705W        W 3702   4.308   5.989   0.516
 2706W        W 3703   7.775   6.309   0.668
 2707W        W 3704   6.310   1.180   6.704
 2708W        W 3705   0.400   0.310   5.329
 2709W        W 3706   0.960   7.964   7.287
 2710W        W 3707   6.078   0.944   5.843
 2711W        W 3708   3.987   7.100   5.790
 2712W        W 3709   4.694   5.396   1.135
 2713W        W 3710   3.557   4.218   1.030
 2714W        W 3711   3.915   3.609   2.021
 2715W        W 3712   5.022   1.517   7.924
 2716W        W 3713   1.552   3.739   0.892
 2717W        W 3714   5.465   0.977   1.118
 2718W        W 3715   5.379   2.833   4.231
 2719W        W 3716   3.752   2.013   7.578
 2720W        W 3717   4.612   1.033   4.701
 2721W        W 3718   5.720   1.864   6.741
 2722W        W 3719   2.232   7.196   1.157
 2723W        W 3720   6.845   4.843   4.432
 2724W        W 3721   5.686   2.178   1.172
 2725W        W 3722   7.162   5.805   1.449
 2726W        W 3723   5.773   0.453   3.387
 2727W        W 3724   3.824   6.154   0.324
 2728W        W 3725   5.395   1.719   4.667
 2729W        W 3726   4.921   5.078   1.562
 2730W        W 3727   4.250   7.430   4.809
 2731W        W 3728   3.990   7.945   4.328
 2732W        W 3729   6.130   4.788   7.282
 2733W        W 3730   7.595   6.696   0.939
 2734W        W 3731   0.989   0.741   5.314
 2735W        W 3732   1.240   3.188   3.643
 2736W        W 3733   6.550   3.078   5.942
 2737W        W 3734   7.261   1.709   3.854
 2738W        W 3735   0.513   0.839   5.473
 2739W        W 3736   1.150   3.608   0.573
 2740W        W 3737   3.605   2.046   2.599
 2741W        W 3738   0.291   1.470   1.458
 2742W        W 3739   4.487   5.768   0.078
 2743W        W 3740   4.547   3.561   2.563
 2744W        W 3741   0.920   6.117   0.932
 2745W        W 3742   5.080   3.151   3.489
 2746W        W 3743   6.897   6.540   3.807
 2747W        W 3744   3.812   5.569   3.599
 2748W        W 3745   2.218   2.915   4.772
 2749W        W 3746   2.502   7.256   3.288
 2750W        W 3747   5.666   1.110   3.742
 2751W        W 3748   2.255   1.980   2.821
 2752W        W 3749   2.152   6.463   5.374
 2753W        W 3750   2.658   7.187   5.111
 2754W        W 3751   0.578   3.033   2.128
 2755W        W 3752   6.168   0.544   4.171
 2756W        W 3753   2.107   7.108   3.683
 2757W        W 3754   4.096   2.496   6.160
 2758W        W 3755   6.126   6.899   2.425
 2759W        W 3756   4.336   3.437   3.946
 2760W        W 3757   6.730   3.297   4.391
 2761W        W 3758   6.282   5.220   7.001
 2762W        W 3759   7.889   3.901   3.072
 2763W        W 3760   6.019   1.193   7.132
 2764W        W 3761   2.384   0.447   3.860
 2765W        W 3762   3.878   6.444   1.893
 2766W        W 3763   7.068   2.103   2.595
 2767W        W 3764   3.281   7.753   3.786
 2768W        W 3765   0.593   2.746   3.718
 2769W        W 3766   5.393   3.215   3.922
 2770W        W 3767   3.453   4.588   4.031
 2771W        W 3768   5.281   4.950   7.181
 2772W        W 3769   3.456   2.227   3.237
 2773W        W 3770   5.917   0.485   1.868
 2774W        W 3771   2.535   2.487   4.463
 2775W        W 3772   4.354   5.543   3.702
 2776W        W 3773   7.314   4.096   5.835
 2777W        W 3774   6.489   6.574   1.626
 2778W        W 3775   3.996   4.151   4.561
 2779W        W 3776   4.027   6.801   0.834
 2780W        W 3777   6.411   6.176   3.236
 2781W        W 3778   4.275   3.022   7.851
 2782W        W 3779   5.920   2.900   4.846
 2783W        W 3780   2.517   6.059   5.758
 2784W        W 3781   6.957   1.302   5.937
 2785W        W 3782   2.985   2.286   4.397
 2786W        W 3783   0.063   6.316   6.157
 2787W        W 3784   4.674   1.607   7.555
 2788W        W 3785   5.562   1.767   0.800
 2789W        W 3786   7.079   4.372   6.474
 2790W        W 3787   0.063   2.452   1.412
 2791W        W 3788   0.775   3.665   1.686
 2792W        W 3789   5.850   2.431   7.384
 2793W        W 3790   7.426   3.364   4.916
 2794W        W 3791   5.895   1.181   7.655
 2795W        W 3792   6.514   6.659   3.350
 2796W        W 3793   4.127   1.691   6.893
 2797W        W 3794   3.932   1.247   4.772
 2798W        W 3795   6.939   1.608   2.482
 2799W        W 3796   7.318   6.555   4.133
 2800W        W 3797   2.175   4.913   1.193
 2801W        W 3798   1.967   3.217   5.158
 2802W        W 3799   3.627   2.907   4.331
 2803W        W 3800   4.012   6.625   6.529
 2804W        W 3801   0.648   1.415   6.515
 2805W        W 3802   4.114   2.210   6.619
 2806W        W 3803   1.491   6.706   0.923
 2807W        W 3804   5.346   0.131   3.255
 2808W        W 3805   3.140   3.172   4.481
 2809W        W 3806   2.520   0.826   3.393
 2810W        W 3807   2.303   7.297   5.948
 2811W        W 3808   6.302   2.028   6.571
 2812W        W 3809   5.152   2.966   0.227
 2813W        W 3810   0.065   2.819   1.774
 2814W        W 3811   6.653   3.156   2.271
 2815W        W 3812   4.197   1.676   4.195
 2816W        W 3813   1.579   1.290   3.301
 2817W        W 3814   2.677   1.915   4.182
 2818W        W 3815   5.552   0.916   5.849
 2819W        W 3816   4.857   3.875   6.906
 2820W        W 3817   4.780   5.563   1.930
 2821W        W 3818   1.819   2.078   6.514
 2822W        W 3819   5.312   6.565   5.301
 2823W        W 3820   0.595   4.937   7.897
 2824W        W 3821   4.347   2.664   4.445
 2825W        W 3822   3.163   0.875   2.897
 2826W        W 3823   6.694   4.258   2.751
 2827W        W 3824   6.790   1.519   5.062
 2828W        W 3825   7.997   4.172   2.061
 2829W        W 3826   5.802   3.980   4.180
 2830W        W 3827   4.699   4.921   4.121
 2831W        W 3828   6.251   7.874   3.664
 2832W        W 3829   5.328   5.566   5.941
 2833W        W 3830   1.614   0.420   7.530
 2834W        W 3831   3.487   1.111   4.596
 2835W        W 3832   0.780   5.201   7.013
 2836W        W 3833   0.323   4.043   3.265
 2837W        W 3834   7.660   5.941   3.539
 2838W        W 3835   0.429   6.069   1.638
 2839W        W 3836   4.683   1.307   6.222
 2840W        W 3837   1.676   7.828   6.214
 2841W        W 3838   3.112   5.666   5.787
 2842W        W 3839   2.079   2.374   4.663
 2843W        W 3840   3.791   4.650   7.269
 2844W        W 3841   3.330   0.737   3.760
 2845W        W 3842   3.968   1.495   2.936
 2846W        W 3843   6.120   6.375   0.822
 2847W        W 3844   1.669   3.040   2.836
 2848W        W 3845   0.198   3.831   7.095
 2849W        W 3846   3.851   1.083   7.586
 2850W        W 3847   1.679   4.363   0.609
 2851W        W 3848   4.521   6.238   1.345
 2852W        W 3849   6.762   4.797   3.905
 2853W        W 3850   6.931   1.719   0.157
 2854W        W 3851   3.273   1.705   6.833
 2855W        W 3852   7.150   6.012   4.610
 2856W        W 3853   7.483   6.571   3.046
 2857W        W 3854   6.719   5.352   6.765
 2858W        W 3855   1.921   4.362   7.156
 2859W        W 3856   6.973   4.789   5.333
 2860W        W 3857   5.821   5.081   5.267
 2861W        W 3858   0.238   4.795   2.932
 2862W        W 3859   0.090   2.291   5.222
 2863W        W 3860   3.491   1.484   6.393
 2864W        W 3861   4.935   6.819   5.523
 2865W        W 3862   1.990   3.366   1.020
 2866W        W 3863   0.721   0.317   6.116
 2867W        W 3864   4.433   5.395   6.794
 2868W        W 3865   0.758   0.782   7.335
 2869W        W 3866   1.837   3.642   4.202
 2870W        W 3867   3.141   6.645   6.801
 2871W        W 3868   2.109   6.517   4.432
 2872W        W 3869   1.821   0.405   3.061
 2873W        W 3870   2.461   6.681   1.163
 2874W        W 3871   5.949   0.840   1.058
 2875W        W 3872   4.955   2.050   5.735
 2876W        W 3873   0.646   4.144   2.886
 2877W        W 3874   3.555   5.363   0.118
 2878W        W 3875   5.835   5.486   6.052
 2879W        W 3876   7.024   5.691   0.002
 2880W        W 3877   4.274   3.004   6.314
 2881W        W 3878   1.642   6.506   2.760
 2882W        W 3879   7.224   4.805   6.245
 2883W        W 3880   5.926   3.340   1.788
 2884W        W 3881   5.554   0.928   4.959
 2885W        W 3882   6.660   5.660   6.189
 2886W        W 3883   3.226   2.799   5.843
 2887W        W 3884   6.934   1.057   3.302
 2888W        W 3885   4.278   2.752   4.929
 2889W        W 3886   3.173   3.339   3.580
 2890W        W 3887   1.381   0.457   3.305
 2891W        W 3888   0.438   1.354   0.976
 2892W        W 3889   0.703   5.548   3.316
 2893W        W 3890   1.442   7.059   5.386
 2894W        W 3891   7.036   4.507   4.878
 2895W        W 3892   4.587   1.744   5.971
 2896W        W 3893   7.740   6.620   6.408
 2897W        W 3894   0.892   6.371   3.765
 2898W        W 3895   6.652   6.156   6.242
 2899W        W 3896   3.912   1.617   0.407
 2900W        W 3897   6.163   1.216   3.622
 2901W        W 3898   3.676   2.273   6.351
 2902W        W 3899   7.045   5.529   5.881
 2903W        W 3900   3.221   0.817   4.269
 2904W        W 3901   0.752   1.163   5.126
 2905W        W 3902   7.385   2.505   2.524
 2906W        W 3903   3.408   1.468   0.317
 2907W        W 3904   1.174   6.744   5.046
 2908W        W 3905   1.816   7.319   4.093
 2909W        W 3906   0.438   3.556   4.561
 2910W        W 3907   4.537   5.876   6.434
 2911W        W 3908   2.945   0.926   1.913
 2912W        W 3909   7.379   7.512   3.153
 2913W        W 3910   4.767   1.546   1.763
 2914W        W 3911   5.984   5.831   6.703
 2915W        W 3912   3.394   4.656   1.443
 2916W        W 3913   4.967   2.018   6.259
 2917W        W 3914   6.379   3.756   7.284
 2918W        W 3915   5.367   7.241   6.722
 2919W        W 3916   6.366   6.570   6.195
 2920W        W 3917   6.224   3.657   0.637
 2921W        W 3918   2.663   2.249   3.021
 2922W        W 3919   4.294   4.890   0.372
 2923W        W 3920   4.373   3.134   1.108
 2924W        W 3921   4.417   3.883   3.398
 2925W        W 3922   5.686   4.580   5.204
 2926W        W 3923   3.179   6.836   7.875
 2927W        W 3924   1.629   6.978   4.906
 2928W        W 3925   3.195   2.512   1.263
 2929W        W 3926   5.575   6.179   2.049
 2930W        W 3927   3.564   3.918   1.800
 2931W        W 3928   5.370   1.131   0.328
 2932W        W 3929   4.711   3.572   4.970
 2933W        W 3930   4.173   6.713   5.512
 2934W        W 3931   2.598   5.232   2.357
 2935W        W 3932   4.763   2.487   5.547
 2936W        W 3933   5.874   6.833   0.863
 2937W        W 3934   2.617   3.103   0.294
 2938W        W 3935   1.809   2.587   6.719
 2939W        W 3936   1.686   2.824   5.395
 2940W        W 3937   7.094   7.492   4.115
 2941W        W 3938   1.513   4.071   7.322
 2942W        W 3939   7.511   2.964   3.747
 2943W        W 3940   1.085   4.647   4.982
 2944W        W 3941   0.930   4.556   3.632
 2945W        W 3942   7.397   2.118   6.421
 2946W        W 3943   5.495   5.284   3.670
 2947W        W 3944   3.441   1.550   1.285
 2948W        W 3945   3.237   1.902   0.585
 2949W        W 3946   4.830   4.593   6.660
 2950W        W 3947   6.028   3.704   6.452
 2951W        W 3948   6.697   2.693   7.202
 2952W        W 3949   2.886   2.765   1.667
 2953W        W 3950   5.157   3.137   2.390
 2954W        W 3951   1.403   2.670   7.015
 2955W        W 3952   2.554   0.465   0.779
 2956W        W 3953   5.165   6.803   2.804
 2957W        W 3954   5.363   5.405   7.412
 2958W        W 3955   5.899   2.719   3.403
 2959W        W 3956   1.279   7.095   5.877
 2960W        W 3957   6.126   7.021   6.160
 2961W        W 3958   4.769   7.382   5.400
 2962W        W 3959   3.796   7.388   2.751
 2963W        W 3960   2.016   6.014   5.973
 2964W        W 3961   5.899   7.315   1.654
 2965W        W 3962   4.396   3.420   7.463
 2966W        W 3963   6.235   3.606   3.023
 2967W        W 3964   4.095   3.028   4.170
 2968W        W 3965   3.656   7.102   7.290
 2969W        W 3966   3.091   4.232   6.401
 2970W        W 3967   4.400   4.357   4.751
 2971W        W 3968   7.158   5.167   0.120
 2972W        W 3969   2.188   1.123   6.324
 2973W        W 3970   6.149   4.696   5.427
 2974W        W 3971   2.858   4.403   7.125
 2975W        W 3972   6.029   2.598   7.844
 2976W        W 3973   5.149   6.630   5.990
 2977W        W 3974   2.132   3.375   7.094
 2978W        W 3975   2.365   6.338   6.841
 2979W        W 3976   3.675   6.182   2.262
 2980W        W 3977   4.893   6.115   7.406
 2981W        W 3978   2.466   3.240   5.502
 2982W        W 3979   6.879   0.695   3.669
 2983W        W 3980   6.492   1.960   1.039
 2984W        W 3981   1.920   6.629   3.509
 2985W        W 3982   2.791   5.291   0.811
 2986W        W 3983   6.398   0.829   7.058
 2987W        W 3984   3.815   1.987   4.009
 2988W        W 3985   4.862   6.406   6.402
 2989W        W 3986   1.930   4.000   2.728
 2990W        W 3987   2.643   0.195   2.442
 2991W        W 3988   0.307   4.687   7.069
 2992W        W 3989   4.542   7.350   6.098
 2993W        W 3990   6.034   5.228   4.511
 2994W        W 3991   0.981   2.473   1.026
 2995W        W 3992   3.471   2.859   1.522
 2996W        W 3993   1.946   6.920   5.371
 2997W        W 3994   2.095   4.491   4.017
 2998W        W 3995   2.223   2.681   0.375
 2999W        W 3996   2.477   2.468   4.975
 3000W        W 3997   0.548   2.884   2.690
 3001W        W 3998   2.436   2.929   3.469
 3002W        W 3999   4.594   3.447   6.976
 3003W        W 4000   7.355   6.757   1.933
 3004W        W 4001   0.617   3.620   3.373
 3005W        W 4002   4.354   5.778   2.788
 3006W        W 4003   0.039   4.498   3.306
 3007W        W 4004   2.451   0.966   3.867
 3008W        W 4005   0.958   5.106   7.566
 3009W        W 4006   6.337   2.529   1.675
 3010W        W 4007   0.359   2.524   4.354
 3011W        W 4008   4.595   5.159   5.781
 3012W        W 4009   0.290   6.657   4.733
 3013W        W 4010   7.638   5.945   6.060
 3014W        W 4011   7.417   3.747   4.084
 3015W        W 4012   2.331   6.962   1.996
 3016W        W 4013   1.718   6.271   5.656
 3017W        W 4014   6.082   4.940   0.875
 3018W        W 4015   5.118   1.934   4.230
 3019W        W 4016   0.935   7.070   5.378
 3020W        W 4017   7.150   3.395   2.413
 3021W        W 4018   1.789   6.423   6.161
 3022W        W 4019   3.642   3.736   3.995
 3023W        W 4020   4.101   5.290   7.962
 3024W        W 4021   3.968   1.981   2.182
 3025W        W 4022   2.421   1.088   1.788
 3026W        W 4023   2.539   1.132   5.387
 3027W        W 4024   2.002   5.059   6.542
 3028W        W 4025   2.294   1.579   4.873
 3029W        W 4026   7.127   5.961   6.122
 3030W        W 4027   7.008   5.741   6.561
 3031W        W 4028   5.244   1.822   7.189
 3032W        W 4029   4.807   6.802   2.438
 3033W        W 4030   3.293   5.855   4.614
 3034W        W 4031   5.135   2.032   6.743
 3035W        W 4032   5.415   5.305   0.522
 3036W        W 4033   6.276   6.609   6.966
 3037W        W 4034   6.626   6.965   2.548
 3038W        W 4035   0.253   3.789   1.765
 3039W        W 4036   6.909   1.480   4.147
 3040W        W 4037   6.963   3.833   2.638
 3041W        W 4038   7.441   3.829   2.339
 3042W        W 4039   4.588   0.937   6.951
 3043W        W 4040   0.929   1.600   5.341
 3044W        W 4041   6.368   4.484   7.624
 3045W        W 4042   6.446   0.891   3.900
 3046W        W 4043   3.600   7.558   3.435
 3047W        W 4044   2.348   3.260   6.005
 3048W        W 4045   1.775   3.888   4.643
 3049W        W 4046   1.551   6.703   4.421
 3050W        W 4047   5.784   1.348   6.644
 3051W        W 4048   0.937   1.806   6.204
 3052W        W 4049   1.290   6.189   2.962
 3053W        W 4050   2.594   6.326   7.462
 3054W        W 4051   6.970   0.306   2.774
 3055W        W 4052   0.989   4.436   6.410
 3056W        W 4053   2.147   4.473   1.432
 3057W        W 4054   5.267   6.344   4.725
 3058W        W 4055   1.046   2.012   2.431
 3059W        W 4056   5.858   0.902   1.557
 3060W        W 4057   2.289   0.219   2.913
 3061W        W 4058   6.611   2.007   6.131
 3062W        W 4059   2.134   6.843   1.521
 3063W        W 4060   1.076   6.537   2.071
 3064W        W 4061   3.402   7.384   0.710
 3065W        W 4062   6.116   4.343   4.412
 3066W        W 4063   3.093   5.238   1.519
 3067W        W 4064   5.075   0.980   4.851
 3068W        W 4065   3.444   3.289   2.749
 3069W        W 4066   3.030   0.427   3.238
 3070W        W 4067   7.693   3.843   6.153
 3071W        W 4068   0.722   6.888   1.493
 3072W        W 4069   5.283   2.868   6.599
 3073W        W 4070   7.767   3.551   2.665
 3074W        W 4071   6.351   4.771   4.545
 3075W        W 4072   6.722   2.033   3.384
 3076W        W 4073   4.946   3.793   6.410
 3077W        W 4074   4.437   2.177   2.855
 3078W        W 4075   7.494   1.303   1.911
 3079W        W 4076   1.880   5.836   4.640
 3080W        W 4077   3.651   3.183   2.267
 3081W        W 4078   1.892   3.467   0.529
 3082W        W 4079   6.530   1.600   6.485
 3083W        W 4080   3.247   2.323   6.022
 3084W        W 4081   1.732   0.746   4.297
 3085W        W 4082   5.393   3.727   4.009
 3086W        W 4083   6.762   2.188   0.280
 3087W        W 4084   4.686   3.474   3.549
 3088W        W 4085   6.593   4.426   0.266
 3089W        W 4086   6.167   5.932   6.245
 3090W        W 4087   3.429   4.021   5.548
 3091W        W 4088   1.317   6.316   5.967
 3092W        W 4089   4.360   3.118   2.794
 3093W        W 4090   7.555   4.197   1.272
 3094W        W 4091   0.655   3.143   4.795
 3095W        W 4092   4.821   2.914   2.745
 3096W        W 4093   4.121   4.995   4.328
 3097W        W 4094   2.573   4.068   5.310
 3098W        W 4095   4.666   5.099   2.149
 3099W        W 4096   5.356   4.538   3.024
 3100W        W 4097   5.302   7.306   2.687
 3101W        W 4098   5.496   5.427   2.635
 3102W        W 4099   3.407   3.271   4.025
 3103W        W 4100   5.448   1.570   4.183
 3104W        W 4101   0.279   1.784   1.879
 3105W        W 4102   3.144   4.954   1.098
 3106W        W 4103   1.557   0.038   1.515
 3107W        W 4104   5.218   2.623   0.763
 3108W        W 4105   4.724   0.800   6.317
 3109W        W 4106   5.875   2.276   1.760
 3110W        W 4107   5.868   0.964   2.055
 3111ION    NA+ 4108   1.443   1.749   1.608
 3112ION    NA+ 4109   0.122   3.687   5.920
 3113ION    NA+ 4110   4.340   7.215   6.565
 3114ION    NA+ 4111   1.273   5.345   6.909
 3115ION    NA+ 4112   2.514   3.242   5.005
 3116ION    NA+ 4113   5.529   4.936   2.737
 3117ION    NA+ 4114   0.533   5.284   4.772
 3118ION    NA+ 4115   4.628   6.073   3.816
 3119ION    NA+ 4116   6.479   1.889   7.466
 3120ION    NA+ 4117   1.465   4.535   3.409
 3121ION    NA+ 4118   7.973   2.441   4.728
 3122ION    NA+ 4119   2.657   3.361   6.404
 3123ION    NA+ 4120   6.939   2.669   0.500
 3124ION    NA+ 4121   0.027   1.298   1.860
 3125ION    NA+ 4122   6.788   6.858   6.229
 3126ION    NA+ 4123   2.684   3.342   2.613
 3127ION    NA+ 4124   3.217   1.747   5.123
 3128ION    NA+ 4125   6.831   0.367   1.526
 3129ION    NA+ 4126   4.320   3.840   6.793
 3130ION    NA+ 4127   2.413   0.880   6.716
 3131ION    NA+ 4128   7.793   2.468   6.500
 3132ION    NA+ 4129   5.487   4.966   1.705
 3133ION    NA+ 4130   2.088   4.226   0.349
 3134ION    NA+ 4131   1.718   5.379   3.768
 3135ION    NA+ 4132   2.922   6.377   7.857
 3136ION    NA+ 4133   6.184   3.262   5.604
 3137ION    NA+ 4134   3.097   1.167   1.463
 3138ION    NA+ 4135   6.874   7.874   2.525
 3139ION    NA+ 4136   5.041   5.084   7.666
 3140ION    NA+ 4137   3.456   2.898   3.093
 3141ION    NA+ 4138   6.373   2.861   1.265
 3142ION    NA+ 4139   6.755   1.810   3.820
 3143ION    NA+ 4140   6.529   6.881   3.866
 3144ION    NA+ 4141   7.711   5.530   6.684
 3145ION    NA+ 4142   3.486   3.184   5.353
 3146ION    NA+ 4143   5.065   3.626   4.621
 3147ION    NA+ 4144   6.525   4.388   3.669
 3148ION    NA+ 4145   6.546   2.773   7.699
 3149ION    NA+ 4146   2.741   0.652   4.179
 3150ION    NA+ 4147   2.698   6.518   0.710
 3151ION    NA+ 4148   0.601   0.372   3.141
 3152ION    NA+ 4149   6.324   3.586   3.555
 3153ION    NA+ 4150   3.755   5.542   1.095
 3154ION    NA+ 4151   6.101   3.702   1.137
 3155ION    NA+ 4152   5.531   1.074   7.328
 3156ION    NA+ 4153   2.643   3.359   3.622
 3157ION    NA+ 4154   1.313   3.786   5.340
 3158ION    NA+ 4155   1.662   7.170   6.246
 3159ION    NA+ 4156   7.334   5.553   0.416
 3160ION    NA+ 4157   1.383   5.886   4.502
 3161ION    NA+ 4158   1.416   4.010   2.785
 3162ION    NA+ 4159   7.454   6.124   7.271
 3163ION    NA+ 4160   5.080   5.774   5.482
 3164ION    NA+ 4161   2.552   4.254   4.116
 3165ION    NA+ 4162   4.584   6.962   5.174
 3166ION    NA+ 4163   0.770   4.625   2.750
 3167ION    NA+ 4164   4.441   4.564   6.316
 3168ION    NA+ 4165   3.448   1.150   5.576
 3169ION    NA+ 4166   4.434   1.815   1.444
 3170ION    NA+ 4167   4.262   4.635   0.829
 3171ION    NA+ 4168   3.672   4.876   1.815
 3172ION    NA+ 4169   3.300   4.667   7.050
 3173ION    NA+ 4170   4.738   3.240   5.388
 3174ION    NA+ 4171   4.804   2.883   6.287
 3175ION    NA+ 4172   4.910   5.226   0.570
 3176ION    NA+ 4173   3.197   7.385   7.282
 3177ION    NA+ 4174   1.451   6.794   7.419
 3178ION    NA+ 4175   3.208   7.595   2.043
 3179ION    NA+ 4176   6.566   6.209   2.044
 3180ION    NA+ 4177   0.989   7.161   7.463
 3181ION    NA+ 4178   7.760   2.779   5.979
 3182ION    NA+ 4179   1.639   2.540   3.077
 3183ION    NA+ 4180   1.632   2.127   5.465
 3184ION    NA+ 4181   6.798   3.424   1.267
 3185ION    NA+ 4182   4.410   1.439   4.898
 3186ION    NA+ 4183   1.648   5.116   0.445
 3187ION    NA+ 4184   7.555   3.013   2.581
 3188ION    NA+ 4185   2.662   1.159   4.905
 3189ION    NA+ 4186   0.277   3.773   2.786
 3190ION    NA+ 4187   5.295   6.933   2.328
 3191ION    NA+ 4188   5.450   7.583   3.364
 3192ION    NA+ 4189   0.121   6.605   4.257
 3193ION    NA+ 4190   1.422   4.716   5.361
 3194ION    NA+ 4191   5.428   3.523   3.534
 3195ION    NA+ 4192   3.191   7.305   3.243
 3196ION    NA+ 4193   1.268   7.027   0.582
 3197ION    NA+ 4194   6.841   5.779   7.034
 3198ION    NA+ 4195   2.903   5.226   5.989
 3199ION    NA+ 4196   3.921   3.831   3.227
 3200ION    NA+ 4197   0.849   6.173   4.249
 3201ION    NA+ 4198   1.549   5.918   6.173
 3202ION    NA+ 4199   6.416   6.400   7.435
 3203ION    NA+ 4200   0.948   5.652   2.267
 3204ION    NA+ 4201   6.931   6.472   1.341
 3205ION    NA+ 4202   6.301   1.131   0.009
 3206ION    NA+ 4203   6.098   6.617   5.024
 3207ION    NA+ 4204   6.477   3.948   4.417
 3208ION    NA+ 4205   4.373   3.006   6.853
 3209ION    NA+ 4206   7.035   6.529   3.304
 3210ION    NA+ 4207   2.993   5.836   1.398
   8.00000   8.00000   8.00000
