Martini system from ../2_Creating_coordinates/TYR-THR-TYR_aa.pdb
 4217
    1TYR     BB    1   6.072   4.984   4.109  0.1893  0.0414 -0.0671
    1TYR    SC1    2   6.033   4.753   4.330 -0.0769 -0.1486 -0.0228
    1TYR    SC2    3   6.110   4.514   4.430  0.2865 -0.0527 -0.0555
    1TYR    SC3    4   5.853   4.592   4.450  0.2572 -0.2313  0.4014
    2THR     BB    5   6.242   5.309   4.066 -0.0390 -0.0118 -0.1098
    2THR    SC1    6   6.120   5.412   3.861 -0.2507 -0.3352 -0.1549
    3TYR     BB    7   6.562   5.406   4.091  0.3357 -0.1125 -0.4212
    3TYR    SC1    8   6.561   5.518   3.776 -0.2436  0.3690  0.1255
    3TYR    SC2    9   6.506   5.497   3.512 -0.5979  0.0904  0.2107
    3TYR    SC3   10   6.700   5.665   3.597  0.0210 -0.3163 -0.2827
    1TYR     BB   11   0.341   1.698   1.232 -0.3684  0.0468 -0.0184
    1TYR    SC1   12   0.233   1.829   1.461 -0.4956  0.0948  0.3791
    1TYR    SC2   13   0.243   1.791   1.728 -0.2012  0.4419  0.4262
    1TYR    SC3   14   0.125   2.012   1.627 -0.1946  0.3781  0.2752
    2THR     BB   15   0.683   1.624   1.258 -0.1294 -0.3023  0.0624
    2THR    SC1   16   0.696   1.704   1.505  0.1593 -0.1069 -0.0098
    3TYR     BB   17   0.845   1.356   1.171  0.0821 -0.1818  0.0508
    3TYR    SC1   18   0.822   1.202   1.420 -0.2243 -0.0124  0.1266
    3TYR    SC2   19   0.705   1.074   1.627 -0.2622 -0.0920  0.0565
    3TYR    SC3   20   0.899   0.952   1.484 -0.1600  0.0034  0.1119
    1TYR     BB   21   5.471   4.572   5.512  0.1389  0.0768  0.0772
    1TYR    SC1   22   5.396   4.397   5.746 -0.0423  0.0350 -0.1401
    1TYR    SC2   23   5.330   4.143   5.807 -0.1103 -0.0186 -0.4189
    1TYR    SC3   24   5.240   4.346   5.960 -0.1590 -0.1526 -0.2660
    2THR     BB   25   5.746   4.733   5.542  0.2707  0.2081  0.0517
    2THR    SC1   26   5.931   4.648   5.381 -0.0032 -0.2506 -0.0420
    3TYR     BB   27   5.780   4.911   5.772  0.0957  0.2094  0.3034
    3TYR    SC1   28   5.717   4.726   6.010 -0.0563  0.2027  0.0203
    3TYR    SC2   29   5.762   4.709   6.275  0.2118  0.0291 -0.0319
    3TYR    SC3   30   5.687   4.490   6.137  0.3614  0.0475 -0.1462
    1TYR     BB   31   6.761   5.554   4.604 -0.0778 -0.2019  0.0719
    1TYR    SC1   32   6.704   5.846   4.530 -0.3244 -0.2931 -0.0572
    1TYR    SC2   33   6.621   6.103   4.528  0.0624 -0.1555  0.1554
    1TYR    SC3   34   6.649   5.968   4.295  0.2098  0.1191  0.0080
    2THR     BB   35   6.978   5.454   4.368  0.0753  0.0923 -0.3601
    2THR    SC1   36   7.129   5.587   4.203  0.0880  0.1233 -0.3236
    3TYR     BB   37   6.982   5.137   4.347  0.1224  0.0437  0.0730
    3TYR    SC1   38   7.290   5.091   4.411 -0.2857 -0.1682  0.0905
    3TYR    SC2   39   7.393   4.944   4.613 -0.4291 -0.0518  0.2524
    3TYR    SC3   40   7.518   5.169   4.533 -0.3154 -0.1537  0.1369
    1TYR     BB   41   0.194   4.738   6.553  0.0780 -0.1011 -0.1006
    1TYR    SC1   42   0.146   4.662   6.843  0.0001 -0.0869 -0.0084
    1TYR    SC2   43  -0.032   4.580   7.028 -0.3284 -0.1078 -0.3184
    1TYR    SC3   44   0.198   4.698   7.105 -0.3945 -0.2287  0.0989
    2THR     BB   45   0.444   4.591   6.457  0.1909  0.2652  0.3377
    2THR    SC1   46   0.704   4.605   6.457  0.1806  0.5898  0.1378
    3TYR     BB   47   0.368   4.325   6.285 -0.0944  0.0072  0.0734
    3TYR    SC1   48   0.317   4.043   6.393  0.3273  0.1130  0.0555
    3TYR    SC2   49   0.168   3.861   6.526  0.0130  0.4204  0.1437
    3TYR    SC3   50   0.331   3.782   6.326 -0.0736  0.0411  0.2134
    1TYR     BB   51   7.234   5.566   5.154 -0.0903  0.0689 -0.3282
    1TYR    SC1   52   7.249   5.326   5.385  0.1472  0.4230  0.3491
    1TYR    SC2   53   7.194   5.071   5.452  0.1246  0.2575 -0.2283
    1TYR    SC3   54   7.405   5.197   5.564  0.2843 -0.0980 -0.1088
    2THR     BB   55   7.213   5.411   4.880 -0.1894  0.0185 -0.0329
    2THR    SC1   56   7.084   5.185   4.867 -0.0173 -0.0775 -0.1228
    3TYR     BB   57   7.356   5.607   4.608  0.2999 -0.1320 -0.3258
    3TYR    SC1   58   7.253   5.873   4.576 -0.5166 -0.2718  0.0663
    3TYR    SC2   59   7.124   6.042   4.409  0.0468 -0.0019 -0.1287
    3TYR    SC3   60   7.274   6.140   4.611 -0.1072 -0.3059  0.1451
    1TYR     BB   61   2.631   1.001   1.892  0.0533 -0.2084 -0.2712
    1TYR    SC1   62   2.878   1.161   1.960  0.0088  0.0877 -0.2664
    1TYR    SC2   63   3.077   1.261   1.806  0.2435  0.3227  0.1657
    1TYR    SC3   64   3.132   1.164   2.052 -0.1158 -0.0740  0.1058
    2THR     BB   65   2.445   0.785   2.020 -0.4036  0.4583  0.0218
    2THR    SC1   66   2.461   0.709   2.268  0.0441  0.1534 -0.0860
    3TYR     BB   67   2.159   0.638   1.832  0.1261 -0.2431 -0.0272
    3TYR    SC1   68   2.038   0.513   2.084  0.0059 -0.1164 -0.1945
    3TYR    SC2   69   1.815   0.491   2.234 -0.1393  0.0126 -0.3867
    3TYR    SC3   70   2.053   0.418   2.337 -0.2466  0.0178 -0.1250
    1TYR     BB   71   0.889   0.760   7.345  0.3652  0.1383 -0.2044
    1TYR    SC1   72   0.615   0.864   7.457  0.0208 -0.3180 -0.0949
    1TYR    SC2   73   0.409   0.766   7.602 -0.0789  0.1298  0.0864
    1TYR    SC3   74   0.430   1.032   7.560  0.6188  0.1382  0.3236
    2THR     BB   75   0.972   0.993   7.090  0.3251 -0.0075 -0.1511
    2THR    SC1   76   0.777   1.158   7.039  0.3450  0.1679  0.2882
    3TYR     BB   77   1.173   0.850   6.975 -0.3914  0.0963  0.1750
    3TYR    SC1   78   1.307   0.643   7.174 -0.1093 -0.0454  0.1102
    3TYR    SC2   79   1.544   0.545   7.256 -0.0393  0.0566  0.0324
    3TYR    SC3   80   1.348   0.589   7.436 -0.0678 -0.2076  0.0712
    1TYR     BB   81   1.684   1.966   2.771 -0.2529  0.0020 -0.0863
    1TYR    SC1   82   1.896   1.786   2.922  0.4144  0.1777 -0.1566
    1TYR    SC2   83   1.876   1.520   2.967 -0.1402  0.2157 -0.0898
    1TYR    SC3   84   2.093   1.656   3.053  0.0949 -0.1879 -0.0123
    2THR     BB   85   1.754   2.172   2.535 -0.5924 -0.0082 -0.1171
    2THR    SC1   86   1.773   2.164   2.275 -0.2780  0.2018 -0.1075
    3TYR     BB   87   1.454   2.447   2.546 -0.1439  0.2123 -0.1172
    3TYR    SC1   88   1.224   2.246   2.667 -0.0015 -0.0948  0.0754
    3TYR    SC2   89   1.047   2.043   2.652  0.2976 -0.3778  0.2110
    3TYR    SC3   90   1.209   2.065   2.867  0.3340 -0.0425  0.1561
    1TYR     BB   91   1.916   4.802   5.136  0.2922  0.2018  0.2204
    1TYR    SC1   92   2.133   4.730   5.264 -0.0590  0.0108 -0.4433
    1TYR    SC2   93   2.386   4.787   5.339 -0.1352 -0.1009 -0.0742
    1TYR    SC3   94   2.200   4.726   5.525 -0.3731 -0.2776 -0.3569
    2THR     BB   95   1.660   4.572   5.152 -0.0120  0.2573  0.1065
    2THR    SC1   96   1.482   4.603   4.966  0.0423 -0.2052 -0.0383
    3TYR     BB   97   1.822   4.325   5.195  0.0699  0.3131  0.3436
    3TYR    SC1   98   1.705   4.098   5.016  0.0345  0.2270  0.0684
    3TYR    SC2   99   1.637   3.963   4.792  0.1078  0.2236  0.0478
    3TYR    SC3  100   1.836   3.871   4.949  0.1023  0.2630  0.0780
    1TYR     BB  101   2.254   1.957   0.168 -0.2357  0.1881 -0.0213
    1TYR    SC1  102   2.372   2.159   0.378 -0.0957  0.1950 -0.0083
    1TYR    SC2  103   2.377   2.394   0.512  0.2013  0.1982 -0.0178
    1TYR    SC3  104   2.608   2.277   0.435  0.0526 -0.0443 -0.1100
    2THR     BB  105   2.451   1.767   0.053  0.1773  0.2204 -0.0538
    2THR    SC1  106   2.691   1.829  -0.022  0.3054  0.0841  0.2243
    3TYR     BB  107   2.455   1.390   0.017 -0.2411 -0.0623  0.0382
    3TYR    SC1  108   2.439   1.315  -0.285 -0.1425  0.0492 -0.1772
    3TYR    SC2  109   2.479   1.196  -0.524 -0.0119  0.1355 -0.2003
    3TYR    SC3  110   2.240   1.174  -0.399 -0.0675  0.0556 -0.3186
    1TYR     BB  111   0.296   3.623   4.521  0.1321  0.3469 -0.1129
    1TYR    SC1  112   0.244   3.661   4.844  0.2736  0.0072  0.1785
    1TYR    SC2  113   0.363   3.800   5.043  0.1884  0.1243  0.1494
    1TYR    SC3  114   0.280   3.546   5.086  0.4538  0.0372  0.1673
    2THR     BB  115   0.505   3.870   4.410  0.1176 -0.2559  0.0147
    2THR    SC1  116   0.459   3.940   4.163 -0.3379  0.1407  0.1917
    3TYR     BB  117   0.794   3.690   4.426  0.2544  0.0869 -0.1810
    3TYR    SC1  118   0.885   3.635   4.697  0.0265  0.3519  0.2066
    3TYR    SC2  119   1.082   3.551   4.861 -0.0042  0.0655  0.1057
    3TYR    SC3  120   0.858   3.662   4.964 -0.0884 -0.2457  0.2750
    1TYR     BB  121   1.734   0.423   1.675 -0.0072 -0.3702  0.0100
    1TYR    SC1  122   1.629   0.646   1.882 -0.4209 -0.1008 -0.2560
    1TYR    SC2  123   1.683   0.882   2.002  0.1166 -0.1360 -0.3954
    1TYR    SC3  124   1.440   0.768   2.031 -0.0249  0.2328  0.0022
    2THR     BB  125   1.933   0.196   1.757  0.1629 -0.4055 -0.2821
    2THR    SC1  126   1.884   0.046   1.963  0.0193  0.0330  0.0196
    3TYR     BB  127   2.207   0.183   1.562 -0.1534 -0.0666  0.1774
    3TYR    SC1  128   2.452   0.343   1.579 -0.2449  0.1666  0.2415
    3TYR    SC2  129   2.701   0.335   1.685 -0.1565  0.0220  0.0303
    3TYR    SC3  130   2.617   0.556   1.554 -0.1484  0.0798  0.1220
    1TYR     BB  131   5.213   4.859   6.001 -0.0581 -0.1503  0.1526
    1TYR    SC1  132   4.936   4.751   6.082 -0.0137  0.3858 -0.1684
    1TYR    SC2  133   4.732   4.607   6.185  0.2546  0.1531  0.0600
    1TYR    SC3  134   4.684   4.791   5.994 -0.1202 -0.1432 -0.1501
    2THR     BB  135   5.342   5.029   6.303 -0.1009  0.2430  0.2449
    2THR    SC1  136   5.136   5.011   6.462 -0.0227 -0.1321  0.3141
    3TYR     BB  137   5.533   5.231   6.182  0.1635  0.0626 -0.3565
    3TYR    SC1  138   5.829   5.159   6.278 -0.1998 -0.2487 -0.1887
    3TYR    SC2  139   6.065   5.050   6.203 -0.0688  0.0092 -0.1646
    3TYR    SC3  140   6.005   5.077   6.465 -0.0122  0.1729 -0.1671
    1TYR     BB  141   6.414   4.713   5.349  0.0874  0.1146 -0.1128
    1TYR    SC1  142   6.422   4.442   5.330 -0.2285 -0.0198 -0.0718
    1TYR    SC2  143   6.503   4.223   5.464  0.0611  0.1890  0.1093
    1TYR    SC3  144   6.405   4.199   5.214 -0.0865 -0.1619  0.1929
    2THR     BB  145   6.673   4.945   5.395  0.1133 -0.1052 -0.1159
    2THR    SC1  146   6.790   4.896   5.168  0.2874  0.3455 -0.1363
    3TYR     BB  147   6.643   5.174   5.636 -0.0468 -0.0622  0.0858
    3TYR    SC1  148   6.856   5.415   5.624 -0.0123  0.0755  0.1263
    3TYR    SC2  149   6.887   5.655   5.505  0.1446 -0.0447 -0.0836
    3TYR    SC3  150   7.073   5.565   5.678 -0.1066  0.1513  0.3078
    1TYR     BB  151   4.729   4.429   5.203 -0.0750  0.0286 -0.0599
    1TYR    SC1  152   4.790   4.609   5.469 -0.4484 -0.0700 -0.0272
    1TYR    SC2  153   4.970   4.595   5.669 -0.4070  0.0219 -0.0570
    1TYR    SC3  154   4.925   4.830   5.546 -0.0616 -0.1232 -0.4948
    2THR     BB  155   4.947   4.166   5.210  0.1257  0.0804  0.1008
    2THR    SC1  156   4.806   3.973   5.107  0.2538  0.0856 -0.0909
    3TYR     BB  157   5.239   4.169   5.241  0.0222 -0.0471 -0.1086
    3TYR    SC1  158   5.321   3.913   5.399  0.1460  0.1436 -0.1078
    3TYR    SC2  159   5.529   3.745   5.439  0.1793  0.1609 -0.2069
    3TYR    SC3  160   5.287   3.685   5.540  0.3031  0.2996  0.1970
    1TYR     BB  161   0.938   4.231   5.585 -0.0352 -0.0596 -0.2682
    1TYR    SC1  162   1.057   4.000   5.682  0.0758  0.0982 -0.2003
    1TYR    SC2  163   1.275   3.854   5.746  0.1281  0.1863 -0.1750
    1TYR    SC3  164   1.101   3.929   5.939 -0.0298 -0.0471 -0.2204
    2THR     BB  165   1.195   4.433   5.447  0.3263  0.0310  0.2079
    2THR    SC1  166   1.408   4.288   5.479  0.3548 -0.0447 -0.2370
    3TYR     BB  167   1.202   4.718   5.400 -0.0177  0.0084  0.1096
    3TYR    SC1  168   0.922   4.830   5.448 -0.2074 -0.1636 -0.1949
    3TYR    SC2  169   0.735   5.021   5.480 -0.1191 -0.1028 -0.0251
    3TYR    SC3  170   0.689   4.770   5.570 -0.0743 -0.0587  0.1244
    1TYR     BB  171   7.157   6.580   6.005 -0.0034 -0.0817 -0.2896
    1TYR    SC1  172   7.362   6.531   5.782  0.1818 -0.2177  0.2321
    1TYR    SC2  173   7.617   6.539   5.696  0.1115 -0.0735  0.0278
    1TYR    SC3  174   7.448   6.350   5.602  0.0661  0.0123 -0.0661
    2THR     BB  175   6.852   6.571   5.809  0.1219 -0.0380  0.2151
    2THR    SC1  176   6.950   6.523   5.573  0.2047 -0.1483  0.2710
    3TYR     BB  177   6.570   6.362   5.857 -0.1729 -0.2622 -0.1882
    3TYR    SC1  178   6.577   6.169   5.598 -0.2912 -0.1652  0.2513
    3TYR    SC2  179   6.443   6.105   5.373  0.0172 -0.1716  0.0628
    3TYR    SC3  180   6.700   6.186   5.359 -0.0759  0.2161  0.3785
    1TYR     BB  181   1.386   0.984   0.648 -0.1419  0.4150 -0.2262
    1TYR    SC1  182   1.260   0.943   0.937 -0.2530 -0.3876  0.0565
    1TYR    SC2  183   1.012   0.943   1.044 -0.3366  0.2770 -0.0853
    1TYR    SC3  184   1.218   1.055   1.179 -0.0798 -0.3116  0.0535
    2THR     BB  185   1.178   0.800   0.450 -0.2663  0.0466 -0.2630
    2THR    SC1  186   1.324   0.640   0.307  0.0683  0.0432  0.0631
    3TYR     BB  187   0.845   0.834   0.264  0.0809  0.0663  0.2334
    3TYR    SC1  188   0.772   0.558   0.205 -0.3205 -0.1110  0.2125
    3TYR    SC2  189   0.778   0.293   0.252 -0.0189 -0.1554 -0.0319
    3TYR    SC3  190   0.560   0.405   0.140 -0.3175 -0.2199  0.4471
    1TYR     BB  191   7.506   5.491   5.945  0.0228  0.0109  0.0146
    1TYR    SC1  192   7.641   5.736   5.865  0.0129  0.0223  0.3462
    1TYR    SC2  193   7.892   5.809   5.796 -0.0486 -0.1485 -0.0970
    1TYR    SC3  194   7.707   5.998   5.849  0.0393 -0.0042 -0.2896
    2THR     BB  195   7.528   5.406   6.290  0.2199  0.1891  0.3605
    2THR    SC1  196   7.739   5.255   6.292  0.1170  0.0061 -0.2386
    3TYR     BB  197   7.359   5.466   6.537 -0.1876 -0.2712  0.0394
    3TYR    SC1  198   7.388   5.714   6.675 -0.1979 -0.0780 -0.0360
    3TYR    SC2  199   7.389   5.975   6.744 -0.1034 -0.0733 -0.0541
    3TYR    SC3  200   7.417   5.785   6.934 -0.3016 -0.0753 -0.0247
    1TYR     BB  201   1.092   6.177   3.820 -0.2040 -0.1461  0.0870
    1TYR    SC1  202   0.870   5.989   3.921  0.0061 -0.0278 -0.2934
    1TYR    SC2  203   0.682   5.796   3.894  0.1458 -0.2170  0.0192
    1TYR    SC3  204   0.837   5.804   4.115  0.4296  0.0052 -0.1783
    2THR     BB  205   1.289   6.252   4.087 -0.3340  0.1784 -0.0332
    2THR    SC1  206   1.156   6.201   4.305  0.1489  0.0581  0.2523
    3TYR     BB  207   1.642   6.259   4.230 -0.0935 -0.1501 -0.0431
    3TYR    SC1  208   1.790   5.990   4.214  0.2040  0.1283 -0.0138
    3TYR    SC2  209   1.794   5.736   4.121 -0.1625  0.0684  0.1124
    3TYR    SC3  210   1.964   5.810   4.316 -0.0436 -0.0752  0.0653
    1TYR     BB  211   0.851   2.545   1.492 -0.2953  0.0972 -0.0699
    1TYR    SC1  212   0.706   2.360   1.640 -0.0386  0.1926  0.1306
    1TYR    SC2  213   0.553   2.145   1.699  0.4443 -0.1211  0.3187
    1TYR    SC3  214   0.597   2.336   1.886  0.0735  0.1201  0.1742
    2THR     BB  215   1.053   2.728   1.712  0.0359  0.0118  0.1487
    2THR    SC1  216   0.914   2.749   1.931 -0.0503  0.1588  0.0815
    3TYR     BB  217   1.346   2.688   1.589  0.0520  0.1099  0.0435
    3TYR    SC1  218   1.586   2.862   1.654  0.3611 -0.1590  0.2422
    3TYR    SC2  219   1.652   3.065   1.818  0.3555  0.0449 -0.0001
    3TYR    SC3  220   1.845   2.922   1.696  0.3594 -0.1004  0.1714
    1TYR     BB  221   0.452   4.272   5.560  0.1675  0.0864  0.0388
    1TYR    SC1  222   0.554   4.045   5.372 -0.0101 -0.0401  0.0937
    1TYR    SC2  223   0.762   4.023   5.202  0.2893  0.3722  0.3809
    1TYR    SC3  224   0.713   3.827   5.382 -0.1525 -0.1689 -0.2672
    2THR     BB  225   0.191   4.314   5.764 -0.1011 -0.1635 -0.1538
    2THR    SC1  226   0.175   4.566   5.828  0.2048 -0.1954  0.0821
    3TYR     BB  227   0.071   4.093   5.973 -0.0237  0.2884  0.0138
    3TYR    SC1  228  -0.174   3.979   6.163 -0.0627 -0.0065  0.1038
    3TYR    SC2  229  -0.418   4.056   6.249  0.0301  0.3853  0.0412
    3TYR    SC3  230  -0.319   3.815   6.322 -0.2655  0.3271  0.2768
    1TYR     BB  231   5.486   5.441   6.635  0.1024 -0.2155 -0.2633
    1TYR    SC1  232   5.237   5.531   6.462 -0.0754 -0.0050  0.0330
    1TYR    SC2  233   4.970   5.567   6.471 -0.0713 -0.0093  0.2057
    1TYR    SC3  234   5.090   5.513   6.236 -0.2025  0.1372  0.1019
    2THR     BB  235   5.720   5.623   6.482  0.1184  0.1337 -0.0686
    2THR    SC1  236   5.876   5.740   6.655 -0.1808 -0.0191  0.3247
    3TYR     BB  237   5.590   5.867   6.256 -0.1296  0.4256  0.1004
    3TYR    SC1  238   5.328   5.987   6.165  0.0380 -0.2238 -0.3834
    3TYR    SC2  239   5.060   5.966   6.193  0.0536  0.0949  0.2192
    3TYR    SC3  240   5.166   6.176   6.060  0.0121  0.0091  0.0468
    1TYR     BB  241   0.167   5.189   2.979  0.1785  0.2489  0.0467
    1TYR    SC1  242   0.283   4.948   2.808 -0.0655 -0.0363  0.3243
    1TYR    SC2  243   0.132   4.781   2.659 -0.2937  0.3110  0.1502
    1TYR    SC3  244   0.391   4.822   2.595 -0.2289  0.0194  0.2062
    2THR     BB  245   0.174   5.208   3.281 -0.1644  0.0179  0.0910
    2THR    SC1  246   0.242   5.035   3.463 -0.0604  0.0854  0.1173
    3TYR     BB  247   0.031   5.500   3.381  0.0438 -0.1352 -0.2545
    3TYR    SC1  248   0.204   5.766   3.252  0.3913  0.0168  0.0291
    3TYR    SC2  249   0.418   5.928   3.224  0.4064  0.0239  0.1772
    3TYR    SC3  250   0.433   5.670   3.146  0.2779  0.1672 -0.3773
    1TYR     BB  251   7.164   4.722   3.279  0.1435  0.3298 -0.0536
    1TYR    SC1  252   6.957   4.627   3.049 -0.0311 -0.3815  0.1382
    1TYR    SC2  253   6.747   4.611   2.880  0.0494  0.0816 -0.0231
    1TYR    SC3  254   6.994   4.540   2.796  0.0101 -0.1841  0.0742
    2THR     BB  255   7.455   4.803   3.119 -0.1857  0.0219  0.1443
    2THR    SC1  256   7.417   4.936   2.899  0.0809 -0.1037  0.0176
    3TYR     BB  257   7.703   4.682   3.216 -0.1383 -0.1977  0.2202
    3TYR    SC1  258   7.867   4.500   3.002  0.3048  0.1297 -0.4111
    3TYR    SC2  259   7.878   4.231   2.997  0.1167  0.1006  0.0840
    3TYR    SC3  260   8.065   4.375   2.867  0.1070 -0.2579 -0.3602
    1TYR     BB  261   2.478   2.325   2.666  0.2074 -0.0713 -0.1662
    1TYR    SC1  262   2.767   2.276   2.718  0.0933  0.2563  0.0989
    1TYR    SC2  263   3.029   2.296   2.656  0.0649 -0.0005 -0.1264
    1TYR    SC3  264   2.947   2.117   2.840  0.0494  0.1089 -0.0252
    2THR     BB  265   2.206   2.099   2.748  0.0913 -0.1056  0.0579
    2THR    SC1  266   2.115   2.220   2.959 -0.1667  0.2100 -0.2201
    3TYR     BB  267   2.172   1.848   2.545 -0.0836 -0.2207 -0.2219
    3TYR    SC1  268   1.947   1.710   2.372  0.0072 -0.2427  0.0110
    3TYR    SC2  269   1.703   1.595   2.389 -0.1601  0.0854 -0.0532
    3TYR    SC3  270   1.863   1.542   2.178 -0.2339 -0.0226 -0.0832
    1TYR     BB  271   6.884   4.435   4.989 -0.0001  0.2388 -0.0978
    1TYR    SC1  272   6.896   4.410   5.274 -0.2338 -0.1042 -0.0195
    1TYR    SC2  273   6.977   4.297   5.506 -0.1065  0.1345  0.0570
    1TYR    SC3  274   6.999   4.564   5.471  0.1316  0.0732 -0.3325
    2THR     BB  275   6.857   4.254   4.768  0.2994  0.1502  0.0596
    2THR    SC1  276   7.047   4.093   4.695  0.3169  0.0064  0.3966
    3TYR     BB  277   6.530   4.134   4.701 -0.0458  0.1896 -0.1023
    3TYR    SC1  278   6.350   4.068   4.429 -0.1416  0.1840 -0.1707
    3TYR    SC2  279   6.287   3.880   4.246 -0.3333  0.0449  0.0311
    3TYR    SC3  280   6.285   4.141   4.177  0.1199 -0.0250 -0.3044
    1TYR     BB  281   0.857   5.457   5.031  0.0036  0.1788  0.1113
    1TYR    SC1  282   0.626   5.325   5.088  0.0022  0.2155 -0.0224
    1TYR    SC2  283   0.420   5.249   5.244 -0.0949  0.3135 -0.1014
    1TYR    SC3  284   0.496   5.095   5.036 -0.1428  0.3181 -0.1224
    2THR     BB  285   0.832   5.799   5.124 -0.2645  0.1739  0.0572
    2THR    SC1  286   1.037   5.956   5.097 -0.2800  0.2002  0.0907
    3TYR     BB  287   0.496   5.876   4.993  0.1991 -0.3395 -0.0214
    3TYR    SC1  288   0.544   6.176   5.011  0.0434  0.0598 -0.2127
    3TYR    SC2  289   0.511   6.441   4.978 -0.0598  0.0436 -0.2436
    3TYR    SC3  290   0.756   6.342   5.032 -0.1029  0.2027  0.3248
    1TYR     BB  291   6.732   3.872   5.106 -0.1124  0.2591  0.3013
    1TYR    SC1  292   6.414   3.762   5.043 -0.0121  0.5102 -0.2118
    1TYR    SC2  293   6.220   3.776   4.857 -0.1840  0.1904 -0.0677
    1TYR    SC3  294   6.161   3.819   5.117  0.0399  0.5639 -0.0696
    2THR     BB  295   6.839   3.744   5.384 -0.3202 -0.2205  0.3404
    2THR    SC1  296   7.065   3.808   5.497 -0.1641  0.2149 -0.1629
    3TYR     BB  297   6.603   3.598   5.538  0.4984 -0.0712 -0.1682
    3TYR    SC1  298   6.323   3.715   5.512 -0.1419 -0.2399 -0.2193
    3TYR    SC2  299   6.062   3.660   5.557 -0.1219 -0.2279 -0.0812
    3TYR    SC3  300   6.161   3.904   5.616 -0.0298 -0.3032  0.0843
    1TYR     BB  301   1.864   0.908   1.525 -0.2698 -0.1676 -0.0052
    1TYR    SC1  302   2.127   1.041   1.395 -0.1398  0.1956  0.2956
    1TYR    SC2  303   2.334   1.138   1.251 -0.1551 -0.1774  0.0010
    1TYR    SC3  304   2.380   0.969   1.457 -0.1521  0.0910  0.2283
    2THR     BB  305   1.704   0.912   1.247  0.1305  0.0256  0.1232
    2THR    SC1  306   1.749   1.010   1.011  0.0359  0.0499  0.1148
    3TYR     BB  307   1.518   0.598   1.188 -0.0065 -0.0355 -0.2036
    3TYR    SC1  308   1.739   0.395   1.176  0.2650  0.1580 -0.0559
    3TYR    SC2  309   1.773   0.151   1.286 -0.0242  0.1981  0.1351
    3TYR    SC3  310   1.954   0.245   1.110  0.2440 -0.0321  0.2768
    1TYR     BB  311   2.980   0.818   2.313  0.2012  0.3260  0.0480
    1TYR    SC1  312   2.843   0.586   2.498  0.0177  0.3345  0.1189
    1TYR    SC2  313   2.660   0.429   2.619  0.1964  0.1312  0.1318
    1TYR    SC3  314   2.922   0.398   2.675  0.2710  0.1342 -0.1944
    2THR     BB  315   2.965   0.595   2.039  0.0298  0.3659  0.2708
    2THR    SC1  316   3.009   0.696   1.804 -0.0800  0.3503  0.2430
    3TYR     BB  317   2.925   0.273   2.136 -0.0946  0.1585  0.1713
    3TYR    SC1  318   2.607   0.278   2.102  0.0060 -0.1703 -0.0982
    3TYR    SC2  319   2.434   0.160   2.272 -0.0400 -0.0108 -0.0320
    3TYR    SC3  320   2.364   0.198   2.014  0.0561 -0.3149 -0.1077
    1TYR     BB  321   1.117   5.221   6.873 -0.0243 -0.3694  0.2440
    1TYR    SC1  322   1.126   5.521   6.767  0.2386  0.0037  0.2405
    1TYR    SC2  323   1.069   5.711   6.583  0.1145 -0.1752  0.0901
    1TYR    SC3  324   1.171   5.782   6.823  0.0554  0.0818  0.0430
    2THR     BB  325   1.107   5.104   6.520  0.0569 -0.1219 -0.0634
    2THR    SC1  326   1.121   4.846   6.545  0.0299 -0.1147  0.0264
    3TYR     BB  327   0.980   5.316   6.290  0.0705 -0.0745  0.1116
    3TYR    SC1  328   1.174   5.494   6.137 -0.2291 -0.0256 -0.0937
    3TYR    SC2  329   1.132   5.760   6.129  0.4921  0.1172  0.0542
    3TYR    SC3  330   1.318   5.648   5.969  0.0240 -0.3579 -0.1951
    1TYR     BB  331   5.632   4.512   5.029 -0.1138  0.0360  0.1384
    1TYR    SC1  332   5.389   4.691   5.027 -0.0068  0.1790  0.0075
    1TYR    SC2  333   5.129   4.663   4.963  0.0367 -0.0711 -0.0708
    1TYR    SC3  334   5.198   4.777   5.197 -0.1391  0.1135 -0.1056
    2THR     BB  335   5.521   4.233   4.842  0.2018 -0.1518 -0.0349
    2THR    SC1  336   5.479   4.309   4.597  0.1236 -0.1369 -0.0173
    3TYR     BB  337   5.653   3.921   4.987  0.3821  0.0334  0.5087
    3TYR    SC1  338   5.804   4.032   5.212 -0.5879 -0.0957  0.5097
    3TYR    SC2  339   5.970   4.185   5.359 -0.2943  0.0451  0.0590
    3TYR    SC3  340   5.718   4.137   5.445 -0.2610  0.4308  0.4118
    1TYR     BB  341   3.413   1.755   1.773  0.1639  0.2379  0.1115
    1TYR    SC1  342   3.158   1.727   1.931 -0.1407 -0.0214 -0.2114
    1TYR    SC2  343   2.959   1.595   2.057  0.1394 -0.2371  0.0227
    1TYR    SC3  344   3.042   1.835   2.149 -0.1029 -0.0756 -0.1640
    2THR     BB  345   3.512   1.482   1.674  0.1177  0.1642  0.0522
    2THR    SC1  346   3.572   1.446   1.424 -0.3090 -0.3802  0.0055
    3TYR     BB  347   3.665   1.320   1.959 -0.1675 -0.1277  0.2497
    3TYR    SC1  348   3.552   1.487   2.186  0.5225  0.0566  0.0371
    3TYR    SC2  349   3.470   1.728   2.276  0.3163 -0.0515  0.1489
    3TYR    SC3  350   3.326   1.507   2.333  0.4212 -0.1831 -0.0794
    1TYR     BB  351   0.558   1.287   2.060 -0.1492  0.0768  0.1203
    1TYR    SC1  352   0.372   1.319   1.825  0.1470  0.0864 -0.4570
    1TYR    SC2  353   0.331   1.354   1.561  0.0448  0.2262 -0.4246
    1TYR    SC3  354   0.123   1.369   1.732  0.0688 -0.1039 -0.3571
    2THR     BB  355   0.815   1.508   1.979 -0.2147  0.2295 -0.3139
    2THR    SC1  356   1.036   1.412   1.881 -0.0611  0.2793 -0.0291
    3TYR     BB  357   0.879   1.848   2.037  0.0860 -0.0865 -0.1325
    3TYR    SC1  358   1.092   1.876   2.272  0.1423  0.3256  0.2278
    3TYR    SC2  359   1.226   1.725   2.451  0.0137 -0.0039  0.0553
    3TYR    SC3  360   1.336   1.953   2.358  0.2565 -0.0371  0.2478
    1TYR     BB  361   0.693   2.674   0.996  0.0106  0.1483 -0.0101
    1TYR    SC1  362   0.825   2.938   1.171 -0.0720  0.1949  0.0369
    1TYR    SC2  363   0.776   3.127   1.358  0.1560  0.1656  0.1301
    1TYR    SC3  364   1.029   3.047   1.309  0.1078  0.2131 -0.2340
    2THR     BB  365   0.558   2.274   1.147  0.0638  0.2934  0.1508
    2THR    SC1  366   0.349   2.339   1.286 -0.0779  0.2322 -0.0295
    3TYR     BB  367   0.776   2.113   1.182  0.1064 -0.1068 -0.2500
    3TYR    SC1  368   0.993   2.134   1.360 -0.0876  0.1613  0.0722
    3TYR    SC2  369   1.108   2.076   1.597 -0.1853 -0.0075  0.0804
    3TYR    SC3  370   1.249   2.205   1.406 -0.0664  0.0171  0.1833
    1TYR     BB  371   0.060   4.159   3.923  0.1564  0.2696 -0.1910
    1TYR    SC1  372  -0.093   4.410   3.836  0.2550 -0.0137 -0.0633
    1TYR    SC2  373  -0.265   4.483   3.641  0.0084 -0.1090  0.1117
    1TYR    SC3  374  -0.071   4.653   3.720  0.3338 -0.1921 -0.4414
    2THR     BB  375   0.271   4.094   3.682 -0.0828 -0.0439 -0.0968
    2THR    SC1  376   0.161   4.213   3.479 -0.3060  0.1341  0.1206
    3TYR     BB  377   0.574   3.961   3.624  0.0447 -0.1535  0.0254
    3TYR    SC1  378   0.565   3.869   3.336  0.0385 -0.3390  0.1498
    3TYR    SC2  379   0.560   3.954   3.080  0.2147 -0.2510  0.1736
    3TYR    SC3  380   0.466   3.709   3.143 -0.1311 -0.1504  0.0756
    1TYR     BB  381   2.547   1.398   1.635 -0.0492 -0.0820 -0.1620
    1TYR    SC1  382   2.842   1.518   1.528 -0.0884  0.1338  0.2539
    1TYR    SC2  383   3.049   1.689   1.499 -0.1627  0.1738 -0.1001
    1TYR    SC3  384   3.055   1.449   1.377 -0.2125  0.0651  0.1067
    2THR     BB  385   2.339   1.410   1.918 -0.0487 -0.2493  0.0810
    2THR    SC1  386   2.431   1.528   2.131  0.0953 -0.3153  0.0574
    3TYR     BB  387   2.176   1.153   1.939  0.2311 -0.1010 -0.1786
    3TYR    SC1  388   2.079   1.102   2.219 -0.0834 -0.0692  0.2791
    3TYR    SC2  389   1.834   1.141   2.325 -0.0619 -0.0480  0.3214
    3TYR    SC3  390   1.952   0.899   2.344 -0.2085 -0.1486  0.0309
    1TYR     BB  391   0.154   5.543   7.163  0.0374 -0.0890 -0.2501
    1TYR    SC1  392   0.380   5.519   7.357  0.0161  0.0259  0.1468
    1TYR    SC2  393   0.481   5.577   7.601  0.1619 -0.2678  0.1623
    1TYR    SC3  394   0.646   5.500   7.402  0.0929  0.3076 -0.1453
    2THR     BB  395   0.158   5.442   6.880  0.1356 -0.0386  0.0042
    2THR    SC1  396   0.238   5.543   6.654  0.1153  0.1998  0.0995
    3TYR     BB  397  -0.001   5.130   6.799  0.0885 -0.0396 -0.2104
    3TYR    SC1  398  -0.090   5.005   7.095 -0.3068 -0.3129  0.2984
    3TYR    SC2  399   0.005   5.067   7.340 -0.0791  0.0572  0.1272
    3TYR    SC3  400  -0.255   5.001   7.309 -0.0914 -0.0865  0.4761
    1TYR     BB  401   1.201   1.447   7.202 -0.0200  0.1885 -0.3081
    1TYR    SC1  402   0.927   1.616   7.208  0.0689  0.2014 -0.4643
    1TYR    SC2  403   0.672   1.654   7.290  0.1580  0.0683 -0.0994
    1TYR    SC3  404   0.739   1.696   7.031 -0.2818 -0.1211 -0.2561
    2THR     BB  405   1.317   1.366   6.921  0.1779 -0.5530  0.4838
    2THR    SC1  406   1.545   1.410   6.804 -0.1574 -0.0520 -0.0449
    3TYR     BB  407   1.014   1.369   6.696  0.0259 -0.1531  0.2245
    3TYR    SC1  408   1.145   1.541   6.426  0.1682  0.0904  0.2049
    3TYR    SC2  409   1.384   1.574   6.305  0.0039  0.1927 -0.1073
    3TYR    SC3  410   1.162   1.680   6.195 -0.2059 -0.0042  0.1125
    1TYR     BB  411   6.471   4.622   4.805 -0.0428  0.0805  0.1482
    1TYR    SC1  412   6.480   4.855   4.677  0.0202 -0.0528  0.1205
    1TYR    SC2  413   6.444   5.038   4.482  0.1231 -0.0877  0.0675
    1TYR    SC3  414   6.628   5.081   4.676  0.1375 -0.1283  0.0630
    2THR     BB  415   6.144   4.583   4.917  0.0556 -0.0072 -0.0527
    2THR    SC1  416   6.008   4.802   4.883 -0.0277 -0.0464  0.0244
    3TYR     BB  417   6.060   4.309   4.871  0.0534 -0.1147 -0.2147
    3TYR    SC1  418   6.008   4.132   4.687  0.1377  0.0155 -0.1093
    3TYR    SC2  419   5.910   4.140   4.435  0.0742  0.3427 -0.0806
    3TYR    SC3  420   5.921   3.906   4.569 -0.0235  0.1881 -0.3337
    1TYR     BB  421   5.879   5.135   4.535  0.0269 -0.1301 -0.3247
    1TYR    SC1  422   5.582   4.934   4.580 -0.1781  0.1434  0.4139
    1TYR    SC2  423   5.325   4.851   4.572 -0.1675  0.1147 -0.1541
    1TYR    SC3  424   5.403   5.064   4.425  0.1302  0.1509  0.0453
    2THR     BB  425   5.752   5.278   4.858  0.0723 -0.0987 -0.1595
    2THR    SC1  426   5.664   5.521   4.840  0.0450 -0.0997 -0.0469
    3TYR     BB  427   5.696   5.072   5.140 -0.0668  0.1266  0.0378
    3TYR    SC1  428   5.873   5.198   5.327 -0.1477 -0.1735  0.2770
    3TYR    SC2  429   5.893   5.327   5.564 -0.1065 -0.2548  0.3183
    3TYR    SC3  430   6.099   5.177   5.474 -0.0913 -0.1601  0.1927
    1TYR     BB  431   0.796   4.794   4.236  0.1659  0.2204 -0.3021
    1TYR    SC1  432   1.020   4.739   4.107  0.0479  0.0022  0.0265
    1TYR    SC2  433   1.203   4.872   3.960 -0.1181  0.1964 -0.0102
    1TYR    SC3  434   1.201   4.602   3.962  0.1177  0.1922 -0.0698
    2THR     BB  435   0.899   4.842   4.590 -0.1477  0.1964 -0.1542
    2THR    SC1  436   0.842   5.068   4.706 -0.0537 -0.0731  0.4674
    3TYR     BB  437   1.074   4.662   4.702  0.1624  0.2911  0.1431
    3TYR    SC1  438   1.281   4.573   4.499  0.0143  0.0834  0.0268
    3TYR    SC2  439   1.492   4.408   4.531  0.0237  0.0501 -0.1880
    3TYR    SC3  440   1.312   4.360   4.335 -0.1931  0.0694  0.0021
    1TYR     BB  441   0.500   3.875   5.911 -0.2847 -0.2623  0.0450
    1TYR    SC1  442   0.730   3.675   5.857 -0.2758 -0.1198  0.1252
    1TYR    SC2  443   0.910   3.563   5.690 -0.2904 -0.0748  0.0787
    1TYR    SC3  444   0.941   3.539   5.957 -0.0815  0.1350  0.0781
    2THR     BB  445   0.700   4.141   6.050  0.3091  0.1066 -0.0217
    2THR    SC1  446   0.809   4.097   6.283  0.0044 -0.2602  0.0642
    3TYR     BB  447   0.678   4.491   5.957  0.0071  0.2387 -0.2199
    3TYR    SC1  448   0.980   4.588   6.031  0.1659 -0.0489  0.0974
    3TYR    SC2  449   1.232   4.601   6.127  0.1618 -0.0463  0.1078
    3TYR    SC3  450   1.160   4.397   5.965  0.1928 -0.0037  0.0399
    1TYR     BB  451   2.258   4.220   5.078  0.0789  0.2889  0.0899
    1TYR    SC1  452   2.482   4.402   5.179 -0.4221  0.1082  0.2860
    1TYR    SC2  453   2.737   4.475   5.233 -0.2749 -0.2189  0.0747
    1TYR    SC3  454   2.579   4.378   5.430 -0.1141 -0.3581  0.1372
    2THR     BB  455   2.160   4.414   4.839 -0.3179  0.1898  0.0778
    2THR    SC1  456   1.999   4.297   4.671 -0.2123  0.3419 -0.1345
    3TYR     BB  457   2.287   4.665   4.788  0.5038  0.0272 -0.0412
    3TYR    SC1  458   2.513   4.803   4.940  0.1028 -0.0335  0.2475
    3TYR    SC2  459   2.779   4.824   4.979  0.1280  0.0510  0.0455
    3TYR    SC3  460   2.624   5.044   4.990  0.1374  0.0826 -0.3089
    1TYR     BB  461   1.214   2.327   2.037 -0.1957  0.0390 -0.0574
    1TYR    SC1  462   0.985   2.387   2.290 -0.0349 -0.3418  0.0303
    1TYR    SC2  463   0.746   2.373   2.415 -0.1080  0.1444 -0.0312
    1TYR    SC3  464   0.943   2.525   2.518  0.0049  0.1453 -0.2415
    2THR     BB  465   1.419   2.624   2.090  0.0919 -0.1475  0.1154
    2THR    SC1  466   1.306   2.794   2.251  0.1484  0.1489 -0.1449
    3TYR     BB  467   1.763   2.611   2.087  0.2223  0.1413  0.1134
    3TYR    SC1  468   1.887   2.623   2.383 -0.1237  0.0806 -0.2133
    3TYR    SC2  469   1.875   2.712   2.637  0.1306  0.4726 -0.3262
    3TYR    SC3  470   2.106   2.612   2.540 -0.0956 -0.1666 -0.2653
    1TYR     BB  471   1.431   2.628   0.679  0.3010 -0.1374 -0.1393
    1TYR    SC1  472   1.586   2.798   0.517 -0.2451 -0.1713 -0.3435
    1TYR    SC2  473   1.530   3.004   0.351 -0.0018  0.3806  0.2122
    1TYR    SC3  474   1.778   2.896   0.354 -0.1121  0.1034 -0.0345
    2THR     BB  475   1.285   2.486   0.873 -0.1044  0.0809  0.0105
    2THR    SC1  476   1.223   2.579   1.108  0.0946  0.1905  0.0224
    3TYR     BB  477   1.013   2.305   0.772  0.3977  0.1188 -0.0575
    3TYR    SC1  478   1.146   2.029   0.854  0.3974  0.4414 -0.2901
    3TYR    SC2  479   1.131   1.790   0.979 -0.1155  0.5628 -0.0873
    3TYR    SC3  480   1.316   1.972   1.056 -0.1242  0.4627  0.1857
    1TYR     BB  481   6.934   4.262   3.450 -0.5714  0.0033  0.2106
    1TYR    SC1  482   7.141   4.067   3.663 -0.0227 -0.0823  0.1047
    1TYR    SC2  483   7.378   3.939   3.640  0.1925  0.3043  0.0557
    1TYR    SC3  484   7.226   3.903   3.861  0.1150 -0.2197 -0.0642
    2THR     BB  485   7.133   4.123   3.175 -0.0391 -0.2879 -0.0208
    2THR    SC1  486   6.970   4.079   2.977 -0.0453 -0.0021 -0.0853
    3TYR     BB  487   7.417   4.231   3.108 -0.0794 -0.1189 -0.0100
    3TYR    SC1  488   7.409   4.385   2.835 -0.0496  0.3099  0.1139
    3TYR    SC2  489   7.346   4.303   2.586  0.5481  0.0547  0.0236
    3TYR    SC3  490   7.407   4.562   2.631  0.1020  0.1761 -0.0076
    1TYR     BB  491   1.846   1.975   0.452 -0.1035 -0.1103 -0.0122
    1TYR    SC1  492   1.907   1.705   0.436 -0.3701 -0.2664  0.2273
    1TYR    SC2  493   1.854   1.441   0.452 -0.1429 -0.3301  0.0006
    1TYR    SC3  494   2.097   1.525   0.370 -0.3302 -0.0520 -0.3015
    2THR     BB  495   1.599   2.073   0.603 -0.2829  0.1493  0.4173
    2THR    SC1  496   1.391   2.170   0.482 -0.1399  0.0524  0.0802
    3TYR     BB  497   1.706   2.273   0.875  0.1790 -0.1441  0.0770
    3TYR    SC1  498   1.893   2.449   0.775 -0.4362  0.4373 -0.2044
    3TYR    SC2  499   1.995   2.608   0.582 -0.2456  0.6540  0.0665
    3TYR    SC3  500   2.077   2.635   0.838 -0.0672 -0.0048  0.1016
    1TYR     BB  501   1.574   1.866   6.631  0.1691  0.0357  0.2313
    1TYR    SC1  502   1.832   1.734   6.561  0.0062  0.0135  0.0423
    1TYR    SC2  503   2.081   1.630   6.577  0.0191  0.0019 -0.1887
    1TYR    SC3  504   2.030   1.832   6.405 -0.1103  0.0708 -0.0721
    2THR     BB  505   1.422   1.855   6.975  0.0086 -0.2274  0.2696
    2THR    SC1  506   1.173   1.908   6.927  0.0623  0.1959  0.4112
    3TYR     BB  507   1.587   1.777   7.196  0.1689 -0.0436  0.1525
    3TYR    SC1  508   1.661   1.981   7.437  0.3165 -0.4477  0.5821
    3TYR    SC2  509   1.625   2.137   7.654  0.0345 -0.2279  0.3850
    3TYR    SC3  510   1.867   2.125   7.536  0.0303  0.1932  0.3133
    1TYR     BB  511   2.533   1.158   2.401  0.0480 -0.2583  0.0282
    1TYR    SC1  512   2.300   1.173   2.569 -0.1269 -0.2399 -0.0009
    1TYR    SC2  513   2.113   1.363   2.606  0.1014 -0.0098  0.0060
    1TYR    SC3  514   2.185   1.204   2.812  0.4089  0.3723  0.2111
    2THR     BB  515   2.767   1.176   2.677 -0.2039 -0.1086  0.1956
    2THR    SC1  516   2.989   1.232   2.554 -0.2495  0.2176  0.2501
    3TYR     BB  517   2.744   0.904   2.856 -0.2744 -0.2904 -0.0345
    3TYR    SC1  518   2.467   0.761   2.799 -0.0321  0.2555 -0.0234
    3TYR    SC2  519   2.252   0.615   2.723  0.1060 -0.0746  0.1939
    3TYR    SC3  520   2.269   0.710   2.976  0.0644  0.2449  0.0828
    1TYR     BB  521   0.369   5.082   4.450  0.0888  0.0080 -0.1148
    1TYR    SC1  522   0.391   4.874   4.657  0.0277  0.0246 -0.0133
    1TYR    SC2  523   0.319   4.697   4.848  0.2558  0.0942  0.1423
    1TYR    SC3  524   0.483   4.621   4.647  0.1171  0.0541  0.0431
    2THR     BB  525   0.359   5.388   4.401 -0.2182 -0.1687 -0.3509
    2THR    SC1  526   0.428   5.531   4.195  0.0096 -0.0185 -0.1769
    3TYR     BB  527   0.555   5.553   4.652  0.2325  0.2406  0.4474
    3TYR    SC1  528   0.808   5.619   4.566  0.0572  0.0644 -0.0963
    3TYR    SC2  529   1.066   5.554   4.520  0.0892 -0.1953  0.3779
    3TYR    SC3  530   1.003   5.804   4.599  0.1444 -0.0335 -0.0558
    1TYR     BB  531   0.604   1.353   0.356 -0.2269 -0.0913  0.0689
    1TYR    SC1  532   0.777   1.389   0.107  0.0139 -0.0944 -0.4679
    1TYR    SC2  533   0.904   1.251  -0.087  0.6403 -0.1720 -0.0426
    1TYR    SC3  534   1.001   1.489  -0.007  0.2077  0.0085 -0.0236
    2THR     BB  535   0.769   1.164   0.592  0.0517 -0.0648  0.0959
    2THR    SC1  536   0.980   1.288   0.680 -0.0805  0.2331  0.0074
    3TYR     BB  537   0.626   0.909   0.713 -0.0659 -0.0990 -0.4444
    3TYR    SC1  538   0.578   0.925   0.980 -0.0368 -0.2872  0.0399
    3TYR    SC2  539   0.547   0.826   1.229  0.4221 -0.0288  0.2158
    3TYR    SC3  540   0.451   1.071   1.168  0.1606 -0.1600  0.0781
    1TYR     BB  541   2.988   1.450   0.502 -0.0791 -0.2199 -0.2814
    1TYR    SC1  542   2.877   1.216   0.463 -0.0676 -0.0075 -0.1239
    1TYR    SC2  543   2.734   1.096   0.268 -0.3111  0.1215 -0.0298
    1TYR    SC3  544   2.861   0.947   0.455 -0.3985  0.0060 -0.0612
    2THR     BB  545   2.856   1.765   0.473 -0.1891  0.0220 -0.1997
    2THR    SC1  546   2.601   1.724   0.503 -0.1972  0.2161  0.0305
    3TYR     BB  547   3.022   2.063   0.486 -0.0492  0.0750  0.2427
    3TYR    SC1  548   3.246   2.061   0.669 -0.0614  0.2010  0.2501
    3TYR    SC2  549   3.443   1.929   0.799  0.1568 -0.1171 -0.3551
    3TYR    SC3  550   3.419   2.196   0.827  0.2758 -0.1492  0.2001
    1TYR     BB  551   0.637   5.950   6.569 -0.1754  0.2238 -0.0298
    1TYR    SC1  552   0.655   5.750   6.794  0.1826  0.0966 -0.1058
    1TYR    SC2  553   0.641   5.533   6.954  0.5592 -0.1589 -0.3990
    1TYR    SC3  554   0.779   5.750   7.034 -0.0934  0.1335  0.0427
    2THR     BB  555   0.643   5.751   6.307  0.1322 -0.0079 -0.0274
    2THR    SC1  556   0.512   5.532   6.255 -0.2893  0.1798  0.1866
    3TYR     BB  557   0.647   5.961   6.052  0.2859 -0.3268  0.0900
    3TYR    SC1  558   0.441   6.161   5.975 -0.0246 -0.0446  0.0085
    3TYR    SC2  559   0.250   6.345   6.026 -0.0995 -0.1211  0.0056
    3TYR    SC3  560   0.387   6.353   5.793  0.1475  0.1458  0.1516
    1TYR     BB  561   1.813   2.189   7.007  0.2098 -0.3114 -0.1266
    1TYR    SC1  562   2.079   2.108   6.906 -0.1325  0.2692 -0.0592
    1TYR    SC2  563   2.296   2.229   6.800 -0.1196  0.3898  0.1010
    1TYR    SC3  564   2.275   1.960   6.794  0.1258  0.3634  0.2514
    2THR     BB  565   1.919   2.516   7.222 -0.0030 -0.0146 -0.2814
    2THR    SC1  566   2.175   2.522   7.267 -0.0577 -0.1015  0.0835
    3TYR     BB  567   1.705   2.678   7.372  0.1471  0.1040 -0.1613
    3TYR    SC1  568   1.813   2.580   7.683  0.3084  0.0159 -0.0346
    3TYR    SC2  569   1.764   2.453   7.916 -0.0602 -0.0349 -0.1326
    3TYR    SC3  570   2.013   2.453   7.813  0.0449 -0.2728  0.1063
    1TYR     BB  571   0.532   4.173   4.809  0.1772 -0.1732  0.0674
    1TYR    SC1  572   0.646   4.412   4.971 -0.2640  0.0433  0.1840
    1TYR    SC2  573   0.715   4.473   5.226  0.1221 -0.1438  0.1339
    1TYR    SC3  574   0.691   4.669   5.042 -0.2988  0.0087  0.3360
    2THR     BB  575   0.163   4.141   4.643  0.0458  0.1845 -0.0113
    2THR    SC1  576   0.183   4.236   4.402 -0.3149  0.3292  0.0075
    3TYR     BB  577  -0.051   4.012   4.719  0.1336  0.5330  0.0147
    3TYR    SC1  578  -0.169   3.765   4.663 -0.1443 -0.1612  0.3547
    3TYR    SC2  579  -0.409   3.652   4.610 -0.1213  0.0338 -0.2676
    3TYR    SC3  580  -0.181   3.514   4.563 -0.1006 -0.0171 -0.0335
    1TYR     BB  581   1.646   5.188   4.845 -0.1538  0.2720 -0.0917
    1TYR    SC1  582   1.811   5.467   4.860 -0.0644  0.2950  0.0180
    1TYR    SC2  583   1.929   5.669   4.995 -0.0444  0.3723 -0.1125
    1TYR    SC3  584   1.943   5.661   4.726 -0.1979  0.2929 -0.1194
    2THR     BB  585   1.349   5.195   4.929  0.2911 -0.3515 -0.1011
    2THR    SC1  586   1.186   5.043   5.063 -0.0436 -0.1486 -0.2607
    3TYR     BB  587   1.291   5.528   4.923 -0.0606 -0.1266 -0.1545
    3TYR    SC1  588   1.450   5.680   4.739  0.5294 -0.1258  0.0721
    3TYR    SC2  589   1.547   5.603   4.499  0.3140  0.1790 -0.1224
    3TYR    SC3  590   1.518   5.865   4.555 -0.3198  0.1128 -0.0546
    1TYR     BB  591   0.719   4.745   6.909 -0.0361  0.0128 -0.1322
    1TYR    SC1  592   0.580   4.488   6.990  0.1979 -0.3205 -0.1811
    1TYR    SC2  593   0.476   4.299   6.826 -0.0419 -0.3445 -0.0081
    1TYR    SC3  594   0.467   4.266   7.094 -0.5359  0.1201  0.0547
    2THR     BB  595   0.523   5.011   6.818 -0.0601 -0.0186  0.0874
    2THR    SC1  596   0.446   5.116   7.044  0.0480 -0.0807  0.1544
    3TYR     BB  597   0.574   5.151   6.573  0.0273  0.0346  0.1708
    3TYR    SC1  598   0.574   5.048   6.271  0.3026  0.0913 -0.2258
    3TYR    SC2  599   0.601   4.973   6.013  0.0218 -0.0400 -0.2214
    3TYR    SC3  600   0.377   4.908   6.150  0.1477  0.0673  0.0433
    1TYR     BB  601   0.174   4.276   5.139 -0.0032  0.0837  0.0182
    1TYR    SC1  602   0.070   4.071   5.338  0.0372  0.1718  0.0209
    1TYR    SC2  603   0.176   3.870   5.484  0.1028  0.4331  0.3494
    1TYR    SC3  604  -0.081   3.944   5.523  0.0579  0.3723  0.1800
    2THR     BB  605   0.083   4.568   5.324  0.2323 -0.2117  0.0911
    2THR    SC1  606   0.278   4.739   5.331 -0.0761  0.1792 -0.2626
    3TYR     BB  607  -0.170   4.689   5.512  0.1033 -0.2028  0.0217
    3TYR    SC1  608  -0.318   4.459   5.735  0.0092 -0.1449 -0.2304
    3TYR    SC2  609  -0.500   4.375   5.916  0.0468 -0.0016 -0.1240
    3TYR    SC3  610  -0.363   4.195   5.769  0.3113 -0.1454  0.2806
    1TYR     BB  611   2.721   0.719   1.023 -0.2772 -0.0414  0.2955
    1TYR    SC1  612   2.397   0.687   1.100 -0.0084 -0.1529  0.0887
    1TYR    SC2  613   2.153   0.663   0.988  0.0498 -0.3592 -0.0005
    1TYR    SC3  614   2.187   0.608   1.250 -0.0584 -0.0162  0.0927
    2THR     BB  615   2.833   0.968   1.141  0.4433  0.0458 -0.0162
    2THR    SC1  616   2.889   0.960   1.394  0.2223  0.1601  0.0393
    3TYR     BB  617   2.864   1.232   0.931 -0.1007  0.1114  0.2880
    3TYR    SC1  618   2.571   1.190   0.810  0.0081 -0.1158  0.0564
    3TYR    SC2  619   2.432   1.186   0.579  0.1744 -0.0883 -0.0458
    3TYR    SC3  620   2.349   1.038   0.789  0.0124 -0.1002 -0.1166
    1TYR     BB  621   2.549   1.567   1.142  0.0391  0.1464 -0.0090
    1TYR    SC1  622   2.566   1.841   1.258  0.1258  0.3576 -0.1041
    1TYR    SC2  623   2.433   2.031   1.395 -0.0374  0.2545 -0.1166
    1TYR    SC3  624   2.703   2.026   1.399 -0.0364  0.1712  0.3176
    2THR     BB  625   2.242   1.592   0.976  0.0507 -0.1283  0.2240
    2THR    SC1  626   2.073   1.418   0.884 -0.1007  0.0036  0.2467
    3TYR     BB  627   2.231   1.893   0.807 -0.1768  0.1631 -0.1299
    3TYR    SC1  628   2.437   2.115   0.881 -0.0007  0.0589 -0.4093
    3TYR    SC2  629   2.498   2.337   1.023 -0.1497 -0.2468  0.1737
    3TYR    SC3  630   2.674   2.240   0.842  0.1176  0.0845  0.2430
    1TYR     BB  631   1.178   5.314   5.495 -0.1729  0.5043 -0.0339
    1TYR    SC1  632   1.204   5.605   5.540 -0.0837  0.1251 -0.1055
    1TYR    SC2  633   1.317   5.851   5.529  0.1668  0.0346  0.2440
    1TYR    SC3  634   1.059   5.823   5.605  0.1866  0.1794  0.3702
    2THR     BB  635   1.294   5.180   5.772 -0.0737 -0.2367 -0.2164
    2THR    SC1  636   1.139   5.008   5.890  0.0938 -0.1524  0.1453
    3TYR     BB  637   1.597   5.258   5.840  0.3354 -0.5018 -0.3091
    3TYR    SC1  638   1.646   5.107   6.092 -0.1146 -0.0256 -0.1724
    3TYR    SC2  639   1.704   5.037   6.347 -0.1935  0.0716 -0.1272
    3TYR    SC3  640   1.588   4.858   6.181 -0.2165  0.0338 -0.0707
    1TYR     BB  641   6.574   5.063   6.143  0.3245  0.0935 -0.2074
    1TYR    SC1  642   6.491   5.058   6.438 -0.2610 -0.0028 -0.1429
    1TYR    SC2  643   6.376   5.150   6.664  0.2975  0.0112  0.1586
    1TYR    SC3  644   6.426   4.886   6.635  0.1648 -0.0001  0.0129
    2THR     BB  645   6.833   5.348   6.106  0.1478 -0.1256 -0.2244
    2THR    SC1  646   7.079   5.263   6.112  0.1843 -0.0150  0.0996
    3TYR     BB  647   6.738   5.551   6.373 -0.0045  0.2989  0.1581
    3TYR    SC1  648   6.418   5.560   6.324  0.0098  0.3855  0.0686
    3TYR    SC2  649   6.167   5.462   6.335  0.0941  0.1716  0.1321
    3TYR    SC3  650   6.211   5.709   6.237 -0.1146  0.1171 -0.1110
    1TYR     BB  651   7.563   5.866   5.006  0.2769  0.2545  0.0423
    1TYR    SC1  652   7.646   6.146   4.921  0.2744  0.0012  0.0644
    1TYR    SC2  653   7.811   6.319   4.796  0.0630  0.2967  0.1780
    1TYR    SC3  654   7.554   6.387   4.841 -0.0933 -0.1442  0.0237
    2THR     BB  655   7.716   5.625   5.085  0.3469 -0.0912  0.1993
    2THR    SC1  656   7.810   5.468   4.901 -0.0805 -0.1616  0.0266
    3TYR     BB  657   7.711   5.540   5.441 -0.0973 -0.1549  0.0012
    3TYR    SC1  658   7.825   5.330   5.623 -0.0770 -0.0922 -0.0570
    3TYR    SC2  659   7.929   5.264   5.863 -0.0397 -0.2446 -0.1137
    3TYR    SC3  660   7.934   5.086   5.660 -0.0660 -0.1152 -0.2296
    1TYR     BB  661   0.956   2.730   0.571  0.0964 -0.0207  0.0802
    1TYR    SC1  662   0.698   2.838   0.462  0.0430 -0.1271 -0.0305
    1TYR    SC2  663   0.433   2.789   0.471  0.0174  0.0234  0.0913
    1TYR    SC3  664   0.531   2.968   0.295  0.1001 -0.3746 -0.2897
    2THR     BB  665   1.065   2.545   0.329 -0.0287  0.3369 -0.2629
    2THR    SC1  666   0.927   2.328   0.292  0.2128  0.0288  0.4355
    3TYR     BB  667   1.302   2.582   0.157 -0.1678  0.0074  0.2749
    3TYR    SC1  668   1.296   2.438  -0.105  0.0206  0.0482 -0.1705
    3TYR    SC2  669   1.111   2.345  -0.278  0.2236 -0.0114 -0.3618
    3TYR    SC3  670   1.373   2.318  -0.334  0.3014 -0.2172  0.0525
    1TYR     BB  671   0.812   4.282   4.415 -0.1642 -0.1058  0.3232
    1TYR    SC1  672   0.959   4.173   4.127 -0.0233 -0.0412 -0.0242
    1TYR    SC2  673   1.186   4.069   4.025  0.0219 -0.0656  0.0993
    1TYR    SC3  674   0.948   3.956   3.967 -0.0178  0.2491 -0.4405
    2THR     BB  675   1.034   4.133   4.624 -0.0050 -0.1662 -0.1044
    2THR    SC1  676   1.212   3.951   4.570  0.1857 -0.0150 -0.0016
    3TYR     BB  677   1.137   4.264   4.967 -0.3123 -0.2781 -0.1549
    3TYR    SC1  678   1.261   4.017   5.099  0.0890  0.1651  0.1138
    3TYR    SC2  679   1.209   3.825   5.281 -0.1756  0.1237  0.0002
    3TYR    SC3  680   1.394   3.783   5.090  0.0001  0.1117  0.1686
    1TYR     BB  681   1.793   1.811   0.959 -0.0583 -0.2687 -0.2422
    1TYR    SC1  682   1.599   1.633   0.827  0.0445 -0.2839 -0.1448
    1TYR    SC2  683   1.453   1.536   0.622 -0.1782  0.0288 -0.1416
    1TYR    SC3  684   1.424   1.431   0.869 -0.0501 -0.2200 -0.2282
    2THR     BB  685   1.825   1.924   1.255 -0.0429 -0.2338 -0.1998
    2THR    SC1  686   2.004   2.105   1.307 -0.2457 -0.0936  0.0394
    3TYR     BB  687   1.619   1.867   1.430  0.1435  0.0574 -0.1643
    3TYR    SC1  688   1.385   1.692   1.373  0.0090 -0.2031 -0.0956
    3TYR    SC2  689   1.145   1.606   1.464 -0.2636  0.3227 -0.2676
    3TYR    SC3  690   1.278   1.463   1.277 -0.2670 -0.1496  0.0710
    1TYR     BB  691   0.879   0.478   0.684  0.2472  0.0179 -0.2540
    1TYR    SC1  692   0.598   0.359   0.786 -0.0754 -0.2812 -0.1641
    1TYR    SC2  693   0.414   0.513   0.909  0.0814  0.0166 -0.2886
    1TYR    SC3  694   0.433   0.250   0.970  0.0068  0.1032  0.1553
    2THR     BB  695   1.107   0.442   0.887 -0.2261 -0.2232  0.0443
    2THR    SC1  696   1.323   0.358   0.769 -0.0691  0.1650  0.0343
    3TYR     BB  697   1.010   0.460   1.185  0.1945  0.0121  0.0509
    3TYR    SC1  698   0.707   0.420   1.316 -0.3249 -0.1961  0.0570
    3TYR    SC2  699   0.452   0.407   1.405 -0.3773 -0.1316 -0.0806
    3TYR    SC3  700   0.640   0.534   1.551 -0.4435 -0.1016 -0.0211
    1TYR     BB  701   0.709   1.904   0.100  0.3315  0.2324 -0.0333
    1TYR    SC1  702   0.971   1.948  -0.032  0.2870 -0.1859 -0.4233
    1TYR    SC2  703   1.228   1.972   0.047  0.2368 -0.0252 -0.3017
    1TYR    SC3  704   1.170   1.935  -0.214  0.3794  0.0201 -0.3406
    2THR     BB  705   0.793   1.883   0.458 -0.0442  0.1178 -0.1592
    2THR    SC1  706   1.018   1.759   0.418  0.0062  0.2393 -0.2613
    3TYR     BB  707   0.649   1.829   0.785  0.1400 -0.0136 -0.0271
    3TYR    SC1  708   0.408   1.632   0.759 -0.3125 -0.0842 -0.0265
    3TYR    SC2  709   0.345   1.374   0.812  0.0806 -0.2191 -0.1690
    3TYR    SC3  710   0.178   1.527   0.665 -0.1000 -0.4282 -0.1866
    1TYR     BB  711   2.028   5.241   5.386  0.1825  0.0555 -0.0662
    1TYR    SC1  712   2.127   5.261   5.107 -0.1161 -0.1397  0.0969
    1TYR    SC2  713   2.142   5.111   4.883 -0.1404 -0.0115  0.0081
    1TYR    SC3  714   2.255   5.356   4.889 -0.0943 -0.0353  0.1546
    2THR     BB  715   1.650   5.279   5.320 -0.1578 -0.0783  0.1280
    2THR    SC1  716   1.658   5.533   5.374  0.1041 -0.0937  0.1798
    3TYR     BB  717   1.573   5.026   5.372 -0.1651  0.0509  0.1364
    3TYR    SC1  718   1.669   4.859   5.582 -0.1378  0.1140 -0.1057
    3TYR    SC2  719   1.583   4.698   5.781  0.0745  0.2664  0.1168
    3TYR    SC3  720   1.780   4.615   5.616 -0.1101  0.1350 -0.0432
    1TYR     BB  721   2.046   0.750   7.362 -0.0390  0.0665 -0.2385
    1TYR    SC1  722   2.245   0.751   7.177 -0.1086  0.2092 -0.1362
    1TYR    SC2  723   2.374   0.605   6.990 -0.1681  0.3311 -0.2748
    1TYR    SC3  724   2.511   0.781   7.143 -0.0464 -0.0498  0.0781
    2THR     BB  725   1.874   0.548   7.637 -0.1709 -0.0004  0.1460
    2THR    SC1  726   1.725   0.744   7.720  0.0739  0.2335  0.0560
    3TYR     BB  727   2.097   0.408   7.824  0.4222  0.0548 -0.0714
    3TYR    SC1  728   2.311   0.538   8.027  0.0635  0.0415 -0.2804
    3TYR    SC2  729   2.373   0.630   8.273  0.0162  0.2763 -0.3540
    3TYR    SC3  730   2.535   0.684   8.064  0.1153 -0.0175 -0.3578
    1TYR     BB  731   7.036   4.388   3.993 -0.1254 -0.1132 -0.1421
    1TYR    SC1  732   7.262   4.268   4.112  0.1356  0.1176 -0.0920
    1TYR    SC2  733   7.372   4.299   4.357  0.1152 -0.0573 -0.0594
    1TYR    SC3  734   7.309   4.052   4.267 -0.2394  0.0342 -0.0818
    2THR     BB  735   6.732   4.123   3.983 -0.2039  0.1207  0.0749
    2THR    SC1  736   6.601   4.078   3.762  0.1194  0.2146 -0.1442
    3TYR     BB  737   6.809   3.998   4.225 -0.1935  0.2985 -0.0057
    3TYR    SC1  738   6.705   3.778   4.411  0.1569 -0.2593 -0.1441
    3TYR    SC2  739   6.792   3.666   4.641  0.1342  0.0364  0.0154
    3TYR    SC3  740   6.530   3.658   4.578  0.1199  0.0751  0.0694
    1TYR     BB  741   0.419   3.404   4.084  0.2631 -0.4102  0.3382
    1TYR    SC1  742   0.639   3.522   3.876 -0.0388 -0.1421 -0.2919
    1TYR    SC2  743   0.907   3.500   3.857 -0.0201 -0.1036 -0.0935
    1TYR    SC3  744   0.757   3.516   3.633  0.1384 -0.1705 -0.2065
    2THR     BB  745   0.135   3.620   3.914 -0.1720  0.0433 -0.0949
    2THR    SC1  746  -0.045   3.665   4.096 -0.0681  0.0689  0.0026
    3TYR     BB  747   0.231   3.571   3.617  0.0779 -0.0591 -0.0069
    3TYR    SC1  748   0.054   3.649   3.409  0.1461 -0.0041 -0.1014
    3TYR    SC2  749  -0.184   3.587   3.298  0.1755 -0.2168 -0.0512
    3TYR    SC3  750  -0.049   3.806   3.215 -0.2062  0.1213  0.1732
    1TYR     BB  751   6.963   5.883   4.943  0.2651  0.0020 -0.1763
    1TYR    SC1  752   6.958   6.188   4.924  0.0700  0.1029  0.2057
    1TYR    SC2  753   6.837   6.393   4.796  0.0176 -0.1589 -0.1862
    1TYR    SC3  754   6.934   6.428   5.046 -0.2384  0.2559 -0.1327
    2THR     BB  755   6.714   5.747   5.055 -0.2065 -0.1356 -0.0073
    2THR    SC1  756   6.475   5.820   4.983 -0.2009 -0.1727 -0.0641
    3TYR     BB  757   6.752   5.443   5.088 -0.0294 -0.2181 -0.1865
    3TYR    SC1  758   6.498   5.334   5.039 -0.0014  0.1145  0.1676
    3TYR    SC2  759   6.234   5.389   5.054 -0.0194  0.0197  0.2098
    3TYR    SC3  760   6.317   5.133   5.027  0.0634  0.0614  0.0531
    1TYR     BB  761   6.841   4.696   3.692  0.2420  0.0467 -0.0003
    1TYR    SC1  762   6.637   4.631   3.455  0.2640 -0.2104 -0.0144
    1TYR    SC2  763   6.498   4.773   3.272  0.1204 -0.1241  0.1578
    1TYR    SC3  764   6.494   4.503   3.265  0.2432 -0.1241 -0.0577
    2THR     BB  765   7.028   4.881   3.768 -0.0571 -0.0166 -0.1713
    2THR    SC1  766   7.187   4.839   3.970 -0.1432  0.0102 -0.0976
    3TYR     BB  767   6.970   5.257   3.820  0.0191  0.1533  0.4482
    3TYR    SC1  768   7.134   5.461   3.685  0.1857 -0.1349 -0.4185
    3TYR    SC2  769   7.343   5.632   3.703 -0.0281  0.0977  0.0891
    3TYR    SC3  770   7.150   5.673   3.518 -0.0038  0.3264  0.1108
    1TYR     BB  771   1.950   0.967   0.508  0.0269 -0.2103  0.1352
    1TYR    SC1  772   1.914   0.674   0.579 -0.2138 -0.0848  0.1228
    1TYR    SC2  773   1.795   0.433   0.554 -0.1106 -0.1602  0.3331
    1TYR    SC3  774   1.781   0.566   0.788 -0.1933  0.0549  0.2089
    2THR     BB  775   2.159   1.028   0.184  0.1281  0.0491 -0.1139
    2THR    SC1  776   1.984   1.134   0.023 -0.0303  0.0671  0.0656
    3TYR     BB  777   2.441   0.862  -0.024  0.2179 -0.1858 -0.1041
    3TYR    SC1  778   2.519   0.533  -0.105 -0.0814 -0.1272 -0.1144
    3TYR    SC2  779   2.487   0.283  -0.203 -0.0781 -0.1620 -0.0291
    3TYR    SC3  780   2.633   0.322   0.020  0.0213 -0.0693 -0.1085
    1TYR     BB  781   1.669   0.905   6.978 -0.1077 -0.1728  0.0611
    1TYR    SC1  782   1.924   0.991   6.860 -0.0079  0.0994 -0.3119
    1TYR    SC2  783   2.029   1.237   6.819  0.1013  0.1221  0.0578
    1TYR    SC3  784   2.190   1.021   6.826  0.0437  0.0777  0.0297
    2THR     BB  785   1.672   1.081   7.269  0.1053 -0.0679 -0.0242
    2THR    SC1  786   1.737   1.333   7.268 -0.0135 -0.0366 -0.0923
    3TYR     BB  787   1.348   1.067   7.449  0.1012 -0.1319  0.0044
    3TYR    SC1  788   1.323   1.140   7.740  0.0613 -0.2326  0.0474
    3TYR    SC2  789   1.280   1.348   7.906  0.0925  0.1811 -0.4323
    3TYR    SC3  790   1.524   1.232   7.895  0.0166 -0.0463 -0.0026
    1TYR     BB  791   7.261   4.714   5.100  0.1899  0.0274 -0.1193
    1TYR    SC1  792   7.442   4.916   5.071  0.0502  0.0034 -0.0999
    1TYR    SC2  793   7.687   4.983   4.979  0.0628  0.1917  0.0626
    1TYR    SC3  794   7.562   5.141   5.158 -0.3274  0.2882 -0.2762
    2THR     BB  795   7.375   4.422   4.933 -0.0746  0.0087 -0.2212
    2THR    SC1  796   7.533   4.511   4.747  0.0890 -0.3130 -0.2450
    3TYR     BB  797   7.288   4.143   5.140  0.0872 -0.0690 -0.0791
    3TYR    SC1  798   7.309   3.855   5.065 -0.0251  0.1421  0.1651
    3TYR    SC2  799   7.498   3.663   5.088 -0.0531  0.0891 -0.0238
    3TYR    SC3  800   7.243   3.595   5.028 -0.0603  0.1855 -0.1047
    1TYR     BB  801   2.334   1.997   7.289  0.0298 -0.2338 -0.1344
    1TYR    SC1  802   2.525   1.830   7.122 -0.3955  0.0121 -0.0893
    1TYR    SC2  803   2.532   1.653   6.919 -0.1059  0.1434 -0.2002
    1TYR    SC3  804   2.724   1.649   7.108 -0.3191  0.0862  0.0217
    2THR     BB  805   2.111   1.712   7.311 -0.0356 -0.2949 -0.0163
    2THR    SC1  806   2.069   1.627   7.069 -0.2456 -0.1701 -0.0273
    3TYR     BB  807   2.012   1.615   7.561 -0.0755 -0.0985  0.1115
    3TYR    SC1  808   1.742   1.614   7.694 -0.0228  0.0857 -0.0100
    3TYR    SC2  809   1.548   1.690   7.865 -0.0477 -0.6311  0.3269
    3TYR    SC3  810   1.482   1.586   7.625 -0.0295 -0.1661  0.1053
    1TYR     BB  811   0.362   6.130   4.128  0.0538  0.1015 -0.0776
    1TYR    SC1  812   0.284   5.939   3.938 -0.1232 -0.0288  0.0011
    1TYR    SC2  813   0.239   5.711   3.801 -0.1357 -0.0863  0.1000
    1TYR    SC3  814   0.121   5.940   3.723 -0.2003 -0.1335  0.0580
    2THR     BB  815   0.452   6.028   4.394  0.0359 -0.0508  0.1273
    2THR    SC1  816   0.615   6.132   4.567 -0.0898  0.5108 -0.0641
    3TYR     BB  817   0.210   5.912   4.514  0.3247  0.0271 -0.3015
    3TYR    SC1  818  -0.010   5.835   4.319  0.1949  0.0546  0.1301
    3TYR    SC2  819  -0.050   5.674   4.106 -0.0676  0.2087  0.0572
    3TYR    SC3  820  -0.181   5.910   4.124  0.4621  0.5251  0.0556
    1TYR     BB  821   1.915   5.280   4.388 -0.4129 -0.2740  0.3848
    1TYR    SC1  822   2.090   5.175   4.136  0.1720 -0.2602  0.1126
    1TYR    SC2  823   2.311   5.170   3.981  0.0023  0.0281 -0.1517
    1TYR    SC3  824   2.082   5.056   3.894  0.0194 -0.2022  0.0879
    2THR     BB  825   1.601   5.198   4.252  0.1554 -0.2621 -0.2934
    2THR    SC1  826   1.590   5.303   4.014 -0.0596  0.2231 -0.0842
    3TYR     BB  827   1.329   5.107   4.441  0.2920 -0.1467  0.1749
    3TYR    SC1  828   1.078   5.178   4.290 -0.0245 -0.1164 -0.0308
    3TYR    SC2  829   1.045   5.282   4.043  0.1845  0.2423  0.0840
    3TYR    SC3  830   0.853   5.314   4.229  0.2696  0.4890  0.1353
    1TYR     BB  831   0.838   4.874   3.566  0.0960 -0.1671 -0.4204
    1TYR    SC1  832   0.722   4.863   3.314  0.1907  0.3568  0.1275
    1TYR    SC2  833   0.644   4.748   3.083 -0.1359 -0.0238  0.4096
    1TYR    SC3  834   0.600   5.012   3.124  0.1036  0.0969 -0.0259
    2THR     BB  835   0.690   5.023   3.782  0.2578 -0.0117  0.2021
    2THR    SC1  836   0.487   4.994   3.942  0.2678 -0.0012  0.2168
    3TYR     BB  837   0.572   5.408   3.655  0.0218 -0.2031  0.1473
    3TYR    SC1  838   0.739   5.366   3.393  0.3603 -0.1396  0.2183
    3TYR    SC2  839   0.821   5.392   3.137  0.0562 -0.2562  0.1038
    3TYR    SC3  840   0.994   5.309   3.327  0.2346 -0.3651 -0.1018
    1TYR     BB  841   6.885   5.159   3.336 -0.2438  0.0788 -0.2758
    1TYR    SC1  842   6.815   5.054   3.070  0.2011 -0.0368 -0.0419
    1TYR    SC2  843   6.701   5.038   2.825 -0.1351 -0.0438  0.1086
    1TYR    SC3  844   6.970   5.036   2.849 -0.0880  0.2465 -0.2799
    2THR     BB  845   7.243   5.202   3.306  0.0127  0.1229  0.2169
    2THR    SC1  846   7.319   5.344   3.103  0.1834  0.1018  0.2634
    3TYR     BB  847   7.390   5.067   3.523  0.0424 -0.1918 -0.2903
    3TYR    SC1  848   7.501   5.221   3.759  0.2719  0.1632  0.0129
    3TYR    SC2  849   7.491   5.281   4.022  0.2057  0.2034  0.0017
    3TYR    SC3  850   7.730   5.252   3.899  0.2377  0.0592  0.0939
    1TYR     BB  851   0.220   6.065   5.391 -0.0181 -0.0708 -0.0536
    1TYR    SC1  852   0.214   6.385   5.376  0.0033 -0.0293  0.1957
    1TYR    SC2  853   0.106   6.601   5.254 -0.2297 -0.1001  0.2704
    1TYR    SC3  854   0.337   6.625   5.390  0.0403 -0.0184 -0.1771
    2THR     BB  855   0.550   5.967   5.488  0.0461 -0.1354  0.4317
    2THR    SC1  856   0.725   6.159   5.468 -0.1576  0.0124 -0.2299
    3TYR     BB  857   0.538   5.636   5.470  0.2161  0.3640 -0.1697
    3TYR    SC1  858   0.638   5.501   5.681  0.1005  0.1598 -0.5516
    3TYR    SC2  859   0.819   5.594   5.858  0.0073  0.0585 -0.3999
    3TYR    SC3  860   0.752   5.332   5.858 -0.3197  0.1372 -0.2862
    1TYR     BB  861   7.032   6.096   5.836 -0.0673  0.1325 -0.0276
    1TYR    SC1  862   7.155   6.031   5.555  0.0954  0.1316 -0.0977
    1TYR    SC2  863   7.260   6.063   5.308  0.2083 -0.2835 -0.1128
    1TYR    SC3  864   7.397   5.927   5.497  0.0014 -0.2143  0.0932
    2THR     BB  865   7.215   5.945   6.022  0.0170 -0.0716  0.0526
    2THR    SC1  866   7.142   5.759   6.188  0.0288  0.1375  0.2997
    3TYR     BB  867   7.381   6.209   6.182  0.1685  0.3212  0.2570
    3TYR    SC1  868   7.628   6.100   6.276 -0.0199  0.1760 -0.2267
    3TYR    SC2  869   7.760   5.865   6.289 -0.0878  0.1508  0.1605
    3TYR    SC3  870   7.878   6.091   6.379  0.0089  0.2897 -0.2838
    1TYR     BB  871   1.554   5.777   3.667  0.0870  0.0459 -0.2222
    1TYR    SC1  872   1.744   5.563   3.646 -0.2279 -0.0998  0.1783
    1TYR    SC2  873   1.832   5.318   3.576 -0.2472 -0.0164 -0.1617
    1TYR    SC3  874   2.005   5.501   3.674 -0.2463 -0.1837  0.1669
    2THR     BB  875   1.279   5.698   3.847 -0.1237  0.1846 -0.0079
    2THR    SC1  876   1.296   5.720   4.106  0.0250  0.1704 -0.0153
    3TYR     BB  877   1.067   5.595   3.680 -0.0885 -0.1344 -0.2840
    3TYR    SC1  878   1.011   5.772   3.432 -0.0266  0.0457  0.1099
    3TYR    SC2  879   0.891   5.850   3.203 -0.0862  0.0864  0.1545
    3TYR    SC3  880   0.898   6.017   3.415 -0.0423  0.0443  0.1866
    1TYR     BB  881   7.548   4.475   6.211  0.0265  0.1952 -0.3376
    1TYR    SC1  882   7.517   4.294   6.504 -0.3140  0.0875  0.0645
    1TYR    SC2  883   7.448   4.098   6.677 -0.0184  0.0552  0.1536
    1TYR    SC3  884   7.655   4.261   6.734  0.0874  0.0438 -0.1704
    2THR     BB  885   7.491   4.819   6.219  0.0588  0.2423  0.0464
    2THR    SC1  886   7.515   4.944   5.993  0.0377 -0.0802 -0.1422
    3TYR     BB  887   7.369   4.953   6.465  0.0731 -0.1086  0.0186
    3TYR    SC1  888   7.317   4.768   6.685 -0.0645  0.1345 -0.0533
    3TYR    SC2  889   7.216   4.530   6.763 -0.0633  0.1232 -0.0856
    3TYR    SC3  890   7.171   4.751   6.911  0.0497  0.0787  0.0179
    1TYR     BB  891   2.206   4.651   4.280  0.1602 -0.1544 -0.0091
    1TYR    SC1  892   2.230   4.568   3.996 -0.0602  0.0093  0.0440
    1TYR    SC2  893   2.217   4.626   3.733  0.2719  0.0062  0.0228
    1TYR    SC3  894   2.113   4.395   3.825  0.0131  0.0783 -0.0773
    2THR     BB  895   1.886   4.733   4.381  0.1845 -0.3400  0.1454
    2THR    SC1  896   1.811   4.781   4.626 -0.0999 -0.1929  0.0346
    3TYR     BB  897   1.686   4.649   4.135  0.0509  0.1387  0.0681
    3TYR    SC1  898   1.748   4.340   4.142 -0.1915 -0.1991  0.0253
    3TYR    SC2  899   1.669   4.113   4.266 -0.1955 -0.3082 -0.1706
    3TYR    SC3  900   1.917   4.130   4.161 -0.1938 -0.2189 -0.1532
    1TYR     BB  901   1.702   4.796   3.681  0.1211 -0.2642 -0.1588
    1TYR    SC1  902   1.490   5.036   3.631  0.1367  0.2773  0.1037
    1TYR    SC2  903   1.397   5.159   3.409  0.0626  0.0033 -0.0230
    1TYR    SC3  904   1.262   5.179   3.642 -0.1425 -0.1230 -0.1277
    2THR     BB  905   1.507   4.534   3.607  0.1817  0.0317  0.2095
    2THR    SC1  906   1.315   4.572   3.436  0.2255  0.0307  0.1596
    3TYR     BB  907   1.562   4.209   3.725  0.0072  0.0043  0.0872
    3TYR    SC1  908   1.303   4.042   3.610 -0.0671  0.0756  0.4042
    3TYR    SC2  909   1.139   3.829   3.596 -0.0547  0.0772  0.1909
    3TYR    SC3  910   1.105   4.036   3.427 -0.1199  0.2858  0.4508
    1TYR     BB  911   0.862   4.397   3.703  0.2549 -0.0999 -0.1408
    1TYR    SC1  912   0.857   4.417   3.388 -0.1918 -0.2274  0.0052
    1TYR    SC2  913   0.626   4.334   3.275  0.0352 -0.6115 -0.2030
    1TYR    SC3  914   0.854   4.340   3.130  0.1206  0.0292 -0.0835
    2THR     BB  915   0.568   4.463   3.795  0.0392  0.0698 -0.1968
    2THR    SC1  916   0.424   4.597   3.625 -0.2061  0.0981  0.0252
    3TYR     BB  917   0.463   4.439   4.068 -0.2223  0.0656 -0.1394
    3TYR    SC1  918   0.177   4.615   4.110 -0.2644  0.0959 -0.2021
    3TYR    SC2  919   0.051   4.854   4.115  0.1035  0.2986 -0.0503
    3TYR    SC3  920   0.012   4.676   4.315 -0.1653  0.2287 -0.1595
    1TYR     BB  921   6.264   4.755   5.816  0.2155 -0.4405  0.2218
    1TYR    SC1  922   6.146   4.517   5.834  0.2575  0.0881 -0.0878
    1TYR    SC2  923   5.931   4.360   5.787  0.1516  0.1793  0.0805
    1TYR    SC3  924   6.153   4.255   5.900  0.2709  0.0423 -0.2645
    2THR     BB  925   6.594   4.695   5.797 -0.2457 -0.0980  0.3000
    2THR    SC1  926   6.612   4.448   5.875  0.2290 -0.2064 -0.0900
    3TYR     BB  927   6.951   4.852   5.870 -0.2821  0.0033 -0.0150
    3TYR    SC1  928   6.964   4.680   6.168  0.3525  0.2328  0.0615
    3TYR    SC2  929   7.071   4.490   6.327  0.3052  0.0863 -0.0779
    3TYR    SC3  930   6.836   4.605   6.394  0.2476 -0.0292 -0.0797
    1TYR     BB  931   2.742   4.621   4.534 -0.1408 -0.1159  0.0720
    1TYR    SC1  932   2.695   4.666   4.228  0.2829 -0.1798  0.1480
    1TYR    SC2  933   2.651   4.776   3.986  0.2423 -0.0553  0.2110
    1TYR    SC3  934   2.716   4.515   4.005 -0.0230 -0.1354  0.0835
    2THR     BB  935   2.594   4.315   4.544 -0.0857  0.1221  0.0842
    2THR    SC1  936   2.627   4.196   4.773  0.0680 -0.5041 -0.2355
    3TYR     BB  937   2.415   4.213   4.273 -0.0951 -0.1376  0.1003
    3TYR    SC1  938   2.274   3.984   4.444 -0.0858 -0.0888 -0.1122
    3TYR    SC2  939   2.072   3.806   4.448 -0.0575 -0.1257  0.3256
    3TYR    SC3  940   2.205   3.863   4.676  0.0240  0.3584  0.1704
    1TYR     BB  941   1.762   1.379   1.740 -0.1402  0.1569  0.0890
    1TYR    SC1  942   1.555   1.597   1.842 -0.0417 -0.0462  0.0557
    1TYR    SC2  943   1.348   1.770   1.833 -0.0388 -0.0484 -0.0922
    1TYR    SC3  944   1.549   1.808   2.009 -0.1443 -0.0234  0.0244
    2THR     BB  945   1.914   1.453   1.487 -0.1098 -0.2720  0.1235
    2THR    SC1  946   1.774   1.421   1.270 -0.0531 -0.0083  0.0429
    3TYR     BB  947   2.172   1.620   1.463 -0.1398  0.1155  0.2506
    3TYR    SC1  948   2.166   1.813   1.690 -0.0329 -0.1901  0.0150
    3TYR    SC2  949   2.207   1.881   1.948  0.0370 -0.1588 -0.0041
    3TYR    SC3  950   1.959   1.894   1.844  0.0462  0.0616 -0.0044
    1TYR     BB  951   6.281   4.615   3.855 -0.2007  0.1144 -0.1764
    1TYR    SC1  952   6.322   4.874   3.723  0.2200  0.1036  0.0226
    1TYR    SC2  953   6.271   5.072   3.546  0.1635 -0.0061 -0.0853
    1TYR    SC3  954   6.513   5.056   3.665  0.1588  0.1443 -0.0536
    2THR     BB  955   6.496   4.636   4.114 -0.4582  0.3193  0.2179
    2THR    SC1  956   6.644   4.849   4.105  0.3515 -0.1805  0.3698
    3TYR     BB  957   6.623   4.467   4.355 -0.2719  0.1262  0.1199
    3TYR    SC1  958   6.891   4.595   4.423 -0.2832  0.1403  0.3033
    3TYR    SC2  959   7.150   4.669   4.399 -0.3330  0.1946 -0.1955
    3TYR    SC3  960   7.017   4.715   4.629  0.1444  0.0010  0.1389
    1TYR     BB  961   6.401   5.615   5.475 -0.0148  0.2200 -0.0748
    1TYR    SC1  962   6.150   5.728   5.388 -0.1810 -0.0170  0.2035
    1TYR    SC2  963   5.920   5.654   5.266 -0.3560  0.2164  0.3815
    1TYR    SC3  964   6.024   5.899   5.221  0.0146  0.0175  0.0874
    2THR     BB  965   6.412   5.567   5.784 -0.1525  0.1683  0.1612
    2THR    SC1  966   6.267   5.375   5.883 -0.1026  0.0443 -0.0003
    3TYR     BB  967   6.664   5.767   5.921 -0.1998 -0.2527 -0.0570
    3TYR    SC1  968   6.579   5.962   6.140 -0.2535 -0.0921  0.1271
    3TYR    SC2  969   6.435   6.093   6.327 -0.2557  0.0199  0.0486
    3TYR    SC3  970   6.687   6.171   6.271 -0.1725 -0.1559  0.1632
    1TYR     BB  971   5.812   5.571   5.948 -0.0426 -0.1899  0.1815
    1TYR    SC1  972   5.981   5.835   5.855 -0.0933 -0.1619  0.0842
    1TYR    SC2  973   6.088   6.020   5.691 -0.4865  0.0464  0.0463
    1TYR    SC3  974   6.141   6.027   5.956 -0.5112  0.2274  0.0482
    2THR     BB  975   5.465   5.686   5.785  0.1053  0.3194  0.1225
    2THR    SC1  976   5.308   5.479   5.798  0.5026 -0.0078  0.0023
    3TYR     BB  977   5.590   5.988   5.667 -0.2487  0.0112  0.0086
    3TYR    SC1  978   5.645   6.224   5.844  0.0978  0.0249 -0.2458
    3TYR    SC2  979   5.790   6.417   5.966 -0.1343  0.0089  0.0701
    3TYR    SC3  980   5.570   6.483   5.824 -0.1549 -0.0131  0.0915
    1TYR     BB  981   2.613   1.961   2.347 -0.0794 -0.3683 -0.2087
    1TYR    SC1  982   2.606   2.011   2.052  0.2130 -0.0393  0.0784
    1TYR    SC2  983   2.648   2.126   1.811  0.0166  0.0557  0.0872
    1TYR    SC3  984   2.697   1.863   1.845  0.2385  0.0827  0.0004
    2THR     BB  985   2.678   1.709   2.519 -0.2700  0.1444  0.2133
    2THR    SC1  986   2.919   1.694   2.617 -0.2364  0.1024  0.1258
    3TYR     BB  987   2.494   1.627   2.796 -0.1802  0.1310 -0.0778
    3TYR    SC1  988   2.559   1.874   3.008  0.2187  0.1871  0.1486
    3TYR    SC2  989   2.697   2.026   3.184  0.1685  0.1102  0.2558
    3TYR    SC3  990   2.430   1.996   3.212  0.0485  0.5864 -0.1805
    1TYR     BB  991   1.702   2.468   1.333  0.2087  0.1483  0.0633
    1TYR    SC1  992   1.681   2.744   1.180 -0.0361  0.0925 -0.0914
    1TYR    SC2  993   1.522   2.962   1.170  0.0942  0.2330  0.4690
    1TYR    SC3  994   1.691   2.908   0.966 -0.2490  0.4011  0.1245
    2THR     BB  995   1.806   2.397   1.638  0.0084 -0.4085 -0.5723
    2THR    SC1  996   1.607   2.267   1.744  0.0222 -0.0424 -0.0493
    3TYR     BB  997   2.197   2.369   1.717  0.2625 -0.2974 -0.0297
    3TYR    SC1  998   2.267   2.344   1.999 -0.1914  0.1005 -0.0679
    3TYR    SC2  999   2.252   2.273   2.259  0.1498 -0.0626 -0.0855
    3TYR    SC3 1000   2.440   2.449   2.178  0.2815 -0.2812 -0.2710
    4W        W 1001   4.774   0.201   5.279 -0.2248 -0.0073  0.0201
    5W        W 1002   4.658   3.932   1.401  0.1796  0.0589  0.2262
    6W        W 1003   5.470   1.122   1.899  0.2657 -0.1179  0.1776
    7W        W 1004   5.761   7.645   2.320 -0.0670  0.0436  0.1086
    8W        W 1005   0.445   6.717   7.581  0.0840 -0.1357 -0.0163
    9W        W 1006   4.395   0.591   0.765  0.0268  0.3863  0.1132
   10W        W 1007   2.495   1.516   5.899  0.3850 -0.2205  0.0010
   11W        W 1008   6.429   0.481   1.016  0.0582 -0.0607  0.1348
   12W        W 1009   2.829   7.005   2.576  0.1427 -0.0338  0.1022
   13W        W 1010   0.336   2.074   3.970  0.1860  0.1874  0.0387
   14W        W 1011   7.483   2.190   1.258  0.2618 -0.0595  0.0468
   15W        W 1012   0.753   0.006   5.464 -0.1827 -0.1888 -0.1532
   16W        W 1013   3.061   3.620   7.326  0.2954  0.1535 -0.2639
   17W        W 1014   5.364   2.176   6.982  0.1263  0.0229 -0.0945
   18W        W 1015   1.079   1.174   3.708 -0.0335  0.1027  0.0880
   19W        W 1016   0.001   1.228   4.073 -0.2461  0.1215  0.1894
   20W        W 1017   4.586   3.512   7.356 -0.2443  0.1552  0.0293
   21W        W 1018   7.481   0.946   6.326  0.1655  0.0514  0.1778
   22W        W 1019   4.631   6.604   7.431 -0.1411  0.3031  0.0760
   23W        W 1020   5.552   1.601   0.528 -0.0046 -0.0987 -0.0835
   24W        W 1021   3.707   1.088   3.024 -0.2822 -0.0697 -0.2161
   25W        W 1022   6.468   3.185   3.661  0.0334 -0.1845 -0.0622
   26W        W 1023   4.692   2.545   5.904  0.0462 -0.0675  0.1782
   27W        W 1024   6.125   0.283   0.482 -0.1057  0.2954 -0.1546
   28W        W 1025   3.288   3.757   5.940 -0.0276 -0.1481  0.0405
   29W        W 1026   5.627   0.902   4.662  0.2822  0.0753  0.0013
   30W        W 1027   2.926   1.399   7.481  0.1898 -0.3186  0.2980
   31W        W 1028   2.409   2.463   3.409  0.1537  0.1431  0.2216
   32W        W 1029   6.139   6.508   5.633 -0.0122  0.0859 -0.2003
   33W        W 1030   0.038   0.111   1.299  0.0459 -0.2392 -0.0567
   34W        W 1031   5.158   6.213   1.846  0.1343 -0.0816  0.3861
   35W        W 1032   1.531   6.808   1.014  0.2884 -0.1165  0.1141
   36W        W 1033   7.281   2.255   7.255  0.0692 -0.3674 -0.3570
   37W        W 1034   2.103   0.345   3.218 -0.0212 -0.1914  0.1973
   38W        W 1035   2.780   3.539   2.862 -0.0629 -0.0808 -0.2090
   39W        W 1036   3.241   1.907   4.280 -0.1593 -0.1680  0.1648
   40W        W 1037   4.634   2.383   2.156  0.1273 -0.0738  0.1918
   41W        W 1038   2.166   2.585   4.587 -0.0636 -0.1820  0.0411
   42W        W 1039   5.355   2.721   1.459 -0.1978 -0.0069  0.1317
   43W        W 1040   6.071   0.319   6.842  0.1207  0.0653  0.0316
   44W        W 1041   6.251   0.500   6.360 -0.1744  0.0479  0.2501
   45W        W 1042   7.201   6.964   1.944 -0.2740 -0.0957 -0.0168
   46W        W 1043   3.647   7.474   3.839 -0.0573 -0.1402 -0.3506
   47W        W 1044   0.485   2.872   2.327 -0.0798  0.6643  0.0457
   48W        W 1045   5.062   3.816   6.530 -0.1521 -0.1245 -0.0687
   49W        W 1046   4.873   3.097   2.442 -0.1078  0.0165 -0.0290
   50W        W 1047   7.332   1.851   0.594  0.1342 -0.0121 -0.0032
   51W        W 1048   4.020   6.758   5.419 -0.0602  0.1267  0.0662
   52W        W 1049   4.171   3.582   6.301 -0.1562 -0.0405  0.0695
   53W        W 1050   0.112   2.380   7.106  0.0356 -0.1910  0.0954
   54W        W 1051   5.490   0.593   4.212  0.0189  0.0807  0.1294
   55W        W 1052   5.550   6.054   1.463 -0.0461  0.3030 -0.2240
   56W        W 1053   2.054   4.531   1.946 -0.1168  0.0173  0.0799
   57W        W 1054   7.418   0.828   3.094 -0.2181 -0.0370  0.3325
   58W        W 1055   1.752   4.341   0.623 -0.0725  0.1163 -0.2514
   59W        W 1056   2.570   3.162   3.396  0.0640  0.2738 -0.0053
   60W        W 1057   2.022   7.381   5.110  0.0637  0.0136 -0.2169
   61W        W 1058   5.050   6.264   7.232  0.0131 -0.0659  0.2115
   62W        W 1059   2.362   5.901   0.158 -0.1328 -0.0335  0.0141
   63W        W 1060   3.594   6.463   4.166  0.2043  0.2306  0.0740
   64W        W 1061   1.486   6.457   2.979  0.2751  0.0597 -0.1071
   65W        W 1062   6.762   3.576   0.628 -0.1076 -0.1142  0.0772
   66W        W 1063   6.620   5.070   1.578  0.0556 -0.3513  0.0166
   67W        W 1064   3.522   2.481   2.595  0.3465 -0.0480  0.1325
   68W        W 1065   5.580   1.494   5.717  0.1317  0.2903  0.5590
   69W        W 1066   2.637   4.754   1.492  0.2001  0.1679 -0.0136
   70W        W 1067   0.102   2.497   1.674  0.0999 -0.1319  0.1219
   71W        W 1068   1.742   2.508   5.465 -0.0445 -0.0182  0.1510
   72W        W 1069   4.550   2.303   4.229  0.2250  0.3937 -0.1104
   73W        W 1070   5.048   2.283   1.288  0.0276  0.2027  0.1495
   74W        W 1071   0.647   1.168   4.986  0.0278 -0.2224 -0.2200
   75W        W 1072   5.948   6.456   4.557  0.3998 -0.1906 -0.0646
   76W        W 1073   6.799   7.186   2.911 -0.1290  0.0540 -0.1124
   77W        W 1074   1.349   1.621   4.371  0.0032 -0.3945 -0.1643
   78W        W 1075   5.844   2.306   6.782 -0.0646 -0.0276 -0.1816
   79W        W 1076   4.767   0.617   1.281 -0.0788 -0.0489  0.1086
   80W        W 1077   4.237   1.851   0.289 -0.3517 -0.0664 -0.4776
   81W        W 1078   3.831   3.588   0.289 -0.0561 -0.2367  0.2711
   82W        W 1079   4.856   0.478   2.780 -0.1431  0.1543 -0.3736
   83W        W 1080   0.056   4.895   0.517 -0.2871  0.1844 -0.0695
   84W        W 1081   4.627   7.459   0.587 -0.1193  0.0441  0.4105
   85W        W 1082   2.521   3.943   2.140 -0.0298  0.2644  0.0245
   86W        W 1083   3.595   3.093   5.974  0.1443 -0.1749  0.1094
   87W        W 1084   1.937   3.860   3.051 -0.1895  0.0096 -0.2204
   88W        W 1085   0.938   3.555   3.181 -0.4059 -0.0590 -0.2160
   89W        W 1086   6.538   2.543   4.483 -0.0316 -0.3166 -0.0185
   90W        W 1087   6.869   7.608   7.392  0.1473 -0.0169 -0.0294
   91W        W 1088   3.313   2.366   5.406 -0.2114  0.0385 -0.1043
   92W        W 1089   6.398   3.933   7.612  0.1920  0.0148  0.0048
   93W        W 1090   2.426   6.953   0.950  0.1082  0.0052  0.0904
   94W        W 1091   0.191   1.489   2.730  0.0247 -0.2297 -0.0627
   95W        W 1092   5.236   4.641   2.933 -0.0231  0.3408 -0.1526
   96W        W 1093   1.141   3.647   0.841 -0.4054  0.2301  0.1967
   97W        W 1094   5.596   6.372   0.563 -0.0279 -0.0876 -0.1217
   98W        W 1095   4.997   0.889   6.472 -0.0075 -0.2036 -0.0912
   99W        W 1096   3.475   0.260   3.133 -0.1658  0.0137  0.0600
  100W        W 1097   6.530   0.702   5.971 -0.1282 -0.0836 -0.0192
  101W        W 1098   5.317   5.593   3.239  0.0469  0.2073 -0.0091
  102W        W 1099   3.608   7.478   5.111  0.1920 -0.0949 -0.0511
  103W        W 1100   3.486   4.948   2.945  0.2510  0.0196 -0.1660
  104W        W 1101   5.773   2.720   6.032 -0.0556 -0.1106  0.1428
  105W        W 1102   6.995   3.052   1.875 -0.0165  0.1802  0.2684
  106W        W 1103   2.042   3.923   7.656 -0.2127  0.1502  0.2933
  107W        W 1104   6.174   2.691   2.781  0.1651 -0.2934  0.1023
  108W        W 1105   2.321   4.146   3.112 -0.3162 -0.2275 -0.2039
  109W        W 1106   6.472   0.183   7.210 -0.1726  0.2284 -0.0657
  110W        W 1107   2.840   7.106   6.987  0.0657  0.3596 -0.0355
  111W        W 1108   0.860   6.451   0.384  0.1882  0.0195  0.0617
  112W        W 1109   4.247   2.512   3.667  0.0228  0.0340 -0.0475
  113W        W 1110   1.784   5.631   6.197 -0.0363  0.0695  0.2909
  114W        W 1111   3.637   5.252   7.297  0.0353  0.0679  0.0738
  115W        W 1112   6.138   1.367   2.010 -0.1898 -0.3078 -0.2322
  116W        W 1113   6.629   2.663   1.937 -0.0403 -0.1156 -0.0570
  117W        W 1114   7.256   4.530   7.484 -0.0678  0.1956  0.4791
  118W        W 1115   5.414   0.333   3.456  0.0956  0.3520 -0.0607
  119W        W 1116   2.813   6.581   6.855  0.0801 -0.1055 -0.2061
  120W        W 1117   6.094   0.060   4.006 -0.0266 -0.1316 -0.0469
  121W        W 1118   5.524   0.761   2.285 -0.0950 -0.1966 -0.0732
  122W        W 1119   5.984   0.579   3.145  0.2262  0.0911 -0.3420
  123W        W 1120   1.890   6.745   3.558 -0.0327  0.2244  0.2207
  124W        W 1121   2.158   0.659   4.482  0.0416 -0.1019 -0.0180
  125W        W 1122   4.509   5.385   2.636  0.2759 -0.2684 -0.0303
  126W        W 1123   5.989   4.085   6.361 -0.2612 -0.0746  0.2243
  127W        W 1124   4.654   4.014   6.961 -0.0972 -0.1196  0.2099
  128W        W 1125   3.254   0.210   1.725 -0.1598  0.1785  0.3655
  129W        W 1126   1.762   5.695   1.268 -0.0663 -0.0910 -0.2942
  130W        W 1127   7.021   0.143   6.545 -0.0307 -0.1000  0.0063
  131W        W 1128   0.989   7.294   1.955  0.2353  0.0294  0.2484
  132W        W 1129   0.731   7.121   7.466  0.1562 -0.1908 -0.0599
  133W        W 1130   7.358   5.890   0.079  0.0976  0.0406  0.0791
  134W        W 1131   3.258   2.936   4.529 -0.3066 -0.0006  0.0329
  135W        W 1132   5.495   3.221   3.161  0.0145 -0.1735 -0.2599
  136W        W 1133   1.415   3.889   1.412  0.0612 -0.4400  0.0259
  137W        W 1134   0.270   1.882   0.337 -0.1513 -0.0427  0.0308
  138W        W 1135   0.438   0.587   4.176  0.1338 -0.1754  0.1449
  139W        W 1136   2.238   7.146   5.618  0.0190 -0.0572 -0.0269
  140W        W 1137   2.805   7.312   6.307  0.2766  0.1492 -0.4686
  141W        W 1138   1.098   3.253   0.286  0.1293  0.2076  0.1307
  142W        W 1139   4.870   2.804   0.549  0.1539  0.1108 -0.2962
  143W        W 1140   4.838   1.452   1.031 -0.0862 -0.0599 -0.0414
  144W        W 1141   6.797   0.474   1.498 -0.2319  0.5384 -0.0961
  145W        W 1142   5.040   0.850   4.468 -0.2956 -0.0435 -0.1057
  146W        W 1143   0.431   1.662   6.615  0.2247  0.2405 -0.3191
  147W        W 1144   7.352   3.869   0.130 -0.0589  0.0862 -0.0358
  148W        W 1145   0.546   2.300   0.645  0.2793  0.4016 -0.0634
  149W        W 1146   6.205   2.708   4.834 -0.0635  0.0806 -0.0889
  150W        W 1147   4.055   2.793   5.858 -0.2582 -0.1311  0.0399
  151W        W 1148   4.870   1.651   6.286  0.0358  0.1396  0.0493
  152W        W 1149   7.181   6.883   1.454  0.2001  0.2808 -0.0185
  153W        W 1150   2.999   2.298   3.952 -0.0845  0.0605 -0.2162
  154W        W 1151   0.715   2.694   4.748 -0.2613  0.0575 -0.0177
  155W        W 1152   3.922   6.996   5.828  0.2068  0.1019  0.1206
  156W        W 1153   2.901   2.358   5.152 -0.0117  0.1516 -0.2099
  157W        W 1154   4.307   4.888   2.814 -0.0314 -0.2219  0.3072
  158W        W 1155   7.607   6.913   3.561  0.5141  0.2695  0.1340
  159W        W 1156   1.916   4.478   3.352  0.0590  0.4428  0.0991
  160W        W 1157   5.183   1.977   3.076  0.2779  0.1450  0.1431
  161W        W 1158   2.349   5.962   6.088  0.3979  0.1413  0.5388
  162W        W 1159   4.598   5.895   4.881 -0.1316 -0.1195  0.2688
  163W        W 1160   1.699   5.650   2.724 -0.0947  0.3070 -0.1148
  164W        W 1161   6.572   6.231   1.914  0.1926  0.0979 -0.2870
  165W        W 1162   1.454   2.174   6.046 -0.1342 -0.0799  0.3628
  166W        W 1163   5.245   0.185   0.409  0.0640 -0.1476 -0.0068
  167W        W 1164   4.153   6.949   6.274  0.1332 -0.0976 -0.0544
  168W        W 1165   1.084   2.773   6.548 -0.2158  0.0542  0.1088
  169W        W 1166   6.447   0.530   2.977  0.0408 -0.3534  0.1045
  170W        W 1167   0.866   1.232   3.256  0.1816  0.0062  0.0838
  171W        W 1168   4.787   2.426   5.346  0.0216 -0.1465 -0.1615
  172W        W 1169   4.099   0.067   2.437  0.1342  0.1664  0.0358
  173W        W 1170   0.481   1.863   6.088  0.0061  0.0501 -0.1424
  174W        W 1171   3.190   3.561   5.250  0.1120 -0.2269  0.0340
  175W        W 1172   5.601   0.807   5.583 -0.0888  0.0972 -0.0729
  176W        W 1173   4.759   3.457   5.097 -0.3493 -0.0239 -0.1392
  177W        W 1174   2.169   1.375   3.419  0.0551  0.0006  0.2077
  178W        W 1175   1.505   6.791   6.890 -0.2899  0.1198  0.2045
  179W        W 1176   7.393   1.013   6.844  0.1745 -0.0365 -0.0391
  180W        W 1177   6.056   5.195   1.571 -0.0664  0.0048  0.2525
  181W        W 1178   5.606   5.708   7.029  0.0691 -0.0909 -0.2504
  182W        W 1179   1.327   0.247   2.544  0.1536  0.2212 -0.1251
  183W        W 1180   3.727   4.846   2.001 -0.1189 -0.0072 -0.0498
  184W        W 1181   0.941   1.261   2.435 -0.0359  0.1422 -0.2296
  185W        W 1182   2.330   0.383   6.091  0.0644 -0.3049  0.0760
  186W        W 1183   0.410   2.344   0.140 -0.2817  0.2267 -0.1425
  187W        W 1184   2.987   6.109   0.999  0.2393  0.1161 -0.1535
  188W        W 1185   2.254   7.549   4.002 -0.0950 -0.3905 -0.0187
  189W        W 1186   4.732   5.410   4.917  0.0948  0.0486  0.1880
  190W        W 1187   4.247   4.151   1.627  0.2166 -0.5261 -0.4113
  191W        W 1188   7.070   3.586   4.174  0.1474 -0.0986  0.0256
  192W        W 1189   5.355   7.606   1.273  0.1652  0.2310  0.0658
  193W        W 1190   0.871   5.098   2.598  0.0554 -0.0748 -0.0223
  194W        W 1191   1.072   3.683   6.435  0.1887  0.0912 -0.1692
  195W        W 1192   1.059   0.264   7.545 -0.0144 -0.1733  0.0457
  196W        W 1193   2.521   1.622   5.415 -0.0148 -0.0323 -0.1987
  197W        W 1194   1.717   6.734   4.016  0.0444 -0.1014 -0.2890
  198W        W 1195   0.918   5.719   1.107  0.1174 -0.0064  0.1033
  199W        W 1196   0.759   6.462   4.088 -0.0824  0.0291  0.2315
  200W        W 1197   3.013   4.508   6.948 -0.2185  0.0154 -0.0273
  201W        W 1198   4.188   7.528   3.825  0.2019  0.2947 -0.2054
  202W        W 1199   1.935   3.699   5.885 -0.0948  0.0032 -0.3318
  203W        W 1200   6.067   2.737   0.005 -0.0045  0.1014 -0.0632
  204W        W 1201   7.613   1.556   3.244 -0.0711  0.2130 -0.1855
  205W        W 1202   5.267   3.717   1.770 -0.0027  0.1537  0.1379
  206W        W 1203   6.059   0.065   5.387  0.0612 -0.0855 -0.4990
  207W        W 1204   7.346   6.228   3.741  0.0190  0.1213 -0.0983
  208W        W 1205   1.615   2.497   3.657  0.1965  0.1615 -0.1015
  209W        W 1206   6.401   7.135   2.573  0.3695  0.1544  0.0764
  210W        W 1207   5.157   7.531   0.812  0.0671 -0.3101  0.3082
  211W        W 1208   5.002   7.196   6.262 -0.0094 -0.0878 -0.0883
  212W        W 1209   4.926   2.460   2.986 -0.1154 -0.0487 -0.0661
  213W        W 1210   4.683   7.329   1.129 -0.0027  0.0568 -0.0452
  214W        W 1211   0.285   7.096   0.214 -0.0726  0.0540 -0.2943
  215W        W 1212   6.968   4.040   0.804 -0.2432 -0.1614 -0.1390
  216W        W 1213   2.170   6.896   3.968 -0.0770  0.0905  0.0306
  217W        W 1214   1.602   5.134   6.880 -0.1009 -0.1418 -0.2379
  218W        W 1215   3.842   0.262   3.652 -0.0807  0.1106  0.3083
  219W        W 1216   6.963   3.371   7.157  0.3836 -0.4418 -0.0343
  220W        W 1217   2.223   6.809   0.020 -0.0087  0.1894  0.1483
  221W        W 1218   1.726   0.413   5.191  0.0184  0.0259 -0.1974
  222W        W 1219   3.416   7.559   4.311 -0.1302 -0.2025 -0.0838
  223W        W 1220   3.289   3.763   3.023  0.1550 -0.2729 -0.0148
  224W        W 1221   2.690   5.220   1.260 -0.0210  0.0247  0.2945
  225W        W 1222   2.791   1.861   5.002  0.5176 -0.0751  0.1328
  226W        W 1223   3.158   6.634   4.060  0.2211  0.0077 -0.0818
  227W        W 1224   6.513   6.540   1.508  0.1856  0.0009  0.1088
  228W        W 1225   2.388   6.536   4.793 -0.1954  0.0130  0.1436
  229W        W 1226   6.335   1.042   0.931  0.0558 -0.1662 -0.1326
  230W        W 1227   5.889   4.014   0.145 -0.0496 -0.0465  0.0411
  231W        W 1228   2.657   4.588   2.754 -0.0979 -0.2026 -0.4879
  232W        W 1229   0.636   1.623   4.805  0.1566  0.2364  0.0318
  233W        W 1230   4.057   0.673   5.328  0.1379 -0.1641  0.0195
  234W        W 1231   3.772   1.192   4.090  0.0384 -0.0367  0.4449
  235W        W 1232   5.623   6.475   3.162  0.5570  0.0935  0.2485
  236W        W 1233   0.262   0.126   3.516 -0.0546  0.1239 -0.2028
  237W        W 1234   3.313   7.097   6.847 -0.1434 -0.0175 -0.0017
  238W        W 1235   1.770   0.024   2.476 -0.2132 -0.3007 -0.0600
  239W        W 1236   7.572   7.437   2.709 -0.1950  0.1014 -0.2720
  240W        W 1237   0.919   4.100   1.542 -0.0594 -0.3576  0.1083
  241W        W 1238   1.320   7.139   7.264  0.0891  0.4819 -0.2321
  242W        W 1239   2.724   2.808   1.101 -0.1792  0.1736  0.3334
  243W        W 1240   6.338   1.349   0.553 -0.0991 -0.0256  0.1867
  244W        W 1241   1.808   3.187   6.028  0.1896  0.1417  0.0367
  245W        W 1242   3.667   4.308   1.739  0.2429  0.3112  0.2420
  246W        W 1243   0.050   5.642   1.453  0.1802 -0.1434  0.3169
  247W        W 1244   3.731   5.995   0.764  0.0858  0.3097 -0.1808
  248W        W 1245   4.586   0.708   5.400  0.0542 -0.1220 -0.0665
  249W        W 1246   5.746   5.578   4.319 -0.1129  0.0226  0.0884
  250W        W 1247   5.530   1.090   5.985  0.0061 -0.0145 -0.1607
  251W        W 1248   0.641   1.190   2.802  0.1964 -0.1131 -0.0203
  252W        W 1249   3.343   1.477   2.865 -0.3166  0.1658 -0.3246
  253W        W 1250   5.521   6.976   3.082  0.2475  0.0581 -0.0625
  254W        W 1251   6.174   6.208   2.215 -0.1369  0.1919 -0.0792
  255W        W 1252   0.830   2.407   6.338  0.2099  0.2343  0.1253
  256W        W 1253   5.376   3.138   7.058  0.1037  0.2079  0.0405
  257W        W 1254   0.560   1.421   5.415  0.0465  0.0758 -0.1290
  258W        W 1255   0.218   7.589   5.461  0.0447  0.0915 -0.2390
  259W        W 1256   3.716   6.967   0.429 -0.1542 -0.1065 -0.0739
  260W        W 1257   0.120   4.301   0.474 -0.0762  0.1073 -0.1982
  261W        W 1258   5.178   0.208   4.261  0.0273  0.1119  0.2279
  262W        W 1259   5.567   6.943   6.055 -0.2256 -0.1622 -0.0424
  263W        W 1260   3.162   4.063   0.644  0.1884  0.2077  0.0542
  264W        W 1261   2.685   5.402   2.132 -0.0843 -0.2336  0.1310
  265W        W 1262   0.507   7.288   2.179 -0.2003  0.2419 -0.3148
  266W        W 1263   2.180   0.770   3.454 -0.1248 -0.1349  0.3117
  267W        W 1264   5.128   2.828   3.307  0.1013 -0.3302 -0.1358
  268W        W 1265   1.164   3.305   5.324 -0.1145 -0.2395  0.1118
  269W        W 1266   6.778   6.824   6.871 -0.1084 -0.0250 -0.1192
  270W        W 1267   6.003   1.131   5.562  0.2396  0.0047  0.0296
  271W        W 1268   4.690   2.422   0.900 -0.0459 -0.2085 -0.2213
  272W        W 1269   3.969   6.944   0.981 -0.3500 -0.0719  0.2692
  273W        W 1270   6.419   0.671   6.947 -0.1445 -0.2851 -0.0109
  274W        W 1271   3.671   0.128   2.700 -0.1736 -0.1908 -0.0828
  275W        W 1272   1.405   7.138   5.930  0.3910  0.2738 -0.1676
  276W        W 1273   2.726   2.737   3.660 -0.0653 -0.0399 -0.0311
  277W        W 1274   4.613   6.066   5.365  0.0620 -0.1797  0.1084
  278W        W 1275   2.409   2.495   3.964 -0.1849 -0.0202  0.0643
  279W        W 1276   2.724   6.845   1.896 -0.0943 -0.1115 -0.1755
  280W        W 1277   6.459   2.170   3.011 -0.1049 -0.0043 -0.0228
  281W        W 1278   2.049   7.186   4.325 -0.1109  0.0985  0.0408
  282W        W 1279   6.659   0.262   6.107 -0.1457  0.0764  0.1122
  283W        W 1280   3.815   2.735   1.595 -0.0639 -0.2335  0.1682
  284W        W 1281   2.096   5.039   5.865 -0.0099  0.0604  0.1684
  285W        W 1282   6.493   0.136   6.576 -0.0396 -0.2572 -0.0736
  286W        W 1283   5.964   0.514   4.272 -0.1368 -0.2139 -0.1348
  287W        W 1284   4.276   6.815   6.942 -0.3620  0.0661 -0.0423
  288W        W 1285   3.460   1.449   4.442  0.1342  0.2835 -0.1230
  289W        W 1286   7.078   2.723   7.393  0.1367 -0.2284 -0.1348
  290W        W 1287   3.305   6.564   6.604 -0.0191  0.0458  0.1256
  291W        W 1288   3.492   5.997   3.351 -0.0771 -0.1306 -0.1435
  292W        W 1289   4.236   5.902   1.766  0.1298  0.2080  0.1323
  293W        W 1290   0.994   4.307   0.158 -0.0357  0.0739  0.0719
  294W        W 1291   6.961   1.004   6.576  0.2027 -0.1526 -0.0051
  295W        W 1292   5.481   6.018   4.632 -0.1021 -0.0816 -0.1091
  296W        W 1293   6.348   7.340   5.643  0.0787  0.0519  0.2625
  297W        W 1294   6.829   3.780   7.461  0.0263  0.0014 -0.0208
  298W        W 1295   0.864   0.701   4.984  0.0026 -0.4283 -0.1555
  299W        W 1296   5.395   5.094   5.495 -0.1072  0.0453  0.1393
  300W        W 1297   1.174   3.907   2.785 -0.0263  0.0429 -0.0010
  301W        W 1298   5.109   1.035   3.008  0.2666  0.0810 -0.1566
  302W        W 1299   2.702   7.175   0.096  0.0901 -0.0880 -0.2035
  303W        W 1300   4.523   6.845   2.415 -0.0964  0.0985 -0.2803
  304W        W 1301   6.063   2.846   3.624 -0.2061  0.2687 -0.0336
  305W        W 1302   0.944   0.409   4.515 -0.2430 -0.1577  0.1192
  306W        W 1303   7.215   7.495   4.719 -0.0243 -0.1587 -0.0200
  307W        W 1304   5.742   6.207   1.055 -0.1367  0.0520  0.2544
  308W        W 1305   3.020   3.127   7.287 -0.0525  0.3753 -0.0142
  309W        W 1306   1.644   6.494   6.523 -0.0725  0.2597  0.0203
  310W        W 1307   4.899   0.125   1.180  0.3376  0.1107 -0.1324
  311W        W 1308   2.986   7.636   3.164  0.1471 -0.0175 -0.2835
  312W        W 1309   0.104   5.268   0.145  0.3807 -0.0899 -0.0684
  313W        W 1310   3.261   5.525   0.109 -0.2233 -0.1202 -0.0121
  314W        W 1311   6.915   5.016   0.426 -0.6033 -0.2924  0.0096
  315W        W 1312   3.766   3.533   1.191  0.4111 -0.0822 -0.0586
  316W        W 1313   2.212   3.818   1.726 -0.2361  0.0138  0.1084
  317W        W 1314   1.908   5.534   0.332 -0.0196  0.1366  0.2173
  318W        W 1315   0.258   3.812   0.412 -0.0680 -0.1166 -0.0117
  319W        W 1316   2.937   4.135   6.018  0.0409  0.0183  0.1182
  320W        W 1317   4.096   2.907   3.244 -0.2570 -0.1697 -0.0198
  321W        W 1318   3.595   6.398   2.308  0.2857 -0.0324 -0.4326
  322W        W 1319   4.633   0.685   2.387 -0.1815  0.2031 -0.1747
  323W        W 1320   0.421   4.285   7.617  0.1571 -0.1720  0.0078
  324W        W 1321   4.833   7.638   6.057  0.0459 -0.3310 -0.0502
  325W        W 1322   0.264   0.687   0.408 -0.0726  0.0184  0.0585
  326W        W 1323   5.571   6.970   5.102  0.0699 -0.2476  0.2170
  327W        W 1324   2.176   3.085   2.555  0.0366  0.0067 -0.3506
  328W        W 1325   2.667   2.505   1.481  0.2015 -0.1851  0.2321
  329W        W 1326   6.807   0.463   3.633 -0.0833  0.1871 -0.0004
  330W        W 1327   1.960   7.038   6.746  0.0341  0.2977  0.2056
  331W        W 1328   3.048   3.050   0.633 -0.0775  0.0138  0.1590
  332W        W 1329   3.967   6.054   3.129  0.0794 -0.1092  0.1516
  333W        W 1330   2.539   0.663   6.475  0.1797  0.0849  0.0188
  334W        W 1331   6.692   2.127   1.620  0.1256 -0.0257 -0.3135
  335W        W 1332   5.273   1.238   4.292 -0.0610  0.2574  0.1298
  336W        W 1333   2.727   7.054   5.228  0.1691 -0.0319 -0.2425
  337W        W 1334   2.747   4.567   6.293 -0.0221 -0.1521  0.0183
  338W        W 1335   6.765   2.834   4.832  0.0397 -0.0894 -0.5189
  339W        W 1336   2.955   0.749   6.904 -0.3727 -0.1165  0.0776
  340W        W 1337   5.576   0.238   5.658 -0.0290  0.0164  0.2998
  341W        W 1338   0.510   0.243   1.939 -0.1063 -0.2374 -0.0530
  342W        W 1339   1.467   0.687   2.887 -0.0533 -0.0451 -0.0609
  343W        W 1340   4.726   3.928   0.002 -0.1710  0.2341 -0.3166
  344W        W 1341   2.555   7.607   3.553  0.0299 -0.1706  0.0014
  345W        W 1342   0.189   1.033   4.900 -0.1095 -0.1503 -0.0935
  346W        W 1343   4.243   3.752   1.951 -0.0139 -0.0147 -0.1511
  347W        W 1344   7.620   0.332   5.476 -0.1298  0.0988 -0.1442
  348W        W 1345   4.332   4.756   7.259 -0.1108  0.1161 -0.0504
  349W        W 1346   6.043   6.771   5.138  0.1296  0.0761  0.1029
  350W        W 1347   3.113   3.369   6.357  0.0849  0.2891  0.0949
  351W        W 1348   4.502   7.598   1.495  0.0125 -0.0698  0.2684
  352W        W 1349   7.614   2.894   0.549 -0.0714 -0.1867 -0.1120
  353W        W 1350   2.523   4.381   5.931 -0.2937 -0.2288 -0.1051
  354W        W 1351   6.641   5.540   6.897 -0.4416  0.0299  0.2806
  355W        W 1352   6.321   5.883   6.772 -0.2318  0.0669 -0.0458
  356W        W 1353   4.979   2.120   3.959  0.0643  0.4295  0.4230
  357W        W 1354   6.243   5.487   4.544 -0.1394 -0.1788  0.2250
  358W        W 1355   3.087   6.819   5.452 -0.0850 -0.3284  0.1619
  359W        W 1356   0.450   1.523   3.192  0.0186 -0.0773  0.3213
  360W        W 1357   6.170   4.383   7.582  0.0014  0.0332  0.1064
  361W        W 1358   2.587   3.588   4.784 -0.2068  0.0899 -0.3003
  362W        W 1359   1.566   3.633   0.164 -0.2035 -0.1038 -0.3070
  363W        W 1360   6.381   4.704   1.843 -0.1018  0.4180 -0.0320
  364W        W 1361   4.581   5.811   6.690 -0.0958  0.0051 -0.0895
  365W        W 1362   7.072   1.821   2.390  0.0696 -0.1347 -0.1913
  366W        W 1363   1.084   4.890   0.205  0.2294 -0.1389  0.3853
  367W        W 1364   0.201   1.438   6.251 -0.1177  0.0133 -0.1313
  368W        W 1365   5.311   2.633   5.232 -0.0426 -0.1886 -0.0370
  369W        W 1366   3.525   6.167   2.871  0.4228 -0.0742  0.2216
  370W        W 1367   2.517   1.095   3.786 -0.2398  0.2009  0.0907
  371W        W 1368   1.275   3.984   7.532  0.0759 -0.0145  0.1236
  372W        W 1369   7.024   2.688   5.809  0.1746 -0.4891 -0.3035
  373W        W 1370   2.906   1.938   5.529  0.1982 -0.2679 -0.0675
  374W        W 1371   0.488   7.114   6.987 -0.2261 -0.1141  0.2468
  375W        W 1372   2.245   5.527   1.353  0.1685 -0.0891  0.1122
  376W        W 1373   3.342   0.280   3.980  0.0086  0.0435  0.1654
  377W        W 1374   5.945   0.481   3.782  0.0256  0.1041  0.2666
  378W        W 1375   2.971   4.184   2.122 -0.1268 -0.3350  0.1063
  379W        W 1376   1.570   3.711   6.667  0.0877 -0.1130  0.3599
  380W        W 1377   7.364   1.368   0.727 -0.0494 -0.0874  0.0921
  381W        W 1378   6.770   0.612   4.507 -0.0346  0.1123  0.0314
  382W        W 1379   7.288   0.328   4.571  0.2684 -0.1295 -0.4013
  383W        W 1380   4.275   4.742   6.361  0.1974 -0.1872 -0.0459
  384W        W 1381   0.683   3.781   2.039 -0.0215 -0.0580  0.0404
  385W        W 1382   3.583   4.619   1.298 -0.2100 -0.0440 -0.0083
  386W        W 1383   1.525   4.253   7.024 -0.0439 -0.0862  0.0795
  387W        W 1384   5.941   2.977   4.485 -0.1729  0.2500  0.1877
  388W        W 1385   3.273   1.225   0.161 -0.0690  0.0456  0.0549
  389W        W 1386   6.443   2.556   2.382  0.0449  0.0574  0.0525
  390W        W 1387   3.989   2.996   3.773  0.1251 -0.0001  0.0025
  391W        W 1388   4.009   3.560   0.739  0.0647 -0.0718 -0.0956
  392W        W 1389   7.246   2.812   0.822  0.2166 -0.2420 -0.1452
  393W        W 1390   5.550   0.611   6.022 -0.1770  0.1012 -0.2045
  394W        W 1391   0.716   6.625   0.830 -0.1109 -0.1361 -0.5403
  395W        W 1392   0.333   4.570   0.836  0.2061 -0.1117 -0.0875
  396W        W 1393   0.950   4.228   2.019 -0.0375 -0.2447 -0.0173
  397W        W 1394   2.943   5.534   6.196 -0.0533 -0.1919  0.0188
  398W        W 1395   0.531   0.090   4.452  0.0351 -0.0689 -0.0444
  399W        W 1396   7.220   7.040   2.475  0.1274  0.2751 -0.4048
  400W        W 1397   5.548   3.390   4.633  0.2113  0.2130  0.0838
  401W        W 1398   0.529   6.273   1.104  0.1250  0.1279  0.1403
  402W        W 1399   2.150   7.368   2.226 -0.0027  0.0429  0.2086
  403W        W 1400   7.597   6.467   6.643 -0.0343 -0.0488 -0.1497
  404W        W 1401   6.179   3.051   2.163 -0.3743 -0.1864 -0.3410
  405W        W 1402   2.374   0.392   3.749 -0.4125  0.1401 -0.2060
  406W        W 1403   3.382   1.019   0.541 -0.1323 -0.0972 -0.3818
  407W        W 1404   7.337   2.171   0.174  0.0256  0.3067 -0.1398
  408W        W 1405   4.322   1.811   1.789 -0.0444  0.0916 -0.1793
  409W        W 1406   0.498   6.244   3.660  0.1010 -0.0760 -0.0649
  410W        W 1407   1.486   4.335   1.086 -0.3411  0.1396  0.2456
  411W        W 1408   3.592   5.689   1.459  0.4321 -0.3291  0.1052
  412W        W 1409   1.918   6.369   3.207 -0.1119 -0.0963 -0.1080
  413W        W 1410   1.486   6.379   1.330  0.2006  0.0003  0.0075
  414W        W 1411   0.896   1.389   4.180 -0.0635  0.1930  0.0630
  415W        W 1412   2.252   5.398   7.556  0.0187  0.2576 -0.1425
  416W        W 1413   5.195   4.021   1.390 -0.1549 -0.1480  0.1322
  417W        W 1414   2.878   3.102   5.983  0.1332  0.0589 -0.2457
  418W        W 1415   1.294   6.241   4.782 -0.1851  0.0444 -0.2576
  419W        W 1416   6.502   1.117   1.575  0.2189  0.0627  0.1494
  420W        W 1417   1.819   6.055   1.621  0.0282  0.0779 -0.1627
  421W        W 1418   1.365   0.703   5.438  0.1347  0.0346  0.1972
  422W        W 1419   3.874   0.762   1.722 -0.1469 -0.2892 -0.1110
  423W        W 1420   3.646   5.882   2.361  0.0430 -0.1736  0.1524
  424W        W 1421   3.946   6.654   0.010  0.0546 -0.2734  0.0956
  425W        W 1422   0.900   7.541   7.311  0.2818 -0.0890 -0.0953
  426W        W 1423   6.872   1.625   4.563 -0.0642  0.2816  0.1924
  427W        W 1424   6.805   7.027   5.594  0.0238 -0.0463  0.2482
  428W        W 1425   4.599   4.235   3.437 -0.0644  0.2105 -0.1002
  429W        W 1426   5.622   3.279   4.124 -0.0055  0.0267  0.0458
  430W        W 1427   0.994   0.357   6.979  0.2001  0.0917 -0.6243
  431W        W 1428   2.309   3.073   0.991  0.0847  0.2223  0.0179
  432W        W 1429   0.509   1.924   5.141 -0.0734 -0.1516 -0.0569
  433W        W 1430   2.924   4.861   2.178  0.0086 -0.1412  0.0372
  434W        W 1431   3.970   1.419   0.494 -0.0155 -0.1837 -0.1735
  435W        W 1432   5.992   2.624   0.488 -0.0361 -0.0869 -0.2914
  436W        W 1433   4.644   0.545   7.388  0.1696  0.1229 -0.2460
  437W        W 1434   6.345   2.324   6.037 -0.2135  0.1712 -0.3296
  438W        W 1435   5.356   3.821   2.380 -0.1728 -0.2036  0.1900
  439W        W 1436   6.671   3.007   1.450  0.0281 -0.3610  0.1919
  440W        W 1437   0.019   0.966   3.599 -0.1351 -0.3640  0.0589
  441W        W 1438   3.900   5.187   5.658  0.0917 -0.3315 -0.1061
  442W        W 1439   0.996   6.979   4.346 -0.0723 -0.2375  0.1066
  443W        W 1440   4.399   5.203   4.201 -0.0510 -0.0184 -0.1559
  444W        W 1441   5.700   2.494   5.565  0.3202 -0.0609  0.2219
  445W        W 1442   6.232   3.971   1.932  0.1236 -0.1594  0.1102
  446W        W 1443   5.037   2.290   0.209  0.1153 -0.0900 -0.1316
  447W        W 1444   4.420   6.220   0.155 -0.2452 -0.0172 -0.1310
  448W        W 1445   2.180   4.052   6.187 -0.0125 -0.1058  0.0970
  449W        W 1446   2.091   5.903   6.512  0.0239 -0.3114 -0.3741
  450W        W 1447   4.732   0.977   0.601 -0.1869  0.2306 -0.1642
  451W        W 1448   1.515   3.389   0.629  0.0752 -0.0795  0.1337
  452W        W 1449   2.014   3.349   2.046  0.0638 -0.1932 -0.3116
  453W        W 1450   2.789   3.524   3.763 -0.0281  0.2096  0.1977
  454W        W 1451   4.090   6.628   0.630  0.1684  0.3420 -0.1020
  455W        W 1452   5.682   4.850   1.920  0.1286 -0.1191  0.0512
  456W        W 1453   7.405   3.023   0.073  0.3213  0.0160  0.2227
  457W        W 1454   5.623   5.556   1.532 -0.0192  0.1534  0.4617
  458W        W 1455   4.136   0.975   4.803  0.1211 -0.2070  0.3252
  459W        W 1456   0.423   2.825   1.819 -0.0821 -0.0880  0.1191
  460W        W 1457   2.758   7.398   2.284 -0.2920  0.0643 -0.2086
  461W        W 1458   1.714   7.592   4.272  0.0056  0.1721  0.0731
  462W        W 1459   3.292   3.826   6.472  0.3644  0.0557 -0.2066
  463W        W 1460   0.829   4.590   1.692 -0.0384 -0.2250  0.1456
  464W        W 1461   3.950   7.649   4.593  0.2038 -0.0427 -0.3113
  465W        W 1462   5.342   3.200   1.700 -0.1189 -0.0715  0.0191
  466W        W 1463   1.947   1.123   5.912  0.0057 -0.0515  0.1105
  467W        W 1464   4.607   3.412   1.167 -0.3261 -0.1163  0.0921
  468W        W 1465   5.012   7.260   6.741 -0.0424  0.2531 -0.1040
  469W        W 1466   6.439   2.059   4.646 -0.0936 -0.0392 -0.1257
  470W        W 1467   7.517   0.224   6.456  0.0507  0.0253  0.2179
  471W        W 1468   1.890   6.660   2.719 -0.0166  0.2096  0.1827
  472W        W 1469   3.124   5.175   0.392  0.0123 -0.1875  0.2248
  473W        W 1470   6.891   3.105   0.377 -0.0920 -0.0933 -0.1583
  474W        W 1471   1.065   6.756   1.237  0.0374 -0.0598  0.0497
  475W        W 1472   5.626   7.314   3.774  0.0856  0.0186  0.3698
  476W        W 1473   2.181   3.970   6.707  0.2173  0.2276 -0.0101
  477W        W 1474   1.445   0.807   3.860  0.1008 -0.0356  0.0706
  478W        W 1475   6.248   6.532   0.629  0.0883  0.0009  0.2040
  479W        W 1476   4.339   1.140   0.950  0.0440 -0.0964  0.1033
  480W        W 1477   3.840   1.823   1.960  0.0815  0.0384  0.0964
  481W        W 1478   5.645   0.504   1.392 -0.1822 -0.1492  0.0620
  482W        W 1479   5.243   1.171   3.505 -0.0088 -0.3734  0.2924
  483W        W 1480   3.896   5.318   4.411  0.2985 -0.0142 -0.1335
  484W        W 1481   5.854   3.048   7.198 -0.3135 -0.2835 -0.1139
  485W        W 1482   4.529   4.789   0.423 -0.1905  0.2167 -0.1481
  486W        W 1483   5.447   0.880   5.108 -0.0472  0.1364  0.0276
  487W        W 1484   3.857   2.209   2.945  0.1791  0.1525 -0.1614
  488W        W 1485   6.426   7.083   6.511 -0.1588 -0.0142 -0.0406
  489W        W 1486   5.858   7.319   0.027  0.0957  0.1950  0.1237
  490W        W 1487   6.838   1.326   3.107 -0.1324  0.1802 -0.0585
  491W        W 1488   0.359   6.084   0.667  0.0386  0.0308 -0.0770
  492W        W 1489   1.207   6.752   5.710  0.0122  0.1084  0.0294
  493W        W 1490   5.914   3.714   0.944  0.0336  0.0887 -0.1406
  494W        W 1491   0.873   2.606   3.521 -0.1839  0.2437 -0.0315
  495W        W 1492   4.284   7.019   5.151 -0.1022 -0.0760  0.0610
  496W        W 1493   7.520   1.268   7.486  0.0124  0.2712  0.0083
  497W        W 1494   6.756   0.061   2.859 -0.0024 -0.3194 -0.1197
  498W        W 1495   3.270   0.837   4.231 -0.0211 -0.0437  0.1090
  499W        W 1496   6.303   0.564   4.685  0.0556  0.1000 -0.0128
  500W        W 1497   2.016   6.123   5.136 -0.2088 -0.3618 -0.2785
  501W        W 1498   3.017   3.570   0.660 -0.1731  0.1083  0.1782
  502W        W 1499   2.242   1.943   5.699 -0.2409  0.0463  0.0088
  503W        W 1500   1.199   2.371   3.839 -0.0372 -0.0570  0.1893
  504W        W 1501   3.891   0.012   0.821 -0.0134  0.0981 -0.0656
  505W        W 1502   1.400   2.076   4.227 -0.1424 -0.0217  0.2496
  506W        W 1503   5.594   4.277   3.127  0.0705 -0.1513  0.0951
  507W        W 1504   7.362   0.870   0.506 -0.2881  0.1045 -0.0924
  508W        W 1505   2.613   6.666   5.557 -0.1140 -0.3596  0.1062
  509W        W 1506   5.915   3.023   0.757  0.0352 -0.1428  0.0487
  510W        W 1507   4.200   4.680   5.004 -0.0345 -0.3102 -0.0806
  511W        W 1508   4.865   1.626   7.161 -0.3564 -0.0287  0.1496
  512W        W 1509   3.756   2.741   4.485  0.0453  0.0423  0.1406
  513W        W 1510   3.588   3.737   4.860  0.0498  0.2934 -0.2540
  514W        W 1511   6.747   3.303   5.113  0.1421 -0.0005  0.0724
  515W        W 1512   6.373   4.054   0.484 -0.3983 -0.3586  0.1492
  516W        W 1513   3.212   2.142   5.873  0.1595  0.1521 -0.0553
  517W        W 1514   6.292   4.895   2.295  0.1890 -0.0764 -0.0233
  518W        W 1515   7.648   6.876   2.125 -0.0732 -0.0618 -0.1125
  519W        W 1516   3.397   7.021   5.857 -0.2822  0.1549 -0.0673
  520W        W 1517   5.757   0.493   6.473 -0.0225  0.1101  0.2386
  521W        W 1518   3.069   1.915   6.282 -0.3255 -0.1154 -0.0234
  522W        W 1519   4.902   3.905   5.603  0.2225 -0.1932 -0.0564
  523W        W 1520   6.000   3.247   2.882  0.1055 -0.1890 -0.0543
  524W        W 1521   7.512   1.180   1.275  0.0152  0.2041  0.1564
  525W        W 1522   2.566   3.520   6.573  0.0502  0.2148 -0.2199
  526W        W 1523   6.634   3.282   6.693 -0.2056 -0.1927  0.4004
  527W        W 1524   4.693   5.371   0.971 -0.0045  0.2691 -0.0874
  528W        W 1525   2.294   1.233   6.378 -0.0691 -0.1444  0.0989
  529W        W 1526   6.034   5.624   2.435  0.0271 -0.2664 -0.3106
  530W        W 1527   4.159   5.857   3.551 -0.0802  0.0541 -0.1614
  531W        W 1528   5.034   4.145   4.743  0.2747 -0.1050  0.0744
  532W        W 1529   5.961   3.435   1.792  0.3063  0.1737 -0.1499
  533W        W 1530   5.178   7.627   6.997  0.2022 -0.2089  0.2371
  534W        W 1531   6.558   4.152   7.138 -0.3053  0.0011  0.1260
  535W        W 1532   3.875   7.647   7.502  0.1186 -0.1209 -0.0637
  536W        W 1533   3.826   4.815   7.381 -0.0527 -0.0845  0.0735
  537W        W 1534   1.281   5.869   1.532  0.0210 -0.2754  0.0822
  538W        W 1535   0.268   2.297   4.890  0.0101 -0.1627  0.0473
  539W        W 1536   3.536   6.522   0.690  0.0632  0.1461  0.2167
  540W        W 1537   5.689   7.543   1.717  0.1296 -0.1095 -0.1832
  541W        W 1538   5.588   6.237   7.228  0.1938 -0.3000  0.1181
  542W        W 1539   0.546   2.101   2.773  0.1556  0.0290  0.0556
  543W        W 1540   0.856   4.597   2.655 -0.0616 -0.1237  0.0824
  544W        W 1541   2.749   2.404   4.378  0.1079  0.2252  0.1629
  545W        W 1542   3.055   0.145   0.924 -0.1114  0.0911 -0.0658
  546W        W 1543   0.828   2.299   5.295  0.4343 -0.2858  0.1657
  547W        W 1544   5.376   6.962   5.544  0.0069  0.1589 -0.1077
  548W        W 1545   3.467   2.938   7.202  0.0226 -0.0622  0.3019
  549W        W 1546   5.481   2.024   0.173 -0.0471 -0.0099 -0.3376
  550W        W 1547   0.676   5.284   0.291  0.0504  0.2550 -0.0824
  551W        W 1548   0.706   6.989   0.448 -0.0748 -0.0428 -0.0591
  552W        W 1549   0.141   2.781   3.430 -0.2107  0.3909  0.1512
  553W        W 1550   1.409   4.924   1.135 -0.3132 -0.1819 -0.1257
  554W        W 1551   0.045   7.378   6.897 -0.2618  0.3253 -0.1312
  555W        W 1552   5.383   2.574   3.751 -0.1665  0.2251 -0.0453
  556W        W 1553   6.401   0.786   5.481  0.1247 -0.2860 -0.2368
  557W        W 1554   1.769   7.393   5.622  0.0474  0.4603 -0.4119
  558W        W 1555   5.103   6.120   0.577  0.0730 -0.0597 -0.0014
  559W        W 1556   5.119   0.518   5.466  0.0097  0.0548  0.0364
  560W        W 1557   1.191   6.328   5.392 -0.0728 -0.2332 -0.2472
  561W        W 1558   7.169   0.396   5.704 -0.1558 -0.5391  0.0100
  562W        W 1559   4.716   5.870   2.435 -0.1648 -0.0502 -0.2575
  563W        W 1560   5.470   7.005   0.083  0.1523 -0.1694 -0.1394
  564W        W 1561   6.381   2.969   7.299  0.1203 -0.0095  0.1873
  565W        W 1562   2.804   4.030   4.000  0.1642  0.0067 -0.5182
  566W        W 1563   0.613   3.461   0.394  0.0945  0.3519 -0.1792
  567W        W 1564   4.741   4.470   7.153  0.1111 -0.1966 -0.2758
  568W        W 1565   5.405   6.953   4.088 -0.2243  0.3426  0.2126
  569W        W 1566   7.471   0.840   5.369 -0.2963  0.2790 -0.0397
  570W        W 1567   3.805   1.841   4.286  0.2628  0.0616  0.0857
  571W        W 1568   5.509   1.048   0.732 -0.1359 -0.0947 -0.1564
  572W        W 1569   6.867   5.061   1.151  0.0585  0.0000  0.2431
  573W        W 1570   7.653   6.830   1.275  0.0505 -0.1403 -0.0880
  574W        W 1571   2.852   6.513   4.469  0.2284 -0.0582  0.0805
  575W        W 1572   4.016   5.772   4.164 -0.0375  0.0467  0.3039
  576W        W 1573   5.194   0.389   1.504  0.0129 -0.0263 -0.0173
  577W        W 1574   4.933   1.298   2.603 -0.2844  0.2381 -0.2786
  578W        W 1575   7.337   6.445   1.250 -0.0103 -0.2883  0.2080
  579W        W 1576   2.798   5.857   2.289  0.1802 -0.0533  0.0115
  580W        W 1577   6.344   2.885   4.173 -0.1052  0.0812 -0.2126
  581W        W 1578   0.512   0.679   2.143 -0.1645 -0.1447  0.4126
  582W        W 1579   5.669   0.383   5.202  0.3176 -0.2190 -0.1614
  583W        W 1580   5.895   0.900   1.152 -0.3006 -0.1515 -0.0014
  584W        W 1581   6.785   1.180   4.261 -0.4094 -0.1952 -0.0243
  585W        W 1582   0.238   2.989   6.906  0.0355  0.1238 -0.1368
  586W        W 1583   0.899   7.635   2.812 -0.0850 -0.2278  0.2866
  587W        W 1584   3.399   4.534   7.349 -0.0697 -0.0440  0.0806
  588W        W 1585   7.601   1.991   2.488 -0.1794  0.0542  0.0329
  589W        W 1586   0.818   6.672   5.394 -0.0459  0.3439  0.0548
  590W        W 1587   5.926   7.180   6.683 -0.0443 -0.0196 -0.2131
  591W        W 1588   0.765   6.955   4.926  0.4424 -0.0546 -0.0457
  592W        W 1589   1.865   0.545   3.762  0.2102  0.1111 -0.3443
  593W        W 1590   0.738   4.096   2.474 -0.1955 -0.2409  0.0208
  594W        W 1591   6.959   0.472   3.176 -0.0159  0.2590 -0.5498
  595W        W 1592   4.523   1.552   3.458 -0.0770  0.1443  0.1904
  596W        W 1593   1.860   3.362   5.303 -0.1016  0.0856  0.2091
  597W        W 1594   5.852   7.394   5.777 -0.1192 -0.0821 -0.1583
  598W        W 1595   6.781   3.944   5.868 -0.1833  0.0235 -0.0908
  599W        W 1596   3.970   5.174   6.298  0.2718  0.1860  0.1858
  600W        W 1597   0.338   7.287   3.630 -0.1747 -0.1903 -0.1337
  601W        W 1598   7.326   4.776   1.245  0.0475 -0.2292 -0.0560
  602W        W 1599   0.526   2.446   4.311  0.0587  0.0271  0.0049
  603W        W 1600   7.542   1.027   1.976 -0.0730  0.1365 -0.0872
  604W        W 1601   3.511   7.238   4.653 -0.2936 -0.0187 -0.2461
  605W        W 1602   0.910   2.123   5.947  0.0620  0.1869 -0.0194
  606W        W 1603   3.291   5.394   6.851  0.2310 -0.0273 -0.0869
  607W        W 1604   4.340   1.618   5.463 -0.1150 -0.2395  0.1692
  608W        W 1605   4.535   5.099   1.366 -0.3368 -0.0821 -0.2405
  609W        W 1606   6.945   2.175   5.431  0.3154 -0.1210  0.1693
  610W        W 1607   3.488   6.307   7.442  0.3758  0.1761 -0.0372
  611W        W 1608   3.952   5.976   1.305 -0.1059 -0.0527  0.2593
  612W        W 1609   2.898   3.178   4.952 -0.1490 -0.1242  0.1243
  613W        W 1610   3.352   7.214   3.467  0.1377  0.0136  0.4293
  614W        W 1611   6.066   6.098   1.557 -0.2222 -0.0354  0.2722
  615W        W 1612   6.116   7.048   3.807 -0.0537 -0.0323 -0.2006
  616W        W 1613   6.334   1.820   1.815 -0.0993 -0.1295 -0.4103
  617W        W 1614   5.467   7.209   2.316 -0.2099 -0.0916 -0.0520
  618W        W 1615   6.053   2.631   6.498 -0.1906 -0.3913 -0.1362
  619W        W 1616   2.142   7.453   7.476  0.0184  0.1028 -0.1817
  620W        W 1617   1.621   7.240   1.219  0.0677 -0.2857  0.2089
  621W        W 1618   5.903   1.407   0.830  0.0046 -0.1111 -0.0629
  622W        W 1619   3.941   0.517   1.063 -0.0146 -0.0148 -0.1596
  623W        W 1620   6.332   2.846   0.956 -0.1199  0.1095  0.1450
  624W        W 1621   5.897   1.256   6.306  0.1405 -0.2676 -0.0900
  625W        W 1622   5.406   6.460   4.284 -0.0715  0.0805 -0.1943
  626W        W 1623   6.021   1.498   5.897  0.3603 -0.1208 -0.1718
  627W        W 1624   7.388   7.579   5.655  0.3801 -0.0038 -0.0347
  628W        W 1625   3.401   7.502   0.722  0.0694 -0.0901  0.0931
  629W        W 1626   5.920   2.136   4.708 -0.0196  0.1895 -0.3165
  630W        W 1627   5.887   1.928   1.965 -0.1106  0.1142 -0.0694
  631W        W 1628   2.547   6.904   3.408  0.0018 -0.0595 -0.1000
  632W        W 1629   2.230   5.356   2.736 -0.0587  0.1750 -0.5458
  633W        W 1630   5.474   7.587   2.691  0.2852  0.2045 -0.0434
  634W        W 1631   4.223   5.237   7.243 -0.1959  0.0070 -0.3294
  635W        W 1632   3.349   0.421   5.779  0.0613  0.1090  0.0097
  636W        W 1633   2.196   2.850   2.034  0.4154 -0.0016 -0.3090
  637W        W 1634   3.194   6.012   1.476  0.0330  0.3947  0.0685
  638W        W 1635   6.014   5.704   1.264 -0.1820 -0.2213  0.1961
  639W        W 1636   4.906   5.148   0.620  0.1564  0.0760 -0.0641
  640W        W 1637   6.865   3.919   0.304 -0.0169 -0.0537 -0.0672
  641W        W 1638   4.389   3.863   0.951 -0.1492 -0.0620  0.0610
  642W        W 1639   1.374   0.573   4.839  0.0840  0.2593 -0.1931
  643W        W 1640   4.418   6.450   5.678 -0.1752 -0.2858  0.2434
  644W        W 1641   3.802   2.680   6.229  0.3542  0.3532 -0.4358
  645W        W 1642   4.329   0.253   5.548  0.3683  0.2410  0.0091
  646W        W 1643   1.430   3.429   3.641  0.1067 -0.0095 -0.1987
  647W        W 1644   4.985   4.462   2.475  0.0276 -0.3215 -0.1911
  648W        W 1645   3.020   6.199   7.124 -0.1250  0.0301  0.1031
  649W        W 1646   3.340   4.170   3.279  0.4215  0.0152 -0.2689
  650W        W 1647   7.095   1.343   1.697 -0.0680  0.0274  0.3815
  651W        W 1648   1.416   6.312   0.028 -0.0477 -0.0286 -0.0335
  652W        W 1649   6.371   6.759   7.374  0.1567  0.2948  0.0937
  653W        W 1650   2.189   0.161   0.714 -0.0580  0.1435  0.0929
  654W        W 1651   6.702   2.186   2.592 -0.2284 -0.1098  0.0291
  655W        W 1652   0.138   0.918   4.450  0.2350  0.1611 -0.1260
  656W        W 1653   4.245   5.949   2.284  0.1361 -0.1504 -0.3733
  657W        W 1654   0.128   6.997   6.519 -0.2508  0.1091 -0.0035
  658W        W 1655   0.029   7.212   5.871  0.0272 -0.0602  0.0266
  659W        W 1656   1.405   6.526   3.519  0.3196  0.0644 -0.0746
  660W        W 1657   0.577   3.764   7.221 -0.0208  0.0458 -0.2484
  661W        W 1658   5.410   3.825   4.493  0.3438  0.5082 -0.2747
  662W        W 1659   4.291   0.803   1.336 -0.1499  0.1781 -0.1619
  663W        W 1660   1.927   3.230   1.312  0.3176 -0.1896 -0.1692
  664W        W 1661   7.403   3.125   6.075 -0.4874  0.1518 -0.0468
  665W        W 1662   2.677   0.616   4.459  0.2569 -0.1441  0.2560
  666W        W 1663   5.613   2.598   0.137  0.1759 -0.0187 -0.0772
  667W        W 1664   4.129   5.517   1.435  0.3137 -0.1254  0.0828
  668W        W 1665   1.540   7.547   5.201 -0.3162 -0.3049  0.0351
  669W        W 1666   4.395   0.439   5.049  0.0076  0.2169 -0.0649
  670W        W 1667   2.609   5.933   6.538  0.0727 -0.1178  0.1843
  671W        W 1668   1.626   4.588   6.683  0.0819  0.0912 -0.1261
  672W        W 1669   5.332   5.958   4.136 -0.0070 -0.0435  0.2444
  673W        W 1670   4.880   4.414   3.913 -0.0593 -0.2266  0.1515
  674W        W 1671   0.822   7.123   5.442 -0.1199 -0.2925  0.1742
  675W        W 1672   7.323   1.887   5.483  0.1264  0.1829  0.1643
  676W        W 1673   3.895   3.168   7.365 -0.2048  0.0551 -0.0944
  677W        W 1674   1.970   3.628   6.402  0.2479 -0.0934 -0.0147
  678W        W 1675   1.924   6.808   4.536  0.0342  0.1524 -0.2338
  679W        W 1676   0.594   4.662   0.239  0.0305 -0.2483 -0.2603
  680W        W 1677   3.268   6.219   4.683 -0.0138 -0.1456 -0.0415
  681W        W 1678   0.152   3.389   0.260  0.0388 -0.0638 -0.0809
  682W        W 1679   6.398   6.953   2.021 -0.0179  0.0075  0.1216
  683W        W 1680   0.577   4.958   1.398 -0.2746 -0.1738  0.1300
  684W        W 1681   5.069   2.495   1.867 -0.0781 -0.3387 -0.0953
  685W        W 1682   6.179   2.388   0.969  0.1387  0.1968 -0.1016
  686W        W 1683   4.170   6.074   4.640 -0.0172 -0.2142  0.1134
  687W        W 1684   6.698   2.000   6.294 -0.1068  0.1910 -0.1227
  688W        W 1685   3.458   3.974   5.305  0.0999 -0.3642  0.1725
  689W        W 1686   6.584   1.477   0.954  0.2596  0.2651  0.1929
  690W        W 1687   3.812   5.272   6.768  0.2120  0.0605 -0.2403
  691W        W 1688   4.313   3.197   5.196  0.1286 -0.3850 -0.1717
  692W        W 1689   5.435   6.417   2.645 -0.2665  0.4090  0.0274
  693W        W 1690   3.356   0.520   2.498  0.0067  0.0379 -0.0807
  694W        W 1691   4.093   1.067   2.676 -0.3370  0.0654  0.0272
  695W        W 1692   5.063   4.144   2.056  0.0325 -0.1133  0.1443
  696W        W 1693   2.115   5.847   7.179  0.1509 -0.3492  0.0177
  697W        W 1694   7.366   2.391   5.538  0.1022 -0.2772 -0.1994
  698W        W 1695   4.842   4.121   6.122  0.1191  0.0796  0.2669
  699W        W 1696   4.069   0.720   0.361  0.3541 -0.2533  0.2227
  700W        W 1697   2.096   4.876   2.891 -0.2000 -0.0073  0.1976
  701W        W 1698   1.293   3.063   7.546 -0.0388  0.3274  0.3102
  702W        W 1699   4.910   4.709   3.358  0.0180  0.3058 -0.0357
  703W        W 1700   4.468   4.605   1.339 -0.2727  0.0294 -0.1468
  704W        W 1701   4.690   2.605   7.579 -0.1614 -0.1750 -0.2875
  705W        W 1702   6.899   7.269   6.502  0.1116 -0.2121  0.3292
  706W        W 1703   7.186   1.651   4.992  0.0674 -0.2796 -0.1882
  707W        W 1704   5.524   7.360   6.433 -0.0871  0.3767 -0.3112
  708W        W 1705   2.449   6.964   6.049 -0.1607  0.0711  0.0146
  709W        W 1706   3.411   4.915   2.387  0.0652 -0.2227  0.1506
  710W        W 1707   1.343   1.097   1.665 -0.0894  0.0141  0.1575
  711W        W 1708   3.349   0.823   7.524 -0.1472  0.3524 -0.1075
  712W        W 1709   2.558   5.373   5.909 -0.1134  0.1825  0.0650
  713W        W 1710   3.374   4.193   4.680 -0.1378 -0.1552 -0.0832
  714W        W 1711   0.927   3.637   1.343  0.0703  0.0279  0.1492
  715W        W 1712   5.423   2.109   1.943  0.1427 -0.0617  0.0198
  716W        W 1713   3.390   0.980   1.591 -0.2901  0.0381 -0.0603
  717W        W 1714   6.728   0.039   1.037  0.0355  0.1356  0.1148
  718W        W 1715   5.866   1.940   1.051 -0.0022 -0.0732 -0.3194
  719W        W 1716   5.390   7.420   5.953  0.0715 -0.0645 -0.0854
  720W        W 1717   7.049   1.590   6.797  0.0615 -0.0090  0.1444
  721W        W 1718   3.194   1.502   5.380  0.0909  0.0146  0.3436
  722W        W 1719   3.026   6.638   1.037  0.3916 -0.3990 -0.0386
  723W        W 1720   7.281   1.907   4.556 -0.0063 -0.1007 -0.0549
  724W        W 1721   2.810   6.161   4.829  0.0769  0.0524 -0.0468
  725W        W 1722   6.372   6.615   4.764 -0.1977 -0.2632  0.2119
  726W        W 1723   4.914   2.157   7.265 -0.2770 -0.2255  0.2648
  727W        W 1724   5.293   2.959   4.391  0.2305  0.0040  0.3525
  728W        W 1725   4.693   0.229   6.976 -0.1739 -0.1095 -0.1183
  729W        W 1726   7.026   0.489   2.620 -0.1017 -0.1697 -0.3259
  730W        W 1727   4.603   1.414   7.579  0.3868 -0.2208  0.0128
  731W        W 1728   6.508   4.194   2.762  0.0314 -0.0126  0.1080
  732W        W 1729   2.698   7.599   2.744 -0.2150 -0.1819 -0.0807
  733W        W 1730   6.553   1.626   4.937  0.1481  0.1088  0.0168
  734W        W 1731   5.470   2.559   6.532 -0.0571 -0.0221  0.4206
  735W        W 1732   3.424   4.772   5.581 -0.2890 -0.0460 -0.1751
  736W        W 1733   4.953   5.323   5.342  0.0293  0.0745 -0.2522
  737W        W 1734   1.320   3.576   7.178  0.2356  0.0759  0.1063
  738W        W 1735   5.132   5.629   0.602  0.1250 -0.0091 -0.1587
  739W        W 1736   6.019   7.463   0.441  0.0244  0.1500 -0.4790
  740W        W 1737   0.130   0.965   0.789 -0.1081 -0.1025 -0.1722
  741W        W 1738   3.814   1.952   0.507  0.1835 -0.1229  0.1994
  742W        W 1739   0.116   0.665   6.632  0.3716 -0.0079  0.0792
  743W        W 1740   4.008   2.561   2.536 -0.4206  0.0687  0.0367
  744W        W 1741   4.970   6.182   6.610 -0.1209  0.2154 -0.2887
  745W        W 1742   4.010   3.195   2.505  0.0802 -0.0051 -0.0412
  746W        W 1743   4.545   2.546   1.502 -0.2166 -0.2849  0.0342
  747W        W 1744   3.679   6.198   6.414  0.0985 -0.0319  0.1764
  748W        W 1745   5.300   6.515   6.874  0.2341  0.2373  0.4996
  749W        W 1746   7.643   2.698   4.097  0.1392 -0.2548  0.0952
  750W        W 1747   6.736   4.341   1.979 -0.0294  0.0695  0.2415
  751W        W 1748   2.274   6.509   3.703  0.2043  0.1842  0.2993
  752W        W 1749   4.160   0.582   3.542 -0.2061 -0.0830 -0.2538
  753W        W 1750   7.221   6.558   6.942 -0.2036  0.2088 -0.0618
  754W        W 1751   1.856   7.594   0.361  0.1143 -0.2635  0.0262
  755W        W 1752   3.481   3.162   6.678  0.0765 -0.0428 -0.1961
  756W        W 1753   7.106   0.082   6.079 -0.2651  0.1007 -0.0580
  757W        W 1754   5.339   3.736   3.151  0.0015  0.0580 -0.0375
  758W        W 1755   2.705   1.211   6.650 -0.0892 -0.0056 -0.0334
  759W        W 1756   1.767   4.905   0.675  0.1040  0.0882  0.0484
  760W        W 1757   6.440   0.425   2.419 -0.0083 -0.1260  0.3471
  761W        W 1758   4.174   5.788   5.089 -0.0687 -0.0378  0.0851
  762W        W 1759   3.975   4.512   5.908  0.3064 -0.1298 -0.0379
  763W        W 1760   5.460   4.544   3.494  0.0581  0.1149 -0.0348
  764W        W 1761   2.842   1.357   6.194 -0.3653 -0.0471 -0.1764
  765W        W 1762   1.691   6.065   7.274  0.0279  0.0443 -0.3640
  766W        W 1763   1.416   0.089   7.135 -0.2835  0.2729 -0.1833
  767W        W 1764   2.909   3.664   0.181  0.1151 -0.0341 -0.0920
  768W        W 1765   3.208   6.980   0.275 -0.1691 -0.0060  0.0312
  769W        W 1766   0.314   1.535   7.640 -0.0523  0.1682  0.1018
  770W        W 1767   7.282   1.344   5.467  0.1760  0.0856  0.2043
  771W        W 1768   6.704   2.190   2.107 -0.1298  0.0143  0.1590
  772W        W 1769   0.231   5.344   0.649 -0.0799  0.3594  0.3167
  773W        W 1770   3.512   6.912   7.491 -0.1125 -0.2016 -0.0025
  774W        W 1771   3.243   0.204   0.434  0.1872  0.1564 -0.2677
  775W        W 1772   0.774   2.180   4.747  0.1466 -0.1260 -0.1231
  776W        W 1773   6.036   5.679   3.009  0.0383  0.0431 -0.0193
  777W        W 1774   0.776   2.162   3.677  0.0965  0.0892  0.0375
  778W        W 1775   5.203   3.737   6.019  0.0156 -0.1824 -0.0811
  779W        W 1776   5.647   0.912   2.753  0.4072 -0.1711  0.1246
  780W        W 1777   1.888   3.034   4.594  0.0166  0.0701 -0.0392
  781W        W 1778   3.696   5.370   1.043  0.0309  0.1438 -0.2397
  782W        W 1779   3.449   3.160   2.236 -0.0048 -0.0081 -0.0444
  783W        W 1780   3.801   3.545   2.181  0.3442  0.1201  0.3090
  784W        W 1781   5.870   7.628   1.279  0.0845  0.1097  0.4197
  785W        W 1782   2.047   6.722   6.307 -0.1054  0.2151 -0.2446
  786W        W 1783   4.597   1.423   1.761  0.0498 -0.1805  0.2880
  787W        W 1784   4.229   0.368   0.014 -0.2281  0.0076 -0.1034
  788W        W 1785   0.668   0.382   3.337  0.2498 -0.2483 -0.0811
  789W        W 1786   5.052   3.273   0.774  0.2892 -0.1072 -0.0062
  790W        W 1787   5.748   2.796   3.145 -0.2051  0.0733 -0.0960
  791W        W 1788   6.337   5.264   3.132  0.1747 -0.1502  0.3285
  792W        W 1789   5.017   2.361   3.451  0.0013 -0.1462  0.2011
  793W        W 1790   0.926   6.353   5.846 -0.1304 -0.0048  0.0490
  794W        W 1791   2.395   5.862   4.896  0.0023 -0.1292  0.3070
  795W        W 1792   5.545   7.416   0.382  0.1059 -0.0884  0.4298
  796W        W 1793   7.347   1.597   3.686  0.0465  0.3475 -0.2631
  797W        W 1794   6.797   4.473   0.411  0.0713  0.0799 -0.3028
  798W        W 1795   2.649   4.848   5.827  0.3004  0.1806 -0.1855
  799W        W 1796   5.829   0.405   4.729 -0.0172 -0.0402  0.1008
  800W        W 1797   0.269   3.420   1.792  0.1329  0.0713 -0.0408
  801W        W 1798   6.265   2.032   4.111 -0.1399 -0.0350 -0.1413
  802W        W 1799   5.007   2.189   6.230  0.0672  0.1023  0.2513
  803W        W 1800   3.853   6.505   1.112  0.3521  0.1241 -0.1418
  804W        W 1801   1.675   4.204   5.973 -0.0682 -0.0083  0.0861
  805W        W 1802   0.794   4.638   7.451 -0.0383  0.0838  0.2573
  806W        W 1803   1.435   7.347   2.251  0.2883  0.0929  0.1445
  807W        W 1804   3.524   5.061   3.744  0.3272  0.0427  0.3427
  808W        W 1805   3.571   7.372   6.187  0.0236 -0.2386 -0.0793
  809W        W 1806   5.654   3.015   5.687  0.0284 -0.0732 -0.1202
  810W        W 1807   7.391   1.764   1.913 -0.1220 -0.2155  0.0220
  811W        W 1808   1.641   7.383   7.523  0.2930  0.0196 -0.2179
  812W        W 1809   1.785   2.132   3.335  0.0718 -0.0756 -0.0173
  813W        W 1810   6.912   5.742   2.340 -0.1122 -0.2601 -0.0138
  814W        W 1811   2.854   6.013   6.062 -0.0879 -0.3160  0.0597
  815W        W 1812   7.131   2.646   0.355  0.0408  0.0899  0.1216
  816W        W 1813   2.666   6.686   7.353 -0.4267 -0.2135  0.1003
  817W        W 1814   5.928   1.117   1.630  0.0289 -0.2855 -0.1209
  818W        W 1815   0.294   7.151   5.324 -0.0678  0.2799 -0.1290
  819W        W 1816   2.136   3.043   7.204  0.1436  0.1587  0.1059
  820W        W 1817   3.624   4.940   6.032  0.1105  0.1856 -0.1510
  821W        W 1818   6.245   1.759   6.277  0.1495 -0.6501  0.2073
  822W        W 1819   6.731   0.779   1.901 -0.0226 -0.0928 -0.0979
  823W        W 1820   1.364   5.954   1.018 -0.2306 -0.0557  0.2097
  824W        W 1821   6.059   2.465   4.294  0.2064 -0.0286 -0.1449
  825W        W 1822   2.615   7.466   7.394 -0.0568  0.0536  0.0513
  826W        W 1823   3.734   7.047   3.095 -0.0298 -0.1372  0.0017
  827W        W 1824   0.620   0.636   6.858  0.0260 -0.4214 -0.2108
  828W        W 1825   2.856   3.706   3.315 -0.2508 -0.1656 -0.0970
  829W        W 1826   6.941   3.490   2.413  0.0135 -0.1961 -0.0714
  830W        W 1827   1.316   4.137   6.429  0.2791  0.1338  0.0401
  831W        W 1828   4.456   2.111   6.479 -0.0281 -0.2538  0.0166
  832W        W 1829   6.139   6.898   1.478 -0.1989 -0.1112  0.1004
  833W        W 1830   4.739   6.861   4.784  0.3035 -0.3872 -0.1707
  834W        W 1831   4.197   7.492   0.171  0.2089 -0.1543 -0.1531
  835W        W 1832   0.076   2.034   0.861 -0.3554  0.0540 -0.1113
  836W        W 1833   1.929   6.349   6.953  0.0527  0.2003  0.0836
  837W        W 1834   4.280   0.495   2.695  0.0500 -0.2069  0.2899
  838W        W 1835   3.496   2.452   1.306  0.0835 -0.2135 -0.1168
  839W        W 1836   5.226   7.101   4.783  0.3986 -0.2832  0.1580
  840W        W 1837   7.197   1.906   6.421 -0.2671 -0.1532  0.0201
  841W        W 1838   3.006   6.567   1.525 -0.0512 -0.1657  0.1541
  842W        W 1839   2.620   6.422   0.851 -0.0202 -0.2809  0.2468
  843W        W 1840   6.001   0.265   1.680  0.3305 -0.1107 -0.2927
  844W        W 1841   2.174   3.721   5.301 -0.0703  0.0735  0.1601
  845W        W 1842   6.478   5.783   2.095 -0.2938  0.0488 -0.3236
  846W        W 1843   4.126   1.417   3.023 -0.1019 -0.1684  0.0969
  847W        W 1844   3.858   0.183   4.134 -0.2155 -0.2581  0.2058
  848W        W 1845   5.074   3.455   1.336 -0.2407  0.0405  0.0340
  849W        W 1846   1.555   2.765   6.347  0.0741  0.1101 -0.1392
  850W        W 1847   3.714   5.639   3.042 -0.1404 -0.0059 -0.0050
  851W        W 1848   7.212   6.637   4.564  0.2537 -0.0085 -0.1628
  852W        W 1849   1.900   5.288   3.108 -0.1654  0.0506 -0.0909
  853W        W 1850   0.122   1.421   5.200  0.2337 -0.1876  0.0928
  854W        W 1851   4.037   3.134   0.545 -0.0832  0.0945  0.0398
  855W        W 1852   2.110   3.356   3.761 -0.0798  0.2117  0.0382
  856W        W 1853   3.296   0.324   6.788 -0.2383  0.0074 -0.1938
  857W        W 1854   2.167   2.690   1.331  0.3955  0.0628  0.0173
  858W        W 1855   7.532   7.416   3.439  0.2629 -0.0182  0.0669
  859W        W 1856   6.947   6.536   3.644 -0.2592  0.1290  0.0449
  860W        W 1857   1.363   6.190   5.947 -0.1053  0.2236 -0.4007
  861W        W 1858   1.635   1.995   3.799  0.2300  0.0030  0.1778
  862W        W 1859   0.710   6.440   6.343  0.2612 -0.0704  0.1537
  863W        W 1860   3.500   0.461   0.801  0.1774 -0.1454 -0.1831
  864W        W 1861   6.516   5.686   1.062 -0.1478  0.0901  0.0529
  865W        W 1862   5.848   2.337   7.372 -0.5093  0.0375 -0.0552
  866W        W 1863   4.335   3.719   4.960 -0.1836  0.3745 -0.0516
  867W        W 1864   1.574   2.259   5.018  0.0625 -0.1103 -0.0382
  868W        W 1865   2.020   6.497   1.010 -0.1882 -0.0785 -0.1902
  869W        W 1866   4.630   3.613   3.521 -0.0098 -0.0850  0.1981
  870W        W 1867   6.780   6.762   0.676 -0.0731 -0.2498 -0.4099
  871W        W 1868   1.472   7.316   6.819  0.1112  0.1942  0.0010
  872W        W 1869   4.186   1.143   5.573 -0.0580  0.2405 -0.4780
  873W        W 1870   2.249   1.530   4.334 -0.0214  0.0527  0.1656
  874W        W 1871   1.837   6.275   4.671  0.2174 -0.0569  0.3914
  875W        W 1872   6.861   4.617   1.424 -0.2140 -0.1425 -0.0358
  876W        W 1873   4.620   5.173   3.104  0.1500  0.0808 -0.0856
  877W        W 1874   0.922   7.205   2.525 -0.0651 -0.0414 -0.2693
  878W        W 1875   0.405   6.772   3.389  0.1202  0.0926  0.1367
  879W        W 1876   3.163   5.725   4.620 -0.2227 -0.0906 -0.0100
  880W        W 1877   0.689   7.161   1.015 -0.0264  0.1651  0.0068
  881W        W 1878   3.168   5.388   3.849 -0.0687 -0.3037  0.2676
  882W        W 1879   6.869   4.810   7.591  0.0293  0.4539 -0.0734
  883W        W 1880   4.145   3.187   1.115  0.0954 -0.0042  0.1237
  884W        W 1881   2.639   5.074   3.089  0.1640  0.1412  0.0274
  885W        W 1882   4.643   7.332   2.086  0.1508 -0.1984 -0.3696
  886W        W 1883   5.956   4.898   0.856 -0.1117 -0.0702 -0.3943
  887W        W 1884   5.286   3.114   5.325  0.1019  0.3517 -0.1874
  888W        W 1885   6.219   5.823   4.152  0.6017  0.0048 -0.1953
  889W        W 1886   2.730   0.124   6.251  0.2066  0.1733  0.0192
  890W        W 1887   4.742   0.527   4.197 -0.1899 -0.2506  0.0564
  891W        W 1888   6.281   0.545   0.043 -0.0052  0.2046 -0.1065
  892W        W 1889   0.172   3.003   6.357 -0.5122  0.0478  0.1417
  893W        W 1890   4.811   7.599   4.041 -0.3048 -0.4273 -0.2294
  894W        W 1891   1.583   5.394   0.781 -0.3837 -0.0467  0.1548
  895W        W 1892   5.567   5.511   0.254 -0.3399  0.1689 -0.2557
  896W        W 1893   6.593   2.715   0.086 -0.1128  0.1102  0.3810
  897W        W 1894   4.188   2.220   0.738  0.1878 -0.3296 -0.0278
  898W        W 1895   5.901   4.798   7.447 -0.3192  0.0108 -0.0763
  899W        W 1896   0.772   0.802   2.535  0.3352 -0.3631  0.0175
  900W        W 1897   3.509   3.374   7.595 -0.0485  0.0438  0.1133
  901W        W 1898   4.775   3.530   1.712  0.2070 -0.0768  0.0122
  902W        W 1899   6.710   2.723   0.613 -0.2770  0.0117 -0.0464
  903W        W 1900   4.366   2.042   5.147  0.2073  0.1380 -0.0520
  904W        W 1901   1.744   6.601   7.358  0.0334 -0.0107 -0.1169
  905W        W 1902   6.543   6.349   2.826 -0.3198  0.1108  0.0450
  906W        W 1903   1.757   0.315   4.665  0.1434  0.2711 -0.0493
  907W        W 1904   0.253   6.509   1.989 -0.2269  0.2268  0.0361
  908W        W 1905   4.543   4.722   4.266 -0.1903 -0.1535  0.0469
  909W        W 1906   7.172   7.512   3.047  0.0111  0.1794 -0.3004
  910W        W 1907   2.727   6.079   0.440  0.3227  0.0359 -0.1657
  911W        W 1908   7.133   1.248   0.255 -0.2500 -0.0227  0.1705
  912W        W 1909   0.121   1.169   0.332 -0.0491  0.0990 -0.1129
  913W        W 1910   1.159   2.577   6.072 -0.1441  0.1996  0.2562
  914W        W 1911   4.758   2.670   3.855  0.1029  0.1942  0.3722
  915W        W 1912   3.907   3.108   6.379 -0.2065 -0.0992  0.1282
  916W        W 1913   7.440   2.575   2.465 -0.2007 -0.0487  0.1640
  917W        W 1914   2.950   3.926   6.788 -0.0749 -0.0537  0.3586
  918W        W 1915   4.194   6.068   6.217 -0.0079  0.0383 -0.1847
  919W        W 1916   2.720   7.487   5.465 -0.0779  0.0101  0.1319
  920W        W 1917   3.804   0.953   0.720 -0.0111 -0.1333 -0.2156
  921W        W 1918   3.074   6.562   7.619 -0.0629 -0.1003  0.0833
  922W        W 1919   6.672   6.733   0.151  0.0431 -0.0097 -0.0008
  923W        W 1920   2.939   5.661   1.281 -0.1510 -0.0327  0.3356
  924W        W 1921   3.374   2.200   2.150  0.1101 -0.1498  0.1410
  925W        W 1922   5.539   4.007   3.576  0.3195 -0.0323  0.1046
  926W        W 1923   5.901   2.684   1.395  0.1402 -0.0765 -0.1532
  927W        W 1924   0.155   6.159   2.869  0.1822  0.0777 -0.2950
  928W        W 1925   3.386   2.789   0.929 -0.0982 -0.0420  0.2805
  929W        W 1926   3.935   3.988   5.698  0.1060 -0.2410  0.0805
  930W        W 1927   6.476   6.837   2.964 -0.2758  0.1097 -0.0166
  931W        W 1928   3.512   1.047   2.455 -0.2365 -0.0751 -0.3662
  932W        W 1929   6.025   6.772   3.167 -0.1464 -0.3179 -0.1250
  933W        W 1930   4.379   3.170   6.490 -0.3874 -0.0656  0.1622
  934W        W 1931   6.697   6.988   1.501  0.1057 -0.1231  0.0416
  935W        W 1932   3.749   6.780   7.066  0.0493 -0.1577 -0.0149
  936W        W 1933   2.937   3.915   4.507 -0.1369 -0.0812  0.0563
  937W        W 1934   2.560   4.095   3.546 -0.0259  0.0125 -0.2966
  938W        W 1935   5.949   7.225   3.328 -0.0305 -0.1180 -0.2580
  939W        W 1936   4.008   6.583   6.655 -0.0544  0.2224  0.2943
  940W        W 1937   5.678   6.212   1.884 -0.1975  0.1326 -0.2351
  941W        W 1938   6.410   2.341   0.404  0.0569  0.0607 -0.2370
  942W        W 1939   6.157   7.388   1.681  0.2542 -0.0250  0.2655
  943W        W 1940   4.731   5.482   7.278 -0.4417  0.3137 -0.1663
  944W        W 1941   0.861   1.649   2.899  0.1157  0.0908  0.0506
  945W        W 1942   0.428   2.345   3.270  0.1564  0.3510  0.0974
  946W        W 1943   5.689   3.501   0.111  0.0119  0.0272 -0.0857
  947W        W 1944   2.023   0.310   4.188  0.1443 -0.0901  0.1885
  948W        W 1945   3.652   2.189   0.032 -0.2033 -0.0265 -0.0137
  949W        W 1946   7.371   1.777   7.211 -0.3371  0.2968  0.1604
  950W        W 1947   6.627   3.357   6.060 -0.1193  0.0398 -0.1272
  951W        W 1948   0.038   2.973   2.153 -0.2224 -0.2486 -0.0091
  952W        W 1949   5.146   1.560   0.109 -0.2341 -0.0010 -0.0234
  953W        W 1950   4.645   6.770   6.108  0.0479  0.0910  0.0738
  954W        W 1951   7.110   1.803   1.525  0.1533  0.2389  0.0634
  955W        W 1952   1.641   3.535   4.526 -0.0891 -0.1859  0.1062
  956W        W 1953   3.371   6.359   1.103  0.0062  0.0911  0.1085
  957W        W 1954   5.681   5.936   3.404  0.2250 -0.0601 -0.1463
  958W        W 1955   4.871   1.050   0.102 -0.1092  0.0561  0.0486
  959W        W 1956   4.215   5.134   1.783  0.0577  0.1725  0.1263
  960W        W 1957   4.358   4.375   6.733  0.2593  0.1679  0.0014
  961W        W 1958   1.784   7.165   2.564 -0.0683 -0.0356 -0.2281
  962W        W 1959   5.087   6.200   1.324 -0.0811 -0.0623  0.1839
  963W        W 1960   3.576   1.902   7.243 -0.2021  0.4872  0.0834
  964W        W 1961   0.634   6.936   2.992  0.0888  0.2061 -0.2181
  965W        W 1962   1.198   7.478   5.650 -0.0575 -0.1367  0.0318
  966W        W 1963   6.648   3.026   2.331 -0.3899  0.0723 -0.0893
  967W        W 1964   3.526   2.038   3.524  0.2055 -0.1403 -0.3018
  968W        W 1965   3.187   7.556   6.468  0.2149  0.0708 -0.0373
  969W        W 1966   5.657   7.635   6.923 -0.0483 -0.1752 -0.3355
  970W        W 1967   6.009   4.380   1.867  0.0056 -0.0006  0.0997
  971W        W 1968   1.678   6.407   0.688 -0.0281  0.2000  0.1407
  972W        W 1969   3.883   4.773   2.572 -0.3708  0.1854 -0.0888
  973W        W 1970   4.641   1.067   4.135 -0.2520 -0.1219 -0.0344
  974W        W 1971   2.109   5.569   5.845  0.1543  0.1957  0.2863
  975W        W 1972   1.164   0.349   5.812 -0.2270  0.3067 -0.2117
  976W        W 1973   1.172   3.113   0.843  0.0313  0.0491 -0.0579
  977W        W 1974   4.640   0.747   6.870  0.0576  0.1212  0.4006
  978W        W 1975   1.459   7.465   1.675 -0.1436  0.2443 -0.2208
  979W        W 1976   1.908   6.226   2.072 -0.1286 -0.0522 -0.1460
  980W        W 1977   7.185   0.033   3.646 -0.0454 -0.2217 -0.5237
  981W        W 1978   7.024   0.676   6.138  0.1025  0.1844 -0.0671
  982W        W 1979   3.556   6.746   3.669  0.3437  0.3463 -0.1528
  983W        W 1980   4.173   4.600   0.042 -0.2712 -0.0776 -0.1536
  984W        W 1981   5.605   3.555   7.184 -0.1151  0.0241 -0.0738
  985W        W 1982   3.747   1.160   6.442 -0.2166 -0.1289 -0.1086
  986W        W 1983   2.846   6.725   3.016  0.0233  0.3221 -0.0938
  987W        W 1984   4.677   0.705   3.701  0.2132 -0.0933 -0.1030
  988W        W 1985   3.541   0.099   1.148  0.0861  0.0543  0.0717
  989W        W 1986   2.770   6.922   4.701 -0.1063  0.2417  0.1501
  990W        W 1987   3.769   4.141   1.253  0.0704  0.0111  0.3086
  991W        W 1988   4.568   0.981   2.865 -0.1476  0.2349 -0.2814
  992W        W 1989   5.344   1.026   6.994  0.0448 -0.2637  0.1225
  993W        W 1990   1.696   3.907   5.501  0.3364 -0.0209  0.1558
  994W        W 1991   3.703   2.212   6.835 -0.1422  0.3080 -0.2020
  995W        W 1992   1.202   6.535   7.262  0.0673 -0.0112 -0.0080
  996W        W 1993   4.429   4.726   3.305 -0.0952  0.3063 -0.1076
  997W        W 1994   1.473   4.070   2.073  0.2146  0.1587  0.1547
  998W        W 1995   5.567   4.123   7.329 -0.1578  0.0026  0.1949
  999W        W 1996   4.638   6.368   1.567  0.0426  0.0871  0.0974
 1000W        W 1997   2.235   6.005   3.976 -0.0802 -0.2714 -0.0531
 1001W        W 1998   7.298   7.037   5.595 -0.1273 -0.0354  0.0352
 1002W        W 1999   4.439   6.485   6.463  0.1306  0.2813  0.4785
 1003W        W 2000   6.005   4.817   6.910 -0.0022 -0.1103 -0.1214
 1004W        W 2001   0.049   0.534   2.176  0.0313 -0.0233 -0.1707
 1005W        W 2002   6.410   0.494   3.981  0.0606 -0.1393  0.3042
 1006W        W 2003   6.671   0.635   7.396 -0.2794 -0.2888  0.2665
 1007W        W 2004   1.427   6.685   4.488  0.1822 -0.1077  0.0447
 1008W        W 2005   3.453   3.572   3.509 -0.1737 -0.0184  0.2152
 1009W        W 2006   6.085   7.087   4.747 -0.0893  0.1890  0.1325
 1010W        W 2007   7.619   1.480   6.706 -0.3342 -0.0719  0.2189
 1011W        W 2008   4.786   0.281   0.682 -0.1291  0.2078  0.0421
 1012W        W 2009   3.040   1.456   4.222 -0.0716  0.0759 -0.3118
 1013W        W 2010   5.332   3.653   3.966  0.0695 -0.1227 -0.0812
 1014W        W 2011   7.605   1.691   4.217 -0.1060 -0.0107  0.0724
 1015W        W 2012   3.728   4.538   3.905 -0.1821 -0.1430 -0.0176
 1016W        W 2013   0.057   6.808   6.980  0.0676 -0.0358  0.0935
 1017W        W 2014   6.228   2.552   7.034 -0.1061  0.2636  0.2260
 1018W        W 2015   6.828   2.972   3.984  0.4029  0.2391  0.0337
 1019W        W 2016   0.493   3.346   6.146 -0.0139 -0.0723 -0.0950
 1020W        W 2017   5.607   4.191   1.109  0.2378  0.4693  0.0343
 1021W        W 2018   0.369   0.379   6.306  0.1775  0.2271 -0.0861
 1022W        W 2019   0.626   4.946   0.646 -0.1746 -0.2888  0.1774
 1023W        W 2020   4.856   7.160   3.805 -0.2844 -0.2577 -0.0358
 1024W        W 2021   3.596   6.974   5.385  0.1078 -0.4041  0.2678
 1025W        W 2022   4.688   7.572   6.548  0.3189  0.2573 -0.1490
 1026W        W 2023   4.644   2.141   0.476  0.0961 -0.2836  0.1431
 1027W        W 2024   3.822   2.421   2.089  0.0534  0.2284 -0.0591
 1028W        W 2025   4.279   5.512   4.604 -0.0122 -0.0274 -0.4308
 1029W        W 2026   6.792   3.724   6.362 -0.1156 -0.0165 -0.2952
 1030W        W 2027   3.190   6.785   2.237 -0.2576  0.1897 -0.3987
 1031W        W 2028   3.272   1.909   5.139 -0.0478  0.1151  0.0104
 1032W        W 2029   6.879   1.145   0.727  0.3018 -0.1532  0.0615
 1033W        W 2030   5.453   1.584   3.300  0.2798 -0.0066 -0.1470
 1034W        W 2031   0.540   2.112   7.331  0.2499  0.1543 -0.0237
 1035W        W 2032   0.851   3.246   1.796  0.1916  0.2004 -0.2388
 1036W        W 2033   4.363   2.682   5.035 -0.0890  0.0610 -0.3508
 1037W        W 2034   4.246   0.543   2.007 -0.2636  0.1775 -0.1708
 1038W        W 2035   4.467   2.876   5.545  0.0129 -0.0804 -0.1478
 1039W        W 2036   6.214   7.493   6.958  0.2888  0.1875  0.1230
 1040W        W 2037   0.178   1.088   3.147  0.1603  0.1711  0.1474
 1041W        W 2038   3.664   5.169   1.525  0.1494 -0.1630 -0.0875
 1042W        W 2039   2.945   3.188   2.123  0.0860 -0.2878  0.2996
 1043W        W 2040   7.461   7.330   5.237 -0.1265 -0.3803 -0.2693
 1044W        W 2041   2.757   5.635   0.158  0.1615  0.1333  0.1680
 1045W        W 2042   4.890   5.548   0.110 -0.2415 -0.2423  0.0299
 1046W        W 2043   7.325   7.090   7.039 -0.0519  0.1329  0.0663
 1047W        W 2044   6.685   1.774   4.150  0.2383  0.2230 -0.2900
 1048W        W 2045   4.085   5.700   0.451  0.0367  0.2262 -0.0500
 1049W        W 2046   6.390   1.278   2.483 -0.5143 -0.1684 -0.2610
 1050W        W 2047   3.701   4.449   4.951 -0.0329 -0.0782 -0.1742
 1051W        W 2048   4.345   5.023   4.652  0.2120 -0.0858  0.0644
 1052W        W 2049   5.980   0.072   7.395 -0.3137  0.3237 -0.1433
 1053W        W 2050   5.751   3.043   0.302 -0.1055  0.0165  0.3040
 1054W        W 2051   4.085   4.853   3.691  0.0876  0.0854  0.0882
 1055W        W 2052   6.757   0.946   1.178  0.1031  0.1460  0.2324
 1056W        W 2053   3.944   5.244   3.929  0.0862 -0.2738 -0.0750
 1057W        W 2054   1.193   7.543   0.934 -0.1556  0.1173 -0.3170
 1058W        W 2055   6.375   2.292   7.504  0.3926  0.0031 -0.0843
 1059W        W 2056   6.159   6.426   1.146  0.1171  0.0178 -0.0631
 1060W        W 2057   3.534   7.375   0.143  0.1560 -0.1266  0.1159
 1061W        W 2058   5.407   0.351   7.359  0.0636  0.0995  0.0557
 1062W        W 2059   5.898   1.988   5.213 -0.3335  0.2295  0.2139
 1063W        W 2060   7.128   3.453   0.051 -0.1135 -0.0533 -0.0142
 1064W        W 2061   7.511   3.516   2.402 -0.1804  0.1888  0.1039
 1065W        W 2062   1.940   5.335   7.131  0.2900  0.0626 -0.1934
 1066W        W 2063   5.691   2.407   5.031 -0.3316  0.2111  0.4829
 1067W        W 2064   3.723   2.304   5.766 -0.0512 -0.0970 -0.2987
 1068W        W 2065   1.286   1.049   5.025  0.2021 -0.0628  0.0784
 1069W        W 2066   2.262   1.158   5.523  0.0124 -0.0248  0.0555
 1070W        W 2067   7.309   5.969   2.593 -0.0832 -0.0188  0.1288
 1071W        W 2068   6.035   2.169   1.507 -0.1036 -0.0532  0.4091
 1072W        W 2069   5.083   0.710   3.397  0.2283 -0.3399  0.0968
 1073W        W 2070   4.472   1.438   2.624  0.2196  0.2859  0.1646
 1074W        W 2071   6.122   1.584   5.381 -0.2931  0.0821 -0.0849
 1075W        W 2072   5.188   5.425   4.066  0.1713  0.1366  0.2335
 1076W        W 2073   2.646   2.821   2.505 -0.0002  0.0850  0.1151
 1077W        W 2074   5.465   2.482   2.285 -0.1979 -0.1600 -0.0386
 1078W        W 2075   5.023   6.690   2.535 -0.3524  0.0661 -0.0229
 1079W        W 2076   7.158   2.817   2.793 -0.1817 -0.0755 -0.1456
 1080W        W 2077   6.752   4.517   6.908 -0.1395  0.2586  0.0852
 1081W        W 2078   5.396   2.915   0.653 -0.0558 -0.1064  0.0373
 1082W        W 2079   1.032   1.469   5.207 -0.0455 -0.0055  0.0005
 1083W        W 2080   5.388   0.900   7.512  0.2342 -0.3230 -0.1686
 1084W        W 2081   6.083   0.715   2.586 -0.0446  0.0181 -0.0572
 1085W        W 2082   7.159   3.733   6.746 -0.2683 -0.0694  0.0456
 1086W        W 2083   5.601   0.496   0.594  0.2352  0.3765 -0.1954
 1087W        W 2084   4.614   6.370   4.675 -0.0760 -0.1650 -0.3117
 1088W        W 2085   3.275   4.744   4.601 -0.0620  0.0217 -0.0338
 1089W        W 2086   3.004   5.580   0.600  0.1250 -0.1058 -0.1240
 1090W        W 2087   4.394   3.606   4.459 -0.1465 -0.4192  0.1758
 1091W        W 2088   1.760   7.332   4.719 -0.1535  0.1171 -0.2677
 1092W        W 2089   2.362   3.684   3.431  0.1905 -0.2690  0.0377
 1093W        W 2090   2.741   2.788   1.870 -0.1165 -0.0930  0.2030
 1094W        W 2091   3.314   1.422   0.918  0.3885 -0.0889 -0.1142
 1095W        W 2092   5.451   6.490   6.338 -0.0098 -0.0809 -0.0408
 1096W        W 2093   3.080   7.556   7.021  0.0828 -0.1141 -0.0317
 1097W        W 2094   6.663   1.266   2.042 -0.0470  0.0352 -0.1370
 1098W        W 2095   6.904   4.126   6.649 -0.1601 -0.1842 -0.1904
 1099W        W 2096   3.628   4.368   2.424  0.0325  0.0911  0.1751
 1100W        W 2097   4.681   3.156   3.315 -0.3299  0.0021  0.0623
 1101W        W 2098   4.803   1.475   5.230  0.4394 -0.1040 -0.0337
 1102W        W 2099   7.436   2.092   4.990 -0.0764  0.1300 -0.0422
 1103W        W 2100   1.076   2.829   7.088 -0.0501  0.0064 -0.0551
 1104W        W 2101   6.521   7.322   4.694 -0.0742  0.0271 -0.0304
 1105W        W 2102   3.336   0.816   1.102 -0.5849  0.0504 -0.1591
 1106W        W 2103   2.461   7.225   1.355 -0.2358  0.1063 -0.1852
 1107W        W 2104   4.398   1.837   7.301 -0.2055  0.0845 -0.0088
 1108W        W 2105   2.240   2.849   3.638  0.3052  0.0321 -0.0248
 1109W        W 2106   2.531   2.828   4.335  0.2312  0.0014 -0.2893
 1110W        W 2107   1.132   3.938   6.850 -0.1933  0.2476  0.1429
 1111W        W 2108   6.386   4.824   0.095  0.2428  0.3278  0.0749
 1112W        W 2109   4.040   4.053   0.107  0.0428  0.0232 -0.2613
 1113W        W 2110   0.154   6.686   2.967  0.3610 -0.0904  0.2055
 1114W        W 2111   4.796   4.988   7.181  0.0972  0.1446 -0.1977
 1115W        W 2112   2.701   2.510   6.570 -0.2806 -0.0945 -0.0772
 1116W        W 2113   6.585   0.591   0.526  0.2788 -0.0936  0.0221
 1117W        W 2114   3.433   3.969   2.134  0.1239  0.0007  0.2373
 1118W        W 2115   7.549   0.285   3.858  0.1921 -0.2498  0.2575
 1119W        W 2116   6.149   1.404   0.012 -0.5010  0.0066  0.0285
 1120W        W 2117   2.669   7.537   6.766  0.2286  0.0310 -0.3142
 1121W        W 2118   1.501   1.316   5.928 -0.1793  0.1302 -0.0169
 1122W        W 2119   0.316   0.839   5.404 -0.1018 -0.0450  0.0499
 1123W        W 2120   2.320   1.621   4.917 -0.0633  0.1410  0.0732
 1124W        W 2121   2.205   3.564   0.958  0.2323 -0.2663 -0.2498
 1125W        W 2122   0.631   6.865   6.571 -0.0328 -0.3792 -0.0320
 1126W        W 2123   3.819   5.619   5.452  0.2372  0.0467 -0.1139
 1127W        W 2124   0.392   3.467   5.593 -0.1227  0.2293 -0.1097
 1128W        W 2125   0.211   4.078   0.894 -0.1315  0.1083  0.0109
 1129W        W 2126   1.740   1.958   5.500 -0.0211  0.0571 -0.1580
 1130W        W 2127   2.510   4.145   0.819 -0.0470  0.1560  0.2596
 1131W        W 2128   3.106   4.125   7.639  0.0009  0.2551  0.1747
 1132W        W 2129   4.496   4.640   2.458  0.0623  0.2874  0.4103
 1133W        W 2130   4.010   7.310   5.405  0.2808 -0.0804  0.1038
 1134W        W 2131   3.787   7.022   1.613  0.1693 -0.0938  0.3498
 1135W        W 2132   0.039   4.283   1.948 -0.0689 -0.1336  0.0148
 1136W        W 2133   1.163   1.665   3.397 -0.1764 -0.1209  0.0857
 1137W        W 2134   4.279   0.707   5.807  0.0597 -0.0598  0.0763
 1138W        W 2135   6.264   3.233   5.321  0.1644 -0.3117  0.0035
 1139W        W 2136   0.831   0.318   6.505  0.2117 -0.0875  0.1213
 1140W        W 2137   5.700   2.639   2.698  0.1857 -0.1379  0.1785
 1141W        W 2138   5.796   6.956   0.429  0.0645 -0.5049 -0.2551
 1142W        W 2139   6.012   7.165   2.269  0.1619  0.3309  0.1589
 1143W        W 2140   6.544   3.284   1.853 -0.1742 -0.1516  0.1230
 1144W        W 2141   6.899   0.758   4.038 -0.4540 -0.1346  0.0145
 1145W        W 2142   3.888   5.563   1.875  0.1407 -0.0716  0.3497
 1146W        W 2143   4.248   6.391   3.493 -0.3152 -0.0060  0.4570
 1147W        W 2144   2.979   4.996   5.404  0.0725 -0.0291 -0.2168
 1148W        W 2145   5.967   0.929   6.713  0.0096  0.2226 -0.2468
 1149W        W 2146   3.734   4.407   5.422  0.0648 -0.0884 -0.1815
 1150W        W 2147   0.724   0.246   3.936  0.0273 -0.3536 -0.3474
 1151W        W 2148   0.788   5.583   2.226  0.1667  0.3086 -0.0312
 1152W        W 2149   3.017   7.173   2.991  0.0484  0.1076 -0.2598
 1153W        W 2150   6.707   7.306   0.143 -0.1455 -0.1500  0.0098
 1154W        W 2151   6.897   2.984   6.215 -0.0360 -0.1625 -0.0096
 1155W        W 2152   4.393   3.855   5.947 -0.0218 -0.0573 -0.0970
 1156W        W 2153   2.075   6.462   4.221  0.0993  0.0638  0.2885
 1157W        W 2154   3.182   2.787   2.873 -0.2594  0.0924 -0.0241
 1158W        W 2155   7.427   1.425   2.316 -0.1783 -0.2108 -0.0349
 1159W        W 2156   6.178   6.582   6.218 -0.2313  0.2980  0.3593
 1160W        W 2157   1.992   0.061   3.584 -0.0963  0.0157 -0.0187
 1161W        W 2158   3.774   7.114   6.657 -0.2124  0.1754  0.0153
 1162W        W 2159   7.361   5.960   3.092  0.0000 -0.1862  0.1587
 1163W        W 2160   2.997   6.880   3.630 -0.2257 -0.1011 -0.0778
 1164W        W 2161   0.632   7.490   0.131 -0.0367 -0.1270  0.3680
 1165W        W 2162   2.473   0.983   5.988  0.0052 -0.0347 -0.1140
 1166W        W 2163   0.267   0.861   1.657  0.3808 -0.3133  0.4603
 1167W        W 2164   5.837   6.966   1.858  0.2620 -0.1802  0.1221
 1168W        W 2165   4.719   1.610   0.366  0.1921  0.2168  0.2316
 1169W        W 2166   3.589   3.088   1.275  0.1885  0.2079 -0.0408
 1170W        W 2167   2.472   4.652   7.122 -0.2228  0.1763  0.0813
 1171W        W 2168   2.437   6.414   3.152 -0.1853 -0.2244 -0.1196
 1172W        W 2169   5.270   3.245   0.278  0.1835 -0.0185 -0.3207
 1173W        W 2170   6.912   2.759   3.243 -0.0879 -0.0374  0.1005
 1174W        W 2171   3.070   1.531   6.700  0.0182 -0.1396  0.1604
 1175W        W 2172   2.259   3.982   7.188  0.2627  0.0494 -0.3470
 1176W        W 2173   1.080   5.953   2.374  0.2099  0.2974 -0.2860
 1177W        W 2174   0.915   0.716   3.928 -0.4228 -0.2868  0.2375
 1178W        W 2175   1.997   2.837   4.127 -0.0112  0.1827  0.1206
 1179W        W 2176   0.305   1.399   4.507  0.0251  0.2097  0.0316
 1180W        W 2177   5.021   3.455   2.148 -0.1750  0.1811 -0.0144
 1181W        W 2178   3.003   5.419   7.283 -0.4225 -0.0816 -0.0503
 1182W        W 2179   7.058   0.475   0.379  0.2369  0.0368  0.0526
 1183W        W 2180   5.304   2.426   7.443 -0.3572 -0.1855 -0.1022
 1184W        W 2181   6.478   6.197   3.799 -0.1990  0.3511 -0.2388
 1185W        W 2182   3.416   6.891   1.284 -0.1619  0.2223  0.2783
 1186W        W 2183   6.714   2.519   7.138 -0.0890 -0.1830  0.1565
 1187W        W 2184   2.654   2.366   7.053 -0.0650  0.2165 -0.0975
 1188W        W 2185   4.661   6.528   0.471 -0.1509  0.1269 -0.2079
 1189W        W 2186   7.500   0.389   2.749 -0.0984  0.2039 -0.1172
 1190W        W 2187   3.120   5.008   3.344 -0.2804  0.1360 -0.0853
 1191W        W 2188   3.344   2.763   7.642 -0.1172 -0.2664 -0.0909
 1192W        W 2189   1.368   1.184   4.187 -0.0057 -0.0430  0.1759
 1193W        W 2190   0.108   2.147   5.356  0.0163  0.0513 -0.1762
 1194W        W 2191   1.966   6.906   1.310  0.2383 -0.1176  0.0475
 1195W        W 2192   3.294   4.158   1.123  0.1748  0.3220 -0.3372
 1196W        W 2193   6.996   6.355   1.622  0.0140  0.3873  0.2509
 1197W        W 2194   4.138   6.412   1.508 -0.1075  0.0493 -0.0855
 1198W        W 2195   7.255   3.948   2.138  0.1247 -0.0177  0.2028
 1199W        W 2196   5.698   5.924   7.584  0.1520 -0.0992  0.4774
 1200W        W 2197   5.227   4.146   0.754  0.3845  0.5291  0.1665
 1201W        W 2198   6.793   7.136   2.230 -0.0699  0.1528  0.0137
 1202W        W 2199   3.519   4.402   6.833  0.1612 -0.3291 -0.1102
 1203W        W 2200   6.863   0.309   2.201  0.3138 -0.1954  0.1676
 1204W        W 2201   7.227   0.396   1.223 -0.1826  0.0052 -0.0030
 1205W        W 2202   0.183   1.894   2.986 -0.0619 -0.0233  0.0879
 1206W        W 2203   6.801   3.135   0.911 -0.1060  0.1395  0.0578
 1207W        W 2204   6.730   3.724   6.905  0.0822  0.0482  0.0560
 1208W        W 2205   0.041   4.592   0.068 -0.0853 -0.0950 -0.0851
 1209W        W 2206   1.879   1.382   4.005  0.1343 -0.2298 -0.1485
 1210W        W 2207   4.395   0.254   6.139  0.3563  0.1048 -0.1830
 1211W        W 2208   2.351   0.099   7.033  0.0327  0.0635  0.1236
 1212W        W 2209   4.002   5.020   1.139  0.0226  0.1016  0.1392
 1213W        W 2210   5.412   3.714   0.995 -0.2644  0.0123 -0.1014
 1214W        W 2211   2.269   4.425   6.489 -0.3771  0.1626 -0.0136
 1215W        W 2212   0.704   7.343   3.964 -0.0258 -0.2126  0.0082
 1216W        W 2213   5.798   1.033   4.203 -0.0843 -0.2878 -0.0318
 1217W        W 2214   4.468   6.340   2.541  0.1786 -0.1153 -0.0393
 1218W        W 2215   4.870   1.513   3.111 -0.2140  0.0009 -0.0676
 1219W        W 2216   3.301   7.292   2.166  0.0983  0.0834 -0.0198
 1220W        W 2217   1.442   5.645   1.948 -0.2488 -0.1165  0.4366
 1221W        W 2218   5.357   1.290   2.347  0.0330  0.0460  0.0219
 1222W        W 2219   0.547   2.589   7.103 -0.1289  0.0866 -0.0324
 1223W        W 2220   5.138   5.389   1.217 -0.0803  0.1574 -0.0153
 1224W        W 2221   7.521   2.794   7.210 -0.0335 -0.1283 -0.0325
 1225W        W 2222   5.671   2.092   3.393 -0.1303  0.1023  0.1895
 1226W        W 2223   4.355   1.620   6.232  0.0941  0.1004  0.1654
 1227W        W 2224   4.525   2.816   6.890 -0.2549 -0.1390  0.2119
 1228W        W 2225   4.708   0.278   4.688 -0.3024  0.6386 -0.0990
 1229W        W 2226   5.977   3.444   6.887 -0.0388  0.1468 -0.0611
 1230W        W 2227   0.468   6.430   6.762  0.1464 -0.0172 -0.0778
 1231W        W 2228   3.665   6.529   5.692  0.1142 -0.0416 -0.1203
 1232W        W 2229   6.482   5.611   7.382 -0.0800  0.1360 -0.0705
 1233W        W 2230   0.582   5.941   2.752 -0.3869  0.0228  0.0262
 1234W        W 2231   3.562   0.577   0.335 -0.0349 -0.3334  0.1553
 1235W        W 2232   6.234   0.823   2.065 -0.1459 -0.0276  0.0473
 1236W        W 2233   6.790   0.138   4.809 -0.2736  0.1258 -0.1191
 1237W        W 2234   5.580   4.939   6.721  0.0084  0.1259 -0.2681
 1238W        W 2235   7.379   7.020   3.003  0.1676 -0.0604 -0.2607
 1239W        W 2236   4.874   7.260   7.299  0.0702 -0.2643 -0.0605
 1240W        W 2237   0.832   5.826   0.153  0.0796 -0.0031 -0.1691
 1241W        W 2238   1.390   0.360   4.278 -0.0612  0.0025  0.2222
 1242W        W 2239   4.615   1.722   4.005  0.2777  0.1865  0.1464
 1243W        W 2240   6.700   7.406   6.930  0.0772  0.1358 -0.1866
 1244W        W 2241   0.508   7.406   2.699  0.3612 -0.2063 -0.0725
 1245W        W 2242   4.605   1.682   6.706 -0.2506 -0.0436  0.0481
 1246W        W 2243   1.846   2.331   4.124 -0.1264 -0.1244  0.1705
 1247W        W 2244   7.135   1.760   3.276  0.0981  0.2774 -0.0204
 1248W        W 2245   4.306   3.705   0.409  0.0920 -0.2057  0.0207
 1249W        W 2246   6.402   4.677   7.183  0.0738  0.0870 -0.1805
 1250W        W 2247   0.379   2.047   2.176 -0.1364  0.2532  0.0358
 1251W        W 2248   5.442   2.328   6.049 -0.1234  0.0065  0.0721
 1252W        W 2249   5.886   1.094   2.363 -0.0469 -0.2684  0.0088
 1253W        W 2250   0.907   1.034   5.414  0.0422  0.0486 -0.0122
 1254W        W 2251   0.218   0.113   3.002  0.2394  0.1406  0.2871
 1255W        W 2252   7.384   5.440   1.114  0.3973 -0.0670  0.0544
 1256W        W 2253   6.460   2.572   1.466  0.0895 -0.3043 -0.2604
 1257W        W 2254   4.106   7.546   5.837 -0.2094 -0.0066  0.1192
 1258W        W 2255   1.301   4.826   2.497  0.0886 -0.3522  0.0522
 1259W        W 2256   3.811   4.893   4.689  0.0352  0.0862  0.0281
 1260W        W 2257   5.051   5.827   6.976  0.4204 -0.3945 -0.0092
 1261W        W 2258   6.027   0.019   6.453 -0.0121 -0.0355 -0.0982
 1262W        W 2259   3.033   6.534   0.537 -0.3698  0.0075 -0.0450
 1263W        W 2260   2.328   2.129   4.233 -0.0624  0.1277 -0.0756
 1264W        W 2261   0.989   5.050   2.122  0.1629 -0.0579  0.1102
 1265W        W 2262   2.899   5.772   6.887 -0.2760 -0.0224 -0.0766
 1266W        W 2263   3.524   7.385   7.280  0.4008  0.0687  0.0272
 1267W        W 2264   6.058   5.042   0.417  0.1206  0.2407  0.2213
 1268W        W 2265   2.877   6.346   6.417  0.4882 -0.0373 -0.3621
 1269W        W 2266   2.829   2.687   0.159 -0.0927  0.0414  0.1005
 1270W        W 2267   2.721   6.172   1.896  0.1352 -0.0479 -0.0574
 1271W        W 2268   1.405   1.272   2.196  0.1261 -0.1852  0.0750
 1272W        W 2269   2.902   1.228   5.691  0.0302  0.2919 -0.2088
 1273W        W 2270   5.137   3.688   0.510  0.0460 -0.0826 -0.2022
 1274W        W 2271   0.870   1.928   6.461 -0.1429  0.1629 -0.3830
 1275W        W 2272   4.294   7.160   4.620  0.2779  0.0197 -0.0021
 1276W        W 2273   5.014   7.401   0.227  0.3395  0.1378 -0.0764
 1277W        W 2274   6.374   7.313   4.190 -0.2286 -0.0572  0.2174
 1278W        W 2275   7.197   5.398   2.573 -0.2662 -0.0309 -0.2974
 1279W        W 2276   1.649   1.593   3.369 -0.1610  0.4231  0.3039
 1280W        W 2277   4.193   7.620   5.015 -0.1614 -0.1744 -0.0571
 1281W        W 2278   3.666   6.916   2.208 -0.1968  0.0510  0.0521
 1282W        W 2279   1.423   1.198   5.448  0.3889 -0.5182 -0.3326
 1283W        W 2280   4.596   4.760   1.833 -0.1140  0.2749  0.0607
 1284W        W 2281   0.562   3.171   2.810  0.1679 -0.3586  0.1911
 1285W        W 2282   3.826   0.636   7.547 -0.0921  0.0828 -0.0925
 1286W        W 2283   3.049   5.188   0.890  0.1924 -0.0889  0.0792
 1287W        W 2284   1.751   3.201   6.521 -0.0643 -0.1420 -0.1968
 1288W        W 2285   3.888   2.618   0.636  0.0757 -0.2584  0.3252
 1289W        W 2286   6.373   1.259   6.074 -0.0346 -0.0514  0.0254
 1290W        W 2287   1.881   4.684   1.150 -0.0537  0.0431  0.1389
 1291W        W 2288   4.139   5.555   6.587 -0.1496  0.0269  0.0688
 1292W        W 2289   6.898   0.344   7.006  0.0866 -0.0992  0.2550
 1293W        W 2290   4.576   2.897   1.078  0.0069 -0.1106 -0.2250
 1294W        W 2291   0.703   1.930   3.239  0.2454 -0.1350 -0.0292
 1295W        W 2292   5.668   0.188   0.123 -0.1318  0.1086 -0.1472
 1296W        W 2293   6.551   1.793   6.823  0.0328  0.2716 -0.3027
 1297W        W 2294   5.997   0.826   5.095 -0.1441  0.0497  0.2647
 1298W        W 2295   1.482   5.302   0.335  0.1998  0.1898  0.1849
 1299W        W 2296   0.038   0.549   4.979 -0.0911  0.1693 -0.2325
 1300W        W 2297   6.195   0.645   1.469  0.0951 -0.3512  0.1012
 1301W        W 2298   1.252   2.053   4.693 -0.0258  0.0591  0.0885
 1302W        W 2299   3.291   4.079   7.144 -0.1339 -0.0467 -0.0383
 1303W        W 2300   3.613   1.903   6.097 -0.3084  0.2309 -0.0859
 1304W        W 2301   2.068   2.900   5.133 -0.3241 -0.0855  0.1941
 1305W        W 2302   7.624   3.309   7.359  0.2171  0.2855  0.0511
 1306W        W 2303   4.664   4.763   6.721 -0.2344  0.1501 -0.1267
 1307W        W 2304   5.041   0.366   3.842 -0.0182 -0.1834 -0.1835
 1308W        W 2305   5.118   5.330   6.961 -0.1826 -0.3099  0.0998
 1309W        W 2306   5.181   0.829   0.449 -0.2461 -0.0166  0.0009
 1310W        W 2307   4.104   2.350   0.233  0.2797 -0.0499  0.0044
 1311W        W 2308   3.960   1.965   6.437  0.0083 -0.1396  0.0318
 1312W        W 2309   7.289   4.382   0.367 -0.1278 -0.1748  0.1469
 1313W        W 2310   6.684   6.966   4.314 -0.1553 -0.0030  0.2303
 1314W        W 2311   6.020   0.582   7.300 -0.0338  0.0986  0.2334
 1315W        W 2312   0.562   5.275   1.759  0.4715  0.1753  0.0499
 1316W        W 2313   5.835   7.195   7.166 -0.0794 -0.2075 -0.2026
 1317W        W 2314   7.300   3.424   3.705  0.1675  0.1481 -0.0877
 1318W        W 2315   0.952   0.913   2.010  0.2459  0.1353 -0.3986
 1319W        W 2316   5.025   1.012   5.397  0.1400  0.2024  0.0027
 1320W        W 2317   4.534   0.170   3.650  0.1508 -0.1403  0.0825
 1321W        W 2318   3.565   4.032   0.335 -0.2522  0.0812  0.1681
 1322W        W 2319   0.901   1.817   4.377 -0.2851 -0.0577  0.1613
 1323W        W 2320   1.476   5.433   6.494  0.2365 -0.2256 -0.0234
 1324W        W 2321   2.457   2.857   6.051  0.2373  0.0225 -0.0543
 1325W        W 2322   1.212   6.725   3.964 -0.1023  0.0357 -0.4209
 1326W        W 2323   6.948   5.150   6.608  0.2773  0.0533  0.1212
 1327W        W 2324   1.635   3.647   1.786 -0.0379  0.3173 -0.0138
 1328W        W 2325   5.012   1.678   1.848 -0.1810 -0.1747  0.3505
 1329W        W 2326   0.491   3.055   0.834  0.0324  0.2090 -0.2544
 1330W        W 2327   3.315   0.018   3.534 -0.0568  0.0037 -0.0405
 1331W        W 2328   3.244   5.291   1.338 -0.3752 -0.2667  0.1430
 1332W        W 2329   0.868   6.188   6.916  0.1181 -0.1787 -0.2802
 1333W        W 2330   1.134   7.236   1.370  0.2679 -0.1609 -0.0861
 1334W        W 2331   5.056   0.834   5.913 -0.0517  0.1733 -0.0109
 1335W        W 2332   3.860   2.068   2.474 -0.2412  0.0121  0.1512
 1336W        W 2333   6.010   4.588   3.352 -0.0493  0.1263 -0.1744
 1337W        W 2334   5.738   3.703   2.721 -0.0361  0.1478  0.3993
 1338W        W 2335   3.133   6.287   3.185 -0.1720  0.0216 -0.1003
 1339W        W 2336   2.658   2.013   5.953  0.0552  0.0982  0.1913
 1340W        W 2337   2.577   7.365   4.363 -0.1452 -0.0256 -0.1737
 1341W        W 2338   6.019   4.290   7.110  0.0631 -0.0122  0.1899
 1342W        W 2339   7.223   0.619   6.615  0.2381 -0.0470  0.1993
 1343W        W 2340   5.134   3.409   3.507 -0.0051 -0.0235  0.0561
 1344W        W 2341   3.884   2.102   1.099  0.0333 -0.2577 -0.1097
 1345W        W 2342   2.817   3.824   1.094  0.0643  0.2034 -0.1624
 1346W        W 2343   0.632   4.091   0.521  0.0014 -0.0338 -0.1563
 1347W        W 2344   1.977   1.310   5.061 -0.2560  0.0342 -0.2130
 1348W        W 2345   4.573   5.684   6.229 -0.1044 -0.0094 -0.2445
 1349W        W 2346   4.298   6.932   0.238 -0.1730 -0.1368 -0.2900
 1350W        W 2347   5.344   1.707   4.319 -0.3378  0.1558  0.2790
 1351W        W 2348   6.905   5.876   1.744  0.1628 -0.0970 -0.1393
 1352W        W 2349   6.420   1.993   1.233 -0.0788  0.0050 -0.0028
 1353W        W 2350   2.120   4.215   5.604  0.0674 -0.1169  0.1949
 1354W        W 2351   0.458   3.389   7.510  0.1131 -0.1563  0.1244
 1355W        W 2352   2.421   3.254   5.202 -0.4557 -0.4331  0.0153
 1356W        W 2353   7.348   3.322   0.513 -0.2777 -0.0171 -0.0045
 1357W        W 2354   3.726   2.592   3.490 -0.3022 -0.0814 -0.0143
 1358W        W 2355   4.163   1.957   6.888 -0.4455 -0.1038 -0.0852
 1359W        W 2356   7.385   3.888   2.739 -0.1215  0.0115 -0.0574
 1360W        W 2357   3.445   4.890   6.974 -0.3917  0.0339 -0.0755
 1361W        W 2358   2.975   7.521   4.053 -0.1748  0.2566  0.2451
 1362W        W 2359   0.135   2.930   2.686  0.0378  0.2708  0.1422
 1363W        W 2360   1.693   3.116   2.403  0.4489 -0.0066  0.0193
 1364W        W 2361   3.665   0.655   3.296 -0.0541 -0.0321  0.0733
 1365W        W 2362   6.197   1.438   1.264  0.0119 -0.0647 -0.1552
 1366W        W 2363   1.753   7.104   1.935 -0.0245 -0.2874  0.4045
 1367W        W 2364   7.571   0.729   0.060 -0.1658  0.1113  0.2432
 1368W        W 2365   5.786   4.533   1.404 -0.3708 -0.2619 -0.0976
 1369W        W 2366   4.157   2.601   1.179 -0.1501 -0.3625  0.2090
 1370W        W 2367   7.645   7.619   0.847 -0.0059 -0.1777  0.0057
 1371W        W 2368   5.570   2.171   4.100  0.0607 -0.1935 -0.0132
 1372W        W 2369   6.181   5.835   3.575  0.1766 -0.1152  0.0695
 1373W        W 2370   5.325   2.055   5.153  0.0922 -0.0698 -0.2230
 1374W        W 2371   6.511   3.504   1.341 -0.0581  0.1063 -0.1303
 1375W        W 2372   0.444   1.184   6.673 -0.1650  0.4866 -0.2619
 1376W        W 2373   0.541   3.189   4.678  0.0276 -0.1923 -0.1589
 1377W        W 2374   3.012   5.592   1.777 -0.3914 -0.1488  0.1765
 1378W        W 2375   4.682   3.511   6.709  0.2792  0.3701  0.1538
 1379W        W 2376   6.323   7.399   3.036 -0.0558  0.1870  0.0651
 1380W        W 2377   2.511   7.464   5.930  0.2175  0.0425  0.1894
 1381W        W 2378   3.251   6.351   3.656  0.3822 -0.1887  0.0786
 1382W        W 2379   3.787   5.697   6.293 -0.2308 -0.0849  0.2934
 1383W        W 2380   1.879   7.127   0.201 -0.0868 -0.1335 -0.0650
 1384W        W 2381   5.244   7.074   3.465  0.2659  0.0830  0.3069
 1385W        W 2382   0.169   0.787   2.732 -0.3449 -0.2054 -0.0971
 1386W        W 2383   2.960   6.692   5.989 -0.0029  0.1116  0.0873
 1387W        W 2384   7.253   1.231   3.373  0.0390 -0.2098  0.0077
 1388W        W 2385   6.275   4.412   6.722  0.4306  0.1309 -0.0682
 1389W        W 2386   1.424   6.752   0.444 -0.1309 -0.0382 -0.2068
 1390W        W 2387   4.941   7.166   5.792 -0.2093  0.0608  0.3869
 1391W        W 2388   2.430   6.786   4.348  0.0726 -0.1042  0.0960
 1392W        W 2389   2.130   6.655   5.817 -0.2676  0.0137 -0.1373
 1393W        W 2390   7.360   3.191   6.933  0.3294  0.5276  0.1752
 1394W        W 2391   7.137   5.100   1.582  0.0745  0.1100  0.0407
 1395W        W 2392   7.119   6.414   0.164 -0.2238  0.1328  0.1145
 1396W        W 2393   1.204   6.487   0.878 -0.0508  0.1076 -0.0817
 1397W        W 2394   5.987   0.492   5.607 -0.3827  0.2313 -0.0328
 1398W        W 2395   5.133   5.820   2.715 -0.0029  0.1163  0.1191
 1399W        W 2396   3.442   4.914   5.090  0.0148 -0.2090  0.0744
 1400W        W 2397   2.029   2.682   6.228 -0.0896  0.0031  0.4703
 1401W        W 2398   3.446   6.530   5.105  0.1977 -0.0304  0.1871
 1402W        W 2399   1.784   3.453   2.763  0.3231  0.0565 -0.0506
 1403W        W 2400   6.065   1.628   4.762 -0.0467 -0.0343 -0.0221
 1404W        W 2401   1.883   6.049   0.169 -0.1928 -0.1340 -0.1673
 1405W        W 2402   6.740   5.034   7.073  0.0250  0.0960 -0.0372
 1406W        W 2403   7.291   6.655   5.264  0.1260 -0.1441  0.2244
 1407W        W 2404   7.303   2.234   1.710 -0.0555  0.2974  0.1791
 1408W        W 2405   3.532   2.200   4.018  0.0051 -0.0102  0.2150
 1409W        W 2406   0.579   0.370   7.310  0.1717 -0.0450 -0.2292
 1410W        W 2407   2.943   5.100   1.757  0.2022 -0.0733 -0.0632
 1411W        W 2408   1.214   4.319   2.435  0.2534  0.0789 -0.0729
 1412W        W 2409   1.626   7.053   3.065 -0.0157 -0.3623  0.4322
 1413W        W 2410   1.596   3.889   0.816 -0.2841 -0.1535 -0.3714
 1414W        W 2411   6.159   2.817   1.761 -0.0771  0.0944  0.0877
 1415W        W 2412   0.403   3.446   2.313  0.2553 -0.0034 -0.1547
 1416W        W 2413   5.707   4.026   0.616  0.1131 -0.0877 -0.1060
 1417W        W 2414   7.534   2.114   3.305 -0.1200 -0.1233  0.2887
 1418W        W 2415   3.757   1.068   0.157 -0.0205  0.1811 -0.1189
 1419W        W 2416   4.900   3.832   0.999 -0.0382  0.5322  0.1757
 1420W        W 2417   0.307   0.563   3.691  0.1225  0.0928 -0.0218
 1421W        W 2418   3.428   5.844   7.239 -0.0644  0.3505  0.1749
 1422W        W 2419   0.749   0.602   6.071  0.0085  0.1393  0.0237
 1423W        W 2420   0.175   2.603   0.918  0.1270 -0.0259  0.0195
 1424W        W 2421   7.089   7.503   2.511 -0.0720  0.1435  0.5196
 1425W        W 2422   5.756   2.784   4.037 -0.2641 -0.0815  0.0681
 1426W        W 2423   5.105   1.746   4.867 -0.1533  0.1902  0.4092
 1427W        W 2424   5.931   0.428   2.196 -0.0978  0.0329 -0.0188
 1428W        W 2425   0.650   0.774   3.009  0.0688  0.3092 -0.2681
 1429W        W 2426   2.822   5.143   7.612 -0.3972  0.1629 -0.1507
 1430W        W 2427   4.277   3.259   6.952  0.1654 -0.1652  0.2296
 1431W        W 2428   4.767   2.731   4.434  0.4833  0.0937  0.2739
 1432W        W 2429   7.087   7.461   1.971 -0.1653 -0.2210  0.0314
 1433W        W 2430   5.021   3.330   6.446  0.1148  0.1913  0.0662
 1434W        W 2431   1.009   0.494   2.868  0.1398  0.0227 -0.0640
 1435W        W 2432   4.396   6.498   1.094 -0.1171  0.0641 -0.1890
 1436W        W 2433   0.625   4.617   2.184 -0.0541 -0.2425 -0.1255
 1437W        W 2434   2.124   3.492   7.380  0.0105  0.0932  0.1443
 1438W        W 2435   5.417   2.441   3.157  0.0637  0.0923 -0.1186
 1439W        W 2436   4.722   2.597   6.486  0.1175  0.0067 -0.0920
 1440W        W 2437   6.077   6.182   3.177  0.2024  0.1295  0.1340
 1441W        W 2438   3.658   1.048   5.034 -0.1316 -0.1044 -0.3226
 1442W        W 2439   2.080   4.613   2.459  0.1410 -0.1828 -0.1983
 1443W        W 2440   4.987   6.392   0.084 -0.2358 -0.5539 -0.0751
 1444W        W 2441   1.087   6.586   1.703  0.1107 -0.2660  0.0510
 1445W        W 2442   6.001   3.327   3.386  0.0503 -0.2811 -0.1054
 1446W        W 2443   6.837   1.725   1.897 -0.0143  0.2745 -0.3680
 1447W        W 2444   2.439   6.167   4.465 -0.0781  0.2785  0.1755
 1448W        W 2445   7.178   4.272   1.705  0.1657 -0.0565  0.0908
 1449W        W 2446   3.347   4.518   2.065  0.0009 -0.3598  0.0746
 1450W        W 2447   1.587   1.224   4.645  0.0314  0.1537 -0.2889
 1451W        W 2448   5.956   4.474   0.393  0.2629 -0.1012  0.0836
 1452W        W 2449   1.938   1.504   5.595  0.1015  0.3469  0.2296
 1453W        W 2450   5.694   2.098   2.465  0.0683 -0.0290  0.0226
 1454W        W 2451   2.816   0.748   3.998  0.1809 -0.1454 -0.0914
 1455W        W 2452   6.352   5.890   0.072 -0.0410  0.0796  0.0003
 1456W        W 2453   7.268   3.086   4.995 -0.0372  0.2158  0.0295
 1457W        W 2454   1.254   0.102   0.385 -0.2863  0.1762  0.1667
 1458W        W 2455   5.168   2.447   4.235  0.0862  0.2533 -0.1193
 1459W        W 2456   3.210   2.674   5.816  0.3067  0.1060  0.0491
 1460W        W 2457   2.253   5.692   5.338  0.1979  0.3014  0.0996
 1461W        W 2458   6.967   1.570   5.903  0.1896 -0.0853  0.1487
 1462W        W 2459   3.048   2.314   1.163  0.1729 -0.1699 -0.2359
 1463W        W 2460   3.750   6.473   3.260  0.2466 -0.3157  0.1575
 1464W        W 2461   5.064   4.717   2.015  0.0294 -0.1170 -0.0142
 1465W        W 2462   3.102   3.211   1.163  0.3560  0.0341  0.0841
 1466W        W 2463   0.690   0.992   4.475 -0.4539 -0.1492  0.2191
 1467W        W 2464   6.060   0.845   5.967  0.0007  0.2553  0.1520
 1468W        W 2465   5.134   6.716   5.139  0.2299 -0.0913  0.1338
 1469W        W 2466   6.516   5.214   0.698  0.2647  0.0383 -0.0258
 1470W        W 2467   4.741   4.933   5.069 -0.0616  0.1470  0.1312
 1471W        W 2468   5.058   4.903   1.061 -0.1396  0.1236 -0.1831
 1472W        W 2469   4.247   2.743   6.403  0.0219 -0.2758  0.0996
 1473W        W 2470   4.088   7.656   6.851 -0.1631 -0.1497  0.0389
 1474W        W 2471   4.234   6.702   4.774 -0.0480 -0.0456 -0.0439
 1475W        W 2472   6.191   6.903   4.334 -0.1131 -0.1108  0.1040
 1476W        W 2473   6.275   0.456   5.171 -0.1149  0.1354 -0.1056
 1477W        W 2474   6.868   0.431   5.310 -0.0529  0.0627  0.0584
 1478W        W 2475   6.865   6.718   2.540  0.3101  0.0220  0.1250
 1479W        W 2476   2.383   0.069   5.021 -0.0470  0.1025  0.1469
 1480W        W 2477   4.243   2.821   4.560 -0.0701  0.4131  0.1281
 1481W        W 2478   1.570   5.958   5.138  0.0858 -0.0723  0.2547
 1482W        W 2479   6.874   5.947   6.661  0.0221  0.1013  0.0529
 1483W        W 2480   3.803   5.734   4.736  0.0421  0.0642  0.0302
 1484W        W 2481   3.241   4.458   5.169  0.3073  0.3102 -0.1846
 1485W        W 2482   2.545   1.119   3.242 -0.2368  0.1479 -0.0385
 1486W        W 2483   4.531   3.091   3.764 -0.0674  0.1881 -0.0032
 1487W        W 2484   5.778   4.869   3.023 -0.0180  0.2266  0.0294
 1488W        W 2485   3.326   6.812   1.774  0.1522 -0.0080 -0.1980
 1489W        W 2486   1.942   3.698   0.535 -0.0710  0.2434  0.0753
 1490W        W 2487   7.591   3.440   6.464 -0.0205  0.0831 -0.1730
 1491W        W 2488   4.614   5.171   6.374  0.0651  0.2266  0.0125
 1492W        W 2489   2.031   2.862   5.619 -0.2210 -0.0305 -0.0927
 1493W        W 2490   6.856   1.129   6.053  0.2814  0.2701 -0.0241
 1494W        W 2491   5.934   2.226   2.899 -0.1564 -0.2202 -0.1551
 1495W        W 2492   0.183   1.427   3.656 -0.1414 -0.1964 -0.2248
 1496W        W 2493   3.185   0.379   6.309 -0.1583 -0.0627 -0.1179
 1497W        W 2494   6.340   1.894   0.753  0.1252  0.0398  0.1070
 1498W        W 2495   0.182   3.860   2.152 -0.1781  0.1600  0.1520
 1499W        W 2496   5.031   7.164   2.993 -0.0137 -0.0463 -0.0767
 1500W        W 2497   1.050   7.427   5.123  0.0455 -0.0006 -0.2489
 1501W        W 2498   1.921   3.798   1.304  0.0205 -0.1036  0.0616
 1502W        W 2499   5.441   1.347   2.850  0.0292 -0.1017 -0.0057
 1503W        W 2500   7.525   1.632   0.162  0.0859 -0.2627  0.1774
 1504W        W 2501   5.743   3.086   2.475  0.1951  0.1873  0.2062
 1505W        W 2502   4.287   2.371   3.137  0.2113  0.0757  0.3267
 1506W        W 2503   3.454   0.254   7.574 -0.3754  0.2452 -0.1756
 1507W        W 2504   3.065   3.156   0.135 -0.0234 -0.4483 -0.0043
 1508W        W 2505   7.139   3.137   1.251 -0.1967 -0.0241 -0.1863
 1509W        W 2506   4.125   2.298   6.059 -0.1357  0.2461  0.0028
 1510W        W 2507   7.013   2.274   1.249 -0.2105  0.0764 -0.1991
 1511W        W 2508   0.439   6.149   0.179  0.1127  0.3783  0.1821
 1512W        W 2509   5.411   7.483   3.269 -0.1795 -0.3816 -0.0790
 1513W        W 2510   3.527   2.659   6.786 -0.2581  0.1965  0.0386
 1514W        W 2511   1.109   4.898   3.034 -0.3270 -0.2800  0.0477
 1515W        W 2512   7.464   6.522   1.750  0.1451  0.0477 -0.2714
 1516W        W 2513   4.497   7.190   3.058 -0.1534 -0.3769 -0.2323
 1517W        W 2514   5.066   4.454   4.332  0.0338  0.1511 -0.0402
 1518W        W 2515   3.952   0.987   2.162 -0.0793 -0.0336  0.1470
 1519W        W 2516   5.081   0.857   3.941  0.2708 -0.1497 -0.0448
 1520W        W 2517   3.120   5.862   3.718 -0.3113  0.0342 -0.1583
 1521W        W 2518   3.578   1.376   7.404 -0.1541  0.2941 -0.0250
 1522W        W 2519   5.365   5.811   1.080 -0.1433 -0.4169 -0.0080
 1523W        W 2520   6.731   5.238   2.373  0.0194  0.1056 -0.3526
 1524W        W 2521   4.146   7.142   2.223  0.2679  0.1768  0.0930
 1525W        W 2522   5.794   3.612   6.317 -0.1938 -0.1020 -0.0106
 1526W        W 2523   4.428   6.713   4.296 -0.1215  0.1312 -0.0414
 1527W        W 2524   2.493   1.087   4.309 -0.0672 -0.3552  0.0176
 1528W        W 2525   1.103   6.580   6.759  0.1186 -0.0298 -0.0294
 1529W        W 2526   0.414   6.822   5.974 -0.0431  0.1851 -0.0370
 1530W        W 2527   3.667   4.026   6.196 -0.1352 -0.0574 -0.1899
 1531W        W 2528   1.526   5.071   2.079  0.2667 -0.4075  0.1087
 1532W        W 2529   4.725   3.815   2.141  0.0216 -0.2649 -0.1961
 1533W        W 2530   4.842   6.371   0.930  0.0784  0.0669 -0.1111
 1534W        W 2531   1.799   6.136   2.758 -0.2993  0.0305  0.0268
 1535W        W 2532   0.422   0.316   5.773  0.4097 -0.1490  0.2327
 1536W        W 2533   6.973   1.184   4.780  0.1547  0.0729 -0.0568
 1537W        W 2534   4.003   5.209   0.664 -0.1538 -0.1954 -0.2336
 1538W        W 2535   0.625   0.893   3.537  0.0507  0.0688 -0.0993
 1539W        W 2536   6.005   7.258   5.246 -0.0909  0.0531  0.1871
 1540W        W 2537   3.726   0.339   7.130  0.0676 -0.0278 -0.1153
 1541W        W 2538   4.928   2.049   4.444  0.2205  0.3346  0.2230
 1542W        W 2539   4.910   6.882   4.231  0.1766 -0.2239 -0.1346
 1543W        W 2540   5.289   2.263   2.691  0.2215  0.1964  0.0436
 1544W        W 2541   2.119   7.254   3.453  0.3764  0.0220  0.0732
 1545W        W 2542   1.778   6.890   5.545  0.0603 -0.0023 -0.1373
 1546W        W 2543   7.287   1.449   6.338  0.2860  0.1127  0.1406
 1547W        W 2544   4.637   7.474   5.609 -0.1541 -0.0290  0.1365
 1548W        W 2545   5.268   1.370   7.347 -0.1153  0.2203 -0.0380
 1549W        W 2546   3.092   2.195   1.670 -0.2200 -0.1330 -0.1089
 1550W        W 2547   1.895   4.808   7.156  0.2207 -0.1149  0.0187
 1551W        W 2548   4.747   2.899   2.870  0.1738 -0.1726 -0.0427
 1552W        W 2549   5.418   6.240   3.730 -0.1085  0.2693 -0.1200
 1553W        W 2550   4.277   6.118   0.715  0.2792 -0.3177  0.0897
 1554W        W 2551   6.482   6.724   3.908  0.0191 -0.1517  0.1891
 1555W        W 2552   0.868   7.180   5.975 -0.1248  0.0192 -0.1372
 1556W        W 2553   1.079   7.153   3.131  0.1342  0.0543  0.1198
 1557W        W 2554   5.964   0.404   0.986 -0.3423 -0.1433  0.1055
 1558W        W 2555   3.289   3.229   3.102  0.0842  0.0374  0.0540
 1559W        W 2556   5.442   4.537   0.532 -0.2124 -0.0992  0.0963
 1560W        W 2557   1.879   7.579   6.859 -0.0889 -0.1427  0.0701
 1561W        W 2558   6.866   6.611   1.175 -0.2002 -0.3870  0.0074
 1562W        W 2559   7.531   2.361   4.580 -0.0061  0.1307 -0.2290
 1563W        W 2560   7.003   3.651   3.273 -0.4253  0.1235 -0.1095
 1564W        W 2561   0.300   0.161   0.466 -0.1457 -0.1302 -0.0407
 1565W        W 2562   7.321   6.710   4.049  0.2467  0.0959  0.1346
 1566W        W 2563   1.149   3.801   1.830 -0.1588  0.2651 -0.0387
 1567W        W 2564   4.522   0.812   4.604 -0.3178  0.1013  0.2705
 1568W        W 2565   5.330   3.372   2.556 -0.0362  0.1220  0.0271
 1569W        W 2566   0.824   0.528   5.547  0.1193  0.1303  0.1188
 1570W        W 2567   4.691   3.493   6.045 -0.0160  0.3227 -0.3262
 1571W        W 2568   3.710   4.473   4.436  0.0079 -0.2553 -0.0567
 1572W        W 2569   5.780   5.394   7.423 -0.1724  0.3648 -0.3367
 1573W        W 2570   2.170   4.904   1.466 -0.1834 -0.0926 -0.2912
 1574W        W 2571   0.557   6.041   7.328  0.2264 -0.1180 -0.2661
 1575W        W 2572   3.592   4.382   0.837 -0.0031  0.3413  0.2054
 1576W        W 2573   0.023   3.140   3.790 -0.1646  0.1436  0.1478
 1577W        W 2574   0.915   4.081   0.981 -0.1735 -0.0863  0.0345
 1578W        W 2575   5.762   3.931   1.969 -0.1649 -0.0464 -0.0108
 1579W        W 2576   4.684   2.162   1.733 -0.0530 -0.0312  0.4132
 1580W        W 2577   6.896   4.805   1.944 -0.0321  0.0573  0.3014
 1581W        W 2578   5.375   4.178   4.022 -0.1851 -0.0989 -0.1088
 1582W        W 2579   4.652   3.135   4.226  0.1671 -0.0219  0.1593
 1583W        W 2580   4.210   3.317   0.052 -0.1260 -0.2524 -0.2441
 1584W        W 2581   5.114   3.171   4.802  0.2375 -0.0012  0.0101
 1585W        W 2582   6.346   7.409   3.606 -0.1078 -0.1755  0.1933
 1586W        W 2583   5.116   7.591   4.655 -0.2533 -0.0570  0.0325
 1587W        W 2584   6.503   5.516   2.686  0.0949  0.0259  0.1222
 1588W        W 2585   1.113   0.948   5.991  0.0773 -0.1501  0.0200
 1589W        W 2586   5.067   2.568   4.763  0.1838 -0.2106  0.2751
 1590W        W 2587   3.660   0.539   4.397  0.1522  0.0805  0.0243
 1591W        W 2588   4.457   5.484   2.125  0.3933 -0.2282 -0.1807
 1592W        W 2589   4.574   6.695   3.847  0.1741  0.1412 -0.0941
 1593W        W 2590   5.105   6.067   3.170 -0.2748  0.0799 -0.2483
 1594W        W 2591   1.225   0.282   5.290 -0.0298 -0.1925  0.0352
 1595W        W 2592   2.281   7.278   6.449 -0.0448 -0.3780 -0.0529
 1596W        W 2593   6.556   6.064   1.365  0.1214  0.2062 -0.1802
 1597W        W 2594   7.295   7.144   4.347  0.2051  0.0492 -0.0804
 1598W        W 2595   3.072   3.927   4.986  0.2204  0.4588 -0.1047
 1599W        W 2596   3.262   6.660   7.152  0.1655 -0.2795  0.1558
 1600W        W 2597   4.219   5.637   0.962 -0.1778 -0.0506 -0.1449
 1601W        W 2598   3.591   3.060   0.317  0.1222 -0.1323 -0.2031
 1602W        W 2599   4.536   2.974   0.220 -0.0304 -0.1759  0.2173
 1603W        W 2600   5.976   2.217   0.193 -0.0779  0.2058 -0.0156
 1604W        W 2601   2.868   2.430   6.110  0.0536  0.5291 -0.2719
 1605W        W 2602   5.453   3.048   7.539 -0.5232 -0.1095 -0.0977
 1606W        W 2603   7.332   6.540   3.278 -0.2839 -0.0846 -0.1304
 1607W        W 2604   1.102   1.026   2.846  0.0518  0.0775  0.0464
 1608W        W 2605   3.212   1.104   6.566  0.1272  0.2531  0.1466
 1609W        W 2606   6.297   2.153   6.593  0.0725  0.2384  0.1304
 1610W        W 2607   7.039   6.960   3.402  0.0470 -0.2448  0.0056
 1611W        W 2608   1.943   6.975   0.795  0.0283 -0.0812  0.1157
 1612W        W 2609   7.543   7.293   0.472  0.2816  0.0932 -0.0313
 1613W        W 2610   0.317   6.926   0.808  0.0826  0.0883 -0.0228
 1614W        W 2611   4.363   1.135   0.332  0.0295 -0.0900  0.2273
 1615W        W 2612   7.227   0.608   2.074 -0.2316 -0.0481  0.2190
 1616W        W 2613   0.506   6.860   3.891  0.1550 -0.1526 -0.0908
 1617W        W 2614   1.812   1.286   6.394 -0.0208 -0.1696  0.1348
 1618W        W 2615   6.654   4.335   7.606 -0.2844 -0.1359 -0.0931
 1619W        W 2616   5.908   3.147   6.224 -0.0991  0.1171 -0.1954
 1620W        W 2617   7.241   6.908   6.566  0.1009 -0.2019  0.0854
 1621W        W 2618   6.950   5.418   0.786  0.1103  0.1369  0.4129
 1622W        W 2619   3.668   0.180   6.348  0.2179  0.2545  0.2998
 1623W        W 2620   5.320   1.783   1.435  0.1211 -0.2229  0.0408
 1624W        W 2621   5.891   0.035   3.493  0.2951  0.1590 -0.0175
 1625W        W 2622   7.645   4.209   7.342 -0.1024 -0.0163 -0.0557
 1626W        W 2623   0.353   3.929   1.366  0.3116  0.1181 -0.2350
 1627W        W 2624   3.210   1.726   0.085  0.1025  0.0544 -0.1107
 1628W        W 2625   6.211   7.613   2.105  0.0608 -0.0375  0.3438
 1629W        W 2626   0.259   7.558   6.443 -0.0520 -0.5452  0.1784
 1630W        W 2627   5.114   0.879   2.531 -0.2430  0.2197  0.0513
 1631W        W 2628   2.760   3.871   1.675 -0.0596 -0.0944 -0.0940
 1632W        W 2629   0.346   4.709   1.698  0.0161  0.4142 -0.2866
 1633W        W 2630   1.678   0.210   2.955  0.1671 -0.1208 -0.1737
 1634W        W 2631   7.272   6.921   0.898 -0.1013 -0.4346  0.0535
 1635W        W 2632   3.318   3.112   1.705 -0.2090 -0.0161 -0.0935
 1636W        W 2633   6.118   7.642   4.871  0.0750 -0.2943  0.1561
 1637W        W 2634   2.336   6.351   6.526 -0.1835  0.1827  0.1260
 1638W        W 2635   7.274   0.899   0.997 -0.2419  0.1468 -0.1774
 1639W        W 2636   4.605   7.012   6.584 -0.0729 -0.0878 -0.2078
 1640W        W 2637   1.643   5.872   0.621 -0.0185  0.1140  0.0352
 1641W        W 2638   1.353   4.484   2.903  0.2595  0.0420 -0.1613
 1642W        W 2639   5.537   3.457   2.130  0.2111 -0.0812  0.1481
 1643W        W 2640   6.571   3.508   0.166  0.1290 -0.1062 -0.0644
 1644W        W 2641   5.554   1.397   1.202  0.0875 -0.1957  0.1121
 1645W        W 2642   4.660   6.363   3.188 -0.0636  0.0475  0.0404
 1646W        W 2643   6.855   3.826   1.215 -0.2897  0.2110 -0.2615
 1647W        W 2644   3.168   6.036   2.509  0.0179 -0.2830 -0.1668
 1648W        W 2645   3.367   2.331   6.307 -0.2080 -0.2105 -0.3515
 1649W        W 2646   3.957   1.441   4.489 -0.0014  0.1226 -0.1117
 1650W        W 2647   6.529   1.758   2.400  0.0932 -0.5346  0.4210
 1651W        W 2648   2.690   0.733   3.508 -0.0704 -0.2640 -0.2093
 1652W        W 2649   6.975   1.799   0.081  0.0307 -0.0395 -0.0383
 1653W        W 2650   6.399   2.173   3.596 -0.0933 -0.0606 -0.0489
 1654W        W 2651   5.771   3.986   6.833  0.3139  0.0896  0.1095
 1655W        W 2652   2.123   7.629   4.572 -0.1834  0.0298 -0.1500
 1656W        W 2653   6.739   3.769   2.066 -0.2828  0.0619 -0.1701
 1657W        W 2654   2.508   4.327   1.706  0.1374 -0.1934 -0.0858
 1658W        W 2655   2.403   5.610   4.257  0.3367 -0.1058 -0.2961
 1659W        W 2656   6.086   6.322   5.006 -0.1906  0.2999 -0.0069
 1660W        W 2657   0.006   6.429   0.011 -0.0187 -0.3428 -0.1015
 1661W        W 2658   5.495   4.668   4.125 -0.1587  0.3046 -0.1193
 1662W        W 2659   4.192   6.514   2.928  0.1395  0.2551  0.1839
 1663W        W 2660   6.517   6.973   3.465 -0.2500  0.4922 -0.1859
 1664W        W 2661   1.144   0.415   3.591 -0.3068  0.0793 -0.2715
 1665W        W 2662   7.015   3.204   5.516  0.1782 -0.1015  0.4366
 1666W        W 2663   2.071   4.942   3.417 -0.0075 -0.1313  0.1115
 1667W        W 2664   3.585   6.282   6.940 -0.0223 -0.1799  0.0432
 1668W        W 2665   3.886   7.105   3.560 -0.0193 -0.2311 -0.2138
 1669W        W 2666   1.936   7.047   7.291  0.0860 -0.1277 -0.3517
 1670W        W 2667   3.512   0.715   6.304 -0.0925  0.2296  0.0027
 1671W        W 2668   4.717   1.670   2.254  0.0504 -0.0180 -0.1389
 1672W        W 2669   6.862   0.863   5.646  0.1623  0.0085 -0.0010
 1673W        W 2670   6.825   6.684   1.963  0.0086 -0.2583  0.2576
 1674W        W 2671   5.722   2.969   1.931 -0.1455  0.2520 -0.4409
 1675W        W 2672   2.611   6.553   0.229 -0.2155 -0.0409 -0.0657
 1676W        W 2673   5.655   2.594   0.925  0.0151  0.0205  0.1778
 1677W        W 2674   4.699   1.127   3.382 -0.0506  0.2797 -0.1450
 1678W        W 2675   3.985   5.680   2.630 -0.2060 -0.2077  0.1903
 1679W        W 2676   3.093   1.167   3.834  0.5357 -0.0380 -0.0262
 1680W        W 2677   3.310   6.963   0.768  0.1972  0.0275  0.0799
 1681W        W 2678   5.643   5.249   3.952 -0.1659 -0.0294 -0.2952
 1682W        W 2679   0.945   6.065   1.868 -0.1765  0.2465  0.1098
 1683W        W 2680   3.612   0.484   1.434  0.1887  0.1730 -0.1119
 1684W        W 2681   3.647   3.210   4.640 -0.3724  0.0230 -0.1321
 1685W        W 2682   0.631   6.394   1.627  0.1305 -0.1739 -0.0804
 1686W        W 2683   7.192   6.400   0.772  0.0330 -0.0142  0.2164
 1687W        W 2684   1.607   0.710   5.946  0.3072  0.0010  0.2371
 1688W        W 2685   3.434   5.694   5.051 -0.0487 -0.1618  0.2689
 1689W        W 2686   6.849   1.507   3.692 -0.0500 -0.4066 -0.0902
 1690W        W 2687   4.232   2.684   1.891 -0.3123 -0.2605  0.1803
 1691W        W 2688   0.913   7.621   3.588  0.2561  0.0467  0.0148
 1692W        W 2689   5.577   0.165   3.897 -0.0285 -0.1530 -0.0650
 1693W        W 2690   0.473   0.347   2.707  0.0014 -0.3008 -0.1481
 1694W        W 2691   1.770   7.463   6.417 -0.1458  0.2161 -0.0067
 1695W        W 2692   6.391   4.708   0.669  0.0607 -0.0650 -0.3734
 1696W        W 2693   5.622   7.131   1.340  0.1290  0.1023 -0.0561
 1697W        W 2694   5.965   6.132   0.295 -0.0141  0.2916  0.0120
 1698W        W 2695   4.400   5.934   2.859  0.0201 -0.1206 -0.2905
 1699W        W 2696   6.112   4.157   3.530 -0.1547  0.2992 -0.2685
 1700W        W 2697   5.065   4.143   7.331 -0.0157  0.1512  0.1478
 1701W        W 2698   3.809   5.308   5.038  0.1236 -0.0713 -0.1510
 1702W        W 2699   4.961   2.652   7.093 -0.1170  0.2729 -0.0074
 1703W        W 2700   3.101   4.833   1.280 -0.1134 -0.0203 -0.0174
 1704W        W 2701   2.625   2.129   3.680 -0.1290  0.1167  0.0107
 1705W        W 2702   6.547   1.136   3.836  0.1229 -0.0128 -0.0465
 1706W        W 2703   6.189   5.999   0.825  0.0421 -0.1168  0.1645
 1707W        W 2704   6.069   3.203   1.315 -0.3768  0.0579 -0.0726
 1708W        W 2705   2.784   5.663   5.150 -0.1092  0.0718  0.0974
 1709W        W 2706   3.926   2.643   7.229 -0.0864 -0.1381 -0.1043
 1710W        W 2707   2.391   6.478   2.066 -0.0745 -0.0123  0.2129
 1711W        W 2708   1.794   6.623   1.787 -0.1146 -0.0217 -0.1369
 1712W        W 2709   3.545   3.097   4.122  0.1064 -0.1241  0.1051
 1713W        W 2710   7.419   0.277   3.264  0.3415 -0.0218 -0.0967
 1714W        W 2711   4.049   0.285   3.100  0.1083  0.3119  0.0145
 1715W        W 2712   5.119   4.876   0.286 -0.4441 -0.1101  0.1264
 1716W        W 2713   2.786   0.138   4.719  0.0256 -0.2306 -0.1813
 1717W        W 2714   6.988   7.269   0.607 -0.3087  0.0033  0.2943
 1718W        W 2715   6.364   6.623   2.425 -0.0611  0.1821  0.2598
 1719W        W 2716   2.105   0.640   5.771  0.1139 -0.0424 -0.0171
 1720W        W 2717   7.633   0.098   4.819  0.1541  0.2391  0.1715
 1721W        W 2718   7.141   1.540   4.146  0.2176 -0.2608  0.1755
 1722W        W 2719   1.360   6.816   2.674  0.0217 -0.1315 -0.1645
 1723W        W 2720   7.411   3.348   1.909 -0.1216 -0.4650  0.1337
 1724W        W 2721   0.739   1.532   3.655  0.0769  0.1935 -0.2632
 1725W        W 2722   5.050   2.816   5.677 -0.1634 -0.0656  0.0052
 1726W        W 2723   7.249   0.105   5.169 -0.0965  0.0016 -0.0747
 1727W        W 2724   0.443   5.069   7.513  0.3108  0.2921 -0.1059
 1728W        W 2725   0.948   4.537   0.595  0.0210 -0.3324 -0.1708
 1729W        W 2726   7.639   5.997   1.795 -0.0222  0.0278 -0.0993
 1730W        W 2727   3.664   7.250   1.072 -0.0601  0.1386  0.3299
 1731W        W 2728   6.453   0.345   1.901 -0.0046  0.0250 -0.2817
 1732W        W 2729   2.811   2.550   3.107  0.0832  0.3364 -0.0512
 1733W        W 2730   5.159   2.779   0.131 -0.0144 -0.0126 -0.3161
 1734W        W 2731   3.670   4.472   0.118 -0.1756  0.6325 -0.1644
 1735W        W 2732   6.264   3.695   3.680  0.2088 -0.0327  0.1694
 1736W        W 2733   2.416   6.968   2.250 -0.1269 -0.0164  0.2634
 1737W        W 2734   3.953   4.063   2.212  0.1969  0.0420 -0.1668
 1738W        W 2735   4.671   0.357   1.715  0.0043 -0.0014  0.0564
 1739W        W 2736   2.632   4.836   6.720  0.0847  0.2092 -0.0035
 1740W        W 2737   4.216   0.456   4.516  0.0012  0.1752  0.3179
 1741W        W 2738   7.117   2.494   4.832  0.0689  0.1513 -0.1572
 1742W        W 2739   3.869   3.344   2.949  0.4352  0.1953  0.3830
 1743W        W 2740   0.150   5.014   1.070  0.1058  0.1243 -0.0029
 1744W        W 2741   2.799   5.331   6.706  0.2271  0.2844  0.2418
 1745W        W 2742   2.386   0.699   5.366 -0.0735 -0.3306  0.0233
 1746W        W 2743   6.914   6.635   3.020  0.1745 -0.1019  0.1489
 1747W        W 2744   4.315   0.442   3.979  0.0951 -0.3658 -0.1374
 1748W        W 2745   1.830   5.123   0.006  0.0153 -0.1935 -0.1334
 1749W        W 2746   3.102   0.353   4.429 -0.1461 -0.3689  0.2207
 1750W        W 2747   4.459   1.126   5.166 -0.0884  0.1528 -0.2503
 1751W        W 2748   4.534   1.192   6.650  0.0011 -0.2393  0.1019
 1752W        W 2749   5.159   1.787   5.928  0.1667 -0.0898  0.2582
 1753W        W 2750   5.620   0.617   6.998  0.0441 -0.1114  0.0996
 1754W        W 2751   2.590   5.705   7.343  0.3126 -0.1083 -0.1152
 1755W        W 2752   3.852   3.799   1.676 -0.0127  0.0346  0.0981
 1756W        W 2753   3.082   1.010   3.319 -0.0950  0.1874  0.0518
 1757W        W 2754   5.320   7.182   1.766 -0.3146 -0.0624 -0.1609
 1758W        W 2755   7.225   3.363   2.835 -0.1137  0.0693  0.2132
 1759W        W 2756   2.293   4.938   6.292 -0.0334 -0.1654  0.0415
 1760W        W 2757   3.899   4.868   5.345 -0.1848  0.2070 -0.0788
 1761W        W 2758   5.656   3.060   3.625 -0.1260 -0.1024 -0.2065
 1762W        W 2759   5.658   6.625   1.531  0.0290 -0.2775 -0.0940
 1763W        W 2760   6.210   6.557   0.170  0.2470 -0.1604 -0.1024
 1764W        W 2761   6.611   7.396   1.806  0.1166 -0.2795  0.1562
 1765W        W 2762   7.352   7.435   7.441 -0.0600  0.1497  0.1565
 1766W        W 2763   5.050   7.266   5.290 -0.0372 -0.2445 -0.2172
 1767W        W 2764   6.267   4.613   6.265 -0.1637  0.1206 -0.1660
 1768W        W 2765   4.218   5.528   3.075 -0.0166 -0.0510 -0.0374
 1769W        W 2766   2.797   4.190   3.129 -0.0238 -0.1436 -0.1481
 1770W        W 2767   1.121   4.405   6.749  0.1747 -0.0527 -0.0633
 1771W        W 2768   5.106   7.577   2.195  0.1309  0.3311  0.0073
 1772W        W 2769   4.809   4.882   2.773 -0.2300  0.0419  0.2151
 1773W        W 2770   3.153   7.604   5.913  0.1497  0.1477  0.1346
 1774W        W 2771   2.219   6.308   7.362 -0.2788  0.0561  0.0576
 1775W        W 2772   1.591   2.516   4.552  0.0705  0.0653 -0.2065
 1776W        W 2773   1.025   3.798   0.351  0.1707  0.0091  0.0547
 1777W        W 2774   2.505   3.526   1.348 -0.0030  0.0585  0.0873
 1778W        W 2775   3.466   0.630   5.293 -0.0498  0.2191 -0.0567
 1779W        W 2776   2.769   6.406   2.366  0.0285 -0.0501  0.0412
 1780W        W 2777   4.492   4.402   0.787  0.0471 -0.2833 -0.0830
 1781W        W 2778   0.287   6.909   1.722  0.0382 -0.1805  0.2808
 1782W        W 2779   5.431   7.125   0.791 -0.0423 -0.1289 -0.0802
 1783W        W 2780   7.346   2.677   1.949  0.2728  0.2467 -0.0498
 1784W        W 2781   2.872   0.871   7.414  0.0562  0.0446  0.1520
 1785W        W 2782   2.987   4.496   1.732  0.0644 -0.0201  0.0345
 1786W        W 2783   0.799   7.609   6.784 -0.0977  0.3222 -0.2192
 1787W        W 2784   6.795   2.472   6.189 -0.2991 -0.2728 -0.3448
 1788W        W 2785   3.902   5.211   2.844 -0.1485 -0.0700  0.1307
 1789W        W 2786   2.218   0.125   6.502 -0.2978  0.0507 -0.1609
 1790W        W 2787   2.165   0.512   4.973  0.2428  0.2444  0.0311
 1791W        W 2788   2.708   5.075   3.619  0.2170 -0.0805  0.2038
 1792W        W 2789   1.069   5.426   0.046  0.0609  0.3409 -0.0211
 1793W        W 2790   6.369   2.956   3.178 -0.1459 -0.0022  0.0873
 1794W        W 2791   5.159   3.088   3.870  0.0504  0.2226  0.0991
 1795W        W 2792   5.004   2.097   2.283 -0.1513  0.0098  0.3628
 1796W        W 2793   1.814   5.459   2.263 -0.0289  0.1369 -0.2945
 1797W        W 2794   0.210   0.573   3.171 -0.0712  0.3151 -0.3024
 1798W        W 2795   6.290   5.173   7.211  0.1830 -0.0834 -0.1538
 1799W        W 2796   6.493   7.210   0.730 -0.1356 -0.0001  0.1370
 1800W        W 2797   6.764   7.419   3.353  0.0484 -0.1690  0.0736
 1801W        W 2798   0.876   6.576   3.594 -0.0277  0.0524 -0.3224
 1802W        W 2799   4.697   4.546   4.727  0.2318 -0.2749  0.0036
 1803W        W 2800   0.386   3.484   6.750 -0.1588  0.3597 -0.0881
 1804W        W 2801   0.066   3.172   4.337  0.3819  0.2674 -0.0950
 1805W        W 2802   7.278   3.112   4.066 -0.4115 -0.0055  0.1711
 1806W        W 2803   4.194   0.369   1.492  0.2053  0.0654 -0.0022
 1807W        W 2804   5.313   6.748   7.358  0.2886  0.6103  0.1517
 1808W        W 2805   2.962   7.509   5.070 -0.4960  0.3039 -0.0642
 1809W        W 2806   4.573   2.160   3.568  0.2114  0.0472  0.0711
 1810W        W 2807   1.762   5.009   2.608 -0.0777 -0.0525 -0.0603
 1811W        W 2808   3.208   4.074   1.605 -0.0031  0.0430 -0.1246
 1812W        W 2809   3.952   1.347   3.487 -0.1056  0.0100 -0.1174
 1813W        W 2810   6.022   3.288   4.857  0.2091  0.4608 -0.1259
 1814W        W 2811   4.000   4.743   1.543 -0.0047  0.1828 -0.0136
 1815W        W 2812   4.198   2.063   3.974  0.1194 -0.0606 -0.0507
 1816W        W 2813   6.878   7.568   5.654 -0.1806 -0.2054  0.3369
 1817W        W 2814   6.230   5.294   1.114 -0.1767 -0.3068  0.1380
 1818W        W 2815   3.056   2.866   6.835 -0.1258  0.0929  0.1113
 1819W        W 2816   3.186   5.498   2.345  0.1107 -0.1456 -0.4815
 1820W        W 2817   2.079   5.073   2.153  0.1752 -0.2189 -0.1438
 1821W        W 2818   4.666   3.415   0.207 -0.3162  0.0097 -0.1847
 1822W        W 2819   4.061   4.540   1.054 -0.1651  0.0874  0.0218
 1823W        W 2820   4.747   3.016   6.076  0.1261 -0.1993 -0.0403
 1824W        W 2821   0.031   0.095   6.014 -0.2615  0.0534 -0.2822
 1825W        W 2822   0.197   0.076   2.384 -0.2115 -0.1434  0.2999
 1826W        W 2823   0.322   7.286   1.265  0.3021  0.3171 -0.1534
 1827W        W 2824   5.154   4.762   6.878  0.1048 -0.2304  0.4581
 1828W        W 2825   4.012   6.057   7.579  0.1401  0.0648  0.0937
 1829W        W 2826   4.676   5.935   3.446 -0.0168 -0.2293  0.1532
 1830W        W 2827   5.565   2.233   1.388 -0.1922 -0.1732 -0.0553
 1831W        W 2828   2.817   5.088   6.253 -0.2083 -0.1582  0.1401
 1832W        W 2829   1.277   6.191   0.483  0.1172  0.2688  0.0758
 1833W        W 2830   4.943   7.030   0.715  0.1121  0.0327  0.1196
 1834W        W 2831   2.756   0.680   4.940  0.2032 -0.1235  0.1433
 1835W        W 2832   6.576   2.629   6.597  0.2903  0.0610  0.0693
 1836W        W 2833   5.870   5.313   6.922 -0.1271  0.4251  0.0529
 1837W        W 2834   6.937   0.908   2.935 -0.1110  0.1325  0.0576
 1838W        W 2835   7.620   3.117   1.008 -0.0234 -0.2278  0.0383
 1839W        W 2836   0.805   7.601   1.220  0.1259  0.1786 -0.1302
 1840W        W 2837   2.557   3.124   3.954 -0.2425 -0.0097  0.3247
 1841W        W 2838   6.473   1.822   0.194 -0.1950 -0.0602 -0.0406
 1842W        W 2839   4.215   4.434   5.422 -0.1478  0.1239  0.0706
 1843W        W 2840   1.395   7.644   6.134  0.2133 -0.1021 -0.0394
 1844W        W 2841   3.207   6.112   0.563 -0.1722  0.0045  0.1128
 1845W        W 2842   5.067   0.928   1.052  0.2651 -0.2777  0.1648
 1846W        W 2843   5.902   6.898   2.662  0.1491  0.2234  0.0724
 1847W        W 2844   3.744   3.879   7.019  0.3576  0.0390 -0.0771
 1848W        W 2845   5.817   6.140   4.207 -0.1043 -0.2129 -0.1403
 1849W        W 2846   3.829   3.396   5.184  0.0248 -0.0023 -0.3784
 1850W        W 2847   1.745   0.292   6.261 -0.0658 -0.3162  0.0176
 1851W        W 2848   7.173   6.128   2.083 -0.1484  0.2904  0.0142
 1852W        W 2849   3.663   5.627   3.749 -0.1638  0.3307  0.3511
 1853W        W 2850   2.144   3.296   4.272 -0.2841  0.1566 -0.1396
 1854W        W 2851   1.649   6.707   6.003  0.0265  0.0427 -0.1365
 1855W        W 2852   2.709   1.379   5.023 -0.2132 -0.1576 -0.2147
 1856W        W 2853   4.448   6.957   0.855 -0.2570 -0.0475 -0.0679
 1857W        W 2854   2.048   2.305   3.696 -0.0042  0.0087 -0.0286
 1858W        W 2855   7.283   7.258   3.868 -0.1355  0.2964  0.0078
 1859W        W 2856   3.674   6.826   6.252  0.1330 -0.2420 -0.2541
 1860W        W 2857   0.747   3.646   2.700 -0.0498  0.1760  0.1943
 1861W        W 2858   6.023   3.516   2.324  0.1404  0.0019 -0.1028
 1862W        W 2859   1.919   5.807   3.143 -0.0976  0.2556 -0.1496
 1863W        W 2860   6.960   2.626   2.364 -0.0774 -0.2441 -0.0311
 1864W        W 2861   2.572   2.926   5.593 -0.2105  0.0399  0.0343
 1865W        W 2862   4.689   5.973   1.905 -0.3560 -0.0923 -0.2313
 1866W        W 2863   0.075   0.285   4.337 -0.1288  0.1001  0.2509
 1867W        W 2864   2.241   4.182   2.593 -0.0414 -0.2383 -0.3059
 1868W        W 2865   1.912   5.349   1.707  0.0519  0.1532  0.3846
 1869W        W 2866   4.600   6.324   6.918 -0.1274  0.0472 -0.0516
 1870W        W 2867   3.090   4.497   2.536 -0.0418  0.1642  0.2318
 1871W        W 2868   4.257   5.062   6.743  0.1445 -0.2035  0.2594
 1872W        W 2869   2.639   5.823   5.611  0.0749 -0.0551 -0.0139
 1873W        W 2870   0.920   5.108   7.342 -0.1637 -0.1611 -0.1662
 1874W        W 2871   1.634   4.501   2.311 -0.1158  0.0263 -0.0612
 1875W        W 2872   1.855   1.655   4.716  0.2918 -0.1070  0.1806
 1876W        W 2873   5.491   6.404   0.036  0.0302 -0.0533 -0.1149
 1877W        W 2874   6.663   6.218   0.331  0.2066 -0.0094 -0.0057
 1878W        W 2875   0.073   7.294   4.621  0.3446 -0.1100 -0.0687
 1879W        W 2876   6.301   3.042   0.447  0.0523  0.2046  0.0120
 1880W        W 2877   2.252   5.729   2.405 -0.0995  0.1398 -0.2018
 1881W        W 2878   6.009   0.855   0.650  0.3491 -0.0842 -0.2349
 1882W        W 2879   4.366   6.354   2.010  0.0404  0.1905 -0.1206
 1883W        W 2880   2.717   5.484   4.709  0.3844  0.0961  0.1993
 1884W        W 2881   3.432   4.290   5.817  0.2517 -0.1152 -0.4098
 1885W        W 2882   1.401   1.666   5.631 -0.1549  0.0080  0.1097
 1886W        W 2883   3.183   7.617   2.562 -0.2209 -0.0791 -0.0142
 1887W        W 2884   0.684   6.743   2.073 -0.1454  0.2377  0.2417
 1888W        W 2885   6.739   0.584   6.537 -0.5700  0.1443  0.1782
 1889W        W 2886   5.480   5.089   7.204  0.4800 -0.1175 -0.0248
 1890W        W 2887   3.078   3.442   6.843  0.0397 -0.2133  0.0073
 1891W        W 2888   2.120   3.494   6.850 -0.2559 -0.0120  0.0145
 1892W        W 2889   7.359   5.002   0.149  0.0507 -0.4776 -0.3295
 1893W        W 2890   0.239   6.545   2.524 -0.0250 -0.2181 -0.1242
 1894W        W 2891   5.217   5.938   0.146 -0.1945 -0.5306  0.0541
 1895W        W 2892   5.721   1.880   7.138  0.2780 -0.0631 -0.0583
 1896W        W 2893   5.474   5.579   5.303 -0.0731 -0.0540  0.3610
 1897W        W 2894   4.821   5.265   5.864 -0.1996 -0.2859  0.1238
 1898W        W 2895   4.360   4.214   4.946 -0.1531 -0.1672 -0.1569
 1899W        W 2896   1.296   0.067   4.768  0.1938  0.1158  0.0776
 1900W        W 2897   6.048   5.490   0.199 -0.2962 -0.2308  0.2332
 1901W        W 2898   3.368   3.586   0.341  0.5543  0.5908 -0.2892
 1902W        W 2899   3.906   1.762   1.458 -0.1501 -0.1015 -0.0788
 1903W        W 2900   1.776   5.600   7.475 -0.4849  0.1549 -0.1327
 1904W        W 2901   4.922   6.921   0.035 -0.1776 -0.1046  0.0132
 1905W        W 2902   2.547   4.445   2.263 -0.0669  0.3622 -0.1056
 1906W        W 2903   4.921   0.262   3.359  0.3271  0.2840  0.0871
 1907W        W 2904   7.257   4.494   2.171  0.3842 -0.0910  0.3840
 1908W        W 2905   5.725   6.793   3.602  0.2011  0.1354 -0.2155
 1909W        W 2906   4.024   3.156   4.204 -0.5023 -0.0953  0.3908
 1910W        W 2907   6.097   3.525   0.478  0.2059 -0.2550  0.0452
 1911W        W 2908   0.099   6.502   3.839  0.2362 -0.4175  0.0695
 1912W        W 2909   0.104   2.527   6.512 -0.1729  0.0541 -0.0168
 1913W        W 2910   3.694   3.025   5.475  0.0383 -0.1008  0.0240
 1914W        W 2911   1.466   1.457   3.785 -0.2558 -0.0468  0.2580
 1915W        W 2912   0.894   6.075   0.790  0.2048 -0.2645  0.2931
 1916W        W 2913   7.320   2.074   4.034  0.0725 -0.0043 -0.1122
 1917W        W 2914   5.623   3.461   5.864 -0.0070 -0.2529 -0.1106
 1918W        W 2915   4.466   7.314   6.138 -0.1386 -0.1175  0.0566
 1919W        W 2916   5.778   0.702   0.076  0.5615 -0.0662 -0.0838
 1920W        W 2917   7.431   3.110   3.187  0.2489 -0.2214 -0.1276
 1921W        W 2918   2.642   3.143   6.953  0.0727 -0.2602  0.4084
 1922W        W 2919   5.738   3.356   5.277 -0.0908 -0.0912 -0.3600
 1923W        W 2920   5.596   5.858   0.595 -0.1911  0.2923  0.0360
 1924W        W 2921   7.437   3.948   0.657 -0.1699 -0.1953  0.0059
 1925W        W 2922   0.200   2.728   4.619 -0.0672 -0.2133 -0.0559
 1926W        W 2923   0.212   1.707   5.601  0.0141  0.2481 -0.0889
 1927W        W 2924   4.849   3.557   3.960 -0.3742 -0.0894 -0.4225
 1928W        W 2925   3.163   3.136   3.713  0.0243  0.0755  0.1158
 1929W        W 2926   4.729   2.860   1.968  0.1052 -0.0446  0.1493
 1930W        W 2927   0.036   0.677   1.218 -0.1097 -0.0157  0.3149
 1931W        W 2928   1.338   4.393   1.581  0.0230 -0.0884  0.3742
 1932W        W 2929   1.351   2.706   3.279  0.0114 -0.1381  0.0501
 1933W        W 2930   0.547   2.719   5.273  0.3217  0.0531  0.2627
 1934W        W 2931   3.505   5.443   0.583  0.1361 -0.0010  0.2347
 1935W        W 2932   4.082   3.719   7.335  0.0709  0.1836  0.2957
 1936W        W 2933   2.439   3.018   1.556 -0.1345 -0.0175 -0.0133
 1937W        W 2934   3.096   4.849   3.894 -0.0072  0.0064 -0.1922
 1938W        W 2935   1.833   4.417   2.822 -0.0407  0.0712  0.4095
 1939W        W 2936   3.830   6.129   1.964 -0.2144  0.0461  0.2012
 1940W        W 2937   7.017   6.400   6.526  0.1087  0.1535  0.0385
 1941W        W 2938   2.911   5.222   4.244  0.2662  0.3284 -0.0845
 1942W        W 2939   5.845   1.841   4.334 -0.2452 -0.1480 -0.1879
 1943W        W 2940   5.498   1.610   1.910  0.0504  0.0735  0.2171
 1944W        W 2941   6.988   2.631   1.590 -0.1547  0.3065 -0.0078
 1945W        W 2942   1.956   2.242   5.957  0.1237 -0.3692 -0.2025
 1946W        W 2943   1.425   6.844   2.161  0.1259  0.0386  0.3066
 1947W        W 2944   0.152   2.582   5.574 -0.0367  0.2975 -0.0844
 1948W        W 2945   5.167   6.701   1.539 -0.0948  0.0467  0.1605
 1949W        W 2946   0.021   6.180   2.300  0.1299 -0.0863  0.3608
 1950W        W 2947   1.587   3.247   4.093 -0.2785  0.0503  0.3657
 1951W        W 2948   6.608   2.407   5.007  0.4158  0.0555 -0.0248
 1952W        W 2949   1.224   4.944   1.608 -0.0581  0.1694  0.0548
 1953W        W 2950   2.791   6.452   3.504  0.2403  0.0543  0.1043
 1954W        W 2951   4.670   3.342   5.582 -0.0246 -0.3778 -0.0295
 1955W        W 2952   7.183   0.857   1.618  0.2315 -0.0908 -0.1461
 1956W        W 2953   3.997   3.953   5.199 -0.1639 -0.5062 -0.1639
 1957W        W 2954   3.638   5.060   0.279  0.0347 -0.0505  0.0536
 1958W        W 2955   2.480   6.720   1.415  0.1212 -0.1479  0.4271
 1959W        W 2956   7.425   1.196   2.776  0.3137 -0.0877  0.0005
 1960W        W 2957   2.181   5.008   0.377 -0.0382  0.1767 -0.0872
 1961W        W 2958   6.700   6.223   0.865  0.1610 -0.2040  0.1622
 1962W        W 2959   4.344   5.626   0.026 -0.0870  0.1400  0.0447
 1963W        W 2960   3.440   3.582   1.881 -0.1415  0.2588  0.1070
 1964W        W 2961   4.730   1.191   6.208  0.1811  0.0369 -0.0693
 1965W        W 2962   2.532   5.212   7.128 -0.0723  0.0184 -0.0927
 1966W        W 2963   4.592   5.814   0.447 -0.0270 -0.1432  0.0853
 1967W        W 2964   2.482   3.890   5.759 -0.1663  0.0654  0.2884
 1968W        W 2965   4.787   6.761   1.241  0.1585  0.3524  0.1639
 1969W        W 2966   4.782   5.461   4.391  0.0443  0.1992 -0.3399
 1970W        W 2967   3.234   6.530   2.687 -0.2638 -0.0618 -0.1815
 1971W        W 2968   5.116   1.914   0.510 -0.0871 -0.1571 -0.0066
 1972W        W 2969   7.025   4.639   0.865 -0.0123  0.3718 -0.1033
 1973W        W 2970   3.966   4.667   0.553  0.3348 -0.3084  0.2609
 1974W        W 2971   2.998   2.817   5.319 -0.2790  0.1383  0.0083
 1975W        W 2972   1.957   5.357   6.628 -0.1832 -0.3071  0.0457
 1976W        W 2973   5.942   2.328   3.761 -0.1508 -0.2524 -0.0238
 1977W        W 2974   3.110   5.781   2.984 -0.0821  0.1548 -0.1625
 1978W        W 2975   3.777   0.691   3.925 -0.0749  0.1833 -0.2048
 1979W        W 2976   7.413   2.653   1.255  0.0180  0.0176 -0.1021
 1980W        W 2977   3.470   7.457   2.953  0.0619  0.0323  0.1887
 1981W        W 2978   3.575   5.883   0.280 -0.1175  0.2344  0.2627
 1982W        W 2979   7.547   6.032   0.975 -0.0825  0.0841  0.3315
 1983W        W 2980   3.357   2.294   3.088 -0.1525 -0.1035 -0.3456
 1984W        W 2981   4.012   6.333   7.172  0.1258  0.1092 -0.1869
 1985W        W 2982   7.350   6.765   7.469 -0.3681 -0.1960 -0.1047
 1986W        W 2983   4.026   7.440   2.926 -0.1776  0.1993  0.0883
 1987W        W 2984   6.996   2.631   4.321 -0.2331  0.2300 -0.2415
 1988W        W 2985   3.270   4.347   3.854  0.0216 -0.0405  0.4002
 1989W        W 2986   4.945   4.828   1.519  0.4199 -0.2838  0.0123
 1990W        W 2987   6.385   7.309   1.260  0.1034 -0.2427  0.0189
 1991W        W 2988   0.496   5.886   1.447 -0.2948 -0.1859  0.2145
 1992W        W 2989   5.785   1.192   0.288  0.1072 -0.1422 -0.4088
 1993W        W 2990   4.189   1.436   4.013 -0.1722 -0.1547 -0.0762
 1994W        W 2991   6.493   3.435   3.181  0.0013  0.0459 -0.1208
 1995W        W 2992   2.189   6.136   5.639 -0.0319  0.0287  0.1628
 1996W        W 2993   4.100   3.313   4.748  0.2206 -0.0832  0.2754
 1997W        W 2994   5.674   0.390   2.626 -0.2843  0.2861 -0.0045
 1998W        W 2995   4.246   0.407   6.634 -0.2221 -0.2242  0.1729
 1999W        W 2996   4.216   4.213   6.276 -0.1356 -0.2795  0.1448
 2000W        W 2997   6.215   3.768   2.935 -0.1361  0.2102 -0.3168
 2001W        W 2998   1.494   3.407   5.726 -0.1555  0.0616  0.1690
 2002W        W 2999   2.408   3.029   4.776  0.0901  0.2643  0.1644
 2003W        W 3000   4.159   3.522   5.548 -0.0122  0.1600 -0.3124
 2004W        W 3001   6.285   2.343   1.918  0.0928  0.0730 -0.1785
 2005W        W 3002   4.158   6.372   5.184  0.0670 -0.0150  0.1745
 2006W        W 3003   1.260   3.346   2.086 -0.0261  0.0465 -0.3708
 2007W        W 3004   4.844   1.038   7.208  0.2629 -0.1113 -0.0573
 2008W        W 3005   6.859   1.854   1.020 -0.3171  0.0386  0.1471
 2009W        W 3006   3.343   5.840   6.155  0.0812  0.0850 -0.0852
 2010W        W 3007   3.166   2.802   3.382 -0.0255 -0.2119 -0.0919
 2011W        W 3008   4.006   4.408   3.453  0.2585 -0.2445 -0.0642
 2012W        W 3009   3.723   7.348   2.496  0.0390  0.0184 -0.2580
 2013W        W 3010   6.888   5.362   1.907 -0.1329 -0.0801 -0.0061
 2014W        W 3011   1.340   7.404   2.760  0.0807  0.0131  0.1957
 2015W        W 3012   6.067   6.263   7.388  0.1588 -0.2097 -0.0032
 2016W        W 3013   2.901   2.348   2.155  0.3326 -0.0838  0.1530
 2017W        W 3014   5.182   0.015   6.448  0.0609  0.0687  0.2299
 2018W        W 3015   4.146   5.090   2.318  0.0973  0.1336  0.1278
 2019W        W 3016   4.835   2.133   4.920 -0.2682  0.3906 -0.1572
 2020W        W 3017   5.255   5.055   3.594 -0.3402  0.1003 -0.0178
 2021W        W 3018   6.768   3.163   2.803  0.0836 -0.3652 -0.4925
 2022W        W 3019   2.340   0.994   4.914 -0.0422 -0.3284 -0.3240
 2023W        W 3020   5.281   5.195   1.781 -0.0260  0.0899  0.1602
 2024W        W 3021   7.222   2.230   2.190 -0.2033 -0.1007  0.1503
 2025W        W 3022   4.662   2.065   3.109 -0.0870  0.0639  0.2432
 2026W        W 3023   3.567   3.848   0.852 -0.1289 -0.1447 -0.0492
 2027W        W 3024   1.992   0.483   6.782  0.2067  0.1432 -0.3539
 2028W        W 3025   2.117   7.338   1.056 -0.0005 -0.0911  0.3803
 2029W        W 3026   3.130   4.879   6.552  0.1464  0.1563 -0.0679
 2030W        W 3027   2.774   2.413   5.599  0.2664  0.0233  0.0861
 2031W        W 3028   3.183   1.848   3.203  0.0284 -0.0560 -0.1083
 2032W        W 3029   3.961   4.035   4.596  0.0102 -0.0809  0.0607
 2033W        W 3030   1.306   0.120   1.337 -0.1555 -0.0374 -0.0587
 2034W        W 3031   7.167   0.247   1.738 -0.1789 -0.0383  0.0585
 2035W        W 3032   5.762   4.793   3.740  0.2073 -0.2317 -0.0472
 2036W        W 3033   4.571   3.208   0.691 -0.1209 -0.1688  0.0252
 2037W        W 3034   4.514   6.814   1.918  0.0104  0.2720  0.3218
 2038W        W 3035   5.967   1.298   2.805  0.1185 -0.1596 -0.1158
 2039W        W 3036   2.937   2.586   0.669 -0.0004 -0.0485  0.2090
 2040W        W 3037   7.561   2.660   6.025 -0.0019 -0.1523  0.1231
 2041W        W 3038   2.221   7.011   1.749  0.0547  0.1944  0.0935
 2042W        W 3039   6.191   1.418   6.656 -0.1829 -0.0010  0.0996
 2043W        W 3040   1.541   1.187   2.683  0.1696 -0.1212 -0.0644
 2044W        W 3041   2.968   7.236   0.971 -0.1047 -0.2192 -0.0990
 2045W        W 3042   2.515   5.275   5.423  0.0557  0.0205 -0.2931
 2046W        W 3043   5.076   0.616   7.163  0.0343 -0.2731  0.0641
 2047W        W 3044   2.045   2.387   5.041 -0.5547 -0.2470 -0.0130
 2048W        W 3045   0.089   7.566   0.065 -0.1298  0.0905 -0.3639
 2049W        W 3046   4.555   0.676   0.243 -0.3628 -0.1393  0.1588
 2050W        W 3047   0.217   3.055   5.863  0.1438 -0.1556  0.2403
 2051W        W 3048   0.339   0.248   6.892 -0.0941  0.2361 -0.0250
 2052W        W 3049   3.459   0.131   4.793  0.0926 -0.1411 -0.0679
 2053W        W 3050   5.533   4.664   0.984 -0.0801  0.1463  0.1132
 2054W        W 3051   2.477   5.291   1.719 -0.0801  0.1964  0.0596
 2055W        W 3052   2.197   6.120   0.623 -0.0866  0.1540 -0.0723
 2056W        W 3053   7.009   2.511   3.767 -0.2014 -0.0088  0.1207
 2057W        W 3054   1.020   2.831   4.038 -0.1347 -0.0220 -0.0566
 2058W        W 3055   5.940   4.004   1.459 -0.0967  0.0101  0.2166
 2059W        W 3056   4.155   6.048   6.757  0.1219 -0.0637  0.0287
 2060W        W 3057   0.607   7.534   3.205 -0.1891  0.0608 -0.0836
 2061W        W 3058   7.146   0.128   0.733 -0.2333  0.2335 -0.2053
 2062W        W 3059   2.657   6.277   1.346 -0.0232  0.2952 -0.1082
 2063W        W 3060   6.397   7.334   7.380  0.0186 -0.0073  0.3083
 2064W        W 3061   6.832   0.931   3.448  0.1753 -0.1364  0.4514
 2065W        W 3062   4.686   2.067   5.851  0.1402  0.0898 -0.1471
 2066W        W 3063   4.455   5.287   0.430  0.3481 -0.1499  0.0832
 2067W        W 3064   4.506   4.121   2.586 -0.0166  0.0316 -0.0002
 2068W        W 3065   1.880   5.236   1.199 -0.1891 -0.0180 -0.2288
 2069W        W 3066   5.550   4.442   0.060  0.2928 -0.0557 -0.0463
 2070W        W 3067   3.343   1.013   5.569 -0.1976  0.3009 -0.1940
 2071W        W 3068   6.536   3.393   4.135  0.3027  0.0326 -0.4058
 2072W        W 3069   1.638   4.849   3.116 -0.1801 -0.0828  0.0971
 2073W        W 3070   3.736   1.713   3.183  0.1200 -0.1698 -0.0908
 2074W        W 3071   3.476   0.852   6.991 -0.1287  0.4137  0.0751
 2075W        W 3072   3.765   3.960   2.723  0.1294  0.1673  0.2451
 2076W        W 3073   5.238   0.136   5.114  0.2571  0.2450  0.2556
 2077W        W 3074   5.311   2.417   0.567  0.1578 -0.0858  0.1678
 2078W        W 3075   6.479   0.116   4.378 -0.2529 -0.1878  0.0035
 2079W        W 3076   7.383   6.593   2.750 -0.0023 -0.1890  0.2327
 2080W        W 3077   5.233   0.297   2.468  0.3523 -0.1898  0.1125
 2081W        W 3078   2.627   7.193   3.873 -0.0290 -0.1584 -0.1297
 2082W        W 3079   3.354   5.419   2.820  0.2216  0.0688  0.2067
 2083W        W 3080   5.821   3.822   3.206 -0.0493 -0.1656  0.0215
 2084W        W 3081   6.473   3.834   2.442 -0.0045  0.0318 -0.1336
 2085W        W 3082   7.337   5.184   2.013 -0.2714  0.3303 -0.1353
 2086W        W 3083   5.837   5.335   3.425 -0.0451 -0.2637  0.2039
 2087W        W 3084   0.682   2.875   6.116 -0.0344 -0.0725  0.2408
 2088W        W 3085   7.185   5.350   6.980 -0.0407 -0.0065  0.1218
 2089W        W 3086   0.618   1.009   5.865  0.1516  0.1218 -0.0782
 2090W        W 3087   4.697   4.608   0.004 -0.3964 -0.0866  0.1886
 2091W        W 3088   6.912   2.022   4.938  0.2488 -0.2682  0.0092
 2092W        W 3089   4.438   4.928   0.911  0.0417  0.1486  0.2792
 2093W        W 3090   1.785   4.133   6.481 -0.0376 -0.3556 -0.2113
 2094W        W 3091   3.664   3.546   6.230 -0.0172  0.0807  0.1354
 2095W        W 3092   3.037   7.399   4.560 -0.1944 -0.3000  0.3449
 2096W        W 3093   2.307   3.471   2.973  0.5508  0.2321 -0.1790
 2097W        W 3094   5.707   0.047   0.771 -0.0032  0.1107  0.2319
 2098W        W 3095   3.176   1.627   5.865 -0.2084  0.1815  0.1141
 2099W        W 3096   4.333   5.237   5.915 -0.2536  0.2142 -0.3063
 2100W        W 3097   3.779   6.433   4.705 -0.0533  0.2901 -0.0849
 2101W        W 3098   0.309   3.400   1.284  0.1861 -0.1887 -0.0751
 2102W        W 3099   2.367   7.236   2.666 -0.4029 -0.3470  0.2256
 2103W        W 3100   4.967   3.908   4.264 -0.1033  0.1619 -0.0919
 2104W        W 3101   1.222   0.588   1.637  0.0838 -0.0333 -0.1281
 2105W        W 3102   4.441   3.007   7.346  0.1378 -0.1047  0.1764
 2106W        W 3103   1.435   5.575   3.211  0.5920 -0.1791 -0.0657
 2107W        W 3104   1.761   3.035   3.717 -0.0263  0.0339  0.0684
 2108W        W 3105   6.630   0.008   0.530  0.0305 -0.1214  0.0072
 2109W        W 3106   7.606   6.652   6.197  0.0442  0.1025 -0.1759
 2110W        W 3107   4.575   5.091   7.630 -0.1056  0.2638  0.0010
 2111W        W 3108   2.489   2.645   5.208 -0.0373  0.1128  0.0350
 2112W        W 3109   2.566   6.881   6.566 -0.1182 -0.0922  0.0704
 2113W        W 3110   4.037   0.612   6.217 -0.0311  0.3620 -0.2492
 2114W        W 3111   2.736   6.001   3.254  0.0752  0.0571 -0.3281
 2115W        W 3112   0.797   3.172   6.540 -0.1679 -0.2006  0.2680
 2116W        W 3113   1.979   4.123   2.187  0.1366 -0.2195  0.0804
 2117W        W 3114   1.146   7.056   0.819 -0.0327  0.1344  0.0965
 2118W        W 3115   3.336   2.659   3.825  0.0390  0.1537 -0.1295
 2119W        W 3116   3.077   5.494   5.546  0.1173  0.0680 -0.1960
 2120W        W 3117   5.771   2.455   1.811 -0.1351  0.3280  0.0030
 2121W        W 3118   0.461   1.600   4.081  0.1576 -0.3614 -0.0070
 2122W        W 3119   2.834   2.020   6.728 -0.1499  0.2318  0.1111
 2123W        W 3120   4.452   4.007   5.461  0.2019  0.1184  0.0656
 2124W        W 3121   5.279   1.863   7.391  0.1133 -0.0897 -0.1337
 2125W        W 3122   6.154   0.125   2.625 -0.0133 -0.0580  0.1031
 2126W        W 3123   1.081   0.771   3.274  0.1278 -0.2469 -0.1945
 2127W        W 3124   0.976   4.296   7.209 -0.1915  0.2075 -0.2217
 2128W        W 3125   0.874   2.741   7.575  0.1946  0.1934  0.1256
 2129W        W 3126   0.305   3.904   2.659  0.0496  0.0885 -0.3338
 2130W        W 3127   3.082   6.323   5.704  0.2850  0.3029  0.2634
 2131W        W 3128   5.985   6.350   3.681  0.0551  0.2914  0.4554
 2132W        W 3129   1.989   1.140   4.416 -0.1182 -0.0785  0.0580
 2133W        W 3130   2.035   4.413   6.909  0.0210 -0.1948 -0.1080
 2134W        W 3131   2.273   6.616   0.585 -0.0773 -0.0805 -0.0771
 2135W        W 3132   0.097   1.777   4.835  0.0460 -0.2009  0.2879
 2136W        W 3133   2.404   4.970   2.518 -0.0188  0.1109 -0.2506
 2137W        W 3134   6.074   3.821   7.273  0.0440 -0.0420 -0.0808
 2138W        W 3135   0.780   2.592   5.722  0.0576 -0.2677 -0.0730
 2139W        W 3136   5.955   2.637   2.265 -0.1828  0.0816  0.0480
 2140W        W 3137   1.404   5.091   7.406  0.2648  0.2843  0.1369
 2141W        W 3138   5.143   7.110   1.207  0.3165 -0.1657  0.1985
 2142W        W 3139   4.469   4.349   5.846 -0.1278  0.1430  0.0379
 2143W        W 3140   2.997   4.503   5.647 -0.1169  0.2273 -0.1291
 2144W        W 3141   4.666   1.112   1.366 -0.0584 -0.4388  0.0205
 2145W        W 3142   1.427   0.195   2.038 -0.0870  0.0404  0.1169
 2146W        W 3143   4.848   3.854   3.139  0.1911  0.1806  0.0470
 2147W        W 3144   6.888   1.976   3.717 -0.2891  0.1904 -0.1557
 2148W        W 3145   2.086   5.772   1.945 -0.0235 -0.3921  0.0117
 2149W        W 3146   4.430   6.122   3.907  0.0448 -0.4475  0.2195
 2150W        W 3147   1.813   2.613   3.188  0.1306 -0.0148 -0.1689
 2151W        W 3148   2.574   5.345   0.567 -0.1657  0.0546 -0.0587
 2152W        W 3149   4.808   5.980   7.533 -0.0092  0.1081  0.0450
 2153W        W 3150   6.386   0.712   3.494 -0.0283  0.0423 -0.1734
 2154W        W 3151   4.640   6.749   2.866 -0.0107 -0.0127  0.1639
 2155W        W 3152   4.994   3.946   3.627 -0.1020 -0.1445 -0.1780
 2156W        W 3153   1.764   1.112   3.626  0.0313  0.2105  0.1557
 2157W        W 3154   4.026   6.530   6.046 -0.2331 -0.0475  0.1999
 2158W        W 3155   0.167   3.774   7.544 -0.2008 -0.0632  0.2593
 2159W        W 3156   5.032   5.300   2.645 -0.0924 -0.1801 -0.1681
 2160W        W 3157   2.369   2.737   6.853 -0.1929  0.1144 -0.3636
 2161W        W 3158   7.306   7.410   1.228 -0.2372  0.1124 -0.1867
 2162W        W 3159   4.983   3.314   3.010  0.0453 -0.4099  0.2178
 2163W        W 3160   0.865   3.177   2.357  0.1060  0.1284  0.2044
 2164W        W 3161   0.458   7.450   5.887  0.2551  0.1712  0.2473
 2165W        W 3162   4.437   4.254   0.272 -0.3666 -0.1223 -0.0458
 2166W        W 3163   5.616   0.126   6.154 -0.0376  0.0719 -0.1669
 2167W        W 3164   0.681   3.923   6.697  0.1565  0.0731  0.2875
 2168W        W 3165   0.546   5.441   1.234 -0.1224 -0.2072  0.1838
 2169W        W 3166   4.004   3.399   3.434 -0.1503  0.2684  0.1996
 2170W        W 3167   6.346   5.319   2.017  0.3550  0.2094  0.1498
 2171W        W 3168   3.269   5.033   7.509 -0.0115  0.0323 -0.1410
 2172W        W 3169   0.966   7.140   6.962  0.0012  0.1546  0.0816
 2173W        W 3170   7.617   2.178   5.892  0.2727 -0.1868  0.1646
 2174W        W 3171   7.146   4.183   7.106 -0.0561 -0.1461  0.0374
 2175W        W 3172   1.473   6.877   0.007 -0.2751  0.3337  0.0357
 2176W        W 3173   2.610   6.216   5.312 -0.0308 -0.0434 -0.0907
 2177W        W 3174   4.876   7.217   2.531 -0.2166 -0.0345  0.0982
 2178W        W 3175   4.163   3.686   2.522 -0.2135  0.2833 -0.0178
 2179W        W 3176   5.998   7.158   0.878 -0.3789 -0.0419  0.0098
 2180W        W 3177   4.491   7.130   4.100 -0.2796  0.0057  0.1370
 2181W        W 3178   2.328   4.570   0.645 -0.1100 -0.1781 -0.1809
 2182W        W 3179   7.490   1.646   5.936 -0.1031  0.0104  0.0163
 2183W        W 3180   7.500   1.679   1.176  0.1293 -0.2959 -0.0985
 2184W        W 3181   5.492   0.268   2.019  0.1967  0.4899 -0.0034
 2185W        W 3182   5.974   5.909   4.706  0.2567 -0.0740  0.0816
 2186W        W 3183   0.083   2.372   2.815  0.0947  0.1430 -0.2701
 2187W        W 3184   2.484   2.850   0.584  0.1793  0.0836 -0.0009
 2188W        W 3185   1.534   3.269   4.900  0.0414  0.3907  0.1220
 2189W        W 3186   0.156   5.504   1.940  0.2065 -0.0022 -0.1223
 2190W        W 3187   2.541   3.421   2.383 -0.0209  0.0313  0.0209
 2191W        W 3188   2.296   6.012   3.478  0.2110 -0.1939 -0.1245
 2192W        W 3189   0.251   3.227   3.222 -0.1361 -0.0605  0.0847
 2193W        W 3190   3.442   1.897   1.284 -0.2816 -0.1766  0.3033
 2194W        W 3191   3.821   1.601   2.693  0.0710 -0.0066  0.1294
 2195W        W 3192   1.090   2.471   4.413  0.0667 -0.0101 -0.1876
 2196W        W 3193   4.802   6.856   6.967  0.1174  0.1826 -0.3924
 2197W        W 3194   0.194   7.186   3.069 -0.2601  0.0885 -0.2598
 2198W        W 3195   2.854   7.124   5.816 -0.1552  0.1195  0.0605
 2199W        W 3196   3.623   4.017   3.727 -0.0598  0.1795  0.3946
 2200W        W 3197   5.852   7.284   4.262 -0.1721  0.1075  0.0216
 2201W        W 3198   7.456   7.342   6.339 -0.1360  0.2846  0.0939
 2202W        W 3199   1.878   6.532   0.269 -0.0196 -0.0152  0.1282
 2203W        W 3200   4.700   1.586   5.809  0.0398 -0.1421  0.0510
 2204W        W 3201   4.282   3.247   5.916 -0.1873 -0.0094 -0.1203
 2205W        W 3202   6.243   0.948   0.256 -0.0618 -0.0560 -0.3369
 2206W        W 3203   1.518   6.420   2.449 -0.1406  0.0083 -0.0599
 2207W        W 3204   4.402   7.132   3.609  0.3933 -0.0238 -0.1709
 2208W        W 3205   2.360   2.753   2.937 -0.0577  0.2863 -0.2083
 2209W        W 3206   1.958   7.124   6.040  0.0233  0.0971 -0.0780
 2210W        W 3207   1.240   0.034   6.612  0.1742  0.0434 -0.1460
 2211W        W 3208   4.202   4.471   4.540 -0.1767  0.0392 -0.0723
 2212W        W 3209   5.532   6.536   4.854 -0.1334 -0.0072  0.1868
 2213W        W 3210   5.460   0.909   1.322  0.3777 -0.1218 -0.0982
 2214W        W 3211   6.319   4.357   1.433  0.0675  0.1881 -0.4616
 2215W        W 3212   0.432   5.146   2.229 -0.1328 -0.2195 -0.0059
 2216W        W 3213   5.684   1.601   7.629  0.2146  0.0369 -0.0418
 2217W        W 3214   1.114   3.789   2.315 -0.3256 -0.2340 -0.0773
 2218W        W 3215   2.640   3.321   0.375  0.0384  0.0048 -0.0502
 2219W        W 3216   3.983   7.209   7.112 -0.2803  0.3447 -0.0234
 2220W        W 3217   6.325   3.784   6.071  0.1257 -0.2560  0.0506
 2221W        W 3218   5.133   6.709   6.027  0.0986 -0.0516  0.3025
 2222W        W 3219   1.526   3.645   6.152 -0.4045 -0.1290 -0.0428
 2223W        W 3220   1.470   2.561   6.889  0.2183  0.2596 -0.1907
 2224W        W 3221   0.863   7.482   0.565  0.0179 -0.1133 -0.0930
 2225W        W 3222   4.936   3.147   7.560  0.1130  0.0848 -0.2081
 2226W        W 3223   7.359   0.147   2.212  0.0630 -0.0592 -0.1470
 2227W        W 3224   7.041   1.388   7.325  0.0753  0.1806 -0.0501
 2228W        W 3225   4.833   7.417   3.369 -0.1475 -0.2593  0.0155
 2229W        W 3226   7.459   3.424   5.502  0.0611 -0.1312  0.3798
 2230W        W 3227   3.789   1.577   0.947 -0.0106 -0.2032  0.0873
 2231W        W 3228   6.883   2.118   0.459 -0.2943  0.0596  0.0125
 2232W        W 3229   2.779   6.964   0.567 -0.0864  0.3465 -0.0167
 2233W        W 3230   6.694   1.366   0.096  0.1160 -0.0512  0.2295
 2234W        W 3231   3.581   6.421   1.561 -0.1365 -0.2547  0.0889
 2235W        W 3232   6.232   6.784   6.912  0.3621  0.1527 -0.0765
 2236W        W 3233   3.566   7.537   6.810  0.1399 -0.1533  0.0200
 2237W        W 3234   0.481   5.452   2.671 -0.0090 -0.0506 -0.1392
 2238W        W 3235   6.070   1.540   7.137 -0.1675  0.2167  0.1073
 2239W        W 3236   1.549   0.182   7.655  0.2067  0.2743 -0.1897
 2240W        W 3237   1.773   3.798   7.146 -0.0520  0.0052 -0.0739
 2241W        W 3238   6.616   7.365   6.089 -0.2993 -0.0863  0.0951
 2242W        W 3239   6.968   0.568   0.815 -0.1390 -0.0993 -0.1086
 2243W        W 3240   4.289   0.904   7.498  0.3122  0.0909  0.1057
 2244W        W 3241   0.278   7.607   4.032 -0.1285 -0.0739 -0.1383
 2245W        W 3242   7.502   3.905   1.180 -0.5286  0.0649  0.1406
 2246W        W 3243   2.789   6.176   3.969 -0.1370  0.2393 -0.1120
 2247W        W 3244   5.600   2.604   4.466  0.1314  0.1458 -0.0279
 2248W        W 3245   4.791   6.806   5.511 -0.0495 -0.3052  0.1429
 2249W        W 3246   6.879   0.852   7.026 -0.4244 -0.0298 -0.0636
 2250W        W 3247   2.592   2.322   7.590  0.1586  0.1287  0.1167
 2251W        W 3248   2.931   7.428   0.480  0.0054  0.0378  0.0389
 2252W        W 3249   0.963   5.602   2.762  0.0354  0.0515  0.4077
 2253W        W 3250   4.031   6.793   3.963  0.0894 -0.0326  0.1246
 2254W        W 3251   5.880   1.868   3.874  0.4202  0.0736 -0.0314
 2255W        W 3252   5.851   1.605   2.388 -0.2751 -0.3478  0.1527
 2256W        W 3253   4.464   4.217   2.071 -0.2765 -0.0367 -0.0189
 2257W        W 3254   5.816   1.696   1.538  0.1262 -0.0504 -0.0168
 2258W        W 3255   5.843   1.219   3.300  0.0126 -0.1314 -0.0476
 2259W        W 3256   3.259   3.980   2.629 -0.1488  0.1117  0.3363
 2260W        W 3257   2.942   7.637   1.387  0.2516 -0.0896 -0.2169
 2261W        W 3258   6.544   2.633   3.559  0.0824  0.1429 -0.0547
 2262W        W 3259   2.253   0.788   4.033  0.3164  0.2073  0.1543
 2263W        W 3260   1.365   5.276   2.821  0.1781  0.0280 -0.1395
 2264W        W 3261   3.106   3.218   2.604 -0.0769 -0.0056  0.0913
 2265W        W 3262   6.868   5.811   0.049  0.2683 -0.0979 -0.0153
 2266W        W 3263   3.215   3.493   4.657 -0.1964 -0.1162 -0.2339
 2267W        W 3264   7.163   7.052   0.135  0.0782 -0.3862  0.1222
 2268W        W 3265   5.645   3.564   1.442  0.3150 -0.2115 -0.1125
 2269W        W 3266   7.073   5.911   0.998  0.1832 -0.1464 -0.1739
 2270W        W 3267   1.066   6.145   6.402 -0.3868  0.2722 -0.1329
 2271W        W 3268   3.613   2.198   1.678 -0.1850  0.1401 -0.6905
 2272W        W 3269   5.718   6.732   7.013  0.1172 -0.1820 -0.0106
 2273W        W 3270   2.281   4.882   7.506  0.0216 -0.0379 -0.0170
 2274W        W 3271   6.318   6.354   4.244  0.1127 -0.0688 -0.0355
 2275W        W 3272   5.278   0.524   6.674  0.1768  0.0584  0.0895
 2276W        W 3273   5.580   3.423   0.633 -0.0656 -0.1792  0.5102
 2277W        W 3274   5.165   5.674   1.619  0.0226  0.0892 -0.0755
 2278W        W 3275   6.217   2.007   7.084  0.1595 -0.4286 -0.0099
 2279W        W 3276   3.471   0.647   1.988 -0.3968  0.0208 -0.1714
 2280W        W 3277   6.905   2.334   7.654  0.1731  0.0152 -0.1762
 2281W        W 3278   2.710   4.061   2.618  0.2369  0.1417  0.0366
 2282W        W 3279   5.088   1.336   1.525  0.0671  0.0196 -0.0835
 2283W        W 3280   6.912   7.097   7.326  0.2570  0.3468 -0.2452
 2284W        W 3281   0.771   0.051   2.306  0.2075  0.0509  0.3297
 2285W        W 3282   5.276   0.475   4.716 -0.0172  0.1695 -0.2499
 2286W        W 3283   2.352   5.916   2.922  0.1075 -0.1665  0.2323
 2287W        W 3284   1.734   1.765   6.036 -0.0168  0.1147  0.0745
 2288W        W 3285   3.851   3.465   6.664 -0.0425  0.0441 -0.0412
 2289W        W 3286   5.827   4.336   3.958 -0.3907  0.1127  0.0085
 2290W        W 3287   3.531   2.062   4.642  0.2632 -0.1843 -0.0596
 2291W        W 3288   5.367   1.877   3.777  0.2296  0.0049 -0.0879
 2292W        W 3289   0.039   7.026   4.053 -0.0672 -0.0366  0.0416
 2293W        W 3290   4.624   2.660   3.313  0.0935  0.1513 -0.0403
 2294W        W 3291   5.822   6.629   2.283 -0.0975  0.3162 -0.0335
 2295W        W 3292   2.298   7.073   0.460  0.2832  0.0619  0.4036
 2296W        W 3293   4.058   6.313   4.240  0.1148  0.0526 -0.0147
 2297W        W 3294   3.052   1.749   3.722 -0.2799  0.1363  0.2069
 2298W        W 3295   4.313   2.322   5.646  0.0376  0.0760  0.0558
 2299W        W 3296   1.589   2.695   5.886  0.0927 -0.0427 -0.0338
 2300W        W 3297   0.080   7.647   1.842  0.0725 -0.3066 -0.0878
 2301W        W 3298   6.050   5.520   0.678  0.3534  0.0351  0.0385
 2302W        W 3299   3.884   0.578   4.866 -0.2434  0.3413 -0.0261
 2303W        W 3300   4.046   1.459   6.682  0.3085 -0.2557 -0.1644
 2304W        W 3301   4.168   3.877   3.582  0.0917  0.5374  0.2467
 2305W        W 3302   6.964   2.893   6.846 -0.0114 -0.2288  0.1677
 2306W        W 3303   3.567   5.469   5.939  0.0669  0.0864  0.1276
 2307W        W 3304   2.431   0.104   1.120  0.0128 -0.1858 -0.0145
 2308W        W 3305   5.419   2.047   6.497 -0.1322  0.0156  0.4664
 2309W        W 3306   2.033   4.053   0.926 -0.0550 -0.3272 -0.3675
 2310W        W 3307   4.503   5.874   4.320 -0.4221  0.0304 -0.4054
 2311W        W 3308   0.574   2.738   6.634 -0.0600  0.0482  0.2884
 2312W        W 3309   6.927   5.521   1.340  0.0099  0.0031  0.2547
 2313W        W 3310   1.802   7.229   3.869 -0.2411 -0.1234 -0.1116
 2314W        W 3311   2.250   0.127   2.786  0.0197  0.1984  0.0161
 2315W        W 3312   1.050   2.812   5.379  0.1928  0.0899  0.3444
 2316W        W 3313   3.730   6.620   2.773  0.0357 -0.1652 -0.0126
 2317W        W 3314   1.811   1.840   4.265 -0.0859  0.3382 -0.2166
 2318W        W 3315   1.648   3.096   7.056 -0.3141 -0.2190  0.1428
 2319W        W 3316   1.665   4.109   0.196  0.0009  0.1705  0.0287
 2320W        W 3317   6.842   1.837   2.861 -0.0017 -0.0236  0.1739
 2321W        W 3318   0.387   2.438   6.044  0.3846  0.0868  0.0073
 2322W        W 3319   3.503   1.869   5.583 -0.2410  0.0806  0.0640
 2323W        W 3320   0.505   6.761   1.284  0.2335 -0.0298 -0.1388
 2324W        W 3321   2.562   3.730   0.593  0.0792 -0.0871 -0.0113
 2325W        W 3322   0.057   2.074   7.533  0.1223  0.1148  0.0374
 2326W        W 3323   1.259   0.069   3.221  0.1276  0.0162  0.2151
 2327W        W 3324   7.490   7.251   1.685 -0.1259 -0.1681  0.2412
 2328W        W 3325   4.002   1.873   5.759 -0.1063  0.1744 -0.1294
 2329W        W 3326   2.761   3.051   6.468 -0.1729  0.2707  0.0421
 2330W        W 3327   6.139   2.416   5.255 -0.2260 -0.3353  0.0917
 2331W        W 3328   5.614   2.002   5.645  0.0139  0.0108 -0.1854
 2332W        W 3329   1.145   5.671   0.593 -0.1045 -0.2296 -0.3061
 2333W        W 3330   2.617   6.683   3.917 -0.1931 -0.0818  0.1629
 2334W        W 3331   4.858   5.786   1.030 -0.0402 -0.2814 -0.3088
 2335W        W 3332   1.180   2.487   4.971  0.1930  0.1304  0.2090
 2336W        W 3333   6.408   2.892   6.195  0.1436 -0.2157  0.1089
 2337W        W 3334   6.477   1.878   5.785 -0.0699  0.0508 -0.2061
 2338W        W 3335   4.305   1.529   1.312  0.0665  0.1623  0.1491
 2339W        W 3336   4.497   7.600   7.396  0.1057 -0.0254 -0.0006
 2340W        W 3337   7.578   3.849   1.724 -0.2729  0.0095  0.1138
 2341W        W 3338   3.399   7.020   2.648  0.0833 -0.0702  0.1030
 2342W        W 3339   4.007   1.954   4.780  0.3873  0.1111  0.1155
 2343W        W 3340   7.424   0.463   7.089  0.3535 -0.1906 -0.1324
 2344W        W 3341   4.597   4.215   4.365  0.1220  0.0583  0.0070
 2345W        W 3342   5.191   6.686   0.420  0.0246 -0.3108 -0.4628
 2346W        W 3343   0.033   6.511   0.904 -0.0475  0.2269  0.2389
 2347W        W 3344   0.103   5.929   7.497  0.0210  0.2072  0.0594
 2348W        W 3345   4.523   0.060   2.908 -0.1164  0.0906  0.4070
 2349W        W 3346   0.683   3.082   7.087 -0.2029 -0.1421 -0.1927
 2350W        W 3347   4.291   2.031   2.238  0.2859 -0.0386  0.1149
 2351W        W 3348   7.125   0.331   4.125  0.2735 -0.0620  0.2589
 2352W        W 3349   3.887   4.095   6.610 -0.0071 -0.3574  0.3327
 2353W        W 3350   5.239   3.671   4.977  0.2828  0.3528  0.0541
 2354W        W 3351   7.275   3.740   7.259 -0.0993 -0.1192 -0.2310
 2355W        W 3352   7.646   5.629   2.786  0.2441  0.0546 -0.0856
 2356W        W 3353   0.613   6.286   2.256 -0.2997  0.1074 -0.0598
 2357W        W 3354   6.254   7.098   0.205  0.3216 -0.0953  0.2112
 2358W        W 3355   3.482   1.537   0.482  0.3975 -0.2099  0.1389
 2359W        W 3356   5.065   4.948   4.044  0.0949  0.1155 -0.4139
 2360W        W 3357   1.503   0.469   6.734  0.3939  0.0361 -0.3347
 2361W        W 3358   5.124   2.708   6.144  0.1004 -0.3785  0.1379
 2362W        W 3359   4.399   0.108   0.987 -0.0284  0.2277 -0.0001
 2363W        W 3360   7.420   7.582   4.205  0.2324  0.0399 -0.3105
 2364W        W 3361   1.101   7.292   0.114 -0.1718  0.0164  0.1794
 2365W        W 3362   6.084   1.110   4.704  0.2377  0.0730 -0.2715
 2366W        W 3363   4.410   1.304   4.498 -0.0221  0.0518 -0.1306
 2367W        W 3364   4.939   1.814   3.541 -0.2888  0.0063 -0.2058
 2368W        W 3365   5.582   5.008   0.134  0.0760  0.1355 -0.2659
 2369W        W 3366   0.148   7.046   2.544  0.1077 -0.2361  0.0446
 2370W        W 3367   3.968   5.661   7.068 -0.0506  0.0193  0.0390
 2371W        W 3368   2.448   5.092   4.465 -0.0198  0.0039  0.3205
 2372W        W 3369   1.269   2.966   3.669  0.0953 -0.3877  0.2493
 2373W        W 3370   3.900   6.276   0.372 -0.0135  0.0529 -0.3750
 2374W        W 3371   4.065   1.480   2.232 -0.1292 -0.1272 -0.2452
 2375W        W 3372   5.579   0.812   3.262  0.2067 -0.0151  0.0182
 2376W        W 3373   3.674   1.361   5.407  0.2345 -0.0190 -0.1446
 2377W        W 3374   6.025   7.088   6.172 -0.1823  0.1295 -0.0113
 2378W        W 3375   3.303   3.637   1.386  0.1030  0.0235 -0.1144
 2379W        W 3376   2.655   3.803   5.244  0.0716 -0.2597 -0.1901
 2380W        W 3377   2.807   0.244   5.713  0.0006 -0.1017 -0.0317
 2381W        W 3378   3.314   2.652   1.895 -0.2046  0.1587 -0.1541
 2382W        W 3379   4.792   6.845   3.424 -0.0283  0.2956  0.2223
 2383W        W 3380   0.502   4.254   1.798 -0.0537  0.4920 -0.0584
 2384W        W 3381   2.677   0.234   0.512 -0.0952 -0.0670  0.1621
 2385W        W 3382   1.213   5.552   7.254 -0.0008  0.2169 -0.2011
 2386W        W 3383   5.353   6.625   2.038  0.0892 -0.0750  0.0131
 2387W        W 3384   2.949   1.833   0.983  0.0687 -0.2303 -0.1478
 2388W        W 3385   1.527   3.454   1.103 -0.0878 -0.0637  0.1931
 2389W        W 3386   4.388   3.526   3.072 -0.0057 -0.0015 -0.0437
 2390W        W 3387   5.230   5.538   4.556 -0.0360  0.1309  0.0512
 2391W        W 3388   1.277   4.160   0.611 -0.0975  0.3753  0.0085
 2392W        W 3389   5.259   2.889   2.765 -0.2738  0.1354 -0.3363
 2393W        W 3390   6.317   0.988   7.386 -0.0915  0.2134  0.1016
 2394W        W 3391   6.086   4.267   2.935  0.3706 -0.2536  0.1736
 2395W        W 3392   3.813   0.243   5.316 -0.2144 -0.1846  0.0982
 2396W        W 3393   3.398   5.298   1.920  0.0785 -0.1784 -0.1977
 2397W        W 3394   4.878   4.297   6.574  0.0435 -0.1966  0.0794
 2398W        W 3395   7.448   5.681   0.626  0.0114 -0.1413 -0.2963
 2399W        W 3396   3.480   5.261   5.426  0.0440 -0.1455 -0.2116
 2400W        W 3397   1.291   3.219   6.252 -0.0217 -0.0060  0.0234
 2401W        W 3398   6.762   6.222   2.391  0.0191 -0.1503 -0.1254
 2402W        W 3399   3.820   1.710   0.084  0.0092  0.1809  0.0762
 2403W        W 3400   0.674   7.320   6.410  0.2734  0.0036  0.2145
 2404W        W 3401   7.350   2.870   6.525  0.2439  0.0147  0.1612
 2405W        W 3402   3.630   3.072   3.361 -0.1211 -0.0304 -0.0702
 2406W        W 3403   2.275   6.224   1.691  0.0630 -0.1795  0.3354
 2407W        W 3404   2.553   6.451   6.025  0.0956  0.3440  0.0827
 2408W        W 3405   6.365   3.928   1.085  0.0298 -0.1972 -0.2840
 2409W        W 3406   1.923   6.238   6.094  0.1563 -0.2209 -0.0112
 2410W        W 3407   4.821   2.919   5.127 -0.0028  0.1856  0.2615
 2411W        W 3408   2.801   4.049   7.249  0.1597 -0.0180 -0.3007
 2412W        W 3409   5.816   6.734   1.013  0.0710  0.0293 -0.3909
 2413W        W 3410   3.916   7.156   7.609  0.2629 -0.1066 -0.0073
 2414W        W 3411   0.982   6.778   0.039 -0.2935  0.0969  0.3825
 2415W        W 3412   5.476   6.061   6.670  0.2002 -0.0338 -0.2332
 2416W        W 3413   2.159   6.564   5.317  0.2394  0.2501 -0.1523
 2417W        W 3414   7.317   1.685   2.790 -0.0285  0.0375  0.1881
 2418W        W 3415   1.440   7.033   3.556  0.3209 -0.0062  0.0764
 2419W        W 3416   4.258   2.848   2.812 -0.3176 -0.0699 -0.2242
 2420W        W 3417   1.366   1.178   3.267  0.1099 -0.0085  0.0429
 2421W        W 3418   2.035   1.873   5.157  0.2782  0.0746  0.0248
 2422W        W 3419   6.961   7.266   5.120  0.1919 -0.0250 -0.2608
 2423W        W 3420   6.902   5.562   3.082 -0.0110 -0.3384  0.0197
 2424W        W 3421   2.455   4.831   1.936 -0.0232 -0.1528 -0.1749
 2425W        W 3422   6.766   6.239   7.034  0.1206 -0.3036 -0.0591
 2426W        W 3423   7.178   0.314   7.505  0.0311 -0.0532  0.2165
 2427W        W 3424   3.065   2.192   4.729  0.0649  0.1344  0.1362
 2428W        W 3425   1.905   2.681   6.716 -0.0177  0.0152 -0.0011
 2429W        W 3426   4.236   0.234   0.494 -0.1456  0.0452 -0.3295
 2430W        W 3427   3.335   6.768   3.192 -0.2170 -0.1874  0.3488
 2431W        W 3428   2.550   2.835   7.349 -0.1389 -0.0810 -0.3188
 2432W        W 3429   3.242   6.084   4.209  0.0754  0.0818  0.1038
 2433W        W 3430   7.595   0.616   5.914  0.1988 -0.0617 -0.1894
 2434W        W 3431   3.578   4.958   0.840 -0.1319  0.0662  0.2871
 2435W        W 3432   4.633   1.065   5.733  0.0885  0.0921  0.1927
 2436W        W 3433   4.971   1.990   6.686 -0.2489 -0.1562 -0.0582
 2437W        W 3434   1.051   3.013   4.898 -0.1341 -0.0081 -0.3771
 2438W        W 3435   2.600   1.652   3.993  0.2594 -0.2087 -0.2219
 2439W        W 3436   2.771   6.201   2.805 -0.1891  0.0467  0.0527
 2440W        W 3437   4.648   6.243   6.044  0.2688 -0.1570 -0.0883
 2441W        W 3438   6.332   0.059   0.077 -0.0672  0.2194 -0.2035
 2442W        W 3439   4.096   5.113   0.033 -0.1730 -0.2054  0.3322
 2443W        W 3440   0.070   3.526   2.859 -0.0766 -0.2027 -0.2011
 2444W        W 3441   2.732   4.134   0.373 -0.2699 -0.0283 -0.0582
 2445W        W 3442   5.417   2.164   4.674  0.1277 -0.0447  0.1034
 2446W        W 3443   1.030   0.464   2.133 -0.1119  0.0594  0.0684
 2447W        W 3444   2.921   1.052   4.631  0.0323 -0.2150 -0.2554
 2448W        W 3445   4.196   7.370   1.160  0.3754  0.2673 -0.0732
 2449W        W 3446   2.259   3.357   5.712  0.3711  0.1747  0.1402
 2450W        W 3447   6.652   1.611   1.464  0.2291 -0.2438 -0.1359
 2451W        W 3448   7.397   0.832   2.468  0.3911  0.1393 -0.0855
 2452W        W 3449   6.870   6.635   7.337 -0.1813  0.0670 -0.0904
 2453W        W 3450   5.169   5.155   4.887 -0.0637 -0.2677  0.0849
 2454W        W 3451   3.308   2.481   4.395  0.1224 -0.1693  0.1538
 2455W        W 3452   5.082   3.434   4.345  0.1255  0.1981 -0.0023
 2456W        W 3453   5.515   0.935   6.529 -0.1214  0.0568  0.3035
 2457W        W 3454   6.890   7.422   4.352 -0.2889  0.0046 -0.1519
 2458W        W 3455   4.877   6.368   4.199 -0.2978 -0.1037 -0.1199
 2459W        W 3456   3.223   7.013   6.324  0.2550  0.3746 -0.1097
 2460W        W 3457   6.597   6.297   7.508 -0.3081  0.1091 -0.1727
 2461W        W 3458   7.175   4.937   2.399 -0.3786 -0.2090 -0.1947
 2462W        W 3459   3.844   0.312   5.865 -0.0685 -0.0920 -0.0682
 2463W        W 3460   7.086   1.102   2.193 -0.4895 -0.1763  0.2792
 2464W        W 3461   5.998   1.713   0.350  0.0115  0.1611 -0.2284
 2465W        W 3462   1.063   6.680   3.160  0.3740  0.0292 -0.1379
 2466W        W 3463   4.225   3.610   1.403 -0.0217 -0.0570 -0.1173
 2467W        W 3464   5.286   4.514   6.432  0.0606 -0.0235  0.0103
 2468W        W 3465   2.853   3.193   4.403 -0.0332  0.0434 -0.3518
 2469W        W 3466   3.283   0.852   2.887  0.2801  0.2410  0.1038
 2470W        W 3467   5.643   7.439   4.899  0.1408  0.4234  0.2680
 2471W        W 3468   5.483   4.311   2.287  0.1876 -0.1034 -0.0825
 2472W        W 3469   0.708   3.080   5.655 -0.0059 -0.2083 -0.0072
 2473W        W 3470   1.187   6.623   6.195  0.4361  0.1177 -0.0921
 2474W        W 3471   3.499   6.563   0.223  0.2463  0.1149  0.0277
 2475W        W 3472   1.386   5.808   0.148 -0.0946  0.2155  0.0838
 2476W        W 3473   1.074   6.481   2.189  0.0440  0.0514 -0.2628
 2477W        W 3474   6.613   1.764   3.319  0.0740  0.2183 -0.1329
 2478W        W 3475   2.361   5.604   6.875  0.1965  0.1941 -0.1115
 2479W        W 3476   7.549   6.172   0.453  0.1844 -0.2069 -0.1619
 2480W        W 3477   2.577   7.454   0.786 -0.0426  0.1469  0.3382
 2481W        W 3478   1.060   7.619   4.296  0.0539  0.1729  0.3286
 2482W        W 3479   4.289   1.905   2.820  0.1444 -0.0461  0.0596
 2483W        W 3480   3.999   2.305   4.405 -0.2754 -0.1922 -0.0257
 2484W        W 3481   3.411   5.863   1.926  0.2849  0.1097  0.1247
 2485W        W 3482   4.438   3.280   2.100  0.0651 -0.0520  0.1586
 2486W        W 3483   1.492   0.005   3.823  0.1436 -0.0188 -0.2010
 2487W        W 3484   2.826   5.744   4.202  0.0275  0.1271 -0.2001
 2488W        W 3485   3.533   3.409   7.104 -0.2047  0.0877 -0.2475
 2489W        W 3486   3.568   1.623   3.818  0.0741 -0.0904 -0.2953
 2490W        W 3487   3.290   6.708   4.573  0.1719 -0.2102 -0.0546
 2491W        W 3488   5.150   7.580   3.694 -0.1487  0.2716 -0.0783
 2492W        W 3489   7.057   3.564   1.589  0.0150 -0.1741 -0.2852
 2493W        W 3490   4.783   5.660   3.044  0.2815 -0.1805 -0.1079
 2494W        W 3491   0.452   1.079   3.951  0.2793  0.0021  0.0136
 2495W        W 3492   4.556   3.930   6.465 -0.0731  0.0699  0.0413
 2496W        W 3493   3.762   0.081   0.370 -0.2989  0.1945 -0.0101
 2497W        W 3494   3.812   0.633   2.737 -0.2314 -0.0138  0.3651
 2498W        W 3495   7.297   5.017   0.797 -0.3534 -0.3163 -0.0963
 2499W        W 3496   5.011   1.295   6.739  0.3042 -0.0553 -0.3485
 2500W        W 3497   3.237   7.339   5.485  0.2331  0.1539 -0.0408
 2501W        W 3498   0.178   1.084   2.343 -0.1864 -0.0873  0.3796
 2502W        W 3499   7.277   0.992   5.868 -0.2361  0.0597  0.0152
 2503W        W 3500   5.307   1.301   4.846  0.4408  0.0720 -0.0504
 2504W        W 3501   6.380   1.553   2.890 -0.0650 -0.2205 -0.1030
 2505W        W 3502   7.150   5.467   0.296 -0.1030  0.2438  0.1806
 2506W        W 3503   4.331   5.232   3.533 -0.1112 -0.0940  0.0086
 2507W        W 3504   2.408   3.418   6.144 -0.2186  0.2347  0.0944
 2508W        W 3505   5.140   4.201   3.258 -0.1785  0.2565  0.0474
 2509W        W 3506   4.668   6.506   5.145  0.3646  0.0590 -0.2148
 2510W        W 3507   2.598   3.332   7.515  0.1086  0.0332  0.3009
 2511W        W 3508   0.053   3.547   5.959  0.2401  0.0703 -0.1288
 2512W        W 3509   2.924   0.810   6.191 -0.0768 -0.3254 -0.4792
 2513W        W 3510   6.169   3.233   5.811  0.1868  0.3391 -0.1588
 2514W        W 3511   0.347   0.866   6.245 -0.1693 -0.2336 -0.0287
 2515W        W 3512   6.735   6.773   6.230  0.0014 -0.0176 -0.0171
 2516W        W 3513   6.299   3.395   0.907  0.0562 -0.4996  0.1992
 2517W        W 3514   1.082   1.358   4.717 -0.1155 -0.0504  0.1787
 2518W        W 3515   2.455   6.684   2.701  0.3160  0.1910  0.2287
 2519W        W 3516   2.576   5.791   1.600  0.1689 -0.1535 -0.0790
 2520W        W 3517   7.195   3.600   0.900 -0.1057  0.1719 -0.0290
 2521W        W 3518   2.275   6.715   6.994  0.3204 -0.1597  0.4755
 2522W        W 3519   0.210   5.752   2.381  0.0555  0.0564  0.3729
 2523W        W 3520   4.326   1.822   4.371  0.1524  0.0695 -0.0796
 2524W        W 3521   6.897   1.630   0.555  0.0194 -0.3086 -0.0880
 2525W        W 3522   4.693   1.772   1.392 -0.3962 -0.0454  0.0618
 2526W        W 3523   4.817   1.930   0.899  0.1241  0.3973  0.0909
 2527W        W 3524   1.889   4.304   7.414 -0.4016  0.0141  0.1953
 2528W        W 3525   6.514   6.436   3.312  0.0859 -0.1030  0.0955
 2529W        W 3526   2.139   0.225   5.431 -0.3094  0.2733 -0.2147
 2530W        W 3527   2.919   4.554   3.508  0.2168  0.1508  0.2232
 2531W        W 3528   0.860   4.662   1.070 -0.0419 -0.0331 -0.1046
 2532W        W 3529   3.795   6.961   4.910  0.0007  0.0736  0.0879
 2533W        W 3530   3.896   4.866   3.191  0.0447  0.1143 -0.1370
 2534W        W 3531   2.186   1.817   3.622 -0.0159 -0.0955 -0.0229
 2535W        W 3532   6.957   3.231   3.504  0.1325  0.0927  0.3381
 2536W        W 3533   6.703   1.488   6.427  0.1657  0.3178 -0.1100
 2537W        W 3534   2.204   6.955   4.947  0.1490 -0.0293 -0.1849
 2538W        W 3535   1.606   0.774   4.377 -0.0366  0.1038  0.0767
 2539W        W 3536   6.093   3.438   4.389 -0.0797 -0.0542  0.0658
 2540W        W 3537   6.191   3.258   0.026  0.1944 -0.2195  0.4326
 2541W        W 3538   0.219   4.350   2.410 -0.0661 -0.1745  0.1487
 2542W        W 3539   2.235   6.021   1.257 -0.2366  0.1907  0.1751
 2543W        W 3540   5.329   4.210   6.891  0.2177 -0.1724 -0.1522
 2544W        W 3541   0.949   1.392   5.762 -0.1722  0.0702  0.0731
 2545W        W 3542   4.024   4.849   4.194  0.1529  0.0673 -0.1606
 2546W        W 3543   3.866   5.599   7.577 -0.2863 -0.1133  0.1743
 2547W        W 3544   6.403   6.875   1.067 -0.2341  0.2621  0.1515
 2548W        W 3545   6.375   3.357   2.628  0.0290  0.2120 -0.0945
 2549W        W 3546   0.466   2.152   6.779 -0.2158 -0.0145 -0.2017
 2550W        W 3547   7.384   2.848   4.592  0.0203 -0.0334  0.2938
 2551W        W 3548   0.804   6.718   2.606  0.0765 -0.1193  0.0461
 2552W        W 3549   1.803   3.119   7.575  0.1353 -0.1148  0.0633
 2553W        W 3550   4.070   4.148   4.137  0.1104 -0.0016  0.2482
 2554W        W 3551   1.233   3.598   4.272 -0.0556  0.0169  0.0879
 2555W        W 3552   4.635   5.339   6.828 -0.1977 -0.0634  0.0031
 2556W        W 3553   6.805   3.124   7.549  0.1079  0.0180  0.0332
 2557W        W 3554   4.108   5.660   5.920  0.0856  0.0731  0.0715
 2558W        W 3555   4.801   0.371   6.483 -0.2758  0.0783 -0.1914
 2559W        W 3556   3.184   4.650   6.094  0.0996  0.2383  0.3161
 2560W        W 3557   1.506   7.224   0.528 -0.0419 -0.0514  0.1186
 2561W        W 3558   3.974   1.616   7.227  0.2215 -0.0496 -0.0824
 2562W        W 3559   2.519   3.433   1.880 -0.0765  0.0344  0.0326
 2563W        W 3560   4.353   2.748   0.641  0.1001 -0.0554  0.1218
 2564W        W 3561   1.817   4.166   1.686  0.0851 -0.0603  0.0200
 2565W        W 3562   4.244   3.752   6.835 -0.3802  0.0680 -0.2785
 2566W        W 3563   4.492   3.293   2.689  0.0601  0.1027  0.0839
 2567W        W 3564   4.827   4.337   1.688  0.0714 -0.4882 -0.0135
 2568W        W 3565   5.102   3.681   7.017  0.0427 -0.0469 -0.2137
 2569W        W 3566   5.051   1.406   3.909 -0.1782  0.0348  0.1155
 2570W        W 3567   4.794   7.291   4.483 -0.1775  0.2582 -0.1147
 2571W        W 3568   5.467   3.496   6.693 -0.1044  0.1398  0.0174
 2572W        W 3569   4.052   1.404   5.071 -0.1331  0.1046 -0.2046
 2573W        W 3570   6.309   4.729   2.766  0.1687  0.0572  0.0412
 2574W        W 3571   1.381   4.556   7.494  0.0065 -0.0293  0.1665
 2575W        W 3572   4.858   4.991   4.569 -0.1369 -0.1095 -0.1150
 2576W        W 3573   5.504   6.084   5.129  0.0346  0.2312 -0.3391
 2577W        W 3574   0.908   3.126   3.395  0.1486 -0.2574  0.1043
 2578W        W 3575   5.097   6.674   3.791 -0.2056 -0.1280 -0.0751
 2579W        W 3576   1.922   6.716   2.225 -0.2281 -0.1134 -0.0747
 2580W        W 3577   5.707   1.404   4.577  0.0709  0.3807  0.2486
 2581W        W 3578   6.841   2.688   1.119  0.3365  0.3510  0.0086
 2582W        W 3579   1.623   7.447   3.376 -0.2639 -0.0630  0.2362
 2583W        W 3580   7.108   3.312   6.480 -0.1547 -0.1029 -0.3418
 2584W        W 3581   3.577   1.068   3.619  0.5101  0.0849 -0.0658
 2585W        W 3582   2.809   3.640   6.022 -0.0744  0.2049  0.0835
 2586W        W 3583   4.064   1.877   3.466  0.1429 -0.0599 -0.1805
 2587W        W 3584   7.184   1.114   3.864  0.1163 -0.2833  0.1758
 2588W        W 3585   6.590   2.457   5.637 -0.0969  0.1785 -0.1592
 2589W        W 3586   4.133   1.182   1.717 -0.0588  0.2828  0.0693
 2590W        W 3587   3.842   4.330   7.189 -0.1634 -0.2426 -0.1549
 2591W        W 3588   0.853   0.927   6.535  0.1429  0.1118 -0.3232
 2592W        W 3589   6.912   7.553   1.474  0.1010  0.1297 -0.4255
 2593W        W 3590   1.414   6.205   1.947  0.1468 -0.1668 -0.0858
 2594W        W 3591   5.202   2.227   5.598 -0.0102  0.1718 -0.2191
 2595W        W 3592   1.515   2.899   2.868 -0.2065 -0.0429  0.0225
 2596W        W 3593   3.852   6.166   3.793 -0.1926 -0.0204 -0.1746
 2597W        W 3594   4.506   1.639   4.856 -0.2922 -0.0020 -0.3306
 2598W        W 3595   0.422   7.507   4.963  0.1058  0.2195  0.1117
 2599W        W 3596   2.955   2.834   4.105 -0.1055 -0.1257 -0.1944
 2600W        W 3597   2.948   5.067   2.672 -0.1724 -0.0298 -0.1548
 2601W        W 3598   1.424   6.082   3.315 -0.0807 -0.3553 -0.3520
 2602W        W 3599   5.633   0.106   4.398 -0.0875 -0.1189 -0.2480
 2603W        W 3600   5.283   4.515   1.350  0.2151 -0.0097  0.0838
 2604W        W 3601   6.587   4.363   0.990  0.2108  0.0484  0.0588
 2605W        W 3602   4.754   4.025   0.583 -0.1271  0.1354 -0.1530
 2606W        W 3603   1.668   0.239   5.681 -0.1348 -0.1035  0.0241
 2607W        W 3604   5.704   6.457   5.362 -0.0194  0.2273 -0.2147
 2608W        W 3605   0.393   7.401   0.721 -0.0871 -0.3929  0.1766
 2609W        W 3606   6.807   3.614   3.788  0.0311  0.0027  0.1282
 2610W        W 3607   3.067   0.513   3.208 -0.0183  0.0345 -0.1660
 2611W        W 3608   4.834   6.310   2.219 -0.0587  0.1334  0.2225
 2612W        W 3609   2.776   0.324   6.791  0.2652  0.0737 -0.3197
 2613W        W 3610   6.453   1.999   5.219 -0.0296  0.1684  0.1438
 2614W        W 3611   3.796   3.782   3.197  0.0415 -0.1047  0.1445
 2615W        W 3612   5.101   5.943   5.493 -0.2107 -0.1931  0.1964
 2616W        W 3613   0.060   6.326   7.145 -0.0353  0.1689  0.1814
 2617W        W 3614   6.699   3.993   1.636  0.1109 -0.1694 -0.1493
 2618W        W 3615   0.496   2.635   2.772 -0.0334  0.1826 -0.0426
 2619W        W 3616   6.508   3.918   3.309 -0.3907 -0.2657 -0.0146
 2620W        W 3617   0.294   1.347   7.118 -0.1775 -0.3030  0.2707
 2621W        W 3618   0.666   5.651   0.667  0.0892  0.0010 -0.0544
 2622W        W 3619   6.507   1.537   7.340 -0.0195  0.3427  0.1034
 2623W        W 3620   7.241   2.278   0.823 -0.1227  0.0635  0.2257
 2624W        W 3621   3.119   6.082   5.197 -0.3930 -0.0267  0.0813
 2625W        W 3622   2.263   6.237   2.483 -0.1526  0.1716 -0.1443
 2626W        W 3623   1.758   3.689   3.941 -0.0589  0.1726 -0.0859
 2627W        W 3624   2.874   3.311   1.590  0.1312  0.0558  0.3168
 2628W        W 3625   6.479   5.891   3.174 -0.2543  0.4286 -0.1686
 2629W        W 3626   7.475   4.461   0.849  0.0052 -0.1534  0.3163
 2630W        W 3627   3.874   2.417   4.894 -0.1082 -0.0448 -0.1045
 2631W        W 3628   2.588   5.813   0.958  0.1533 -0.2457 -0.1070
 2632W        W 3629   3.119   1.548   4.803  0.0714 -0.2498 -0.1635
 2633W        W 3630   3.514   4.874   4.201 -0.1227 -0.0875  0.1531
 2634W        W 3631   3.881   3.019   2.046 -0.3286 -0.2492 -0.2989
 2635W        W 3632   6.093   1.861   7.523 -0.1566  0.0999 -0.0501
 2636W        W 3633   7.576   6.331   4.297 -0.0941 -0.4262  0.0956
 2637W        W 3634   5.333   1.778   2.413  0.1122 -0.0061 -0.0034
 2638W        W 3635   1.120   7.089   6.488  0.2366 -0.1362 -0.0091
 2639W        W 3636   5.293   6.585   1.044  0.0823 -0.0933  0.3213
 2640W        W 3637   5.399   2.058   0.954 -0.3664 -0.0940 -0.1097
 2641W        W 3638   0.180   5.737   0.347  0.0165 -0.2105  0.1549
 2642W        W 3639   4.125   6.956   2.722 -0.1644 -0.0699 -0.0576
 2643W        W 3640   4.301   5.175   5.148  0.1222 -0.1167 -0.0731
 2644W        W 3641   7.037   2.086   5.941 -0.0913  0.0878  0.1150
 2645W        W 3642   4.438   2.279   4.689 -0.3783 -0.0540 -0.1862
 2646W        W 3643   4.966   2.593   2.499 -0.0091 -0.0899  0.2418
 2647W        W 3644   5.077   0.014   5.623 -0.3584 -0.2511 -0.5373
 2648W        W 3645   7.363   7.008   4.865 -0.2515  0.0506  0.4381
 2649W        W 3646   2.981   0.401   7.236  0.0378 -0.2300 -0.3696
 2650W        W 3647   2.136   5.606   0.849  0.1946  0.0231 -0.0240
 2651W        W 3648   4.641   0.156   0.245 -0.1494 -0.1523 -0.2687
 2652W        W 3649   5.517   4.036   6.427 -0.0206 -0.1344 -0.1178
 2653W        W 3650   3.595   2.966   2.634  0.1064  0.0941  0.1478
 2654W        W 3651   4.057   4.141   0.684 -0.1030  0.2477  0.0086
 2655W        W 3652   0.855   0.027   6.115  0.0592 -0.1837  0.3915
 2656W        W 3653   5.778   0.127   3.038  0.1278  0.0781  0.0382
 2657W        W 3654   0.559   7.418   1.666 -0.3413  0.0372 -0.0374
 2658W        W 3655   1.426   3.676   3.122 -0.0962  0.0554  0.1260
 2659W        W 3656   1.707   4.759   1.587 -0.3645  0.1166  0.1392
 2660W        W 3657   4.604   2.278   6.945 -0.1319  0.0924  0.5813
 2661W        W 3658   6.043   6.426   2.755 -0.0294 -0.0605 -0.3176
 2662W        W 3659   6.034   0.991   3.764  0.0537  0.5677  0.2289
 2663W        W 3660   3.354   2.479   0.389 -0.0659 -0.0930 -0.1815
 2664W        W 3661   4.749   4.414   2.947 -0.1560  0.1194 -0.1011
 2665W        W 3662   1.851   3.457   3.353  0.0601  0.1249 -0.1731
 2666W        W 3663   7.025   5.791   7.214 -0.0892 -0.2659  0.0014
 2667W        W 3664   3.838   0.453   2.282 -0.0608 -0.0659  0.1489
 2668W        W 3665   3.124   3.907   3.661 -0.1353  0.1815 -0.4405
 2669W        W 3666   7.548   2.437   3.695 -0.0168  0.0101 -0.1022
 2670W        W 3667   6.226   3.042   6.779  0.0863  0.0706 -0.3057
 2671W        W 3668   4.365   4.435   3.825  0.2702 -0.1134 -0.2055
 2672W        W 3669   0.632   3.667   0.896  0.4042 -0.1225  0.1068
 2673W        W 3670   0.731   1.345   6.238  0.3951  0.2237  0.1448
 2674W        W 3671   2.612   5.706   3.756 -0.1326  0.2200 -0.4471
 2675W        W 3672   7.198   2.232   2.923 -0.4005  0.1280  0.0506
 2676W        W 3673   7.457   2.582   3.176 -0.0059 -0.2642  0.1064
 2677W        W 3674   7.286   2.888   3.602  0.2629 -0.1133  0.1074
 2678W        W 3675   0.076   6.285   3.371  0.0065  0.1241 -0.1924
 2679W        W 3676   7.490   6.730   0.479  0.0329 -0.0458 -0.3008
 2680W        W 3677   1.690   5.763   6.908 -0.0547  0.0947 -0.0143
 2681W        W 3678   6.844   1.674   5.371  0.0372 -0.1640  0.1434
 2682W        W 3679   2.782   0.314   5.231 -0.0783  0.0229 -0.0798
 2683W        W 3680   3.705   2.722   3.013 -0.1030 -0.3220 -0.1628
 2684W        W 3681   5.567   5.953   2.906  0.2299 -0.1724  0.0543
 2685W        W 3682   6.451   0.962   6.449  0.3293  0.0601 -0.1508
 2686W        W 3683   1.508   7.131   4.288 -0.1880 -0.1914 -0.0028
 2687W        W 3684   4.194   0.896   6.657  0.0986 -0.0017 -0.3012
 2688W        W 3685   3.178   6.334   1.956  0.0938  0.0324  0.0100
 2689W        W 3686   0.265   5.971   6.897 -0.0225 -0.1358 -0.0393
 2690W        W 3687   1.467   1.555   5.020 -0.1831 -0.1972 -0.2512
 2691W        W 3688   7.287   6.602   2.253  0.1997  0.1342 -0.0905
 2692W        W 3689   4.349   4.257   7.388  0.2255  0.1882 -0.0602
 2693W        W 3690   3.409   2.626   4.906 -0.2484  0.2274  0.0594
 2694W        W 3691   7.238   1.054   4.367  0.0153 -0.0283 -0.0794
 2695W        W 3692   6.377   6.910   5.842 -0.2528  0.0696  0.0056
 2696W        W 3693   4.735   5.770   5.764  0.3779 -0.0494  0.0011
 2697W        W 3694   5.072   6.612   3.076 -0.1932 -0.0282 -0.0440
 2698W        W 3695   5.286   7.398   4.182  0.1395 -0.0146  0.1008
 2699W        W 3696   6.748   7.183   3.864 -0.2070 -0.0286 -0.0861
 2700W        W 3697   6.899   1.371   2.605 -0.2587  0.3901 -0.1469
 2701W        W 3698   4.824   4.370   1.104  0.1045  0.0262 -0.2001
 2702W        W 3699   4.813   3.647   2.672 -0.0709 -0.1136  0.0258
 2703W        W 3700   1.503   2.724   4.111 -0.1238  0.0792 -0.1459
 2704W        W 3701   6.755   0.910   0.223  0.2919  0.1139  0.1357
 2705W        W 3702   1.647   3.623   2.275  0.0576 -0.2578  0.1448
 2706W        W 3703   4.513   3.142   1.612  0.4510 -0.2460  0.3079
 2707W        W 3704   2.099   3.189   0.547  0.0899  0.0961  0.4099
 2708W        W 3705   2.239   5.016   0.915  0.0322 -0.1599 -0.0665
 2709W        W 3706   1.166   2.193   3.360 -0.0269 -0.0187  0.1916
 2710W        W 3707   4.923   4.603   0.677 -0.1758 -0.0814  0.1328
 2711W        W 3708   0.451   5.906   1.957  0.1884  0.0104 -0.1077
 2712W        W 3709   5.700   1.779   2.926 -0.1167 -0.2300 -0.0658
 2713W        W 3710   2.979   7.423   1.836 -0.2703  0.2793  0.0118
 2714W        W 3711   5.963   5.802   1.951 -0.2290  0.0776  0.0981
 2715W        W 3712   2.301   2.886   0.084  0.3563  0.1129  0.0412
 2716W        W 3713   2.970   7.010   4.289  0.1522  0.1136  0.2180
 2717W        W 3714   6.145   0.085   5.951  0.2001 -0.1796 -0.1580
 2718W        W 3715   2.525   6.146   6.986  0.3670  0.0177 -0.2271
 2719W        W 3716   0.227   1.864   7.105  0.1111 -0.0424 -0.0983
 2720W        W 3717   7.599   2.533   7.649  0.0572 -0.2925  0.1225
 2721W        W 3718   6.758   3.672   2.835 -0.1085 -0.0570  0.0714
 2722W        W 3719   6.924   6.080   3.391 -0.0401  0.0016  0.1348
 2723W        W 3720   6.486   7.107   5.183 -0.1849 -0.0283 -0.1337
 2724W        W 3721   2.984   4.990   7.081 -0.1610 -0.1664  0.1899
 2725W        W 3722   2.934   6.576   5.053  0.1177 -0.5787  0.0342
 2726W        W 3723   3.762   2.088   5.253  0.0399 -0.0692  0.1288
 2727W        W 3724   7.498   0.268   0.339  0.0383  0.3772  0.5571
 2728W        W 3725   1.809   0.920   5.418 -0.4372 -0.0636 -0.0754
 2729W        W 3726   3.711   5.393   2.351  0.4291 -0.2404  0.0917
 2730W        W 3727   0.573   4.370   1.270  0.1837  0.3774 -0.0195
 2731W        W 3728   5.823   3.853   4.073  0.1016  0.0279  0.3588
 2732W        W 3729   6.330   4.826   1.253 -0.2140  0.2778  0.2210
 2733W        W 3730   3.141   2.750   2.332 -0.2807 -0.1220 -0.1614
 2734W        W 3731   4.801   5.056   2.281 -0.1055 -0.3563  0.0541
 2735W        W 3732   0.147   2.479   2.161 -0.0083 -0.1072 -0.0084
 2736W        W 3733   3.418   5.325   6.358 -0.0091 -0.0844  0.1990
 2737W        W 3734   0.351   2.813   1.330  0.3625 -0.0911  0.0782
 2738W        W 3735   0.045   2.025   6.401 -0.0870  0.1815  0.1751
 2739W        W 3736   1.199   3.367   2.758 -0.3467  0.1215  0.1436
 2740W        W 3737   2.931   0.705   5.642  0.0699 -0.0717  0.0255
 2741W        W 3738   0.854   1.843   5.530  0.1912  0.0341 -0.2296
 2742W        W 3739   7.279   7.612   6.903 -0.2242  0.0158 -0.2600
 2743W        W 3740   2.972   7.053   1.422  0.4186  0.0386  0.0428
 2744W        W 3741   2.889   0.291   3.742  0.2033 -0.0103  0.1338
 2745W        W 3742   0.332   6.623   0.411 -0.4997 -0.0104 -0.1650
 2746W        W 3743   1.954   7.400   2.965 -0.1254  0.0579 -0.1181
 2747W        W 3744   1.907   4.615   0.127 -0.0409  0.1125 -0.1270
 2748W        W 3745   5.625   1.769   6.138 -0.1102 -0.2236 -0.2185
 2749W        W 3746   5.315   0.440   3.002  0.1447 -0.2361 -0.0263
 2750W        W 3747   0.963   0.117   1.745 -0.0984  0.2543  0.4767
 2751W        W 3748   1.248   0.491   6.299 -0.3977 -0.0110  0.1912
 2752W        W 3749   1.508   5.962   6.475 -0.3050  0.2598  0.1311
 2753W        W 3750   3.465   3.332   0.864  0.3075 -0.0296  0.2250
 2754W        W 3751   6.847   1.181   5.283 -0.1781  0.1406 -0.0707
 2755W        W 3752   5.647   6.913   4.500  0.3667 -0.1968  0.0262
 2756W        W 3753   3.669   5.783   6.739  0.2180 -0.1544  0.0707
 2757W        W 3754   1.446   6.906   1.543 -0.0084  0.0356  0.1979
 2758W        W 3755   3.209   3.184   5.671  0.3135 -0.2131  0.0037
 2759W        W 3756   2.640   3.943   6.359  0.0657 -0.4090 -0.0030
 2760W        W 3757   5.120   5.718   4.988  0.5433 -0.3585 -0.1722
 2761W        W 3758   2.108   3.724   2.541 -0.1927  0.1735  0.0273
 2762W        W 3759   0.134   3.876   7.004 -0.1606 -0.3371 -0.1816
 2763W        W 3760   6.538   4.197   6.276  0.0111 -0.2595  0.2043
 2764W        W 3761   5.849   5.294   2.065 -0.1042  0.2448 -0.4979
 2765W        W 3762   3.347   1.443   3.400  0.2100 -0.1033 -0.0523
 2766W        W 3763   0.193   1.568   2.203 -0.0627 -0.1198 -0.1439
 2767W        W 3764   3.089   2.277   0.037  0.1721  0.1154  0.0544
 2768W        W 3765   4.900   2.921   1.474  0.0989  0.4967  0.0960
 2769W        W 3766   3.961   1.110   7.157 -0.1028  0.2594 -0.2063
 2770W        W 3767   6.349   5.679   1.618  0.1186 -0.0575  0.1046
 2771W        W 3768   2.832   5.521   3.327  0.0391 -0.1723  0.2249
 2772W        W 3769   0.429   0.549   4.692  0.1004 -0.0117 -0.0118
 2773W        W 3770   7.506   1.357   4.712  0.3539 -0.1736 -0.2716
 2774W        W 3771   6.372   1.647   3.741  0.3365  0.1776 -0.4094
 2775W        W 3772   3.985   6.645   1.904  0.0805  0.0517  0.0718
 2776W        W 3773   2.807   3.069   2.989 -0.1598 -0.0747 -0.1798
 2777W        W 3774   7.533   7.331   2.182  0.0737 -0.2141  0.3008
 2778W        W 3775   6.460   0.189   3.448  0.2323 -0.0455 -0.2578
 2779W        W 3776   2.025   7.622   5.971 -0.0587 -0.3504  0.2999
 2780W        W 3777   6.560   7.637   5.214  0.0507 -0.0564 -0.0128
 2781W        W 3778   2.114   4.846   6.742  0.2453 -0.1060 -0.0933
 2782W        W 3779   5.661   5.295   1.080  0.1098  0.1308  0.0550
 2783W        W 3780   5.243   4.099   2.776  0.1582 -0.2176  0.2343
 2784W        W 3781   0.312   1.900   3.525  0.4319  0.1419 -0.0930
 2785W        W 3782   7.125   0.879   7.487  0.1263 -0.4172 -0.1426
 2786W        W 3783   0.015   5.172   1.619  0.0624  0.0733 -0.0877
 2787W        W 3784   5.543   2.662   7.090  0.0421  0.0009 -0.1424
 2788W        W 3785   2.477   2.126   5.265 -0.0530  0.0325 -0.0271
 2789W        W 3786   1.724   5.862   5.770 -0.2120  0.1167 -0.2645
 2790W        W 3787   4.546   0.734   6.223  0.3960  0.3369 -0.0111
 2791W        W 3788   0.678   3.271   5.209  0.2401 -0.1291 -0.1041
 2792W        W 3789   4.835   1.896   2.671 -0.1835  0.1442  0.1186
 2793W        W 3790   6.023   4.413   1.026 -0.1967  0.2106 -0.3016
 2794W        W 3791   5.135   5.101   3.124  0.2707  0.2168 -0.0502
 2795W        W 3792   1.738   6.246   3.728  0.0837 -0.1247  0.4032
 2796W        W 3793   6.840   6.440   4.215  0.3037 -0.1393 -0.2029
 2797W        W 3794   7.222   3.072   2.332 -0.0951  0.1573 -0.2709
 2798W        W 3795   4.341   7.054   7.390 -0.3205 -0.0173  0.0442
 2799W        W 3796   4.965   5.976   4.574  0.1282 -0.1505 -0.1790
 2800W        W 3797   2.419   4.027   1.336 -0.1057  0.0422  0.0351
 2801W        W 3798   7.296   2.531   6.850  0.0224 -0.1785  0.0857
 2802W        W 3799   1.341   2.926   4.516  0.0068  0.1583  0.0870
 2803W        W 3800   3.084   2.773   1.448  0.0515  0.3566 -0.0308
 2804W        W 3801   7.315   5.966   1.400  0.2160  0.0335 -0.1835
 2805W        W 3802   3.130   4.704   0.759 -0.3717  0.0964  0.2442
 2806W        W 3803   1.267   0.785   2.451  0.2999 -0.0140 -0.0985
 2807W        W 3804   0.611   6.404   3.157 -0.0218  0.0618  0.1934
 2808W        W 3805   1.524   2.962   5.368 -0.0022  0.0605 -0.1756
 2809W        W 3806   5.878   6.917   5.575 -0.0377 -0.0334 -0.5274
 2810W        W 3807   5.420   3.162   6.267  0.1918  0.1315 -0.0231
 2811W        W 3808   7.408   2.885   5.615  0.1264  0.2604  0.5024
 2812W        W 3809   3.870   2.570   5.353 -0.1039  0.0222  0.1151
 2813W        W 3810   3.757   7.517   3.317  0.0846  0.0638 -0.0461
 2814W        W 3811   2.990   3.948   5.553 -0.0499  0.1461 -0.0774
 2815W        W 3812   3.182   7.033   5.000 -0.2982 -0.1811  0.2995
 2816W        W 3813   1.319   1.580   2.946 -0.2728 -0.1870  0.0405
 2817W        W 3814   2.248   2.410   5.557 -0.0751  0.1029  0.1026
 2818W        W 3815   5.368   1.404   6.437  0.3563 -0.0584 -0.0473
 2819W        W 3816   4.147   6.084   5.601  0.1507  0.0369  0.1324
 2820W        W 3817   2.507   7.284   3.101  0.2066 -0.1287  0.0251
 2821W        W 3818   5.016   7.643   1.705 -0.0138  0.2072 -0.1052
 2822W        W 3819   2.546   1.674   6.412 -0.3671 -0.1445  0.0354
 2823W        W 3820   1.579   0.630   3.373 -0.1667  0.3283  0.0561
 2824W        W 3821   1.325   2.292   6.479 -0.0293  0.0716 -0.0362
 2825W        W 3822   5.141   1.284   5.789  0.1445 -0.1365 -0.0427
 2826W        W 3823   6.863   7.173   1.079 -0.1695 -0.0987  0.1270
 2827W        W 3824   3.783   6.074   5.911  0.1853  0.2676  0.1336
 2828W        W 3825   4.833   3.682   4.654 -0.2705 -0.0759 -0.1222
 2829W        W 3826   6.881   4.183   2.436 -0.0344 -0.1172 -0.0990
 2830W        W 3827   4.173   1.104   6.174 -0.2487 -0.2607 -0.2622
 2831W        W 3828   5.595   1.423   3.874  0.1311  0.1082 -0.0434
 2832W        W 3829   1.614   6.451   5.102 -0.3371  0.0126 -0.0826
 2833W        W 3830   7.340   5.610   1.748  0.0498 -0.1050 -0.1996
 2834W        W 3831   3.373   5.241   4.611 -0.2954  0.0152  0.0010
 2835W        W 3832   3.815   7.409   2.004  0.0641  0.1368 -0.1576
 2836W        W 3833   3.698   1.019   4.536 -0.4269  0.3199 -0.1357
 2837W        W 3834   1.890   3.962   3.507  0.3583  0.2716  0.0163
 2838W        W 3835   5.033   6.210   5.034 -0.0272 -0.0454 -0.1397
 2839W        W 3836   1.419   6.237   6.860 -0.1553  0.1108 -0.1064
 2840W        W 3837   3.859   0.255   1.828  0.4253 -0.0521  0.0316
 2841W        W 3838   3.913   4.698   6.849  0.2076 -0.0370  0.0733
 2842W        W 3839   1.940   2.143   4.632  0.3895 -0.2009  0.0733
 2843W        W 3840   3.795   3.585   4.352 -0.1660  0.0404  0.0175
 2844W        W 3841   1.155   0.837   4.509 -0.1889 -0.3657  0.2756
 2845W        W 3842   3.926   2.922   5.005 -0.1158  0.3262  0.0003
 2846W        W 3843   6.964   3.219   4.550 -0.1551 -0.1729 -0.0087
 2847W        W 3844   5.381   4.773   2.423  0.0982 -0.1132  0.2166
 2848W        W 3845   6.191   2.121   2.418  0.1406  0.1908 -0.0810
 2849W        W 3846   3.146   1.056   5.109 -0.1593  0.0194  0.0173
 2850W        W 3847   2.337   4.487   1.136 -0.5421 -0.2350  0.1685
 2851W        W 3848   5.426   5.033   0.699 -0.3476 -0.1852  0.1163
 2852W        W 3849   2.755   3.385   5.577  0.1482 -0.0140  0.1034
 2853W        W 3850   5.220   6.436   5.514 -0.0108  0.0716 -0.1298
 2854W        W 3851   3.080   2.310   3.459 -0.0257  0.1139  0.1591
 2855W        W 3852   2.564   3.610   4.253  0.1735 -0.2728 -0.2646
 2856W        W 3853   6.874   5.994   2.802 -0.0398  0.1022 -0.3107
 2857W        W 3854   4.439   5.578   3.862  0.0639  0.4018 -0.3898
 2858W        W 3855   7.456   2.093   6.839  0.1295 -0.0888 -0.0129
 2859W        W 3856   3.317   0.657   3.688  0.3577  0.1842  0.0111
 2860W        W 3857   1.192   3.024   5.816  0.0328  0.1007 -0.2251
 2861W        W 3858   1.279   7.177   4.739 -0.0371  0.1532 -0.0407
 2862W        W 3859   4.387   7.078   5.706 -0.1972 -0.0039 -0.0432
 2863W        W 3860   7.094   7.607   0.239  0.1767  0.0033  0.0835
 2864W        W 3861   1.944   0.278   7.226 -0.0029  0.1158  0.3468
 2865W        W 3862   6.536   2.436   4.000 -0.2822 -0.1123 -0.1294
 2866W        W 3863   0.190   7.125   7.399  0.0442  0.1869 -0.1751
 2867W        W 3864   6.744   4.706   2.404 -0.0831  0.1384  0.3076
 2868W        W 3865   1.881   0.992   3.148 -0.3429 -0.1557 -0.1053
 2869W        W 3866   0.930   6.534   4.615  0.1011 -0.0421  0.1360
 2870W        W 3867   0.554   3.068   3.734  0.0436 -0.3736 -0.0198
 2871W        W 3868   1.287   5.444   2.353  0.1577 -0.0650  0.0739
 2872W        W 3869   4.102   7.534   6.356 -0.1845 -0.0569  0.1980
 2873W        W 3870   3.838   2.574   3.977 -0.0251 -0.3078  0.1607
 2874W        W 3871   4.134   2.475   6.798  0.1463  0.0430 -0.0592
 2875W        W 3872   5.886   6.713   6.574  0.0506 -0.3026 -0.2480
 2876W        W 3873   7.656   2.393   0.513  0.1144  0.0100  0.2391
 2877W        W 3874   3.526   4.031   4.201 -0.1578 -0.3242  0.0697
 2878W        W 3875   3.624   3.588   5.591  0.4090 -0.1240 -0.2183
 2879W        W 3876   3.901   2.964   6.872 -0.3144  0.1070 -0.0105
 2880W        W 3877   4.793   1.187   4.801  0.0148  0.0880 -0.0679
 2881W        W 3878   4.271   7.572   3.345  0.1733 -0.0903  0.3610
 2882W        W 3879   2.730   1.709   4.539 -0.0078 -0.0774  0.0043
 2883W        W 3880   3.075   1.214   7.063  0.0240 -0.0043  0.0824
 2884W        W 3881   1.547   5.937   2.387 -0.0057  0.1230  0.3344
 2885W        W 3882   0.960   3.504   7.495 -0.0765 -0.1496 -0.1443
 2886W        W 3883   5.798   1.743   6.581 -0.4530 -0.0079 -0.1676
 2887W        W 3884   6.404   1.409   4.466  0.0180  0.0376 -0.1661
 2888W        W 3885   6.432   6.400   6.674  0.3541 -0.0463  0.3236
 2889W        W 3886   3.742   4.541   6.366 -0.1949  0.0926  0.0088
 2890W        W 3887   1.758   0.834   4.909 -0.2224 -0.2175 -0.2013
 2891W        W 3888   1.464   3.194   3.255  0.2125  0.1491  0.2389
 2892W        W 3889   4.938   6.280   2.698 -0.0814 -0.2033 -0.5773
 2893W        W 3890   4.431   1.318   7.122  0.1013  0.1294 -0.1508
 2894W        W 3891   5.842   1.304   5.099  0.0171 -0.3009 -0.1096
 2895W        W 3892   6.635   3.003   5.725 -0.0730  0.1133  0.1199
 2896W        W 3893   5.950   6.215   6.425  0.2180 -0.1848 -0.2275
 2897W        W 3894   1.639   3.996   2.611 -0.0353  0.0290  0.2058
 2898W        W 3895   2.306   5.509   3.254 -0.3898  0.0290 -0.1823
 2899W        W 3896   0.581   1.695   2.476  0.1202  0.0653  0.0275
 2900W        W 3897   1.179   6.740   5.047  0.0488  0.2980 -0.0489
 2901W        W 3898   6.542   1.203   6.884 -0.0036  0.1528 -0.2736
 2902W        W 3899   2.372   4.372   7.565 -0.0773  0.2813  0.2650
 2903W        W 3900   7.099   3.493   5.952  0.1961 -0.1755 -0.0842
 2904W        W 3901   5.753   2.121   0.595  0.2535  0.2485  0.0301
 2905W        W 3902   4.983   6.691   6.473  0.0993 -0.1024  0.0061
 2906W        W 3903   3.091   6.054   0.053 -0.2300  0.0446  0.2602
 2907W        W 3904   2.934   4.631   7.446 -0.0801 -0.1117  0.0251
 2908W        W 3905   0.992   6.263   1.270  0.1302 -0.1268  0.2365
 2909W        W 3906   1.302   2.381   5.534  0.1441  0.0351 -0.1884
 2910W        W 3907   6.135   1.795   3.330  0.1374  0.4517 -0.1556
 2911W        W 3908   6.232   3.857   6.766 -0.1234 -0.0297  0.1357
 2912W        W 3909   4.656   5.646   1.593 -0.0408 -0.0872  0.2208
 2913W        W 3910   6.369   1.303   3.370 -0.1594  0.2404 -0.2186
 2914W        W 3911   0.476   2.916   4.194 -0.1609  0.2378 -0.4364
 2915W        W 3912   1.681   6.314   5.577  0.1729  0.2378 -0.2278
 2916W        W 3913   2.606   1.586   3.526  0.1960 -0.0174 -0.3496
 2917W        W 3914   4.338   2.756   4.080 -0.0471  0.0320 -0.3254
 2918W        W 3915   4.166   0.603   7.132  0.2938  0.0743  0.2650
 2919W        W 3916   6.503   2.830   5.274  0.2439  0.1331  0.1836
 2920W        W 3917   3.214   6.061   6.621  0.1129  0.1289  0.1667
 2921W        W 3918   3.797   6.839   4.442 -0.0096 -0.3295 -0.0125
 2922W        W 3919   2.078   4.531   6.031 -0.1752  0.3324  0.0067
 2923W        W 3920   6.628   0.794   5.072 -0.2713 -0.0414  0.0519
 2924W        W 3921   0.073   4.735   2.185 -0.0393 -0.0325 -0.1472
 2925W        W 3922   5.788   4.537   2.664 -0.0258 -0.0504  0.1032
 2926W        W 3923   5.054   0.559   2.105 -0.2024  0.0262  0.0168
 2927W        W 3924   3.368   4.827   1.682  0.3997  0.2138  0.0459
 2928W        W 3925   5.397   5.253   2.236  0.1864  0.0167 -0.0140
 2929W        W 3926   4.408   2.105   1.207 -0.0769 -0.0076 -0.1955
 2930W        W 3927   1.214   4.772   7.060 -0.0966 -0.0508  0.0658
 2931W        W 3928   7.632   2.991   1.625 -0.1790 -0.2875  0.1619
 2932W        W 3929   5.117   2.898   6.677 -0.0348 -0.0878 -0.1597
 2933W        W 3930   3.460   5.626   4.232  0.0679  0.1078 -0.0002
 2934W        W 3931   3.135   2.378   6.857 -0.1964 -0.0606 -0.0399
 2935W        W 3932   7.264   2.404   6.328 -0.0473  0.2617  0.4111
 2936W        W 3933   5.417   7.504   7.471 -0.1908  0.1896  0.1087
 2937W        W 3934   4.991   6.975   2.106  0.1799 -0.1180  0.0010
 2938W        W 3935   1.250   3.214   6.771 -0.0578 -0.2784  0.2976
 2939W        W 3936   6.073   2.116   5.668  0.0563 -0.2802  0.0459
 2940W        W 3937   3.859   7.541   1.485 -0.0811  0.3174  0.0544
 2941W        W 3938   5.150   4.643   7.443 -0.3378  0.1929 -0.1623
 2942W        W 3939   3.367   5.889   5.585  0.0200 -0.3316 -0.0274
 2943W        W 3940   4.130   0.898   4.287 -0.1430  0.0568  0.3681
 2944W        W 3941   3.975   6.183   2.643 -0.0857 -0.3235  0.0930
 2945W        W 3942   4.326   6.921   1.368  0.1412  0.0757  0.0537
 2946W        W 3943   4.141   7.313   0.635  0.1502 -0.0420 -0.1544
 2947W        W 3944   7.104   7.081   6.019 -0.0942  0.0023 -0.1382
 2948W        W 3945   0.839   7.413   4.664  0.1250  0.1022 -0.1295
 2949W        W 3946   4.874   6.254   3.705 -0.1654  0.1015  0.1786
 2950W        W 3947   6.386   3.463   7.206 -0.2497 -0.0812  0.0893
 2951W        W 3948   3.409   1.521   6.337  0.0719  0.1044 -0.0915
 2952W        W 3949   1.666   7.622   0.877  0.3142 -0.1540  0.4288
 2953W        W 3950   0.772   7.115   3.515 -0.2723  0.1284 -0.0312
 2954W        W 3951   6.424   3.113   4.612 -0.2790 -0.2425  0.1186
 2955W        W 3952   4.573   3.161   4.768  0.1043  0.3698  0.0195
 2956W        W 3953   5.786   6.037   2.386 -0.1920  0.0708  0.0433
 2957W        W 3954   5.279   6.064   2.309 -0.2239  0.0864 -0.0718
 2958W        W 3955   1.673   6.949   5.025 -0.0023 -0.0317  0.3847
 2959W        W 3956   7.254   0.722   4.937  0.0752 -0.0774  0.0636
 2960W        W 3957   5.856   1.086   7.353  0.2819 -0.2364  0.0267
 2961W        W 3958   6.559   5.340   0.190 -0.0762 -0.0229  0.0827
 2962W        W 3959   3.010   0.604   0.179 -0.3230  0.2413  0.0581
 2963W        W 3960   0.338   2.805   7.520 -0.0689 -0.0055  0.2664
 2964W        W 3961   6.493   0.285   5.607 -0.1362  0.2709  0.1841
 2965W        W 3962   3.359   7.373   1.475  0.4659 -0.2038 -0.0169
 2966W        W 3963   3.367   1.939   2.684 -0.3066 -0.1377 -0.0665
 2967W        W 3964   4.097   2.829   0.068 -0.0812 -0.0851 -0.0095
 2968W        W 3965   0.871   3.247   4.304 -0.2563 -0.4249  0.5268
 2969W        W 3966   6.344   1.194   5.169 -0.0305 -0.1860  0.3004
 2970W        W 3967   3.523   3.552   2.568  0.0027  0.1020  0.1097
 2971W        W 3968   5.358   7.104   7.026 -0.2613 -0.0390 -0.1121
 2972W        W 3969   1.812   2.259   6.454 -0.1680 -0.2540  0.2207
 2973W        W 3970   2.993   3.701   2.275  0.0743  0.2922  0.1730
 2974W        W 3971   0.805   0.237   4.944 -0.0831  0.3051  0.0103
 2975W        W 3972   0.101   0.340   7.501 -0.0549  0.0216 -0.0947
 2976W        W 3973   1.549   4.160   3.186 -0.1352 -0.0256 -0.2016
 2977W        W 3974   1.330   3.301   1.591  0.1401 -0.3298 -0.0713
 2978W        W 3975   3.358   6.375   6.119 -0.1422 -0.1104 -0.0110
 2979W        W 3976   2.266   3.844   3.921  0.0099 -0.0122 -0.0197
 2980W        W 3977   3.624   7.553   5.643 -0.0845  0.0325  0.0151
 2981W        W 3978   3.208   3.504   4.119 -0.0529 -0.0414  0.1532
 2982W        W 3979   6.329   0.931   4.238 -0.2307 -0.0459  0.1676
 2983W        W 3980   3.109   5.319   5.029 -0.0210  0.1584 -0.2969
 2984W        W 3981   1.940   7.416   1.564  0.1178  0.0200  0.0949
 2985W        W 3982   2.063   3.406   4.835  0.1527  0.0654 -0.1211
 2986W        W 3983   3.366   5.787   1.015  0.0442 -0.0861 -0.2405
 2987W        W 3984   3.231   0.170   5.331 -0.1126  0.0333  0.4429
 2988W        W 3985   6.633   2.307   0.907 -0.0652 -0.2570 -0.1766
 2989W        W 3986   5.042   0.844   1.650 -0.0034  0.3235 -0.1216
 2990W        W 3987   3.095   7.192   7.437 -0.3050  0.0069  0.1441
 2991W        W 3988   4.370   7.591   4.310 -0.2450  0.2047  0.0631
 2992W        W 3989   6.050   5.185   2.704  0.1222 -0.0562  0.0373
 2993W        W 3990   6.813   6.918   4.805  0.0736  0.1650  0.1504
 2994W        W 3991   1.330   5.933   2.854 -0.1239 -0.4346  0.1906
 2995W        W 3992   7.142   4.255   1.216  0.3664 -0.2086 -0.1134
 2996W        W 3993   0.271   5.738   0.993  0.1710  0.2264  0.0347
 2997W        W 3994   6.885   2.155   4.427  0.1414  0.0369 -0.1893
 2998W        W 3995   4.429   2.811   2.343  0.2539 -0.0464  0.0457
 2999W        W 3996   5.186   5.805   3.652  0.0946  0.3045  0.3272
 3000W        W 3997   3.475   0.082   2.183  0.1195  0.0392 -0.4286
 3001W        W 3998   5.893   7.336   2.801 -0.4121  0.0600  0.2471
 3002W        W 3999   1.342   7.084   5.360 -0.2654  0.0047 -0.1836
 3003W        W 4000   3.873   5.324   3.388 -0.1234  0.0034 -0.0309
 3004W        W 4001   3.624   3.879   7.515  0.1817  0.0492  0.1465
 3005W        W 4002   4.730   1.939   7.647 -0.0106  0.0646  0.0725
 3006W        W 4003   6.508   1.342   5.609  0.0612  0.1205 -0.0395
 3007W        W 4004   6.162   2.499   3.262 -0.0558  0.0058  0.0679
 3008W        W 4005   4.582   3.990   3.905  0.2672 -0.0500 -0.2369
 3009W        W 4006   7.656   5.218   2.452 -0.3533 -0.1604  0.0351
 3010W        W 4007   6.897   5.336   7.495  0.3818 -0.2756 -0.0511
 3011W        W 4008   4.234   6.829   3.278 -0.0419 -0.0619 -0.2902
 3012W        W 4009   7.064   1.368   1.162  0.1785 -0.1639  0.3761
 3013W        W 4010   0.097   3.546   0.793  0.2679 -0.1950 -0.1538
 3014W        W 4011   4.882   5.859   4.001 -0.1065 -0.1237 -0.0567
 3015W        W 4012   5.486   5.706   2.075  0.1123  0.3452 -0.0547
 3016W        W 4013   4.120   2.271   1.644  0.0790  0.1281 -0.0839
 3017W        W 4014   4.399   4.873   5.543 -0.0187 -0.1314  0.2867
 3018W        W 4015   2.880   4.364   1.235  0.3071  0.1013 -0.1847
 3019W        W 4016   2.289   7.272   7.030 -0.1545 -0.0437  0.0303
 3020W        W 4017   4.172   4.125   3.032  0.2473  0.1015  0.3818
 3021W        W 4018   5.440   4.418   1.828 -0.0006 -0.1395  0.1130
 3022W        W 4019   6.420   1.016   3.001 -0.1587 -0.0845  0.1702
 3023W        W 4020   2.648   3.352   0.897 -0.1794  0.0037 -0.1639
 3024W        W 4021   4.713   0.475   5.829  0.0745  0.1910  0.3716
 3025W        W 4022   3.932   7.236   4.215 -0.1128 -0.1271  0.0995
 3026W        W 4023   7.260   0.669   3.610 -0.2132  0.0096  0.2279
 3027W        W 4024   4.955   1.183   2.053 -0.0567  0.2042 -0.0414
 3028W        W 4025   6.987   5.983   3.883  0.2494 -0.0901 -0.0523
 3029W        W 4026   5.958   2.865   5.192  0.1113  0.2393 -0.0878
 3030W        W 4027   5.308   1.644   6.935 -0.1250 -0.2354  0.0092
 3031W        W 4028   5.587   3.146   1.082  0.1622 -0.2066 -0.1604
 3032W        W 4029   6.989   2.713   5.289  0.2661  0.0384  0.0773
 3033W        W 4030   0.066   3.152   4.832  0.0325 -0.1564  0.0090
 3034W        W 4031   1.227   4.959   0.715 -0.2200 -0.1412  0.3066
 3035W        W 4032   6.056   5.796   7.236  0.0097 -0.0980  0.0803
 3036W        W 4033   4.287   3.518   3.938  0.0002  0.1325 -0.0381
 3037W        W 4034   2.465   7.427   1.839 -0.1265  0.3071  0.1906
 3038W        W 4035   2.252   3.056   6.461 -0.1022  0.1201 -0.1548
 3039W        W 4036   0.205   0.715   7.147 -0.1369 -0.0497 -0.4979
 3040W        W 4037   7.582   0.476   0.758 -0.2054  0.3944 -0.1927
 3041W        W 4038   4.069   6.603   2.406  0.1577 -0.1697 -0.0226
 3042W        W 4039   4.452   6.024   1.267  0.0974  0.0003 -0.0436
 3043W        W 4040   6.543   5.749   0.551 -0.1840 -0.0340  0.0628
 3044W        W 4041   2.626   0.202   4.167 -0.0345 -0.1584 -0.4035
 3045W        W 4042   3.866   1.072   1.246 -0.1204 -0.1707  0.0861
 3046W        W 4043   6.047   3.274   3.913 -0.3596 -0.2330  0.0038
 3047W        W 4044   4.991   5.563   2.101  0.0768  0.1551 -0.4883
 3048W        W 4045   2.864   2.673   4.771 -0.0809  0.1918 -0.3438
 3049W        W 4046   5.757   0.706   1.833  0.1013 -0.0177  0.2653
 3050W        W 4047   7.201   6.241   7.340 -0.0021 -0.0431 -0.0640
 3051W        W 4048   0.726   3.908   0.023 -0.1237  0.1698  0.5578
 3052W        W 4049   6.225   7.629   0.902  0.2285 -0.1737 -0.0097
 3053W        W 4050   4.553   2.346   2.712 -0.1216  0.1200  0.1128
 3054W        W 4051   5.761   3.951   5.917 -0.0756  0.0982 -0.3603
 3055W        W 4052   4.544   0.848   1.782  0.0412 -0.0308  0.5049
 3056W        W 4053   5.041   0.529   0.029 -0.1583  0.3107 -0.3782
 3057W        W 4054   0.018   4.450   1.374  0.3913  0.1602  0.2031
 3058W        W 4055   4.289   0.037   1.959  0.0487 -0.1884  0.2016
 3059W        W 4056   2.502   3.889   7.652  0.0430  0.0515  0.1533
 3060W        W 4057   3.618   1.638   4.922 -0.0786  0.0930 -0.1712
 3061W        W 4058   3.806   0.619   6.700 -0.1406  0.2820  0.0659
 3062W        W 4059   0.143   6.293   1.429  0.0001 -0.0784 -0.2125
 3063W        W 4060   5.677   3.047   6.693  0.1707 -0.0579  0.1579
 3064W        W 4061   2.213   4.188   0.374 -0.1694 -0.3610 -0.1519
 3065W        W 4062   5.537   5.505   2.636 -0.1596 -0.0343 -0.2714
 3066W        W 4063   3.477   2.424   7.242  0.3020 -0.0498 -0.0501
 3067W        W 4064   1.228   1.954   5.220  0.1250  0.1256  0.2328
 3068W        W 4065   6.553   7.555   2.439 -0.4858  0.1903  0.0165
 3069W        W 4066   2.678   4.803   0.973  0.0945 -0.2171 -0.4259
 3070W        W 4067   2.704   5.526   2.708  0.0308  0.0550  0.0490
 3071W        W 4068   5.112   1.353   0.593  0.0016  0.0072  0.0372
 3072W        W 4069   5.069   6.495   4.658 -0.2368 -0.1229  0.1075
 3073W        W 4070   5.910   2.215   6.250 -0.3557  0.3306 -0.1683
 3074W        W 4071   0.282   6.875   4.862 -0.2372  0.0108 -0.0049
 3075W        W 4072   3.370   5.440   3.374  0.0377 -0.1323  0.2199
 3076W        W 4073   5.518   7.429   5.385 -0.1069 -0.1490 -0.0534
 3077W        W 4074   3.778   1.405   5.935 -0.2305  0.1346 -0.2647
 3078W        W 4075   0.694   6.682   7.164  0.1400 -0.1827 -0.1633
 3079W        W 4076   7.040   5.969   0.511 -0.3082 -0.1112  0.1680
 3080W        W 4077   6.881   2.226   6.678  0.0534  0.1354  0.1774
 3081W        W 4078   4.000   2.181   7.324 -0.2083 -0.1682  0.2628
 3082W        W 4079   6.226   5.999   2.653 -0.2773 -0.0714 -0.0844
 3083W        W 4080   0.509   7.096   4.377  0.0273  0.0713 -0.0302
 3084W        W 4081   4.216   0.959   3.231  0.1566 -0.0413  0.0619
 3085W        W 4082   5.764   4.455   6.666  0.1595 -0.3124  0.1564
 3086W        W 4083   4.666   7.388   4.960  0.0806  0.3748  0.0170
 3087W        W 4084   4.213   7.264   1.754 -0.0400  0.1424 -0.1889
 3088W        W 4085   1.405   4.558   0.340 -0.1606 -0.0749  0.1208
 3089W        W 4086   0.015   6.803   4.490  0.2001  0.0641 -0.3010
 3090W        W 4087   5.029   4.278   0.223 -0.1185 -0.1109 -0.0489
 3091W        W 4088   0.798   6.967   1.609 -0.0522 -0.0452 -0.1896
 3092W        W 4089   5.624   3.535   3.597 -0.0003  0.0140 -0.3384
 3093W        W 4090   0.129   1.166   5.753  0.0481  0.0982  0.0075
 3094W        W 4091   7.490   3.464   1.431  0.0107  0.2563 -0.0180
 3095W        W 4092   1.417   5.411   1.449  0.3005  0.1512  0.1397
 3096W        W 4093   6.567   6.661   5.273  0.2293  0.1521  0.0956
 3097W        W 4094   2.643   4.287   6.747  0.0621  0.1436 -0.1167
 3098W        W 4095   4.390   5.549   5.500 -0.0335 -0.1249 -0.0685
 3099W        W 4096   7.476   0.732   4.033 -0.0043  0.1649  0.0438
 3100W        W 4097   3.337   2.832   6.281 -0.1306  0.0040 -0.1298
 3101W        W 4098   4.465   5.879   7.190 -0.2716  0.1332 -0.0774
 3102W        W 4099   4.869   1.904   5.394  0.1696  0.1757  0.0208
 3103W        W 4100   3.023   2.644   7.305  0.2668  0.1869  0.0481
 3104W        W 4101   0.924   5.199   1.034  0.2778  0.0195  0.3072
 3105W        W 4102   6.744   0.034   3.922 -0.1116 -0.1799  0.3298
 3106W        W 4103   2.457   4.611   3.251 -0.0787 -0.0047  0.0040
 3107W        W 4104   4.141   1.374   7.623 -0.1715 -0.2595  0.0809
 3108W        W 4105   2.896   1.456   3.114  0.1868  0.3362 -0.0596
 3109W        W 4106   3.496   7.027   4.124 -0.2241 -0.1494  0.3789
 3110W        W 4107   7.519   2.700   5.099 -0.1982  0.2450  0.1402
 3111W        W 4108   5.123   5.214   7.544  0.0080  0.1718 -0.1567
 3112W        W 4109   6.881   2.222   3.279  0.1130 -0.1889  0.1978
 3113W        W 4110   3.057   0.469   1.308  0.0220 -0.1793  0.0326
 3114W        W 4111   5.794   5.767   3.860 -0.1877 -0.2036 -0.0965
 3115W        W 4112   5.217   5.664   7.391 -0.0921 -0.0385 -0.3085
 3116W        W 4113   0.567   2.821   3.222 -0.0281 -0.1407  0.1259
 3117W        W 4114   3.123   4.381   4.309  0.1726  0.2630 -0.0170
 3118W        W 4115   3.306   1.930   6.863 -0.0636 -0.1483  0.1062
 3119W        W 4116   0.885   6.308   7.555 -0.5164  0.0059 -0.1392
 3120W        W 4117   1.195   6.047   7.287  0.0753  0.0234  0.0244
 3121W        W 4118   3.048   0.596   0.646 -0.2096  0.1689 -0.2904
 3122W        W 4119   0.459   2.566   3.809 -0.0966  0.0297 -0.0394
 3123W        W 4120   4.838   5.325   3.552 -0.2584 -0.4807 -0.0767
 3124W        W 4121   0.440   0.392   5.260  0.0107  0.0966  0.0619
 3125W        W 4122   5.888   6.760   7.478  0.1804 -0.0136 -0.1108
 3126W        W 4123   3.387   3.106   5.077 -0.0915  0.1151 -0.0563
 3127W        W 4124   1.180   7.283   3.907 -0.1033 -0.5693  0.1001
 3128W        W 4125   4.629   0.193   2.320  0.0526  0.1918  0.0997
 3129W        W 4126   2.405   7.566   0.254  0.1812 -0.0047  0.0057
 3130W        W 4127   3.567   1.434   6.787  0.0186 -0.0578  0.0254
 3131W        W 4128   3.145   5.125   5.856 -0.2766 -0.3497  0.0116
 3132W        W 4129   3.704   6.046   4.408  0.6802 -0.5157 -0.0871
 3133W        W 4130   5.263   0.461   0.944  0.1531 -0.1032 -0.1186
 3134W        W 4131   4.156   4.581   2.050  0.1825  0.1781  0.0239
 3135W        W 4132   3.346   1.124   6.082  0.2107  0.1347 -0.0004
 3136W        W 4133   7.440   5.658   2.221  0.0019  0.3406  0.0255
 3137W        W 4134   5.334   1.504   5.310  0.2557  0.0367 -0.1212
 3138W        W 4135   6.443   0.118   1.464 -0.2193 -0.2598 -0.2630
 3139W        W 4136   0.395   7.590   7.246  0.1713 -0.2457  0.0056
 3140W        W 4137   2.442   5.467   6.417  0.0913  0.0261  0.1221
 3141W        W 4138   1.243   4.650   2.051 -0.0044 -0.2053  0.0133
 3142W        W 4139   0.955   2.916   2.848  0.2954 -0.0540 -0.4056
 3143W        W 4140   7.409   4.716   1.757  0.0039  0.1482 -0.1400
 3144W        W 4141   5.120   0.380   6.028 -0.2077 -0.0250  0.1389
 3145W        W 4142   5.616   1.716   4.921  0.0951 -0.1250 -0.0268
 3146W        W 4143   5.248   3.531   7.475  0.4098 -0.0341 -0.0942
 3147W        W 4144   7.433   5.486   7.462  0.2562  0.0545 -0.0480
 3148W        W 4145   2.977   2.039   7.277  0.2434 -0.0759 -0.0932
 3149W        W 4146   4.868   0.643   4.980  0.3418 -0.0463 -0.1451
 3150W        W 4147   2.237   3.522   0.178 -0.0550 -0.0243 -0.4276
 3151W        W 4148   3.460   4.625   3.448  0.1976  0.2941 -0.0770
 3152W        W 4149   0.870   2.397   2.992  0.2722  0.0129  0.1036
 3153W        W 4150   3.084   4.650   3.012  0.1504 -0.3523  0.1301
 3154W        W 4151   1.481   0.887   6.527 -0.1853 -0.1144 -0.0647
 3155W        W 4152   5.870   6.606   4.083 -0.3817 -0.0081 -0.0400
 3156W        W 4153   5.139   3.273   5.801 -0.0221 -0.0126 -0.0354
 3157W        W 4154   4.741   7.128   1.660  0.2410 -0.3527 -0.0124
 3158W        W 4155   2.604   3.621   7.064 -0.1201  0.1413  0.3439
 3159W        W 4156   5.526   0.748   3.768 -0.3422 -0.2523 -0.0731
 3160W        W 4157   6.160   2.702   5.744  0.1090  0.2166 -0.3001
 3161W        W 4158   5.576   4.582   7.120  0.0114 -0.2285 -0.2175
 3162W        W 4159   6.137   6.556   1.869  0.0935 -0.1162 -0.2197
 3163W        W 4160   6.658   2.616   2.837 -0.1579 -0.0810 -0.1012
 3164W        W 4161   4.010   3.226   1.583 -0.1421 -0.0191  0.1798
 3165W        W 4162   3.342   0.663   4.800 -0.0495 -0.2029  0.4917
 3166W        W 4163   0.417   6.563   4.422 -0.1776 -0.0247 -0.1042
 3167W        W 4164   6.728   0.306   0.080  0.2653  0.0882 -0.0090
 3168W        W 4165   3.007   7.629   0.052  0.3606 -0.1922  0.1065
 3169W        W 4166   6.351   4.405   2.320 -0.1031  0.0734  0.3738
 3170W        W 4167   1.591   7.008   6.425  0.0738 -0.1509  0.1149
 3171W        W 4168   6.258   3.477   6.446 -0.0209  0.1309  0.0650
 3172W        W 4169   4.102   4.344   2.593 -0.0856 -0.0305 -0.0968
 3173W        W 4170   2.011   3.073   3.059 -0.0391 -0.0448 -0.0090
 3174W        W 4171   2.328   2.243   6.299 -0.1338  0.0888  0.4251
 3175W        W 4172   4.788   3.184   7.044  0.0706 -0.0636  0.0844
 3176W        W 4173   0.454   1.943   4.464  0.1520  0.0844 -0.2617
 3177W        W 4174   5.705   1.308   6.860  0.2489  0.1497  0.2855
 3178W        W 4175   1.642   2.750   4.948  0.1052  0.3854 -0.1403
 3179W        W 4176   2.554   7.333   4.840  0.1926  0.2566 -0.1664
 3180W        W 4177   3.159   4.344   6.529  0.0278  0.2399 -0.3718
 3181W        W 4178   1.082   1.758   3.930  0.3185 -0.1263 -0.1667
 3182W        W 4179   0.943   2.388   6.841 -0.0197  0.1410 -0.0886
 3183W        W 4180   5.398   6.918   6.583 -0.2833 -0.1087 -0.1709
 3184W        W 4181   5.139   2.802   1.040 -0.0066 -0.1592 -0.0513
 3185W        W 4182   0.932   5.594   1.701 -0.0214  0.0656  0.1899
 3186W        W 4183   4.400   7.364   2.553  0.0595 -0.2623 -0.1440
 3187W        W 4184   3.770   3.521   3.886  0.0601 -0.3794 -0.2344
 3188W        W 4185   5.273   2.931   2.141  0.0280  0.1931 -0.0574
 3189W        W 4186   5.000   0.109   7.476  0.0703  0.1315 -0.1882
 3190W        W 4187   2.682   6.174   7.502  0.3142 -0.1201  0.1783
 3191W        W 4188   4.443   1.138   2.196 -0.1529  0.1376 -0.0004
 3192W        W 4189   5.490   2.904   4.854 -0.0394 -0.1401 -0.0608
 3193W        W 4190   4.628   4.931   3.767  0.0190  0.0004 -0.3303
 3194W        W 4191   3.681   4.450   2.900  0.2390 -0.0599 -0.1359
 3195W        W 4192   3.188   4.461   0.303 -0.0499 -0.0914  0.1936
 3196W        W 4193   2.449   2.190   4.761 -0.1581 -0.0526  0.1570
 3197W        W 4194   2.013   0.749   6.286  0.1836  0.3476 -0.1421
 3198W        W 4195   0.190   3.062   5.365 -0.2212 -0.4567  0.2049
 3199W        W 4196   5.386   3.912   0.131  0.1718 -0.2098 -0.0025
 3200W        W 4197   2.097   6.901   3.103  0.1699  0.1030  0.2013
 3201W        W 4198   2.574   0.294   3.104 -0.3278 -0.1445 -0.0001
 3202W        W 4199   4.423   7.343   6.934  0.1313  0.0027  0.0359
 3203W        W 4200   4.515   0.524   3.227  0.0582 -0.2073  0.0573
 3204W        W 4201   5.979   4.068   2.390  0.1792 -0.0382  0.1582
 3205W        W 4202   6.785   2.032   7.236 -0.3777  0.0086  0.0708
 3206W        W 4203   4.320   1.759   0.816 -0.2220  0.0630  0.1531
 3207W        W 4204   4.878   1.492   4.397  0.2788  0.0742  0.1246
 3208W        W 4205   6.046   1.438   4.119 -0.2664 -0.0131  0.2182
 3209W        W 4206   0.509   2.175   5.657  0.0739 -0.3837  0.0941
 3210W        W 4207   4.998   7.634   2.789 -0.2811  0.1426  0.0289
 3211W        W 4208   0.855   3.505   6.904  0.0235  0.1562  0.1172
 3212W        W 4209   6.701   0.862   2.380 -0.0606  0.1741 -0.4293
 3213W        W 4210   3.778   0.819   5.856  0.2057 -0.0900  0.2449
 3214W        W 4211   5.517   4.947   1.424 -0.1654 -0.0358 -0.0369
 3215W        W 4212   0.975   6.264   2.760  0.1077  0.1555  0.0739
 3216W        W 4213   6.011   6.264   6.912 -0.1235  0.0131 -0.1394
 3217W        W 4214   2.653   4.621   0.207 -0.0474 -0.1486 -0.0176
 3218W        W 4215   4.181   1.002   3.797  0.0011  0.1776 -0.0160
 3219W        W 4216   7.625   0.443   1.717 -0.1120  0.2644  0.1347
 3220W        W 4217   3.746   6.089   5.254  0.1813 -0.2043  0.0396
   7.65673   7.65673   7.65673
