Martini system from ../2_Creating_coordinates/TYR-ASN-TYR_aa.pdb
 4195
    1TYR     BB    1   6.948   6.903   2.356
    1TYR    SC1    2   6.901   6.633   2.203
    1TYR    SC2    3   6.767   6.414   2.118
    1TYR    SC3    4   7.025   6.451   2.047
    2ASN     BB    5   7.171   7.070   2.160
    2ASN    SC1    6   7.124   7.380   2.251
    3TYR     BB    7   7.243   6.890   1.875
    3TYR    SC1    8   6.967   6.824   1.751
    3TYR    SC2    9   6.716   6.734   1.792
    3TYR    SC3   10   6.798   6.797   1.543
    1TYR     BB   11   7.850   3.079   6.437
    1TYR    SC1   12   7.707   2.830   6.562
    1TYR    SC2   13   7.541   2.749   6.759
    1TYR    SC3   14   7.729   2.580   6.662
    2ASN     BB   15   7.669   3.142   6.182
    2ASN    SC1   16   7.702   3.427   6.073
    3TYR     BB   17   7.498   2.942   6.032
    3TYR    SC1   18   7.456   2.680   6.194
    3TYR    SC2   19   7.349   2.547   6.403
    3TYR    SC3   20   7.547   2.434   6.258
    1TYR     BB   21   3.325   3.460   5.650
    1TYR    SC1   22   3.372   3.407   5.355
    1TYR    SC2   23   3.521   3.356   5.136
    1TYR    SC3   24   3.264   3.434   5.109
    2ASN     BB   25   3.351   3.200   5.819
    2ASN    SC1   26   3.393   3.303   6.124
    3TYR     BB   27   3.307   2.914   5.727
    3TYR    SC1   28   3.237   2.874   5.430
    3TYR    SC2   29   3.243   2.993   5.188
    3TYR    SC3   30   3.130   2.749   5.216
    1TYR     BB   31   6.490   3.814   7.877
    1TYR    SC1   32   6.263   3.717   7.685
    1TYR    SC2   33   6.145   3.634   7.456
    1TYR    SC3   34   6.038   3.568   7.695
    2ASN     BB   35   6.576   3.540   0.036
    2ASN    SC1   36   6.813   3.415   7.894
    3TYR     BB   37   6.329   3.249   0.010
    3TYR    SC1   38   6.148   3.406   0.188
    3TYR    SC2   39   6.151   3.570   0.402
    3TYR    SC3   40   6.055   3.658   0.165
    1TYR     BB   41   2.768   6.284   2.626
    1TYR    SC1   42   2.745   6.604   2.647
    1TYR    SC2   43   2.764   6.835   2.508
    1TYR    SC3   44   2.590   6.814   2.713
    2ASN     BB   45   2.786   6.227   2.299
    2ASN    SC1   46   3.064   6.084   2.245
    3TYR     BB   47   2.671   6.478   2.157
    3TYR    SC1   48   2.425   6.559   2.336
    3TYR    SC2   49   2.174   6.634   2.401
    3TYR    SC3   50   2.317   6.479   2.570
    1TYR     BB   51   7.238   7.877   0.115
    1TYR    SC1   52   7.199   7.653   7.883
    1TYR    SC2   53   7.302   7.409   7.834
    1TYR    SC3   54   7.098   7.502   7.684
    2ASN     BB   55   7.320   7.695   0.388
    2ASN    SC1   56   7.351   7.783   0.695
    3TYR     BB   57   7.232   7.398   0.340
    3TYR    SC1   58   6.955   7.425   0.190
    3TYR    SC2   59   6.777   7.435   7.987
    3TYR    SC3   60   6.690   7.410   0.242
    1TYR     BB   61   6.428   1.586   3.599
    1TYR    SC1   62   6.628   1.368   3.678
    1TYR    SC2   63   6.883   1.303   3.738
    1TYR    SC3   64   6.679   1.190   3.874
    2ASN     BB   65   6.508   1.811   3.841
    2ASN    SC1   66   6.376   2.067   3.749
    3TYR     BB   67   6.746   1.721   3.995
    3TYR    SC1   68   6.720   1.511   4.218
    3TYR    SC2   69   6.689   1.485   4.485
    3TYR    SC3   70   6.666   1.269   4.325
    1TYR     BB   71   1.799   6.657   1.591
    1TYR    SC1   72   2.034   6.717   1.770
    1TYR    SC2   73   2.083   6.817   2.015
    1TYR    SC3   74   2.231   6.612   1.921
    2ASN     BB   75   1.544   6.748   1.812
    2ASN    SC1   76   1.306   6.719   1.610
    3TYR     BB   77   1.627   7.059   1.938
    3TYR    SC1   78   1.711   6.997   2.234
    3TYR    SC2   79   1.736   7.037   2.500
    3TYR    SC3   80   1.761   6.788   2.399
    1TYR     BB   81   7.310   1.770   1.607
    1TYR    SC1   82   7.095   1.575   1.512
    1TYR    SC2   83   6.892   1.528   1.340
    1TYR    SC3   84   7.035   1.322   1.439
    2ASN     BB   85   7.241   2.051   1.423
    2ASN    SC1   86   7.470   2.235   1.519
    3TYR     BB   87   7.017   2.030   1.236
    3TYR    SC1   88   6.913   2.279   1.072
    3TYR    SC2   89   6.697   2.437   1.033
    3TYR    SC3   90   6.914   2.462   0.873
    1TYR     BB   91   0.834   1.431   4.924
    1TYR    SC1   92   0.681   1.369   5.198
    1TYR    SC2   93   0.574   1.184   5.363
    1TYR    SC3   94   0.681   1.410   5.464
    2ASN     BB   95   1.140   1.406   5.025
    2ASN    SC1   96   1.306   1.209   4.845
    3TYR     BB   97   1.164   1.332   5.340
    3TYR    SC1   98   1.136   1.564   5.530
    3TYR    SC2   99   0.993   1.720   5.697
    3TYR    SC3  100   1.263   1.728   5.703
    1TYR     BB  101   2.543   6.387   4.481
    1TYR    SC1  102   2.796   6.508   4.619
    1TYR    SC2  103   2.908   6.645   4.823
    1TYR    SC3  104   3.054   6.466   4.684
    2ASN     BB  105   2.372   6.307   4.772
    2ASN    SC1  106   2.138   6.121   4.663
    3TYR     BB  107   2.517   6.442   5.076
    3TYR    SC1  108   2.509   6.354   5.387
    3TYR    SC2  109   2.437   6.383   5.646
    3TYR    SC3  110   2.622   6.199   5.577
    1TYR     BB  111   2.018   7.251   6.686
    1TYR    SC1  112   2.219   7.361   6.487
    1TYR    SC2  113   2.387   7.314   6.281
    1TYR    SC3  114   2.430   7.524   6.445
    2ASN     BB  115   1.729   7.344   6.619
    2ASN    SC1  116   1.533   7.221   6.830
    3TYR     BB  117   1.705   7.582   6.433
    3TYR    SC1  118   1.967   7.681   6.302
    3TYR    SC2  119   2.155   7.673   6.107
    3TYR    SC3  120   2.150   7.879   6.282
    1TYR     BB  121   4.750   5.496   4.269
    1TYR    SC1  122   4.847   5.750   4.149
    1TYR    SC2  123   4.949   5.963   4.280
    1TYR    SC3  124   4.872   5.987   4.022
    2ASN     BB  125   4.446   5.459   4.209
    2ASN    SC1  126   4.308   5.284   4.418
    3TYR     BB  127   4.413   5.336   3.911
    3TYR    SC1  128   4.653   5.477   3.776
    3TYR    SC2  129   4.860   5.505   3.604
    3TYR    SC3  130   4.717   5.722   3.680
    1TYR     BB  131   0.037   4.432   0.201
    1TYR    SC1  132   7.824   4.482   0.416
    1TYR    SC2  133   7.683   4.370   0.618
    1TYR    SC3  134   7.678   4.637   0.582
    2ASN     BB  135   0.109   4.118   0.222
    2ASN    SC1  136   0.275   4.045   7.964
    3TYR     BB  137   0.045   3.976   0.489
    3TYR    SC1  138   0.076   4.177   0.724
    3TYR    SC2  139   0.036   4.280   0.970
    3TYR    SC3  140   0.111   4.441   0.766
    1TYR     BB  141   0.422   4.764   1.599
    1TYR    SC1  142   0.625   4.627   1.410
    1TYR    SC2  143   0.656   4.416   1.245
    1TYR    SC3  144   0.819   4.630   1.223
    2ASN     BB  145   0.239   4.944   1.392
    2ASN    SC1  146   0.017   5.083   1.554
    3TYR     BB  147   0.356   5.051   1.151
    3TYR    SC1  148   0.503   4.847   0.974
    3TYR    SC2  149   0.511   4.600   0.865
    3TYR    SC3  150   0.691   4.787   0.790
    1TYR     BB  151   3.071   0.999   7.838
    1TYR    SC1  152   3.273   0.787   7.737
    1TYR    SC2  153   3.527   0.769   7.645
    1TYR    SC3  154   3.416   0.561   7.776
    2ASN     BB  155   3.287   1.262   7.863
    2ASN    SC1  156   3.439   1.275   7.582
    3TYR     BB  157   3.582   1.213   0.068
    3TYR    SC1  158   3.546   0.910   0.106
    3TYR    SC2  159   3.613   0.669   0.209
    3TYR    SC3  160   3.354   0.744   0.198
    1TYR     BB  161   5.495   0.062   1.746
    1TYR    SC1  162   5.280   0.278   1.784
    1TYR    SC2  163   5.199   0.532   1.741
    1TYR    SC3  164   5.020   0.344   1.814
    2ASN     BB  165   5.503   0.043   1.403
    2ASN    SC1  166   5.503   7.752   1.302
    3TYR     BB  167   5.343   0.243   1.280
    3TYR    SC1  168   5.061   0.279   1.370
    3TYR    SC2  169   4.852   0.450   1.380
    3TYR    SC3  170   4.813   0.186   1.419
    1TYR     BB  171   3.952   5.420   4.763
    1TYR    SC1  172   3.686   5.485   4.903
    1TYR    SC2  173   3.576   5.672   5.063
    1TYR    SC3  174   3.432   5.566   4.861
    2ASN     BB  175   4.161   5.654   4.872
    2ASN    SC1  176   4.442   5.662   4.720
    3TYR     BB  177   4.076   5.774   5.131
    3TYR    SC1  178   3.878   5.980   5.210
    3TYR    SC2  179   3.781   6.060   5.449
    3TYR    SC3  180   3.647   6.120   5.222
    1TYR     BB  181   5.622   2.706   0.277
    1TYR    SC1  182   5.716   2.645   7.990
    1TYR    SC2  183   5.689   2.455   7.800
    1TYR    SC3  184   5.814   2.687   7.742
    2ASN     BB  185   5.291   2.636   0.272
    2ASN    SC1  186   5.204   2.454   0.526
    3TYR     BB  187   5.182   2.481   7.994
    3TYR    SC1  188   5.289   2.660   7.768
    3TYR    SC2  189   5.399   2.751   7.539
    3TYR    SC3  190   5.414   2.900   7.764
    1TYR     BB  191   0.459   5.306   7.773
    1TYR    SC1  192   0.303   5.483   7.556
    1TYR    SC2  193   0.319   5.688   7.381
    1TYR    SC3  194   0.122   5.504   7.357
    2ASN     BB  195   0.792   5.335   7.691
    2ASN    SC1  196   0.968   5.397   7.943
    3TYR     BB  197   0.796   5.483   7.416
    3TYR    SC1  198   0.593   5.334   7.241
    3TYR    SC2  199   0.400   5.309   7.053
    3TYR    SC3  200   0.420   5.127   7.252
    1TYR     BB  201   2.516   2.828   4.156
    1TYR    SC1  202   2.618   2.536   4.088
    1TYR    SC2  203   2.635   2.282   3.998
    1TYR    SC3  204   2.842   2.451   3.963
    2ASN     BB  205   2.670   2.962   3.867
    2ASN    SC1  206   2.888   3.167   3.922
    3TYR     BB  207   2.636   2.794   3.649
    3TYR    SC1  208   2.581   2.783   3.358
    3TYR    SC2  209   2.495   2.855   3.113
    3TYR    SC3  210   2.715   2.701   3.138
    1TYR     BB  211   5.989   0.465   2.866
    1TYR    SC1  212   6.120   0.714   2.990
    1TYR    SC2  213   5.997   0.916   3.120
    1TYR    SC3  214   6.246   0.841   3.192
    2ASN     BB  215   5.834   0.362   3.158
    2ASN    SC1  216   5.677   0.104   3.119
    3TYR     BB  217   5.809   0.569   3.414
    3TYR    SC1  218   6.078   0.560   3.555
    3TYR    SC2  219   6.183   0.462   3.784
    3TYR    SC3  220   6.329   0.627   3.629
    1TYR     BB  221   2.012   4.481   5.105
    1TYR    SC1  222   2.162   4.754   5.151
    1TYR    SC2  223   2.363   4.932   5.181
    1TYR    SC3  224   2.165   4.920   5.364
    2ASN     BB  225   1.902   4.410   5.386
    2ASN    SC1  226   1.751   4.156   5.430
    3TYR     BB  227   1.772   4.669   5.561
    3TYR    SC1  228   1.973   4.642   5.792
    3TYR    SC2  229   2.142   4.534   5.972
    3TYR    SC3  230   2.235   4.705   5.785
    1TYR     BB  231   4.165   1.385   2.999
    1TYR    SC1  232   4.236   1.083   3.001
    1TYR    SC2  233   4.148   0.828   3.015
    1TYR    SC3  234   4.361   0.889   2.860
    2ASN     BB  235   4.340   1.435   2.687
    2ASN    SC1  236   4.618   1.478   2.790
    3TYR     BB  237   4.306   1.225   2.487
    3TYR    SC1  238   4.383   0.945   2.393
    3TYR    SC2  239   4.342   0.745   2.217
    3TYR    SC3  240   4.490   0.701   2.438
    1TYR     BB  241   2.961   4.698   2.116
    1TYR    SC1  242   3.221   4.681   2.293
    1TYR    SC2  243   3.480   4.757   2.289
    1TYR    SC3  244   3.391   4.591   2.483
    2ASN     BB  245   2.786   4.961   2.159
    2ASN    SC1  246   2.786   5.117   1.877
    3TYR     BB  247   2.800   5.250   2.382
    3TYR    SC1  248   3.003   5.146   2.591
    3TYR    SC2  249   3.048   5.032   2.831
    3TYR    SC3  250   3.238   5.022   2.639
    1TYR     BB  251   1.291   5.336   7.493
    1TYR    SC1  252   1.243   5.622   7.604
    1TYR    SC2  253   1.077   5.833   7.638
    1TYR    SC3  254   1.276   5.786   7.816
    2ASN     BB  255   1.595   5.351   7.385
    2ASN    SC1  256   1.783   5.162   7.538
    3TYR     BB  257   1.668   5.575   7.176
    3TYR    SC1  258   1.402   5.667   7.055
    3TYR    SC2  259   1.199   5.723   6.886
    3TYR    SC3  260   1.151   5.694   7.151
    1TYR     BB  261   0.008   7.664   1.295
    1TYR    SC1  262   0.308   7.558   1.296
    1TYR    SC2  263   0.571   7.572   1.355
    1TYR    SC3  264   0.480   7.384   1.184
    2ASN     BB  265   7.880   7.562   1.580
    2ASN    SC1  266   7.573   7.665   1.594
    3TYR     BB  267   0.067   7.352   1.760
    3TYR    SC1  268   0.365   7.271   1.664
    3TYR    SC2  269   0.630   7.285   1.714
    3TYR    SC3  270   0.534   7.099   1.543
    1TYR     BB  271   4.128   7.606   1.443
    1TYR    SC1  272   4.425   7.623   1.356
    1TYR    SC2  273   4.662   7.743   1.403
    1TYR    SC3  274   4.634   7.577   1.192
    2ASN     BB  275   4.104   7.275   1.528
    2ASN    SC1  276   3.857   7.284   1.727
    3TYR     BB  277   4.389   7.102   1.509
    3TYR    SC1  278   4.507   7.130   1.231
    3TYR    SC2  279   4.725   7.148   1.073
    3TYR    SC3  280   4.512   7.002   0.993
    1TYR     BB  281   0.787   3.657   3.546
    1TYR    SC1  282   0.699   3.379   3.454
    1TYR    SC2  283   0.551   3.230   3.284
    1TYR    SC3  284   0.642   3.121   3.514
    2ASN     BB  285   0.483   3.802   3.501
    2ASN    SC1  286   0.434   4.022   3.708
    3TYR     BB  287   0.251   3.630   3.376
    3TYR    SC1  288   0.275   3.591   3.060
    3TYR    SC2  289   0.112   3.580   2.846
    3TYR    SC3  290   0.358   3.468   2.835
    1TYR     BB  291   3.145   1.734   1.549
    1TYR    SC1  292   3.146   1.520   1.771
    1TYR    SC2  293   3.151   1.551   2.039
    1TYR    SC3  294   3.037   1.331   1.931
    2ASN     BB  295   3.123   2.003   1.738
    2ASN    SC1  296   2.844   2.085   1.876
    3TYR     BB  297   3.341   2.039   1.963
    3TYR    SC1  298   3.185   1.972   2.231
    3TYR    SC2  299   3.054   2.044   2.456
    3TYR    SC3  300   3.172   1.801   2.440
    1TYR     BB  301   3.850   5.721   7.227
    1TYR    SC1  302   3.892   5.742   7.526
    1TYR    SC2  303   4.037   5.791   7.748
    1TYR    SC3  304   3.807   5.650   7.766
    2ASN     BB  305   3.554   5.777   7.145
    2ASN    SC1  306   3.421   5.521   7.006
    3TYR     BB  307   3.482   6.056   7.258
    3TYR    SC1  308   3.550   6.063   7.559
    3TYR    SC2  309   3.712   6.131   7.764
    3TYR    SC3  310   3.488   5.988   7.811
    1TYR     BB  311   6.998   4.621   4.433
    1TYR    SC1  312   6.959   4.365   4.264
    1TYR    SC2  313   7.011   4.101   4.243
    1TYR    SC3  314   6.913   4.236   4.031
    2ASN     BB  315   6.685   4.728   4.495
    2ASN    SC1  316   6.656   4.711   4.809
    3TYR     BB  317   6.454   4.573   4.368
    3TYR    SC1  318   6.504   4.292   4.265
    3TYR    SC2  319   6.568   4.030   4.245
    3TYR    SC3  320   6.355   4.127   4.111
    1TYR     BB  321   4.997   4.425   7.524
    1TYR    SC1  322   4.971   4.299   7.250
    1TYR    SC2  323   4.739   4.197   7.157
    1TYR    SC3  324   4.951   4.223   6.992
    2ASN     BB  325   4.647   4.592   7.480
    2ASN    SC1  326   4.761   4.877   7.482
    3TYR     BB  327   4.413   4.570   7.240
    3TYR    SC1  328   4.605   4.607   6.991
    3TYR    SC2  329   4.720   4.710   6.770
    3TYR    SC3  330   4.864   4.682   6.996
    1TYR     BB  331   2.421   5.413   4.243
    1TYR    SC1  332   2.679   5.489   4.098
    1TYR    SC2  333   2.882   5.668   4.098
    1TYR    SC3  334   2.834   5.518   3.879
    2ASN     BB  335   2.503   5.126   4.400
    2ASN    SC1  336   2.476   5.143   4.713
    3TYR     BB  337   2.745   4.994   4.259
    3TYR    SC1  338   2.715   5.052   3.966
    3TYR    SC2  339   2.696   4.967   3.710
    3TYR    SC3  340   2.531   5.161   3.801
    1TYR     BB  341   4.067   3.889   4.181
    1TYR    SC1  342   3.959   3.631   4.300
    1TYR    SC2  343   3.874   3.433   4.463
    1TYR    SC3  344   3.813   3.428   4.200
    2ASN     BB  345   3.827   3.900   3.928
    2ASN    SC1  346   3.902   4.167   3.798
    3TYR     BB  347   3.522   3.811   4.047
    3TYR    SC1  348   3.304   3.722   3.850
    3TYR    SC2  349   3.144   3.804   3.649
    3TYR    SC3  350   3.156   3.542   3.713
    1TYR     BB  351   0.430   2.956   2.817
    1TYR    SC1  352   0.211   3.074   2.631
    1TYR    SC2  353   0.127   3.148   2.386
    1TYR    SC3  354   7.977   3.206   2.603
    2ASN     BB  355   0.457   2.636   2.745
    2ASN    SC1  356   0.687   2.485   2.899
    3TYR     BB  357   0.311   2.527   2.516
    3TYR    SC1  358   0.067   2.694   2.424
    3TYR    SC2  359   7.917   2.789   2.221
    3TYR    SC3  360   7.812   2.770   2.469
    1TYR     BB  361   4.269   6.701   2.774
    1TYR    SC1  362   4.207   6.967   2.651
    1TYR    SC2  363   4.121   7.222   2.638
    1TYR    SC3  364   4.052   7.047   2.445
    2ASN     BB  365   4.000   6.510   2.667
    2ASN    SC1  366   4.065   6.234   2.808
    3TYR     BB  367   3.767   6.516   2.415
    3TYR    SC1  368   3.760   6.772   2.225
    3TYR    SC2  369   3.723   6.852   1.970
    3TYR    SC3  370   3.687   7.026   2.173
    1TYR     BB  371   1.982   1.042   5.253
    1TYR    SC1  372   1.818   1.278   5.193
    1TYR    SC2  373   1.618   1.459   5.179
    1TYR    SC3  374   1.758   1.395   4.958
    2ASN     BB  375   2.180   1.141   5.490
    2ASN    SC1  376   2.400   0.921   5.495
    3TYR     BB  377   2.155   1.406   5.578
    3TYR    SC1  378   1.927   1.614   5.550
    3TYR    SC2  379   1.690   1.742   5.523
    3TYR    SC3  380   1.904   1.873   5.622
    1TYR     BB  381   2.241   2.431   1.865
    1TYR    SC1  382   1.997   2.617   1.923
    1TYR    SC2  383   1.909   2.854   2.019
    1TYR    SC3  384   1.810   2.756   1.787
    2ASN     BB  385   2.382   2.573   1.613
    2ASN    SC1  386   2.651   2.433   1.558
    3TYR     BB  387   2.240   2.838   1.533
    3TYR    SC1  388   2.051   2.791   1.303
    3TYR    SC2  389   1.989   2.651   1.081
    3TYR    SC3  390   1.891   2.900   1.115
    1TYR     BB  391   6.445   5.941   3.383
    1TYR    SC1  392   6.703   5.969   3.212
    1TYR    SC2  393   6.938   5.852   3.149
    1TYR    SC3  394   6.878   6.096   3.050
    2ASN     BB  395   6.353   5.621   3.281
    2ASN    SC1  396   6.125   5.509   3.471
    3TYR     BB  397   6.611   5.442   3.183
    3TYR    SC1  398   6.679   5.560   2.904
    3TYR    SC2  399   6.703   5.565   2.635
    3TYR    SC3  400   6.663   5.795   2.772
    1TYR     BB  401   0.856   1.655   3.930
    1TYR    SC1  402   1.000   1.377   3.972
    1TYR    SC2  403   1.097   1.165   3.837
    1TYR    SC3  404   1.048   1.145   4.101
    2ASN     BB  405   1.028   1.945   3.933
    2ASN    SC1  406   0.861   2.166   3.799
    3TYR     BB  407   1.233   1.961   4.168
    3TYR    SC1  408   1.202   1.687   4.308
    3TYR    SC2  409   1.295   1.436   4.345
    3TYR    SC3  410   1.053   1.506   4.442
    1TYR     BB  411   3.005   5.533   1.019
    1TYR    SC1  412   3.267   5.407   0.904
    1TYR    SC2  413   3.343   5.193   0.758
    1TYR    SC3  414   3.456   5.434   0.713
    2ASN     BB  415   2.832   5.483   0.710
    2ASN    SC1  416   2.797   5.763   0.578
    3TYR     BB  417   2.766   5.253   0.505
    3TYR    SC1  418   3.010   5.079   0.437
    3TYR    SC2  419   3.138   4.854   0.516
    3TYR    SC3  420   3.142   4.928   0.256
    1TYR     BB  421   5.651   6.107   6.266
    1TYR    SC1  422   5.868   6.282   6.148
    1TYR    SC2  423   6.094   6.428   6.134
    1TYR    SC3  424   6.046   6.234   5.952
    2ASN     BB  425   5.519   5.988   5.949
    2ASN    SC1  426   5.425   5.702   6.053
    3TYR     BB  427   5.700   5.950   5.679
    3TYR    SC1  428   5.605   6.037   5.398
    3TYR    SC2  429   5.707   6.138   5.169
    3TYR    SC3  430   5.457   6.205   5.246
    1TYR     BB  431   4.358   4.086   5.792
    1TYR    SC1  432   4.190   3.881   5.937
    1TYR    SC2  433   4.212   3.639   6.054
    1TYR    SC3  434   4.030   3.816   6.144
    2ASN     BB  435   4.662   4.022   5.909
    2ASN    SC1  436   4.845   4.204   5.713
    3TYR     BB  437   4.657   3.897   6.228
    3TYR    SC1  438   4.413   3.820   6.413
    3TYR    SC2  439   4.259   3.625   6.520
    3TYR    SC3  440   4.211   3.883   6.581
    1TYR     BB  441   3.223   2.960   6.990
    1TYR    SC1  442   3.366   3.132   7.194
    1TYR    SC2  443   3.376   3.317   7.391
    1TYR    SC3  444   3.590   3.279   7.231
    2ASN     BB  445   3.172   2.675   7.107
    2ASN    SC1  446   3.024   2.487   6.922
    3TYR     BB  447   3.217   2.627   7.422
    3TYR    SC1  448   3.485   2.762   7.473
    3TYR    SC2  449   3.633   2.970   7.559
    3TYR    SC3  450   3.755   2.748   7.467
    1TYR     BB  451   5.627   2.213   2.957
    1TYR    SC1  452   5.374   2.403   3.013
    1TYR    SC2  453   5.395   2.672   3.019
    1TYR    SC3  454   5.183   2.551   3.134
    2ASN     BB  455   5.665   2.231   2.661
    2ASN    SC1  456   5.766   1.996   2.484
    3TYR     BB  457   5.467   2.475   2.528
    3TYR    SC1  458   5.476   2.369   2.233
    3TYR    SC2  459   5.662   2.309   2.046
    3TYR    SC3  460   5.440   2.158   2.069
    1TYR     BB  461   6.279   3.191   1.890
    1TYR    SC1  462   6.476   3.265   1.657
    1TYR    SC2  463   6.558   3.203   1.407
    1TYR    SC3  464   6.534   3.461   1.481
    2ASN     BB  465   6.002   3.194   1.707
    2ASN    SC1  466   5.767   3.141   1.893
    3TYR     BB  467   6.023   3.316   1.420
    3TYR    SC1  468   6.108   3.615   1.438
    3TYR    SC2  469   6.083   3.849   1.572
    3TYR    SC3  470   6.258   3.827   1.367
    1TYR     BB  471   0.103   2.894   7.810
    1TYR    SC1  472   0.308   2.765   0.017
    1TYR    SC2  473   0.473   2.853   0.211
    1TYR    SC3  474   0.403   2.593   0.202
    2ASN     BB  475   7.876   2.959   0.100
    2ASN    SC1  476   7.722   3.209   0.014
    3TYR     BB  477   7.966   2.813   0.400
    3TYR    SC1  478   0.191   2.970   0.551
    3TYR    SC2  479   0.388   3.154   0.573
    3TYR    SC3  480   0.254   3.072   0.793
    1TYR     BB  481   5.992   7.006   2.613
    1TYR    SC1  482   6.079   6.746   2.745
    1TYR    SC2  483   6.293   6.584   2.777
    1TYR    SC3  484   6.138   6.647   2.989
    2ASN     BB  485   6.266   7.198   2.740
    2ASN    SC1  486   6.138   7.473   2.757
    3TYR     BB  487   6.469   7.052   2.939
    3TYR    SC1  488   6.623   7.028   3.216
    3TYR    SC2  489   6.834   6.895   3.320
    3TYR    SC3  490   6.682   7.052   3.478
    1TYR     BB  491   6.421   2.880   3.852
    1TYR    SC1  492   6.488   3.142   3.724
    1TYR    SC2  493   6.610   3.361   3.624
    1TYR    SC3  494   6.341   3.342   3.618
    2ASN     BB  495   6.643   2.675   3.895
    2ASN    SC1  496   6.535   2.432   4.044
    3TYR     BB  497   6.882   2.687   3.708
    3TYR    SC1  498   6.813   2.875   3.486
    3TYR    SC2  499   6.867   3.100   3.349
    3TYR    SC3  500   6.736   2.897   3.228
    1TYR     BB  501   1.646   3.647   5.419
    1TYR    SC1  502   1.445   3.805   5.598
    1TYR    SC2  503   1.368   3.813   5.856
    1TYR    SC3  504   1.320   4.023   5.694
    2ASN     BB  505   1.929   3.706   5.623
    2ASN    SC1  506   2.236   3.608   5.598
    3TYR     BB  507   1.876   3.780   5.941
    3TYR    SC1  508   1.734   4.054   5.967
    3TYR    SC2  509   1.540   4.189   6.098
    3TYR    SC3  510   1.681   4.310   5.902
    1TYR     BB  511   2.782   0.204   3.564
    1TYR    SC1  512   2.540   0.014   3.650
    1TYR    SC2  513   2.343   7.833   3.614
    1TYR    SC3  514   2.357   7.973   3.844
    2ASN     BB  515   3.004   0.127   3.800
    2ASN    SC1  516   3.300   0.112   3.701
    3TYR     BB  517   2.899   7.951   4.031
    3TYR    SC1  518   2.939   0.105   4.302
    3TYR    SC2  519   2.938   0.098   4.572
    3TYR    SC3  520   2.959   0.334   4.443
    1TYR     BB  521   0.686   7.005   4.323
    1TYR    SC1  522   0.683   7.135   4.610
    1TYR    SC2  523   0.539   7.155   4.838
    1TYR    SC3  524   0.808   7.181   4.845
    2ASN     BB  525   0.410   6.820   4.326
    2ASN    SC1  526   0.247   6.877   4.064
    3TYR     BB  527   0.346   6.733   4.621
    3TYR    SC1  528   0.625   6.702   4.764
    3TYR    SC2  529   0.800   6.741   4.966
    3TYR    SC3  530   0.888   6.733   4.710
    1TYR     BB  531   1.054   4.286   6.822
    1TYR    SC1  532   0.889   4.126   7.042
    1TYR    SC2  533   0.829   3.902   7.181
    1TYR    SC3  534   0.887   4.131   7.312
    2ASN     BB  535   1.276   4.430   7.079
    2ASN    SC1  536   1.503   4.594   6.936
    3TYR     BB  537   1.363   4.315   7.372
    3TYR    SC1  538   1.172   4.408   7.597
    3TYR    SC2  539   1.120   4.427   7.861
    3TYR    SC3  540   0.917   4.430   7.683
    1TYR     BB  541   0.748   3.508   7.945
    1TYR    SC1  542   0.601   3.707   7.773
    1TYR    SC2  543   0.621   3.915   7.602
    1TYR    SC3  544   0.427   3.731   7.568
    2ASN     BB  545   0.518   3.236   7.890
    2ASN    SC1  546   0.517   3.213   7.572
    3TYR     BB  547   0.266   3.290   0.097
    3TYR    SC1  548   0.354   3.532   0.266
    3TYR    SC2  549   0.367   3.612   0.524
    3TYR    SC3  550   0.493   3.754   0.332
    1TYR     BB  551   0.817   5.867   5.891
    1TYR    SC1  552   1.038   5.970   6.076
    1TYR    SC2  553   1.225   6.161   6.032
    1TYR    SC3  554   1.108   6.139   6.275
    2ASN     BB  555   0.714   6.189   5.800
    2ASN    SC1  556   0.944   6.304   5.635
    3TYR     BB  557   0.694   6.351   6.104
    3TYR    SC1  558   0.923   6.555   6.066
    3TYR    SC2  559   1.047   6.724   5.895
    3TYR    SC3  560   1.187   6.602   6.091
    1TYR     BB  561   0.537   4.580   3.487
    1TYR    SC1  562   0.590   4.325   3.322
    1TYR    SC2  563   0.461   4.141   3.172
    1TYR    SC3  564   0.655   4.293   3.062
    2ASN     BB  565   0.347   4.707   3.189
    2ASN    SC1  566   0.310   4.999   3.264
    3TYR     BB  567   0.144   4.486   3.033
    3TYR    SC1  568   0.262   4.447   2.754
    3TYR    SC2  569   0.320   4.404   2.494
    3TYR    SC3  570   0.511   4.494   2.662
    1TYR     BB  571   5.580   3.968   2.055
    1TYR    SC1  572   5.687   4.202   2.224
    1TYR    SC2  573   5.617   4.448   2.309
    1TYR    SC3  574   5.798   4.304   2.448
    2ASN     BB  575   5.227   4.038   2.188
    2ASN    SC1  576   5.015   3.976   1.981
    3TYR     BB  577   5.189   4.199   2.447
    3TYR    SC1  578   5.408   4.134   2.659
    3TYR    SC2  579   5.426   4.129   2.929
    3TYR    SC3  580   5.626   4.027   2.778
    1TYR     BB  581   1.220   4.325   1.280
    1TYR    SC1  582   1.021   4.344   1.530
    1TYR    SC2  583   0.794   4.259   1.648
    1TYR    SC3  584   0.941   4.454   1.764
    2ASN     BB  585   1.403   4.056   1.360
    2ASN    SC1  586   1.529   3.904   1.103
    3TYR     BB  587   1.244   3.874   1.575
    3TYR    SC1  588   1.183   4.022   1.831
    3TYR    SC2  589   1.004   4.083   2.024
    3TYR    SC3  590   1.249   4.196   2.026
    1TYR     BB  591   7.973   6.572   5.451
    1TYR    SC1  592   0.198   6.586   5.643
    1TYR    SC2  593   0.274   6.457   5.867
    1TYR    SC3  594   0.453   6.604   5.728
    2ASN     BB  595   7.791   6.297   5.599
    2ASN    SC1  596   7.529   6.356   5.439
    3TYR     BB  597   7.835   6.172   5.896
    3TYR    SC1  598   0.082   5.986   5.915
    3TYR    SC2  599   0.338   5.982   6.000
    3TYR    SC3  600   0.243   5.781   5.847
    1TYR     BB  601   1.550   7.840   2.925
    1TYR    SC1  602   1.397   0.106   2.904
    1TYR    SC2  603   1.228   0.239   2.740
    1TYR    SC3  604   1.343   0.367   2.949
    2ASN     BB  605   1.375   7.633   3.109
    2ASN    SC1  606   1.583   7.438   3.229
    3TYR     BB  607   1.112   7.712   3.210
    3TYR    SC1  608   1.053   0.018   3.183
    3TYR    SC2  609   0.915   0.221   3.072
    3TYR    SC3  610   1.065   0.265   3.292
    1TYR     BB  611   4.033   6.718   4.600
    1TYR    SC1  612   3.970   7.008   4.583
    1TYR    SC2  613   4.039   7.267   4.549
    1TYR    SC3  614   3.795   7.204   4.646
    2ASN     BB  615   3.918   6.552   4.360
    2ASN    SC1  616   3.994   6.251   4.374
    3TYR     BB  617   3.731   6.676   4.159
    3TYR    SC1  618   3.715   6.988   4.199
    3TYR    SC2  619   3.812   7.235   4.152
    3TYR    SC3  620   3.560   7.204   4.245
    1TYR     BB  621   4.746   2.395   3.952
    1TYR    SC1  622   4.972   2.194   3.952
    1TYR    SC2  623   5.129   2.079   3.764
    1TYR    SC3  624   5.197   2.064   4.025
    2ASN     BB  625   4.747   2.445   3.598
    2ASN    SC1  626   4.820   2.736   3.571
    3TYR     BB  627   4.843   2.263   3.384
    3TYR    SC1  628   5.104   2.140   3.307
    3TYR    SC2  629   5.220   1.980   3.122
    3TYR    SC3  630   5.355   2.048   3.346
    1TYR     BB  631   6.205   5.305   5.880
    1TYR    SC1  632   6.204   5.345   6.186
    1TYR    SC2  633   6.318   5.518   6.360
    1TYR    SC3  634   6.104   5.372   6.436
    2ASN     BB  635   6.535   5.499   5.847
    2ASN    SC1  636   6.440   5.792   5.902
    3TYR     BB  637   6.734   5.420   6.096
    3TYR    SC1  638   6.768   5.666   6.281
    3TYR    SC2  639   6.668   5.745   6.519
    3TYR    SC3  640   6.782   5.925   6.354
    1TYR     BB  641   6.045   4.531   0.269
    1TYR    SC1  642   5.784   4.639   0.375
    1TYR    SC2  643   5.527   4.664   0.296
    1TYR    SC3  644   5.621   4.817   0.497
    2ASN     BB  645   5.966   4.189   0.242
    2ASN    SC1  646   6.074   4.111   7.970
    3TYR     BB  647   5.879   4.009   0.506
    3TYR    SC1  648   5.732   4.237   0.673
    3TYR    SC2  649   5.523   4.407   0.696
    3TYR    SC3  650   5.740   4.437   0.855
    1TYR     BB  651   1.460   3.323   4.068
    1TYR    SC1  652   1.576   3.055   3.954
    1TYR    SC2  653   1.661   2.800   3.977
    1TYR    SC3  654   1.662   2.921   3.735
    2ASN     BB  655   1.136   3.199   4.114
    2ASN    SC1  656   0.966   3.343   3.897
    3TYR     BB  657   1.131   2.917   4.243
    3TYR    SC1  658   1.199   2.702   4.034
    3TYR    SC2  659   1.209   2.432   4.028
    3TYR    SC3  660   1.304   2.575   3.820
    1TYR     BB  661   2.030   1.727   0.697
    1TYR    SC1  662   1.879   1.979   0.838
    1TYR    SC2  663   1.635   2.027   0.942
    1TYR    SC3  664   1.844   2.184   1.010
    2ASN     BB  665   1.777   1.502   0.741
    2ASN    SC1  666   1.709   1.352   0.475
    3TYR     BB  667   1.653   1.514   1.029
    3TYR    SC1  668   1.860   1.681   1.190
    3TYR    SC2  669   1.905   1.889   1.356
    3TYR    SC3  670   2.103   1.799   1.196
    1TYR     BB  671   1.382   5.652   2.980
    1TYR    SC1  672   1.526   5.425   2.845
    1TYR    SC2  673   1.642   5.185   2.885
    1TYR    SC3  674   1.714   5.336   2.674
    2ASN     BB  675   1.026   5.605   2.918
    2ASN    SC1  676   0.990   5.892   2.805
    3TYR     BB  677   0.946   5.394   2.703
    3TYR    SC1  678   1.201   5.392   2.514
    3TYR    SC2  679   1.346   5.301   2.305
    3TYR    SC3  680   1.397   5.545   2.409
    1TYR     BB  681   6.724   3.136   6.167
    1TYR    SC1  682   6.680   3.304   5.914
    1TYR    SC2  683   6.715   3.282   5.648
    1TYR    SC3  684   6.523   3.445   5.746
    2ASN     BB  685   6.536   2.846   6.030
    2ASN    SC1  686   6.386   2.767   6.281
    3TYR     BB  687   6.546   2.658   5.760
    3TYR    SC1  688   6.442   2.859   5.550
    3TYR    SC2  689   6.418   3.045   5.356
    3TYR    SC3  690   6.295   3.081   5.593
    1TYR     BB  691   7.164   6.561   7.688
    1TYR    SC1  692   7.060   6.849   7.779
    1TYR    SC2  693   6.888   7.057   7.762
    1TYR    SC3  694   7.062   7.042   7.968
    2ASN     BB  695   7.166   6.415   0.007
    2ASN    SC1  696   7.111   6.100   0.005
    3TYR     BB  697   7.130   6.640   0.270
    3TYR    SC1  698   7.167   6.449   0.509
    3TYR    SC2  699   7.188   6.324   0.747
    3TYR    SC3  700   7.193   6.180   0.518
    1TYR     BB  701   6.255   7.149   5.709
    1TYR    SC1  702   6.374   6.995   5.949
    1TYR    SC2  703   6.351   6.816   6.150
    1TYR    SC3  704   6.577   6.824   6.002
    2ASN     BB  705   6.467   7.021   5.474
    2ASN    SC1  706   6.296   6.931   5.237
    3TYR     BB  707   6.739   6.979   5.527
    3TYR    SC1  708   6.950   7.169   5.416
    3TYR    SC2  709   7.208   7.246   5.413
    3TYR    SC3  710   7.020   7.402   5.300
    1TYR     BB  711   4.375   1.579   1.761
    1TYR    SC1  712   4.234   1.803   1.592
    1TYR    SC2  713   4.254   2.069   1.551
    1TYR    SC3  714   4.070   1.925   1.416
    2ASN     BB  715   4.702   1.646   1.772
    2ASN    SC1  716   4.851   1.420   1.609
    3TYR     BB  717   4.765   1.942   1.636
    3TYR    SC1  718   4.626   1.891   1.356
    3TYR    SC2  719   4.467   1.892   1.139
    3TYR    SC3  720   4.532   1.659   1.257
    1TYR     BB  721   6.672   4.404   7.068
    1TYR    SC1  722   6.462   4.177   7.123
    1TYR    SC2  723   6.423   3.923   7.205
    1TYR    SC3  724   6.216   4.068   7.111
    2ASN     BB  725   6.561   4.709   7.155
    2ASN    SC1  726   6.565   4.889   6.895
    3TYR     BB  727   6.509   4.744   7.492
    3TYR    SC1  728   6.528   4.435   7.561
    3TYR    SC2  729   6.656   4.197   7.563
    3TYR    SC3  730   6.386   4.206   7.572
    1TYR     BB  731   0.579   5.896   3.109
    1TYR    SC1  732   0.307   5.864   2.956
    1TYR    SC2  733   0.149   6.011   2.795
    1TYR    SC3  734   0.127   5.742   2.797
    2ASN     BB  735   0.660   6.203   3.021
    2ASN    SC1  736   0.828   6.354   3.220
    3TYR     BB  737   0.615   6.271   2.720
    3TYR    SC1  738   0.564   5.994   2.578
    3TYR    SC2  739   0.443   5.837   2.396
    3TYR    SC3  740   0.562   5.726   2.611
    1TYR     BB  741   3.129   1.328   6.555
    1TYR    SC1  742   2.861   1.407   6.428
    1TYR    SC2  743   2.628   1.392   6.293
    1TYR    SC3  744   2.681   1.607   6.448
    2ASN     BB  745   3.177   1.601   6.760
    2ASN    SC1  746   3.267   1.465   7.040
    3TYR     BB  747   2.941   1.805   6.833
    3TYR    SC1  748   2.865   1.996   6.601
    3TYR    SC2  749   2.810   2.255   6.549
    3TYR    SC3  750   2.759   2.066   6.363
    1TYR     BB  751   0.853   4.281   5.567
    1TYR    SC1  752   0.627   4.284   5.789
    1TYR    SC2  753   0.543   4.390   6.023
    1TYR    SC3  754   0.370   4.255   5.866
    2ASN     BB  755   0.792   4.585   5.417
    2ASN    SC1  756   1.003   4.618   5.185
    3TYR     BB  757   0.520   4.715   5.535
    3TYR    SC1  758   0.313   4.861   5.352
    3TYR    SC2  759   0.221   5.073   5.214
    3TYR    SC3  760   0.115   4.829   5.171
    1TYR     BB  761   4.605   6.395   5.330
    1TYR    SC1  762   4.820   6.453   5.132
    1TYR    SC2  763   4.869   6.542   4.882
    1TYR    SC3  764   5.073   6.465   5.041
    2ASN     BB  765   4.475   6.657   5.453
    2ASN    SC1  766   4.278   6.605   5.687
    3TYR     BB  767   4.546   6.946   5.362
    3TYR    SC1  768   4.781   6.933   5.153
    3TYR    SC2  769   4.862   6.996   4.904
    3TYR    SC3  770   5.043   6.926   5.091
    1TYR     BB  771   3.696   4.973   6.157
    1TYR    SC1  772   3.840   4.944   5.878
    1TYR    SC2  773   3.999   4.913   5.662
    1TYR    SC3  774   3.787   5.079   5.650
    2ASN     BB  775   3.370   5.056   6.003
    2ASN    SC1  776   3.217   5.226   6.206
    3TYR     BB  777   3.276   5.029   5.708
    3TYR    SC1  778   3.391   5.177   5.454
    3TYR    SC2  779   3.535   5.161   5.226
    3TYR    SC3  780   3.324   5.328   5.241
    1TYR     BB  781   2.018   2.768   3.308
    1TYR    SC1  782   1.883   2.646   3.053
    1TYR    SC2  783   1.683   2.701   2.880
    1TYR    SC3  784   1.924   2.620   2.788
    2ASN     BB  785   2.066   3.079   3.174
    2ASN    SC1  786   1.995   3.320   3.351
    3TYR     BB  787   1.944   3.161   2.870
    3TYR    SC1  788   2.120   3.027   2.657
    3TYR    SC2  789   2.321   3.030   2.477
    3TYR    SC3  790   2.105   2.874   2.436
    1TYR     BB  791   1.973   3.996   3.044
    1TYR    SC1  792   1.955   4.253   2.866
    1TYR    SC2  793   2.014   4.325   2.613
    1TYR    SC3  794   1.818   4.452   2.747
    2ASN     BB  795   1.735   4.013   3.262
    2ASN    SC1  796   1.794   3.790   3.477
    3TYR     BB  797   1.542   4.248   3.348
    3TYR    SC1  798   1.574   4.492   3.163
    3TYR    SC2  799   1.434   4.588   2.952
    3TYR    SC3  800   1.618   4.743   3.075
    1TYR     BB  801   7.083   1.773   6.676
    1TYR    SC1  802   6.910   1.530   6.728
    1TYR    SC2  803   6.949   1.305   6.872
    1TYR    SC3  804   6.699   1.378   6.802
    2ASN     BB  805   7.333   1.711   6.870
    2ASN    SC1  806   7.595   1.688   6.712
    3TYR     BB  807   7.283   1.643   7.167
    3TYR    SC1  808   6.975   1.613   7.208
    3TYR    SC2  809   6.754   1.469   7.266
    3TYR    SC3  810   6.732   1.706   7.138
    1TYR     BB  811   2.400   1.862   5.520
    1TYR    SC1  812   2.588   1.880   5.285
    1TYR    SC2  813   2.856   1.868   5.248
    1TYR    SC3  814   2.692   1.705   5.108
    2ASN     BB  815   2.595   1.635   5.699
    2ASN    SC1  816   2.683   1.757   5.963
    3TYR     BB  817   2.659   1.398   5.546
    3TYR    SC1  818   2.924   1.426   5.386
    3TYR    SC2  819   3.167   1.543   5.367
    3TYR    SC3  820   3.055   1.427   5.150
    1TYR     BB  821   5.636   0.528   0.997
    1TYR    SC1  822   5.587   0.263   0.840
    1TYR    SC2  823   5.508   0.136   0.615
    1TYR    SC3  824   5.502   0.008   0.852
    2ASN     BB  825   5.946   0.503   1.078
    2ASN    SC1  826   6.015   0.762   1.250
    3TYR     BB  827   6.151   0.372   0.880
    3TYR    SC1  828   6.024   0.165   0.685
    3TYR    SC2  829   5.972   0.094   0.429
    3TYR    SC3  830   5.918   7.922   0.631
    1TYR     BB  831   5.755   6.482   0.339
    1TYR    SC1  832   5.852   6.612   0.081
    1TYR    SC2  833   5.995   6.818   7.981
    1TYR    SC3  834   5.949   6.600   7.829
    2ASN     BB  835   5.895   6.174   0.341
    2ASN    SC1  836   5.859   6.081   0.646
    3TYR     BB  837   5.920   6.093   0.035
    3TYR    SC1  838   6.066   5.829   7.972
    3TYR    SC2  839   6.200   5.701   7.776
    3TYR    SC3  840   6.029   5.564   7.934
    1TYR     BB  841   3.618   6.545   7.228
    1TYR    SC1  842   3.364   6.705   7.143
    1TYR    SC2  843   3.270   6.873   6.954
    1TYR    SC3  844   3.098   6.720   7.095
    2ASN     BB  845   3.830   6.648   6.973
    2ASN    SC1  846   4.031   6.847   7.110
    3TYR     BB  847   3.681   6.658   6.684
    3TYR    SC1  848   3.408   6.503   6.725
    3TYR    SC2  849   3.141   6.467   6.704
    3TYR    SC3  850   3.281   6.333   6.892
    1TYR     BB  851   3.365   1.440   2.788
    1TYR    SC1  852   3.632   1.571   2.750
    1TYR    SC2  853   3.871   1.543   2.626
    1TYR    SC3  854   3.783   1.789   2.697
    2ASN     BB  855   3.342   1.319   2.455
    2ASN    SC1  856   3.030   1.306   2.449
    3TYR     BB  857   3.619   1.173   2.403
    3TYR    SC1  858   3.878   1.273   2.253
    3TYR    SC2  859   4.058   1.189   2.069
    3TYR    SC3  860   4.034   1.452   2.124
    1TYR     BB  861   6.071   7.886   6.968
    1TYR    SC1  862   5.947   0.164   7.020
    1TYR    SC2  863   5.958   0.432   7.042
    1TYR    SC3  864   5.722   0.304   7.069
    2ASN     BB  865   5.827   7.740   6.774
    2ASN    SC1  866   5.769   7.460   6.894
    3TYR     BB  867   5.566   7.932   6.709
    3TYR    SC1  868   5.695   0.207   6.624
    3TYR    SC2  869   5.929   0.331   6.574
    3TYR    SC3  870   5.707   0.477   6.620
    1TYR     BB  871   4.545   0.827   6.842
    1TYR    SC1  872   4.271   0.820   6.696
    1TYR    SC2  873   4.013   0.876   6.642
    1TYR    SC3  874   4.194   0.866   6.442
    2ASN     BB  875   4.689   1.061   6.624
    2ASN    SC1  876   4.816   1.259   6.827
    3TYR     BB  877   4.522   1.268   6.414
    3TYR    SC1  878   4.381   1.180   6.167
    3TYR    SC2  879   4.184   1.255   5.998
    3TYR    SC3  880   4.314   1.022   5.959
    1TYR     BB  881   2.117   5.129   2.956
    1TYR    SC1  882   2.358   5.043   3.108
    1TYR    SC2  883   2.584   4.909   3.173
    1TYR    SC3  884   2.421   5.001   3.368
    2ASN     BB  885   2.203   5.458   2.914
    2ASN    SC1  886   2.201   5.477   2.599
    3TYR     BB  887   2.569   5.503   2.940
    3TYR    SC1  888   2.711   5.355   3.167
    3TYR    SC2  889   2.917   5.200   3.247
    3TYR    SC3  890   2.752   5.311   3.430
    1TYR     BB  891   6.576   4.191   1.197
    1TYR    SC1  892   6.659   4.167   0.906
    1TYR    SC2  893   6.764   4.025   0.702
    1TYR    SC3  894   6.718   4.289   0.673
    2ASN     BB  895   6.406   4.483   1.205
    2ASN    SC1  896   6.109   4.360   1.214
    3TYR     BB  897   6.463   4.651   0.970
    3TYR    SC1  898   6.626   4.896   0.925
    3TYR    SC2  899   6.636   5.158   0.860
    3TYR    SC3  900   6.857   5.033   0.952
    1TYR     BB  901   5.798   2.195   5.616
    1TYR    SC1  902   5.736   2.204   5.312
    1TYR    SC2  903   5.779   2.181   5.046
    1TYR    SC3  904   5.529   2.153   5.145
    2ASN     BB  905   6.076   2.063   5.667
    2ASN    SC1  906   6.187   1.915   5.914
    3TYR     BB  907   6.308   2.271   5.535
    3TYR    SC1  908   6.229   2.206   5.242
    3TYR    SC2  909   6.282   2.199   4.978
    3TYR    SC3  910   6.169   1.986   5.099
    1TYR     BB  911   5.638   3.207   4.326
    1TYR    SC1  912   5.877   3.245   4.142
    1TYR    SC2  913   6.140   3.216   4.092
    1TYR    SC3  914   5.992   3.388   3.944
    2ASN     BB  915   5.538   2.915   4.389
    2ASN    SC1  916   5.472   2.913   4.703
    3TYR     BB  917   5.747   2.692   4.268
    3TYR    SC1  918   5.821   2.822   3.987
    3TYR    SC2  919   5.932   2.959   3.783
    3TYR    SC3  920   5.690   2.843   3.751
    1TYR     BB  921   7.282   2.930   7.207
    1TYR    SC1  922   7.408   2.843   7.485
    1TYR    SC2  923   7.605   2.860   7.670
    1TYR    SC3  924   7.452   2.637   7.655
    2ASN     BB  925   7.011   3.094   7.347
    2ASN    SC1  926   6.822   3.211   7.126
    3TYR     BB  927   7.145   3.307   7.540
    3TYR    SC1  928   7.239   3.160   7.802
    3TYR    SC2  929   7.217   3.195   0.069
    3TYR    SC3  930   7.265   2.949   7.969
    1TYR     BB  931   7.014   6.064   4.536
    1TYR    SC1  932   6.718   5.973   4.566
    1TYR    SC2  933   6.539   5.797   4.467
    1TYR    SC3  934   6.454   6.011   4.607
    2ASN     BB  935   7.174   5.937   4.771
    2ASN    SC1  936   7.481   5.917   4.689
    3TYR     BB  937   7.011   5.857   5.014
    3TYR    SC1  938   6.720   5.806   5.017
    3TYR    SC2  939   6.514   5.673   4.905
    3TYR    SC3  940   6.530   5.696   5.174
    1TYR     BB  941   5.004   1.827   4.433
    1TYR    SC1  942   4.960   1.631   4.662
    1TYR    SC2  943   4.887   1.606   4.921
    1TYR    SC3  944   5.048   1.421   4.808
    2ASN     BB  945   4.754   1.824   4.210
    2ASN    SC1  946   4.558   1.598   4.316
    3TYR     BB  947   4.919   1.646   3.960
    3TYR    SC1  948   4.944   1.373   4.096
    3TYR    SC2  949   4.879   1.124   4.177
    3TYR    SC3  950   5.009   1.292   4.345
    1TYR     BB  951   3.669   4.140   2.502
    1TYR    SC1  952   3.851   3.952   2.671
    1TYR    SC2  953   3.830   3.686   2.711
    1TYR    SC3  954   4.073   3.801   2.693
    2ASN     BB  955   3.645   3.871   2.247
    2ASN    SC1  956   3.335   3.890   2.202
    3TYR     BB  957   3.843   3.629   2.210
    3TYR    SC1  958   4.077   3.476   2.352
    3TYR    SC2  959   4.178   3.226   2.367
    3TYR    SC3  960   4.298   3.428   2.499
    1TYR     BB  961   0.727   5.992   4.156
    1TYR    SC1  962   0.678   6.090   3.871
    1TYR    SC2  963   0.665   6.264   3.665
    1TYR    SC3  964   0.606   6.003   3.626
    2ASN     BB  965   1.020   6.044   4.255
    2ASN    SC1  966   1.081   5.920   4.531
    3TYR     BB  967   1.199   6.244   4.121
    3TYR    SC1  968   1.117   6.314   3.836
    3TYR    SC2  969   1.083   6.511   3.654
    3TYR    SC3  970   1.204   6.280   3.582
    1TYR     BB  971   0.848   1.117   7.039
    1TYR    SC1  972   0.870   1.438   7.046
    1TYR    SC2  973   0.801   1.696   7.084
    1TYR    SC3  974   1.050   1.634   6.999
    2ASN     BB  975   0.950   1.066   6.713
    2ASN    SC1  976   0.786   0.818   6.616
    3TYR     BB  977   1.056   1.315   6.588
    3TYR    SC1  978   1.174   1.367   6.314
    3TYR    SC2  979   1.374   1.324   6.138
    3TYR    SC3  980   1.240   1.559   6.136
    1TYR     BB  981   2.848   4.671   6.501
    1TYR    SC1  982   3.032   4.606   6.744
    1TYR    SC2  983   3.209   4.664   6.939
    1TYR    SC3  984   3.037   4.459   6.970
    2ASN     BB  985   3.051   4.744   6.272
    2ASN    SC1  986   2.987   4.716   5.982
    3TYR     BB  987   3.361   4.676   6.364
    3TYR    SC1  988   3.383   4.908   6.578
    3TYR    SC2  989   3.204   5.067   6.702
    3TYR    SC3  990   3.451   5.036   6.806
    1TYR     BB  991   4.906   4.543   5.340
    1TYR    SC1  992   5.135   4.564   5.130
    1TYR    SC2  993   5.378   4.653   5.051
    1TYR    SC3  994   5.227   4.504   4.883
    2ASN     BB  995   4.700   4.333   5.177
    2ASN    SC1  996   4.458   4.267   5.338
    3TYR     BB  997   4.784   4.219   4.916
    3TYR    SC1  998   4.810   4.349   4.642
    3TYR    SC2  999   4.896   4.308   4.390
    3TYR    SC3 1000   4.676   4.459   4.435
    4W        W 1001   0.421   1.639   2.337
    5W        W 1002   3.850   5.593   1.492
    6W        W 1003   4.919   7.505   2.007
    7W        W 1004   3.804   4.257   0.034
    8W        W 1005   5.476   0.523   4.064
    9W        W 1006   2.469   3.335   3.041
   10W        W 1007   3.158   5.606   3.448
   11W        W 1008   3.106   0.044   5.263
   12W        W 1009   3.214   6.519   2.509
   13W        W 1010   3.707   2.945   5.418
   14W        W 1011   3.133   7.538   5.126
   15W        W 1012   7.117   3.477   3.664
   16W        W 1013   7.232   3.259   2.021
   17W        W 1014   4.644   6.585   6.623
   18W        W 1015   3.676   2.240   1.050
   19W        W 1016   4.395   4.126   3.759
   20W        W 1017   4.301   3.792   1.033
   21W        W 1018   3.354   5.585   3.953
   22W        W 1019   2.681   5.800   3.478
   23W        W 1020   4.027   5.118   1.522
   24W        W 1021   0.265   3.241   4.369
   25W        W 1022   1.970   5.793   5.014
   26W        W 1023   5.336   2.448   5.523
   27W        W 1024   3.020   0.428   4.937
   28W        W 1025   1.607   4.103   3.827
   29W        W 1026   3.034   2.291   5.397
   30W        W 1027   0.287   6.615   3.610
   31W        W 1028   1.333   6.881   5.498
   32W        W 1029   7.910   0.525   2.769
   33W        W 1030   0.518   4.613   4.365
   34W        W 1031   6.925   4.620   2.295
   35W        W 1032   7.801   6.677   5.965
   36W        W 1033   3.815   0.498   4.226
   37W        W 1034   3.860   6.091   1.414
   38W        W 1035   3.661   3.278   0.524
   39W        W 1036   1.702   6.632   5.267
   40W        W 1037   5.351   0.813   3.658
   41W        W 1038   2.339   0.793   4.026
   42W        W 1039   3.683   4.566   6.800
   43W        W 1040   7.726   2.877   3.912
   44W        W 1041   4.686   2.284   6.042
   45W        W 1042   4.500   6.321   2.564
   46W        W 1043   5.780   4.540   4.797
   47W        W 1044   5.484   1.675   2.773
   48W        W 1045   5.268   5.884   6.496
   49W        W 1046   0.472   2.631   6.047
   50W        W 1047   4.699   1.471   7.634
   51W        W 1048   1.001   5.367   1.898
   52W        W 1049   2.318   6.944   0.975
   53W        W 1050   3.395   0.504   1.452
   54W        W 1051   1.524   0.992   3.487
   55W        W 1052   3.965   7.086   3.090
   56W        W 1053   2.112   6.154   4.092
   57W        W 1054   4.121   5.263   2.699
   58W        W 1055   2.075   3.766   2.497
   59W        W 1056   0.716   2.239   7.685
   60W        W 1057   1.274   6.751   0.529
   61W        W 1058   2.346   7.058   1.570
   62W        W 1059   6.256   3.793   3.780
   63W        W 1060   3.309   3.384   4.274
   64W        W 1061   3.084   3.863   0.606
   65W        W 1062   4.765   0.289   2.261
   66W        W 1063   3.518   3.641   4.697
   67W        W 1064   6.857   7.679   0.621
   68W        W 1065   7.546   3.349   0.849
   69W        W 1066   5.493   5.223   7.163
   70W        W 1067   6.407   4.887   0.010
   71W        W 1068   1.536   1.621   1.555
   72W        W 1069   7.529   0.194   0.445
   73W        W 1070   6.029   2.429   2.373
   74W        W 1071   5.626   6.117   3.634
   75W        W 1072   1.716   2.313   6.675
   76W        W 1073   5.097   2.809   1.488
   77W        W 1074   6.183   7.593   0.908
   78W        W 1075   7.608   6.785   5.164
   79W        W 1076   1.754   0.582   6.573
   80W        W 1077   0.450   6.871   1.088
   81W        W 1078   5.642   7.313   2.785
   82W        W 1079   6.131   5.642   5.512
   83W        W 1080   5.213   4.028   4.734
   84W        W 1081   7.976   3.953   5.465
   85W        W 1082   2.591   3.800   0.773
   86W        W 1083   5.170   5.233   4.331
   87W        W 1084   2.261   0.431   1.286
   88W        W 1085   5.832   4.290   1.664
   89W        W 1086   2.174   2.390   2.348
   90W        W 1087   6.444   0.321   2.197
   91W        W 1088   0.743   4.352   3.952
   92W        W 1089   2.362   4.422   6.416
   93W        W 1090   6.253   5.022   1.238
   94W        W 1091   0.351   5.479   1.452
   95W        W 1092   7.085   4.064   1.161
   96W        W 1093   3.449   4.654   4.882
   97W        W 1094   3.664   5.580   5.521
   98W        W 1095   5.976   6.877   1.321
   99W        W 1096   2.637   3.947   5.621
  100W        W 1097   7.605   7.895   6.989
  101W        W 1098   2.909   4.481   0.166
  102W        W 1099   3.483   0.880   4.186
  103W        W 1100   3.441   5.112   4.693
  104W        W 1101   7.179   7.080   1.326
  105W        W 1102   4.239   1.372   7.398
  106W        W 1103   0.165   3.487   5.850
  107W        W 1104   5.449   6.708   5.288
  108W        W 1105   0.978   7.245   1.269
  109W        W 1106   2.159   0.726   5.958
  110W        W 1107   4.048   2.608   4.143
  111W        W 1108   0.956   0.848   0.844
  112W        W 1109   2.305   6.869   6.520
  113W        W 1110   3.437   0.442   0.945
  114W        W 1111   3.389   4.642   3.042
  115W        W 1112   3.265   4.607   7.440
  116W        W 1113   3.144   4.235   1.835
  117W        W 1114   1.109   5.928   5.064
  118W        W 1115   6.731   3.163   4.944
  119W        W 1116   3.868   4.934   4.937
  120W        W 1117   6.022   7.059   7.534
  121W        W 1118   5.784   3.797   3.644
  122W        W 1119   2.675   2.489   2.165
  123W        W 1120   4.755   2.622   7.726
  124W        W 1121   7.783   5.551   3.596
  125W        W 1122   4.623   7.029   6.379
  126W        W 1123   4.311   3.167   5.976
  127W        W 1124   7.303   5.195   2.035
  128W        W 1125   6.667   7.448   5.736
  129W        W 1126   6.523   6.472   6.445
  130W        W 1127   1.205   5.390   3.344
  131W        W 1128   4.522   5.402   2.403
  132W        W 1129   3.556   6.974   0.927
  133W        W 1130   3.753   6.390   4.824
  134W        W 1131   4.447   3.663   0.304
  135W        W 1132   1.524   2.125   5.883
  136W        W 1133   5.963   7.120   3.127
  137W        W 1134   3.157   4.264   2.763
  138W        W 1135   0.958   4.960   2.436
  139W        W 1136   2.614   3.736   1.731
  140W        W 1137   4.217   5.005   2.264
  141W        W 1138   3.099   1.209   4.205
  142W        W 1139   7.154   5.389   1.151
  143W        W 1140   4.698   3.156   1.490
  144W        W 1141   4.251   3.289   1.218
  145W        W 1142   2.010   6.566   3.812
  146W        W 1143   5.300   7.387   7.064
  147W        W 1144   6.281   6.111   2.933
  148W        W 1145   0.215   4.797   5.944
  149W        W 1146   0.020   0.653   1.499
  150W        W 1147   4.840   4.940   6.307
  151W        W 1148   3.559   7.690   3.921
  152W        W 1149   4.351   3.242   1.898
  153W        W 1150   7.994   3.829   4.970
  154W        W 1151   7.105   2.298   6.026
  155W        W 1152   2.790   4.551   1.115
  156W        W 1153   0.582   5.496   6.108
  157W        W 1154   6.894   0.900   1.677
  158W        W 1155   1.154   0.871   6.258
  159W        W 1156   7.072   5.030   4.753
  160W        W 1157   0.892   6.751   1.324
  161W        W 1158   4.057   7.480   2.173
  162W        W 1159   1.397   5.131   6.988
  163W        W 1160   2.907   5.896   1.485
  164W        W 1161   2.306   5.983   2.663
  165W        W 1162   7.295   6.658   6.685
  166W        W 1163   3.735   1.762   4.200
  167W        W 1164   3.590   3.200   0.027
  168W        W 1165   0.402   6.643   3.106
  169W        W 1166   4.013   3.625   0.623
  170W        W 1167   7.326   0.355   0.920
  171W        W 1168   1.560   6.134   5.212
  172W        W 1169   2.674   6.689   1.710
  173W        W 1170   6.383   2.656   2.946
  174W        W 1171   5.873   2.016   7.664
  175W        W 1172   7.062   4.945   7.033
  176W        W 1173   2.858   3.989   3.042
  177W        W 1174   3.806   0.143   3.830
  178W        W 1175   7.729   5.446   4.589
  179W        W 1176   3.075   4.801   4.560
  180W        W 1177   2.035   3.733   1.961
  181W        W 1178   1.035   1.827   3.438
  182W        W 1179   3.765   4.631   3.938
  183W        W 1180   3.038   1.695   1.039
  184W        W 1181   1.217   3.844   2.398
  185W        W 1182   7.209   4.290   2.016
  186W        W 1183   4.519   0.458   1.818
  187W        W 1184   2.886   3.146   1.268
  188W        W 1185   1.237   2.746   2.300
  189W        W 1186   0.324   2.500   5.134
  190W        W 1187   2.620   0.374   4.049
  191W        W 1188   2.713   6.255   0.437
  192W        W 1189   0.509   2.190   2.074
  193W        W 1190   5.770   6.309   2.946
  194W        W 1191   1.219   0.517   5.344
  195W        W 1192   5.502   7.041   4.868
  196W        W 1193   5.988   2.506   4.696
  197W        W 1194   6.333   7.164   4.786
  198W        W 1195   2.204   4.730   0.967
  199W        W 1196   5.626   6.562   4.346
  200W        W 1197   0.331   4.779   0.426
  201W        W 1198   3.605   2.501   1.921
  202W        W 1199   1.188   3.618   2.837
  203W        W 1200   2.323   4.863   7.166
  204W        W 1201   4.604   6.193   6.308
  205W        W 1202   7.737   0.304   2.318
  206W        W 1203   5.537   6.572   3.834
  207W        W 1204   6.508   1.490   5.920
  208W        W 1205   5.932   7.405   4.602
  209W        W 1206   7.446   5.897   5.214
  210W        W 1207   0.829   6.769   1.846
  211W        W 1208   0.511   4.289   0.459
  212W        W 1209   2.078   2.568   4.116
  213W        W 1210   0.841   7.419   0.791
  214W        W 1211   3.531   0.924   1.088
  215W        W 1212   7.595   5.023   2.916
  216W        W 1213   7.530   2.572   0.165
  217W        W 1214   3.630   2.051   5.886
  218W        W 1215   6.136   7.462   7.247
  219W        W 1216   3.881   1.020   3.883
  220W        W 1217   1.476   4.512   1.693
  221W        W 1218   6.657   6.804   0.171
  222W        W 1219   5.831   3.141   0.467
  223W        W 1220   2.810   6.000   4.705
  224W        W 1221   1.814   5.357   1.622
  225W        W 1222   3.598   3.913   3.491
  226W        W 1223   2.936   6.180   5.177
  227W        W 1224   7.822   5.573   5.087
  228W        W 1225   6.761   7.027   1.034
  229W        W 1226   3.159   1.768   6.244
  230W        W 1227   5.774   3.307   6.385
  231W        W 1228   0.029   2.336   6.983
  232W        W 1229   1.295   4.164   5.194
  233W        W 1230   1.728   4.731   0.749
  234W        W 1231   4.756   6.003   2.851
  235W        W 1232   2.423   1.183   4.362
  236W        W 1233   0.936   2.690   0.153
  237W        W 1234   1.091   3.812   0.820
  238W        W 1235   2.352   0.171   3.207
  239W        W 1236   6.563   3.611   4.698
  240W        W 1237   5.183   1.113   5.872
  241W        W 1238   2.224   7.228   5.819
  242W        W 1239   1.177   2.995   3.602
  243W        W 1240   2.010   3.064   4.225
  244W        W 1241   1.246   3.756   3.823
  245W        W 1242   1.217   5.011   0.266
  246W        W 1243   6.031   1.444   5.735
  247W        W 1244   6.662   4.019   2.901
  248W        W 1245   2.087   4.234   3.539
  249W        W 1246   1.451   2.924   7.456
  250W        W 1247   7.080   7.658   2.700
  251W        W 1248   1.037   7.871   2.202
  252W        W 1249   3.742   4.484   1.059
  253W        W 1250   2.924   4.050   3.992
  254W        W 1251   4.770   6.196   1.581
  255W        W 1252   3.425   0.122   4.192
  256W        W 1253   2.849   7.178   1.669
  257W        W 1254   1.975   4.265   0.878
  258W        W 1255   2.411   3.232   5.277
  259W        W 1256   0.976   4.602   2.794
  260W        W 1257   2.298   1.485   3.611
  261W        W 1258   5.663   6.879   1.727
  262W        W 1259   5.774   5.045   4.955
  263W        W 1260   5.718   3.521   2.846
  264W        W 1261   3.638   6.269   6.361
  265W        W 1262   5.678   5.025   2.849
  266W        W 1263   7.665   5.508   2.789
  267W        W 1264   5.292   1.334   3.733
  268W        W 1265   5.728   4.802   7.022
  269W        W 1266   6.958   4.962   3.513
  270W        W 1267   3.932   5.491   3.948
  271W        W 1268   0.731   5.064   5.146
  272W        W 1269   7.796   6.331   4.726
  273W        W 1270   4.467   5.891   3.272
  274W        W 1271   1.269   3.491   1.221
  275W        W 1272   6.699   7.338   2.526
  276W        W 1273   1.454   5.798   3.539
  277W        W 1274   5.641   3.858   7.877
  278W        W 1275   4.374   3.631   1.571
  279W        W 1276   5.817   5.928   7.542
  280W        W 1277   2.834   4.500   3.074
  281W        W 1278   4.106   0.567   3.740
  282W        W 1279   4.261   0.927   5.442
  283W        W 1280   3.908   3.723   1.355
  284W        W 1281   1.233   5.515   0.379
  285W        W 1282   0.480   2.289   3.478
  286W        W 1283   3.309   0.302   0.457
  287W        W 1284   0.765   6.315   7.988
  288W        W 1285   0.041   4.808   1.994
  289W        W 1286   2.815   4.173   6.569
  290W        W 1287   0.736   5.143   1.493
  291W        W 1288   0.690   5.398   1.043
  292W        W 1289   4.753   6.915   4.410
  293W        W 1290   7.923   4.082   2.543
  294W        W 1291   2.754   2.307   3.482
  295W        W 1292   6.421   0.980   1.492
  296W        W 1293   1.909   2.214   6.226
  297W        W 1294   3.076   3.808   1.537
  298W        W 1295   5.011   2.948   0.579
  299W        W 1296   2.414   2.591   5.901
  300W        W 1297   6.237   0.623   6.282
  301W        W 1298   1.638   0.790   6.114
  302W        W 1299   0.384   6.863   5.251
  303W        W 1300   6.422   6.831   7.734
  304W        W 1301   7.066   6.700   4.674
  305W        W 1302   4.653   4.243   6.596
  306W        W 1303   2.540   4.227   2.610
  307W        W 1304   5.426   3.686   2.466
  308W        W 1305   6.820   4.517   3.257
  309W        W 1306   4.985   5.336   1.654
  310W        W 1307   6.998   7.981   1.022
  311W        W 1308   1.661   1.130   2.554
  312W        W 1309   3.169   0.812   4.599
  313W        W 1310   7.236   7.107   4.930
  314W        W 1311   2.106   6.715   3.339
  315W        W 1312   6.850   2.021   7.514
  316W        W 1313   1.177   4.113   0.403
  317W        W 1314   5.591   5.178   3.827
  318W        W 1315   0.501   2.503   6.880
  319W        W 1316   3.070   1.155   0.332
  320W        W 1317   6.963   5.208   5.634
  321W        W 1318   2.520   5.860   7.003
  322W        W 1319   7.143   3.708   0.788
  323W        W 1320   6.702   6.643   0.652
  324W        W 1321   5.084   1.666   6.753
  325W        W 1322   6.623   3.522   0.603
  326W        W 1323   7.071   6.105   1.174
  327W        W 1324   0.784   4.897   1.950
  328W        W 1325   3.208   5.600   2.418
  329W        W 1326   6.341   4.003   6.627
  330W        W 1327   2.175   6.089   6.006
  331W        W 1328   1.079   2.199   5.533
  332W        W 1329   1.323   4.359   2.507
  333W        W 1330   2.459   1.582   4.684
  334W        W 1331   6.394   1.550   6.447
  335W        W 1332   1.405   6.451   2.392
  336W        W 1333   0.658   1.835   1.091
  337W        W 1334   3.344   1.965   2.872
  338W        W 1335   7.638   4.676   5.315
  339W        W 1336   6.081   1.304   5.244
  340W        W 1337   3.094   3.921   6.937
  341W        W 1338   7.390   3.636   1.229
  342W        W 1339   6.480   7.073   7.141
  343W        W 1340   6.176   6.620   7.357
  344W        W 1341   1.876   0.761   2.239
  345W        W 1342   2.538   4.968   1.351
  346W        W 1343   5.563   2.858   2.239
  347W        W 1344   5.995   3.466   3.274
  348W        W 1345   7.866   3.606   4.508
  349W        W 1346   4.734   5.394   7.506
  350W        W 1347   4.717   3.207   4.654
  351W        W 1348   1.143   4.853   1.547
  352W        W 1349   4.566   6.929   6.979
  353W        W 1350   2.506   5.595   6.550
  354W        W 1351   6.516   1.725   2.074
  355W        W 1352   5.737   5.222   1.127
  356W        W 1353   4.503   5.080   7.087
  357W        W 1354   5.447   3.842   0.746
  358W        W 1355   4.495   2.965   0.465
  359W        W 1356   0.773   5.110   6.372
  360W        W 1357   4.593   1.578   2.260
  361W        W 1358   0.725   2.021   4.324
  362W        W 1359   7.278   3.067   5.015
  363W        W 1360   4.783   0.869   1.095
  364W        W 1361   4.455   3.718   2.102
  365W        W 1362   2.719   0.158   5.625
  366W        W 1363   6.521   2.433   2.511
  367W        W 1364   2.475   5.427   5.153
  368W        W 1365   2.400   4.460   0.308
  369W        W 1366   2.275   3.244   1.144
  370W        W 1367   3.014   3.511   4.668
  371W        W 1368   7.966   4.335   5.082
  372W        W 1369   6.244   6.204   7.654
  373W        W 1370   7.452   5.766   1.328
  374W        W 1371   5.310   1.703   5.149
  375W        W 1372   5.106   3.748   2.840
  376W        W 1373   7.632   3.288   7.410
  377W        W 1374   4.295   4.475   3.174
  378W        W 1375   5.100   7.784   1.609
  379W        W 1376   1.184   1.656   2.977
  380W        W 1377   6.280   4.845   5.128
  381W        W 1378   0.783   6.210   0.600
  382W        W 1379   1.942   5.197   0.843
  383W        W 1380   2.119   4.224   2.145
  384W        W 1381   0.756   0.129   2.563
  385W        W 1382   7.332   0.879   1.096
  386W        W 1383   5.972   6.811   6.500
  387W        W 1384   0.874   2.880   2.602
  388W        W 1385   1.718   4.624   3.638
  389W        W 1386   3.886   5.036   4.437
  390W        W 1387   6.147   4.066   2.073
  391W        W 1388   3.511   1.367   3.926
  392W        W 1389   0.307   3.277   1.358
  393W        W 1390   0.357   1.086   1.487
  394W        W 1391   0.959   0.927   5.128
  395W        W 1392   5.099   6.917   7.066
  396W        W 1393   5.369   4.399   1.874
  397W        W 1394   5.455   7.590   1.950
  398W        W 1395   7.983   2.505   4.720
  399W        W 1396   2.723   4.137   7.208
  400W        W 1397   1.189   3.668   4.323
  401W        W 1398   2.592   6.871   5.667
  402W        W 1399   3.816   2.508   5.768
  403W        W 1400   0.615   5.807   7.805
  404W        W 1401   1.054   2.064   6.071
  405W        W 1402   3.045   6.460   3.011
  406W        W 1403   2.396   3.700   0.085
  407W        W 1404   7.819   2.565   5.222
  408W        W 1405   4.763   0.867   1.611
  409W        W 1406   4.059   1.831   5.041
  410W        W 1407   6.111   2.427   7.412
  411W        W 1408   0.247   5.842   4.200
  412W        W 1409   2.223   0.810   0.926
  413W        W 1410   3.677   2.428   0.573
  414W        W 1411   6.590   4.972   5.891
  415W        W 1412   0.261   5.990   6.741
  416W        W 1413   7.625   1.982   1.956
  417W        W 1414   2.641   2.170   7.020
  418W        W 1415   2.448   1.324   3.151
  419W        W 1416   0.791   3.844   4.037
  420W        W 1417   6.187   1.379   3.125
  421W        W 1418   3.447   2.547   4.498
  422W        W 1419   4.394   3.356   6.952
  423W        W 1420   2.778   4.960   6.946
  424W        W 1421   5.231   3.070   1.899
  425W        W 1422   3.545   6.408   2.877
  426W        W 1423   7.229   7.676   6.672
  427W        W 1424   0.649   2.130   1.542
  428W        W 1425   4.452   6.942   3.162
  429W        W 1426   5.877   0.762   5.926
  430W        W 1427   5.345   3.049   5.192
  431W        W 1428   2.520   4.489   7.800
  432W        W 1429   6.405   6.192   5.072
  433W        W 1430   0.630   2.237   0.746
  434W        W 1431   2.861   3.546   5.868
  435W        W 1432   7.407   4.539   0.991
  436W        W 1433   6.216   4.588   3.925
  437W        W 1434   4.461   6.018   4.331
  438W        W 1435   4.247   6.611   2.240
  439W        W 1436   5.099   4.056   5.277
  440W        W 1437   6.474   1.708   2.826
  441W        W 1438   1.228   0.817   7.238
  442W        W 1439   1.326   1.069   1.675
  443W        W 1440   2.981   4.258   7.691
  444W        W 1441   5.408   4.822   0.978
  445W        W 1442   1.647   5.438   4.717
  446W        W 1443   3.183   0.931   1.656
  447W        W 1444   1.482   0.262   6.960
  448W        W 1445   5.216   6.867   1.455
  449W        W 1446   1.521   5.423   5.654
  450W        W 1447   6.095   3.508   5.415
  451W        W 1448   5.013   3.589   3.989
  452W        W 1449   6.021   7.033   6.980
  453W        W 1450   0.615   3.226   2.352
  454W        W 1451   5.058   1.518   3.018
  455W        W 1452   7.776   3.540   3.199
  456W        W 1453   0.816   0.710   7.523
  457W        W 1454   1.143   2.563   7.653
  458W        W 1455   6.755   3.821   3.776
  459W        W 1456   6.594   6.067   5.517
  460W        W 1457   7.462   1.204   6.829
  461W        W 1458   4.224   1.895   2.920
  462W        W 1459   0.789   6.672   0.384
  463W        W 1460   2.677   4.261   4.369
  464W        W 1461   7.978   7.393   6.197
  465W        W 1462   1.281   7.402   2.217
  466W        W 1463   1.442   3.058   5.468
  467W        W 1464   4.767   2.573   0.272
  468W        W 1465   3.018   2.006   3.790
  469W        W 1466   0.284   1.364   1.902
  470W        W 1467   6.166   7.956   2.949
  471W        W 1468   6.471   7.247   0.668
  472W        W 1469   2.490   3.454   4.629
  473W        W 1470   1.474   3.488   0.735
  474W        W 1471   1.357   1.289   2.170
  475W        W 1472   6.922   1.532   4.958
  476W        W 1473   7.492   3.829   4.842
  477W        W 1474   0.830   4.232   4.513
  478W        W 1475   0.084   3.144   3.140
  479W        W 1476   4.389   6.622   6.179
  480W        W 1477   4.052   3.944   5.394
  481W        W 1478   4.062   3.108   7.288
  482W        W 1479   7.084   3.272   0.553
  483W        W 1480   4.827   3.462   1.877
  484W        W 1481   2.881   7.199   5.419
  485W        W 1482   4.315   4.376   4.842
  486W        W 1483   6.355   7.496   1.763
  487W        W 1484   4.690   4.108   2.359
  488W        W 1485   7.155   7.582   5.789
  489W        W 1486   5.538   2.636   1.235
  490W        W 1487   2.174   5.368   1.275
  491W        W 1488   6.359   4.290   3.220
  492W        W 1489   2.212   2.783   5.489
  493W        W 1490   1.832   2.155   3.217
  494W        W 1491   2.676   5.134   7.430
  495W        W 1492   1.927   2.420   5.762
  496W        W 1493   6.510   2.448   3.434
  497W        W 1494   2.424   6.696   4.085
  498W        W 1495   4.404   0.967   3.911
  499W        W 1496   3.297   3.074   4.693
  500W        W 1497   3.208   1.462   3.263
  501W        W 1498   5.092   6.913   3.131
  502W        W 1499   4.998   6.298   2.468
  503W        W 1500   7.302   2.017   3.320
  504W        W 1501   3.424   3.420   1.984
  505W        W 1502   4.874   3.370   7.099
  506W        W 1503   2.992   0.923   5.095
  507W        W 1504   1.971   1.726   4.623
  508W        W 1505   1.191   4.731   0.731
  509W        W 1506   3.030   6.947   0.829
  510W        W 1507   6.826   0.133   2.987
  511W        W 1508   0.026   3.619   6.937
  512W        W 1509   7.205   4.752   2.719
  513W        W 1510   5.335   4.798   4.081
  514W        W 1511   4.254   4.004   0.009
  515W        W 1512   4.748   3.003   6.764
  516W        W 1513   1.087   3.177   5.132
  517W        W 1514   6.633   7.299   6.247
  518W        W 1515   4.704   3.861   0.715
  519W        W 1516   5.185   7.144   7.515
  520W        W 1517   6.943   7.203   7.278
  521W        W 1518   7.297   0.514   6.296
  522W        W 1519   6.063   5.845   5.053
  523W        W 1520   6.494   0.005   0.922
  524W        W 1521   4.310   2.837   1.591
  525W        W 1522   2.420   3.801   2.867
  526W        W 1523   5.076   2.639   1.002
  527W        W 1524   6.895   7.733   6.206
  528W        W 1525   6.076   0.724   1.769
  529W        W 1526   1.184   5.545   0.945
  530W        W 1527   0.121   3.347   4.863
  531W        W 1528   6.378   5.029   4.140
  532W        W 1529   4.213   0.872   1.737
  533W        W 1530   5.619   3.697   7.372
  534W        W 1531   1.331   4.569   6.443
  535W        W 1532   1.217   5.867   5.579
  536W        W 1533   3.962   1.679   5.545
  537W        W 1534   4.225   4.127   1.423
  538W        W 1535   6.650   5.342   1.321
  539W        W 1536   5.105   6.822   0.969
  540W        W 1537   1.489   6.423   6.488
  541W        W 1538   7.804   5.126   2.435
  542W        W 1539   0.368   3.793   1.300
  543W        W 1540   1.616   5.453   6.668
  544W        W 1541   0.563   3.480   0.947
  545W        W 1542   6.041   2.450   3.241
  546W        W 1543   4.051   1.703   7.070
  547W        W 1544   2.927   0.979   5.607
  548W        W 1545   5.647   3.577   1.635
  549W        W 1546   0.442   3.801   6.674
  550W        W 1547   3.128   6.787   6.335
  551W        W 1548   7.822   5.957   7.084
  552W        W 1549   5.786   4.741   1.301
  553W        W 1550   6.305   5.224   7.646
  554W        W 1551   5.211   5.187   7.615
  555W        W 1552   7.447   2.454   7.143
  556W        W 1553   4.449   5.098   5.432
  557W        W 1554   0.251   2.245   3.020
  558W        W 1555   3.399   4.194   0.834
  559W        W 1556   3.159   5.177   3.711
  560W        W 1557   1.287   0.842   5.743
  561W        W 1558   2.570   2.115   2.556
  562W        W 1559   7.339   5.648   1.821
  563W        W 1560   7.847   2.355   7.482
  564W        W 1561   5.152   3.445   1.495
  565W        W 1562   2.458   6.880   4.582
  566W        W 1563   1.765   2.894   5.822
  567W        W 1564   2.203   0.760   4.516
  568W        W 1565   4.164   2.585   0.628
  569W        W 1566   5.185   4.955   6.719
  570W        W 1567   0.503   0.995   4.892
  571W        W 1568   4.689   5.446   5.125
  572W        W 1569   2.650   0.631   5.835
  573W        W 1570   7.805   5.140   5.497
  574W        W 1571   0.050   5.036   6.785
  575W        W 1572   4.172   7.421   0.969
  576W        W 1573   7.997   5.868   4.676
  577W        W 1574   2.449   1.142   5.936
  578W        W 1575   7.183   0.066   1.508
  579W        W 1576   4.417   1.406   5.609
  580W        W 1577   4.791   5.205   3.221
  581W        W 1578   5.480   3.692   6.502
  582W        W 1579   7.330   3.111   1.391
  583W        W 1580   2.767   5.730   5.473
  584W        W 1581   1.214   1.356   1.274
  585W        W 1582   3.350   7.197   1.806
  586W        W 1583   4.276   4.068   7.243
  587W        W 1584   1.193   7.117   4.505
  588W        W 1585   3.457   4.577   5.842
  589W        W 1586   5.684   1.000   1.563
  590W        W 1587   6.744   4.222   4.697
  591W        W 1588   5.249   1.613   6.011
  592W        W 1589   4.736   6.709   1.367
  593W        W 1590   5.544   6.987   6.785
  594W        W 1591   1.548   4.804   6.026
  595W        W 1592   1.305   2.311   4.945
  596W        W 1593   6.261   1.655   6.942
  597W        W 1594   6.435   0.362   5.268
  598W        W 1595   5.169   3.347   4.840
  599W        W 1596   7.931   6.610   4.345
  600W        W 1597   6.228   3.247   6.158
  601W        W 1598   3.066   5.986   3.778
  602W        W 1599   3.126   2.741   3.654
  603W        W 1600   7.539   0.439   1.398
  604W        W 1601   6.312   3.107   0.592
  605W        W 1602   5.302   4.684   1.466
  606W        W 1603   0.584   6.936   6.674
  607W        W 1604   7.959   2.701   6.113
  608W        W 1605   7.563   4.005   2.882
  609W        W 1606   2.331   1.272   6.666
  610W        W 1607   5.111   7.943   2.114
  611W        W 1608   2.990   2.843   6.566
  612W        W 1609   3.715   0.834   4.643
  613W        W 1610   4.295   1.299   6.879
  614W        W 1611   5.918   1.388   7.229
  615W        W 1612   4.751   5.205   4.664
  616W        W 1613   1.807   6.957   5.687
  617W        W 1614   3.848   3.990   6.936
  618W        W 1615   6.224   3.298   4.967
  619W        W 1616   1.547   4.977   1.208
  620W        W 1617   5.895   6.265   4.038
  621W        W 1618   6.673   6.450   4.451
  622W        W 1619   2.019   1.661   3.226
  623W        W 1620   6.737   7.915   0.144
  624W        W 1621   7.567   3.504   6.560
  625W        W 1622   5.445   5.478   3.010
  626W        W 1623   2.854   3.591   4.198
  627W        W 1624   2.993   4.380   5.596
  628W        W 1625   7.816   2.786   7.215
  629W        W 1626   6.743   0.684   3.909
  630W        W 1627   1.130   3.334   3.251
  631W        W 1628   0.666   2.750   7.699
  632W        W 1629   0.032   4.484   5.572
  633W        W 1630   3.836   2.209   4.451
  634W        W 1631   6.299   7.169   0.090
  635W        W 1632   5.212   2.975   7.009
  636W        W 1633   6.617   1.961   6.742
  637W        W 1634   4.670   4.979   4.222
  638W        W 1635   7.195   0.101   5.989
  639W        W 1636   6.478   5.243   5.418
  640W        W 1637   2.665   7.819   6.090
  641W        W 1638   3.081   1.207   0.852
  642W        W 1639   2.716   2.311   4.979
  643W        W 1640   7.162   6.912   3.726
  644W        W 1641   5.117   5.035   4.949
  645W        W 1642   5.691   4.784   1.823
  646W        W 1643   4.065   5.731   2.981
  647W        W 1644   1.358   0.883   1.162
  648W        W 1645   3.722   0.876   1.580
  649W        W 1646   3.748   5.920   4.676
  650W        W 1647   2.770   1.577   4.295
  651W        W 1648   6.765   0.642   4.961
  652W        W 1649   7.842   5.882   3.198
  653W        W 1650   1.527   4.133   0.001
  654W        W 1651   3.462   6.288   4.428
  655W        W 1652   5.692   5.647   6.512
  656W        W 1653   0.744   1.128   1.854
  657W        W 1654   6.874   4.380   1.578
  658W        W 1655   6.945   6.028   5.890
  659W        W 1656   5.514   1.457   6.453
  660W        W 1657   1.564   5.325   3.711
  661W        W 1658   1.581   3.112   1.504
  662W        W 1659   1.324   3.897   7.061
  663W        W 1660   1.131   3.444   6.137
  664W        W 1661   5.129   5.001   2.488
  665W        W 1662   4.610   2.805   2.591
  666W        W 1663   1.232   2.915   0.546
  667W        W 1664   0.929   5.310   6.852
  668W        W 1665   7.615   6.860   1.158
  669W        W 1666   4.703   7.043   2.737
  670W        W 1667   1.228   5.065   4.471
  671W        W 1668   1.869   6.024   3.394
  672W        W 1669   7.092   0.915   6.073
  673W        W 1670   4.390   6.687   4.947
  674W        W 1671   2.951   5.121   4.928
  675W        W 1672   3.243   2.893   2.543
  676W        W 1673   3.326   0.880   2.701
  677W        W 1674   6.494   0.774   2.485
  678W        W 1675   2.360   5.314   6.143
  679W        W 1676   3.759   1.298   7.167
  680W        W 1677   5.289   0.982   2.267
  681W        W 1678   1.461   5.808   4.149
  682W        W 1679   4.422   4.522   2.253
  683W        W 1680   5.609   5.625   3.521
  684W        W 1681   3.573   2.712   4.955
  685W        W 1682   3.119   3.558   1.079
  686W        W 1683   3.679   5.922   2.724
  687W        W 1684   7.472   2.557   4.838
  688W        W 1685   5.692   3.337   4.904
  689W        W 1686   3.259   6.160   0.341
  690W        W 1687   3.824   4.211   6.482
  691W        W 1688   4.701   3.178   2.267
  692W        W 1689   1.795   1.400   3.600
  693W        W 1690   0.039   3.449   1.783
  694W        W 1691   4.522   2.699   5.319
  695W        W 1692   6.074   5.436   3.978
  696W        W 1693   3.175   3.802   6.410
  697W        W 1694   6.545   0.522   1.721
  698W        W 1695   4.502   3.056   7.959
  699W        W 1696   4.829   1.008   2.963
  700W        W 1697   6.567   4.283   3.675
  701W        W 1698   5.584   6.813   2.996
  702W        W 1699   4.334   4.839   7.845
  703W        W 1700   1.310   4.503   5.595
  704W        W 1701   7.031   3.154   2.855
  705W        W 1702   5.065   6.408   3.765
  706W        W 1703   5.698   4.663   3.746
  707W        W 1704   6.865   5.819   0.386
  708W        W 1705   7.468   3.541   0.360
  709W        W 1706   7.157   0.560   3.040
  710W        W 1707   0.261   2.159   1.171
  711W        W 1708   2.973   4.236   2.307
  712W        W 1709   6.091   4.955   6.700
  713W        W 1710   0.115   5.568   2.157
  714W        W 1711   4.976   5.439   2.713
  715W        W 1712   4.947   1.956   2.135
  716W        W 1713   2.882   7.267   6.409
  717W        W 1714   0.730   1.471   3.168
  718W        W 1715   6.105   6.151   5.469
  719W        W 1716   0.795   3.419   1.400
  720W        W 1717   1.506   3.640   2.037
  721W        W 1718   1.051   5.058   1.083
  722W        W 1719   7.774   1.532   6.263
  723W        W 1720   7.563   6.801   4.654
  724W        W 1721   5.227   7.075   1.915
  725W        W 1722   4.448   7.540   2.802
  726W        W 1723   2.556   2.641   6.772
  727W        W 1724   0.866   3.934   1.251
  728W        W 1725   5.837   5.629   4.677
  729W        W 1726   6.286   6.545   1.968
  730W        W 1727   4.368   2.230   4.319
  731W        W 1728   1.062   0.640   0.219
  732W        W 1729   5.307   5.724   2.104
  733W        W 1730   0.676   2.535   5.559
  734W        W 1731   7.720   3.487   5.581
  735W        W 1732   0.823   2.433   2.396
  736W        W 1733   5.716   2.779   7.127
  737W        W 1734   3.913   4.414   7.253
  738W        W 1735   2.322   5.132   2.240
  739W        W 1736   5.939   7.424   4.090
  740W        W 1737   3.327   6.107   1.234
  741W        W 1738   3.938   3.928   7.615
  742W        W 1739   5.224   0.927   6.578
  743W        W 1740   2.606   6.226   3.919
  744W        W 1741   4.149   7.896   1.871
  745W        W 1742   5.666   7.525   0.857
  746W        W 1743   5.074   2.400   7.371
  747W        W 1744   3.350   3.785   2.695
  748W        W 1745   0.876   1.421   2.245
  749W        W 1746   3.053   5.909   7.042
  750W        W 1747   1.513   6.654   3.902
  751W        W 1748   1.555   1.290   3.031
  752W        W 1749   2.205   3.980   0.485
  753W        W 1750   2.516   2.889   6.306
  754W        W 1751   7.629   2.582   5.713
  755W        W 1752   7.212   2.719   4.071
  756W        W 1753   2.996   1.293   1.349
  757W        W 1754   6.215   3.974   4.582
  758W        W 1755   2.506   1.914   0.902
  759W        W 1756   6.781   6.515   1.124
  760W        W 1757   2.950   7.683   5.613
  761W        W 1758   5.851   1.590   4.372
  762W        W 1759   7.081   5.811   6.748
  763W        W 1760   1.364   6.812   4.904
  764W        W 1761   1.678   3.626   1.557
  765W        W 1762   4.039   4.428   5.582
  766W        W 1763   3.749   7.894   2.198
  767W        W 1764   3.635   0.318   3.362
  768W        W 1765   1.923   2.350   1.492
  769W        W 1766   3.244   5.788   4.432
  770W        W 1767   1.263   5.334   1.456
  771W        W 1768   2.058   5.686   6.860
  772W        W 1769   3.527   1.939   5.411
  773W        W 1770   3.926   4.568   2.360
  774W        W 1771   3.386   4.265   3.829
  775W        W 1772   4.873   0.756   2.095
  776W        W 1773   0.508   5.113   3.721
  777W        W 1774   6.529   2.452   6.646
  778W        W 1775   4.763   6.835   7.459
  779W        W 1776   6.920   0.475   2.593
  780W        W 1777   6.447   0.304   2.700
  781W        W 1778   1.367   6.706   6.902
  782W        W 1779   2.299   5.886   3.161
  783W        W 1780   5.409   2.192   1.555
  784W        W 1781   1.355   1.216   6.981
  785W        W 1782   6.518   7.418   5.192
  786W        W 1783   3.778   6.108   3.206
  787W        W 1784   0.668   5.780   7.008
  788W        W 1785   3.731   1.118   2.942
  789W        W 1786   7.780   7.665   6.574
  790W        W 1787   5.855   3.775   6.881
  791W        W 1788   4.774   1.412   5.954
  792W        W 1789   1.407   6.926   6.438
  793W        W 1790   6.482   6.102   6.803
  794W        W 1791   4.091   2.451   1.833
  795W        W 1792   4.360   4.813   1.816
  796W        W 1793   3.858   4.316   5.093
  797W        W 1794   4.147   4.085   2.286
  798W        W 1795   6.677   0.155   1.386
  799W        W 1796   6.660   7.819   6.669
  800W        W 1797   3.699   2.195   4.952
  801W        W 1798   6.831   2.104   4.273
  802W        W 1799   1.095   2.412   0.569
  803W        W 1800   6.433   6.990   6.615
  804W        W 1801   6.024   6.268   4.770
  805W        W 1802   3.046   6.843   2.106
  806W        W 1803   7.448   6.139   7.617
  807W        W 1804   1.423   2.576   3.320
  808W        W 1805   6.435   2.783   4.786
  809W        W 1806   6.931   5.747   1.488
  810W        W 1807   6.852   6.336   4.931
  811W        W 1808   0.399   5.239   0.656
  812W        W 1809   0.037   7.127   1.299
  813W        W 1810   1.794   1.901   5.054
  814W        W 1811   7.056   6.202   5.388
  815W        W 1812   3.737   5.167   2.303
  816W        W 1813   2.423   1.804   2.966
  817W        W 1814   2.939   6.661   5.369
  818W        W 1815   3.522   6.425   1.580
  819W        W 1816   5.978   3.601   2.002
  820W        W 1817   3.955   6.588   3.183
  821W        W 1818   2.293   5.628   2.128
  822W        W 1819   1.271   6.987   3.561
  823W        W 1820   1.429   6.136   3.141
  824W        W 1821   5.586   4.252   3.405
  825W        W 1822   6.533   6.063   1.244
  826W        W 1823   3.470   6.788   4.612
  827W        W 1824   5.809   3.959   1.120
  828W        W 1825   6.854   0.017   2.427
  829W        W 1826   3.737   2.855   6.978
  830W        W 1827   2.506   3.251   1.595
  831W        W 1828   3.766   1.839   0.747
  832W        W 1829   5.105   1.823   1.267
  833W        W 1830   5.986   2.007   4.627
  834W        W 1831   4.022   1.534   1.114
  835W        W 1832   3.924   1.666   6.055
  836W        W 1833   6.683   3.522   2.727
  837W        W 1834   2.399   5.262   5.637
  838W        W 1835   7.938   3.052   5.760
  839W        W 1836   5.771   3.891   5.519
  840W        W 1837   2.955   1.259   7.405
  841W        W 1838   0.585   3.021   4.004
  842W        W 1839   3.442   0.676   5.052
  843W        W 1840   4.786   7.347   3.150
  844W        W 1841   2.657   6.104   6.122
  845W        W 1842   2.542   3.403   6.258
  846W        W 1843   6.742   7.976   5.755
  847W        W 1844   6.361   1.856   4.327
  848W        W 1845   1.714   4.532   2.203
  849W        W 1846   1.670   2.231   4.068
  850W        W 1847   6.359   2.876   1.077
  851W        W 1848   6.252   3.479   6.644
  852W        W 1849   6.878   2.407   1.542
  853W        W 1850   4.908   7.274   6.739
  854W        W 1851   6.342   7.769   1.351
  855W        W 1852   1.314   2.703   1.803
  856W        W 1853   5.365   2.211   1.015
  857W        W 1854   6.133   2.809   0.222
  858W        W 1855   3.547   1.410   0.921
  859W        W 1856   1.866   0.865   0.365
  860W        W 1857   0.405   2.740   3.271
  861W        W 1858   5.105   3.745   5.710
  862W        W 1859   6.970   2.933   2.394
  863W        W 1860   7.411   3.393   4.619
  864W        W 1861   3.902   3.318   6.802
  865W        W 1862   0.715   0.652   6.122
  866W        W 1863   1.865   1.286   6.914
  867W        W 1864   2.073   1.197   3.963
  868W        W 1865   3.512   3.675   0.798
  869W        W 1866   0.918   2.861   3.164
  870W        W 1867   1.404   4.826   7.401
  871W        W 1868   4.708   4.465   6.139
  872W        W 1869   6.478   3.870   2.421
  873W        W 1870   4.726   4.521   7.954
  874W        W 1871   3.346   4.732   1.798
  875W        W 1872   4.146   1.355   5.195
  876W        W 1873   0.568   4.920   6.799
  877W        W 1874   0.673   3.446   6.369
  878W        W 1875   3.289   7.949   1.058
  879W        W 1876   6.963   6.084   2.474
  880W        W 1877   3.633   1.941   6.375
  881W        W 1878   5.345   4.925   6.227
  882W        W 1879   1.165   0.176   1.813
  883W        W 1880   6.300   7.660   7.974
  884W        W 1881   4.737   1.006   5.639
  885W        W 1882   5.185   5.479   5.170
  886W        W 1883   5.987   2.795   1.417
  887W        W 1884   4.513   1.705   5.225
  888W        W 1885   7.207   0.496   1.786
  889W        W 1886   0.385   0.729   2.685
  890W        W 1887   6.439   4.376   2.382
  891W        W 1888   3.310   7.331   4.681
  892W        W 1889   2.494   7.242   6.886
  893W        W 1890   1.450   0.172   7.741
  894W        W 1891   0.071   3.572   6.385
  895W        W 1892   2.658   6.879   6.162
  896W        W 1893   4.334   5.143   4.925
  897W        W 1894   2.834   5.487   4.567
  898W        W 1895   6.984   6.419   6.228
  899W        W 1896   4.335   2.761   3.456
  900W        W 1897   2.983   6.182   4.252
  901W        W 1898   2.790   6.863   6.718
  902W        W 1899   0.259   0.663   5.870
  903W        W 1900   3.839   2.994   1.427
  904W        W 1901   3.897   2.544   3.584
  905W        W 1902   1.807   0.662   1.242
  906W        W 1903   6.335   7.217   1.221
  907W        W 1904   5.195   3.122   1.093
  908W        W 1905   7.991   6.779   6.448
  909W        W 1906   4.671   3.516   5.877
  910W        W 1907   7.138   2.252   0.442
  911W        W 1908   1.270   5.127   6.454
  912W        W 1909   0.882   7.353   3.469
  913W        W 1910   6.625   6.544   5.337
  914W        W 1911   5.342   4.506   6.893
  915W        W 1912   3.884   5.699   6.741
  916W        W 1913   4.290   6.113   1.699
  917W        W 1914   0.658   5.402   5.596
  918W        W 1915   6.655   2.188   2.955
  919W        W 1916   1.538   2.576   6.189
  920W        W 1917   4.275   5.482   7.297
  921W        W 1918   7.040   6.083   3.577
  922W        W 1919   5.668   4.011   6.045
  923W        W 1920   0.466   3.821   5.601
  924W        W 1921   6.623   7.593   7.151
  925W        W 1922   5.208   6.732   4.605
  926W        W 1923   0.517   4.585   4.983
  927W        W 1924   4.300   2.713   7.517
  928W        W 1925   4.259   4.739   2.705
  929W        W 1926   3.160   2.934   3.030
  930W        W 1927   3.946   0.835   2.558
  931W        W 1928   6.692   1.942   4.737
  932W        W 1929   2.586   1.789   3.881
  933W        W 1930   5.931   5.931   3.254
  934W        W 1931   4.734   5.559   1.255
  935W        W 1932   6.888   3.128   4.001
  936W        W 1933   0.526   3.302   1.846
  937W        W 1934   5.607   2.059   4.306
  938W        W 1935   6.807   6.537   3.687
  939W        W 1936   5.805   1.723   5.361
  940W        W 1937   7.608   5.553   7.356
  941W        W 1938   3.958   3.235   2.823
  942W        W 1939   6.477   2.762   1.634
  943W        W 1940   1.393   0.565   1.576
  944W        W 1941   7.504   6.824   4.135
  945W        W 1942   1.225   4.993   5.542
  946W        W 1943   6.751   3.903   1.568
  947W        W 1944   2.295   2.449   3.662
  948W        W 1945   0.960   2.364   3.325
  949W        W 1946   2.739   4.642   5.095
  950W        W 1947   1.326   5.827   1.396
  951W        W 1948   3.818   0.986   5.146
  952W        W 1949   5.445   7.313   1.530
  953W        W 1950   3.176   1.961   3.328
  954W        W 1951   7.375   5.026   0.830
  955W        W 1952   6.533   5.884   2.252
  956W        W 1953   2.996   4.341   4.763
  957W        W 1954   3.028   3.338   6.503
  958W        W 1955   0.201   2.783   1.247
  959W        W 1956   5.830   3.100   1.010
  960W        W 1957   5.685   0.492   1.537
  961W        W 1958   3.410   2.433   2.730
  962W        W 1959   1.305   0.674   4.835
  963W        W 1960   5.566   3.032   2.723
  964W        W 1961   6.418   6.167   4.111
  965W        W 1962   2.544   2.774   1.150
  966W        W 1963   2.873   3.831   2.574
  967W        W 1964   6.894   1.624   5.467
  968W        W 1965   0.905   5.204   0.607
  969W        W 1966   3.131   2.802   4.195
  970W        W 1967   4.766   2.857   1.888
  971W        W 1968   4.014   4.039   3.159
  972W        W 1969   2.431   6.103   1.271
  973W        W 1970   0.582   5.684   1.903
  974W        W 1971   4.601   3.157   5.522
  975W        W 1972   1.667   5.606   0.626
  976W        W 1973   6.704   3.715   1.089
  977W        W 1974   7.295   6.008   6.287
  978W        W 1975   7.158   7.366   1.745
  979W        W 1976   4.508   4.000   3.221
  980W        W 1977   4.543   3.664   7.381
  981W        W 1978   6.494   6.727   4.034
  982W        W 1979   3.154   4.790   5.292
  983W        W 1980   7.152   2.187   1.933
  984W        W 1981   7.411   4.330   2.499
  985W        W 1982   2.146   1.181   2.385
  986W        W 1983   6.794   7.323   6.747
  987W        W 1984   3.109   5.556   2.922
  988W        W 1985   6.454   3.709   6.194
  989W        W 1986   4.905   7.294   1.534
  990W        W 1987   2.036   5.234   4.960
  991W        W 1988   5.559   6.922   7.778
  992W        W 1989   4.418   6.380   3.164
  993W        W 1990   6.301   6.424   0.133
  994W        W 1991   0.943   5.879   0.194
  995W        W 1992   6.022   0.159   2.465
  996W        W 1993   1.036   4.572   3.305
  997W        W 1994   2.091   0.356   4.087
  998W        W 1995   5.431   4.135   0.279
  999W        W 1996   5.734   1.837   1.764
 1000W        W 1997   2.779   3.613   3.353
 1001W        W 1998   5.280   2.960   3.430
 1002W        W 1999   6.297   4.686   2.920
 1003W        W 2000   5.677   5.770   4.008
 1004W        W 2001   0.036   5.552   6.843
 1005W        W 2002   5.083   4.191   0.742
 1006W        W 2003   6.191   5.530   1.349
 1007W        W 2004   7.930   1.062   1.199
 1008W        W 2005   0.288   7.731   6.482
 1009W        W 2006   6.614   1.119   4.831
 1010W        W 2007   7.315   2.212   4.055
 1011W        W 2008   4.004   5.777   5.808
 1012W        W 2009   2.532   4.835   6.152
 1013W        W 2010   1.529   5.621   5.183
 1014W        W 2011   4.733   4.390   3.472
 1015W        W 2012   3.290   6.329   5.547
 1016W        W 2013   1.575   3.094   4.495
 1017W        W 2014   6.760   2.964   0.780
 1018W        W 2015   2.033   4.558   6.831
 1019W        W 2016   4.965   4.547   1.099
 1020W        W 2017   5.681   5.608   1.545
 1021W        W 2018   7.532   3.526   1.710
 1022W        W 2019   5.593   2.490   3.430
 1023W        W 2020   2.139   3.155   6.487
 1024W        W 2021   6.616   4.400   5.224
 1025W        W 2022   2.366   4.898   6.636
 1026W        W 2023   2.688   3.904   4.726
 1027W        W 2024   1.201   3.393   1.710
 1028W        W 2025   3.672   1.732   3.215
 1029W        W 2026   1.605   3.532   2.545
 1030W        W 2027   4.294   7.435   3.297
 1031W        W 2028   6.915   6.201   4.067
 1032W        W 2029   5.133   5.997   6.969
 1033W        W 2030   2.845   0.688   0.221
 1034W        W 2031   5.468   3.624   4.536
 1035W        W 2032   4.644   1.102   7.269
 1036W        W 2033   0.784   4.091   0.065
 1037W        W 2034   5.117   0.662   2.674
 1038W        W 2035   4.308   0.133   1.450
 1039W        W 2036   2.319   6.350   7.322
 1040W        W 2037   3.363   4.564   7.941
 1041W        W 2038   3.251   5.157   2.123
 1042W        W 2039   5.476   2.464   6.419
 1043W        W 2040   4.443   1.294   0.908
 1044W        W 2041   1.481   6.011   7.404
 1045W        W 2042   2.846   5.990   6.590
 1046W        W 2043   5.028   5.970   5.150
 1047W        W 2044   1.014   2.571   6.061
 1048W        W 2045   1.857   0.508   0.739
 1049W        W 2046   0.925   7.026   6.290
 1050W        W 2047   1.444   1.796   2.021
 1051W        W 2048   1.313   1.729   2.493
 1052W        W 2049   2.228   3.032   7.029
 1053W        W 2050   5.987   1.613   2.143
 1054W        W 2051   1.967   7.936   2.661
 1055W        W 2052   4.843   4.580   2.559
 1056W        W 2053   5.347   6.477   6.996
 1057W        W 2054   5.951   1.603   6.235
 1058W        W 2055   7.576   2.434   3.105
 1059W        W 2056   5.943   1.575   3.521
 1060W        W 2057   1.534   2.772   6.667
 1061W        W 2058   0.355   4.160   4.772
 1062W        W 2059   5.951   3.975   3.175
 1063W        W 2060   5.407   6.441   1.692
 1064W        W 2061   3.837   2.125   6.827
 1065W        W 2062   0.764   3.772   3.058
 1066W        W 2063   5.178   6.233   5.644
 1067W        W 2064   1.735   4.370   4.709
 1068W        W 2065   5.021   4.820   3.460
 1069W        W 2066   5.146   7.415   4.975
 1070W        W 2067   0.910   4.572   0.330
 1071W        W 2068   4.686   1.065   4.649
 1072W        W 2069   0.799   1.860   5.241
 1073W        W 2070   1.796   7.218   7.650
 1074W        W 2071   5.228   1.756   1.766
 1075W        W 2072   6.469   3.696   1.931
 1076W        W 2073   3.311   2.255   4.101
 1077W        W 2074   1.236   6.654   3.185
 1078W        W 2075   4.864   2.155   0.927
 1079W        W 2076   1.089   2.985   1.421
 1080W        W 2077   1.469   5.083   1.865
 1081W        W 2078   3.785   0.356   2.447
 1082W        W 2079   6.311   0.912   4.085
 1083W        W 2080   5.976   1.849   3.964
 1084W        W 2081   1.366   3.455   6.611
 1085W        W 2082   2.780   3.521   0.376
 1086W        W 2083   6.144   2.191   2.835
 1087W        W 2084   0.928   3.825   5.387
 1088W        W 2085   1.450   1.684   4.732
 1089W        W 2086   6.257   1.780   1.628
 1090W        W 2087   4.439   1.191   1.408
 1091W        W 2088   7.539   0.964   6.328
 1092W        W 2089   6.680   0.946   3.421
 1093W        W 2090   4.829   5.825   2.363
 1094W        W 2091   0.116   7.221   6.687
 1095W        W 2092   0.937   6.561   7.570
 1096W        W 2093   6.931   3.750   5.556
 1097W        W 2094   6.362   0.335   3.211
 1098W        W 2095   6.086   4.584   7.764
 1099W        W 2096   1.331   2.120   3.118
 1100W        W 2097   1.019   5.897   3.323
 1101W        W 2098   6.262   4.409   4.822
 1102W        W 2099   6.044   0.003   3.473
 1103W        W 2100   3.630   0.705   5.578
 1104W        W 2101   2.765   1.333   6.927
 1105W        W 2102   5.276   3.308   3.038
 1106W        W 2103   7.297   2.610   5.306
 1107W        W 2104   7.676   7.371   6.979
 1108W        W 2105   2.322   0.624   0.461
 1109W        W 2106   0.609   6.080   1.559
 1110W        W 2107   3.825   1.624   7.547
 1111W        W 2108   3.703   0.593   2.930
 1112W        W 2109   3.334   2.926   2.057
 1113W        W 2110   2.141   5.502   7.350
 1114W        W 2111   3.893   4.392   0.575
 1115W        W 2112   3.553   5.917   3.626
 1116W        W 2113   0.649   1.730   1.867
 1117W        W 2114   5.645   1.301   2.444
 1118W        W 2115   6.572   2.803   7.301
 1119W        W 2116   1.568   6.771   7.748
 1120W        W 2117   3.956   5.550   0.239
 1121W        W 2118   6.605   2.602   0.132
 1122W        W 2119   3.068   6.306   7.385
 1123W        W 2120   6.794   7.387   4.743
 1124W        W 2121   5.065   3.587   6.197
 1125W        W 2122   3.035   1.413   5.895
 1126W        W 2123   4.737   6.109   4.728
 1127W        W 2124   0.014   0.754   2.316
 1128W        W 2125   6.500   5.438   0.070
 1129W        W 2126   1.024   3.095   7.837
 1130W        W 2127   2.929   3.069   6.063
 1131W        W 2128   0.328   3.277   6.705
 1132W        W 2129   3.970   2.172   5.417
 1133W        W 2130   4.263   2.875   6.881
 1134W        W 2131   3.155   6.754   1.628
 1135W        W 2132   2.907   2.734   4.747
 1136W        W 2133   7.229   4.194   0.657
 1137W        W 2134   6.246   1.420   4.056
 1138W        W 2135   4.029   5.377   1.948
 1139W        W 2136   3.691   2.671   2.378
 1140W        W 2137   4.917   1.992   5.277
 1141W        W 2138   2.427   2.963   4.743
 1142W        W 2139   2.172   2.084   3.998
 1143W        W 2140   6.901   5.348   5.135
 1144W        W 2141   3.564   5.662   3.151
 1145W        W 2142   5.174   5.373   6.353
 1146W        W 2143   6.944   5.702   5.497
 1147W        W 2144   6.161   2.358   7.953
 1148W        W 2145   0.731   6.442   4.340
 1149W        W 2146   7.294   2.916   4.524
 1150W        W 2147   4.962   5.040   5.428
 1151W        W 2148   5.222   1.121   3.270
 1152W        W 2149   4.366   4.975   6.534
 1153W        W 2150   3.647   1.493   5.188
 1154W        W 2151   6.618   2.530   5.190
 1155W        W 2152   6.909   2.922   5.364
 1156W        W 2153   3.744   3.461   3.693
 1157W        W 2154   1.651   4.913   4.712
 1158W        W 2155   4.163   7.035   5.963
 1159W        W 2156   1.073   0.745   3.517
 1160W        W 2157   1.213   2.377   6.535
 1161W        W 2158   3.537   4.869   3.547
 1162W        W 2159   1.468   5.911   6.525
 1163W        W 2160   1.053   5.782   3.822
 1164W        W 2161   2.283   4.090   1.694
 1165W        W 2162   6.046   4.861   6.191
 1166W        W 2163   4.288   1.695   3.384
 1167W        W 2164   6.769   2.782   4.377
 1168W        W 2165   7.869   2.279   2.684
 1169W        W 2166   0.388   4.101   4.249
 1170W        W 2167   4.653   3.798   5.435
 1171W        W 2168   2.777   0.816   4.275
 1172W        W 2169   6.093   4.245   5.283
 1173W        W 2170   0.821   4.171   5.020
 1174W        W 2171   0.735   1.641   6.121
 1175W        W 2172   1.066   2.698   0.997
 1176W        W 2173   3.649   2.848   2.863
 1177W        W 2174   7.226   3.320   5.502
 1178W        W 2175   7.784   5.258   1.953
 1179W        W 2176   3.792   6.489   5.686
 1180W        W 2177   5.719   4.872   7.530
 1181W        W 2178   4.500   2.384   1.227
 1182W        W 2179   1.410   0.960   4.418
 1183W        W 2180   6.776   5.682   0.972
 1184W        W 2181   3.842   0.707   0.744
 1185W        W 2182   7.523   5.277   1.498
 1186W        W 2183   5.494   2.397   4.691
 1187W        W 2184   5.875   6.824   5.976
 1188W        W 2185   4.324   2.402   5.698
 1189W        W 2186   0.966   5.786   2.299
 1190W        W 2187   1.656   6.939   7.246
 1191W        W 2188   0.986   6.156   7.264
 1192W        W 2189   5.935   5.169   1.600
 1193W        W 2190   6.671   5.217   7.265
 1194W        W 2191   7.033   5.567   2.267
 1195W        W 2192   0.692   2.754   0.648
 1196W        W 2193   1.664   6.541   0.237
 1197W        W 2194   2.575   6.491   0.926
 1198W        W 2195   4.210   7.028   1.975
 1199W        W 2196   3.610   5.111   4.007
 1200W        W 2197   6.127   5.571   1.873
 1201W        W 2198   1.577   2.238   2.712
 1202W        W 2199   2.242   6.134   2.168
 1203W        W 2200   2.788   7.386   1.166
 1204W        W 2201   3.778   2.965   5.967
 1205W        W 2202   2.012   3.251   1.736
 1206W        W 2203   0.240   0.275   2.453
 1207W        W 2204   1.384   7.099   5.973
 1208W        W 2205   6.092   5.805   6.758
 1209W        W 2206   2.101   3.887   7.383
 1210W        W 2207   2.425   4.417   5.420
 1211W        W 2208   5.146   3.485   3.501
 1212W        W 2209   3.996   0.407   1.778
 1213W        W 2210   4.228   4.710   5.208
 1214W        W 2211   7.241   0.283   2.233
 1215W        W 2212   5.224   5.873   2.700
 1216W        W 2213   4.274   3.549   3.069
 1217W        W 2214   2.946   4.046   1.067
 1218W        W 2215   6.690   0.797   6.890
 1219W        W 2216   4.069   5.730   4.366
 1220W        W 2217   4.619   2.499   6.840
 1221W        W 2218   3.527   2.760   3.347
 1222W        W 2219   0.635   6.366   1.099
 1223W        W 2220   0.816   5.038   3.307
 1224W        W 2221   4.674   2.404   2.259
 1225W        W 2222   4.539   5.283   1.910
 1226W        W 2223   5.537   2.678   1.748
 1227W        W 2224   3.819   0.807   3.382
 1228W        W 2225   3.356   2.780   6.205
 1229W        W 2226   1.573   6.750   4.418
 1230W        W 2227   6.456   0.958   2.004
 1231W        W 2228   0.269   5.607   5.343
 1232W        W 2229   4.643   2.590   0.772
 1233W        W 2230   2.834   1.206   4.672
 1234W        W 2231   6.434   3.788   3.314
 1235W        W 2232   4.857   2.306   4.434
 1236W        W 2233   6.772   1.973   2.486
 1237W        W 2234   6.355   5.201   2.750
 1238W        W 2235   3.682   5.265   1.144
 1239W        W 2236   4.845   2.067   6.939
 1240W        W 2237   1.154   0.924   3.043
 1241W        W 2238   0.246   5.171   6.323
 1242W        W 2239   1.594   3.877   7.501
 1243W        W 2240   4.953   6.613   1.821
 1244W        W 2241   7.916   3.360   0.484
 1245W        W 2242   6.279   6.362   0.654
 1246W        W 2243   2.116   4.746   4.646
 1247W        W 2244   3.974   1.329   1.593
 1248W        W 2245   2.093   7.303   1.977
 1249W        W 2246   2.033   5.737   0.958
 1250W        W 2247   0.884   0.603   2.705
 1251W        W 2248   3.590   4.163   5.558
 1252W        W 2249   6.448   3.968   5.035
 1253W        W 2250   3.510   1.544   5.750
 1254W        W 2251   6.384   7.761   0.476
 1255W        W 2252   3.202   2.470   2.246
 1256W        W 2253   1.326   2.498   7.089
 1257W        W 2254   0.640   7.221   3.039
 1258W        W 2255   5.884   2.657   2.810
 1259W        W 2256   6.708   4.158   2.020
 1260W        W 2257   5.930   5.299   2.492
 1261W        W 2258   3.692   3.728   6.511
 1262W        W 2259   6.270   3.868   0.850
 1263W        W 2260   3.998   1.345   6.462
 1264W        W 2261   5.248   5.226   5.828
 1265W        W 2262   0.192   0.317   6.266
 1266W        W 2263   5.226   4.941   1.978
 1267W        W 2264   4.012   5.305   5.272
 1268W        W 2265   2.532   6.207   1.751
 1269W        W 2266   4.934   2.418   2.708
 1270W        W 2267   4.919   6.442   4.275
 1271W        W 2268   3.770   2.762   0.950
 1272W        W 2269   1.076   4.351   6.039
 1273W        W 2270   0.820   7.784   6.506
 1274W        W 2271   2.226   0.680   5.031
 1275W        W 2272   3.994   6.213   7.339
 1276W        W 2273   1.511   0.459   4.387
 1277W        W 2274   1.197   6.323   0.269
 1278W        W 2275   5.987   6.768   3.915
 1279W        W 2276   1.281   3.077   2.845
 1280W        W 2277   0.210   4.175   6.383
 1281W        W 2278   3.494   4.177   4.730
 1282W        W 2279   1.495   3.129   2.022
 1283W        W 2280   3.958   2.426   7.784
 1284W        W 2281   0.255   5.665   3.427
 1285W        W 2282   0.313   0.814   1.908
 1286W        W 2283   1.775   7.522   2.332
 1287W        W 2284   1.790   0.808   5.632
 1288W        W 2285   0.933   7.457   7.381
 1289W        W 2286   5.747   7.809   2.686
 1290W        W 2287   4.308   7.935   3.095
 1291W        W 2288   0.905   4.797   3.757
 1292W        W 2289   7.100   5.084   6.143
 1293W        W 2290   1.495   7.951   2.427
 1294W        W 2291   4.313   6.397   4.010
 1295W        W 2292   6.618   2.223   2.053
 1296W        W 2293   6.177   4.170   2.756
 1297W        W 2294   4.901   1.835   6.299
 1298W        W 2295   5.149   7.293   2.811
 1299W        W 2296   4.252   0.248   2.236
 1300W        W 2297   5.279   0.511   6.891
 1301W        W 2298   2.843   2.716   5.673
 1302W        W 2299   3.114   2.120   7.248
 1303W        W 2300   2.177   4.903   0.483
 1304W        W 2301   6.088   0.798   6.743
 1305W        W 2302   2.450   3.289   3.562
 1306W        W 2303   5.442   3.323   0.708
 1307W        W 2304   5.889   1.070   4.326
 1308W        W 2305   6.845   0.478   5.914
 1309W        W 2306   5.238   5.539   3.924
 1310W        W 2307   6.068   5.020   3.705
 1311W        W 2308   6.036   3.653   5.892
 1312W        W 2309   7.677   1.990   7.135
 1313W        W 2310   0.766   5.054   4.181
 1314W        W 2311   7.929   1.148   6.586
 1315W        W 2312   4.626   4.833   0.343
 1316W        W 2313   6.720   7.891   5.222
 1317W        W 2314   4.840   3.085   3.216
 1318W        W 2315   1.515   2.632   1.335
 1319W        W 2316   7.588   4.837   1.741
 1320W        W 2317   5.419   0.699   5.644
 1321W        W 2318   1.778   2.211   7.166
 1322W        W 2319   1.694   4.072   1.808
 1323W        W 2320   0.861   6.616   7.042
 1324W        W 2321   4.081   3.095   0.726
 1325W        W 2322   4.513   2.137   6.475
 1326W        W 2323   2.882   5.443   7.070
 1327W        W 2324   4.979   5.364   2.173
 1328W        W 2325   5.648   1.254   5.999
 1329W        W 2326   2.222   1.735   2.500
 1330W        W 2327   3.939   5.639   2.387
 1331W        W 2328   2.300   6.240   3.520
 1332W        W 2329   3.677   5.933   4.126
 1333W        W 2330   4.708   6.741   3.922
 1334W        W 2331   2.048   6.446   6.359
 1335W        W 2332   7.660   0.145   6.357
 1336W        W 2333   6.332   6.748   0.985
 1337W        W 2334   6.744   4.525   2.757
 1338W        W 2335   2.011   3.285   4.682
 1339W        W 2336   5.907   6.442   1.598
 1340W        W 2337   1.867   4.702   7.287
 1341W        W 2338   2.958   5.637   5.027
 1342W        W 2339   1.619   6.521   2.868
 1343W        W 2340   4.448   2.201   5.242
 1344W        W 2341   6.462   2.346   4.538
 1345W        W 2342   5.630   6.102   6.792
 1346W        W 2343   1.749   7.465   5.901
 1347W        W 2344   0.714   1.448   1.444
 1348W        W 2345   5.588   3.604   0.313
 1349W        W 2346   4.455   5.232   0.704
 1350W        W 2347   6.538   1.153   2.817
 1351W        W 2348   7.009   5.441   0.076
 1352W        W 2349   3.650   2.158   1.568
 1353W        W 2350   7.313   5.225   2.539
 1354W        W 2351   3.793   6.170   6.871
 1355W        W 2352   1.839   5.834   1.412
 1356W        W 2353   7.722   2.754   1.412
 1357W        W 2354   1.065   5.498   4.261
 1358W        W 2355   5.618   5.168   6.636
 1359W        W 2356   7.784   3.077   4.396
 1360W        W 2357   7.292   6.837   7.244
 1361W        W 2358   4.035   6.741   1.591
 1362W        W 2359   6.885   4.698   0.089
 1363W        W 2360   2.643   2.789   5.210
 1364W        W 2361   0.085   4.583   4.658
 1365W        W 2362   1.344   4.926   3.470
 1366W        W 2363   6.696   6.423   7.798
 1367W        W 2364   0.153   5.681   6.337
 1368W        W 2365   1.420   1.019   0.158
 1369W        W 2366   0.868   4.128   2.627
 1370W        W 2367   3.435   3.703   7.782
 1371W        W 2368   0.947   3.740   6.724
 1372W        W 2369   1.158   3.290   2.405
 1373W        W 2370   2.060   0.852   7.343
 1374W        W 2371   2.804   4.547   3.951
 1375W        W 2372   4.351   2.251   3.281
 1376W        W 2373   1.786   0.830   7.816
 1377W        W 2374   2.265   2.529   7.187
 1378W        W 2375   5.398   6.907   5.763
 1379W        W 2376   3.565   6.059   5.888
 1380W        W 2377   5.482   7.215   3.879
 1381W        W 2378   1.834   6.481   7.119
 1382W        W 2379   6.486   4.381   0.054
 1383W        W 2380   6.071   4.554   2.080
 1384W        W 2381   5.620   0.708   2.000
 1385W        W 2382   4.031   5.350   6.365
 1386W        W 2383   4.032   2.615   5.169
 1387W        W 2384   7.872   3.749   1.392
 1388W        W 2385   0.956   7.147   3.927
 1389W        W 2386   6.067   3.146   2.846
 1390W        W 2387   6.999   3.895   7.819
 1391W        W 2388   4.609   2.673   6.372
 1392W        W 2389   3.347   0.970   7.183
 1393W        W 2390   6.803   7.742   1.624
 1394W        W 2391   3.410   2.317   3.612
 1395W        W 2392   7.600   6.422   7.200
 1396W        W 2393   5.687   1.780   5.863
 1397W        W 2394   3.381   1.056   5.877
 1398W        W 2395   0.434   4.461   1.989
 1399W        W 2396   4.036   2.620   3.093
 1400W        W 2397   3.445   0.381   4.623
 1401W        W 2398   6.606   0.173   3.833
 1402W        W 2399   2.713   5.428   1.467
 1403W        W 2400   6.303   6.389   3.681
 1404W        W 2401   2.249   1.528   2.043
 1405W        W 2402   2.066   3.879   3.902
 1406W        W 2403   7.889   2.069   6.523
 1407W        W 2404   3.616   7.338   5.110
 1408W        W 2405   1.655   3.105   6.300
 1409W        W 2406   6.703   4.959   3.063
 1410W        W 2407   5.216   2.043   2.562
 1411W        W 2408   7.376   5.049   6.593
 1412W        W 2409   5.213   2.474   6.891
 1413W        W 2410   0.492   6.261   7.108
 1414W        W 2411   1.989   5.472   5.405
 1415W        W 2412   0.722   1.107   2.777
 1416W        W 2413   0.561   4.016   2.223
 1417W        W 2414   0.700   6.696   3.899
 1418W        W 2415   5.876   4.878   4.179
 1419W        W 2416   7.280   2.687   1.659
 1420W        W 2417   1.291   0.692   7.742
 1421W        W 2418   1.305   4.038   4.676
 1422W        W 2419   5.570   0.764   5.127
 1423W        W 2420   2.404   4.238   3.124
 1424W        W 2421   6.063   7.793   2.109
 1425W        W 2422   3.343   0.883   6.356
 1426W        W 2423   5.876   3.561   0.792
 1427W        W 2424   0.935   2.969   5.601
 1428W        W 2425   5.017   3.976   3.314
 1429W        W 2426   1.545   1.281   5.657
 1430W        W 2427   4.977   3.447   0.766
 1431W        W 2428   5.785   2.108   6.225
 1432W        W 2429   6.919   4.046   3.361
 1433W        W 2430   1.855   5.787   2.405
 1434W        W 2431   5.138   0.972   7.093
 1435W        W 2432   2.666   0.965   0.623
 1436W        W 2433   7.527   7.232   5.966
 1437W        W 2434   7.627   7.159   6.486
 1438W        W 2435   4.511   7.271   2.323
 1439W        W 2436   4.527   5.387   6.264
 1440W        W 2437   4.976   4.877   0.708
 1441W        W 2438   4.336   2.082   6.944
 1442W        W 2439   0.046   3.415   7.672
 1443W        W 2440   2.433   4.218   3.921
 1444W        W 2441   6.485   2.823   2.171
 1445W        W 2442   5.857   6.642   0.801
 1446W        W 2443   4.663   6.101   6.795
 1447W        W 2444   5.685   5.452   5.689
 1448W        W 2445   6.321   7.430   3.313
 1449W        W 2446   7.060   2.116   7.054
 1450W        W 2447   6.683   7.795   7.634
 1451W        W 2448   5.211   1.020   1.766
 1452W        W 2449   6.697   7.669   2.107
 1453W        W 2450   4.999   0.660   3.309
 1454W        W 2451   7.393   3.781   5.854
 1455W        W 2452   7.424   6.180   6.788
 1456W        W 2453   0.885   2.174   6.885
 1457W        W 2454   1.572   5.961   0.985
 1458W        W 2455   1.894   1.816   6.821
 1459W        W 2456   1.524   7.967   3.436
 1460W        W 2457   2.042   1.374   2.821
 1461W        W 2458   2.162   2.931   3.760
 1462W        W 2459   4.736   5.638   7.028
 1463W        W 2460   1.922   7.396   7.159
 1464W        W 2461   0.079   4.919   2.810
 1465W        W 2462   1.142   7.175   1.760
 1466W        W 2463   2.655   3.605   1.249
 1467W        W 2464   1.505   3.397   3.579
 1468W        W 2465   7.704   0.624   1.908
 1469W        W 2466   4.259   6.890   4.163
 1470W        W 2467   7.793   2.897   0.915
 1471W        W 2468   7.267   3.960   1.625
 1472W        W 2469   1.785   1.552   2.328
 1473W        W 2470   7.087   1.019   4.130
 1474W        W 2471   4.048   2.128   0.394
 1475W        W 2472   4.353   5.759   2.089
 1476W        W 2473   0.475   0.936   1.019
 1477W        W 2474   7.532   2.327   2.317
 1478W        W 2475   2.613   4.363   5.943
 1479W        W 2476   3.558   1.857   7.183
 1480W        W 2477   6.311   1.952   3.260
 1481W        W 2478   0.477   7.112   3.674
 1482W        W 2479   4.021   5.082   3.625
 1483W        W 2480   5.351   3.423   7.808
 1484W        W 2481   5.594   0.005   2.240
 1485W        W 2482   0.708   1.158   6.271
 1486W        W 2483   6.083   4.525   7.267
 1487W        W 2484   3.415   3.250   3.366
 1488W        W 2485   3.059   0.796   1.173
 1489W        W 2486   5.698   5.277   6.153
 1490W        W 2487   2.482   0.900   2.865
 1491W        W 2488   3.522   4.722   4.369
 1492W        W 2489   6.520   1.955   1.194
 1493W        W 2490   7.258   7.580   4.696
 1494W        W 2491   4.664   0.246   3.326
 1495W        W 2492   6.394   0.004   1.805
 1496W        W 2493   5.239   2.580   3.768
 1497W        W 2494   2.768   5.168   6.455
 1498W        W 2495   7.279   3.953   3.799
 1499W        W 2496   3.542   2.663   7.971
 1500W        W 2497   2.225   0.363   6.525
 1501W        W 2498   7.254   3.072   6.493
 1502W        W 2499   2.555   1.544   1.276
 1503W        W 2500   0.428   4.882   2.334
 1504W        W 2501   7.119   5.447   7.111
 1505W        W 2502   1.968   0.181   3.559
 1506W        W 2503   7.775   5.932   6.535
 1507W        W 2504   0.453   6.583   1.539
 1508W        W 2505   6.368   7.697   4.774
 1509W        W 2506   3.596   4.334   2.035
 1510W        W 2507   1.052   5.271   3.807
 1511W        W 2508   3.296   2.037   0.763
 1512W        W 2509   3.424   4.472   0.421
 1513W        W 2510   1.775   1.305   1.885
 1514W        W 2511   4.750   2.784   7.228
 1515W        W 2512   0.404   4.231   5.320
 1516W        W 2513   5.001   2.779   4.607
 1517W        W 2514   6.179   2.170   6.907
 1518W        W 2515   5.076   6.800   7.914
 1519W        W 2516   6.460   0.296   4.725
 1520W        W 2517   0.623   6.381   5.258
 1521W        W 2518   1.800   0.808   1.739
 1522W        W 2519   0.363   4.992   4.727
 1523W        W 2520   0.938   3.496   7.453
 1524W        W 2521   5.345   3.511   6.974
 1525W        W 2522   5.846   7.619   3.150
 1526W        W 2523   7.589   4.626   4.795
 1527W        W 2524   2.616   1.195   2.176
 1528W        W 2525   2.953   3.430   2.901
 1529W        W 2526   5.435   5.849   4.883
 1530W        W 2527   1.530   4.501   4.259
 1531W        W 2528   5.603   2.508   5.946
 1532W        W 2529   0.621   1.573   6.622
 1533W        W 2530   2.030   2.736   6.198
 1534W        W 2531   0.206   2.470   6.478
 1535W        W 2532   4.859   7.616   2.535
 1536W        W 2533   4.525   4.645   5.681
 1537W        W 2534   5.631   4.393   7.871
 1538W        W 2535   5.338   3.960   1.584
 1539W        W 2536   1.913   5.119   5.765
 1540W        W 2537   3.280   1.858   5.000
 1541W        W 2538   1.890   5.057   3.418
 1542W        W 2539   1.723   0.400   2.591
 1543W        W 2540   6.392   3.908   5.549
 1544W        W 2541   5.219   4.434   3.720
 1545W        W 2542   6.849   0.647   2.126
 1546W        W 2543   1.976   0.365   7.000
 1547W        W 2544   2.934   4.816   7.776
 1548W        W 2545   5.975   2.702   0.725
 1549W        W 2546   4.684   4.760   4.921
 1550W        W 2547   2.373   2.396   6.360
 1551W        W 2548   1.797   6.382   2.062
 1552W        W 2549   2.416   3.836   4.282
 1553W        W 2550   5.723   5.844   2.751
 1554W        W 2551   7.480   7.825   2.374
 1555W        W 2552   3.873   4.434   2.858
 1556W        W 2553   3.156   0.548   3.481
 1557W        W 2554   5.239   5.506   6.829
 1558W        W 2555   1.544   2.577   0.824
 1559W        W 2556   1.090   5.432   5.329
 1560W        W 2557   2.608   4.673   4.625
 1561W        W 2558   2.769   0.765   1.971
 1562W        W 2559   2.053   6.762   7.526
 1563W        W 2560   2.049   6.316   3.016
 1564W        W 2561   1.531   6.179   1.691
 1565W        W 2562   6.447   4.871   2.365
 1566W        W 2563   3.394   3.528   6.848
 1567W        W 2564   2.015   0.829   2.726
 1568W        W 2565   2.523   2.363   5.449
 1569W        W 2566   2.148   1.444   1.562
 1570W        W 2567   0.800   6.840   3.392
 1571W        W 2568   2.407   5.315   6.955
 1572W        W 2569   5.805   5.737   2.256
 1573W        W 2570   0.053   6.019   3.752
 1574W        W 2571   3.204   7.660   4.306
 1575W        W 2572   0.413   0.475   6.704
 1576W        W 2573   1.812   2.044   2.311
 1577W        W 2574   3.959   1.943   7.919
 1578W        W 2575   1.386   6.502   7.362
 1579W        W 2576   7.533   1.343   1.353
 1580W        W 2577   3.841   4.743   0.196
 1581W        W 2578   5.890   1.582   4.877
 1582W        W 2579   4.790   5.088   7.937
 1583W        W 2580   5.210   3.226   2.403
 1584W        W 2581   7.074   2.753   0.415
 1585W        W 2582   0.960   2.725   6.825
 1586W        W 2583   0.414   1.139   6.758
 1587W        W 2584   4.176   4.582   3.646
 1588W        W 2585   7.148   4.446   3.642
 1589W        W 2586   6.767   3.653   7.434
 1590W        W 2587   4.212   4.377   7.676
 1591W        W 2588   1.857   5.850   2.900
 1592W        W 2589   4.111   2.784   2.618
 1593W        W 2590   4.779   5.907   5.587
 1594W        W 2591   3.773   3.331   1.044
 1595W        W 2592   2.952   3.401   7.052
 1596W        W 2593   3.849   1.183   5.628
 1597W        W 2594   1.917   0.727   3.684
 1598W        W 2595   7.356   6.364   4.956
 1599W        W 2596   2.700   4.046   0.323
 1600W        W 2597   3.284   6.618   1.162
 1601W        W 2598   1.306   3.085   6.984
 1602W        W 2599   3.587   1.311   4.409
 1603W        W 2600   2.102   6.724   4.910
 1604W        W 2601   0.301   0.847   6.354
 1605W        W 2602   1.548   1.068   6.541
 1606W        W 2603   7.332   3.303   3.236
 1607W        W 2604   1.382   1.630   3.792
 1608W        W 2605   4.157   2.861   5.627
 1609W        W 2606   5.703   1.120   3.455
 1610W        W 2607   0.785   0.802   5.617
 1611W        W 2608   1.524   0.478   3.438
 1612W        W 2609   6.042   0.629   2.306
 1613W        W 2610   5.293   6.617   2.180
 1614W        W 2611   1.801   2.442   3.637
 1615W        W 2612   4.439   2.874   3.927
 1616W        W 2613   4.586   1.650   7.156
 1617W        W 2614   0.828   0.539   7.027
 1618W        W 2615   5.362   6.166   4.095
 1619W        W 2616   5.967   5.466   2.980
 1620W        W 2617   7.564   4.034   0.261
 1621W        W 2618   3.631   5.474   4.377
 1622W        W 2619   1.332   7.227   0.710
 1623W        W 2620   1.198   1.717   0.909
 1624W        W 2621   2.258   1.892   6.417
 1625W        W 2622   7.996   2.693   2.945
 1626W        W 2623   0.818   2.352   5.076
 1627W        W 2624   2.478   5.931   5.089
 1628W        W 2625   1.916   5.151   7.019
 1629W        W 2626   3.381   2.855   0.514
 1630W        W 2627   7.431   4.765   2.241
 1631W        W 2628   5.547   0.301   2.673
 1632W        W 2629   3.877   5.143   7.861
 1633W        W 2630   2.762   2.998   2.705
 1634W        W 2631   2.184   6.749   5.407
 1635W        W 2632   1.864   5.726   3.833
 1636W        W 2633   6.309   7.178   3.834
 1637W        W 2634   0.626   2.507   1.181
 1638W        W 2635   7.155   4.284   2.956
 1639W        W 2636   7.870   1.093   1.733
 1640W        W 2637   2.198   2.217   6.798
 1641W        W 2638   0.753   3.656   2.548
 1642W        W 2639   5.583   4.215   5.163
 1643W        W 2640   7.536   7.933   1.157
 1644W        W 2641   4.139   0.398   3.250
 1645W        W 2642   5.715   6.424   7.420
 1646W        W 2643   4.737   4.686   3.051
 1647W        W 2644   1.983   6.240   1.093
 1648W        W 2645   2.686   4.810   5.588
 1649W        W 2646   2.820   4.660   2.594
 1650W        W 2647   6.143   1.147   6.143
 1651W        W 2648   7.351   6.813   6.200
 1652W        W 2649   0.805   0.569   4.779
 1653W        W 2650   4.138   2.350   2.315
 1654W        W 2651   5.024   4.729   5.862
 1655W        W 2652   4.968   2.327   1.389
 1656W        W 2653   4.952   6.206   3.260
 1657W        W 2654   1.015   0.073   6.930
 1658W        W 2655   1.596   7.737   6.925
 1659W        W 2656   4.020   6.181   0.887
 1660W        W 2657   0.860   3.245   6.796
 1661W        W 2658   3.140   3.890   4.950
 1662W        W 2659   4.669   7.966   1.844
 1663W        W 2660   0.780   6.226   4.803
 1664W        W 2661   6.577   2.415   7.651
 1665W        W 2662   5.809   7.439   2.330
 1666W        W 2663   3.545   6.324   0.789
 1667W        W 2664   5.099   0.452   0.898
 1668W        W 2665   2.543   3.666   7.211
 1669W        W 2666   2.175   4.125   5.735
 1670W        W 2667   4.264   4.281   6.256
 1671W        W 2668   3.044   1.497   3.751
 1672W        W 2669   1.911   0.398   4.708
 1673W        W 2670   1.284   2.993   5.961
 1674W        W 2671   1.402   0.786   2.082
 1675W        W 2672   0.720   5.892   5.401
 1676W        W 2673   0.620   0.564   2.250
 1677W        W 2674   2.174   4.790   3.748
 1678W        W 2675   5.528   3.528   1.157
 1679W        W 2676   4.283   5.861   3.890
 1680W        W 2677   4.351   3.538   4.589
 1681W        W 2678   5.110   3.836   1.121
 1682W        W 2679   2.498   5.913   4.323
 1683W        W 2680   3.878   2.944   1.965
 1684W        W 2681   6.330   1.957   7.370
 1685W        W 2682   3.343   7.875   4.772
 1686W        W 2683   4.239   4.399   0.989
 1687W        W 2684   6.068   2.284   4.206
 1688W        W 2685   0.304   2.477   1.699
 1689W        W 2686   4.520   5.117   1.418
 1690W        W 2687   2.115   6.525   0.685
 1691W        W 2688   2.310   5.550   0.574
 1692W        W 2689   1.703   4.014   4.329
 1693W        W 2690   1.266   3.663   5.046
 1694W        W 2691   1.664   5.093   5.276
 1695W        W 2692   5.803   4.475   2.939
 1696W        W 2693   4.204   4.342   6.808
 1697W        W 2694   6.809   0.973   1.149
 1698W        W 2695   4.371   1.337   0.375
 1699W        W 2696   4.786   5.262   6.685
 1700W        W 2697   4.578   1.685   6.665
 1701W        W 2698   6.915   7.611   4.280
 1702W        W 2699   4.082   4.393   1.889
 1703W        W 2700   5.175   0.263   3.047
 1704W        W 2701   5.643   7.059   4.350
 1705W        W 2702   3.647   1.274   3.444
 1706W        W 2703   7.398   5.941   5.706
 1707W        W 2704   2.211   1.036   1.918
 1708W        W 2705   7.214   0.520   4.004
 1709W        W 2706   4.706   4.114   0.261
 1710W        W 2707   0.654   7.076   7.165
 1711W        W 2708   2.445   5.175   0.890
 1712W        W 2709   1.413   0.749   0.609
 1713W        W 2710   1.148   1.307   7.441
 1714W        W 2711   1.280   7.864   7.312
 1715W        W 2712   6.299   3.190   7.065
 1716W        W 2713   3.899   3.330   6.286
 1717W        W 2714   2.307   6.586   1.361
 1718W        W 2715   4.750   1.689   0.758
 1719W        W 2716   7.272   5.791   0.832
 1720W        W 2717   3.675   1.623   6.748
 1721W        W 2718   4.191   4.390   4.201
 1722W        W 2719   6.440   6.870   2.360
 1723W        W 2720   3.299   2.535   0.899
 1724W        W 2721   3.254   6.057   3.232
 1725W        W 2722   3.548   3.779   7.289
 1726W        W 2723   3.861   2.845   0.323
 1727W        W 2724   4.848   6.469   7.091
 1728W        W 2725   7.373   4.447   1.498
 1729W        W 2726   1.629   1.125   7.407
 1730W        W 2727   6.796   5.098   7.763
 1731W        W 2728   3.476   3.104   6.587
 1732W        W 2729   0.760   4.592   7.174
 1733W        W 2730   0.632   5.940   6.393
 1734W        W 2731   1.712   1.670   6.026
 1735W        W 2732   2.340   4.655   2.807
 1736W        W 2733   2.564   3.717   3.808
 1737W        W 2734   5.834   6.579   6.960
 1738W        W 2735   4.196   2.272   4.810
 1739W        W 2736   2.909   3.633   2.115
 1740W        W 2737   7.509   2.549   0.675
 1741W        W 2738   7.362   5.732   0.309
 1742W        W 2739   5.115   3.241   5.803
 1743W        W 2740   6.311   3.388   1.012
 1744W        W 2741   4.379   5.601   5.505
 1745W        W 2742   0.796   2.673   3.677
 1746W        W 2743   6.085   1.308   1.699
 1747W        W 2744   2.425   1.734   6.862
 1748W        W 2745   7.030   3.789   4.624
 1749W        W 2746   3.209   7.005   5.063
 1750W        W 2747   3.234   1.735   4.157
 1751W        W 2748   1.646   6.958   3.114
 1752W        W 2749   4.288   2.329   3.794
 1753W        W 2750   2.872   1.915   4.699
 1754W        W 2751   5.882   7.340   1.823
 1755W        W 2752   3.581   4.829   1.372
 1756W        W 2753   0.046   3.545   0.944
 1757W        W 2754   1.303   1.229   0.772
 1758W        W 2755   6.473   4.759   3.512
 1759W        W 2756   2.334   6.061   6.535
 1760W        W 2757   3.838   4.840   1.912
 1761W        W 2758   2.322   1.980   3.479
 1762W        W 2759   6.369   4.248   1.659
 1763W        W 2760   4.640   4.082   7.660
 1764W        W 2761   0.467   6.674   7.422
 1765W        W 2762   6.613   2.323   6.147
 1766W        W 2763   5.925   7.250   5.092
 1767W        W 2764   1.236   5.969   0.626
 1768W        W 2765   4.268   4.068   0.565
 1769W        W 2766   0.434   3.498   3.904
 1770W        W 2767   7.164   1.500   3.343
 1771W        W 2768   5.710   1.263   2.957
 1772W        W 2769   5.306   3.925   3.712
 1773W        W 2770   6.995   4.042   5.104
 1774W        W 2771   1.123   3.274   4.640
 1775W        W 2772   4.675   4.131   1.139
 1776W        W 2773   0.552   2.967   7.073
 1777W        W 2774   5.008   3.413   5.332
 1778W        W 2775   3.399   6.477   2.053
 1779W        W 2776   7.955   1.068   6.048
 1780W        W 2777   3.141   6.236   6.268
 1781W        W 2778   0.577   5.496   0.242
 1782W        W 2779   5.521   4.902   4.551
 1783W        W 2780   1.263   4.461   3.771
 1784W        W 2781   4.972   5.657   4.723
 1785W        W 2782   0.841   4.485   2.281
 1786W        W 2783   1.145   4.168   3.034
 1787W        W 2784   4.130   2.145   6.105
 1788W        W 2785   7.225   0.656   4.517
 1789W        W 2786   1.588   3.377   5.859
 1790W        W 2787   5.559   7.069   1.090
 1791W        W 2788   1.052   5.915   1.818
 1792W        W 2789   4.110   5.002   7.418
 1793W        W 2790   2.207   0.933   1.425
 1794W        W 2791   3.601   1.677   2.221
 1795W        W 2792   7.020   4.689   0.609
 1796W        W 2793   5.568   0.754   4.577
 1797W        W 2794   7.564   4.274   3.345
 1798W        W 2795   5.099   2.784   6.490
 1799W        W 2796   2.296   2.096   5.935
 1800W        W 2797   1.573   3.041   3.242
 1801W        W 2798   7.487   5.155   3.405
 1802W        W 2799   0.515   5.410   3.028
 1803W        W 2800   1.394   0.736   3.924
 1804W        W 2801   5.623   5.332   1.990
 1805W        W 2802   0.933   6.138   6.756
 1806W        W 2803   0.518   7.987   6.882
 1807W        W 2804   4.820   3.115   6.204
 1808W        W 2805   1.963   4.899   2.515
 1809W        W 2806   5.323   1.988   7.086
 1810W        W 2807   5.437   5.151   1.541
 1811W        W 2808   3.905   2.281   2.750
 1812W        W 2809   2.076   5.298   6.552
 1813W        W 2810   5.055   4.510   0.344
 1814W        W 2811   3.349   3.041   1.058
 1815W        W 2812   1.200   2.564   2.835
 1816W        W 2813   6.667   0.680   2.975
 1817W        W 2814   5.030   1.337   6.369
 1818W        W 2815   5.969   0.600   5.428
 1819W        W 2816   1.866   4.861   4.168
 1820W        W 2817   1.549   5.933   4.730
 1821W        W 2818   3.248   2.268   6.306
 1822W        W 2819   7.574   4.231   5.624
 1823W        W 2820   7.983   2.465   3.420
 1824W        W 2821   2.655   6.462   6.463
 1825W        W 2822   6.570   1.252   5.328
 1826W        W 2823   3.161   3.304   0.648
 1827W        W 2824   6.999   2.623   6.882
 1828W        W 2825   5.367   4.618   2.719
 1829W        W 2826   1.544   5.926   0.217
 1830W        W 2827   0.498   3.767   5.081
 1831W        W 2828   6.579   0.914   6.017
 1832W        W 2829   1.252   4.541   4.710
 1833W        W 2830   2.088   0.285   2.242
 1834W        W 2831   3.039   5.991   5.826
 1835W        W 2832   1.946   4.918   1.960
 1836W        W 2833   4.986   2.299   6.471
 1837W        W 2834   2.371   0.246   6.008
 1838W        W 2835   4.611   1.946   3.690
 1839W        W 2836   6.527   5.249   3.663
 1840W        W 2837   3.175   5.232   4.260
 1841W        W 2838   6.903   1.193   2.097
 1842W        W 2839   0.268   5.314   2.579
 1843W        W 2840   2.179   3.641   1.452
 1844W        W 2841   0.850   5.641   1.448
 1845W        W 2842   6.694   5.585   7.603
 1846W        W 2843   0.266   6.123   5.483
 1847W        W 2844   1.056   1.828   1.401
 1848W        W 2845   2.520   5.656   1.059
 1849W        W 2846   2.057   6.563   4.415
 1850W        W 2847   2.445   0.315   4.527
 1851W        W 2848   1.783   0.080   6.578
 1852W        W 2849   4.816   3.332   0.302
 1853W        W 2850   7.248   7.144   6.836
 1854W        W 2851   4.984   7.187   5.558
 1855W        W 2852   6.102   6.075   2.024
 1856W        W 2853   3.872   4.018   0.930
 1857W        W 2854   4.092   1.391   4.205
 1858W        W 2855   3.652   6.904   2.719
 1859W        W 2856   6.879   2.646   2.821
 1860W        W 2857   7.345   2.142   7.526
 1861W        W 2858   7.135   2.424   4.490
 1862W        W 2859   0.704   1.990   3.086
 1863W        W 2860   1.950   3.390   3.836
 1864W        W 2861   5.875   2.070   3.512
 1865W        W 2862   3.459   3.926   1.242
 1866W        W 2863   7.193   5.703   2.745
 1867W        W 2864   2.732   5.755   2.514
 1868W        W 2865   2.401   2.905   2.007
 1869W        W 2866   5.096   4.513   6.456
 1870W        W 2867   3.180   3.911   4.421
 1871W        W 2868   5.087   3.763   0.371
 1872W        W 2869   5.472   0.718   3.064
 1873W        W 2870   2.358   5.768   3.854
 1874W        W 2871   3.882   5.264   6.986
 1875W        W 2872   6.396   7.817   2.491
 1876W        W 2873   4.538   4.536   1.416
 1877W        W 2874   6.849   1.473   2.526
 1878W        W 2875   3.609   5.382   3.567
 1879W        W 2876   2.780   5.969   3.010
 1880W        W 2877   2.730   1.723   7.284
 1881W        W 2878   3.194   1.543   4.619
 1882W        W 2879   5.269   0.768   1.308
 1883W        W 2880   2.377   4.633   2.306
 1884W        W 2881   1.929   3.217   5.490
 1885W        W 2882   7.419   0.632   2.580
 1886W        W 2883   4.538   4.168   1.847
 1887W        W 2884   2.205   7.476   4.002
 1888W        W 2885   1.640   5.467   1.140
 1889W        W 2886   6.222   6.846   3.459
 1890W        W 2887   2.418   3.405   2.064
 1891W        W 2888   4.918   1.918   7.442
 1892W        W 2889   7.840   6.486   3.860
 1893W        W 2890   5.650   7.381   7.441
 1894W        W 2891   5.406   1.038   4.139
 1895W        W 2892   4.776   6.651   3.418
 1896W        W 2893   1.192   4.143   4.161
 1897W        W 2894   7.819   3.875   3.590
 1898W        W 2895   0.816   1.340   0.955
 1899W        W 2896   6.048   6.313   6.615
 1900W        W 2897   1.743   1.170   1.376
 1901W        W 2898   1.145   6.965   7.308
 1902W        W 2899   2.125   6.922   7.048
 1903W        W 2900   3.680   7.425   2.518
 1904W        W 2901   4.469   5.831   5.983
 1905W        W 2902   2.571   3.444   2.535
 1906W        W 2903   1.000   6.601   6.557
 1907W        W 2904   5.663   4.676   6.529
 1908W        W 2905   1.558   0.498   0.155
 1909W        W 2906   1.593   5.326   4.216
 1910W        W 2907   1.478   1.573   6.656
 1911W        W 2908   1.260   0.662   6.733
 1912W        W 2909   0.704   5.001   0.134
 1913W        W 2910   6.948   5.959   1.960
 1914W        W 2911   7.719   6.852   6.896
 1915W        W 2912   6.745   0.779   4.432
 1916W        W 2913   5.178   5.011   2.987
 1917W        W 2914   0.521   5.490   6.619
 1918W        W 2915   1.710   1.721   4.177
 1919W        W 2916   0.787   5.704   0.657
 1920W        W 2917   5.468   5.096   5.361
 1921W        W 2918   3.822   3.118   4.817
 1922W        W 2919   5.774   6.472   2.078
 1923W        W 2920   1.449   5.598   1.866
 1924W        W 2921   6.943   6.570   5.739
 1925W        W 2922   5.908   1.042   4.842
 1926W        W 2923   4.593   1.969   4.742
 1927W        W 2924   4.665   7.733   3.486
 1928W        W 2925   7.690   1.853   1.238
 1929W        W 2926   3.520   2.446   5.371
 1930W        W 2927   2.191   0.447   5.529
 1931W        W 2928   6.174   4.708   1.616
 1932W        W 2929   5.581   6.582   1.224
 1933W        W 2930   4.382   0.638   1.326
 1934W        W 2931   3.949   2.036   3.513
 1935W        W 2932   0.618   2.869   1.583
 1936W        W 2933   6.483   3.254   7.537
 1937W        W 2934   6.184   2.396   1.125
 1938W        W 2935   5.977   0.519   4.889
 1939W        W 2936   0.283   3.121   6.180
 1940W        W 2937   0.120   7.657   6.971
 1941W        W 2938   6.983   1.765   2.928
 1942W        W 2939   1.687   5.286   6.193
 1943W        W 2940   1.300   1.856   5.182
 1944W        W 2941   1.888   0.338   6.145
 1945W        W 2942   6.550   7.897   3.385
 1946W        W 2943   3.117   0.731   0.666
 1947W        W 2944   2.148   3.840   4.721
 1948W        W 2945   7.063   2.242   4.988
 1949W        W 2946   5.496   1.278   4.590
 1950W        W 2947   1.979   0.004   5.765
 1951W        W 2948   5.874   1.800   3.067
 1952W        W 2949   4.530   2.156   0.543
 1953W        W 2950   1.095   1.507   1.788
 1954W        W 2951   6.540   3.034   2.650
 1955W        W 2952   1.405   6.195   6.946
 1956W        W 2953   7.873   4.610   2.446
 1957W        W 2954   0.972   1.225   5.847
 1958W        W 2955   7.915   6.373   6.786
 1959W        W 2956   3.517   2.147   7.633
 1960W        W 2957   4.221   6.173   4.823
 1961W        W 2958   0.947   3.038   1.984
 1962W        W 2959   6.425   5.138   1.742
 1963W        W 2960   1.776   5.709   7.691
 1964W        W 2961   3.399   1.550   0.450
 1965W        W 2962   7.409   3.803   5.345
 1966W        W 2963   7.607   7.133   1.606
 1967W        W 2964   3.256   5.845   5.384
 1968W        W 2965   5.994   4.762   2.541
 1969W        W 2966   2.903   0.993   6.129
 1970W        W 2967   6.161   7.018   4.320
 1971W        W 2968   6.204   2.674   6.980
 1972W        W 2969   4.338   0.802   0.829
 1973W        W 2970   3.247   4.760   3.959
 1974W        W 2971   2.920   2.507   2.678
 1975W        W 2972   1.056   4.808   6.808
 1976W        W 2973   1.897   4.382   0.384
 1977W        W 2974   4.658   1.198   5.158
 1978W        W 2975   6.387   1.326   2.353
 1979W        W 2976   3.894   4.522   4.625
 1980W        W 2977   3.638   5.310   7.428
 1981W        W 2978   2.022   5.230   4.462
 1982W        W 2979   1.032   5.600   6.417
 1983W        W 2980   2.534   4.538   3.512
 1984W        W 2981   7.590   7.425   2.040
 1985W        W 2982   4.122   3.143   5.225
 1986W        W 2983   0.429   0.282   2.938
 1987W        W 2984   2.030   0.966   6.394
 1988W        W 2985   1.030   0.638   4.290
 1989W        W 2986   2.041   3.537   5.114
 1990W        W 2987   2.623   4.336   1.971
 1991W        W 2988   1.843   1.898   3.680
 1992W        W 2989   6.742   5.099   0.363
 1993W        W 2990   4.301   3.520   7.818
 1994W        W 2991   5.106   6.837   6.566
 1995W        W 2992   7.357   3.803   3.311
 1996W        W 2993   0.272   1.400   6.286
 1997W        W 2994   4.875   4.104   3.912
 1998W        W 2995   0.663   3.005   1.097
 1999W        W 2996   7.035   3.494   1.569
 2000W        W 2997   5.026   3.100   7.515
 2001W        W 2998   6.802   2.902   7.764
 2002W        W 2999   2.220   7.129   2.458
 2003W        W 3000   1.643   6.179   3.829
 2004W        W 3001   0.950   0.289   7.823
 2005W        W 3002   6.662   6.957   4.472
 2006W        W 3003   7.286   3.405   7.012
 2007W        W 3004   2.431   2.590   2.714
 2008W        W 3005   3.889   3.408   1.748
 2009W        W 3006   6.700   7.177   2.000
 2010W        W 3007   2.603   4.907   0.155
 2011W        W 3008   5.892   2.846   6.174
 2012W        W 3009   4.192   1.854   2.416
 2013W        W 3010   4.999   1.672   3.482
 2014W        W 3011   6.837   5.088   2.595
 2015W        W 3012   4.820   3.847   1.542
 2016W        W 3013   6.228   6.610   5.655
 2017W        W 3014   2.295   2.040   4.884
 2018W        W 3015   1.713   4.507   1.237
 2019W        W 3016   1.428   4.549   0.310
 2020W        W 3017   5.685   2.287   6.846
 2021W        W 3018   3.930   3.086   3.322
 2022W        W 3019   0.689   2.946   4.481
 2023W        W 3020   0.915   3.580   2.076
 2024W        W 3021   3.903   1.093   7.658
 2025W        W 3022   7.024   1.688   2.036
 2026W        W 3023   1.938   5.765   6.369
 2027W        W 3024   0.872   3.751   4.721
 2028W        W 3025   3.900   2.868   6.488
 2029W        W 3026   4.269   0.931   4.906
 2030W        W 3027   6.048   2.932   2.387
 2031W        W 3028   1.040   4.633   4.248
 2032W        W 3029   7.763   6.388   3.359
 2033W        W 3030   5.406   4.009   7.001
 2034W        W 3031   6.420   0.438   4.231
 2035W        W 3032   7.795   2.364   1.100
 2036W        W 3033   7.021   0.140   6.489
 2037W        W 3034   0.241   6.200   3.318
 2038W        W 3035   6.885   6.877   6.409
 2039W        W 3036   6.082   5.845   4.291
 2040W        W 3037   5.476   4.480   6.068
 2041W        W 3038   0.667   2.877   5.160
 2042W        W 3039   4.846   7.843   3.020
 2043W        W 3040   4.099   7.872   2.569
 2044W        W 3041   3.681   1.710   4.722
 2045W        W 3042   5.935   5.377   6.952
 2046W        W 3043   5.803   3.166   7.943
 2047W        W 3044   3.338   2.092   6.777
 2048W        W 3045   7.379   3.237   4.112
 2049W        W 3046   0.839   2.536   1.904
 2050W        W 3047   3.832   0.096   2.938
 2051W        W 3048   4.468   3.406   0.732
 2052W        W 3049   0.964   4.117   3.553
 2053W        W 3050   4.200   0.400   2.740
 2054W        W 3051   6.193   7.914   6.469
 2055W        W 3052   1.837   5.360   2.156
 2056W        W 3053   5.349   5.714   4.391
 2057W        W 3054   5.550   6.530   6.527
 2058W        W 3055   5.392   4.269   1.180
 2059W        W 3056   7.354   5.939   4.145
 2060W        W 3057   1.269   7.221   7.753
 2061W        W 3058   2.166   4.262   4.441
 2062W        W 3059   4.670   2.628   3.087
 2063W        W 3060   7.157   7.594   1.298
 2064W        W 3061   5.575   1.348   1.918
 2065W        W 3062   1.539   3.984   2.794
 2066W        W 3063   2.180   0.811   6.843
 2067W        W 3064   5.640   4.217   3.967
 2068W        W 3065   3.670   5.445   5.996
 2069W        W 3066   6.097   2.998   6.619
 2070W        W 3067   5.168   7.392   1.104
 2071W        W 3068   0.573   2.864   6.524
 2072W        W 3069   2.362   4.671   4.189
 2073W        W 3070   0.896   0.328   6.509
 2074W        W 3071   6.890   2.834   1.260
 2075W        W 3072   4.051   4.622   1.447
 2076W        W 3073   1.334   7.497   3.666
 2077W        W 3074   7.712   2.901   3.398
 2078W        W 3075   5.971   4.387   4.343
 2079W        W 3076   6.769   6.727   7.389
 2080W        W 3077   0.434   4.361   7.515
 2081W        W 3078   2.778   0.758   3.759
 2082W        W 3079   5.412   3.015   6.150
 2083W        W 3080   0.916   1.036   4.592
 2084W        W 3081   1.061   6.289   1.459
 2085W        W 3082   3.735   4.911   2.741
 2086W        W 3083   6.304   0.848   5.130
 2087W        W 3084   7.015   0.531   1.323
 2088W        W 3085   7.640   3.847   0.753
 2089W        W 3086   0.959   0.667   1.847
 2090W        W 3087   7.022   0.142   0.513
 2091W        W 3088   3.677   4.839   0.683
 2092W        W 3089   5.372   3.147   0.245
 2093W        W 3090   6.721   6.136   0.768
 2094W        W 3091   2.026   2.218   4.478
 2095W        W 3092   6.745   6.300   0.292
 2096W        W 3093   0.596   7.442   6.809
 2097W        W 3094   1.327   7.536   0.166
 2098W        W 3095   1.166   2.669   5.270
 2099W        W 3096   6.837   7.912   4.709
 2100W        W 3097   5.812   4.297   6.891
 2101W        W 3098   0.890   3.882   5.924
 2102W        W 3099   4.193   5.409   1.129
 2103W        W 3100   2.155   1.304   1.062
 2104W        W 3101   6.946   0.331   5.423
 2105W        W 3102   5.218   6.823   4.121
 2106W        W 3103   6.573   5.192   4.780
 2107W        W 3104   5.326   1.952   5.578
 2108W        W 3105   5.587   7.830   7.217
 2109W        W 3106   5.917   3.851   4.178
 2110W        W 3107   7.146   7.140   4.411
 2111W        W 3108   1.546   0.378   5.768
 2112W        W 3109   2.492   3.894   2.218
 2113W        W 3110   1.217   6.886   2.184
 2114W        W 3111   1.070   7.774   7.772
 2115W        W 3112   6.989   3.703   0.294
 2116W        W 3113   2.377   6.050   0.759
 2117W        W 3114   2.478   4.306   0.783
 2118W        W 3115   5.213   3.261   6.561
 2119W        W 3116   2.874   2.572   6.168
 2120W        W 3117   1.634   3.527   3.060
 2121W        W 3118   4.849   4.187   2.868
 2122W        W 3119   4.610   6.218   2.089
 2123W        W 3120   4.174   1.460   7.896
 2124W        W 3121   6.277   0.806   4.593
 2125W        W 3122   1.666   6.239   4.332
 2126W        W 3123   0.690   0.698   3.158
 2127W        W 3124   6.685   5.538   1.881
 2128W        W 3125   6.851   6.797   6.903
 2129W        W 3126   5.474   6.372   7.870
 2130W        W 3127   1.598   0.320   2.075
 2131W        W 3128   1.047   2.458   1.455
 2132W        W 3129   4.915   3.644   2.362
 2133W        W 3130   4.934   7.222   4.012
 2134W        W 3131   6.434   3.179   4.485
 2135W        W 3132   4.571   1.161   1.979
 2136W        W 3133   3.299   6.053   4.863
 2137W        W 3134   6.007   6.220   2.499
 2138W        W 3135   3.608   6.922   1.456
 2139W        W 3136   0.289   4.677   6.448
 2140W        W 3137   5.648   6.599   2.548
 2141W        W 3138   7.615   3.005   5.389
 2142W        W 3139   6.888   1.901   0.760
 2143W        W 3140   5.906   4.090   7.501
 2144W        W 3141   6.217   5.380   4.475
 2145W        W 3142   1.851   7.582   3.644
 2146W        W 3143   0.442   1.144   5.852
 2147W        W 3144   3.790   6.533   1.177
 2148W        W 3145   7.731   3.450   2.202
 2149W        W 3146   5.710   4.911   5.803
 2150W        W 3147   7.209   4.899   1.321
 2151W        W 3148   7.258   2.935   0.888
 2152W        W 3149   7.264   1.632   1.030
 2153W        W 3150   0.299   2.892   4.789
 2154W        W 3151   2.587   6.774   7.184
 2155W        W 3152   4.828   1.121   2.464
 2156W        W 3153   4.477   1.458   3.808
 2157W        W 3154   7.326   0.564   5.766
 2158W        W 3155   1.391   2.128   3.626
 2159W        W 3156   3.216   2.187   1.276
 2160W        W 3157   7.514   3.021   0.451
 2161W        W 3158   3.567   2.656   3.954
 2162W        W 3159   4.398   3.269   3.466
 2163W        W 3160   4.120   0.920   7.180
 2164W        W 3161   2.912   1.664   2.861
 2165W        W 3162   4.586   2.415   1.731
 2166W        W 3163   5.682   6.910   3.500
 2167W        W 3164   3.860   3.675   0.092
 2168W        W 3165   1.104   2.075   7.336
 2169W        W 3166   6.056   5.053   2.077
 2170W        W 3167   1.759   0.895   4.801
 2171W        W 3168   7.806   3.249   1.317
 2172W        W 3169   6.527   5.046   6.407
 2173W        W 3170   3.841   3.421   7.642
 2174W        W 3171   2.223   1.615   4.194
 2175W        W 3172   2.067   3.293   6.001
 2176W        W 3173   6.196   5.721   2.600
 2177W        W 3174   6.345   0.496   5.787
 2178W        W 3175   1.875   6.259   2.537
 2179W        W 3176   6.105   2.497   3.741
 2180W        W 3177   6.242   2.754   4.297
 2181W        W 3178   7.401   6.825   5.658
 2182W        W 3179   4.296   6.707   3.595
 2183W        W 3180   3.188   5.079   7.258
 2184W        W 3181   7.293   5.511   6.400
 2185W        W 3182   6.881   3.566   3.214
 2186W        W 3183   7.117   1.731   4.484
 2187W        W 3184   1.786   5.520   3.270
 2188W        W 3185   6.938   5.517   4.626
 2189W        W 3186   4.650   7.133   3.592
 2190W        W 3187   4.912   6.608   6.164
 2191W        W 3188   1.767   1.017   0.870
 2192W        W 3189   1.962   5.993   7.244
 2193W        W 3190   1.569   2.217   5.388
 2194W        W 3191   6.903   5.300   6.657
 2195W        W 3192   6.165   6.525   4.372
 2196W        W 3193   6.156   5.355   0.872
 2197W        W 3194   4.105   6.224   3.565
 2198W        W 3195   1.946   3.318   2.240
 2199W        W 3196   5.752   5.179   3.337
 2200W        W 3197   5.171   5.924   3.615
 2201W        W 3198   1.857   0.307   1.629
 2202W        W 3199   6.598   7.646   2.930
 2203W        W 3200   1.521   2.803   4.909
 2204W        W 3201   6.285   7.347   2.243
 2205W        W 3202   2.897   6.498   5.887
 2206W        W 3203   6.272   1.958   2.428
 2207W        W 3204   3.831   5.828   6.272
 2208W        W 3205   3.974   1.236   0.691
 2209W        W 3206   7.576   5.589   2.290
 2210W        W 3207   6.588   3.535   5.240
 2211W        W 3208   5.895   7.423   1.309
 2212W        W 3209   4.137   0.915   4.367
 2213W        W 3210   2.522   6.451   3.077
 2214W        W 3211   5.486   3.747   3.236
 2215W        W 3212   2.408   4.298   4.879
 2216W        W 3213   2.275   4.045   6.909
 2217W        W 3214   5.545   3.100   1.449
 2218W        W 3215   6.011   2.491   6.520
 2219W        W 3216   4.870   1.890   5.789
 2220W        W 3217   7.219   6.523   3.371
 2221W        W 3218   5.715   4.052   4.646
 2222W        W 3219   1.246   4.707   2.099
 2223W        W 3220   5.132   3.241   4.358
 2224W        W 3221   2.360   0.477   3.631
 2225W        W 3222   1.721   3.932   4.985
 2226W        W 3223   5.968   4.309   6.381
 2227W        W 3224   4.992   5.686   3.171
 2228W        W 3225   7.081   3.532   5.052
 2229W        W 3226   3.910   5.292   3.161
 2230W        W 3227   1.625   3.018   2.495
 2231W        W 3228   3.200   1.708   7.521
 2232W        W 3229   6.614   5.944   7.940
 2233W        W 3230   7.301   4.713   3.217
 2234W        W 3231   7.153   7.300   6.347
 2235W        W 3232   6.983   3.312   1.082
 2236W        W 3233   5.581   6.091   1.334
 2237W        W 3234   2.724   7.327   5.907
 2238W        W 3235   3.404   5.958   1.752
 2239W        W 3236   1.753   0.535   5.197
 2240W        W 3237   1.610   0.273   3.906
 2241W        W 3238   2.862   6.394   1.339
 2242W        W 3239   1.584   3.592   4.629
 2243W        W 3240   4.991   5.178   7.133
 2244W        W 3241   5.851   6.940   5.491
 2245W        W 3242   4.424   1.474   4.785
 2246W        W 3243   3.412   5.159   3.142
 2247W        W 3244   6.009   7.434   0.432
 2248W        W 3245   0.196   6.457   5.010
 2249W        W 3246   4.040   4.920   1.053
 2250W        W 3247   5.481   1.562   3.297
 2251W        W 3248   0.737   5.308   4.609
 2252W        W 3249   2.652   0.739   4.763
 2253W        W 3250   3.359   2.040   4.541
 2254W        W 3251   1.709   4.925   6.608
 2255W        W 3252   3.937   7.582   2.952
 2256W        W 3253   6.246   5.666   7.269
 2257W        W 3254   3.805   0.978   6.135
 2258W        W 3255   7.349   5.462   4.940
 2259W        W 3256   1.000   1.921   4.760
 2260W        W 3257   4.799   6.561   2.894
 2261W        W 3258   3.111   5.517   1.797
 2262W        W 3259   3.654   3.980   0.435
 2263W        W 3260   0.439   3.021   5.682
 2264W        W 3261   4.444   2.022   2.021
 2265W        W 3262   2.318   5.751   1.618
 2266W        W 3263   1.885   5.848   1.912
 2267W        W 3264   2.277   0.552   1.816
 2268W        W 3265   5.512   4.755   3.278
 2269W        W 3266   1.231   5.036   4.997
 2270W        W 3267   2.548   1.368   2.652
 2271W        W 3268   6.609   2.955   6.721
 2272W        W 3269   7.644   3.368   3.667
 2273W        W 3270   3.541   4.099   3.026
 2274W        W 3271   5.040   6.079   6.097
 2275W        W 3272   2.068   6.835   2.851
 2276W        W 3273   0.474   1.092   2.314
 2277W        W 3274   6.363   1.700   5.465
 2278W        W 3275   3.346   3.596   0.268
 2279W        W 3276   5.385   4.633   5.545
 2280W        W 3277   2.274   4.370   7.332
 2281W        W 3278   4.542   3.766   4.105
 2282W        W 3279   1.093   7.739   2.692
 2283W        W 3280   1.284   3.796   3.324
 2284W        W 3281   6.406   5.376   2.271
 2285W        W 3282   6.699   7.545   1.071
 2286W        W 3283   4.923   2.840   4.099
 2287W        W 3284   4.858   1.071   3.656
 2288W        W 3285   3.140   0.543   5.439
 2289W        W 3286   1.436   5.166   0.726
 2290W        W 3287   4.269   0.056   3.610
 2291W        W 3288   0.381   5.976   5.007
 2292W        W 3289   7.636   5.994   2.663
 2293W        W 3290   6.231   1.334   4.572
 2294W        W 3291   6.194   4.126   5.970
 2295W        W 3292   1.539   2.115   4.541
 2296W        W 3293   0.517   2.079   2.599
 2297W        W 3294   4.525   3.174   7.466
 2298W        W 3295   1.832   1.271   4.436
 2299W        W 3296   1.897   7.080   6.217
 2300W        W 3297   2.873   4.674   1.614
 2301W        W 3298   6.685   2.020   5.244
 2302W        W 3299   6.235   5.092   3.221
 2303W        W 3300   2.755   4.195   1.507
 2304W        W 3301   1.110   7.572   6.909
 2305W        W 3302   3.557   5.419   6.508
 2306W        W 3303   3.339   4.234   6.614
 2307W        W 3304   3.196   6.034   2.724
 2308W        W 3305   2.256   5.464   3.455
 2309W        W 3306   5.681   6.077   4.478
 2310W        W 3307   4.570   0.057   2.663
 2311W        W 3308   0.585   5.790   4.584
 2312W        W 3309   7.730   2.515   1.855
 2313W        W 3310   1.487   1.977   6.365
 2314W        W 3311   7.649   3.046   1.831
 2315W        W 3312   5.036   4.786   4.515
 2316W        W 3313   5.432   1.445   5.570
 2317W        W 3314   6.158   5.352   5.008
 2318W        W 3315   2.798   2.140   3.010
 2319W        W 3316   6.360   5.961   0.366
 2320W        W 3317   3.884   6.668   6.188
 2321W        W 3318   4.075   2.491   7.118
 2322W        W 3319   3.165   0.593   5.941
 2323W        W 3320   4.337   2.789   2.145
 2324W        W 3321   7.452   3.122   2.463
 2325W        W 3322   6.523   3.532   4.135
 2326W        W 3323   4.174   1.175   3.484
 2327W        W 3324   6.043   5.971   1.514
 2328W        W 3325   5.141   2.566   5.068
 2329W        W 3326   3.549   5.571   2.058
 2330W        W 3327   2.748   4.625   7.349
 2331W        W 3328   6.702   4.841   1.440
 2332W        W 3329   2.079   4.625   3.234
 2333W        W 3330   7.391   6.055   2.184
 2334W        W 3331   5.171   5.618   7.331
 2335W        W 3332   1.551   4.150   6.664
 2336W        W 3333   3.057   6.427   0.760
 2337W        W 3334   4.888   3.689   4.473
 2338W        W 3335   0.733   3.431   4.337
 2339W        W 3336   2.741   1.694   3.376
 2340W        W 3337   4.147   2.175   0.915
 2341W        W 3338   2.873   5.239   5.417
 2342W        W 3339   0.218   2.733   4.299
 2343W        W 3340   1.122   0.396   2.282
 2344W        W 3341   1.228   7.415   6.432
 2345W        W 3342   0.131   3.188   7.228
 2346W        W 3343   1.678   0.817   6.997
 2347W        W 3344   5.639   2.655   5.125
 2348W        W 3345   2.742   2.474   7.400
 2349W        W 3346   7.089   4.767   1.818
 2350W        W 3347   7.398   5.625   3.233
 2351W        W 3348   2.408   4.766   1.814
 2352W        W 3349   4.626   2.776   5.860
 2353W        W 3350   0.884   0.963   1.376
 2354W        W 3351   5.986   3.095   7.455
 2355W        W 3352   0.712   2.535   4.156
 2356W        W 3353   2.537   3.986   7.658
 2357W        W 3354   7.877   0.613   6.560
 2358W        W 3355   3.900   5.878   1.898
 2359W        W 3356   6.401   1.438   1.262
 2360W        W 3357   0.621   5.535   3.991
 2361W        W 3358   6.067   6.153   7.136
 2362W        W 3359   3.883   0.519   1.245
 2363W        W 3360   6.977   0.967   2.547
 2364W        W 3361   1.181   5.036   2.959
 2365W        W 3362   2.053   6.274   5.174
 2366W        W 3363   7.155   7.334   0.866
 2367W        W 3364   5.858   3.194   5.812
 2368W        W 3365   5.929   7.977   1.136
 2369W        W 3366   5.760   1.353   3.925
 2370W        W 3367   1.496   7.789   1.940
 2371W        W 3368   0.233   6.730   6.960
 2372W        W 3369   2.563   1.198   5.103
 2373W        W 3370   0.614   4.966   2.820
 2374W        W 3371   0.022   2.275   2.180
 2375W        W 3372   5.955   3.788   5.012
 2376W        W 3373   2.056   3.768   0.942
 2377W        W 3374   6.270   3.399   2.389
 2378W        W 3375   7.812   4.148   4.600
 2379W        W 3376   7.181   3.330   6.019
 2380W        W 3377   0.128   6.289   6.323
 2381W        W 3378   3.507   1.052   0.578
 2382W        W 3379   4.548   4.826   0.999
 2383W        W 3380   7.016   7.082   5.919
 2384W        W 3381   3.556   5.222   1.699
 2385W        W 3382   5.938   3.806   2.458
 2386W        W 3383   1.554   1.637   7.187
 2387W        W 3384   6.482   0.576   1.206
 2388W        W 3385   3.050   4.726   3.471
 2389W        W 3386   3.464   3.446   1.441
 2390W        W 3387   0.716   2.351   6.425
 2391W        W 3388   6.484   7.320   7.599
 2392W        W 3389   1.461   2.126   1.411
 2393W        W 3390   0.128   2.839   6.826
 2394W        W 3391   1.437   7.362   2.703
 2395W        W 3392   5.799   3.269   6.939
 2396W        W 3393   1.704   1.760   2.824
 2397W        W 3394   0.534   3.503   7.117
 2398W        W 3395   4.516   3.404   5.084
 2399W        W 3396   1.769   0.007   7.331
 2400W        W 3397   2.544   7.006   2.079
 2401W        W 3398   0.245   3.624   2.343
 2402W        W 3399   7.711   4.870   1.218
 2403W        W 3400   5.339   2.094   7.705
 2404W        W 3401   5.510   7.049   2.349
 2405W        W 3402   3.686   7.379   1.236
 2406W        W 3403   7.582   5.235   5.984
 2407W        W 3404   6.810   5.094   2.089
 2408W        W 3405   2.830   3.180   4.972
 2409W        W 3406   6.514   5.519   0.563
 2410W        W 3407   7.291   1.410   6.392
 2411W        W 3408   6.686   0.768   5.492
 2412W        W 3409   7.919   5.358   1.141
 2413W        W 3410   2.838   1.146   3.432
 2414W        W 3411   1.682   4.033   2.315
 2415W        W 3412   0.787   1.638   2.687
 2416W        W 3413   4.040   3.611   7.213
 2417W        W 3414   3.723   5.771   1.022
 2418W        W 3415   5.163   1.056   5.345
 2419W        W 3416   3.945   6.677   0.715
 2420W        W 3417   1.596   6.424   0.747
 2421W        W 3418   3.460   2.579   6.669
 2422W        W 3419   1.001   7.150   0.322
 2423W        W 3420   0.670   7.061   5.850
 2424W        W 3421   1.158   0.342   7.359
 2425W        W 3422   3.643   4.683   5.367
 2426W        W 3423   1.921   1.191   5.965
 2427W        W 3424   6.394   2.272   1.585
 2428W        W 3425   7.004   6.700   4.162
 2429W        W 3426   7.379   2.500   3.603
 2430W        W 3427   5.841   1.903   7.169
 2431W        W 3428   5.268   1.147   2.749
 2432W        W 3429   1.512   6.396   1.248
 2433W        W 3430   5.901   5.010   0.004
 2434W        W 3431   2.243   0.383   2.741
 2435W        W 3432   2.990   3.351   1.720
 2436W        W 3433   0.401   2.036   6.704
 2437W        W 3434   5.108   6.162   1.992
 2438W        W 3435   4.933   1.501   5.466
 2439W        W 3436   6.924   4.198   0.228
 2440W        W 3437   6.213   4.335   0.697
 2441W        W 3438   0.789   3.023   6.092
 2442W        W 3439   5.285   5.508   1.209
 2443W        W 3440   5.942   6.830   4.741
 2444W        W 3441   0.374   5.199   1.893
 2445W        W 3442   0.476   7.280   6.304
 2446W        W 3443   4.318   6.439   6.995
 2447W        W 3444   5.282   2.503   4.255
 2448W        W 3445   6.413   0.347   6.705
 2449W        W 3446   3.322   0.950   3.215
 2450W        W 3447   2.922   3.768   7.940
 2451W        W 3448   1.493   5.335   7.958
 2452W        W 3449   6.951   2.718   4.861
 2453W        W 3450   5.429   3.725   5.085
 2454W        W 3451   3.044   3.794   7.433
 2455W        W 3452   2.098   7.745   6.800
 2456W        W 3453   7.338   4.501   0.235
 2457W        W 3454   2.216   3.990   5.238
 2458W        W 3455   5.000   5.053   1.219
 2459W        W 3456   1.925   7.410   2.817
 2460W        W 3457   2.293   3.771   3.377
 2461W        W 3458   2.496   0.778   6.345
 2462W        W 3459   1.822   6.775   6.677
 2463W        W 3460   5.496   7.768   3.487
 2464W        W 3461   7.048   5.392   0.624
 2465W        W 3462   4.200   5.312   5.878
 2466W        W 3463   7.033   3.617   4.143
 2467W        W 3464   4.272   2.804   1.080
 2468W        W 3465   2.659   0.550   5.280
 2469W        W 3466   1.307   7.924   6.543
 2470W        W 3467   4.635   4.431   0.669
 2471W        W 3468   7.033   2.820   5.860
 2472W        W 3469   6.816   1.304   6.277
 2473W        W 3470   3.943   1.558   3.737
 2474W        W 3471   7.001   3.743   2.025
 2475W        W 3472   3.541   1.225   1.910
 2476W        W 3473   2.038   4.923   6.225
 2477W        W 3474   1.602   3.284   5.036
 2478W        W 3475   5.172   7.223   4.484
 2479W        W 3476   3.451   4.245   7.125
 2480W        W 3477   4.746   6.715   2.318
 2481W        W 3478   4.141   1.809   4.527
 2482W        W 3479   4.046   6.461   5.240
 2483W        W 3480   0.304   6.358   4.059
 2484W        W 3481   5.649   2.319   3.896
 2485W        W 3482   5.484   4.188   6.509
 2486W        W 3483   3.157   2.451   3.181
 2487W        W 3484   5.454   7.282   3.251
 2488W        W 3485   5.970   6.553   5.186
 2489W        W 3486   5.819   5.736   1.051
 2490W        W 3487   4.035   3.897   1.833
 2491W        W 3488   4.009   2.470   1.342
 2492W        W 3489   5.686   5.334   4.300
 2493W        W 3490   5.449   7.221   5.345
 2494W        W 3491   7.309   0.873   2.124
 2495W        W 3492   2.617   1.440   0.781
 2496W        W 3493   1.520   4.622   5.129
 2497W        W 3494   0.788   7.040   7.683
 2498W        W 3495   7.010   1.054   5.176
 2499W        W 3496   1.456   4.866   2.542
 2500W        W 3497   5.262   3.976   4.227
 2501W        W 3498   0.656   7.774   2.960
 2502W        W 3499   0.252   4.651   7.106
 2503W        W 3500   5.100   2.110   4.835
 2504W        W 3501   1.458   7.139   4.042
 2505W        W 3502   2.761   1.992   1.351
 2506W        W 3503   6.208   5.126   0.412
 2507W        W 3504   2.051   6.229   1.624
 2508W        W 3505   0.454   6.765   6.223
 2509W        W 3506   4.284   2.609   0.126
 2510W        W 3507   3.458   3.320   2.862
 2511W        W 3508   2.847   5.621   6.176
 2512W        W 3509   1.782   3.735   6.917
 2513W        W 3510   1.924   4.072   1.356
 2514W        W 3511   6.008   4.653   3.353
 2515W        W 3512   6.458   3.296   3.121
 2516W        W 3513   2.327   2.297   1.179
 2517W        W 3514   7.824   0.014   2.730
 2518W        W 3515   1.432   7.390   7.295
 2519W        W 3516   7.571   3.524   2.732
 2520W        W 3517   2.284   2.935   0.740
 2521W        W 3518   0.541   1.788   3.545
 2522W        W 3519   5.426   5.978   3.173
 2523W        W 3520   3.412   5.914   6.660
 2524W        W 3521   5.341   7.735   2.979
 2525W        W 3522   3.500   4.188   7.626
 2526W        W 3523   3.964   6.947   5.483
 2527W        W 3524   1.355   0.744   2.596
 2528W        W 3525   4.272   6.109   5.553
 2529W        W 3526   2.730   4.090   3.517
 2530W        W 3527   3.489   1.310   1.413
 2531W        W 3528   1.916   1.852   1.847
 2532W        W 3529   7.400   5.453   5.471
 2533W        W 3530   3.634   1.683   1.720
 2534W        W 3531   6.296   6.995   1.704
 2535W        W 3532   5.367   4.163   5.677
 2536W        W 3533   3.266   5.896   0.774
 2537W        W 3534   5.428   4.417   4.417
 2538W        W 3535   1.421   3.048   1.020
 2539W        W 3536   4.297   5.830   6.468
 2540W        W 3537   5.208   5.852   1.589
 2541W        W 3538   4.664   5.044   2.714
 2542W        W 3539   1.068   2.360   4.492
 2543W        W 3540   1.119   3.914   7.714
 2544W        W 3541   2.300   5.257   1.752
 2545W        W 3542   5.622   3.322   3.574
 2546W        W 3543   4.183   6.824   6.611
 2547W        W 3544   4.426   1.713   6.154
 2548W        W 3545   6.248   0.995   5.639
 2549W        W 3546   7.583   5.140   7.054
 2550W        W 3547   0.665   3.364   5.357
 2551W        W 3548   3.390   5.035   7.771
 2552W        W 3549   2.737   5.802   1.975
 2553W        W 3550   1.091   2.100   1.825
 2554W        W 3551   3.263   3.700   3.186
 2555W        W 3552   3.932   3.006   3.844
 2556W        W 3553   7.896   6.079   5.149
 2557W        W 3554   7.123   5.242   3.019
 2558W        W 3555   1.522   2.599   4.419
 2559W        W 3556   6.979   2.236   6.523
 2560W        W 3557   3.592   5.410   2.719
 2561W        W 3558   5.729   0.947   6.397
 2562W        W 3559   7.627   3.042   2.923
 2563W        W 3560   7.031   2.397   2.396
 2564W        W 3561   2.846   6.036   0.995
 2565W        W 3562   5.525   1.790   3.751
 2566W        W 3563   2.842   3.099   2.194
 2567W        W 3564   1.112   6.731   4.197
 2568W        W 3565   2.921   2.858   0.809
 2569W        W 3566   4.696   1.873   3.111
 2570W        W 3567   7.083   6.382   7.178
 2571W        W 3568   5.089   7.431   3.564
 2572W        W 3569   1.041   7.081   6.805
 2573W        W 3570   5.124   6.370   1.270
 2574W        W 3571   6.796   4.867   5.281
 2575W        W 3572   5.160   6.911   3.628
 2576W        W 3573   7.471   4.246   5.117
 2577W        W 3574   3.897   4.798   3.207
 2578W        W 3575   6.923   6.056   7.535
 2579W        W 3576   7.727   5.087   4.974
 2580W        W 3577   6.002   5.616   0.454
 2581W        W 3578   4.296   6.433   1.282
 2582W        W 3579   7.822   1.602   1.671
 2583W        W 3580   4.251   1.727   0.683
 2584W        W 3581   6.222   6.829   0.464
 2585W        W 3582   2.331   2.006   1.598
 2586W        W 3583   0.806   4.600   6.418
 2587W        W 3584   3.191   4.238   3.354
 2588W        W 3585   1.382   4.916   3.984
 2589W        W 3586   4.322   4.794   4.555
 2590W        W 3587   5.488   2.910   5.652
 2591W        W 3588   1.294   2.230   2.288
 2592W        W 3589   5.098   2.627   5.993
 2593W        W 3590   2.746   6.875   1.250
 2594W        W 3591   0.350   4.014   7.138
 2595W        W 3592   2.305   1.350   7.189
 2596W        W 3593   1.466   0.950   5.253
 2597W        W 3594   3.962   2.674   4.630
 2598W        W 3595   6.577   4.653   1.918
 2599W        W 3596   1.680   6.652   6.063
 2600W        W 3597   3.416   6.333   3.919
 2601W        W 3598   2.637   1.234   3.913
 2602W        W 3599   2.650   4.767   0.650
 2603W        W 3600   7.287   5.916   7.197
 2604W        W 3601   1.869   6.148   6.735
 2605W        W 3602   5.554   2.190   0.201
 2606W        W 3603   5.503   3.207   7.361
 2607W        W 3604   4.909   4.475   2.060
 2608W        W 3605   6.069   1.051   2.637
 2609W        W 3606   7.109   6.699   5.254
 2610W        W 3607   4.346   4.237   2.731
 2611W        W 3608   7.775   2.962   4.887
 2612W        W 3609   2.213   1.595   6.027
 2613W        W 3610   3.568   2.375   7.159
 2614W        W 3611   5.979   6.940   2.124
 2615W        W 3612   4.501   0.786   3.367
 2616W        W 3613   2.404   4.032   1.191
 2617W        W 3614   1.126   6.763   0.002
 2618W        W 3615   0.565   2.470   4.647
 2619W        W 3616   4.807   0.911   6.155
 2620W        W 3617   4.847   2.989   5.069
 2621W        W 3618   3.092   6.962   5.835
 2622W        W 3619   6.104   5.915   3.757
 2623W        W 3620   2.812   2.337   0.969
 2624W        W 3621   1.386   2.576   5.704
 2625W        W 3622   5.637   0.793   2.583
 2626W        W 3623   7.195   7.810   1.965
 2627W        W 3624   1.147   3.005   6.446
 2628W        W 3625   4.637   3.276   4.183
 2629W        W 3626   6.716   3.082   0.268
 2630W        W 3627   0.620   4.843   7.616
 2631W        W 3628   0.210   2.540   0.799
 2632W        W 3629   7.661   4.512   2.899
 2633W        W 3630   3.517   2.598   1.372
 2634W        W 3631   6.036   2.686   1.922
 2635W        W 3632   7.240   5.162   7.506
 2636W        W 3633   5.596   6.905   7.272
 2637W        W 3634   5.103   0.058   2.600
 2638W        W 3635   7.370   2.755   2.143
 2639W        W 3636   4.128   3.272   0.251
 2640W        W 3637   3.135   3.883   5.462
 2641W        W 3638   4.987   5.105   3.864
 2642W        W 3639   0.431   3.815   6.119
 2643W        W 3640   4.084   6.134   2.304
 2644W        W 3641   5.045   1.388   2.071
 2645W        W 3642   3.141   6.928   2.822
 2646W        W 3643   5.596   4.945   2.320
 2647W        W 3644   4.522   5.505   2.927
 2648W        W 3645   1.182   1.260   2.653
 2649W        W 3646   3.212   2.351   4.914
 2650W        W 3647   4.533   5.936   5.147
 2651W        W 3648   6.739   4.706   3.947
 2652W        W 3649   3.899   6.383   1.914
 2653W        W 3650   5.251   5.725   5.586
 2654W        W 3651   4.401   1.822   0.170
 2655W        W 3652   0.969   0.930   2.309
 2656W        W 3653   3.501   1.825   3.710
 2657W        W 3654   7.380   1.337   1.870
 2658W        W 3655   4.340   5.005   3.120
 2659W        W 3656   0.135   2.981   5.267
 2660W        W 3657   2.327   5.625   4.698
 2661W        W 3658   5.069   1.473   7.228
 2662W        W 3659   1.030   2.767   4.792
 2663W        W 3660   1.566   1.207   3.999
 2664W        W 3661   3.746   6.848   5.036
 2665W        W 3662   3.019   6.294   1.797
 2666W        W 3663   1.032   2.099   2.720
 2667W        W 3664   4.768   3.567   3.165
 2668W        W 3665   1.162   5.498   4.800
 2669W        W 3666   4.464   6.497   4.487
 2670W        W 3667   2.375   0.725   2.333
 2671W        W 3668   4.239   3.508   5.566
 2672W        W 3669   6.540   7.639   3.861
 2673W        W 3670   0.521   6.425   6.616
 2674W        W 3671   7.735   3.185   6.915
 2675W        W 3672   5.893   6.463   3.404
 2676W        W 3673   1.072   5.404   5.920
 2677W        W 3674   6.277   5.862   0.863
 2678W        W 3675   4.920   5.597   5.975
 2679W        W 3676   1.980   1.108   3.241
 2680W        W 3677   6.606   2.324   7.137
 2681W        W 3678   0.949   7.226   2.600
 2682W        W 3679   6.046   4.228   3.631
 2683W        W 3680   6.920   2.380   5.560
 2684W        W 3681   5.849   7.345   7.930
 2685W        W 3682   0.319   1.706   2.894
 2686W        W 3683   1.695   2.545   2.327
 2687W        W 3684   7.529   5.606   6.844
 2688W        W 3685   7.289   4.238   4.629
 2689W        W 3686   5.884   7.368   3.585
 2690W        W 3687   3.240   4.384   1.357
 2691W        W 3688   0.761   4.095   6.389
 2692W        W 3689   6.908   3.039   1.718
 2693W        W 3690   2.669   0.675   1.475
 2694W        W 3691   2.178   1.176   4.802
 2695W        W 3692   2.834   6.274   3.438
 2696W        W 3693   4.096   4.816   6.937
 2697W        W 3694   5.829   4.384   5.712
 2698W        W 3695   6.810   0.438   0.862
 2699W        W 3696   1.517   7.055   0.186
 2700W        W 3697   4.452   7.480   1.834
 2701W        W 3698   0.733   5.518   3.483
 2702W        W 3699   1.974   4.482   1.718
 2703W        W 3700   2.226   1.969   7.262
 2704W        W 3701   6.730   5.784   7.122
 2705W        W 3702   1.815   6.317   7.633
 2706W        W 3703   6.261   4.491   6.772
 2707W        W 3704   1.899   6.061   0.573
 2708W        W 3705   3.074   5.539   6.618
 2709W        W 3706   5.278   6.362   2.874
 2710W        W 3707   7.681   5.721   6.078
 2711W        W 3708   2.505   6.983   3.181
 2712W        W 3709   2.615   1.055   1.127
 2713W        W 3710   5.859   3.078   5.305
 2714W        W 3711   4.682   1.962   2.590
 2715W        W 3712   1.533   1.719   3.321
 2716W        W 3713   6.735   7.274   1.499
 2717W        W 3714   7.167   7.645   7.179
 2718W        W 3715   4.968   4.319   1.565
 2719W        W 3716   2.265   7.052   3.711
 2720W        W 3717   4.478   7.773   2.255
 2721W        W 3718   2.714   1.687   2.275
 2722W        W 3719   3.767   0.773   2.084
 2723W        W 3720   6.491   4.687   0.470
 2724W        W 3721   3.132   1.892   5.729
 2725W        W 3722   1.570   7.671   7.703
 2726W        W 3723   1.155   7.159   3.085
 2727W        W 3724   5.229   6.608   7.470
 2728W        W 3725   1.114   6.443   0.921
 2729W        W 3726   4.557   2.297   7.344
 2730W        W 3727   3.322   5.753   6.200
 2731W        W 3728   2.072   2.221   5.321
 2732W        W 3729   3.144   2.494   1.739
 2733W        W 3730   1.066   2.189   1.035
 2734W        W 3731   0.472   5.856   1.101
 2735W        W 3732   7.314   2.546   1.174
 2736W        W 3733   4.671   2.481   4.874
 2737W        W 3734   3.377   1.096   5.381
 2738W        W 3735   6.898   2.707   6.360
 2739W        W 3736   5.509   6.975   6.278
 2740W        W 3737   7.356   4.874   5.707
 2741W        W 3738   5.370   6.499   3.354
 2742W        W 3739   2.414   3.336   4.109
 2743W        W 3740   3.195   7.114   1.283
 2744W        W 3741   4.452   4.024   4.513
 2745W        W 3742   5.708   6.461   5.647
 2746W        W 3743   2.656   1.641   1.761
 2747W        W 3744   1.442   6.003   2.155
 2748W        W 3745   4.673   6.332   5.826
 2749W        W 3746   7.598   4.116   1.182
 2750W        W 3747   3.653   4.849   7.224
 2751W        W 3748   2.698   3.691   6.697
 2752W        W 3749   7.824   6.124   4.244
 2753W        W 3750   1.605   2.279   1.884
 2754W        W 3751   1.232   3.904   6.339
 2755W        W 3752   3.820   4.253   5.993
 2756W        W 3753   4.023   1.019   1.173
 2757W        W 3754   0.848   4.823   4.698
 2758W        W 3755   6.020   1.565   2.652
 2759W        W 3756   5.696   5.530   5.189
 2760W        W 3757   4.254   5.916   7.001
 2761W        W 3758   4.756   3.306   2.743
 2762W        W 3759   2.049   5.266   3.916
 2763W        W 3760   1.131   3.429   5.616
 2764W        W 3761   2.377   2.011   2.093
 2765W        W 3762   3.578   1.133   6.723
 2766W        W 3763   3.267   4.092   0.117
 2767W        W 3764   4.925   1.356   1.114
 2768W        W 3765   6.133   2.676   5.164
 2769W        W 3766   4.103   6.221   6.030
 2770W        W 3767   5.056   7.115   6.107
 2771W        W 3768   2.198   1.195   0.573
 2772W        W 3769   4.689   0.502   2.893
 2773W        W 3770   0.706   5.568   5.035
 2774W        W 3771   3.938   5.266   0.680
 2775W        W 3772   3.405   6.561   5.985
 2776W        W 3773   5.276   0.431   2.257
 2777W        W 3774   5.522   3.529   5.994
 2778W        W 3775   7.829   5.751   5.557
 2779W        W 3776   2.967   4.370   0.654
 2780W        W 3777   1.152   6.393   1.966
 2781W        W 3778   0.924   4.304   0.823
 2782W        W 3779   5.051   3.799   7.334
 2783W        W 3780   3.239   7.585   1.444
 2784W        W 3781   5.049   7.884   1.072
 2785W        W 3782   4.166   5.716   0.716
 2786W        W 3783   7.179   6.795   0.889
 2787W        W 3784   6.756   0.609   6.400
 2788W        W 3785   7.770   0.573   6.059
 2789W        W 3786   0.779   7.980   7.376
 2790W        W 3787   6.567   0.166   6.219
 2791W        W 3788   3.635   7.017   5.900
 2792W        W 3789   5.955   7.776   7.599
 2793W        W 3790   4.343   5.604   1.595
 2794W        W 3791   3.715   4.267   1.532
 2795W        W 3792   5.631   1.005   6.905
 2796W        W 3793   1.690   3.931   0.578
 2797W        W 3794   3.965   2.094   7.387
 2798W        W 3795   5.861   1.829   6.669
 2799W        W 3796   2.608   3.171   6.725
 2800W        W 3797   1.752   6.908   0.630
 2801W        W 3798   5.890   2.320   1.569
 2802W        W 3799   7.319   6.144   1.661
 2803W        W 3800   1.451   6.009   2.647
 2804W        W 3801   5.749   3.331   2.361
 2805W        W 3802   3.709   5.901   0.521
 2806W        W 3803   5.463   1.782   4.686
 2807W        W 3804   4.852   4.829   1.676
 2808W        W 3805   3.697   7.675   4.436
 2809W        W 3806   6.163   5.024   7.213
 2810W        W 3807   1.641   0.766   3.037
 2811W        W 3808   2.812   5.190   5.917
 2812W        W 3809   7.596   7.388   1.146
 2813W        W 3810   3.779   3.569   3.182
 2814W        W 3811   7.184   1.780   3.773
 2815W        W 3812   6.380   6.519   1.452
 2816W        W 3813   0.822   3.189   0.338
 2817W        W 3814   4.632   1.341   3.288
 2818W        W 3815   3.631   2.163   2.352
 2819W        W 3816   0.294   1.743   1.489
 2820W        W 3817   4.322   5.362   7.803
 2821W        W 3818   4.710   7.036   1.917
 2822W        W 3819   4.581   3.782   2.732
 2823W        W 3820   0.966   5.979   1.066
 2824W        W 3821   4.818   3.199   3.730
 2825W        W 3822   7.331   6.415   3.869
 2826W        W 3823   3.989   5.723   3.486
 2827W        W 3824   1.981   2.738   4.605
 2828W        W 3825   2.563   6.666   3.589
 2829W        W 3826   5.832   0.847   3.870
 2830W        W 3827   7.624   6.403   6.365
 2831W        W 3828   2.077   2.133   2.771
 2832W        W 3829   2.194   5.925   5.509
 2833W        W 3830   6.979   2.401   3.286
 2834W        W 3831   2.574   6.935   5.104
 2835W        W 3832   0.459   2.802   2.110
 2836W        W 3833   5.494   1.667   7.459
 2837W        W 3834   5.941   0.559   4.287
 2838W        W 3835   1.765   7.021   3.623
 2839W        W 3836   4.180   2.669   6.112
 2840W        W 3837   0.006   4.942   0.810
 2841W        W 3838   2.413   7.704   5.665
 2842W        W 3839   4.229   3.413   3.921
 2843W        W 3840   6.932   3.276   4.497
 2844W        W 3841   6.434   5.401   6.844
 2845W        W 3842   7.999   4.009   3.111
 2846W        W 3843   6.462   1.038   6.513
 2847W        W 3844   7.182   2.221   2.845
 2848W        W 3845   0.137   3.150   3.649
 2849W        W 3846   5.307   3.115   3.914
 2850W        W 3847   3.171   4.383   4.286
 2851W        W 3848   5.255   4.791   7.304
 2852W        W 3849   3.644   2.268   3.174
 2853W        W 3850   5.939   0.264   1.945
 2854W        W 3851   2.459   2.490   4.549
 2855W        W 3852   4.358   5.410   3.403
 2856W        W 3853   7.128   4.468   5.457
 2857W        W 3854   6.839   6.295   1.589
 2858W        W 3855   3.678   4.237   4.267
 2859W        W 3856   4.025   6.971   1.140
 2860W        W 3857   6.550   6.470   3.235
 2861W        W 3858   4.021   2.974   7.849
 2862W        W 3859   5.975   3.001   4.648
 2863W        W 3860   2.476   5.712   5.865
 2864W        W 3861   7.244   2.807   3.174
 2865W        W 3862   6.885   1.189   5.717
 2866W        W 3863   2.944   2.339   4.443
 2867W        W 3864   0.160   7.025   5.893
 2868W        W 3865   4.361   1.854   7.584
 2869W        W 3866   5.348   1.383   1.433
 2870W        W 3867   7.815   4.872   6.305
 2871W        W 3868   7.958   2.129   1.583
 2872W        W 3869   1.460   5.712   6.062
 2873W        W 3870   1.004   3.274   0.831
 2874W        W 3871   5.599   2.333   7.338
 2875W        W 3872   7.660   3.422   5.083
 2876W        W 3873   3.964   3.992   4.680
 2877W        W 3874   6.326   1.145   7.034
 2878W        W 3875   4.109   1.830   6.535
 2879W        W 3876   3.958   1.290   4.730
 2880W        W 3877   7.271   1.905   2.429
 2881W        W 3878   7.384   6.385   4.403
 2882W        W 3879   2.020   4.906   1.434
 2883W        W 3880   2.013   2.977   5.059
 2884W        W 3881   5.519   3.430   5.493
 2885W        W 3882   3.658   2.976   4.331
 2886W        W 3883   4.141   6.318   6.531
 2887W        W 3884   4.149   2.450   6.593
 2888W        W 3885   3.690   4.402   3.410
 2889W        W 3886   1.357   6.865   1.089
 2890W        W 3887   5.388   0.311   3.509
 2891W        W 3888   2.817   3.121   4.427
 2892W        W 3889   2.147   0.641   3.198
 2893W        W 3890   1.577   7.938   6.094
 2894W        W 3891   6.259   2.049   6.401
 2895W        W 3892   4.982   2.965   0.013
 2896W        W 3893   0.291   2.630   7.354
 2897W        W 3894   0.128   2.949   1.734
 2898W        W 3895   6.718   3.298   2.137
 2899W        W 3896   4.219   1.867   4.011
 2900W        W 3897   1.178   1.339   3.384
 2901W        W 3898   2.492   2.008   4.387
 2902W        W 3899   3.237   0.995   3.732
 2903W        W 3900   6.444   7.422   4.334
 2904W        W 3901   6.566   6.280   7.266
 2905W        W 3902   5.747   1.059   5.523
 2906W        W 3903   4.603   3.818   6.900
 2907W        W 3904   4.790   5.758   1.855
 2908W        W 3905   3.346   6.514   5.082
 2909W        W 3906   1.373   2.016   6.887
 2910W        W 3907   5.633   6.021   1.851
 2911W        W 3908   5.574   6.493   4.846
 2912W        W 3909   0.509   4.523   0.002
 2913W        W 3910   0.673   5.349   2.281
 2914W        W 3911   6.283   7.458   6.754
 2915W        W 3912   4.526   2.707   4.410
 2916W        W 3913   2.934   1.151   2.930
 2917W        W 3914   6.946   4.111   2.471
 2918W        W 3915   6.417   1.581   4.964
 2919W        W 3916   7.954   4.532   1.522
 2920W        W 3917   4.622   4.563   3.939
 2921W        W 3918   6.807   0.443   3.432
 2922W        W 3919   1.647   0.519   7.404
 2923W        W 3920   6.791   7.164   4.012
 2924W        W 3921   2.780   4.145   5.184
 2925W        W 3922   3.410   1.171   4.874
 2926W        W 3923   0.966   5.027   7.276
 2927W        W 3924   6.687   1.434   3.198
 2928W        W 3925   0.075   4.338   3.506
 2929W        W 3926   7.966   5.343   3.144
 2930W        W 3927   7.883   5.625   1.621
 2931W        W 3928   1.375   0.381   6.296
 2932W        W 3929   7.020   5.248   1.634
 2933W        W 3930   3.187   5.514   5.765
 2934W        W 3931   1.800   2.379   4.911
 2935W        W 3932   3.788   4.666   7.684
 2936W        W 3933   3.577   0.599   3.777
 2937W        W 3934   6.048   6.283   1.112
 2938W        W 3935   7.907   3.681   0.086
 2939W        W 3936   1.447   4.307   0.813
 2940W        W 3937   4.460   6.596   1.783
 2941W        W 3938   5.311   3.550   2.000
 2942W        W 3939   7.375   2.115   0.900
 2943W        W 3940   6.491   5.969   1.735
 2944W        W 3941   0.812   3.283   2.873
 2945W        W 3942   6.498   0.259   0.478
 2946W        W 3943   7.387   6.113   3.109
 2947W        W 3944   1.794   4.207   7.120
 2948W        W 3945   0.833   6.773   2.872
 2949W        W 3946   7.280   5.015   5.221
 2950W        W 3947   5.980   5.145   5.431
 2951W        W 3948   0.151   2.597   5.627
 2952W        W 3949   3.525   1.406   6.257
 2953W        W 3950   4.984   6.679   5.554
 2954W        W 3951   1.785   3.395   1.127
 2955W        W 3952   0.025   0.115   6.726
 2956W        W 3953   4.323   5.439   6.780
 2957W        W 3954   0.104   1.615   6.727
 2958W        W 3955   4.306   5.910   1.204
 2959W        W 3956   5.433   1.701   2.239
 2960W        W 3957   6.928   7.055   0.518
 2961W        W 3958   1.837   0.262   3.071
 2962W        W 3959   1.866   6.738   1.100
 2963W        W 3960   6.234   2.901   3.372
 2964W        W 3961   4.831   2.375   5.576
 2965W        W 3962   3.586   5.178   0.288
 2966W        W 3963   5.948   5.734   6.056
 2967W        W 3964   7.209   5.664   7.662
 2968W        W 3965   1.303   6.862   2.690
 2969W        W 3966   7.774   5.361   6.456
 2970W        W 3967   5.548   1.275   5.098
 2971W        W 3968   3.274   2.422   5.826
 2972W        W 3969   5.074   2.440   1.883
 2973W        W 3970   7.016   1.073   3.045
 2974W        W 3971   4.360   2.905   4.855
 2975W        W 3972   6.615   1.385   1.729
 2976W        W 3973   2.919   3.145   3.408
 2977W        W 3974   0.312   1.426   1.093
 2978W        W 3975   1.437   6.398   5.656
 2979W        W 3976   7.101   4.563   4.967
 2980W        W 3977   4.381   1.913   5.685
 2981W        W 3978   7.078   1.156   4.630
 2982W        W 3979   7.441   7.696   6.199
 2983W        W 3980   6.544   6.315   5.959
 2984W        W 3981   3.899   1.601   0.308
 2985W        W 3982   6.194   1.124   3.618
 2986W        W 3983   3.736   2.432   6.264
 2987W        W 3984   7.177   5.562   5.928
 2988W        W 3985   3.145   0.541   4.030
 2989W        W 3986   7.367   2.669   2.681
 2990W        W 3987   3.511   1.697   7.932
 2991W        W 3988   3.446   6.813   5.477
 2992W        W 3989   1.146   6.436   5.175
 2993W        W 3990   3.358   5.606   1.367
 2994W        W 3991   1.949   6.977   4.117
 2995W        W 3992   0.373   3.696   4.581
 2996W        W 3993   4.803   5.737   6.480
 2997W        W 3994   7.443   4.339   4.123
 2998W        W 3995   3.238   0.903   2.173
 2999W        W 3996   7.597   0.295   3.112
 3000W        W 3997   6.402   6.635   4.831
 3001W        W 3998   5.621   5.731   7.117
 3002W        W 3999   5.261   2.136   6.050
 3003W        W 4000   5.381   7.414   6.544
 3004W        W 4001   2.322   2.364   3.153
 3005W        W 4002   4.207   4.772   0.614
 3006W        W 4003   4.707   3.043   0.989
 3007W        W 4004   6.751   6.954   5.006
 3008W        W 4005   4.707   3.536   1.171
 3009W        W 4006   4.144   3.739   3.541
 3010W        W 4007   5.820   4.677   5.296
 3011W        W 4008   1.776   3.209   6.827
 3012W        W 4009   5.959   2.690   5.634
 3013W        W 4010   5.738   7.002   0.394
 3014W        W 4011   1.718   6.414   4.803
 3015W        W 4012   7.637   2.575   4.333
 3016W        W 4013   3.020   2.669   1.290
 3017W        W 4014   5.493   6.145   2.362
 3018W        W 4015   3.542   3.850   1.744
 3019W        W 4016   4.870   3.733   4.967
 3020W        W 4017   5.004   2.841   5.517
 3021W        W 4018   6.001   7.124   0.845
 3022W        W 4019   2.676   3.300   0.832
 3023W        W 4020   1.786   2.740   7.111
 3024W        W 4021   1.744   2.673   5.345
 3025W        W 4022   6.495   7.934   4.310
 3026W        W 4023   1.828   4.323   7.622
 3027W        W 4024   7.278   3.001   3.655
 3028W        W 4025   0.252   5.466   4.838
 3029W        W 4026   7.437   2.181   6.722
 3030W        W 4027   5.257   5.269   3.440
 3031W        W 4028   3.549   1.792   1.231
 3032W        W 4029   3.559   2.026   0.299
 3033W        W 4030   5.962   3.788   6.374
 3034W        W 4031   7.006   2.538   7.403
 3035W        W 4032   2.820   2.875   1.727
 3036W        W 4033   6.133   2.418   6.018
 3037W        W 4034   5.063   2.741   2.300
 3038W        W 4035   0.961   2.994   7.344
 3039W        W 4036   2.669   0.557   0.940
 3040W        W 4037   5.175   6.794   2.644
 3041W        W 4038   5.850   5.396   7.477
 3042W        W 4039   0.817   2.515   7.266
 3043W        W 4040   5.752   2.965   3.222
 3044W        W 4041   1.985   5.598   5.901
 3045W        W 4042   3.287   4.305   5.191
 3046W        W 4043   5.919   7.826   1.630
 3047W        W 4044   4.819   3.479   7.800
 3048W        W 4045   6.219   3.666   2.853
 3049W        W 4046   4.184   3.076   4.349
 3050W        W 4047   3.124   4.247   6.127
 3051W        W 4048   6.890   2.200   3.768
 3052W        W 4049   4.382   3.894   4.999
 3053W        W 4050   7.257   5.027   0.305
 3054W        W 4051   1.922   1.467   6.432
 3055W        W 4052   6.205   4.736   5.644
 3056W        W 4053   2.541   4.490   6.889
 3057W        W 4054   6.297   2.820   7.744
 3058W        W 4055   5.390   6.486   6.049
 3059W        W 4056   2.229   3.521   6.822
 3060W        W 4057   2.268   6.475   6.832
 3061W        W 4058   3.574   6.049   2.254
 3062W        W 4059   5.335   6.099   7.420
 3063W        W 4060   0.902   6.914   0.837
 3064W        W 4061   2.891   3.212   5.484
 3065W        W 4062   6.889   0.279   4.333
 3066W        W 4063   6.458   2.592   0.619
 3067W        W 4064   1.656   6.509   3.423
 3068W        W 4065   2.917   5.039   0.989
 3069W        W 4066   1.837   3.578   6.415
 3070W        W 4067   3.988   3.573   4.980
 3071W        W 4068   6.851   0.167   1.918
 3072W        W 4069   7.086   0.949   6.575
 3073W        W 4070   3.799   2.197   3.954
 3074W        W 4071   5.075   6.330   6.569
 3075W        W 4072   2.841   0.843   2.504
 3076W        W 4073   0.527   4.348   6.777
 3077W        W 4074   4.652   6.921   5.859
 3078W        W 4075   5.130   4.095   6.137
 3079W        W 4076   6.151   4.887   4.626
 3080W        W 4077   6.764   1.915   1.661
 3081W        W 4078   3.306   2.992   1.570
 3082W        W 4079   1.936   6.389   5.673
 3083W        W 4080   1.966   4.390   4.011
 3084W        W 4081   1.788   3.087   0.658
 3085W        W 4082   0.691   6.176   2.085
 3086W        W 4083   2.262   2.547   5.006
 3087W        W 4084   4.741   3.469   6.568
 3088W        W 4085   7.232   6.571   1.378
 3089W        W 4086   0.392   3.968   2.723
 3090W        W 4087   4.359   5.840   2.594
 3091W        W 4088   7.834   4.779   3.307
 3092W        W 4089   2.360   0.981   3.546
 3093W        W 4090   1.096   4.927   7.782
 3094W        W 4091   7.442   3.617   7.848
 3095W        W 4092   6.898   2.631   1.985
 3096W        W 4093   0.286   2.670   3.784
 3097W        W 4094   4.709   5.142   5.859
 3098W        W 4095   0.310   6.239   4.551
 3099W        W 4096   7.455   3.847   4.314
 3100W        W 4097   1.708   5.925   5.645
 3101W        W 4098   4.351   3.135   6.467
 3102W        W 4099   6.030   4.842   0.810
 3103W        W 4100   0.846   6.787   5.452
 3104W        W 4101   7.091   3.467   2.450
 3105W        W 4102   1.699   6.152   6.113
 3106W        W 4103   4.208   5.117   0.252
 3107W        W 4104   3.938   1.985   1.977
 3108W        W 4105   2.620   1.154   1.650
 3109W        W 4106   1.836   4.478   6.370
 3110W        W 4107   2.199   1.590   5.121
 3111W        W 4108   5.038   1.579   2.526
 3112W        W 4109   7.375   6.383   5.923
 3113W        W 4110   6.928   6.299   6.710
 3114W        W 4111   5.528   1.529   6.950
 3115W        W 4112   6.021   3.508   4.541
 3116W        W 4113   5.008   7.159   2.348
 3117W        W 4114   5.392   1.974   6.527
 3118W        W 4115   5.211   4.733   7.863
 3119W        W 4116   6.365   6.595   6.907
 3120W        W 4117   7.579   0.125   1.845
 3121W        W 4118   0.475   2.123   7.222
 3122W        W 4119   0.675   3.437   5.855
 3123W        W 4120   0.652   3.800   1.721
 3124W        W 4121   7.121   3.783   2.836
 3125W        W 4122   7.412   3.848   2.351
 3126W        W 4123   3.357   7.318   5.557
 3127W        W 4124   2.200   6.726   5.966
 3128W        W 4125   5.542   4.388   7.347
 3129W        W 4126   3.853   7.842   3.399
 3130W        W 4127   2.490   3.107   5.791
 3131W        W 4128   1.970   3.583   4.295
 3132W        W 4129   1.242   6.390   4.616
 3133W        W 4130   7.081   1.616   5.952
 3134W        W 4131   5.983   1.312   6.667
 3135W        W 4132   4.609   6.221   3.644
 3136W        W 4133   0.164   3.482   5.344
 3137W        W 4134   5.427   5.361   4.749
 3138W        W 4135   1.032   1.841   6.528
 3139W        W 4136   1.121   6.369   2.795
 3140W        W 4137   2.744   6.333   6.969
 3141W        W 4138   7.290   0.144   2.727
 3142W        W 4139   2.351   4.492   1.383
 3143W        W 4140   5.217   6.213   4.615
 3144W        W 4141   0.893   1.923   2.265
 3145W        W 4142   6.155   0.283   1.470
 3146W        W 4143   1.983   7.783   3.192
 3147W        W 4144   6.679   1.977   5.775
 3148W        W 4145   0.884   6.562   2.385
 3149W        W 4146   3.272   7.438   0.908
 3150W        W 4147   3.125   5.106   1.452
 3151W        W 4148   5.169   0.942   4.837
 3152W        W 4149   3.183   3.385   2.441
 3153W        W 4150   2.682   0.654   3.266
 3154W        W 4151   7.925   3.921   5.978
 3155W        W 4152   5.589   2.896   6.641
 3156W        W 4153   2.152   4.144   7.980
 3157W        W 4154   6.796   1.892   3.394
 3158W        W 4155   5.036   3.896   6.618
 3159W        W 4156   2.057   2.693   6.690
 3160W        W 4157   2.065   7.247   3.276
 3161W        W 4158   7.546   6.010   3.627
 3162W        W 4159   4.406   2.358   2.755
 3163W        W 4160   7.405   0.912   1.592
 3164W        W 4161   1.937   5.737   4.364
 3165W        W 4162   3.661   3.182   2.399
 3166W        W 4163   2.242   3.448   0.589
 3167W        W 4164   6.764   1.843   6.268
 3168W        W 4165   2.783   2.223   5.845
 3169W        W 4166   1.834   0.800   4.185
 3170W        W 4167   5.514   3.577   4.017
 3171W        W 4168   4.281   4.464   0.214
 3172W        W 4169   7.057   2.466   7.926
 3173W        W 4170   4.665   3.701   3.627
 3174W        W 4171   6.425   3.977   0.356
 3175W        W 4172   6.291   6.006   6.326
 3176W        W 4173   3.600   3.864   5.151
 3177W        W 4174   0.525   3.979   0.850
 3178W        W 4175   4.377   3.034   3.001
 3179W        W 4176   6.930   4.538   1.096
 3180W        W 4177   0.636   3.304   4.845
 3181W        W 4178   5.060   2.913   2.782
 3182W        W 4179   4.198   4.895   4.060
 3183W        W 4180   2.740   3.634   5.193
 3184W        W 4181   2.736   2.928   7.157
 3185W        W 4182   4.723   4.925   2.197
 3186W        W 4183   5.156   4.438   3.171
 3187W        W 4184   5.344   7.592   2.446
 3188W        W 4185   5.440   5.424   2.495
 3189W        W 4186   4.540   4.950   3.604
 3190W        W 4187   7.372   1.922   6.286
 3191W        W 4188   3.409   3.120   3.861
 3192W        W 4189   5.383   1.595   4.193
 3193W        W 4190   0.147   1.848   1.966
 3194W        W 4191   3.277   4.686   0.957
 3195W        W 4192   1.007   7.666   1.716
 3196W        W 4193   5.481   2.824   0.750
 3197W        W 4194   6.112   2.113   1.984
 3198W        W 4195   5.967   1.087   2.129
   8.00000   8.00000   8.00000
