Martini system from ../2_Creating_coordinates/TYR-GLY-TYR_aa.pdb
 4159
    1TYR     BB    1   2.361   3.253   4.039  0.2470 -0.1922  0.1131
    1TYR    SC1    2   2.677   3.219   4.015 -0.2248 -0.1498  0.3392
    1TYR    SC2    3   2.841   3.006   4.035 -0.2158 -0.1629  0.1511
    1TYR    SC3    4   2.916   3.220   3.889 -0.3525 -0.1565  0.0884
    2GLY     BB    5   2.153   3.171   3.903  0.0841  0.4909  0.3856
    3TYR     BB    6   1.914   3.284   3.809  0.1145  0.0621  0.0060
    3TYR    SC1    7   1.887   3.580   3.947 -0.1444  0.0724 -0.0824
    3TYR    SC2    8   1.883   3.820   4.072  0.0343 -0.0551  0.1813
    3TYR    SC3    9   2.099   3.746   3.928 -0.1714  0.0919 -0.2243
    1TYR     BB   10   1.612   0.294   3.043 -0.0318  0.0784 -0.0018
    1TYR    SC1   11   1.635   0.102   3.271 -0.1050  0.1519  0.0842
    1TYR    SC2   12   1.511   0.017   3.495 -0.3452  0.2732  0.0013
    1TYR    SC3   13   1.676  -0.150   3.361 -0.1426  0.2209  0.3026
    2GLY     BB   14   1.687   0.342   2.819  0.2849  0.0311  0.1812
    3TYR     BB   15   1.721   0.503   2.552  0.0040  0.1397 -0.1119
    3TYR    SC1   16   1.700   0.334   2.326 -0.2031  0.0364  0.1064
    3TYR    SC2   17   1.763   0.202   2.100  0.3430 -0.1040  0.3207
    3TYR    SC3   18   1.579   0.100   2.268  0.0811 -0.1011  0.0462
    1TYR     BB   19   1.993   3.053   1.335  0.2683 -0.0533 -0.3025
    1TYR    SC1   20   1.726   3.193   1.193 -0.1661  0.0427 -0.2544
    1TYR    SC2   21   1.573   3.071   1.006  0.0087  0.0212 -0.3863
    1TYR    SC3   22   1.544   3.336   1.053 -0.1387 -0.0025 -0.3366
    2GLY     BB   23   2.047   2.805   1.311 -0.1422  0.1599 -0.1322
    3TYR     BB   24   2.064   2.583   1.500  0.4108 -0.0103  0.1535
    3TYR    SC1   25   2.203   2.599   1.774  0.0683 -0.0525 -0.0835
    3TYR    SC2   26   2.246   2.460   2.001  0.0807 -0.0386 -0.0774
    3TYR    SC3   27   2.376   2.693   1.959  0.0700 -0.0356 -0.0937
    1TYR     BB   28   1.709   0.410   1.220 -0.1086 -0.1387  0.0415
    1TYR    SC1   29   1.817   0.338   0.931  0.2121  0.2021  0.0925
    1TYR    SC2   30   2.043   0.292   0.790 -0.0410  0.2451 -0.3514
    1TYR    SC3   31   1.808   0.191   0.705 -0.1942  0.1679  0.1224
    2GLY     BB   32   1.936   0.520   1.396 -0.2547  0.1341  0.0301
    3TYR     BB   33   2.233   0.396   1.273  0.1426  0.0568  0.4694
    3TYR    SC1   34   2.422   0.640   1.136  0.4371 -0.0043  0.2454
    3TYR    SC2   35   2.376   0.883   1.027  0.0449 -0.1183  0.1364
    3TYR    SC3   36   2.623   0.775   1.016  0.1568  0.1444 -0.0809
    1TYR     BB   37   3.315   3.813   2.511  0.3464 -0.4559  0.1583
    1TYR    SC1   38   3.599   3.813   2.489  0.3145 -0.0824  0.0225
    1TYR    SC2   39   3.827   3.897   2.606  0.0891  0.4006  0.1490
    1TYR    SC3   40   3.811   3.884   2.337  0.3635  0.0280  0.1403
    2GLY     BB   41   3.122   3.780   2.656 -0.3210  0.1042  0.2188
    3TYR     BB   42   2.919   3.874   2.837  0.2644 -0.0685 -0.0935
    3TYR    SC1   43   2.713   3.695   2.967 -0.0774  0.0815  0.1010
    3TYR    SC2   44   2.666   3.457   3.084  0.0198 -0.0427 -0.1064
    3TYR    SC3   45   2.487   3.559   2.910 -0.0823  0.0989  0.0783
    1TYR     BB   46   3.459   1.354   2.353  0.0991  0.2427 -0.0270
    1TYR    SC1   47   3.378   1.196   2.615 -0.4845 -0.1109  0.0784
    1TYR    SC2   48   3.353   0.990   2.788 -0.1074 -0.1254  0.1260
    1TYR    SC3   49   3.578   1.140   2.788 -0.3722  0.2942  0.0936
    2GLY     BB   50   3.275   1.445   2.226  0.4202 -0.3211 -0.1593
    3TYR     BB   51   3.077   1.440   1.993 -0.0386 -0.0810 -0.2038
    3TYR    SC1   52   3.231   1.406   1.760 -0.1572 -0.4642  0.1714
    3TYR    SC2   53   3.476   1.437   1.650 -0.2289  0.0777  0.1339
    3TYR    SC3   54   3.327   1.221   1.588  0.0791 -0.0634 -0.1506
    1TYR     BB   55   1.283   1.419   2.418 -0.0772 -0.1438  0.0385
    1TYR    SC1   56   1.487   1.391   2.203 -0.0353  0.1269  0.0098
    1TYR    SC2   57   1.464   1.394   1.934 -0.1361 -0.1035  0.0122
    1TYR    SC3   58   1.689   1.298   2.049  0.0753  0.3565  0.0117
    2GLY     BB   59   1.332   1.611   2.640 -0.0972  0.0029  0.1330
    3TYR     BB   60   1.413   1.933   2.724  0.0142  0.2308 -0.0257
    3TYR    SC1   61   1.196   2.133   2.773 -0.1575 -0.1754 -0.1481
    3TYR    SC2   62   1.010   2.310   2.690 -0.1869 -0.0676  0.1314
    3TYR    SC3   63   0.942   2.052   2.730 -0.2258 -0.0716  0.0427
    1TYR     BB   64   2.257   0.608   1.830  0.3536 -0.0239  0.0588
    1TYR    SC1   65   2.326   0.821   1.617  0.0328 -0.3516  0.1215
    1TYR    SC2   66   2.429   1.069   1.642 -0.5906 -0.0482 -0.0561
    1TYR    SC3   67   2.547   0.889   1.478 -0.0438  0.0607  0.1867
    2GLY     BB   68   1.993   0.657   1.960  0.1325  0.1204  0.2242
    3TYR     BB   69   1.992   0.844   2.199  0.1139  0.0090  0.2267
    3TYR    SC1   70   2.124   0.808   2.481 -0.2187 -0.0824  0.0549
    3TYR    SC2   71   2.237   0.958   2.675 -0.1454  0.0698 -0.1011
    3TYR    SC3   72   2.307   0.698   2.647 -0.1045  0.0655  0.0295
    1TYR     BB   73   2.224   3.141   3.131  0.2831  0.0791  0.0365
    1TYR    SC1   74   2.046   3.344   2.972  0.0297  0.0499 -0.1284
    1TYR    SC2   75   1.823   3.482   2.908  0.0226  0.1044  0.0095
    1TYR    SC3   76   2.064   3.569   2.824  0.0206  0.2163  0.1174
    2GLY     BB   77   2.352   3.257   3.420 -0.0088  0.2222  0.2268
    3TYR     BB   78   2.506   3.098   3.577  0.1205  0.3668 -0.0337
    3TYR    SC1   79   2.494   2.811   3.719 -0.0676 -0.0595  0.0994
    3TYR    SC2   80   2.342   2.603   3.802  0.0038 -0.0787  0.1839
    3TYR    SC3   81   2.501   2.733   3.978  0.3595 -0.2880  0.0310
    1TYR     BB   82   2.833   3.312   2.649 -0.1545 -0.4864 -0.1200
    1TYR    SC1   83   2.571   3.164   2.671 -0.2473  0.1996  0.0080
    1TYR    SC2   84   2.312   3.090   2.695 -0.1269 -0.1934  0.2019
    1TYR    SC3   85   2.507   2.903   2.697  0.1527  0.0734 -0.1725
    2GLY     BB   86   3.042   3.309   2.789 -0.1306 -0.0436  0.4386
    3TYR     BB   87   3.213   3.065   2.993 -0.2345 -0.0827  0.4568
    3TYR    SC1   88   3.330   3.105   3.273  0.2533 -0.2107 -0.0090
    3TYR    SC2   89   3.489   3.036   3.480  0.3612  0.3410  0.1122
    3TYR    SC3   90   3.300   3.226   3.513 -0.2232 -0.1662 -0.0784
    1TYR     BB   91   7.381   1.265   1.841  0.1171 -0.1240 -0.0164
    1TYR    SC1   92   7.322   0.986   1.965 -0.1996  0.0409  0.1292
    1TYR    SC2   93   7.316   0.776   2.134 -0.1031 -0.0764 -0.0095
    1TYR    SC3   94   7.139   0.790   1.931 -0.0535 -0.0685 -0.0525
    2GLY     BB   95   7.279   1.508   1.877 -0.0131 -0.0320  0.1144
    3TYR     BB   96   7.485   1.812   1.712  0.0161  0.1522  0.1382
    3TYR    SC1   97   7.560   1.704   1.471  0.1504  0.1245 -0.1336
    3TYR    SC2   98   7.530   1.506   1.290 -0.2645 -0.0119  0.0701
    3TYR    SC3   99   7.641   1.741   1.216  0.1463 -0.2764 -0.2001
    1TYR     BB  100   4.104   2.932   2.487  0.1546  0.0376 -0.0044
    1TYR    SC1  101   4.250   2.759   2.238 -0.0591 -0.0353  0.1323
    1TYR    SC2  102   4.091   2.635   2.058  0.0092 -0.3618  0.2881
    1TYR    SC3  103   4.357   2.655   2.013 -0.0339 -0.0361  0.1446
    2GLY     BB  104   3.767   2.748   2.513 -0.0121  0.1190 -0.2124
    3TYR     BB  105   3.494   2.834   2.594  0.0723  0.1366 -0.3608
    3TYR    SC1  106   3.216   2.796   2.491  0.0547 -0.0038 -0.1822
    3TYR    SC2  107   3.021   2.807   2.305 -0.1929 -0.4344  0.0319
    3TYR    SC3  108   2.959   2.829   2.567  0.1306  0.0022  0.0860
    1TYR     BB  109   1.504   0.751   2.147  0.3169 -0.5216  0.0594
    1TYR    SC1  110   1.525   0.578   1.913  0.1799 -0.0726 -0.0211
    1TYR    SC2  111   1.617   0.398   1.735  0.1722 -0.3559  0.2510
    1TYR    SC3  112   1.400   0.341   1.885  0.0737 -0.0507  0.2321
    2GLY     BB  113   1.237   0.935   2.191  0.0940  0.1785 -0.0878
    3TYR     BB  114   1.012   1.009   2.339  0.3309 -0.1718  0.1815
    3TYR    SC1  115   0.794   1.209   2.301 -0.0788 -0.2075  0.1485
    3TYR    SC2  116   0.628   1.288   2.102  0.2111 -0.1456 -0.0772
    3TYR    SC3  117   0.552   1.314   2.360 -0.0103  0.1554 -0.1659
    1TYR     BB  118   0.028   1.251   2.255 -0.0363 -0.3336 -0.0012
    1TYR    SC1  119  -0.246   1.260   2.374 -0.1509  0.0416 -0.0126
    1TYR    SC2  120  -0.494   1.363   2.407 -0.0635  0.1993  0.1823
    1TYR    SC3  121  -0.454   1.097   2.428 -0.2359  0.1569  0.0142
    2GLY     BB  122   0.153   1.069   2.133 -0.0447 -0.1962 -0.0418
    3TYR     BB  123   0.190   0.854   1.959  0.0404 -0.3737  0.1304
    3TYR    SC1  124   0.041   0.674   1.784 -0.3696 -0.0203  0.1131
    3TYR    SC2  125  -0.103   0.445   1.792 -0.2778 -0.0774  0.1529
    3TYR    SC3  126  -0.185   0.651   1.637 -0.1615 -0.2738 -0.1830
    1TYR     BB  127   1.380   7.230   3.043  0.0914  0.1370 -0.0628
    1TYR    SC1  128   1.613   7.341   2.872  0.0257  0.0481  0.1646
    1TYR    SC2  129   1.757   7.481   2.692  0.0810 -0.2615 -0.0428
    1TYR    SC3  130   1.868   7.411   2.929 -0.0882  0.4055  0.2633
    2GLY     BB  131   1.200   7.450   3.110 -0.0593 -0.1766  0.2773
    3TYR     BB  132   0.886   7.440   3.210 -0.2272 -0.0836  0.2872
    3TYR    SC1  133   0.737   7.675   3.135 -0.1814 -0.1116 -0.0805
    3TYR    SC2  134   0.500   7.778   3.215 -0.1190 -0.2632  0.3297
    3TYR    SC3  135   0.682   7.936   3.094 -0.3321 -0.0875  0.2310
    1TYR     BB  136   3.215   2.481   1.983  0.0668  0.0433 -0.0890
    1TYR    SC1  137   3.161   2.413   1.694 -0.1868 -0.3006  0.1387
    1TYR    SC2  138   3.240   2.380   1.438 -0.0797  0.1401  0.1059
    1TYR    SC3  139   2.980   2.428   1.493 -0.1272 -0.0931  0.0982
    2GLY     BB  140   3.453   2.507   2.165  0.1530 -0.0515  0.1843
    3TYR     BB  141   3.683   2.350   2.266  0.2039  0.0918 -0.1954
    3TYR    SC1  142   3.735   2.052   2.304 -0.1496 -0.0576 -0.3217
    3TYR    SC2  143   3.867   1.899   2.484 -0.1174  0.3124 -0.0143
    3TYR    SC3  144   3.744   1.784   2.272  0.1829 -0.0970  0.0199
    1TYR     BB  145   1.605   2.843   4.441  0.2679  0.0612 -0.0618
    1TYR    SC1  146   1.498   3.118   4.378  0.0469  0.0852  0.0683
    1TYR    SC2  147   1.292   3.187   4.217  0.0959  0.0001 -0.0329
    1TYR    SC3  148   1.526   3.321   4.202  0.1191 -0.0445 -0.0734
    2GLY     BB  149   1.469   2.711   4.618  0.0053 -0.3303 -0.1552
    3TYR     BB  150   1.167   2.640   4.720 -0.4044  0.0755  0.0798
    3TYR    SC1  151   1.072   2.380   4.539  0.1235  0.0815  0.0009
    3TYR    SC2  152   1.040   2.155   4.394  0.0964 -0.0401  0.1915
    3TYR    SC3  153   0.840   2.335   4.408  0.1353  0.0211  0.0003
    1TYR     BB  154   3.517   2.558   3.141 -0.1347 -0.0270 -0.2023
    1TYR    SC1  155   3.583   2.562   3.433  0.0630 -0.2114 -0.1237
    1TYR    SC2  156   3.745   2.475   3.631 -0.0399  0.2361  0.1759
    1TYR    SC3  157   3.536   2.636   3.688 -0.2726  0.1133 -0.2684
    2GLY     BB  158   3.242   2.605   2.984  0.1928  0.0606 -0.0133
    3TYR     BB  159   2.970   2.547   2.960 -0.1400 -0.0941 -0.0877
    3TYR    SC1  160   2.764   2.775   3.003  0.1249 -0.1740 -0.0292
    3TYR    SC2  161   2.554   2.834   3.161 -0.0589  0.4469 -0.4574
    3TYR    SC3  162   2.764   3.002   3.148  0.3831 -0.0503 -0.2127
    1TYR     BB  163   3.641   2.238   1.737 -0.2244 -0.0724  0.1642
    1TYR    SC1  164   3.436   2.082   1.883  0.0713  0.0922  0.0567
    1TYR    SC2  165   3.469   1.814   1.880 -0.4302  0.0199 -0.1824
    1TYR    SC3  166   3.330   1.931   2.080 -0.2805  0.0961 -0.1209
    2GLY     BB  167   3.650   2.575   1.704 -0.0199  0.0231 -0.1819
    3TYR     BB  168   3.547   2.752   1.522 -0.0419 -0.2126 -0.2726
    3TYR    SC1  169   3.287   2.853   1.374 -0.0199  0.2749  0.1198
    3TYR    SC2  170   3.059   2.992   1.413 -0.1724  0.0928 -0.0960
    3TYR    SC3  171   3.170   2.980   1.167 -0.0914 -0.0605 -0.0540
    1TYR     BB  172   0.709   0.755   2.047 -0.2184  0.0055 -0.0959
    1TYR    SC1  173   0.927   0.783   1.850 -0.1634  0.2508 -0.3158
    1TYR    SC2  174   0.997   0.855   1.599 -0.1268 -0.2499 -0.4640
    1TYR    SC3  175   1.110   0.639   1.713 -0.1705 -0.0532 -0.0207
    2GLY     BB  176   0.523   0.514   2.034 -0.0607 -0.0398 -0.0791
    3TYR     BB  177   0.425   0.291   1.984 -0.1375 -0.0243 -0.1003
    3TYR    SC1  178   0.328   0.240   1.710  0.1133  0.0268  0.0477
    3TYR    SC2  179   0.208   0.347   1.493  0.2039  0.0151 -0.0086
    3TYR    SC3  180   0.389   0.148   1.464  0.4963  0.2638  0.0435
    1TYR     BB  181   6.224   3.716   0.120  0.3453 -0.1252  0.0254
    1TYR    SC1  182   6.416   3.718   0.360 -0.1906 -0.0156  0.2589
    1TYR    SC2  183   6.520   3.586   0.571  0.1342 -0.2275 -0.0190
    1TYR    SC3  184   6.451   3.846   0.595  0.0704 -0.2718  0.3676
    2GLY     BB  185   6.089   4.036   0.200  0.0109 -0.1143  0.1209
    3TYR     BB  186   6.180   4.239   0.314 -0.2123  0.2190  0.2389
    3TYR    SC1  187   6.349   4.465   0.201  0.1539  0.0538 -0.0942
    3TYR    SC2  188   6.404   4.726   0.237 -0.3394  0.2048 -0.3211
    3TYR    SC3  189   6.531   4.587   0.044  0.0208  0.2319 -0.1140
    1TYR     BB  190   2.479   2.306   1.516 -0.1688 -0.2998 -0.1716
    1TYR    SC1  191   2.577   2.555   1.358  0.3488 -0.1165 -0.1830
    1TYR    SC2  192   2.483   2.737   1.181 -0.3066 -0.0569  0.1823
    1TYR    SC3  193   2.743   2.742   1.255 -0.2480  0.5804  0.0089
    2GLY     BB  194   2.588   2.081   1.459 -0.0746 -0.0424 -0.0122
    3TYR     BB  195   2.618   1.843   1.348  0.2788  0.1429 -0.1005
    3TYR    SC1  196   2.427   1.815   1.096  0.0875  0.4427  0.1424
    3TYR    SC2  197   2.201   1.751   0.963  0.1522  0.1670  0.1585
    3TYR    SC3  198   2.410   1.860   0.830  0.2388 -0.1602  0.0128
    1TYR     BB  199   1.450   2.337   4.143  0.0662  0.2208 -0.0689
    1TYR    SC1  200   1.260   2.558   4.148  0.2120  0.2031 -0.1447
    1TYR    SC2  201   1.117   2.718   3.983  0.1433  0.0560 -0.2304
    1TYR    SC3  202   1.129   2.773   4.247  0.1398  0.2146 -0.2622
    2GLY     BB  203   1.736   2.366   4.272 -0.0530 -0.2235  0.0492
    3TYR     BB  204   1.936   2.306   4.341  0.2411 -0.0087  0.0212
    3TYR    SC1  205   2.255   2.307   4.226  0.1750 -0.1562  0.0012
    3TYR    SC2  206   2.516   2.372   4.247  0.0536  0.4012 -0.0242
    3TYR    SC3  207   2.433   2.211   4.047  0.4042 -0.0229  0.1517
    1TYR     BB  208   5.571   3.672   0.556 -0.0859  0.2015  0.0031
    1TYR    SC1  209   5.369   3.808   0.758 -0.1128 -0.0647 -0.0157
    1TYR    SC2  210   5.352   4.016   0.929 -0.2146  0.2245 -0.3618
    1TYR    SC3  211   5.169   3.818   0.939 -0.0516  0.0816  0.0454
    2GLY     BB  212   5.930   3.621   0.480 -0.3258  0.0404  0.0147
    3TYR     BB  213   6.074   3.335   0.570 -0.1202 -0.0499 -0.1738
    3TYR    SC1  214   6.186   3.200   0.343 -0.0972 -0.0608 -0.0194
    3TYR    SC2  215   6.254   3.073   0.115  0.2545  0.0681  0.0058
    3TYR    SC3  216   6.429   3.240   0.233 -0.0263  0.2184  0.2246
    1TYR     BB  217   1.693   2.752   1.725  0.1119 -0.2015  0.1759
    1TYR    SC1  218   1.704   2.489   1.841 -0.2195 -0.1386  0.1375
    1TYR    SC2  219   1.814   2.325   2.025  0.1144  0.0657  0.1302
    1TYR    SC3  220   1.821   2.258   1.763  0.1889  0.0595  0.1336
    2GLY     BB  221   1.581   2.731   1.436 -0.0939 -0.2619 -0.1449
    3TYR     BB  222   1.612   2.451   1.263 -0.0253 -0.0814  0.3428
    3TYR    SC1  223   1.654   2.534   0.981 -0.0846 -0.0001  0.0864
    3TYR    SC2  224   1.825   2.699   0.853 -0.0760 -0.2515 -0.2424
    3TYR    SC3  225   1.591   2.631   0.737 -0.3187 -0.0678  0.1172
    1TYR     BB  226   1.403   2.716   2.639 -0.1048 -0.1783 -0.0054
    1TYR    SC1  227   1.372   2.964   2.810  0.0754  0.1446 -0.1744
    1TYR    SC2  228   1.176   3.085   2.951  0.0300 -0.0628 -0.0548
    1TYR    SC3  229   1.373   3.233   2.840 -0.2426  0.1602 -0.2594
    2GLY     BB  230   1.602   2.527   2.733 -0.1991 -0.0285 -0.0749
    3TYR     BB  231   1.780   2.354   2.681 -0.0844  0.1076  0.3049
    3TYR    SC1  232   1.875   2.080   2.788 -0.3688 -0.0859 -0.0671
    3TYR    SC2  233   2.048   1.872   2.772 -0.1602  0.0845 -0.0815
    3TYR    SC3  234   1.851   1.870   2.957 -0.1180 -0.0944 -0.0367
    1TYR     BB  235   3.178   0.957   2.193 -0.0877 -0.1284 -0.1651
    1TYR    SC1  236   3.105   0.955   1.911 -0.0837 -0.0254  0.0999
    1TYR    SC2  237   2.876   0.963   1.767  0.0767  0.0966 -0.1569
    1TYR    SC3  238   3.066   0.780   1.710  0.0369 -0.0198  0.0706
    2GLY     BB  239   2.956   1.075   2.390  0.1046 -0.1418  0.3441
    3TYR     BB  240   2.704   1.035   2.653 -0.0726  0.2123  0.1841
    3TYR    SC1  241   2.887   0.944   2.892  0.1870 -0.2059 -0.0889
    3TYR    SC2  242   3.022   1.068   3.090  0.1339 -0.0452 -0.1506
    3TYR    SC3  243   2.947   0.810   3.118  0.0354  0.0051  0.0817
    1TYR     BB  244   0.921   1.265   3.277 -0.1098 -0.0608 -0.0462
    1TYR    SC1  245   0.695   1.160   3.041  0.0679 -0.3153 -0.0865
    1TYR    SC2  246   0.736   1.133   2.775 -0.1049  0.0746 -0.1620
    1TYR    SC3  247   0.496   1.216   2.867 -0.0557 -0.0822  0.1225
    2GLY     BB  248   1.171   1.197   3.221  0.0069  0.1733  0.3829
    3TYR     BB  249   1.230   1.199   2.906 -0.0068 -0.1551 -0.2403
    3TYR    SC1  250   1.504   1.123   2.785 -0.0808 -0.2086 -0.0043
    3TYR    SC2  251   1.547   1.023   2.538  0.2653 -0.1279  0.0171
    3TYR    SC3  252   1.733   0.990   2.731  0.2792  0.3302  0.0946
    1TYR     BB  253   6.061   4.064   6.458 -0.0143 -0.0507 -0.0635
    1TYR    SC1  254   6.171   4.290   6.277  0.0208  0.3145  0.1283
    1TYR    SC2  255   6.392   4.445   6.277  0.2631 -0.0129 -0.1475
    1TYR    SC3  256   6.276   4.375   6.044  0.0811 -0.1416 -0.0222
    2GLY     BB  257   6.151   3.845   6.405 -0.2589 -0.0561  0.3653
    3TYR     BB  258   6.329   3.740   6.157  0.1266 -0.0180  0.0290
    3TYR    SC1  259   6.572   3.862   6.061  0.0633 -0.1195 -0.5015
    3TYR    SC2  260   6.758   3.859   5.866  0.1267  0.3842 -0.4646
    3TYR    SC3  261   6.759   4.057   6.050  0.0305 -0.0393  0.0192
    1TYR     BB  262   4.074   2.035   1.912  0.2958 -0.0420 -0.2726
    1TYR    SC1  263   3.984   1.739   1.912 -0.0986  0.0508 -0.4006
    1TYR    SC2  264   3.825   1.522   1.889  0.1601 -0.1993  0.0087
    1TYR    SC3  265   4.067   1.500   2.005  0.2523  0.2897 -0.0625
    2GLY     BB  266   4.317   2.164   1.982 -0.0280 -0.1486  0.0858
    3TYR     BB  267   4.565   2.208   2.137 -0.0573  0.1142 -0.3086
    3TYR    SC1  268   4.588   2.459   2.349 -0.0743 -0.1107  0.1547
    3TYR    SC2  269   4.522   2.600   2.569 -0.1811 -0.0898  0.1100
    3TYR    SC3  270   4.737   2.672   2.423 -0.1125 -0.1010  0.2040
    1TYR     BB  271   0.468   1.087   3.791 -0.1236  0.0827  0.2016
    1TYR    SC1  272   0.579   0.983   4.042 -0.2415 -0.2060  0.0272
    1TYR    SC2  273   0.791   0.899   4.187  0.0096 -0.0160 -0.2143
    1TYR    SC3  274   0.581   1.018   4.309 -0.0102 -0.2959  0.0402
    2GLY     BB  275   0.718   1.272   3.716  0.2247 -0.1520 -0.1052
    3TYR     BB  276   0.710   1.680   3.686  0.1253 -0.1564 -0.2554
    3TYR    SC1  277   0.425   1.725   3.633 -0.0121 -0.2730 -0.2476
    3TYR    SC2  278   0.212   1.892   3.634  0.0932 -0.1349 -0.0546
    3TYR    SC3  279   0.178   1.630   3.579 -0.1251 -0.1124 -0.0371
    1TYR     BB  280   1.213   1.266   4.070  0.0715  0.1639  0.0965
    1TYR    SC1  281   1.295   1.347   3.769 -0.0345  0.0539 -0.1506
    1TYR    SC2  282   1.445   1.421   3.556 -0.2649 -0.3457 -0.4695
    1TYR    SC3  283   1.202   1.532   3.596  0.0443  0.2376 -0.0014
    2GLY     BB  284   1.004   1.356   4.096  0.2998 -0.0648  0.0033
    3TYR     BB  285   0.736   1.512   4.313 -0.0092  0.1023  0.3860
    3TYR    SC1  286   0.872   1.721   4.516 -0.0701  0.3941 -0.0132
    3TYR    SC2  287   0.771   1.829   4.742  0.0469  0.1222  0.1764
    3TYR    SC3  288   1.038   1.826   4.701  0.0283  0.1401  0.0480
    1TYR     BB  289   2.113   0.133   3.268  0.2091  0.0207  0.1005
    1TYR    SC1  290   2.055   0.075   3.582  0.0411  0.0299  0.0683
    1TYR    SC2  291   1.880  -0.014   3.768  0.1423  0.0396  0.1697
    1TYR    SC3  292   2.145  -0.050   3.804  0.1559 -0.1081 -0.0541
    2GLY     BB  293   2.057   0.414   3.181  0.1324  0.0764 -0.0904
    3TYR     BB  294   1.996   0.661   3.048  0.0767  0.2000 -0.5012
    3TYR    SC1  295   1.722   0.777   3.113 -0.1940 -0.1442  0.0684
    3TYR    SC2  296   1.611   0.950   3.288 -0.0576  0.0184 -0.0014
    3TYR    SC3  297   1.454   0.805   3.123 -0.1789 -0.0162  0.1414
    1TYR     BB  298   1.265   0.416   1.346  0.1978  0.0148  0.0633
    1TYR    SC1  299   1.041   0.212   1.513  0.0329 -0.4679 -0.1401
    1TYR    SC2  300   0.944   0.231   1.764  0.2059 -0.4388 -0.0740
    1TYR    SC3  301   0.828   0.064   1.587  0.0113 -0.3740 -0.0105
    2GLY     BB  302   1.159   0.651   1.134  0.2732 -0.0884  0.1586
    3TYR     BB  303   1.383   0.695   0.954 -0.0910 -0.4990  0.1502
    3TYR    SC1  304   1.428   0.419   0.767  0.1688  0.1492  0.1396
    3TYR    SC2  305   1.401   0.208   0.602  0.0512  0.1884  0.1079
    3TYR    SC3  306   1.377   0.174   0.868 -0.1383  0.1891  0.0928
    1TYR     BB  307   1.901   0.815   4.352 -0.4248  0.0664 -0.0666
    1TYR    SC1  308   1.955   0.582   4.135 -0.0061 -0.0500 -0.1432
    1TYR    SC2  309   1.857   0.357   4.023  0.0001 -0.1590  0.0648
    1TYR    SC3  310   2.124   0.396   4.036 -0.0032 -0.0680 -0.1045
    2GLY     BB  311   1.674   0.993   4.127  0.1687  0.1760 -0.1247
    3TYR     BB  312   1.589   0.975   3.862  0.0644  0.2168 -0.2421
    3TYR    SC1  313   1.364   0.842   3.763  0.0368 -0.0831 -0.0900
    3TYR    SC2  314   1.105   0.915   3.734 -0.0166 -0.2913 -0.1611
    3TYR    SC3  315   1.239   0.806   3.527  0.2084  0.0459 -0.2028
    1TYR     BB  316   2.389   3.037   1.631  0.0313 -0.1452 -0.4541
    1TYR    SC1  317   2.673   2.902   1.725  0.1379 -0.1507 -0.1894
    1TYR    SC2  318   2.735   2.646   1.783  0.5152 -0.0972 -0.3131
    1TYR    SC3  319   2.886   2.847   1.882  0.0320  0.1112  0.0569
    2GLY     BB  320   2.141   3.113   1.795  0.1156  0.2498  0.0095
    3TYR     BB  321   1.949   3.153   1.940 -0.0056 -0.1141 -0.1954
    3TYR    SC1  322   1.921   2.901   2.138  0.0828 -0.0889 -0.2677
    3TYR    SC2  323   1.693   2.789   2.230  0.1233 -0.2762 -0.3890
    3TYR    SC3  324   1.927   2.655   2.250  0.2144 -0.1101 -0.3187
    1TYR     BB  325   5.664   3.395   7.183  0.0133  0.0308 -0.1858
    1TYR    SC1  326   5.723   3.371   7.490 -0.0839 -0.1047 -0.0688
    1TYR    SC2  327   5.623   3.183   7.656  0.4278 -0.2076  0.1479
    1TYR    SC3  328   5.848   3.317   7.723  0.2115  0.3252 -0.1126
    2GLY     BB  329   5.804   3.457   6.903  0.0517 -0.0246  0.1147
    3TYR     BB  330   5.820   3.577   6.594  0.2926 -0.0491 -0.1465
    3TYR    SC1  331   5.631   3.765   6.484  0.2515  0.0309 -0.2797
    3TYR    SC2  332   5.560   4.014   6.563 -0.2882 -0.2050  0.0449
    3TYR    SC3  333   5.521   3.937   6.307  0.1833  0.1294 -0.1443
    1TYR     BB  334   1.553   3.509   2.474  0.1581  0.0343  0.2063
    1TYR    SC1  335   1.659   3.637   2.220 -0.0550 -0.0777 -0.0754
    1TYR    SC2  336   1.568   3.733   1.984 -0.0430 -0.0983 -0.0884
    1TYR    SC3  337   1.826   3.655   2.008 -0.1745 -0.6279 -0.2361
    2GLY     BB  338   1.823   3.273   2.464  0.3934  0.2515 -0.2066
    3TYR     BB  339   1.792   3.040   2.604 -0.0466 -0.0690 -0.1899
    3TYR    SC1  340   1.944   2.846   2.795 -0.0461 -0.0927 -0.0047
    3TYR    SC2  341   2.140   2.676   2.719  0.0544 -0.0199  0.0885
    3TYR    SC3  342   2.033   2.657   2.966  0.0398  0.0279  0.0860
    1TYR     BB  343   1.548   1.506   3.084 -0.1006 -0.2717 -0.0993
    1TYR    SC1  344   1.800   1.388   3.054  0.0276 -0.0586 -0.0022
    1TYR    SC2  345   2.009   1.219   3.033  0.2346  0.2305 -0.4581
    1TYR    SC3  346   2.052   1.484   3.056 -0.0875  0.2567  0.0109
    2GLY     BB  347   1.347   1.686   3.160 -0.0405  0.5194  0.3109
    3TYR     BB  348   1.056   1.723   3.043 -0.2663 -0.2168  0.1080
    3TYR    SC1  349   0.832   1.631   2.873  0.1082  0.1327 -0.0116
    3TYR    SC2  350   0.580   1.659   2.781 -0.0198 -0.0233  0.2732
    3TYR    SC3  351   0.781   1.608   2.609 -0.2068 -0.0583  0.0587
    1TYR     BB  352   1.102   0.272   3.447  0.0902 -0.2482  0.0629
    1TYR    SC1  353   1.047   0.410   3.707  0.0608 -0.2367  0.1385
    1TYR    SC2  354   0.911   0.558   3.887 -0.1019 -0.0883 -0.0987
    1TYR    SC3  355   1.013   0.318   3.959  0.1703  0.1300  0.2955
    2GLY     BB  356   1.187   0.358   3.228  0.1536  0.2857  0.0922
    3TYR     BB  357   1.166   0.289   2.908  0.1528 -0.1125  0.1724
    3TYR    SC1  358   1.232   0.139   2.660 -0.2761  0.2982 -0.2910
    3TYR    SC2  359   1.030  -0.023   2.583 -0.2187 -0.1569  0.4025
    3TYR    SC3  360   1.286  -0.103   2.554 -0.1357  0.2105 -0.0298
    1TYR     BB  361   6.605   3.233   6.983 -0.0716  0.0044 -0.2058
    1TYR    SC1  362   6.631   3.042   7.235 -0.0914  0.2720  0.4008
    1TYR    SC2  363   6.645   3.006   7.502  0.2325 -0.2410  0.3319
    1TYR    SC3  364   6.468   2.864   7.356  0.2411 -0.1624  0.2445
    2GLY     BB  365   6.797   3.417   6.762 -0.3676  0.1604  0.3899
    3TYR     BB  366   6.664   3.592   6.502  0.0768  0.0037 -0.1763
    3TYR    SC1  367   6.698   3.902   6.534  0.0587 -0.0309 -0.2057
    3TYR    SC2  368   6.528   4.108   6.492  0.0151  0.0381  0.2462
    3TYR    SC3  369   6.792   4.155   6.523  0.0088  0.0245  0.3224
    1TYR     BB  370   0.696   1.724   1.878  0.3754 -0.2334 -0.4343
    1TYR    SC1  371   0.871   1.496   1.797  0.2805 -0.0272 -0.2270
    1TYR    SC2  372   1.077   1.381   1.665  0.0724 -0.3419 -0.2925
    1TYR    SC3  373   1.003   1.288   1.907  0.1758 -0.0497 -0.1421
    2GLY     BB  374   0.806   2.024   1.824  0.1403 -0.1553 -0.1824
    3TYR     BB  375   0.764   2.273   1.717  0.1379  0.1966  0.4532
    3TYR    SC1  376   0.702   2.496   1.902 -0.0658  0.0831  0.0901
    3TYR    SC2  377   0.799   2.644   2.106 -0.3070 -0.0298  0.2932
    3TYR    SC3  378   0.562   2.707   1.994 -0.2820 -0.1014  0.1987
    1TYR     BB  379   5.951   4.516   6.672  0.1660 -0.0078 -0.0651
    1TYR    SC1  380   5.677   4.425   6.563 -0.2706 -0.0165  0.3195
    1TYR    SC2  381   5.469   4.578   6.638 -0.3169  0.0353  0.0934
    1TYR    SC3  382   5.462   4.447   6.402  0.0052  0.2353 -0.0360
    2GLY     BB  383   6.096   4.410   6.899  0.0523  0.0185 -0.0572
    3TYR     BB  384   6.269   4.191   6.894 -0.2480 -0.2139  0.2966
    3TYR    SC1  385   6.533   4.319   6.997  0.0157  0.1082 -0.4340
    3TYR    SC2  386   6.661   4.457   7.191 -0.2784 -0.1656 -0.0238
    3TYR    SC3  387   6.802   4.303   7.019 -0.0234 -0.0555  0.0807
    1TYR     BB  388   0.079   1.065   0.332  0.0033 -0.0989 -0.0489
    1TYR    SC1  389  -0.068   0.830   0.516 -0.1274 -0.0041  0.2263
    1TYR    SC2  390  -0.031   0.574   0.593 -0.3472 -0.2056 -0.2810
    1TYR    SC3  391  -0.274   0.689   0.619 -0.2056  0.0322  0.1210
    2GLY     BB  392   0.347   0.998   0.305  0.0281 -0.0570  0.1651
    3TYR     BB  393   0.574   1.082   0.367 -0.0106 -0.3437 -0.2815
    3TYR    SC1  394   0.839   1.009   0.214  0.2299  0.1200  0.2260
    3TYR    SC2  395   1.095   1.005   0.127  0.1738 -0.2060  0.0545
    3TYR    SC3  396   0.892   1.021  -0.051  0.0698 -0.0919  0.1809
    1TYR     BB  397   0.285   0.899   0.790  0.2830 -0.0929  0.1525
    1TYR    SC1  398   0.007   1.049   0.928 -0.0892  0.0533 -0.1872
    1TYR    SC2  399  -0.211   1.150   0.805 -0.3697 -0.2357  0.0495
    1TYR    SC3  400  -0.211   1.114   1.073  0.1703  0.2355  0.1388
    2GLY     BB  401   0.495   0.886   0.884  0.2618 -0.0581  0.0991
    3TYR     BB  402   0.687   0.915   1.105 -0.2758  0.0207 -0.1290
    3TYR    SC1  403   0.601   0.783   1.346 -0.0175  0.1816 -0.0327
    3TYR    SC2  404   0.447   0.701   1.552  0.0078 -0.1293 -0.1311
    3TYR    SC3  405   0.686   0.583   1.507 -0.0485 -0.1469 -0.4047
    1TYR     BB  406   0.500   2.486   2.486  0.2901  0.1229  0.1482
    1TYR    SC1  407   0.223   2.535   2.403 -0.1639 -0.1122 -0.0768
    1TYR    SC2  408  -0.009   2.672   2.418 -0.2151 -0.2129  0.0743
    1TYR    SC3  409   0.086   2.593   2.178 -0.2206  0.0235 -0.0087
    2GLY     BB  410   0.452   2.175   2.717  0.0978  0.0373  0.3841
    3TYR     BB  411   0.164   2.068   2.940  0.2366  0.0785  0.1246
    3TYR    SC1  412   0.372   2.012   3.189 -0.0482  0.0173  0.2132
    3TYR    SC2  413   0.565   2.040   3.375  0.3362  0.1471 -0.1831
    3TYR    SC3  414   0.631   1.978   3.120 -0.1837 -0.1731 -0.2590
    1TYR     BB  415   5.072   4.078   7.511 -0.1975  0.4961  0.0021
    1TYR    SC1  416   5.083   3.757   7.513 -0.1934 -0.2934  0.0838
    1TYR    SC2  417   5.209   3.552   7.390  0.0141 -0.1395  0.0332
    1TYR    SC3  418   5.150   3.536   7.653  0.1905 -0.1955  0.0716
    2GLY     BB  419   5.216   4.125   7.791  0.1626 -0.0500  0.2118
    3TYR     BB  420   5.162   4.389   7.906 -0.2305 -0.0499  0.0622
    3TYR    SC1  421   5.309   4.652   7.826  0.2933 -0.2465 -0.1631
    3TYR    SC2  422   5.388   4.853   7.664  0.2638 -0.0200  0.0930
    3TYR    SC3  423   5.409   4.880   7.932 -0.3601 -0.0793  0.1652
    1TYR     BB  424   1.461   1.216   0.836  0.0411 -0.1514 -0.3259
    1TYR    SC1  425   1.256   1.196   1.075 -0.3207  0.0364 -0.1099
    1TYR    SC2  426   1.226   1.105   1.328 -0.1031  0.1265 -0.0486
    1TYR    SC3  427   1.036   1.262   1.217 -0.3054 -0.0933 -0.0235
    2GLY     BB  428   1.512   1.127   0.615 -0.0663  0.0476  0.1056
    3TYR     BB  429   1.407   0.899   0.461 -0.3375 -0.0967 -0.1279
    3TYR    SC1  430   1.519   0.684   0.332 -0.5688  0.2525  0.0580
    3TYR    SC2  431   1.671   0.461   0.345 -0.0318  0.5758 -0.2011
    3TYR    SC3  432   1.474   0.480   0.161 -0.0202  0.3543 -0.2391
    1TYR     BB  433   2.048   2.050   1.359 -0.0651 -0.5593 -0.0958
    1TYR    SC1  434   2.196   2.214   1.114  0.2539  0.3110  0.1613
    1TYR    SC2  435   2.132   2.454   1.009  0.1762  0.2218 -0.0010
    1TYR    SC3  436   2.382   2.357   0.980  0.2006  0.2709  0.0425
    2GLY     BB  437   1.776   1.982   1.250  0.2180 -0.0872 -0.0519
    3TYR     BB  438   1.767   2.008   1.009  0.3001  0.0946  0.0361
    3TYR    SC1  439   1.895   2.085   0.766 -0.3655 -0.2074 -0.1225
    3TYR    SC2  440   1.998   2.297   0.635 -0.2948 -0.0802  0.1297
    3TYR    SC3  441   2.073   2.047   0.567 -0.1770 -0.0123  0.0028
    1TYR     BB  442   3.295   3.275   1.787 -0.0914  0.0077 -0.0491
    1TYR    SC1  443   3.481   3.330   1.564  0.0553 -0.0294 -0.1432
    1TYR    SC2  444   3.481   3.293   1.297  0.1398  0.1029 -0.1623
    1TYR    SC3  445   3.566   3.528   1.401 -0.2280  0.1881 -0.0370
    2GLY     BB  446   3.368   3.046   1.957  0.0571  0.2720 -0.0231
    3TYR     BB  447   3.568   2.990   2.169  0.0956 -0.1714 -0.0527
    3TYR    SC1  448   3.837   3.014   2.016  0.1359  0.0194 -0.1463
    3TYR    SC2  449   4.084   3.090   1.938  0.1253  0.0492 -0.1507
    3TYR    SC3  450   3.890   3.049   1.754  0.0994  0.1232 -0.1404
    1TYR     BB  451   0.317   1.742   2.304 -0.1988  0.0430 -0.0237
    1TYR    SC1  452   0.173   2.007   2.349 -0.0656 -0.0005 -0.2191
    1TYR    SC2  453  -0.019   2.144   2.218 -0.0119  0.1803 -0.1142
    1TYR    SC3  454   0.003   2.166   2.486 -0.1115 -0.1735 -0.0706
    2GLY     BB  455   0.198   1.595   1.972 -0.2552  0.0054 -0.0552
    3TYR     BB  456   0.226   1.388   1.751 -0.0290 -0.2730  0.0981
    3TYR    SC1  457   0.453   1.247   1.657 -0.0557 -0.2487  0.1911
    3TYR    SC2  458   0.669   1.274   1.497 -0.1600  0.4270  0.1270
    3TYR    SC3  459   0.667   1.085   1.690  0.5319  0.4596  0.2005
    1TYR     BB  460   2.393   0.894   3.219  0.1600  0.2350  0.1119
    1TYR    SC1  461   2.505   0.629   3.038  0.1329 -0.1251  0.1279
    1TYR    SC2  462   2.686   0.527   2.866  0.1719 -0.2333  0.2311
    1TYR    SC3  463   2.494   0.369   2.969  0.0074 -0.1158  0.1114
    2GLY     BB  464   2.609   0.943   3.448  0.0229  0.1913 -0.2376
    3TYR     BB  465   2.576   1.033   3.710  0.1127  0.3769  0.2673
    3TYR    SC1  466   2.749   1.015   3.939 -0.2338 -0.4407 -0.0261
    3TYR    SC2  467   2.987   0.928   4.034 -0.2169 -0.1056  0.2654
    3TYR    SC3  468   2.789   0.993   4.206 -0.4099 -0.0749  0.0376
    1TYR     BB  469   1.147   1.787   2.154  0.1375 -0.1966  0.3151
    1TYR    SC1  470   0.967   1.994   2.300  0.0621 -0.0008 -0.0991
    1TYR    SC2  471   0.858   2.241   2.294 -0.2758 -0.1333  0.1374
    1TYR    SC3  472   0.699   2.024   2.314  0.0219 -0.3661  0.0776
    2GLY     BB  473   1.265   1.817   1.894  0.0940 -0.0561  0.0282
    3TYR     BB  474   1.320   2.098   1.819 -0.1460 -0.0250 -0.1849
    3TYR    SC1  475   1.305   2.264   2.089  0.1694  0.0132 -0.2103
    3TYR    SC2  476   1.281   2.507   2.205  0.0889 -0.0013 -0.1961
    3TYR    SC3  477   1.338   2.291   2.356 -0.1418 -0.0417 -0.1621
    1TYR     BB  478   1.765   1.798   1.754  0.3464  0.5548 -0.5307
    1TYR    SC1  479   1.759   1.895   2.052 -0.1494 -0.2499 -0.0712
    1TYR    SC2  480   1.624   1.770   2.249 -0.1011 -0.0894  0.0667
    1TYR    SC3  481   1.784   1.980   2.307 -0.1658  0.0261 -0.1569
    2GLY     BB  482   1.965   1.632   1.611 -0.1187 -0.0941 -0.2489
    3TYR     BB  483   2.174   1.570   1.478  0.0750 -0.1572 -0.3733
    3TYR    SC1  484   2.383   1.429   1.299  0.2244  0.1096 -0.1238
    3TYR    SC2  485   2.574   1.330   1.136  0.2402  0.0664 -0.0796
    3TYR    SC3  486   2.314   1.306   1.069  0.2436 -0.0138 -0.0646
    1TYR     BB  487   1.524   1.870   4.255 -0.2619 -0.0477  0.0662
    1TYR    SC1  488   1.503   2.017   4.530 -0.0173  0.1192 -0.2576
    1TYR    SC2  489   1.421   2.205   4.705  0.0345 -0.2744  0.2172
    1TYR    SC3  490   1.677   2.117   4.711 -0.0062 -0.4107  0.0525
    2GLY     BB  491   1.264   1.774   4.127  0.0211  0.2122 -0.0392
    3TYR     BB  492   1.121   1.815   3.963 -0.0837 -0.2433 -0.0364
    3TYR    SC1  493   1.001   2.110   3.940  0.1208 -0.1176 -0.2835
    3TYR    SC2  494   0.870   2.344   3.969  0.4113  0.0422 -0.2178
    3TYR    SC3  495   0.851   2.207   3.738 -0.2436 -0.1832 -0.0562
    1TYR     BB  496   0.956   0.765   3.022  0.0799  0.0038 -0.0899
    1TYR    SC1  497   0.873   0.711   3.280  0.0675  0.0321 -0.0983
    1TYR    SC2  498   0.716   0.567   3.447  0.1374  0.0510 -0.0156
    1TYR    SC3  499   0.781   0.822   3.508  0.4449 -0.0504  0.1038
    2GLY     BB  500   1.098   0.759   2.813  0.3198 -0.0962  0.2846
    3TYR     BB  501   1.250   0.664   2.592  0.1593  0.0352 -0.2448
    3TYR    SC1  502   1.235   0.451   2.395  0.0083 -0.2237  0.4661
    3TYR    SC2  503   1.188   0.236   2.238 -0.0402  0.0668  0.0643
    3TYR    SC3  504   1.066   0.472   2.185 -0.0203  0.1913  0.5192
    1TYR     BB  505   0.408   0.728   2.963 -0.3360 -0.0316 -0.1052
    1TYR    SC1  506   0.311   0.423   2.835  0.0231  0.1115 -0.3302
    1TYR    SC2  507   0.382   0.183   2.734 -0.2777 -0.0211 -0.2405
    1TYR    SC3  508   0.126   0.230   2.803 -0.1642  0.2170  0.0473
    2GLY     BB  509   0.349   0.790   3.177 -0.1588  0.0328  0.0066
    3TYR     BB  510   0.274   1.042   3.347  0.1801  0.0164  0.1151
    3TYR    SC1  511   0.321   1.325   3.246  0.2039  0.1696  0.1719
    3TYR    SC2  512   0.489   1.536   3.226  0.2270  0.1158 -0.3465
    3TYR    SC3  513   0.229   1.563   3.157  0.0908  0.1100  0.1272
    1TYR     BB  514   1.161   1.901   0.334 -0.1761  0.1067 -0.1435
    1TYR    SC1  515   1.408   2.058   0.391  0.0309 -0.0325 -0.2410
    1TYR    SC2  516   1.520   2.255   0.537 -0.1068 -0.1478  0.0278
    1TYR    SC3  517   1.663   2.133   0.344  0.1890 -0.2025  0.2733
    2GLY     BB  518   0.947   1.831   0.559 -0.1360 -0.0238 -0.0832
    3TYR     BB  519   0.863   1.883   0.744 -0.3403  0.2213 -0.0958
    3TYR    SC1  520   0.830   2.099   0.972  0.1455  0.0554  0.0108
    3TYR    SC2  521   0.792   2.335   1.097  0.1936  0.0875 -0.0344
    3TYR    SC3  522   0.814   2.108   1.241 -0.0888  0.0761 -0.0011
    1TYR     BB  523   2.147   2.883   4.361  0.0739 -0.0826 -0.2836
    1TYR    SC1  524   1.983   3.151   4.441  0.1217 -0.2452  0.1446
    1TYR    SC2  525   1.889   3.370   4.568  0.2587 -0.1654  0.1107
    1TYR    SC3  526   2.024   3.396   4.336 -0.2042 -0.3254 -0.1943
    2GLY     BB  527   1.990   2.784   4.107 -0.2928 -0.0634  0.0297
    3TYR     BB  528   1.718   2.818   3.984 -0.3431 -0.2701 -0.2165
    3TYR    SC1  529   1.474   2.938   3.885 -0.1139  0.1090  0.0953
    3TYR    SC2  530   1.390   3.172   3.778 -0.1254  0.0824  0.0457
    3TYR    SC3  531   1.326   2.938   3.660 -0.2327  0.0461  0.1722
    1TYR     BB  532   6.069   4.457   7.367  0.0859  0.1086  0.2118
    1TYR    SC1  533   6.283   4.707   7.287  0.2343  0.1013 -0.5012
    1TYR    SC2  534   6.202   4.960   7.335  0.1661  0.0847 -0.5272
    1TYR    SC3  535   6.462   4.909   7.282  0.2633  0.0954 -0.1048
    2GLY     BB  536   6.134   4.237   7.386 -0.0748  0.0999 -0.4045
    3TYR     BB  537   6.419   4.031   7.409 -0.0148  0.1703 -0.3758
    3TYR    SC1  538   6.631   4.080   7.660  0.2677  0.1342 -0.3577
    3TYR    SC2  539   6.773   3.952   7.851 -0.1486 -0.3042 -0.3188
    3TYR    SC3  540   6.759   4.221   7.851  0.1138 -0.2807  0.0777
    1TYR     BB  541   3.664   1.644   3.003 -0.0493  0.3079  0.1785
    1TYR    SC1  542   3.719   1.886   3.204  0.1714 -0.0846 -0.0445
    1TYR    SC2  543   3.961   1.935   3.313  0.1735 -0.1951  0.0011
    1TYR    SC3  544   3.749   2.089   3.379  0.2269 -0.1108 -0.0236
    2GLY     BB  545   3.500   1.648   2.737  0.1734  0.1312  0.0849
    3TYR     BB  546   3.343   1.775   2.546 -0.0132 -0.2619 -0.4051
    3TYR    SC1  547   3.232   2.054   2.532  0.1819 -0.1905 -0.0809
    3TYR    SC2  548   3.096   2.219   2.366  0.0098 -0.4724 -0.2312
    3TYR    SC3  549   3.234   2.320   2.575 -0.1919 -0.1528 -0.2453
    1TYR     BB  550   0.438   1.825   1.475 -0.0616  0.1826  0.1795
    1TYR    SC1  551   0.671   1.718   1.378  0.0854  0.3471 -0.0611
    1TYR    SC2  552   0.938   1.725   1.417  0.0853 -0.2516  0.1819
    1TYR    SC3  553   0.839   1.672   1.172  0.1846 -0.0614  0.0982
    2GLY     BB  554   0.374   2.088   1.384  0.1163 -0.1949 -0.3158
    3TYR     BB  555   0.308   2.264   1.164  0.1662  0.0615 -0.4807
    3TYR    SC1  556   0.035   2.211   1.047 -0.1866  0.0482  0.1666
    3TYR    SC2  557  -0.077   2.031   0.880  0.2072 -0.1404  0.0934
    3TYR    SC3  558  -0.232   2.212   1.006 -0.1668 -0.3626 -0.0294
    1TYR     BB  559   2.009   1.920   3.954  0.4803 -0.4776  0.0555
    1TYR    SC1  560   1.886   1.659   3.980  0.0505  0.1158 -0.2132
    1TYR    SC2  561   1.911   1.398   3.914 -0.3125  0.0970 -0.3045
    1TYR    SC3  562   1.666   1.506   3.948 -0.1853  0.1887  0.7161
    2GLY     BB  563   1.958   2.121   3.768  0.0502  0.0545 -0.3092
    3TYR     BB  564   1.916   2.361   3.760  0.0494 -0.2648 -0.5459
    3TYR    SC1  565   1.975   2.615   3.615 -0.0014 -0.2362  0.1321
    3TYR    SC2  566   1.992   2.876   3.547 -0.1044 -0.2629 -0.0024
    3TYR    SC3  567   2.144   2.693   3.419  0.1589 -0.2413  0.2662
    1TYR     BB  568   0.752   0.372   1.033  0.1769  0.0950  0.0792
    1TYR    SC1  569   0.443   0.386   1.039 -0.1591 -0.2915 -0.0903
    1TYR    SC2  570   0.200   0.504   1.048 -0.0151  0.0307 -0.2450
    1TYR    SC3  571   0.247   0.305   0.872 -0.1906 -0.1006 -0.1479
    2GLY     BB  572   0.922   0.310   0.868 -0.4823 -0.1739 -0.1493
    3TYR     BB  573   0.750   0.070   0.620  0.1171  0.2018 -0.0988
    3TYR    SC1  574   0.616   0.341   0.532  0.0386  0.3801  0.1727
    3TYR    SC2  575   0.480   0.572   0.497  0.2416  0.4540 -0.2008
    3TYR    SC3  576   0.396   0.346   0.375  0.0494  0.3219  0.1554
    1TYR     BB  577   6.251   3.626   6.812  0.2254  0.3812 -0.0633
    1TYR    SC1  578   6.258   3.341   6.635  0.2216 -0.1057 -0.2218
    1TYR    SC2  579   6.060   3.178   6.552  0.1266 -0.1051 -0.0055
    1TYR    SC3  580   6.264   3.238   6.386  0.0331 -0.2400 -0.1737
    2GLY     BB  581   6.404   3.718   6.970 -0.1116  0.0837  0.2013
    3TYR     BB  582   6.704   3.812   7.028 -0.0085  0.0982  0.1449
    3TYR    SC1  583   6.890   3.864   7.248  0.1106  0.1593 -0.1266
    3TYR    SC2  584   6.991   4.059   7.405  0.1491  0.1016 -0.0791
    3TYR    SC3  585   6.953   3.812   7.505  0.1427  0.0728 -0.1515
    1TYR     BB  586   2.203   0.985   4.012  0.3228  0.1721  0.0746
    1TYR    SC1  587   2.372   0.771   4.078  0.0709 -0.2532  0.0292
    1TYR    SC2  588   2.550   0.601   3.967  0.0249 -0.2489 -0.0522
    1TYR    SC3  589   2.531   0.620   4.236  0.3428 -0.0459 -0.0378
    2GLY     BB  590   2.229   1.186   4.250 -0.2210  0.1195 -0.2099
    3TYR     BB  591   1.982   1.286   4.479 -0.0567  0.1473  0.0911
    3TYR    SC1  592   2.011   1.566   4.478  0.1353 -0.1330 -0.3089
    3TYR    SC2  593   2.016   1.828   4.413 -0.1265 -0.0949 -0.1904
    3TYR    SC3  594   1.937   1.751   4.660 -0.1166 -0.2898 -0.2459
    1TYR     BB  595   3.687   3.288   2.503  0.1795  0.0653 -0.1752
    1TYR    SC1  596   3.941   3.422   2.414  0.1787 -0.0950  0.5316
    1TYR    SC2  597   4.114   3.629   2.432  0.1351  0.0522 -0.2808
    1TYR    SC3  598   4.193   3.397   2.320 -0.0687 -0.0495 -0.2209
    2GLY     BB  599   3.518   3.340   2.720  0.0612 -0.2173 -0.1860
    3TYR     BB  600   3.478   3.552   2.918 -0.1852  0.2404  0.0869
    3TYR    SC1  601   3.624   3.539   3.194  0.2028 -0.1633 -0.2468
    3TYR    SC2  602   3.613   3.569   3.462  0.3020  0.3003 -0.2840
    3TYR    SC3  603   3.791   3.398   3.353  0.0266 -0.1599 -0.0526
    1TYR     BB  604   5.861   4.606   0.598  0.2991  0.3284  0.0193
    1TYR    SC1  605   5.909   4.770   0.357  0.0534  0.0674 -0.0887
    1TYR    SC2  606   5.878   4.755   0.089  0.2641  0.1693 -0.1212
    1TYR    SC3  607   5.926   4.994   0.207 -0.0155  0.1547  0.0321
    2GLY     BB  608   6.222   4.572   0.751  0.0943  0.2971 -0.1114
    3TYR     BB  609   6.463   4.414   0.722  0.0524 -0.1033  0.2878
    3TYR    SC1  610   6.708   4.552   0.563 -0.0756  0.0330 -0.2400
    3TYR    SC2  611   6.868   4.697   0.400  0.2721  0.2783  0.2857
    3TYR    SC3  612   6.969   4.582   0.622 -0.1915 -0.0075  0.3678
    1TYR     BB  613   2.637   2.447   3.421 -0.0045  0.4044  0.2927
    1TYR    SC1  614   2.848   2.671   3.472  0.0386 -0.2584 -0.1094
    1TYR    SC2  615   2.935   2.911   3.559 -0.0947 -0.1876 -0.1685
    1TYR    SC3  616   3.113   2.725   3.479  0.0035 -0.0443 -0.2910
    2GLY     BB  617   2.716   2.185   3.273 -0.1293  0.0115 -0.3014
    3TYR     BB  618   2.873   1.931   3.446 -0.1126  0.0041  0.0798
    3TYR    SC1  619   2.864   1.915   3.757 -0.4588 -0.2297  0.2057
    3TYR    SC2  620   2.997   1.901   3.992  0.0176  0.1427 -0.0187
    3TYR    SC3  621   2.727   1.916   3.990  0.0147  0.4787  0.5241
    1TYR     BB  622   2.721   3.654   2.287 -0.2686 -0.0949  0.0145
    1TYR    SC1  623   2.957   3.772   2.125  0.1446 -0.1339 -0.0989
    1TYR    SC2  624   3.163   3.930   2.048  0.0423  0.0872  0.0693
    1TYR    SC3  625   3.112   3.701   1.915  0.4273  0.0009  0.0562
    2GLY     BB  626   2.627   3.805   2.466  0.1051  0.2521  0.1137
    3TYR     BB  627   2.474   4.098   2.559 -0.0627 -0.3613  0.0872
    3TYR    SC1  628   2.411   4.021   2.833  0.2039  0.4700 -0.0004
    3TYR    SC2  629   2.274   3.958   3.057  0.3019  0.0575 -0.0459
    3TYR    SC3  630   2.488   4.122   3.071  0.0713  0.3600  0.0910
    1TYR     BB  631   3.996   2.509   3.018  0.3126  0.0335  0.1544
    1TYR    SC1  632   4.130   2.442   2.728 -0.1596  0.3818 -0.2286
    1TYR    SC2  633   4.130   2.422   2.459  0.5037  0.2658 -0.2405
    1TYR    SC3  634   4.213   2.214   2.610 -0.0098  0.2702  0.0772
    2GLY     BB  635   3.937   2.758   3.062  0.2400  0.2047 -0.2903
    3TYR     BB  636   3.834   2.989   3.019  0.1951 -0.2078  0.0966
    3TYR    SC1  637   3.918   3.258   2.949 -0.2333 -0.0972 -0.0117
    3TYR    SC2  638   4.162   3.295   2.840 -0.0851 -0.4108  0.1929
    3TYR    SC3  639   4.006   3.508   2.897  0.1576 -0.2013  0.1025
    1TYR     BB  640   6.525   3.505   7.398  0.1573  0.2986 -0.1498
    1TYR    SC1  641   6.725   3.455   7.604  0.1607  0.3284 -0.1860
    1TYR    SC2  642   6.923   3.303   7.706 -0.3033 -0.1898  0.0084
    1TYR    SC3  643   6.830   3.514   7.845 -0.0210 -0.0522 -0.0023
    2GLY     BB  644   6.265   3.404   7.391  0.0136  0.2913  0.4072
    3TYR     BB  645   6.140   3.217   7.136  0.1946 -0.1233 -0.0057
    3TYR    SC1  646   5.998   2.973   7.275  0.1490 -0.0809  0.1827
    3TYR    SC2  647   5.980   2.802   7.483  0.0152 -0.3349 -0.0307
    3TYR    SC3  648   5.758   2.872   7.346  0.0601  0.0535  0.0807
    1TYR     BB  649   2.923   1.490   2.722  0.0886  0.1006 -0.0536
    1TYR    SC1  650   2.864   1.588   2.491 -0.0332  0.0406  0.0937
    1TYR    SC2  651   2.727   1.584   2.259  0.2234  0.2207 -0.0671
    1TYR    SC3  652   2.891   1.791   2.315  0.1810  0.1700  0.2692
    2GLY     BB  653   2.925   1.619   3.001 -0.0320  0.0455 -0.0097
    3TYR     BB  654   3.190   1.522   3.163  0.1079  0.3092  0.0748
    3TYR    SC1  655   3.274   1.606   3.433  0.1801 -0.1471 -0.1327
    3TYR    SC2  656   3.273   1.656   3.698  0.0796 -0.2756 -0.1077
    3TYR    SC3  657   3.491   1.717   3.550  0.1052 -0.1266 -0.0117
    1TYR     BB  658   2.776   3.318   1.950 -0.1722 -0.2914 -0.4471
    1TYR    SC1  659   2.584   3.155   2.110  0.0633  0.2671  0.1400
    1TYR    SC2  660   2.361   3.063   2.232 -0.1508  0.5860  0.0047
    1TYR    SC3  661   2.599   2.946   2.281 -0.3842  0.0426 -0.0716
    2GLY     BB  662   3.013   3.292   2.196  0.0806 -0.0495 -0.2889
    3TYR     BB  663   3.256   3.372   2.302  0.0123 -0.0305 -0.2399
    3TYR    SC1  664   3.511   3.548   2.136  0.0408 -0.3355  0.0529
    3TYR    SC2  665   3.635   3.681   1.937 -0.2341 -0.3577 -0.1403
    3TYR    SC3  666   3.734   3.446   2.025  0.1252 -0.1478  0.0454
    1TYR     BB  667   1.271   1.664   0.917  0.1540 -0.1686 -0.0379
    1TYR    SC1  668   1.201   1.899   1.110 -0.2279 -0.0046 -0.0688
    1TYR    SC2  669   1.275   2.156   1.141 -0.2059 -0.0191  0.0015
    1TYR    SC3  670   1.310   1.980   1.343 -0.2953 -0.0593 -0.0175
    2GLY     BB  671   1.461   1.726   0.710  0.0493  0.1290  0.1460
    3TYR     BB  672   1.674   1.662   0.500 -0.3096 -0.1985 -0.0257
    3TYR    SC1  673   1.515   1.527   0.281 -0.1386 -0.1356 -0.0112
    3TYR    SC2  674   1.445   1.591   0.029 -0.0274 -0.0005 -0.0096
    3TYR    SC3  675   1.413   1.338   0.118  0.3637 -0.1688 -0.3121
    1TYR     BB  676   2.361   3.633   1.909  0.0863  0.0679 -0.0995
    1TYR    SC1  677   2.253   3.547   2.196  0.1031 -0.0325 -0.2726
    1TYR    SC2  678   2.282   3.461   2.450  0.0309 -0.1602 -0.3058
    1TYR    SC3  679   2.128   3.677   2.397 -0.0328 -0.1917 -0.2511
    2GLY     BB  680   2.294   3.596   1.632  0.0413  0.3391  0.0355
    3TYR     BB  681   2.024   3.587   1.493  0.1207  0.0129 -0.0753
    3TYR    SC1  682   1.778   3.430   1.591  0.2643 -0.2299  0.0201
    3TYR    SC2  683   1.523   3.488   1.660  0.3426  0.0967  0.0573
    3TYR    SC3  684   1.596   3.232   1.613 -0.0078  0.0063 -0.0282
    1TYR     BB  685   2.137   0.201   2.639  0.0227  0.0315  0.3319
    1TYR    SC1  686   2.259  -0.034   2.790 -0.0950 -0.0743  0.1576
    1TYR    SC2  687   2.512  -0.109   2.847 -0.0468 -0.1565 -0.1430
    1TYR    SC3  688   2.331  -0.293   2.768 -0.1678 -0.0783 -0.0535
    2GLY     BB  689   2.152   0.311   2.336 -0.3046  0.1312 -0.1009
    3TYR     BB  690   2.348   0.159   2.112  0.0433 -0.0711  0.3063
    3TYR    SC1  691   2.162   0.104   1.879  0.2666 -0.0044 -0.0201
    3TYR    SC2  692   2.181  -0.015   1.637 -0.0826 -0.0598 -0.0268
    3TYR    SC3  693   1.964   0.134   1.698  0.0981  0.1285  0.1802
    1TYR     BB  694   1.202   2.804   1.854  0.0383  0.0122  0.3098
    1TYR    SC1  695   1.335   3.010   1.993  0.1679 -0.0993 -0.0376
    1TYR    SC2  696   1.358   3.063   2.257 -0.2320  0.2023 -0.0521
    1TYR    SC3  697   1.465   3.232   2.076 -0.1769  0.1312 -0.0863
    2GLY     BB  698   1.174   2.570   1.707  0.0738  0.1441 -0.0013
    3TYR     BB  699   1.137   2.473   1.460  0.0674 -0.1748 -0.3648
    3TYR    SC1  700   1.127   2.621   1.189 -0.0345  0.1654  0.1294
    3TYR    SC2  701   1.222   2.707   0.952 -0.0802  0.2480  0.1405
    3TYR    SC3  702   0.962   2.746   1.016 -0.1555 -0.0812  0.0607
    1TYR     BB  703   0.764   2.845   1.493  0.1546 -0.1492  0.1562
    1TYR    SC1  704   1.026   2.985   1.424  0.1190 -0.1938 -0.1020
    1TYR    SC2  705   1.215   3.046   1.241  0.1611 -0.1016 -0.0289
    1TYR    SC3  706   1.201   3.185   1.471 -0.0284 -0.0736 -0.0556
    2GLY     BB  707   0.616   2.661   1.433 -0.1889 -0.1519 -0.0227
    3TYR     BB  708   0.291   2.544   1.593  0.2015 -0.2436 -0.0487
    3TYR    SC1  709   0.264   2.323   1.830  0.0808 -0.1126 -0.2517
    3TYR    SC2  710   0.397   2.251   2.054  0.1449  0.0501 -0.2355
    3TYR    SC3  711   0.265   2.065   1.909 -0.0898 -0.0233  0.0614
    1TYR     BB  712   0.779   0.409   2.630  0.0488 -0.2460  0.2480
    1TYR    SC1  713   0.727   0.191   2.431  0.3460 -0.2666  0.4189
    1TYR    SC2  714   0.785   0.041   2.214 -0.2120  0.2851 -0.1661
    1TYR    SC3  715   0.564  -0.012   2.360  0.1608 -0.0833  0.3046
    2GLY     BB  716   0.651   0.671   2.516 -0.0956  0.2345  0.0151
    3TYR     BB  717   0.373   0.769   2.446  0.0821  0.1113  0.1697
    3TYR    SC1  718   0.182   0.563   2.384  0.1782 -0.1899  0.1859
    3TYR    SC2  719   0.162   0.294   2.367 -0.2963 -0.1512 -0.0625
    3TYR    SC3  720  -0.004   0.452   2.223 -0.0167  0.2811  0.0653
    1TYR     BB  721   2.946   3.512   3.443  0.0266 -0.0757  0.0268
    1TYR    SC1  722   2.682   3.620   3.542 -0.3189  0.1639 -0.0090
    1TYR    SC2  723   2.513   3.794   3.422 -0.5065 -0.1546 -0.2253
    1TYR    SC3  724   2.430   3.649   3.635 -0.3752 -0.0377 -0.0918
    2GLY     BB  725   3.107   3.628   3.306  0.2468 -0.0110  0.1364
    3TYR     BB  726   3.235   3.918   3.220 -0.1090  0.0978  0.1219
    3TYR    SC1  727   3.323   4.107   3.018 -0.1383 -0.2094  0.0407
    3TYR    SC2  728   3.260   4.264   2.807  0.0166 -0.1663  0.0247
    3TYR    SC3  729   3.511   4.166   2.832  0.1079  0.1335  0.3785
    1TYR     BB  730   1.636   2.732   3.220 -0.1235  0.1339  0.0107
    1TYR    SC1  731   1.354   2.683   3.218  0.1186 -0.0939  0.3307
    1TYR    SC2  732   1.156   2.624   3.044  0.3477 -0.0471  0.0431
    1TYR    SC3  733   1.105   2.776   3.261  0.1769  0.4824 -0.3407
    2GLY     BB  734   1.683   3.018   3.216 -0.4408 -0.0525  0.1033
    3TYR     BB  735   1.623   3.211   3.339  0.1260 -0.1323  0.1405
    3TYR    SC1  736   1.818   3.466   3.371 -0.0628 -0.2444 -0.1287
    3TYR    SC2  737   2.025   3.615   3.461 -0.1841 -0.2675  0.2038
    3TYR    SC3  738   1.832   3.729   3.311 -0.0677 -0.1861  0.1141
    1TYR     BB  739   3.283   2.190   3.606 -0.1425  0.2920 -0.0251
    1TYR    SC1  740   3.107   2.404   3.787 -0.0973  0.2263 -0.3150
    1TYR    SC2  741   2.869   2.425   3.914  0.1343 -0.3150  0.2810
    1TYR    SC3  742   3.083   2.564   4.004  0.1730 -0.2485  0.0921
    2GLY     BB  743   3.235   2.211   3.317  0.0042  0.0180 -0.0121
    3TYR     BB  744   3.263   2.066   3.060 -0.0215  0.0760  0.3398
    3TYR    SC1  745   3.515   2.131   2.905  0.0505 -0.0227  0.3027
    3TYR    SC2  746   3.778   2.115   2.849 -0.0496 -0.1734 -0.1824
    3TYR    SC3  747   3.630   2.316   2.746 -0.1470 -0.1456  0.0060
    1TYR     BB  748   2.063   2.256   3.289 -0.1777  0.1849  0.0783
    1TYR    SC1  749   2.263   2.324   3.032  0.0733 -0.2371  0.0745
    1TYR    SC2  750   2.473   2.446   2.915  0.0888 -0.4571 -0.1371
    1TYR    SC3  751   2.317   2.279   2.771 -0.1600 -0.3917  0.0487
    2GLY     BB  752   1.782   2.276   3.287 -0.1803 -0.2012  0.2956
    3TYR     BB  753   1.544   2.248   3.165 -0.0422 -0.1268 -0.2423
    3TYR    SC1  754   1.268   2.182   3.245 -0.2065  0.2100 -0.0567
    3TYR    SC2  755   1.077   2.099   3.416 -0.0363  0.2636  0.1652
    3TYR    SC3  756   1.007   2.210   3.180 -0.2722 -0.0054  0.1006
    1TYR     BB  757   5.978   3.776   7.255  0.1139  0.1287 -0.0161
    1TYR    SC1  758   5.772   3.819   7.464  0.0640  0.0177  0.2397
    1TYR    SC2  759   5.504   3.840   7.489  0.0228 -0.2561  0.0813
    1TYR    SC3  760   5.659   3.821   7.709 -0.0942 -0.1776  0.1720
    2GLY     BB  761   5.855   3.958   7.028 -0.0128 -0.0431  0.1448
    3TYR     BB  762   5.684   4.156   7.064 -0.2268 -0.1111 -0.0830
    3TYR    SC1  763   5.425   4.207   6.982 -0.0704 -0.3441  0.0232
    3TYR    SC2  764   5.167   4.229   7.059 -0.0027 -0.1112  0.1967
    3TYR    SC3  765   5.226   4.187   6.799 -0.2144 -0.2041  0.1603
    1TYR     BB  766   7.610   1.132   2.815 -0.0352  0.0700  0.0115
    1TYR    SC1  767   7.579   0.840   2.669 -0.0999  0.0160  0.1500
    1TYR    SC2  768   7.416   0.658   2.554  0.1468 -0.1924  0.1191
    1TYR    SC3  769   7.521   0.611   2.799 -0.0951  0.0905  0.2858
    2GLY     BB  770   7.712   1.420   2.727  0.1430 -0.0428 -0.0873
    3TYR     BB  771   7.632   1.637   2.718 -0.0099 -0.0685 -0.3290
    3TYR    SC1  772   7.425   1.756   2.511 -0.2039 -0.1500  0.1427
    3TYR    SC2  773   7.201   1.806   2.369  0.0594 -0.1527 -0.2973
    3TYR    SC3  774   7.434   1.758   2.241  0.3640  0.0594  0.1461
    1TYR     BB  775   0.319   1.385   1.152  0.0463 -0.1595 -0.1393
    1TYR    SC1  776   0.247   1.094   1.312  0.0009  0.0469  0.1163
    1TYR    SC2  777   0.135   0.849   1.292 -0.1710  0.1410 -0.1214
    1TYR    SC3  778   0.021   1.037   1.448 -0.1579  0.1342 -0.1037
    2GLY     BB  779   0.559   1.378   0.950 -0.0012 -0.1881  0.0000
    3TYR     BB  780   0.591   1.392   0.714  0.0054 -0.2374 -0.0559
    3TYR    SC1  781   0.530   1.606   0.461 -0.5177  0.0794  0.3187
    3TYR    SC2  782   0.356   1.531   0.268 -0.1578  0.0088  0.0049
    3TYR    SC3  783   0.415   1.793   0.303  0.0391 -0.0002 -0.2306
    1TYR     BB  784   2.245   1.995   1.812 -0.1691  0.0444  0.0338
    1TYR    SC1  785   2.200   2.076   2.132 -0.2483 -0.0638  0.0238
    1TYR    SC2  786   2.114   2.237   2.331 -0.0214 -0.0166  0.0871
    1TYR    SC3  787   2.240   2.005   2.390 -0.1180 -0.0934 -0.0036
    2GLY     BB  788   2.493   1.802   1.826 -0.0807  0.0285 -0.1020
    3TYR     BB  789   2.587   1.516   1.753 -0.0201  0.4113 -0.0466
    3TYR    SC1  790   2.785   1.413   1.565 -0.1273  0.0542  0.0336
    3TYR    SC2  791   2.972   1.463   1.377  0.0834 -0.1734  0.1750
    3TYR    SC3  792   2.895   1.209   1.426 -0.3336 -0.0788  0.0597
    1TYR     BB  793   1.053   1.326   0.536  0.0663  0.0804 -0.1398
    1TYR    SC1  794   0.971   1.433   0.247 -0.0977 -0.1523 -0.1276
    1TYR    SC2  795   0.755   1.465   0.088 -0.3791  0.2385  0.3011
    1TYR    SC3  796   0.997   1.554   0.008 -0.3863 -0.0939 -0.1343
    2GLY     BB  797   0.995   1.075   0.660  0.1802 -0.2169 -0.2599
    3TYR     BB  798   0.950   0.795   0.683  0.0635  0.0926  0.0214
    3TYR    SC1  799   0.928   0.618   0.442  0.1226  0.2569 -0.1712
    3TYR    SC2  800   1.023   0.576   0.193 -0.1496 -0.2476 -0.2077
    3TYR    SC3  801   1.043   0.382   0.380 -0.1034  0.0598  0.1216
    1TYR     BB  802   5.625   4.197   0.410 -0.1376 -0.2968  0.0619
    1TYR    SC1  803   5.796   4.120   0.624 -0.0653 -0.1910  0.2403
    1TYR    SC2  804   5.819   3.991   0.861 -0.0019 -0.2247  0.2161
    1TYR    SC3  805   6.037   4.099   0.744 -0.0523 -0.1070  0.2293
    2GLY     BB  806   5.667   4.329   0.130 -0.0192  0.0971 -0.1774
    3TYR     BB  807   5.554   4.342  -0.101  0.0696 -0.1539 -0.1175
    3TYR    SC1  808   5.616   4.621  -0.275 -0.0774  0.1482  0.0323
    3TYR    SC2  809   5.660   4.650  -0.539  0.2107 -0.2634  0.0227
    3TYR    SC3  810   5.686   4.862  -0.375  0.1815 -0.0362 -0.2551
    1TYR     BB  811   5.376   3.342   6.661 -0.2836 -0.3197 -0.2063
    1TYR    SC1  812   5.317   3.559   6.829 -0.1994 -0.0154  0.0841
    1TYR    SC2  813   5.397   3.732   7.021  0.0187 -0.0515  0.0286
    1TYR    SC3  814   5.149   3.752   6.916 -0.0815  0.0070  0.2687
    2GLY     BB  815   5.542   3.055   6.842  0.1566  0.1301 -0.0482
    3TYR     BB  816   5.708   2.929   6.752  0.0546  0.1999 -0.1007
    3TYR    SC1  817   5.809   2.622   6.854  0.0634  0.1437  0.1041
    3TYR    SC2  818   5.902   2.457   7.047  0.1472 -0.0239 -0.0749
    3TYR    SC3  819   5.979   2.421   6.791 -0.0517  0.1242 -0.1588
    1TYR     BB  820   2.458   1.873   3.047 -0.1609 -0.0414 -0.0446
    1TYR    SC1  821   2.623   1.967   2.838 -0.1251 -0.0445  0.1716
    1TYR    SC2  822   2.692   2.053   2.591 -0.1226 -0.3849  0.0474
    1TYR    SC3  823   2.856   2.098   2.800 -0.0306 -0.2648 -0.0490
    2GLY     BB  824   2.363   1.783   3.321  0.3945  0.1767 -0.1077
    3TYR     BB  825   2.377   1.969   3.580 -0.1491 -0.1162  0.1618
    3TYR    SC1  826   2.386   1.695   3.789  0.0454 -0.1549 -0.0485
    3TYR    SC2  827   2.401   1.426   3.792 -0.0337 -0.1590  0.0490
    3TYR    SC3  828   2.336   1.560   4.017  0.0588 -0.0545  0.0148
    1TYR     BB  829   1.784   1.514   1.064 -0.0297  0.1848 -0.0919
    1TYR    SC1  830   1.606   1.505   1.292  0.0732  0.0777 -0.2542
    1TYR    SC2  831   1.542   1.362   1.512 -0.0028  0.1942 -0.1995
    1TYR    SC3  832   1.383   1.565   1.432  0.2349  0.4152 -0.1285
    2GLY     BB  833   1.925   1.397   0.800  0.1542 -0.0762 -0.3352
    3TYR     BB  834   2.026   1.172   0.713 -0.1068  0.1930  0.1168
    3TYR    SC1  835   1.936   1.134   0.404  0.0096 -0.0547 -0.1374
    3TYR    SC2  836   1.900   1.118   0.137 -0.3271 -0.0337 -0.0990
    3TYR    SC3  837   1.994   0.905   0.273 -0.1860 -0.0557 -0.2262
    1TYR     BB  838   2.679   2.249   2.057 -0.0501 -0.0693  0.2980
    1TYR    SC1  839   2.678   2.456   2.257  0.2766  0.0242  0.2739
    1TYR    SC2  840   2.710   2.448   2.525 -0.5376 -0.8307  0.4120
    1TYR    SC3  841   2.479   2.537   2.419 -0.0091  0.1274 -0.1103
    2GLY     BB  842   2.878   2.099   1.887 -0.3082  0.1691  0.0378
    3TYR     BB  843   2.972   1.924   1.769 -0.0968  0.1845 -0.0921
    3TYR    SC1  844   3.141   1.851   1.537  0.0721  0.0121 -0.0742
    3TYR    SC2  845   3.392   1.882   1.443  0.0880  0.0834 -0.0087
    3TYR    SC3  846   3.186   1.861   1.271  0.1069  0.2982 -0.0618
    1TYR     BB  847   2.505   1.181   2.128 -0.2132  0.0162  0.0055
    1TYR    SC1  848   2.570   0.894   2.127 -0.2146 -0.0215 -0.0596
    1TYR    SC2  849   2.685   0.670   2.031 -0.2363  0.0520 -0.2631
    1TYR    SC3  850   2.523   0.656   2.246  0.1905 -0.0455  0.0707
    2GLY     BB  851   2.222   1.324   2.012 -0.0225  0.1374  0.1132
    3TYR     BB  852   2.182   1.581   2.122 -0.2022  0.2658 -0.1544
    3TYR    SC1  853   1.998   1.512   2.389 -0.2114 -0.2711 -0.3724
    3TYR    SC2  854   1.803   1.485   2.574 -0.1702 -0.0375 -0.2908
    3TYR    SC3  855   1.903   1.267   2.450  0.1064 -0.2598  0.2753
    1TYR     BB  856   2.773   1.464   3.499  0.0740 -0.2199 -0.0733
    1TYR    SC1  857   2.833   1.440   3.787  0.1981  0.7607 -0.1758
    1TYR    SC2  858   3.015   1.379   3.977  0.0336  0.3004 -0.1508
    1TYR    SC3  859   2.776   1.482   4.048 -0.0460  0.0845 -0.0955
    2GLY     BB  860   2.617   1.363   3.298  0.0403 -0.0481  0.0542
    3TYR     BB  861   2.512   1.319   3.039 -0.0003  0.2592 -0.0658
    3TYR    SC1  862   2.409   1.409   2.806 -0.1614 -0.2037 -0.3660
    3TYR    SC2  863   2.365   1.365   2.543 -0.2901  0.0969 -0.4003
    3TYR    SC3  864   2.403   1.617   2.633  0.1637 -0.0341 -0.1853
    1TYR     BB  865   1.637   0.520   3.513 -0.0575  0.2047 -0.1820
    1TYR    SC1  866   1.498   0.408   3.753 -0.3446  0.1543  0.0864
    1TYR    SC2  867   1.429   0.464   4.008 -0.2126 -0.0500  0.1699
    1TYR    SC3  868   1.455   0.207   3.928 -0.1560  0.0140 -0.0238
    2GLY     BB  869   1.846   0.660   3.615  0.0247 -0.0193  0.0547
    3TYR     BB  870   2.082   0.729   3.585  0.1496  0.0383  0.1033
    3TYR    SC1  871   2.348   0.539   3.564  0.2091  0.2378 -0.0366
    3TYR    SC2  872   2.447   0.308   3.661 -0.0404 -0.0633 -0.4548
    3TYR    SC3  873   2.503   0.383   3.408  0.0610  0.3607 -0.3167
    1TYR     BB  874   1.510   1.961   3.679 -0.1218 -0.0609  0.0076
    1TYR    SC1  875   1.418   2.258   3.676  0.1195 -0.1302  0.3103
    1TYR    SC2  876   1.492   2.517   3.663 -0.0344 -0.0936  0.0605
    1TYR    SC3  877   1.235   2.448   3.618 -0.0843 -0.2550  0.5195
    2GLY     BB  878   1.692   1.861   3.474  0.0582  0.2395  0.2660
    3TYR     BB  879   1.920   1.754   3.464  0.1973  0.1236  0.1185
    3TYR    SC1  880   1.974   1.463   3.479  0.2001 -0.1720 -0.0893
    3TYR    SC2  881   1.873   1.221   3.543  0.1672 -0.1182  0.0671
    3TYR    SC3  882   2.132   1.244   3.467  0.2366 -0.1729  0.2792
    1TYR     BB  883   0.409   1.893   0.882  0.0020  0.5313  0.0870
    1TYR    SC1  884   0.213   1.693   0.746 -0.0966  0.2581  0.3471
    1TYR    SC2  885   0.114   1.462   0.648 -0.0228  0.3389  0.0715
    1TYR    SC3  886  -0.051   1.641   0.766 -0.1755  0.3785 -0.1910
    2GLY     BB  887   0.444   2.119   0.674  0.1687 -0.2213 -0.1635
    3TYR     BB  888   0.654   2.286   0.452  0.2765  0.0052 -0.1371
    3TYR    SC1  889   0.914   2.347   0.589 -0.1278 -0.0280  0.3241
    3TYR    SC2  890   1.125   2.349   0.758  0.0152  0.2953  0.1535
    3TYR    SC3  891   1.141   2.476   0.520 -0.2688  0.0596 -0.0006
    1TYR     BB  892   1.944   1.135   1.628 -0.0071 -0.0625 -0.0402
    1TYR    SC1  893   1.689   0.977   1.683  0.0554 -0.0887 -0.2400
    1TYR    SC2  894   1.421   0.988   1.714  0.0774 -0.1806  0.0148
    1TYR    SC3  895   1.530   0.807   1.546 -0.0316  0.0775 -0.3494
    2GLY     BB  896   1.999   1.094   1.367 -0.0953 -0.2574 -0.3604
    3TYR     BB  897   1.768   0.998   1.167  0.1153 -0.0160  0.1776
    3TYR    SC1  898   1.903   0.797   0.949 -0.3449  0.0538 -0.1212
    3TYR    SC2  899   2.075   0.686   0.773 -0.2018 -0.1183  0.1190
    3TYR    SC3  900   1.810   0.687   0.720 -0.1633 -0.1790 -0.0875
    4W        W  901   2.531   3.603   6.004 -0.1398 -0.3307  0.0012
    5W        W  902   7.513   1.751   4.755 -0.2220  0.3719 -0.0438
    6W        W  903   0.069   2.571   7.253  0.0708  0.3963  0.1308
    7W        W  904   2.746   4.212   7.062 -0.1136 -0.5648  0.1916
    8W        W  905   4.279   3.074   6.532 -0.2919 -0.2006 -0.1109
    9W        W  906   0.405   7.024   0.982 -0.2930 -0.0179  0.0044
   10W        W  907   1.187   6.022   5.356  0.0149  0.0645 -0.1608
   11W        W  908   6.615   7.121   0.781  0.4055 -0.1841 -0.1891
   12W        W  909   4.107   6.051   1.167  0.1009  0.0207 -0.0867
   13W        W  910   2.591   4.634   7.321  0.0721 -0.2880  0.1010
   14W        W  911   1.706   5.006   4.732 -0.0283  0.1932 -0.0649
   15W        W  912   6.473   6.120   1.407  0.2868  0.1511 -0.0475
   16W        W  913   3.572   1.183   3.797  0.1860  0.3106 -0.1820
   17W        W  914   7.273   4.784   1.024  0.3194  0.1394 -0.1100
   18W        W  915   3.611   6.372   1.126  0.0516  0.1311  0.0189
   19W        W  916   5.620   2.322   1.311 -0.2334 -0.1937  0.0148
   20W        W  917   2.215   6.134   7.087 -0.1359 -0.0531  0.2269
   21W        W  918   1.771   2.596   0.230  0.0689  0.1556 -0.0038
   22W        W  919   6.197   5.209   4.123 -0.0669  0.0235  0.0921
   23W        W  920   3.862   6.418   0.346  0.1272  0.0227 -0.2988
   24W        W  921   3.113   7.415   3.370 -0.2255  0.1064  0.0008
   25W        W  922   7.529   3.021   5.519 -0.2347 -0.3395 -0.1050
   26W        W  923   3.196   2.937   7.261 -0.1959 -0.0026  0.1307
   27W        W  924   2.679   0.332   1.741  0.2245 -0.0430  0.4255
   28W        W  925   4.308   6.046   5.943 -0.1436  0.0690  0.1869
   29W        W  926   0.601   4.873   3.838 -0.1505  0.5734  0.2297
   30W        W  927   6.155   6.836   1.426 -0.0760  0.0002  0.1486
   31W        W  928   4.882   0.794   6.622 -0.0914 -0.1830  0.1451
   32W        W  929   7.240   5.511   7.594 -0.1617  0.1416  0.0825
   33W        W  930   2.626   4.123   5.345 -0.0998 -0.1406 -0.0337
   34W        W  931   3.205   1.515   5.187 -0.0997 -0.0324  0.1174
   35W        W  932   0.073   0.366   3.299 -0.0339 -0.0949 -0.0293
   36W        W  933   7.573   0.105   0.365 -0.1015 -0.2004  0.2272
   37W        W  934   6.281   1.381   2.779  0.3079  0.3057 -0.1240
   38W        W  935   4.414   4.736   6.234 -0.2347  0.0391  0.1556
   39W        W  936   2.939   3.911   7.346  0.0964 -0.1278 -0.1724
   40W        W  937   4.947   4.552   6.081 -0.2398  0.0214 -0.1962
   41W        W  938   4.669   2.371   3.721 -0.1402 -0.0613 -0.3470
   42W        W  939   5.705   0.773   5.998  0.0589 -0.0241  0.0116
   43W        W  940   1.762   5.364   7.182 -0.1677  0.0387  0.0677
   44W        W  941   3.459   4.906   0.606  0.0455  0.1482  0.3073
   45W        W  942   3.439   3.934   7.410  0.0613 -0.1795  0.0183
   46W        W  943   6.231   4.997   5.106 -0.1334 -0.1242  0.0023
   47W        W  944   6.534   7.086   4.514 -0.1675  0.1939  0.0713
   48W        W  945   6.706   7.117   5.299  0.2090  0.0518 -0.1463
   49W        W  946   4.853   1.005   0.469 -0.1044  0.4326  0.3265
   50W        W  947   2.306   3.252   5.717  0.1044 -0.0573 -0.0023
   51W        W  948   1.723   6.422   5.715 -0.1392 -0.0110  0.1163
   52W        W  949   4.394   7.032   1.779 -0.1151 -0.0428  0.2641
   53W        W  950   6.830   4.323   3.680  0.0072  0.0141 -0.2267
   54W        W  951   3.654   6.939   5.214  0.0004 -0.1579  0.0718
   55W        W  952   3.764   4.532   4.845  0.1684 -0.0699 -0.2968
   56W        W  953   3.440   0.866   6.633 -0.1599  0.1443 -0.3822
   57W        W  954   0.671   3.718   0.109 -0.1753 -0.1951  0.1630
   58W        W  955   3.256   4.304   4.841 -0.2646  0.1418  0.1460
   59W        W  956   2.944   7.317   7.327 -0.1137  0.2162  0.1967
   60W        W  957   5.049   4.586   2.026  0.1098 -0.2398 -0.2227
   61W        W  958   6.550   2.929   6.031 -0.1742  0.3362 -0.1625
   62W        W  959   7.410   6.744   3.644 -0.1953  0.1662 -0.0901
   63W        W  960   5.511   0.503   3.453 -0.0647  0.0769 -0.1714
   64W        W  961   5.410   4.385   5.922 -0.1506 -0.0386 -0.1605
   65W        W  962   3.772   6.437   2.858  0.1674 -0.0680  0.0454
   66W        W  963   5.542   7.189   1.792  0.0915  0.1284 -0.1473
   67W        W  964   4.996   3.192   6.930 -0.0817  0.1893 -0.0316
   68W        W  965   6.167   5.499   6.109  0.0009  0.1711  0.0446
   69W        W  966   7.350   3.119   1.453  0.1890 -0.0503 -0.0648
   70W        W  967   3.981   5.154   6.155  0.0255 -0.0323 -0.0455
   71W        W  968   5.731   6.674   1.714  0.2452 -0.1212  0.0654
   72W        W  969   7.473   5.070   4.606 -0.1078 -0.0116 -0.0874
   73W        W  970   3.460   3.599   6.172 -0.1096  0.2770 -0.3698
   74W        W  971   4.428   2.901   5.602  0.0343  0.0839  0.0648
   75W        W  972   1.411   3.180   6.073  0.1075  0.0777 -0.1995
   76W        W  973   7.054   5.733   2.039 -0.2337 -0.0364 -0.2681
   77W        W  974   6.117   2.337   1.118  0.1209 -0.4018  0.4916
   78W        W  975   6.180   2.633   5.389  0.5101  0.0545  0.3774
   79W        W  976   3.174   6.588   5.818  0.2714 -0.1580 -0.2818
   80W        W  977   4.341   0.549   4.851  0.0418  0.1654  0.2811
   81W        W  978   3.107   4.340   7.485 -0.0220 -0.3329  0.2547
   82W        W  979   6.063   6.751   5.555 -0.1005 -0.1273 -0.0663
   83W        W  980   1.071   2.828   7.332 -0.0412 -0.1020  0.0052
   84W        W  981   6.247   4.822   5.820  0.1899 -0.0660 -0.1311
   85W        W  982   6.324   7.102   7.232  0.1542  0.1383 -0.1294
   86W        W  983   7.097   4.284   5.675  0.0507 -0.0072  0.0300
   87W        W  984   6.922   3.434   4.988  0.1022  0.0220  0.1293
   88W        W  985   4.775   1.404   5.244  0.1911 -0.0157  0.0041
   89W        W  986   2.334   3.982   5.757  0.2438  0.1921  0.0853
   90W        W  987   3.142   5.565   5.428  0.2831  0.0377 -0.2125
   91W        W  988   2.004   1.261   6.185  0.0027  0.1503  0.3316
   92W        W  989   2.126   0.403   5.101 -0.2411 -0.0437  0.2823
   93W        W  990   7.028   1.337   3.792  0.1954 -0.1729 -0.1863
   94W        W  991   5.761   2.802   1.591 -0.1998 -0.1431 -0.1085
   95W        W  992   0.860   6.667   2.777  0.0183  0.1181 -0.0875
   96W        W  993   0.938   5.472   7.010 -0.0039  0.2235  0.2528
   97W        W  994   7.115   3.832   1.893  0.1761 -0.4114 -0.1551
   98W        W  995   7.198   3.870   6.786  0.1112 -0.1719 -0.3287
   99W        W  996   1.289   5.114   5.885  0.0113 -0.1083  0.2597
  100W        W  997   4.948   0.401   2.482 -0.0092  0.2033  0.0745
  101W        W  998   3.450   6.101   5.137 -0.1532  0.0320 -0.2383
  102W        W  999   6.708   1.136   7.213 -0.0732  0.2095  0.0685
  103W        W 1000   5.213   0.113   2.992  0.0312 -0.1086  0.0494
  104W        W 1001   7.176   7.104   5.292  0.0217 -0.1520  0.0174
  105W        W 1002   5.763   0.394   4.655 -0.0307  0.0776  0.0678
  106W        W 1003   5.212   0.338   1.990  0.4117 -0.1693 -0.2015
  107W        W 1004   4.486   4.690   2.293  0.3158  0.2945  0.0827
  108W        W 1005   2.866   1.694   0.881 -0.1645  0.2732  0.1027
  109W        W 1006   6.266   2.100   0.230 -0.0908  0.0252 -0.5800
  110W        W 1007   6.245   1.063   3.227 -0.0405  0.1000 -0.0880
  111W        W 1008   4.699   2.249   2.779  0.0156  0.0261  0.0299
  112W        W 1009   2.405   2.239   5.308  0.0744  0.1463  0.0875
  113W        W 1010   6.519   2.085   6.910 -0.0378  0.2681 -0.0466
  114W        W 1011   1.948   5.483   2.050 -0.1556  0.0129 -0.0822
  115W        W 1012   4.540   6.885   7.308  0.1316  0.0361  0.1030
  116W        W 1013   7.592   5.559   1.997  0.1839 -0.2612 -0.0175
  117W        W 1014   4.990   1.279   0.818 -0.4835 -0.0680  0.3128
  118W        W 1015   5.213   2.128   4.788  0.0945 -0.1038  0.1567
  119W        W 1016   0.853   4.925   2.625 -0.1888 -0.4542  0.0599
  120W        W 1017   7.392   5.631   0.932  0.0187  0.3117  0.0612
  121W        W 1018   3.563   6.723   0.749 -0.0652  0.0959  0.0638
  122W        W 1019   0.833   3.161   4.466 -0.4645  0.0906 -0.2557
  123W        W 1020   5.079   5.361   6.431 -0.3077  0.0774 -0.1921
  124W        W 1021   3.470   4.295   2.290  0.0072  0.0276  0.0721
  125W        W 1022   3.544   1.420   5.535  0.0915 -0.2854 -0.2460
  126W        W 1023   0.251   5.384   3.289  0.5939 -0.0305 -0.0454
  127W        W 1024   4.917   3.104   1.388  0.0017  0.0880  0.2384
  128W        W 1025   0.092   5.017   3.701  0.0228 -0.0077  0.2621
  129W        W 1026   2.910   1.485   7.499  0.1053  0.0752 -0.1745
  130W        W 1027   1.201   4.643   7.068  0.0617  0.2897  0.2096
  131W        W 1028   0.725   3.519   5.463  0.1583  0.1243  0.0020
  132W        W 1029   2.106   3.538   4.989 -0.0525 -0.1347  0.0975
  133W        W 1030   0.003   6.060   2.796 -0.0402  0.1510  0.0167
  134W        W 1031   2.393   6.759   6.095 -0.2061  0.0824  0.2118
  135W        W 1032   4.840   6.768   4.802  0.2029  0.0658 -0.0849
  136W        W 1033   0.118   4.786   5.227 -0.0781 -0.0558  0.1391
  137W        W 1034   5.238   0.586   7.388  0.0317 -0.5521  0.1192
  138W        W 1035   4.078   6.061   1.881  0.1281 -0.2819  0.0814
  139W        W 1036   6.710   0.829   4.474  0.3528  0.1314  0.3639
  140W        W 1037   2.951   4.181   2.397 -0.0902  0.1990  0.2350
  141W        W 1038   0.082   6.971   5.294  0.2576 -0.1093 -0.0135
  142W        W 1039   3.477   2.530   0.522  0.2072 -0.1113 -0.1406
  143W        W 1040   3.513   4.899   2.292  0.0904  0.3423 -0.2195
  144W        W 1041   4.867   5.025   4.175  0.0445 -0.0901 -0.2196
  145W        W 1042   0.137   2.509   4.262  0.0935  0.0954 -0.0823
  146W        W 1043   6.424   5.533   0.497 -0.0339  0.0948 -0.1031
  147W        W 1044   2.354   4.586   2.503 -0.0947 -0.0487  0.1656
  148W        W 1045   6.613   2.593   5.026  0.1917  0.1283 -0.0099
  149W        W 1046   3.204   5.826   4.045  0.0505 -0.0711 -0.1399
  150W        W 1047   5.036   2.128   3.909  0.2365  0.1954 -0.0799
  151W        W 1048   4.404   4.258   1.909  0.0624  0.0316 -0.0896
  152W        W 1049   2.513   2.042   6.196 -0.0378 -0.0519 -0.1783
  153W        W 1050   3.017   0.803   0.477 -0.2911  0.2250  0.1657
  154W        W 1051   6.079   6.851   6.746 -0.0179  0.0429  0.1949
  155W        W 1052   5.692   1.327   0.275  0.2432 -0.1239  0.0288
  156W        W 1053   1.490   7.357   1.034 -0.1639 -0.0353  0.1292
  157W        W 1054   3.316   7.043   1.109 -0.2420  0.1264 -0.0573
  158W        W 1055   4.759   1.626   6.922  0.1199 -0.4022 -0.1551
  159W        W 1056   3.747   4.746   3.696 -0.0180 -0.1798 -0.1113
  160W        W 1057   6.080   3.432   4.537  0.0709  0.0239 -0.2884
  161W        W 1058   2.553   0.338   0.771 -0.1653 -0.1831 -0.0334
  162W        W 1059   4.998   6.494   6.709  0.0445 -0.1997  0.1576
  163W        W 1060   1.427   4.297   5.574 -0.0055 -0.1665 -0.0209
  164W        W 1061   7.211   0.155   2.897  0.0790 -0.0830 -0.0534
  165W        W 1062   2.387   3.368   6.905 -0.2296 -0.0876  0.3190
  166W        W 1063   2.300   1.967   4.893 -0.2033 -0.0443 -0.0858
  167W        W 1064   6.532   5.662   5.833  0.0776 -0.0214  0.2780
  168W        W 1065   4.905   2.327   6.601 -0.1103  0.1247  0.0122
  169W        W 1066   1.458   0.904   6.536 -0.1998 -0.1405 -0.1316
  170W        W 1067   6.985   6.116   6.435  0.0197  0.1615  0.2069
  171W        W 1068   3.769   3.595   5.760 -0.0484  0.0898 -0.0165
  172W        W 1069   1.687   0.519   5.121  0.1419  0.2991  0.2095
  173W        W 1070   6.565   0.520   2.727 -0.0846 -0.0199 -0.0190
  174W        W 1071   1.298   5.014   6.678 -0.0070  0.0722 -0.0607
  175W        W 1072   0.076   7.344   6.197 -0.3564 -0.0528 -0.1098
  176W        W 1073   1.841   4.573   3.766  0.0136 -0.0807  0.0189
  177W        W 1074   0.417   3.622   2.979  0.0324 -0.0546 -0.1996
  178W        W 1075   1.787   0.028   0.038 -0.1273 -0.1028  0.0118
  179W        W 1076   7.408   3.236   7.561  0.4264  0.2552  0.3178
  180W        W 1077   2.058   6.871   1.153 -0.2018  0.0056  0.0779
  181W        W 1078   5.354   0.795   2.251  0.1019  0.3575 -0.2921
  182W        W 1079   7.613   5.636   7.321  0.0532 -0.1230  0.1105
  183W        W 1080   5.531   5.338   5.450 -0.1342 -0.0089 -0.2336
  184W        W 1081   5.774   2.243   3.337 -0.3361  0.2213  0.0338
  185W        W 1082   3.217   3.436   7.218 -0.1620 -0.1093 -0.0344
  186W        W 1083   5.357   5.563   1.571 -0.0417 -0.3314 -0.1039
  187W        W 1084   5.829   0.563   2.194 -0.1150 -0.1470  0.0290
  188W        W 1085   5.176   1.501   1.845  0.2166  0.1851 -0.0215
  189W        W 1086   6.606   4.040   2.670 -0.1918 -0.0003  0.3427
  190W        W 1087   3.062   5.765   7.367  0.0857 -0.1838  0.0831
  191W        W 1088   6.926   6.964   6.615  0.4215 -0.1229  0.1058
  192W        W 1089   3.946   1.913   7.215  0.2758  0.1545 -0.1355
  193W        W 1090   6.835   7.158   6.151  0.0994  0.2418 -0.2249
  194W        W 1091   0.140   2.403   3.402  0.1663  0.0649 -0.3092
  195W        W 1092   1.871   3.509   7.288 -0.3262 -0.1652  0.0618
  196W        W 1093   6.483   4.070   1.628 -0.0917  0.2680 -0.2025
  197W        W 1094   5.480   0.728   5.017 -0.0815 -0.1293 -0.1709
  198W        W 1095   4.333   1.557   7.332 -0.1365 -0.1123 -0.2460
  199W        W 1096   4.405   0.755   4.362 -0.1632 -0.0159 -0.1615
  200W        W 1097   3.386   5.115   4.934 -0.1127 -0.1316 -0.0805
  201W        W 1098   1.762   5.293   4.316 -0.1226 -0.0869  0.2470
  202W        W 1099   4.818   1.718   7.508 -0.0330 -0.0448 -0.0838
  203W        W 1100   5.420   0.957   3.131  0.0829  0.0081  0.1490
  204W        W 1101   1.133   7.416   0.638  0.3030 -0.4350 -0.0855
  205W        W 1102   7.027   0.682   2.854 -0.0020 -0.1027 -0.2958
  206W        W 1103   6.681   2.100   4.199 -0.0862  0.0109 -0.0593
  207W        W 1104   3.566   4.936   6.024  0.0353  0.0033 -0.0714
  208W        W 1105   6.501   0.564   5.734  0.1618 -0.1609 -0.1243
  209W        W 1106   3.939   6.573   2.191 -0.3685  0.2211 -0.0634
  210W        W 1107   6.274   4.735   3.878  0.3521 -0.1720 -0.3944
  211W        W 1108   1.059   6.370   1.267  0.1588  0.3719  0.1929
  212W        W 1109   6.890   0.062   1.210 -0.2270 -0.2233 -0.2181
  213W        W 1110   5.115   4.723   4.746  0.0761 -0.0177  0.2829
  214W        W 1111   1.013   3.486   3.878  0.0684 -0.3781 -0.1989
  215W        W 1112   3.771   1.381   0.821  0.0983  0.0584 -0.0146
  216W        W 1113   6.100   3.678   5.325 -0.4176 -0.0892 -0.3125
  217W        W 1114   6.556   3.155   0.851  0.2566 -0.3292  0.1044
  218W        W 1115   1.415   5.397   4.781 -0.2827 -0.1886 -0.1766
  219W        W 1116   4.582   4.294   6.381 -0.2237 -0.0284 -0.1706
  220W        W 1117   1.227   7.228   1.549  0.0478 -0.0184 -0.0525
  221W        W 1118   0.286   6.021   5.226 -0.1319  0.0265 -0.1827
  222W        W 1119   6.090   7.378   0.504  0.0643  0.1045 -0.1022
  223W        W 1120   4.659   4.664   0.785  0.6251 -0.2547  0.1056
  224W        W 1121   0.293   4.081   2.844 -0.0370 -0.1650 -0.0741
  225W        W 1122   2.042   6.601   4.248  0.0836 -0.0757 -0.0540
  226W        W 1123   6.051   4.152   5.231  0.1908  0.1737 -0.0947
  227W        W 1124   2.868   0.261   7.033 -0.0220  0.2348  0.0421
  228W        W 1125   5.348   6.095   2.128 -0.1037 -0.0703 -0.1242
  229W        W 1126   3.817   7.482   2.399  0.1501  0.1048  0.2441
  230W        W 1127   6.674   5.625   6.331  0.0428 -0.3350  0.0702
  231W        W 1128   7.542   7.547   6.599 -0.0261  0.1528 -0.0723
  232W        W 1129   6.762   0.816   2.358  0.0817  0.2084  0.2899
  233W        W 1130   0.881   5.787   0.774 -0.2248 -0.1403  0.4157
  234W        W 1131   2.217   6.961   5.017 -0.0328 -0.0371  0.4775
  235W        W 1132   2.268   5.543   3.417 -0.1917 -0.0007 -0.0154
  236W        W 1133   5.032   1.848   6.441  0.0192 -0.2951  0.3882
  237W        W 1134   3.352   5.634   3.294 -0.1826  0.2029  0.1432
  238W        W 1135   4.909   5.156   6.850 -0.2657  0.0990 -0.2983
  239W        W 1136   3.656   6.169   3.255  0.0210  0.3272 -0.0148
  240W        W 1137   4.101   0.776   5.232 -0.0536 -0.0800 -0.0443
  241W        W 1138   3.727   4.395   0.741 -0.4345 -0.0081  0.1035
  242W        W 1139   6.470   1.326   0.782 -0.2240 -0.2418 -0.1345
  243W        W 1140   3.505   0.924   7.184 -0.0358 -0.0423  0.3084
  244W        W 1141   4.515   1.591   5.641 -0.2250  0.1727 -0.0319
  245W        W 1142   0.415   5.108   2.888 -0.1401  0.1219 -0.0192
  246W        W 1143   0.144   4.334   1.564  0.1693 -0.3730  0.0869
  247W        W 1144   5.044   5.917   1.769  0.1856  0.0955 -0.1982
  248W        W 1145   7.327   2.910   2.739 -0.0935  0.0787 -0.2386
  249W        W 1146   0.861   4.968   7.246  0.0142  0.2991  0.0171
  250W        W 1147   5.643   0.512   1.226  0.1293 -0.0117 -0.2168
  251W        W 1148   4.331   1.916   3.636  0.0190  0.3384 -0.1160
  252W        W 1149   5.399   1.283   4.339  0.1201 -0.3258  0.0642
  253W        W 1150   6.415   0.252   5.328  0.0910  0.2576  0.0180
  254W        W 1151   0.313   3.993   7.514 -0.0147  0.1108 -0.0325
  255W        W 1152   3.680   5.978   1.478  0.1036 -0.1533 -0.0258
  256W        W 1153   0.090   2.867   1.225 -0.0090 -0.0968 -0.2177
  257W        W 1154   3.324   4.341   3.794 -0.0351  0.2593  0.0269
  258W        W 1155   2.023   5.692   5.160 -0.0006 -0.1792  0.0768
  259W        W 1156   3.474   0.604   3.425  0.0112  0.0452 -0.1828
  260W        W 1157   6.728   6.954   4.059 -0.1268  0.2121  0.1602
  261W        W 1158   0.615   7.025   6.920 -0.3428 -0.3307  0.0984
  262W        W 1159   1.677   6.214   7.093 -0.0075  0.1114 -0.1878
  263W        W 1160   6.765   4.997   4.074  0.1235 -0.0590 -0.1543
  264W        W 1161   4.216   6.438   2.683 -0.0573  0.0931 -0.0518
  265W        W 1162   7.373   0.113   0.808 -0.4270 -0.0358  0.0213
  266W        W 1163   2.837   2.724   4.464  0.1604 -0.2843  0.1133
  267W        W 1164   6.776   1.575   2.653 -0.0231  0.2672  0.0187
  268W        W 1165   4.834   6.892   2.022  0.2905 -0.1866  0.0521
  269W        W 1166   5.755   5.798   7.396 -0.0850 -0.3568 -0.0414
  270W        W 1167   1.161   0.220   4.413  0.2166  0.1842 -0.4692
  271W        W 1168   7.277   6.873   0.231 -0.0330  0.1009  0.3100
  272W        W 1169   6.538   6.669   5.408 -0.1455  0.0474 -0.2571
  273W        W 1170   0.647   4.146   2.040 -0.0276 -0.0984 -0.0812
  274W        W 1171   3.403   4.758   4.464 -0.2227 -0.1380  0.0259
  275W        W 1172   6.015   0.465   5.691 -0.0002 -0.0076 -0.1605
  276W        W 1173   1.319   4.813   5.423  0.2434 -0.1222 -0.0307
  277W        W 1174   1.440   3.634   3.654  0.0841 -0.0975 -0.1508
  278W        W 1175   5.915   6.206   2.957  0.1690  0.0917 -0.1409
  279W        W 1176   2.947   7.181   1.547  0.2567 -0.2824  0.0435
  280W        W 1177   1.610   3.792   7.627 -0.0104 -0.0329  0.2850
  281W        W 1178   2.865   2.796   6.491 -0.0254  0.0484  0.4839
  282W        W 1179   7.314   2.732   4.462  0.1074 -0.0044  0.2578
  283W        W 1180   3.782   4.885   0.951 -0.0242 -0.1262 -0.0993
  284W        W 1181   0.716   2.928   4.905 -0.1002 -0.0739 -0.0529
  285W        W 1182   0.704   6.986   4.042  0.1309 -0.0010  0.1552
  286W        W 1183   5.609   7.030   4.422 -0.2129  0.2024 -0.1334
  287W        W 1184   5.807   7.194   6.496  0.1499  0.3036 -0.0359
  288W        W 1185   4.642   5.093   4.654 -0.1981  0.0155  0.3142
  289W        W 1186   6.662   2.962   6.576 -0.1869 -0.1162  0.2004
  290W        W 1187   0.675   2.546   3.436 -0.2321  0.2494 -0.0012
  291W        W 1188   4.036   3.278   6.950 -0.0625 -0.1513 -0.1247
  292W        W 1189   5.243   6.183   7.023  0.1994 -0.2277  0.3085
  293W        W 1190   0.802   5.908   6.797 -0.4520 -0.0518 -0.3188
  294W        W 1191   0.134   0.874   4.128  0.1548 -0.0312  0.0786
  295W        W 1192   0.982   0.315   6.011 -0.1516 -0.0338  0.1884
  296W        W 1193   2.141   0.653   6.952  0.2434 -0.0131 -0.1560
  297W        W 1194   2.780   5.156   4.907  0.1075  0.0673  0.0491
  298W        W 1195   7.258   3.552   1.128  0.2417  0.0130  0.1659
  299W        W 1196   6.436   0.393   1.598 -0.0431 -0.2947 -0.1758
  300W        W 1197   3.020   5.178   1.449 -0.0121 -0.1195 -0.2026
  301W        W 1198   4.543   7.431   4.228  0.2715  0.1973  0.0812
  302W        W 1199   3.754   6.745   7.357  0.1169  0.5549 -0.0054
  303W        W 1200   2.447   6.087   0.903 -0.1145 -0.0527  0.0341
  304W        W 1201   4.891   3.151   3.152 -0.1811 -0.0377 -0.0313
  305W        W 1202   0.336   1.669   4.578  0.0881 -0.1741 -0.1634
  306W        W 1203   6.781   0.468   4.846  0.0989  0.1849  0.1561
  307W        W 1204   0.002   5.488   2.895 -0.0654 -0.2604  0.3511
  308W        W 1205   1.376   4.793   2.475  0.1033  0.0125 -0.0319
  309W        W 1206   2.592   5.906   6.747 -0.1406 -0.0942  0.2995
  310W        W 1207   6.501   7.554   1.581 -0.0751  0.1420  0.1299
  311W        W 1208   2.748   2.233   4.829  0.1423 -0.0395 -0.1279
  312W        W 1209   2.141   5.699   4.232  0.0400 -0.0323 -0.0641
  313W        W 1210   6.026   4.031   3.446 -0.1417  0.0892 -0.2059
  314W        W 1211   2.332   5.953   5.584 -0.0184 -0.0825 -0.1584
  315W        W 1212   6.815   2.115   2.492  0.1085 -0.1567  0.1807
  316W        W 1213   2.016   4.370   2.764  0.0471 -0.0486 -0.0763
  317W        W 1214   6.645   5.879   7.307  0.1925  0.0482  0.0063
  318W        W 1215   1.388   6.091   3.217  0.2104  0.3329  0.0458
  319W        W 1216   7.437   1.682   7.301  0.2619 -0.3646 -0.0740
  320W        W 1217   6.210   0.742   5.329  0.0100  0.0103 -0.0570
  321W        W 1218   0.638   5.971   1.409  0.1116 -0.1632  0.2843
  322W        W 1219   5.270   6.222   4.236 -0.1804  0.0651 -0.3445
  323W        W 1220   1.953   5.129   2.409 -0.0785  0.0180  0.1352
  324W        W 1221   3.506   7.607   2.812  0.2981  0.2052 -0.5292
  325W        W 1222   3.220   4.809   3.619 -0.0461  0.0923 -0.0182
  326W        W 1223   7.247   2.015   5.532  0.0882  0.3277  0.3632
  327W        W 1224   2.025   6.970   7.593 -0.1061  0.3620 -0.2110
  328W        W 1225   3.332   7.241   5.525 -0.3371 -0.0198  0.1873
  329W        W 1226   2.456   0.736   5.114  0.0492 -0.0015  0.0685
  330W        W 1227   1.159   5.758   2.473 -0.0439 -0.3788 -0.1327
  331W        W 1228   2.103   5.031   0.273 -0.0783  0.1570 -0.4651
  332W        W 1229   4.696   3.472   5.125  0.1158 -0.1898  0.0002
  333W        W 1230   6.593   4.888   2.235  0.1437  0.1491  0.1772
  334W        W 1231   4.401   5.257   1.515 -0.1396 -0.0678  0.0772
  335W        W 1232   3.039   0.265   5.619 -0.0797  0.2170 -0.0541
  336W        W 1233   3.070   6.477   0.966 -0.2589 -0.0200  0.0674
  337W        W 1234   2.142   7.003   0.478 -0.2970  0.0526 -0.1827
  338W        W 1235   2.548   5.214   0.548  0.1186  0.1937  0.0866
  339W        W 1236   3.118   1.085   3.570  0.4026 -0.0370 -0.0105
  340W        W 1237   5.541   1.790   3.382  0.3484  0.1727  0.1077
  341W        W 1238   0.528   4.075   1.253  0.0974 -0.0467  0.1480
  342W        W 1239   2.333   4.770   1.358 -0.0982 -0.0267 -0.2135
  343W        W 1240   7.265   2.245   2.844  0.1137 -0.0311 -0.0654
  344W        W 1241   6.883   1.654   7.189 -0.0296 -0.1552 -0.1016
  345W        W 1242   3.175   6.674   2.808 -0.0014 -0.0025 -0.0055
  346W        W 1243   3.941   5.601   7.134  0.0196 -0.2777 -0.2821
  347W        W 1244   4.875   0.162   3.449 -0.4938  0.1695 -0.2848
  348W        W 1245   1.995   6.503   0.375  0.0238 -0.0509  0.0573
  349W        W 1246   3.093   6.425   6.769 -0.3062  0.3199 -0.1451
  350W        W 1247   3.594   2.295   7.599 -0.2643  0.1541  0.0536
  351W        W 1248   1.098   5.854   6.351 -0.2998  0.1300  0.1091
  352W        W 1249   6.293   3.553   2.308  0.0172 -0.0566 -0.1879
  353W        W 1250   6.784   5.967   5.548 -0.0879  0.1391  0.1067
  354W        W 1251   5.102   1.001   7.061  0.0068  0.0831  0.1365
  355W        W 1252   6.048   1.359   1.986  0.2908 -0.2084  0.1035
  356W        W 1253   7.269   5.660   6.329 -0.0045 -0.4502  0.0500
  357W        W 1254   2.912   4.018   3.627 -0.4330 -0.2009  0.1270
  358W        W 1255   4.868   6.495   7.164 -0.2843 -0.0138  0.0926
  359W        W 1256   3.348   3.028   4.496  0.1673  0.3029 -0.3961
  360W        W 1257   7.198   2.357   3.406  0.1179 -0.0009  0.3965
  361W        W 1258   0.250   7.390   0.606  0.2345  0.1716 -0.3832
  362W        W 1259   6.748   3.223   2.383  0.0317 -0.0913  0.0115
  363W        W 1260   0.414   5.651   7.055  0.1759 -0.2602 -0.1839
  364W        W 1261   7.509   6.188   3.622 -0.4403  0.0752 -0.3257
  365W        W 1262   2.865   3.383   1.462  0.1801  0.3113 -0.1147
  366W        W 1263   6.205   5.089   0.583  0.2195  0.1662 -0.0207
  367W        W 1264   2.713   3.544   4.880  0.1099  0.0993  0.2958
  368W        W 1265   7.341   4.829   6.291  0.1521 -0.1975 -0.0889
  369W        W 1266   1.767   6.610   4.842 -0.0021  0.2195  0.0799
  370W        W 1267   6.523   7.078   1.742 -0.0907  0.0587  0.0904
  371W        W 1268   7.038   1.122   6.744  0.1233 -0.2157  0.0877
  372W        W 1269   1.240   4.719   2.945 -0.0348 -0.0108 -0.1529
  373W        W 1270   3.818   4.554   4.226  0.1401 -0.2109 -0.1107
  374W        W 1271   0.919   2.917   2.492 -0.2699  0.2312 -0.0392
  375W        W 1272   4.266   3.934   2.832  0.1290  0.0893 -0.2698
  376W        W 1273   2.222   5.589   5.897  0.0286  0.2734  0.0270
  377W        W 1274   1.315   0.731   5.947 -0.0016 -0.0819  0.2060
  378W        W 1275   1.617   2.165   6.011  0.2143  0.1274 -0.1172
  379W        W 1276   0.520   7.143   4.476 -0.1195 -0.1520  0.2716
  380W        W 1277   1.944   4.934   5.209 -0.1497  0.0666  0.3562
  381W        W 1278   3.894   1.326   5.899  0.4177 -0.3268 -0.0713
  382W        W 1279   1.157   6.085   4.123  0.1455  0.1482  0.0034
  383W        W 1280   0.652   3.097   1.076  0.0846 -0.0166  0.3394
  384W        W 1281   0.557   5.140   6.872  0.0986  0.1165  0.1745
  385W        W 1282   6.144   1.206   4.509 -0.0674  0.2102 -0.4137
  386W        W 1283   2.724   5.843   3.811 -0.1368  0.1868  0.1136
  387W        W 1284   6.727   0.816   5.342  0.0193 -0.3118 -0.0400
  388W        W 1285   1.163   7.447   1.978  0.1059 -0.0354 -0.2004
  389W        W 1286   5.188   0.104   7.146  0.0065 -0.3310  0.1285
  390W        W 1287   0.949   6.882   6.033  0.0193 -0.0518  0.0759
  391W        W 1288   6.927   6.662   3.679  0.1034  0.3106 -0.1991
  392W        W 1289   4.077   0.623   1.860  0.0046  0.3718  0.2890
  393W        W 1290   5.167   6.651   2.894 -0.0617 -0.0568  0.0545
  394W        W 1291   4.693   4.102   7.227 -0.0725 -0.0134  0.0634
  395W        W 1292   5.347   0.075   0.994 -0.1590 -0.0813  0.1531
  396W        W 1293   6.376   0.295   7.491 -0.2314  0.0360 -0.1041
  397W        W 1294   6.190   0.938   5.840  0.2578  0.0784  0.2834
  398W        W 1295   5.343   7.402   5.248  0.0968  0.2397  0.3749
  399W        W 1296   4.262   3.662   3.295 -0.0299 -0.2427  0.1602
  400W        W 1297   3.416   4.622   5.225  0.2270 -0.0814 -0.0008
  401W        W 1298   6.905   6.264   4.493  0.1604 -0.1309 -0.1712
  402W        W 1299   5.651   5.142   0.619 -0.2302  0.1950  0.3145
  403W        W 1300   3.281   7.621   6.736  0.0336 -0.1205  0.1691
  404W        W 1301   2.427   5.643   1.976 -0.2199  0.2481 -0.0926
  405W        W 1302   6.873   7.574   5.182  0.0363 -0.1466 -0.2556
  406W        W 1303   6.446   4.179   4.901  0.2325 -0.2456 -0.0340
  407W        W 1304   1.555   4.710   7.365  0.0242  0.0013 -0.3091
  408W        W 1305   5.039   6.534   2.409 -0.0575 -0.2332 -0.1777
  409W        W 1306   0.059   2.746   3.778 -0.0665 -0.2364  0.1231
  410W        W 1307   1.358   4.326   3.658  0.1881 -0.0299  0.4607
  411W        W 1308   2.768   0.103   7.570 -0.2162  0.1790  0.1567
  412W        W 1309   0.771   7.209   1.376 -0.2094  0.0192 -0.2682
  413W        W 1310   5.647   3.729   5.106  0.1685 -0.1059  0.0403
  414W        W 1311   1.107   6.369   7.103 -0.0713 -0.1042 -0.3391
  415W        W 1312   0.225   7.568   7.086  0.1642  0.0239 -0.0396
  416W        W 1313   6.513   1.947   7.388 -0.0597  0.3302 -0.1706
  417W        W 1314   0.451   5.547   5.870  0.3284 -0.1554 -0.0097
  418W        W 1315   0.308   4.361   5.331  0.1571  0.1999 -0.1898
  419W        W 1316   5.264   4.178   1.835  0.2459  0.0334  0.1834
  420W        W 1317   1.592   4.616   3.303 -0.0192  0.0710 -0.0458
  421W        W 1318   5.270   6.846   6.453  0.1717 -0.0327  0.2695
  422W        W 1319   6.438   0.184   3.471  0.2714 -0.0379  0.0961
  423W        W 1320   7.210   0.439   4.526 -0.1712 -0.0032 -0.2184
  424W        W 1321   1.007   1.085   5.537 -0.1844 -0.0814  0.3486
  425W        W 1322   2.331   7.545   4.996 -0.0497 -0.2367 -0.0088
  426W        W 1323   2.336   4.327   4.531 -0.0209  0.3187 -0.0830
  427W        W 1324   2.307   6.687   3.395  0.1416 -0.2754  0.0293
  428W        W 1325   6.725   5.090   6.309 -0.0127 -0.1421 -0.1172
  429W        W 1326   4.774   3.570   7.151  0.0854 -0.0870  0.0540
  430W        W 1327   5.720   3.035   2.399 -0.3445  0.3296 -0.0819
  431W        W 1328   1.399   4.783   1.975  0.1722 -0.0248 -0.1152
  432W        W 1329   1.462   7.204   4.612  0.3404 -0.0864 -0.1850
  433W        W 1330   1.725   4.843   1.049 -0.1871 -0.0280 -0.2080
  434W        W 1331   1.362   3.242   7.359 -0.0656  0.0082 -0.2976
  435W        W 1332   1.587   4.258   4.112 -0.4190  0.0220  0.1199
  436W        W 1333   2.611   5.206   7.203  0.2832  0.3975 -0.2362
  437W        W 1334   6.802   4.391   1.184  0.0498  0.0023  0.2064
  438W        W 1335   6.661   5.933   2.240  0.1310  0.0505  0.0759
  439W        W 1336   5.362   2.766   0.074 -0.2405 -0.0968 -0.3101
  440W        W 1337   6.326   5.666   2.538  0.2477 -0.1028  0.2144
  441W        W 1338   0.211   0.452   7.177 -0.0326 -0.3496  0.0619
  442W        W 1339   4.736   3.986   4.235  0.4945 -0.0499 -0.0811
  443W        W 1340   2.110   0.424   4.604 -0.1754  0.0320 -0.0454
  444W        W 1341   7.413   3.400   6.770 -0.1480 -0.1517 -0.3951
  445W        W 1342   7.571   5.978   0.130  0.3302  0.0524  0.0994
  446W        W 1343   7.184   4.152   2.258  0.0605 -0.1464  0.1890
  447W        W 1344   1.293   4.704   4.933 -0.1653  0.4858 -0.0028
  448W        W 1345   3.373   7.057   7.447  0.2586 -0.1250 -0.2340
  449W        W 1346   6.361   2.802   2.929 -0.2081  0.0965  0.4479
  450W        W 1347   4.850   1.246   5.720 -0.2356 -0.1282 -0.1298
  451W        W 1348   0.342   7.322   4.019  0.1172  0.2350 -0.0838
  452W        W 1349   2.939   4.610   5.315  0.1883  0.1411  0.0829
  453W        W 1350   5.810   6.859   2.251 -0.0770  0.2306  0.0814
  454W        W 1351   2.520   4.104   6.181  0.0324 -0.2161 -0.4361
  455W        W 1352   4.513   0.387   0.171  0.0138  0.0124  0.1355
  456W        W 1353   3.178   2.018   6.337  0.2544  0.0334 -0.0816
  457W        W 1354   1.646   6.533   3.384  0.3367 -0.1794 -0.1159
  458W        W 1355   7.363   7.075   4.023 -0.3018  0.1956  0.2402
  459W        W 1356   5.157   1.096   4.734  0.2160 -0.0038 -0.1224
  460W        W 1357   3.468   3.784   5.464  0.1372 -0.0386  0.0753
  461W        W 1358   7.492   6.120   1.303 -0.3635  0.0079  0.1148
  462W        W 1359   1.600   4.922   6.214 -0.1662  0.0904 -0.0065
  463W        W 1360   0.110   3.419   1.202 -0.0501 -0.1164 -0.1080
  464W        W 1361   7.277   6.432   0.851 -0.2940  0.4298  0.0258
  465W        W 1362   3.890   5.278   3.634 -0.0233 -0.1987  0.0140
  466W        W 1363   1.602   3.518   5.090 -0.0360  0.1982 -0.0852
  467W        W 1364   6.597   6.603   1.623 -0.1722  0.1253  0.0244
  468W        W 1365   0.779   5.464   4.676 -0.0679 -0.0038 -0.1420
  469W        W 1366   6.087   5.681   3.950 -0.0439  0.0244 -0.3876
  470W        W 1367   6.961   7.382   4.139  0.0169  0.0962 -0.0195
  471W        W 1368   3.673   5.827   0.958 -0.1685 -0.1109 -0.0650
  472W        W 1369   6.182   4.208   3.009 -0.0175  0.1154 -0.2286
  473W        W 1370   0.580   6.362   4.877 -0.1123  0.0347  0.0666
  474W        W 1371   1.899   4.002   0.733 -0.0302 -0.0798  0.2264
  475W        W 1372   4.228   4.656   4.874  0.0267  0.2724 -0.1497
  476W        W 1373   2.207   4.490   0.504 -0.1322 -0.2088 -0.2131
  477W        W 1374   1.451   6.833   5.848 -0.0117 -0.1742  0.1528
  478W        W 1375   5.435   0.268   0.111  0.0798 -0.0122  0.2619
  479W        W 1376   5.138   2.611   7.001 -0.0630  0.0664 -0.4181
  480W        W 1377   2.270   0.086   7.528  0.2655 -0.1301 -0.4177
  481W        W 1378   0.559   0.837   7.237  0.2697 -0.1364 -0.0836
  482W        W 1379   4.933   4.166   3.842 -0.3126  0.2283  0.0873
  483W        W 1380   6.685   1.820   0.932 -0.2664  0.2652 -0.2578
  484W        W 1381   2.961   6.349   2.037  0.0950  0.1259 -0.2001
  485W        W 1382   5.445   3.014   5.404 -0.0158 -0.0648 -0.1774
  486W        W 1383   6.044   3.941   4.768  0.0928  0.0250 -0.5199
  487W        W 1384   3.752   3.413   0.822  0.0778 -0.0680  0.3301
  488W        W 1385   4.597   1.822   6.058 -0.4238  0.0991  0.3230
  489W        W 1386   5.336   1.747   6.791 -0.1171 -0.1371 -0.0195
  490W        W 1387   3.798   5.148   4.178 -0.1242 -0.1133  0.2000
  491W        W 1388   5.826   2.151   6.032 -0.0332 -0.2114  0.0093
  492W        W 1389   6.145   6.221   2.532  0.2524 -0.1155  0.0473
  493W        W 1390   7.472   6.405   3.211  0.1180  0.0213  0.1138
  494W        W 1391   6.108   4.911   1.977 -0.1221  0.0111  0.0713
  495W        W 1392   3.969   3.219   1.285  0.1613 -0.0343  0.1230
  496W        W 1393   3.228   3.501   6.600  0.2024 -0.4202 -0.1595
  497W        W 1394   4.112   0.151   1.641 -0.0649 -0.2412  0.1277
  498W        W 1395   3.937   0.269   2.660 -0.0288  0.2025 -0.1135
  499W        W 1396   5.630   5.553   6.413  0.0050 -0.2469 -0.0932
  500W        W 1397   6.149   5.116   1.509 -0.2703  0.0063 -0.0809
  501W        W 1398   5.966   1.710   5.989 -0.2886 -0.1598  0.1234
  502W        W 1399   3.835   3.897   4.175 -0.2986  0.0615  0.1828
  503W        W 1400   7.473   4.760   1.526  0.3293 -0.0928  0.0036
  504W        W 1401   4.914   0.728   1.939  0.3084 -0.0755 -0.3340
  505W        W 1402   2.521   6.583   2.281  0.0725  0.1295  0.1423
  506W        W 1403   2.629   0.314   4.702 -0.2581  0.1163  0.0766
  507W        W 1404   3.974   5.612   2.468 -0.0065  0.1457  0.2494
  508W        W 1405   6.023   7.314   1.736 -0.2937 -0.0932 -0.1007
  509W        W 1406   7.464   3.497   4.963 -0.0475 -0.1245 -0.0588
  510W        W 1407   7.314   7.539   3.847 -0.2169  0.1226 -0.0415
  511W        W 1408   4.838   7.416   5.644  0.0373  0.1571  0.1459
  512W        W 1409   5.577   0.835   4.517 -0.1649 -0.2304  0.0093
  513W        W 1410   5.026   6.894   0.465  0.0490 -0.3329 -0.0397
  514W        W 1411   6.600   6.709   6.924  0.1786  0.1629  0.2014
  515W        W 1412   4.700   3.400   6.539 -0.0553  0.0802 -0.1018
  516W        W 1413   2.725   7.617   1.306 -0.0494 -0.1705  0.1301
  517W        W 1414   3.200   0.884   1.170  0.1366 -0.0883  0.0073
  518W        W 1415   2.727   6.785   2.673 -0.1524 -0.2433 -0.1526
  519W        W 1416   4.712   7.498   6.851 -0.1758 -0.3112 -0.1872
  520W        W 1417   4.623   0.874   5.233  0.2959 -0.2189  0.2160
  521W        W 1418   0.486   0.433   4.178 -0.0978 -0.1385 -0.4266
  522W        W 1419   1.595   3.862   5.466  0.0245  0.0543  0.1211
  523W        W 1420   4.923   7.509   3.875 -0.2591 -0.0237 -0.2125
  524W        W 1421   7.603   6.479   0.401 -0.1394  0.0392  0.1904
  525W        W 1422   7.524   5.565   4.701  0.3210 -0.3107  0.1967
  526W        W 1423   1.337   0.023   4.836  0.2009  0.0827 -0.0263
  527W        W 1424   7.152   2.497   4.894 -0.4354  0.1570  0.1589
  528W        W 1425   6.659   1.092   2.838 -0.0219  0.1919  0.0795
  529W        W 1426   1.924   0.840   4.868  0.1020 -0.2160  0.0282
  530W        W 1427   5.268   5.057   2.854 -0.1470 -0.0320 -0.0767
  531W        W 1428   1.402   0.359   6.358 -0.0155  0.1571  0.0121
  532W        W 1429   6.087   4.557   4.637  0.4718 -0.1674  0.1836
  533W        W 1430   4.526   6.921   0.220 -0.1067  0.3717  0.1340
  534W        W 1431   7.409   5.253   1.701  0.4409  0.1160 -0.0023
  535W        W 1432   4.087   1.150   2.938  0.1028 -0.1807 -0.0055
  536W        W 1433   0.994   3.445   1.000 -0.1228  0.1468 -0.0842
  537W        W 1434   2.125   6.429   0.894  0.1115 -0.0341  0.1702
  538W        W 1435   7.041   5.475   4.508 -0.6637  0.1267 -0.1348
  539W        W 1436   4.984   2.788   2.809 -0.4163 -0.0225  0.0257
  540W        W 1437   3.346   2.669   6.832 -0.0752 -0.0267  0.1052
  541W        W 1438   2.074   4.565   5.675  0.0410  0.1127  0.2449
  542W        W 1439   6.750   7.062   2.224  0.4063  0.1142  0.2199
  543W        W 1440   3.354   6.701   3.647 -0.1297 -0.1688 -0.1702
  544W        W 1441   3.437   1.785   4.125  0.1616  0.0139  0.3073
  545W        W 1442   3.067   7.182   3.836  0.0136  0.0467 -0.1277
  546W        W 1443   4.271   4.657   0.019 -0.2925 -0.2833 -0.1545
  547W        W 1444   7.021   2.263   1.477  0.1417  0.1188  0.1670
  548W        W 1445   0.606   3.564   2.132 -0.0763 -0.1113  0.4559
  549W        W 1446   5.485   4.816   1.076 -0.2169 -0.1601 -0.2253
  550W        W 1447   1.184   6.534   3.560 -0.0211 -0.3522 -0.1725
  551W        W 1448   4.923   7.174   5.144 -0.0099  0.2151 -0.2389
  552W        W 1449   3.152   6.603   4.584  0.1105  0.1136  0.0150
  553W        W 1450   3.476   4.712   7.475  0.1316 -0.0723 -0.2292
  554W        W 1451   6.872   1.225   2.034  0.1014  0.1364  0.1410
  555W        W 1452   7.514   2.271   4.665  0.0311 -0.0678 -0.0247
  556W        W 1453   4.285   6.426   5.576  0.2317  0.0092  0.0985
  557W        W 1454   5.764   5.335   6.909 -0.1408 -0.0762  0.0698
  558W        W 1455   5.668   5.927   1.784 -0.0569  0.0482 -0.0636
  559W        W 1456   5.212   7.303   4.745  0.1604 -0.1145 -0.2529
  560W        W 1457   0.560   1.648   6.377  0.0743  0.0636 -0.0887
  561W        W 1458   2.145   4.489   7.161 -0.3452  0.0885  0.0344
  562W        W 1459   0.954   5.056   5.001 -0.3637 -0.1227 -0.1357
  563W        W 1460   5.796   1.593   4.346  0.0772  0.4858  0.0422
  564W        W 1461   6.582   6.598   4.721 -0.0506 -0.2324 -0.1036
  565W        W 1462   4.633   2.636   6.957 -0.2065  0.0068  0.1057
  566W        W 1463   5.161   0.861   4.236  0.0608  0.1656  0.0374
  567W        W 1464   6.836   7.220   0.357 -0.3545  0.2788  0.0300
  568W        W 1465   5.628   1.408   1.678 -0.2982 -0.0087  0.0020
  569W        W 1466   2.525   1.068   6.318  0.1040 -0.1193  0.3515
  570W        W 1467   1.154   6.004   3.633 -0.1498  0.0758 -0.0710
  571W        W 1468   2.179   5.710   0.582 -0.0706 -0.0996  0.3802
  572W        W 1469   0.203   4.753   4.722  0.1829 -0.0363  0.1482
  573W        W 1470   1.978   3.565   0.965  0.1483  0.3033 -0.1187
  574W        W 1471   4.234   4.541   5.794  0.3020 -0.1364  0.0361
  575W        W 1472   0.667   6.076   7.236  0.2168 -0.1697  0.2974
  576W        W 1473   2.252   7.000   2.402  0.0868 -0.0511  0.2746
  577W        W 1474   3.886   1.359   7.297 -0.0141  0.1959  0.0067
  578W        W 1475   6.417   5.222   0.095  0.0930 -0.1969 -0.1798
  579W        W 1476   3.966   6.799   4.843  0.3980 -0.2270  0.1635
  580W        W 1477   3.773   5.641   2.047  0.0126  0.1112  0.1676
  581W        W 1478   4.344   3.131   3.280  0.2367  0.0344 -0.0433
  582W        W 1479   3.613   2.912   0.941 -0.0255 -0.1171 -0.0952
  583W        W 1480   3.827   2.147   5.418  0.0153  0.1928  0.1153
  584W        W 1481   1.546   4.389   1.421 -0.0816 -0.0575 -0.5301
  585W        W 1482   5.872   1.769   7.612  0.4713  0.1073 -0.0986
  586W        W 1483   6.447   1.139   4.144 -0.3206  0.0042 -0.0067
  587W        W 1484   2.589   3.259   0.209  0.2624  0.0385  0.2429
  588W        W 1485   7.490   3.903   6.346  0.2450 -0.0049  0.0856
  589W        W 1486   6.728   0.437   1.992 -0.1423 -0.3372  0.1442
  590W        W 1487   0.397   4.559   0.506  0.2185  0.3323  0.0341
  591W        W 1488   2.686   5.404   2.457 -0.2134  0.0662 -0.5474
  592W        W 1489   5.887   0.196   0.925  0.0601 -0.0121 -0.0614
  593W        W 1490   4.259   1.243   5.193 -0.1328 -0.0896  0.1897
  594W        W 1491   0.074   5.033   2.014  0.0416 -0.1600 -0.1214
  595W        W 1492   7.221   3.427   2.715 -0.2291 -0.1401 -0.1220
  596W        W 1493   6.450   3.612   1.405  0.1066 -0.0866 -0.1270
  597W        W 1494   4.328   2.850   3.844  0.3275  0.2272  0.4250
  598W        W 1495   4.815   0.259   4.766  0.2718 -0.0856 -0.0263
  599W        W 1496   1.898   6.141   1.654  0.0941 -0.0915  0.1155
  600W        W 1497   0.364   2.200   4.632  0.0423  0.2560  0.0326
  601W        W 1498   2.561   4.731   6.291 -0.4208 -0.0758  0.1849
  602W        W 1499   3.384   1.976   5.451 -0.0561 -0.1700 -0.0793
  603W        W 1500   2.177   6.040   2.549 -0.0816  0.0740 -0.1948
  604W        W 1501   6.849   4.511   2.989  0.0352 -0.1674 -0.1242
  605W        W 1502   2.970   4.825   4.090 -0.0265  0.1815 -0.1152
  606W        W 1503   5.635   0.089   0.532  0.0370  0.3424 -0.0631
  607W        W 1504   1.346   4.222   0.949  0.0992  0.1154  0.0559
  608W        W 1505   6.609   1.152   5.686  0.1476 -0.3176 -0.3320
  609W        W 1506   3.977   3.836   0.660 -0.0279  0.1035 -0.2490
  610W        W 1507   5.116   5.707   1.071 -0.0566  0.1055 -0.1626
  611W        W 1508   3.355   0.459   2.938 -0.1323  0.2208 -0.0311
  612W        W 1509   1.020   7.426   6.089 -0.2849 -0.1210 -0.0634
  613W        W 1510   6.234   1.365   5.198 -0.3594 -0.0649 -0.0333
  614W        W 1511   5.715   1.333   5.231  0.0979  0.3955 -0.1406
  615W        W 1512   6.536   3.177   3.307  0.3564 -0.0437 -0.4423
  616W        W 1513   1.111   2.601   6.042  0.2106 -0.0430 -0.2399
  617W        W 1514   3.473   5.120   3.357 -0.1464  0.2073  0.3518
  618W        W 1515   7.482   3.220   6.040  0.0609  0.3204  0.1002
  619W        W 1516   0.036   3.230   3.032 -0.1014  0.3196  0.6401
  620W        W 1517   4.979   5.861   3.092  0.0380  0.2325  0.2654
  621W        W 1518   2.453   2.658   6.114 -0.0275 -0.0613 -0.0118
  622W        W 1519   7.244   1.213   7.195 -0.0230  0.2286 -0.0020
  623W        W 1520   6.942   0.247   4.135 -0.2838 -0.1524 -0.3262
  624W        W 1521   6.320   3.265   2.779  0.1267  0.2896 -0.0355
  625W        W 1522   1.775   6.933   2.663 -0.1480  0.0526  0.0551
  626W        W 1523   0.360   0.379   5.733  0.1099  0.0008 -0.2314
  627W        W 1524   0.426   2.430   5.312  0.0512  0.0193 -0.0213
  628W        W 1525   4.999   7.527   2.070  0.0260 -0.2424  0.2312
  629W        W 1526   4.601   1.321   4.783  0.0782  0.1678  0.0967
  630W        W 1527   0.749   5.279   4.229  0.1086  0.0515  0.2539
  631W        W 1528   7.544   1.395   4.388  0.0216  0.0923  0.0618
  632W        W 1529   6.578   5.295   6.826  0.0194  0.3109 -0.0911
  633W        W 1530   1.217   6.457   5.703 -0.1943  0.1008  0.0141
  634W        W 1531   2.867   2.412   6.109  0.0679  0.1470  0.0478
  635W        W 1532   5.354   4.457   0.732 -0.1838  0.1908  0.2488
  636W        W 1533   0.040   0.461   4.449 -0.1407  0.0641 -0.1420
  637W        W 1534   5.662   4.199   4.958  0.0572 -0.0412  0.1616
  638W        W 1535   1.252   4.113   4.626  0.1588  0.5003 -0.1368
  639W        W 1536   0.682   1.439   5.253  0.0552  0.2153  0.2033
  640W        W 1537   6.269   6.344   3.339  0.0781 -0.0153 -0.0247
  641W        W 1538   6.409   5.356   5.400 -0.2763 -0.0978  0.0324
  642W        W 1539   3.462   5.397   2.329  0.1473  0.0913 -0.1568
  643W        W 1540   6.779   5.138   5.005  0.4044 -0.1762 -0.1176
  644W        W 1541   7.536   2.275   3.847  0.1327  0.1881 -0.2476
  645W        W 1542   2.254   5.503   1.012  0.0657 -0.0918 -0.0323
  646W        W 1543   1.343   5.657   0.129 -0.0274  0.1633 -0.0799
  647W        W 1544   4.322   2.352   1.083 -0.2432 -0.4706 -0.0659
  648W        W 1545   5.658   0.958   3.680 -0.1308 -0.1693 -0.1500
  649W        W 1546   6.213   1.269   6.633  0.1707 -0.0529  0.1716
  650W        W 1547   2.353   3.803   4.357  0.1231 -0.1718 -0.1335
  651W        W 1548   4.694   1.687   0.577  0.2181 -0.1625  0.0407
  652W        W 1549   6.266   2.825   6.872 -0.2421  0.0275 -0.1553
  653W        W 1550   3.922   6.454   1.544 -0.1118  0.0456 -0.0128
  654W        W 1551   5.498   5.116   4.502 -0.3133 -0.2252 -0.2861
  655W        W 1552   6.776   4.442   2.407 -0.0558  0.0853 -0.0848
  656W        W 1553   6.452   0.242   2.348  0.0443  0.1146 -0.1795
  657W        W 1554   5.780   3.654   3.716  0.1573  0.1225  0.1780
  658W        W 1555   0.202   4.326   7.055 -0.2077 -0.1728  0.0973
  659W        W 1556   4.794   3.411   0.857 -0.0881 -0.1162 -0.2907
  660W        W 1557   3.692   5.298   2.835  0.1092  0.0362 -0.1445
  661W        W 1558   4.304   7.599   2.186  0.2189 -0.0202  0.1897
  662W        W 1559   7.285   0.603   1.123  0.1520  0.0143  0.1093
  663W        W 1560   1.922   7.540   1.204  0.0525 -0.0465 -0.0480
  664W        W 1561   3.244   6.217   6.122  0.0396  0.1923  0.1019
  665W        W 1562   0.835   6.522   2.293  0.1836 -0.0406  0.0193
  666W        W 1563   0.272   3.544   7.087 -0.2060  0.1567  0.0303
  667W        W 1564   3.850   4.240   1.916 -0.0828  0.2275  0.2633
  668W        W 1565   6.534   1.507   3.612 -0.1700  0.1281 -0.4373
  669W        W 1566   4.185   7.196   6.619  0.1793  0.0424 -0.0228
  670W        W 1567   0.302   0.603   4.876 -0.0493  0.3290  0.1536
  671W        W 1568   2.404   6.329   2.860 -0.1425  0.1011  0.3457
  672W        W 1569   4.281   5.212   3.366 -0.1246  0.0528  0.2582
  673W        W 1570   6.548   7.139   2.703 -0.0610  0.2170 -0.0458
  674W        W 1571   2.586   7.146   0.347  0.0592  0.1166  0.4467
  675W        W 1572   2.815   5.423   2.986 -0.2969 -0.0412 -0.3779
  676W        W 1573   6.112   1.178   1.067  0.0730 -0.1343  0.0026
  677W        W 1574   5.984   2.365   0.613  0.0768 -0.1776 -0.0749
  678W        W 1575   5.055   3.569   2.985  0.3315  0.0528 -0.3125
  679W        W 1576   7.088   7.019   4.482  0.2179 -0.1572 -0.0579
  680W        W 1577   5.244   2.074   5.346 -0.1801  0.1959  0.0291
  681W        W 1578   3.966   6.306   7.028 -0.1740 -0.1693 -0.0355
  682W        W 1579   1.491   5.210   5.219 -0.4456 -0.0226  0.1590
  683W        W 1580   5.044   4.784   6.531 -0.0497 -0.0329  0.2507
  684W        W 1581   0.555   6.643   7.243  0.2001  0.0899  0.5561
  685W        W 1582   5.445   3.680   4.653  0.3293  0.1811  0.0270
  686W        W 1583   6.508   5.180   2.584 -0.2254  0.2554 -0.2773
  687W        W 1584   6.160   5.872   4.994 -0.0365  0.2285 -0.0388
  688W        W 1585   5.617   3.170   0.513  0.3313 -0.0135  0.0678
  689W        W 1586   3.642   4.012   3.734  0.0351  0.2151  0.0598
  690W        W 1587   7.337   1.293   6.413  0.0197 -0.0106 -0.0152
  691W        W 1588   7.028   3.297   0.615 -0.1551  0.0443  0.0703
  692W        W 1589   5.330   4.539   2.957  0.0325 -0.5225 -0.0914
  693W        W 1590   2.422   2.941   6.590 -0.1049  0.0477  0.0182
  694W        W 1591   1.733   1.288   7.365  0.0437 -0.2151  0.2576
  695W        W 1592   3.963   0.720   6.481  0.2457 -0.1796 -0.0688
  696W        W 1593   5.763   3.832   3.000  0.0206  0.0273  0.2350
  697W        W 1594   3.939   0.521   0.285 -0.3617 -0.0778 -0.0416
  698W        W 1595   2.146   2.636   7.501 -0.0849 -0.0571  0.2101
  699W        W 1596   2.524   6.384   7.422  0.0925  0.0074  0.1292
  700W        W 1597   7.047   1.930   0.086 -0.1023 -0.1062 -0.0527
  701W        W 1598   4.419   1.998   1.533  0.3550 -0.1594  0.3638
  702W        W 1599   5.426   5.298   1.070  0.2322 -0.3764 -0.0763
  703W        W 1600   3.106   5.619   4.467  0.4170  0.1724 -0.1048
  704W        W 1601   2.017   6.391   6.191 -0.0527  0.1205 -0.0074
  705W        W 1602   2.984   5.020   3.287  0.0807 -0.0553 -0.2369
  706W        W 1603   5.353   2.589   3.146  0.0211 -0.2985 -0.3118
  707W        W 1604   6.819   3.081   2.894  0.0498  0.0206  0.1258
  708W        W 1605   1.311   0.033   0.136  0.0139 -0.0246  0.1715
  709W        W 1606   6.625   3.164   1.605 -0.1205  0.4785 -0.2823
  710W        W 1607   3.917   2.488   0.765  0.2053 -0.0728  0.2117
  711W        W 1608   5.753   3.447   2.686  0.0509  0.1962 -0.1491
  712W        W 1609   0.012   6.502   7.133  0.1427  0.0110 -0.1163
  713W        W 1610   1.986   1.409   5.609 -0.0830 -0.1559 -0.0786
  714W        W 1611   5.830   5.109   5.970  0.2279 -0.3885  0.5039
  715W        W 1612   2.623   6.576   4.392 -0.2010  0.2674  0.1379
  716W        W 1613   5.205   5.904   6.460  0.0455 -0.0163 -0.2337
  717W        W 1614   1.471   6.852   1.792  0.0167 -0.0911 -0.3574
  718W        W 1615   6.832   3.236   3.764  0.2761  0.2128  0.0225
  719W        W 1616   5.328   2.282   6.305  0.1273 -0.3576  0.1847
  720W        W 1617   5.405   3.417   2.279 -0.1133  0.0213 -0.0156
  721W        W 1618   4.556   3.070   2.694  0.1129 -0.2399 -0.0848
  722W        W 1619   0.146   3.650   0.616  0.1046  0.0118  0.0169
  723W        W 1620   3.100   4.860   1.907 -0.2935  0.0636 -0.2332
  724W        W 1621   0.980   4.336   2.711  0.0451  0.1567  0.1484
  725W        W 1622   4.934   1.484   2.430  0.0982  0.0017  0.1259
  726W        W 1623   2.132   1.467   7.144 -0.2748 -0.1916 -0.1128
  727W        W 1624   6.435   0.010   2.800  0.2010 -0.0572  0.2440
  728W        W 1625   7.323   4.546   2.907  0.1190  0.0063  0.2032
  729W        W 1626   3.065   6.933   3.223 -0.0223 -0.1147  0.2744
  730W        W 1627   4.984   6.854   7.531  0.1355 -0.0350  0.0992
  731W        W 1628   4.054   0.301   6.271  0.0159  0.1827  0.1661
  732W        W 1629   5.043   1.242   6.580  0.0332 -0.2348  0.1244
  733W        W 1630   7.061   3.751   5.470 -0.1958 -0.0089 -0.1571
  734W        W 1631   4.902   4.246   0.747 -0.0065  0.1787  0.0085
  735W        W 1632   6.410   7.595   7.097  0.0231 -0.0924 -0.2420
  736W        W 1633   4.568   3.820   1.022  0.3250  0.1321 -0.0224
  737W        W 1634   4.980   1.488   3.186  0.1871 -0.4406  0.0002
  738W        W 1635   2.839   2.642   6.978 -0.0081  0.0056 -0.0334
  739W        W 1636   5.850   4.729   4.178 -0.1432  0.0661  0.0879
  740W        W 1637   5.184   5.785   0.177 -0.1162  0.1070  0.0303
  741W        W 1638   0.249   4.662   6.694 -0.0550 -0.1891 -0.0043
  742W        W 1639   0.489   2.656   0.851 -0.0284  0.1907 -0.2702
  743W        W 1640   4.814   2.832   1.836 -0.0553  0.0134  0.1194
  744W        W 1641   7.060   7.452   6.622 -0.0735  0.1799 -0.1229
  745W        W 1642   2.682   2.712   5.020 -0.3894  0.2686  0.1012
  746W        W 1643   4.073   6.176   3.538 -0.0150 -0.0880 -0.0055
  747W        W 1644   4.913   6.090   7.427 -0.0898  0.3271  0.2144
  748W        W 1645   6.553   5.875   4.688  0.1408  0.0886  0.0162
  749W        W 1646   1.120   1.736   6.151  0.2412  0.1044  0.1668
  750W        W 1647   2.721   3.418   6.516 -0.0742 -0.3282  0.0954
  751W        W 1648   5.847   1.582   6.856 -0.1178  0.1705 -0.2106
  752W        W 1649   2.257   3.168   7.412  0.1384 -0.2340  0.0531
  753W        W 1650   6.073   5.952   5.874  0.0635  0.0065  0.0587
  754W        W 1651   6.582   5.072   3.623  0.2513 -0.0684  0.0496
  755W        W 1652   1.954   2.099   6.628 -0.1227  0.0670 -0.3423
  756W        W 1653   6.504   1.130   0.280 -0.0407 -0.0045  0.3032
  757W        W 1654   2.121   6.424   3.764 -0.0742  0.3535  0.1864
  758W        W 1655   6.950   3.742   2.414 -0.3121  0.1548 -0.0676
  759W        W 1656   7.438   4.831   6.830  0.0024  0.0385 -0.2736
  760W        W 1657   1.091   4.707   1.013 -0.0288  0.0964 -0.2660
  761W        W 1658   6.574   0.143   6.660  0.2193  0.1329 -0.0700
  762W        W 1659   2.691   2.740   0.746 -0.0307  0.2937 -0.2496
  763W        W 1660   2.648   6.493   5.772 -0.1527 -0.1222  0.3023
  764W        W 1661   5.141   2.368   2.605  0.0141 -0.2587 -0.0901
  765W        W 1662   0.370   2.952   2.690 -0.1211  0.3032  0.1114
  766W        W 1663   2.542   6.838   1.415  0.0762  0.0011  0.2596
  767W        W 1664   0.681   2.600   2.952  0.0684 -0.1074 -0.0827
  768W        W 1665   7.321   3.868   5.895 -0.1603  0.0433  0.0916
  769W        W 1666   3.951   4.983   5.645 -0.0684  0.0744 -0.0067
  770W        W 1667   3.080   5.487   0.180 -0.1138  0.2565 -0.0120
  771W        W 1668   0.252   6.774   4.071 -0.2854  0.0318 -0.1036
  772W        W 1669   5.981   1.520   0.716 -0.1268 -0.2171  0.1280
  773W        W 1670   5.311   2.767   6.531 -0.0216 -0.0075  0.0009
  774W        W 1671   4.231   5.219   4.921 -0.1511 -0.1479  0.0629
  775W        W 1672   0.154   4.647   6.153 -0.1243 -0.1126 -0.0342
  776W        W 1673   6.565   2.629   3.319  0.0219  0.1086 -0.0484
  777W        W 1674   4.689   3.455   3.440  0.3776  0.3680  0.2010
  778W        W 1675   4.665   1.476   3.793 -0.3362 -0.1783 -0.0220
  779W        W 1676   5.156   1.489   7.214 -0.4496  0.1478  0.0460
  780W        W 1677   3.474   7.611   2.002  0.0175 -0.1149  0.2576
  781W        W 1678   1.307   4.145   1.813  0.1176  0.1793 -0.1439
  782W        W 1679   3.071   5.092   2.378  0.2587  0.1572  0.0605
  783W        W 1680   3.699   6.387   4.706  0.2917  0.1962 -0.0715
  784W        W 1681   3.599   0.173   4.379 -0.0302 -0.0639  0.0984
  785W        W 1682   5.584   6.926   5.960 -0.2387 -0.2050  0.0614
  786W        W 1683   3.952   0.903   4.013  0.1826 -0.0761  0.0175
  787W        W 1684   1.907   2.477   7.031  0.0760  0.1762  0.0450
  788W        W 1685   2.001   4.338   1.189 -0.1323  0.0052  0.1077
  789W        W 1686   3.143   2.568   0.902  0.0448 -0.1285  0.0032
  790W        W 1687   0.196   6.949   0.405  0.2698 -0.2791 -0.0667
  791W        W 1688   6.695   6.437   3.056 -0.1746  0.1661  0.1108
  792W        W 1689   3.363   0.645   4.570 -0.1876 -0.0654 -0.0770
  793W        W 1690   5.707   0.292   2.996 -0.0339 -0.2443  0.1623
  794W        W 1691   4.802   7.534   2.734 -0.0479  0.0158 -0.3236
  795W        W 1692   0.779   5.720   5.548  0.2401  0.3100  0.0586
  796W        W 1693   3.511   7.469   4.781  0.1257 -0.1381  0.0074
  797W        W 1694   5.835   2.851   5.043  0.1039 -0.1129 -0.0797
  798W        W 1695   5.205   7.034   5.557  0.0370  0.3456  0.0766
  799W        W 1696   2.604   0.724   6.789  0.2564  0.3973 -0.1711
  800W        W 1697   7.286   3.840   0.692 -0.3644  0.1387  0.3236
  801W        W 1698   0.603   6.275   4.133 -0.1446 -0.1387  0.0150
  802W        W 1699   0.733   7.314   2.756  0.1845  0.0210  0.2248
  803W        W 1700   4.459   0.238   5.955  0.0292 -0.0467 -0.1658
  804W        W 1701   5.844   3.550   6.072  0.2445 -0.0272  0.0744
  805W        W 1702   0.354   6.056   5.830 -0.0278 -0.0128  0.2633
  806W        W 1703   4.369   6.501   0.396  0.1301 -0.0401 -0.1625
  807W        W 1704   0.451   5.375   3.876  0.2387 -0.0369  0.0241
  808W        W 1705   4.214   4.454   1.478  0.0018  0.1126  0.1255
  809W        W 1706   7.435   7.278   0.432 -0.0295  0.1020  0.3590
  810W        W 1707   5.751   3.727   5.643  0.2764 -0.1872 -0.1373
  811W        W 1708   4.660   7.102   1.168  0.1461 -0.3814 -0.3187
  812W        W 1709   5.897   2.811   0.368  0.2495 -0.1363 -0.0726
  813W        W 1710   2.862   1.704   6.632 -0.1817 -0.1109 -0.0327
  814W        W 1711   4.931   1.679   4.833  0.2742  0.1848  0.0344
  815W        W 1712   7.093   5.736   5.854  0.0074  0.0715  0.1371
  816W        W 1713   5.115   6.447   0.122  0.1214  0.2434  0.2759
  817W        W 1714   4.224   5.452   6.741 -0.1652  0.1025 -0.0421
  818W        W 1715   0.052   5.173   1.247 -0.2114  0.3019  0.0618
  819W        W 1716   4.627   5.984   4.851 -0.0740  0.0441 -0.0581
  820W        W 1717   0.503   1.949   5.103  0.1171  0.4595  0.2807
  821W        W 1718   0.656   7.305   3.622  0.1269 -0.0756  0.0256
  822W        W 1719   7.248   0.660   7.283  0.0879 -0.4984  0.2423
  823W        W 1720   2.610   7.454   1.792  0.0359  0.3953 -0.0030
  824W        W 1721   7.118   6.178   2.333  0.1652  0.3653 -0.0510
  825W        W 1722   2.491   4.683   4.120  0.3144 -0.0045 -0.1011
  826W        W 1723   4.994   4.102   1.374 -0.1799 -0.0661 -0.1329
  827W        W 1724   3.742   2.344   6.986  0.0270  0.0530  0.0524
  828W        W 1725   1.461   1.748   4.979  0.1227 -0.1896  0.1503
  829W        W 1726   5.837   5.335   5.046 -0.0904 -0.0021  0.0147
  830W        W 1727   5.130   3.035   4.087 -0.0683 -0.0758  0.1197
  831W        W 1728   6.861   5.467   0.820  0.0739 -0.2239  0.0024
  832W        W 1729   5.793   3.810   2.340  0.2236  0.2622  0.4188
  833W        W 1730   6.475   4.054   1.097 -0.0654 -0.0007  0.1199
  834W        W 1731   1.133   7.599   7.007 -0.0126  0.0941 -0.1017
  835W        W 1732   1.968   0.976   5.366 -0.0430 -0.0533  0.0570
  836W        W 1733   4.230   2.441   3.445  0.0849 -0.0495  0.0628
  837W        W 1734   1.747   2.190   7.461  0.4563  0.3968 -0.2571
  838W        W 1735   3.904   4.551   2.398 -0.2010  0.0669 -0.0791
  839W        W 1736   2.127   4.107   5.309  0.0570  0.0922  0.2687
  840W        W 1737   5.994   0.096   1.408  0.2919  0.0190  0.2284
  841W        W 1738   5.360   7.489   5.766 -0.1669  0.0739  0.1528
  842W        W 1739   3.464   4.267   4.332 -0.0480 -0.2161  0.0205
  843W        W 1740   4.106   3.328   6.020 -0.3749  0.1227  0.1922
  844W        W 1741   3.373   2.780   0.081  0.1126  0.0896 -0.1181
  845W        W 1742   6.979   6.832   2.630  0.1582  0.2005 -0.1111
  846W        W 1743   4.380   5.785   2.145 -0.0267 -0.1716  0.1569
  847W        W 1744   5.548   6.685   5.514 -0.1291 -0.1725  0.0700
  848W        W 1745   1.809   0.075   6.265  0.2278  0.0695  0.1085
  849W        W 1746   5.962   2.506   2.958  0.1791 -0.0785  0.0232
  850W        W 1747   5.244   5.396   4.184  0.0336  0.0548  0.2249
  851W        W 1748   3.598   6.943   2.238  0.0064  0.0552  0.1455
  852W        W 1749   1.185   5.035   4.437 -0.2841 -0.0460  0.1647
  853W        W 1750   5.988   3.339   1.487  0.0676 -0.0298 -0.0943
  854W        W 1751   5.482   0.297   5.872  0.2712 -0.5138 -0.2498
  855W        W 1752   1.297   2.354   5.110 -0.0145 -0.3251 -0.1257
  856W        W 1753   6.259   6.318   5.622 -0.2091  0.2785 -0.0533
  857W        W 1754   5.199   7.146   3.605  0.1593 -0.0533 -0.1547
  858W        W 1755   6.266   2.216   3.270 -0.2302 -0.4215 -0.0027
  859W        W 1756   2.957   2.619   0.321  0.0542 -0.3515  0.1358
  860W        W 1757   3.792   7.188   7.082 -0.1479 -0.0128 -0.3150
  861W        W 1758   2.556   6.450   6.929 -0.2218 -0.0086  0.0751
  862W        W 1759   7.351   2.603   6.893 -0.3515 -0.1576  0.0918
  863W        W 1760   1.971   5.810   7.413  0.3674 -0.3155  0.3765
  864W        W 1761   3.061   3.560   0.088 -0.1202 -0.1199  0.2590
  865W        W 1762   6.699   2.718   2.552  0.1331  0.1401 -0.0006
  866W        W 1763   4.112   5.456   4.491  0.1725 -0.1240  0.0813
  867W        W 1764   2.896   0.055   3.757  0.0956  0.0914 -0.0277
  868W        W 1765   0.089   4.843   3.194  0.1260  0.2801  0.2794
  869W        W 1766   7.093   5.789   3.565 -0.1683  0.3215  0.1957
  870W        W 1767   4.588   3.522   2.917 -0.1431  0.0270  0.1743
  871W        W 1768   4.550   3.104   4.189  0.0700 -0.0036 -0.0918
  872W        W 1769   2.224   1.176   6.739 -0.1534 -0.1798  0.0641
  873W        W 1770   3.434   0.813   4.091  0.3099  0.1383  0.0683
  874W        W 1771   6.654   6.326   2.564  0.1530  0.0207  0.0940
  875W        W 1772   4.929   3.843   4.670 -0.1789  0.1944 -0.3153
  876W        W 1773   0.401   4.494   3.455  0.3838 -0.1163 -0.1822
  877W        W 1774   3.413   4.382   0.301 -0.1583  0.2629 -0.2455
  878W        W 1775   6.638   6.182   3.642 -0.3037 -0.1758 -0.0080
  879W        W 1776   2.360   0.896   4.637 -0.0267 -0.1784 -0.2195
  880W        W 1777   3.285   5.595   4.954 -0.0302  0.0127 -0.0822
  881W        W 1778   6.936   2.325   6.157  0.1025 -0.1743  0.0086
  882W        W 1779   4.202   4.189   5.087 -0.3173  0.0212  0.0583
  883W        W 1780   6.826   2.351   3.817  0.0868  0.1406 -0.0364
  884W        W 1781   3.656   1.517   6.878 -0.0458  0.0214  0.2173
  885W        W 1782   3.882   5.571   3.225  0.1201 -0.1845  0.0294
  886W        W 1783   1.599   1.661   5.817  0.2212  0.0620  0.1882
  887W        W 1784   4.300   0.631   0.580 -0.1872  0.1728 -0.1011
  888W        W 1785   0.024   7.155   4.402 -0.2271  0.1108  0.1205
  889W        W 1786   1.611   7.261   3.788 -0.3874  0.2736  0.1850
  890W        W 1787   0.692   2.062   5.606 -0.0996 -0.0902 -0.0398
  891W        W 1788   0.250   0.617   3.732  0.2813 -0.1452  0.0017
  892W        W 1789   1.081   2.209   6.379 -0.0715  0.1838 -0.1044
  893W        W 1790   0.795   7.477   4.125  0.0718  0.1352 -0.0233
  894W        W 1791   4.221   5.686   5.015  0.0714  0.4373 -0.3210
  895W        W 1792   5.696   6.944   3.906 -0.2543 -0.0321  0.0892
  896W        W 1793   7.129   5.019   3.660  0.2503 -0.0130  0.1672
  897W        W 1794   5.655   2.726   0.804  0.0592  0.1940  0.2609
  898W        W 1795   7.166   3.536   4.027  0.1347  0.0808 -0.0606
  899W        W 1796   3.756   0.186   3.168  0.3001 -0.0265  0.0037
  900W        W 1797   7.291   4.188   1.470 -0.0184  0.5335  0.0361
  901W        W 1798   0.510   6.742   1.396  0.2434  0.1041 -0.1931
  902W        W 1799   7.264   5.175   0.696 -0.0349  0.1410 -0.1575
  903W        W 1800   4.349   1.730   2.399  0.0856  0.2219  0.3044
  904W        W 1801   2.849   1.959   7.054 -0.3494  0.1636 -0.4353
  905W        W 1802   6.331   6.274   7.145  0.0556 -0.2048  0.1525
  906W        W 1803   4.463   2.435   5.771  0.1918 -0.3238  0.1886
  907W        W 1804   0.706   4.476   6.207 -0.4814  0.1567  0.3176
  908W        W 1805   0.755   4.398   7.190 -0.3272  0.1552 -0.2424
  909W        W 1806   0.589   3.988   0.540  0.1680 -0.0303  0.1750
  910W        W 1807   2.575   1.494   6.961  0.3655 -0.0242  0.1039
  911W        W 1808   4.436   1.576   3.244  0.1131 -0.1833  0.2985
  912W        W 1809   3.211   4.201   5.460  0.2335 -0.2614  0.1692
  913W        W 1810   7.251   4.552   4.765 -0.2933 -0.1658  0.2638
  914W        W 1811   6.538   2.143   1.383  0.3447 -0.0619 -0.0101
  915W        W 1812   1.234   3.148   4.796 -0.2496  0.0306  0.0544
  916W        W 1813   4.172   0.888   6.039 -0.3609 -0.1448  0.0607
  917W        W 1814   4.291   7.404   5.375 -0.2180 -0.1786  0.0271
  918W        W 1815   5.475   6.301   3.192 -0.0911 -0.3695  0.0809
  919W        W 1816   3.336   3.031   6.442 -0.0214  0.2661  0.1525
  920W        W 1817   2.987   2.273   6.701 -0.2922  0.1136 -0.1591
  921W        W 1818   6.012   5.589   4.549  0.2520 -0.1877 -0.1487
  922W        W 1819   6.965   1.323   4.345 -0.2912  0.0134 -0.0493
  923W        W 1820   2.688   4.930   5.741 -0.0474  0.2908  0.1060
  924W        W 1821   4.311   7.359   2.616  0.1534  0.2867  0.1145
  925W        W 1822   0.003   6.794   1.325  0.1139 -0.0857  0.0217
  926W        W 1823   2.588   5.072   1.029  0.2655 -0.3264  0.1875
  927W        W 1824   6.665   2.836   2.074  0.1003 -0.0956 -0.0220
  928W        W 1825   6.328   7.293   3.632  0.1903  0.1380  0.3297
  929W        W 1826   1.941   1.767   0.036  0.1954 -0.0219 -0.2248
  930W        W 1827   4.435   7.595   3.790 -0.0211 -0.0669  0.0053
  931W        W 1828   2.527   4.362   6.644  0.0137  0.1142  0.0482
  932W        W 1829   2.029   7.413   2.234  0.0404  0.3853  0.1886
  933W        W 1830   3.513   7.113   2.752 -0.1358  0.2149 -0.1038
  934W        W 1831   5.386   7.346   6.279 -0.2648 -0.1253 -0.2067
  935W        W 1832   0.132   0.141   4.831  0.0347  0.2552 -0.1207
  936W        W 1833   0.354   0.701   6.754 -0.0109 -0.0387 -0.2018
  937W        W 1834   6.423   1.185   2.268 -0.0069  0.0563 -0.1230
  938W        W 1835   7.299   5.692   1.441 -0.1102  0.0477  0.2174
  939W        W 1836   7.187   3.358   2.046  0.0932  0.1484  0.0863
  940W        W 1837   5.462   1.916   7.263 -0.0348  0.1019  0.2945
  941W        W 1838   4.273   4.195   2.359  0.1462 -0.2092  0.0383
  942W        W 1839   0.070   4.565   3.952 -0.0639 -0.1627  0.1372
  943W        W 1840   0.792   3.074   3.574  0.1364  0.0992 -0.0450
  944W        W 1841   0.819   4.314   5.494  0.1395 -0.0432  0.0727
  945W        W 1842   4.493   6.410   6.808  0.1787  0.1665  0.2029
  946W        W 1843   4.183   2.528   4.807  0.1097 -0.1357  0.0672
  947W        W 1844   1.695   3.908   1.168  0.2096 -0.0172  0.0730
  948W        W 1845   6.473   3.651   4.950 -0.1976 -0.1999  0.1186
  949W        W 1846   5.092   1.698   3.708 -0.2586  0.1644  0.1211
  950W        W 1847   3.506   0.534   0.574  0.1228 -0.0183 -0.2419
  951W        W 1848   4.674   4.363   4.751  0.2372  0.0859  0.1429
  952W        W 1849   1.297   7.159   6.915 -0.0366  0.0575  0.1093
  953W        W 1850   6.250   6.745   4.109  0.0884 -0.0054 -0.2057
  954W        W 1851   5.180   6.618   5.907  0.0461 -0.0297 -0.0213
  955W        W 1852   0.669   3.187   3.069  0.2472  0.0621  0.2990
  956W        W 1853   7.057   0.890   3.552  0.0384  0.1840 -0.2812
  957W        W 1854   5.128   7.215   1.181 -0.0213 -0.0539 -0.1171
  958W        W 1855   0.653   6.816   6.487 -0.1168 -0.2448  0.3120
  959W        W 1856   5.671   5.842   4.959  0.1496  0.3239 -0.0906
  960W        W 1857   1.825   5.812   6.914 -0.1382  0.0498  0.2303
  961W        W 1858   5.561   6.645   1.209 -0.1956  0.4168  0.2604
  962W        W 1859   2.871   2.200   1.055 -0.0563  0.4396 -0.2414
  963W        W 1860   1.082   6.942   2.106  0.1123  0.0962 -0.1934
  964W        W 1861   1.040   1.184   6.578  0.4138  0.4998 -0.1022
  965W        W 1862   7.147   1.781   4.375  0.0026 -0.2460  0.2556
  966W        W 1863   2.729   1.218   5.085  0.0775  0.1377  0.0314
  967W        W 1864   4.897   0.856   1.429  0.1190  0.1896 -0.0644
  968W        W 1865   3.288   3.856   4.473  0.0344 -0.1149  0.1418
  969W        W 1866   1.078   4.879   6.261  0.0819 -0.1017 -0.1042
  970W        W 1867   2.867   0.895   5.453 -0.1554 -0.3269 -0.2885
  971W        W 1868   0.179   3.578   0.087  0.3262  0.2074 -0.3118
  972W        W 1869   1.245   5.436   1.389  0.1282 -0.2300  0.1101
  973W        W 1870   5.634   5.486   3.453 -0.2956 -0.0792  0.0019
  974W        W 1871   3.035   0.500   6.590 -0.1858  0.3310 -0.1852
  975W        W 1872   2.848   3.618   6.963  0.1693 -0.0538  0.0903
  976W        W 1873   3.408   7.511   7.224 -0.2389 -0.4486  0.1177
  977W        W 1874   3.253   6.100   4.705  0.0617 -0.0040  0.0625
  978W        W 1875   7.218   1.948   0.554 -0.0436 -0.0814 -0.1073
  979W        W 1876   2.219   7.221   3.306  0.1334  0.1609 -0.0748
  980W        W 1877   2.204   2.971   0.883 -0.0468 -0.0310  0.0694
  981W        W 1878   3.347   6.624   7.135 -0.1101  0.1525 -0.1303
  982W        W 1879   0.196   5.616   1.511 -0.3547  0.3064 -0.1632
  983W        W 1880   4.141   6.880   5.407 -0.1282 -0.0593  0.0235
  984W        W 1881   3.885   2.368   4.363 -0.1508 -0.0653 -0.0406
  985W        W 1882   6.929   0.986   0.967 -0.2151  0.2088  0.3743
  986W        W 1883   0.813   5.731   3.904 -0.2396  0.0687  0.1455
  987W        W 1884   1.969   5.969   2.132 -0.1564  0.0926 -0.2324
  988W        W 1885   1.538   4.353   2.845  0.0650  0.3147  0.0068
  989W        W 1886   0.316   3.127   1.575  0.1144  0.0184  0.1292
  990W        W 1887   4.090   0.050   0.093  0.2752 -0.1768 -0.0954
  991W        W 1888   4.016   0.121   1.094 -0.0148 -0.0328  0.2068
  992W        W 1889   1.377   5.950   5.857  0.0741  0.2367  0.4927
  993W        W 1890   7.381   7.561   4.346 -0.1684 -0.0441  0.1538
  994W        W 1891   7.525   7.490   3.110 -0.2178  0.0960 -0.1886
  995W        W 1892   4.777   2.684   4.137  0.3827 -0.2490 -0.0951
  996W        W 1893   5.698   1.900   6.456  0.0312  0.0330 -0.2343
  997W        W 1894   5.225   3.929   4.257  0.1557  0.0886  0.0992
  998W        W 1895   7.327   4.257   7.045  0.0315 -0.0854  0.0576
  999W        W 1896   5.395   2.910   4.850 -0.1828  0.0795 -0.0510
 1000W        W 1897   6.363   5.374   4.854 -0.4398 -0.1987  0.1361
 1001W        W 1898   1.017   4.184   4.107 -0.2358 -0.1498  0.2008
 1002W        W 1899   1.462   6.836   1.230  0.1820 -0.0089  0.1615
 1003W        W 1900   3.717   1.842   5.866  0.1433 -0.0036 -0.1141
 1004W        W 1901   0.384   5.710   0.550 -0.1768  0.0610 -0.1971
 1005W        W 1902   2.687   5.642   0.689  0.1456  0.1798 -0.1616
 1006W        W 1903   4.386   2.798   7.387  0.1401  0.1291 -0.2416
 1007W        W 1904   2.378   3.979   4.910  0.0254  0.2964  0.3846
 1008W        W 1905   3.546   3.372   0.024  0.2886 -0.3722  0.0488
 1009W        W 1906   4.787   5.357   3.462  0.0994 -0.0413 -0.0692
 1010W        W 1907   0.725   7.235   5.316 -0.2704  0.2559  0.1809
 1011W        W 1908   5.280   7.254   0.673 -0.1690  0.0479 -0.1604
 1012W        W 1909   0.560   7.179   6.102  0.3498 -0.1637  0.0185
 1013W        W 1910   3.447   2.486   5.308 -0.3390 -0.0252 -0.1806
 1014W        W 1911   5.034   7.283   0.112  0.0790 -0.1250 -0.2528
 1015W        W 1912   2.993   3.060   0.071 -0.2344 -0.2576 -0.2184
 1016W        W 1913   7.134   1.305   2.888  0.0742  0.2206  0.0047
 1017W        W 1914   3.379   1.022   5.292 -0.0402 -0.0685 -0.1260
 1018W        W 1915   5.057   5.015   1.395 -0.0871 -0.0198 -0.1619
 1019W        W 1916   6.610   0.477   7.128  0.0995 -0.0496  0.2060
 1020W        W 1917   0.339   3.275   5.799  0.2051  0.2326  0.0768
 1021W        W 1918   4.971   2.161   5.950  0.0606 -0.0623  0.1417
 1022W        W 1919   0.520   5.276   7.413 -0.1137  0.0059 -0.1860
 1023W        W 1920   6.289   3.009   4.276  0.0023 -0.0468 -0.2164
 1024W        W 1921   4.662   0.435   1.523  0.0257  0.0645 -0.3540
 1025W        W 1922   1.027   4.620   5.819  0.3940  0.1004 -0.2937
 1026W        W 1923   2.471   6.053   4.592  0.1075  0.2289  0.2144
 1027W        W 1924   1.739   4.640   0.226  0.1890  0.2636 -0.3149
 1028W        W 1925   3.188   4.667   5.816  0.1202 -0.4295 -0.0437
 1029W        W 1926   1.057   7.548   1.127 -0.1250 -0.0978 -0.0925
 1030W        W 1927   4.230   4.783   0.482 -0.2005  0.1417  0.0245
 1031W        W 1928   5.463   1.565   0.737  0.3627  0.1395 -0.0073
 1032W        W 1929   7.110   2.755   7.423  0.1918 -0.0194  0.3026
 1033W        W 1930   1.329   7.416   4.180  0.1014 -0.1721  0.1360
 1034W        W 1931   6.849   4.102   0.762 -0.0387 -0.3281  0.4526
 1035W        W 1932   1.752   7.059   5.060 -0.0292 -0.2635  0.2572
 1036W        W 1933   5.912   0.518   7.463 -0.0837  0.2650  0.0459
 1037W        W 1934   5.929   2.085   2.081 -0.0718 -0.2269  0.0051
 1038W        W 1935   4.298   1.012   7.259 -0.2164 -0.1603 -0.1551
 1039W        W 1936   4.099   3.683   1.144  0.2107  0.0761  0.2159
 1040W        W 1937   0.949   5.902   1.946  0.3074  0.2555  0.0212
 1041W        W 1938   5.119   6.986   4.358 -0.1483 -0.2354 -0.0455
 1042W        W 1939   2.677   0.828   5.867  0.3690 -0.1654 -0.2950
 1043W        W 1940   5.793   6.497   4.200 -0.2232 -0.3448 -0.1529
 1044W        W 1941   3.066   3.320   6.160  0.1662  0.2733 -0.1677
 1045W        W 1942   6.518   0.917   6.764  0.1694  0.2681  0.3140
 1046W        W 1943   3.508   5.339   0.812  0.3348  0.0697 -0.0536
 1047W        W 1944   1.021   3.127   6.946 -0.2803  0.3378 -0.2220
 1048W        W 1945   0.691   3.326   7.292 -0.0507  0.1571 -0.1107
 1049W        W 1946   1.993   1.739   5.229  0.3335  0.2912  0.0103
 1050W        W 1947   6.914   4.867   2.605  0.0999  0.1022  0.2936
 1051W        W 1948   7.297   1.536   5.325  0.0865 -0.0574  0.1969
 1052W        W 1949   0.193   7.373   2.711 -0.0964 -0.1325  0.1733
 1053W        W 1950   6.025   0.053   6.616  0.0335  0.2557  0.3021
 1054W        W 1951   4.131   5.522   4.035 -0.2344  0.2113  0.3666
 1055W        W 1952   2.666   7.247   4.235 -0.1996 -0.2587 -0.2897
 1056W        W 1953   4.108   4.147   6.397  0.2151  0.1151  0.0186
 1057W        W 1954   2.778   4.693   2.233 -0.1076 -0.1161 -0.1968
 1058W        W 1955   3.785   5.456   4.943  0.1474  0.1195  0.0932
 1059W        W 1956   5.299   1.769   2.559  0.3471 -0.0538 -0.1349
 1060W        W 1957   7.399   3.756   3.149 -0.2712 -0.4378 -0.0677
 1061W        W 1958   3.594   7.257   3.240  0.2859 -0.0877 -0.3459
 1062W        W 1959   7.116   7.317   0.876 -0.1290 -0.1879 -0.0447
 1063W        W 1960   6.946   6.892   5.711  0.0343  0.0695 -0.4065
 1064W        W 1961   5.265   1.736   4.153 -0.0517  0.0801 -0.0178
 1065W        W 1962   6.779   5.669   1.314 -0.0454  0.0207  0.0323
 1066W        W 1963   3.538   1.071   3.268 -0.0514  0.0771  0.0722
 1067W        W 1964   4.261   2.692   4.344  0.0152 -0.1296 -0.1237
 1068W        W 1965   6.462   4.685   6.668  0.0361  0.1443 -0.2052
 1069W        W 1966   5.825   2.897   4.508 -0.0326 -0.0282 -0.0850
 1070W        W 1967   6.765   0.545   6.423  0.1023 -0.1734  0.1886
 1071W        W 1968   7.080   4.559   6.709  0.2419 -0.1506 -0.0823
 1072W        W 1969   3.699   2.026   0.389 -0.0500 -0.1189  0.3559
 1073W        W 1970   5.709   5.923   0.315 -0.1039  0.2942  0.0464
 1074W        W 1971   1.650   2.765   7.402  0.0185  0.1845  0.0737
 1075W        W 1972   3.955   1.387   2.512 -0.0136 -0.0337  0.0818
 1076W        W 1973   0.742   6.803   3.581  0.2408  0.3698  0.0297
 1077W        W 1974   4.888   7.017   2.699 -0.3309  0.0278 -0.0919
 1078W        W 1975   7.556   3.700   4.452  0.4449 -0.0850  0.1360
 1079W        W 1976   6.084   2.797   3.376  0.2916  0.2015  0.2795
 1080W        W 1977   2.995   0.920   7.572  0.1214  0.0626  0.0045
 1081W        W 1978   5.031   4.576   1.091 -0.2033  0.3309 -0.1784
 1082W        W 1979   5.092   5.693   5.603 -0.1471 -0.1493 -0.1498
 1083W        W 1980   6.942   5.310   5.516 -0.0902  0.1781  0.2418
 1084W        W 1981   1.576   5.026   3.631  0.1428  0.1257  0.0390
 1085W        W 1982   6.580   5.650   3.688  0.2895 -0.4054 -0.2866
 1086W        W 1983   5.789   4.821   3.669  0.1623  0.0927 -0.0785
 1087W        W 1984   4.241   0.358   3.037 -0.0665  0.0432 -0.1913
 1088W        W 1985   1.598   5.809   1.451 -0.1034  0.2085 -0.0293
 1089W        W 1986   6.161   5.481   6.611  0.2867  0.1540 -0.0200
 1090W        W 1987   3.843   2.685   6.530  0.1317 -0.0510 -0.1699
 1091W        W 1988   3.857   4.064   5.549 -0.0354  0.2492  0.1531
 1092W        W 1989   1.305   5.156   0.920  0.0209 -0.0306  0.1735
 1093W        W 1990   7.520   2.032   6.831  0.1272  0.0738  0.2557
 1094W        W 1991   4.551   3.174   6.092  0.0159 -0.1519 -0.0398
 1095W        W 1992   1.453   6.352   6.169 -0.2270 -0.3065 -0.0069
 1096W        W 1993   0.146   6.556   5.698  0.0680 -0.1395  0.3173
 1097W        W 1994   7.070   4.493   4.071 -0.0788 -0.0513  0.2506
 1098W        W 1995   1.422   5.160   3.152  0.0122 -0.1033  0.1327
 1099W        W 1996   3.893   7.383   1.887  0.0647  0.1144  0.2535
 1100W        W 1997   0.277   5.337   4.600 -0.1795  0.1809  0.1477
 1101W        W 1998   3.199   3.028   0.658 -0.2728 -0.1209  0.0603
 1102W        W 1999   6.311   6.764   0.551  0.0076 -0.2157 -0.1908
 1103W        W 2000   3.877   2.814   5.119  0.0664 -0.0083 -0.1544
 1104W        W 2001   5.337   1.020   0.506 -0.0460  0.1403 -0.0031
 1105W        W 2002   1.393   5.806   7.248  0.1262  0.2024 -0.4576
 1106W        W 2003   5.656   3.104   6.302  0.2918 -0.0522 -0.0341
 1107W        W 2004   4.937   0.184   7.556 -0.1004  0.3357 -0.0537
 1108W        W 2005   3.580   0.148   0.187  0.0782 -0.3566 -0.2665
 1109W        W 2006   4.352   4.287   6.871  0.1757 -0.2320  0.0319
 1110W        W 2007   0.856   4.678   1.826 -0.1587 -0.1576  0.0883
 1111W        W 2008   6.430   5.961   4.180 -0.3503  0.1057  0.1053
 1112W        W 2009   7.499   4.748   7.339  0.0126 -0.0023  0.1865
 1113W        W 2010   3.007   0.155   2.750 -0.3322  0.0286 -0.1237
 1114W        W 2011   5.508   6.983   2.655 -0.1756  0.0135  0.1893
 1115W        W 2012   5.669   3.681   1.190  0.0226 -0.0058  0.0828
 1116W        W 2013   2.844   6.059   5.772 -0.0547 -0.0978 -0.1132
 1117W        W 2014   4.745   1.255   1.705 -0.1432 -0.0609  0.0612
 1118W        W 2015   4.383   1.947   6.931  0.0694 -0.1237  0.1384
 1119W        W 2016   1.737   4.482   0.702  0.1802  0.2975 -0.3515
 1120W        W 2017   1.309   7.538   6.565 -0.3783  0.0363 -0.0692
 1121W        W 2018   1.903   5.955   6.009 -0.0349  0.2011 -0.0209
 1122W        W 2019   5.938   1.617   4.826  0.2370  0.1625 -0.1610
 1123W        W 2020   1.073   3.921   2.211  0.0060 -0.2523  0.0611
 1124W        W 2021   0.873   5.060   1.241  0.0124 -0.1883  0.0757
 1125W        W 2022   3.108   5.225   5.855  0.1347  0.0081 -0.0429
 1126W        W 2023   3.779   1.274   5.064  0.3784  0.1659  0.2139
 1127W        W 2024   5.831   4.481   1.576  0.1236  0.3457  0.1085
 1128W        W 2025   7.573   6.635   2.710  0.0886  0.0092  0.1124
 1129W        W 2026   7.221   1.611   6.849 -0.0720 -0.0485 -0.2108
 1130W        W 2027   7.072   6.209   3.942  0.4637  0.1680 -0.1014
 1131W        W 2028   0.054   2.238   5.664 -0.0300  0.1629  0.2268
 1132W        W 2029   7.435   7.119   5.790 -0.1278 -0.0587 -0.1064
 1133W        W 2030   3.024   5.970   3.447  0.1970 -0.2069  0.2348
 1134W        W 2031   1.794   3.163   0.052 -0.0564  0.0207  0.1750
 1135W        W 2032   5.460   6.346   5.067 -0.0345  0.1119  0.1391
 1136W        W 2033   0.752   0.692   4.662  0.3352  0.2257  0.0111
 1137W        W 2034   6.649   6.042   0.452  0.0047  0.1634  0.2354
 1138W        W 2035   4.211   3.829   5.869 -0.1027 -0.2069  0.0125
 1139W        W 2036   2.629   5.679   4.303 -0.2502 -0.1871  0.0241
 1140W        W 2037   1.656   6.891   0.739 -0.0195 -0.0405  0.0008
 1141W        W 2038   3.515   5.261   5.571  0.2337  0.2326  0.1154
 1142W        W 2039   1.758   0.688   6.207 -0.2669 -0.0318  0.0974
 1143W        W 2040   4.486   5.690   3.074  0.0630  0.4353 -0.1671
 1144W        W 2041   6.823   4.348   1.848 -0.3297 -0.1856 -0.2821
 1145W        W 2042   6.880   6.107   6.927 -0.0159  0.1724 -0.3615
 1146W        W 2043   4.042   2.611   5.536 -0.0315  0.2483  0.0113
 1147W        W 2044   7.575   7.055   2.423 -0.1155  0.1465  0.2084
 1148W        W 2045   4.678   4.023   5.086 -0.0017 -0.4077 -0.1595
 1149W        W 2046   5.689   2.015   5.042  0.2712  0.2703  0.2422
 1150W        W 2047   7.215   5.197   7.223 -0.0998 -0.1543 -0.1053
 1151W        W 2048   0.480   6.891   1.869  0.1960 -0.0845 -0.0910
 1152W        W 2049   3.599   1.012   1.961  0.1649  0.0841 -0.1207
 1153W        W 2050   3.554   2.074   4.547 -0.1394  0.0196  0.0338
 1154W        W 2051   4.763   4.480   6.842 -0.0213  0.1041 -0.3205
 1155W        W 2052   7.574   7.009   3.029  0.0031 -0.0447  0.1094
 1156W        W 2053   1.887   4.754   1.517  0.1582  0.0057 -0.5688
 1157W        W 2054   4.861   2.694   6.126 -0.0890 -0.0069  0.1867
 1158W        W 2055   6.289   0.415   0.724  0.0118 -0.0339  0.1406
 1159W        W 2056   0.143   3.447   6.462 -0.0369 -0.1183  0.3949
 1160W        W 2057   4.788   1.122   3.504 -0.0363  0.1436  0.0917
 1161W        W 2058   4.688   0.907   0.964 -0.1519  0.1256  0.2038
 1162W        W 2059   3.342   4.067   5.913 -0.1220 -0.1366  0.1496
 1163W        W 2060   4.762   4.736   5.647  0.2206 -0.2092 -0.1058
 1164W        W 2061   6.499   0.843   0.722  0.0437  0.0735 -0.0221
 1165W        W 2062   6.946   7.606   4.610 -0.0159 -0.4174 -0.1424
 1166W        W 2063   2.554   3.804   0.136  0.0587 -0.0980  0.3113
 1167W        W 2064   5.694   3.325   4.863 -0.1551  0.1975 -0.0174
 1168W        W 2065   5.473   2.454   7.294 -0.3639  0.2318 -0.3246
 1169W        W 2066   1.776   1.321   4.924 -0.1487 -0.0471 -0.1704
 1170W        W 2067   0.728   6.208   3.600 -0.1296  0.0879  0.0336
 1171W        W 2068   7.105   0.996   1.465 -0.0427 -0.0468 -0.0798
 1172W        W 2069   5.392   6.619   2.070 -0.2350  0.1379  0.0521
 1173W        W 2070   4.661   2.220   4.941 -0.3095  0.3522 -0.2067
 1174W        W 2071   2.462   0.894   0.037 -0.0866 -0.0614  0.0335
 1175W        W 2072   0.574   6.679   4.444  0.1666 -0.1477 -0.0684
 1176W        W 2073   5.770   1.942   0.468 -0.2791  0.0330  0.0388
 1177W        W 2074   7.341   5.721   2.494 -0.1131  0.2511  0.1528
 1178W        W 2075   1.263   0.985   6.987 -0.0349  0.2615 -0.0261
 1179W        W 2076   3.603   3.897   0.248 -0.0994 -0.1521 -0.1402
 1180W        W 2077   1.500   5.060   0.174 -0.1380  0.0425  0.1598
 1181W        W 2078   2.243   6.854   2.884 -0.0894  0.0478  0.1165
 1182W        W 2079   6.861   7.223   7.065  0.0163  0.1353  0.0467
 1183W        W 2080   3.943   7.250   4.984  0.0528 -0.2306  0.0489
 1184W        W 2081   1.479   4.414   6.096 -0.0312  0.0073  0.3111
 1185W        W 2082   2.016   6.960   3.669 -0.2847  0.2474  0.0461
 1186W        W 2083   5.692   0.877   0.835  0.1788 -0.0091  0.0550
 1187W        W 2084   5.072   3.731   3.616  0.0379 -0.3198  0.1642
 1188W        W 2085   2.740   7.121   1.023 -0.1523  0.0549 -0.0590
 1189W        W 2086   1.392   6.292   4.785  0.0423  0.0780 -0.2442
 1190W        W 2087   1.897   2.247   5.166 -0.4719 -0.1423 -0.2222
 1191W        W 2088   2.927   5.369   4.018 -0.1836  0.1247  0.2961
 1192W        W 2089   6.424   2.180   5.384  0.1945 -0.0553  0.1199
 1193W        W 2090   3.683   7.104   3.742 -0.1496 -0.0832 -0.0340
 1194W        W 2091   5.583   2.068   3.796  0.0026 -0.0643  0.1702
 1195W        W 2092   1.933   0.540   5.638 -0.0815 -0.0365 -0.2485
 1196W        W 2093   2.994   6.412   5.410  0.1425 -0.0233 -0.1622
 1197W        W 2094   0.776   4.806   5.416  0.0854 -0.1394  0.0878
 1198W        W 2095   1.261   2.399   0.038  0.0526  0.1138 -0.1569
 1199W        W 2096   1.619   4.318   7.020 -0.0298 -0.2350 -0.0628
 1200W        W 2097   4.566   1.858   1.036 -0.2215  0.2132  0.1751
 1201W        W 2098   6.129   6.354   6.183  0.2022 -0.1174  0.1646
 1202W        W 2099   7.533   7.507   5.264  0.1024 -0.1722  0.0953
 1203W        W 2100   4.166   0.570   7.387  0.1134  0.1770 -0.4259
 1204W        W 2101   5.356   4.747   4.223  0.0891 -0.2621 -0.1432
 1205W        W 2102   6.152   7.301   5.332 -0.3218  0.0066 -0.2707
 1206W        W 2103   3.621   0.460   7.442  0.4201  0.2497  0.2840
 1207W        W 2104   6.447   2.357   2.787 -0.0315 -0.0983 -0.0499
 1208W        W 2105   3.589   2.693   7.292 -0.1473 -0.0275 -0.0395
 1209W        W 2106   7.494   4.156   7.509  0.0197 -0.1103  0.4553
 1210W        W 2107   5.319   4.504   5.144  0.0610  0.0537  0.0014
 1211W        W 2108   7.212   5.272   1.198  0.1632 -0.1547 -0.0396
 1212W        W 2109   3.760   4.768   0.207  0.0845 -0.0043  0.0962
 1213W        W 2110   6.709   2.692   1.185  0.0761 -0.0961 -0.1284
 1214W        W 2111   0.082   4.167   5.799 -0.0413  0.0085  0.1188
 1215W        W 2112   0.644   3.654   3.552  0.0305  0.0188 -0.0562
 1216W        W 2113   5.673   4.959   1.529 -0.3198  0.3415  0.0228
 1217W        W 2114   5.141   5.821   4.719  0.0170 -0.0961 -0.2939
 1218W        W 2115   6.245   5.052   6.266 -0.1331  0.0266 -0.0445
 1219W        W 2116   7.216   2.126   1.957 -0.0028  0.2026 -0.2906
 1220W        W 2117   1.605   2.622   6.076 -0.1671 -0.1196 -0.0054
 1221W        W 2118   0.371   4.109   3.850 -0.1623  0.0527  0.2164
 1222W        W 2119   6.594   4.045   2.126 -0.2585  0.0115 -0.2328
 1223W        W 2120   1.089   6.921   7.375 -0.1894 -0.1118  0.1351
 1224W        W 2121   1.297   2.891   0.225 -0.0312 -0.1533  0.0704
 1225W        W 2122   4.885   5.458   1.519 -0.0932 -0.0193 -0.2354
 1226W        W 2123   0.711   0.357   6.995  0.1711  0.4450  0.0158
 1227W        W 2124   0.082   5.082   7.619 -0.1698  0.3791 -0.1165
 1228W        W 2125   3.929   3.324   4.859  0.1449 -0.1582  0.2257
 1229W        W 2126   4.707   5.204   2.953 -0.1454 -0.2978 -0.0478
 1230W        W 2127   4.649   6.606   2.957 -0.0264 -0.3004  0.1040
 1231W        W 2128   0.137   7.429   2.143 -0.1750 -0.2024 -0.0771
 1232W        W 2129   6.431   6.692   7.427 -0.2345 -0.1084 -0.1734
 1233W        W 2130   5.892   2.341   7.565 -0.0252  0.0578  0.1045
 1234W        W 2131   3.442   7.186   0.362  0.3053 -0.0474  0.0976
 1235W        W 2132   6.007   5.488   5.602  0.0412  0.2138  0.1358
 1236W        W 2133   0.859   3.061   6.118 -0.0783 -0.2639  0.1221
 1237W        W 2134   5.036   5.145   5.509 -0.1777 -0.0061 -0.2671
 1238W        W 2135   0.794   4.640   6.748 -0.0103 -0.0628  0.2518
 1239W        W 2136   1.388   3.649   3.099  0.1549  0.3331 -0.0232
 1240W        W 2137   3.653   6.280   3.792  0.3233 -0.1216  0.1466
 1241W        W 2138   6.575   4.558   4.260 -0.2394  0.1766 -0.2614
 1242W        W 2139   4.467   4.778   3.126 -0.0804 -0.1894  0.2403
 1243W        W 2140   2.840   3.599   0.547  0.2248  0.1616 -0.4070
 1244W        W 2141   2.372   3.309   1.185 -0.0280  0.0327 -0.1371
 1245W        W 2142   6.348   1.696   1.283  0.2058  0.1622  0.0220
 1246W        W 2143   6.659   0.609   1.163  0.0657 -0.2387  0.1147
 1247W        W 2144   6.548   1.050   1.267  0.0588 -0.2117 -0.0460
 1248W        W 2145   5.233   0.959   6.215 -0.0894 -0.2198 -0.1911
 1249W        W 2146   6.559   4.041   5.334  0.0328 -0.1689  0.2394
 1250W        W 2147   7.092   4.188   3.286  0.0615 -0.1485 -0.1652
 1251W        W 2148   4.393   7.016   4.953 -0.2121 -0.1299  0.0995
 1252W        W 2149   1.069   1.678   5.596 -0.1202 -0.0914 -0.0891
 1253W        W 2150   0.121   5.846   6.397  0.0164 -0.0167  0.0209
 1254W        W 2151   6.015   5.720   2.928 -0.1462 -0.0841 -0.1973
 1255W        W 2152   3.646   2.979   6.106 -0.0559 -0.1887  0.3333
 1256W        W 2153   5.580   5.865   6.813 -0.2211 -0.0996 -0.0129
 1257W        W 2154   2.268   6.553   4.751 -0.0021  0.1737  0.0063
 1258W        W 2155   2.972   5.964   2.966  0.2280 -0.2880  0.0828
 1259W        W 2156   4.827   2.422   3.238  0.2414  0.0343  0.2749
 1260W        W 2157   3.157   0.427   1.368  0.0228  0.3108  0.2698
 1261W        W 2158   4.134   6.180   6.451 -0.2023 -0.1445  0.2559
 1262W        W 2159   6.195   3.729   4.010  0.0089 -0.2516 -0.2391
 1263W        W 2160   1.127   4.846   3.467  0.2733 -0.2448  0.2465
 1264W        W 2161   3.862   3.980   3.191  0.0875  0.0955  0.4053
 1265W        W 2162   0.207   5.115   6.022 -0.0997  0.0726  0.2436
 1266W        W 2163   4.762   4.153   5.883  0.3489 -0.0549 -0.0989
 1267W        W 2164   0.238   6.344   6.256  0.2849 -0.0506  0.0439
 1268W        W 2165   1.861   5.958   2.974  0.0540  0.1078  0.0902
 1269W        W 2166   2.024   4.128   2.287 -0.1657 -0.0496  0.1570
 1270W        W 2167   0.584   4.950   6.385 -0.3562  0.0445  0.2040
 1271W        W 2168   0.011   4.315   3.233 -0.1192  0.0868  0.1307
 1272W        W 2169   2.629   0.202   2.477 -0.1387 -0.2473 -0.1287
 1273W        W 2170   6.076   5.805   6.992  0.0136 -0.0641  0.2706
 1274W        W 2171   3.423   5.582   6.973 -0.0248  0.4122  0.0728
 1275W        W 2172   3.981   6.906   2.644 -0.1497  0.0838 -0.0969
 1276W        W 2173   5.028   0.616   3.282  0.1418 -0.3445 -0.1432
 1277W        W 2174   5.712   5.795   2.542 -0.0428 -0.1340 -0.1088
 1278W        W 2175   2.878   5.962   5.290 -0.2788  0.0614  0.1776
 1279W        W 2176   0.487   5.511   5.162  0.0227  0.1939 -0.0739
 1280W        W 2177   3.329   2.213   7.187 -0.1366 -0.2410 -0.1165
 1281W        W 2178   5.778   7.614   5.512 -0.0569 -0.2059  0.1692
 1282W        W 2179   4.618   1.670   1.949  0.1971 -0.0798 -0.1331
 1283W        W 2180   3.756   5.126   7.390 -0.0541 -0.3708 -0.1404
 1284W        W 2181   1.029   1.959   5.186  0.1317 -0.1995  0.0898
 1285W        W 2182   2.586   5.918   3.224  0.1390  0.1347 -0.0460
 1286W        W 2183   2.816   4.325   5.744  0.2527  0.2183 -0.0443
 1287W        W 2184   6.429   2.261   2.027 -0.1961 -0.1733 -0.1333
 1288W        W 2185   1.066   7.215   0.140 -0.1527 -0.1614 -0.1838
 1289W        W 2186   6.837   5.239   0.418 -0.3750  0.0782  0.1614
 1290W        W 2187   0.573   5.487   1.226  0.1989 -0.1457  0.1530
 1291W        W 2188   2.504   4.767   5.207 -0.1439 -0.0899 -0.0080
 1292W        W 2189   1.993   6.318   5.179 -0.2882  0.1267  0.1018
 1293W        W 2190   2.641   4.722   0.600  0.0215 -0.0446 -0.0710
 1294W        W 2191   2.329   4.164   3.643  0.0142 -0.1187 -0.1964
 1295W        W 2192   5.965   6.268   1.506  0.0656  0.2191  0.3915
 1296W        W 2193   3.784   3.870   4.662  0.0419  0.1620 -0.5615
 1297W        W 2194   3.017   6.725   1.437  0.0458 -0.0637 -0.0081
 1298W        W 2195   4.693   7.282   0.574 -0.0700  0.3690 -0.1803
 1299W        W 2196   4.846   6.387   1.932  0.3193 -0.5083 -0.2264
 1300W        W 2197   6.459   2.869   3.737  0.1440 -0.0689 -0.2728
 1301W        W 2198   1.708   4.864   5.678  0.1026 -0.1097  0.1773
 1302W        W 2199   4.262   3.324   7.450 -0.0293 -0.0150  0.1392
 1303W        W 2200   6.000   7.556   2.570 -0.1229  0.1792  0.0492
 1304W        W 2201   4.534   6.612   3.525 -0.1171 -0.0575  0.1244
 1305W        W 2202   1.058   3.744   7.396 -0.1397  0.0715  0.0940
 1306W        W 2203   1.866   7.578   4.786 -0.0681  0.1872 -0.0884
 1307W        W 2204   5.727   5.657   0.769  0.0229  0.0679 -0.1074
 1308W        W 2205   5.762   2.647   5.638 -0.1512 -0.1177 -0.1690
 1309W        W 2206   7.526   2.679   0.774 -0.0013 -0.2941  0.0355
 1310W        W 2207   4.141   5.689   1.563  0.1472 -0.1740  0.0516
 1311W        W 2208   4.476   2.601   6.412  0.3556  0.0635  0.0201
 1312W        W 2209   0.243   0.859   5.794 -0.1033 -0.0038  0.2990
 1313W        W 2210   5.883   0.359   6.187  0.2409  0.1512 -0.0073
 1314W        W 2211   7.019   6.891   1.754 -0.0203  0.0494 -0.1848
 1315W        W 2212   1.030   5.523   5.974 -0.1903 -0.1843 -0.0514
 1316W        W 2213   4.975   4.876   3.191 -0.0647 -0.2517  0.0956
 1317W        W 2214   5.770   1.929   0.966 -0.0018  0.4467  0.1447
 1318W        W 2215   5.266   7.427   2.598  0.3745  0.1343 -0.0829
 1319W        W 2216   4.538   2.132   7.417 -0.1060 -0.0357  0.0000
 1320W        W 2217   6.246   6.305   4.461  0.3476 -0.0666  0.2698
 1321W        W 2218   3.026   2.483   7.475 -0.1781 -0.1923  0.0242
 1322W        W 2219   1.776   6.980   3.180 -0.0647 -0.0367  0.2079
 1323W        W 2220   7.345   4.866   0.255  0.1914 -0.0540  0.1274
 1324W        W 2221   4.763   6.730   1.570 -0.1445 -0.2540  0.0256
 1325W        W 2222   6.083   7.249   4.587 -0.1336 -0.1272 -0.3199
 1326W        W 2223   4.139   0.524   5.673  0.0379 -0.1197 -0.0049
 1327W        W 2224   0.653   2.094   6.131 -0.1412  0.0703  0.0061
 1328W        W 2225   1.464   6.622   2.495 -0.2201  0.0972  0.1655
 1329W        W 2226   7.508   5.947   5.028  0.1593 -0.0344 -0.0609
 1330W        W 2227   1.686   4.431   4.631  0.2802 -0.0788 -0.2746
 1331W        W 2228   0.283   6.213   3.328  0.2056  0.2845  0.2428
 1332W        W 2229   5.787   4.994   6.466 -0.1678 -0.1666 -0.2247
 1333W        W 2230   0.795   6.687   0.912  0.2375 -0.0658 -0.5019
 1334W        W 2231   1.572   3.715   4.619  0.1677  0.1610 -0.0246
 1335W        W 2232   2.943   3.132   6.857  0.0626  0.0935  0.0609
 1336W        W 2233   5.168   3.424   0.500 -0.1060 -0.0905  0.2161
 1337W        W 2234   5.839   1.037   4.151 -0.0738 -0.0130  0.1923
 1338W        W 2235   2.276   5.170   4.936  0.2605  0.0864  0.2055
 1339W        W 2236   5.196   5.579   5.167 -0.0994  0.1087  0.3100
 1340W        W 2237   4.378   1.097   5.642 -0.0570 -0.2238  0.1807
 1341W        W 2238   4.902   3.396   2.527 -0.3261  0.2294 -0.0845
 1342W        W 2239   0.698   3.408   4.972  0.1971 -0.2078 -0.1022
 1343W        W 2240   5.997   7.099   2.752 -0.1243  0.1650 -0.4221
 1344W        W 2241   1.815   4.855   2.820  0.0484 -0.0425 -0.0948
 1345W        W 2242   4.286   5.101   7.279 -0.0212 -0.1092  0.0743
 1346W        W 2243   2.530   5.656   0.199  0.0686  0.2624 -0.0698
 1347W        W 2244   3.558   3.146   6.898 -0.1555 -0.1284 -0.2658
 1348W        W 2245   3.787   5.780   3.736  0.0331  0.0438 -0.1304
 1349W        W 2246   6.835   1.522   1.364 -0.1135  0.2210 -0.0446
 1350W        W 2247   4.061   3.524   1.681 -0.1192  0.1983  0.0804
 1351W        W 2248   4.184   4.637   0.976 -0.1307  0.2061 -0.0619
 1352W        W 2249   0.266   1.485   4.076 -0.1131  0.1799  0.2037
 1353W        W 2250   3.062   4.707   7.109  0.1100  0.1381 -0.0369
 1354W        W 2251   6.148   5.896   0.679 -0.1287  0.1245  0.1611
 1355W        W 2252   0.219   6.741   6.759  0.2505  0.0881  0.0388
 1356W        W 2253   5.469   3.092   3.184 -0.1800  0.4891  0.2570
 1357W        W 2254   4.816   5.660   0.646 -0.1512  0.0717 -0.3557
 1358W        W 2255   3.788   7.581   6.699  0.0659  0.3556 -0.1012
 1359W        W 2256   1.927   0.491   7.534  0.0924  0.2306  0.3666
 1360W        W 2257   1.416   0.862   7.478  0.3958  0.1107  0.2805
 1361W        W 2258   2.892   6.980   6.028 -0.3317 -0.2802 -0.2598
 1362W        W 2259   0.891   5.681   7.487 -0.0150  0.1522 -0.0844
 1363W        W 2260   7.550   4.374   4.389 -0.0762  0.0188 -0.1429
 1364W        W 2261   6.454   6.669   3.681  0.0715 -0.0773  0.1682
 1365W        W 2262   7.484   1.886   3.334  0.1440 -0.2661 -0.0938
 1366W        W 2263   6.986   1.437   5.694 -0.0573  0.0543  0.0394
 1367W        W 2264   7.552   7.028   1.796 -0.1324  0.0244 -0.0161
 1368W        W 2265   5.143   2.176   7.572  0.0004  0.2201  0.1481
 1369W        W 2266   5.253   3.895   5.843  0.2052  0.1870  0.1651
 1370W        W 2267   6.928   2.089   4.657  0.0196 -0.0511 -0.2610
 1371W        W 2268   1.240   0.487   6.825  0.2130  0.0964 -0.2997
 1372W        W 2269   0.560   0.158   3.799  0.0070  0.0893  0.0973
 1373W        W 2270   4.066   3.589   5.340 -0.1269 -0.1657 -0.1836
 1374W        W 2271   2.803   4.420   2.805  0.0776 -0.1852  0.1713
 1375W        W 2272   0.082   5.176   7.108  0.0718  0.0752  0.3168
 1376W        W 2273   1.487   3.885   6.008 -0.1724  0.1139 -0.0488
 1377W        W 2274   2.180   7.119   4.111 -0.0935  0.2216 -0.0884
 1378W        W 2275   3.684   7.344   1.215  0.0564 -0.3944  0.3458
 1379W        W 2276   3.743   5.894   4.721 -0.0426  0.1380  0.0352
 1380W        W 2277   7.249   5.782   3.031 -0.2083 -0.4043  0.1512
 1381W        W 2278   0.146   2.663   4.745 -0.1175  0.0317  0.0513
 1382W        W 2279   7.343   4.908   4.134 -0.1282  0.0415  0.0266
 1383W        W 2280   3.961   0.964   3.483  0.1469 -0.0674  0.2649
 1384W        W 2281   4.225   4.916   4.413  0.0189 -0.1748 -0.0304
 1385W        W 2282   5.548   2.762   4.142 -0.1002 -0.0475  0.2866
 1386W        W 2283   3.699   6.654   6.797 -0.2253  0.1335 -0.1524
 1387W        W 2284   6.993   1.025   4.825  0.0873  0.0020  0.3735
 1388W        W 2285   6.959   2.140   7.197 -0.0239  0.1612  0.0016
 1389W        W 2286   5.015   6.593   5.383 -0.2288  0.1102  0.3068
 1390W        W 2287   2.529   1.847   4.461 -0.0534  0.1167  0.1753
 1391W        W 2288   3.939   1.937   6.700  0.2431  0.0147  0.5633
 1392W        W 2289   4.160   1.298   0.194 -0.3119 -0.0853 -0.0404
 1393W        W 2290   0.906   5.351   6.406 -0.0992  0.1220 -0.1041
 1394W        W 2291   4.475   7.496   6.305 -0.0062  0.2259  0.2559
 1395W        W 2292   5.464   0.206   2.430 -0.1780 -0.2153  0.1584
 1396W        W 2293   7.062   6.249   3.436  0.1424 -0.0838 -0.1424
 1397W        W 2294   1.934   3.186   5.340  0.1127 -0.2379  0.1025
 1398W        W 2295   5.252   2.427   0.933  0.0982 -0.1268  0.0922
 1399W        W 2296   6.128   1.470   4.046 -0.1501 -0.1935 -0.0705
 1400W        W 2297   1.944   6.212   4.560 -0.2955 -0.1543  0.1808
 1401W        W 2298   5.371   7.156   7.388 -0.2391  0.0088  0.1565
 1402W        W 2299   1.119   3.371   3.391  0.1671 -0.0250 -0.0435
 1403W        W 2300   3.605   5.706   5.355 -0.2350  0.2250  0.0172
 1404W        W 2301   0.697   2.623   6.324  0.0809 -0.4964 -0.1747
 1405W        W 2302   3.862   1.857   3.844 -0.1074  0.0675 -0.1353
 1406W        W 2303   4.826   2.916   6.555 -0.2157  0.0520  0.1039
 1407W        W 2304   1.313   6.563   0.855  0.0351 -0.4433  0.0678
 1408W        W 2305   1.138   6.238   2.794  0.0381  0.1840  0.0637
 1409W        W 2306   5.040   2.471   2.106 -0.0698 -0.1275  0.0036
 1410W        W 2307   5.572   2.075   2.918 -0.1644  0.1214 -0.0165
 1411W        W 2308   4.871   6.527   4.299 -0.1214  0.3065  0.0491
 1412W        W 2309   3.470   6.128   6.997 -0.0666 -0.5023  0.2476
 1413W        W 2310   6.546   5.974   0.928  0.1329  0.3246 -0.0417
 1414W        W 2311   2.266   5.609   6.990  0.0902 -0.0390  0.1893
 1415W        W 2312   1.521   5.962   4.413  0.1588 -0.0749  0.5518
 1416W        W 2313   2.423   6.979   4.545  0.2454  0.1661 -0.1059
 1417W        W 2314   0.479   6.666   5.279  0.1565  0.2181 -0.1056
 1418W        W 2315   4.611   3.104   2.202 -0.2325  0.0476  0.0183
 1419W        W 2316   3.828   3.933   1.503 -0.0549 -0.1310 -0.1859
 1420W        W 2317   4.989   0.460   1.118  0.1045  0.2063 -0.2039
 1421W        W 2318   4.404   1.308   6.046  0.1703  0.0259 -0.1279
 1422W        W 2319   5.603   1.398   7.399  0.0965  0.1785 -0.1362
 1423W        W 2320   0.331   3.857   5.427  0.1718 -0.1860 -0.3081
 1424W        W 2321   1.399   3.797   4.136 -0.0824  0.0282  0.2373
 1425W        W 2322   5.179   4.724   7.074  0.2129 -0.3165  0.0940
 1426W        W 2323   2.869   3.984   6.622 -0.2703  0.0633 -0.2997
 1427W        W 2324   7.228   1.047   5.405 -0.0163  0.1620 -0.0102
 1428W        W 2325   3.916   4.116   7.091  0.5988 -0.0869  0.1632
 1429W        W 2326   4.283   5.302   2.008  0.6709 -0.2051  0.0388
 1430W        W 2327   7.278   1.456   0.397  0.0473 -0.2141  0.1804
 1431W        W 2328   3.091   0.929   6.205 -0.1995 -0.1404 -0.1145
 1432W        W 2329   5.534   4.125   1.378 -0.0533 -0.2530 -0.1126
 1433W        W 2330   2.130   0.802   6.467  0.2484  0.1033  0.3942
 1434W        W 2331   5.211   5.452   3.165  0.1609  0.2038  0.2343
 1435W        W 2332   3.856   2.803   4.036  0.1067 -0.1942 -0.0897
 1436W        W 2333   1.422   2.385   7.079 -0.2355 -0.0912 -0.1744
 1437W        W 2334   4.389   3.929   1.523 -0.3581  0.0131 -0.0033
 1438W        W 2335   6.219   1.588   0.286 -0.1879 -0.1843 -0.2989
 1439W        W 2336   1.379   0.309   5.505 -0.0686 -0.0771 -0.1104
 1440W        W 2337   6.737   1.592   0.442 -0.1121 -0.0470  0.2150
 1441W        W 2338   4.587   1.521   6.496  0.2233  0.2936 -0.0165
 1442W        W 2339   0.168   4.125   0.805  0.0963  0.1968  0.2562
 1443W        W 2340   2.364   3.697   7.263 -0.0641  0.0631  0.1203
 1444W        W 2341   4.259   7.201   5.818 -0.1208  0.0738 -0.1393
 1445W        W 2342   6.048   4.956   1.065 -0.0469  0.1191 -0.0132
 1446W        W 2343   1.069   5.183   0.032  0.2295 -0.1860 -0.2312
 1447W        W 2344   2.639   0.179   5.929 -0.0753 -0.2251 -0.0740
 1448W        W 2345   0.592   6.541   5.970  0.0433 -0.0099  0.2130
 1449W        W 2346   6.839   1.842   5.960 -0.2433 -0.1252  0.1091
 1450W        W 2347   5.918   5.446   0.321 -0.3654 -0.3132 -0.3280
 1451W        W 2348   3.756   5.681   0.514 -0.0860 -0.4035 -0.1849
 1452W        W 2349   2.885   6.274   2.581 -0.1460 -0.1109  0.0096
 1453W        W 2350   6.823   1.794   5.304  0.0646  0.2223  0.1461
 1454W        W 2351   3.830   5.034   4.661 -0.0868  0.1862  0.1282
 1455W        W 2352   0.818   3.552   0.559  0.1393  0.1531  0.0393
 1456W        W 2353   7.297   7.209   1.380  0.0060  0.2964  0.1357
 1457W        W 2354   3.711   4.355   6.681 -0.0273 -0.0293  0.0844
 1458W        W 2355   6.094   7.498   3.154  0.3915 -0.3579 -0.1378
 1459W        W 2356   4.427   0.476   1.059  0.2508  0.2023 -0.0969
 1460W        W 2357   2.564   6.686   0.839 -0.3256  0.1244 -0.1101
 1461W        W 2358   7.358   0.536   5.939  0.2549 -0.0030  0.0822
 1462W        W 2359   1.160   4.210   5.117 -0.1174 -0.1795 -0.3714
 1463W        W 2360   1.927   3.660   6.806  0.0131 -0.1617  0.0266
 1464W        W 2361   0.313   7.623   4.408 -0.0944  0.1575  0.0540
 1465W        W 2362   1.521   2.012   5.438 -0.0594  0.0280 -0.1235
 1466W        W 2363   0.025   6.439   5.144  0.0282 -0.1110  0.2360
 1467W        W 2364   1.351   5.993   1.000 -0.0849  0.0378  0.0952
 1468W        W 2365   7.065   6.275   0.425 -0.1019  0.0377 -0.0352
 1469W        W 2366   4.717   0.958   6.154  0.1691  0.2912  0.3056
 1470W        W 2367   2.671   5.491   5.758 -0.2781 -0.0783  0.1017
 1471W        W 2368   2.994   5.076   5.380  0.1328 -0.1463 -0.1017
 1472W        W 2369   1.799   6.212   6.603 -0.0156 -0.0413  0.0180
 1473W        W 2370   2.797   6.323   4.872  0.0232  0.1654 -0.5777
 1474W        W 2371   6.249   6.430   1.002 -0.0624 -0.0100 -0.0861
 1475W        W 2372   5.233   2.178   3.469 -0.3412 -0.2181  0.2567
 1476W        W 2373   5.901   6.017   4.283 -0.1116 -0.0460 -0.0960
 1477W        W 2374   6.483   5.529   3.049  0.1887 -0.3522  0.1141
 1478W        W 2375   3.967   7.584   4.107  0.0101 -0.2108 -0.1145
 1479W        W 2376   4.805   0.482   0.633  0.0086 -0.1963 -0.0181
 1480W        W 2377   7.207   6.690   2.224  0.3301 -0.2228 -0.0917
 1481W        W 2378   6.443   0.896   4.941  0.0749  0.1139  0.1321
 1482W        W 2379   5.223   2.895   0.703 -0.1367 -0.1888 -0.0799
 1483W        W 2380   5.676   5.342   2.868  0.0163  0.0741 -0.0302
 1484W        W 2381   4.170   0.927   1.143  0.1840  0.0754 -0.2248
 1485W        W 2382   4.485   6.756   2.437 -0.1519  0.1168  0.2053
 1486W        W 2383   1.125   7.212   5.654  0.0750 -0.3495 -0.0335
 1487W        W 2384   3.650   4.781   2.767 -0.4147  0.1169  0.3268
 1488W        W 2385   0.648   6.166   0.935  0.1019 -0.0690  0.1837
 1489W        W 2386   6.310   1.670   2.385 -0.2280 -0.2036 -0.2121
 1490W        W 2387   7.428   7.571   2.527 -0.0359  0.0081 -0.1740
 1491W        W 2388   2.747   5.819   1.193 -0.1522  0.2181  0.0275
 1492W        W 2389   0.863   3.927   1.616  0.1519 -0.3108 -0.3964
 1493W        W 2390   1.843   7.541   4.247 -0.0965  0.0017 -0.1681
 1494W        W 2391   6.360   0.273   6.139 -0.1293  0.0840 -0.1305
 1495W        W 2392   7.080   0.147   7.015 -0.2079  0.1546 -0.1448
 1496W        W 2393   0.912   0.611   5.557 -0.2058  0.0321 -0.1869
 1497W        W 2394   3.961   7.357   2.957 -0.0015 -0.0057  0.0306
 1498W        W 2395   7.029   2.204   6.716 -0.0099 -0.0884  0.3560
 1499W        W 2396   5.979   1.108   2.381 -0.2213  0.0288 -0.0273
 1500W        W 2397   3.891   2.586   0.270 -0.1620 -0.1644  0.1459
 1501W        W 2398   1.380   5.563   6.770  0.0473 -0.1932  0.1241
 1502W        W 2399   0.176   2.988   4.258 -0.1474 -0.3031  0.1657
 1503W        W 2400   4.516   4.649   7.223 -0.0511 -0.0310 -0.0318
 1504W        W 2401   5.416   3.504   4.049  0.3733 -0.0407 -0.0581
 1505W        W 2402   4.137   6.539   3.211 -0.2561  0.6120 -0.0929
 1506W        W 2403   2.174   2.193   0.124 -0.1241 -0.1361  0.0788
 1507W        W 2404   4.423   5.129   0.146  0.1067  0.1742  0.3932
 1508W        W 2405   5.847   4.077   1.883  0.1439  0.1375  0.0859
 1509W        W 2406   6.028   6.897   3.319 -0.0464 -0.0526 -0.1762
 1510W        W 2407   4.840   7.395   7.269 -0.0576  0.1956 -0.4251
 1511W        W 2408   1.915   6.112   4.057 -0.4585  0.1826  0.0681
 1512W        W 2409   7.453   3.730   7.248 -0.1945  0.0314 -0.0894
 1513W        W 2410   4.176   7.096   2.201  0.0095 -0.1073 -0.0949
 1514W        W 2411   1.016   6.600   0.102 -0.0638  0.0607 -0.0988
 1515W        W 2412   6.106   2.295   4.971  0.1935 -0.2060  0.2579
 1516W        W 2413   3.397   6.052   5.674  0.2249  0.0306 -0.0161
 1517W        W 2414   0.243   3.906   3.420  0.1850 -0.0440  0.1803
 1518W        W 2415   4.671   6.473   7.621  0.1590  0.0579  0.0127
 1519W        W 2416   1.120   4.098   6.981 -0.2501  0.0358 -0.2547
 1520W        W 2417   7.524   4.363   6.569 -0.0867 -0.0553  0.3644
 1521W        W 2418   1.268   6.760   6.385 -0.0097 -0.1406  0.2006
 1522W        W 2419   4.517   3.149   7.003  0.1144  0.1640  0.0084
 1523W        W 2420   0.949   6.960   3.154  0.2442  0.0491 -0.0292
 1524W        W 2421   6.929   3.748   3.496  0.0642  0.1762  0.1095
 1525W        W 2422   1.726   6.359   1.183 -0.1884 -0.2164  0.2203
 1526W        W 2423   6.301   7.583   5.769  0.0504  0.1326  0.1077
 1527W        W 2424   0.831   0.272   6.512 -0.3470 -0.2686  0.1591
 1528W        W 2425   2.722   6.551   3.103  0.1249  0.0736 -0.1029
 1529W        W 2426   7.279   4.254   0.951 -0.0969 -0.0092 -0.2738
 1530W        W 2427   2.415   0.271   6.688 -0.5080  0.2252  0.1713
 1531W        W 2428   2.671   5.022   3.695  0.0416 -0.2011  0.3805
 1532W        W 2429   0.930   1.600   6.760 -0.2001  0.0989  0.0515
 1533W        W 2430   7.053   2.994   6.895  0.0378 -0.1761 -0.2536
 1534W        W 2431   1.155   2.939   5.681 -0.2922 -0.0744  0.1147
 1535W        W 2432   1.754   1.086   6.862  0.2732  0.3619 -0.2257
 1536W        W 2433   2.792   3.763   1.042  0.1112 -0.0871 -0.3435
 1537W        W 2434   1.339   6.624   3.009 -0.2507 -0.1732  0.1548
 1538W        W 2435   7.371   6.628   5.962  0.2987  0.2283 -0.2406
 1539W        W 2436   4.813   5.937   2.222 -0.2106  0.0491  0.1100
 1540W        W 2437   4.271   3.721   7.076 -0.0540  0.2243  0.0819
 1541W        W 2438   2.636   7.328   2.352 -0.0218 -0.0003  0.2196
 1542W        W 2439   7.094   1.969   3.879 -0.1516  0.1619 -0.0860
 1543W        W 2440   4.006   6.962   3.316  0.0943  0.0771 -0.1907
 1544W        W 2441   5.820   6.682   6.357  0.0385  0.1385  0.0569
 1545W        W 2442   4.953   1.006   2.976 -0.0552 -0.0215  0.1176
 1546W        W 2443   0.237   2.699   5.665 -0.0068 -0.0113  0.1052
 1547W        W 2444   4.027   7.423   3.510  0.0991 -0.0640 -0.0783
 1548W        W 2445   2.595   4.813   4.594 -0.0403  0.1750  0.0032
 1549W        W 2446   5.789   4.719   2.724  0.1423  0.0143 -0.0763
 1550W        W 2447   4.419   0.857   1.549  0.1673  0.0661  0.1978
 1551W        W 2448   2.969   0.497   4.321 -0.2802 -0.1018 -0.0439
 1552W        W 2449   4.686   5.641   6.473  0.0585 -0.1821  0.0669
 1553W        W 2450   7.568   3.414   3.475  0.0028 -0.1327 -0.0108
 1554W        W 2451   4.423   3.023   0.216 -0.2573  0.1521 -0.2046
 1555W        W 2452   5.395   7.066   3.165  0.1409 -0.1240 -0.3050
 1556W        W 2453   6.662   4.906   5.409  0.0459  0.2914  0.1349
 1557W        W 2454   4.006   6.001   5.448 -0.0219 -0.0609 -0.1034
 1558W        W 2455   3.102   6.963   0.636 -0.0242  0.2435  0.0884
 1559W        W 2456   5.216   3.525   5.448  0.0727 -0.1444  0.3864
 1560W        W 2457   1.492   2.926   6.963  0.3358  0.1842 -0.1887
 1561W        W 2458   5.510   5.776   4.401 -0.3227 -0.1384 -0.1362
 1562W        W 2459   0.896   6.815   5.518  0.2019 -0.0100  0.1487
 1563W        W 2460   0.924   2.337   7.288  0.1628  0.2608 -0.0068
 1564W        W 2461   3.524   0.022   5.761 -0.2598 -0.0374 -0.0178
 1565W        W 2462   6.846   1.347   6.278 -0.3270 -0.1202  0.1494
 1566W        W 2463   6.441   4.557   3.382  0.1975  0.1865 -0.1893
 1567W        W 2464   7.254   0.297   6.394 -0.4193 -0.1126 -0.2032
 1568W        W 2465   7.085   4.510   7.561 -0.2706  0.1496  0.0633
 1569W        W 2466   0.095   2.609   2.927 -0.1259 -0.0282  0.0667
 1570W        W 2467   4.624   5.130   0.546 -0.2541  0.1240  0.0045
 1571W        W 2468   6.569   1.346   4.748 -0.0783 -0.0140  0.1369
 1572W        W 2469   0.622   1.118   6.322  0.2097 -0.0894 -0.0363
 1573W        W 2470   1.188   6.361   2.006 -0.2500  0.2110  0.0096
 1574W        W 2471   2.660   4.387   4.896 -0.1857  0.1685 -0.0431
 1575W        W 2472   3.038   5.174   0.607  0.2015 -0.0610  0.2204
 1576W        W 2473   6.118   0.715   4.494 -0.3419  0.0520  0.0455
 1577W        W 2474   4.218   1.497   1.018  0.0303 -0.1546 -0.1697
 1578W        W 2475   5.993   6.902   0.908 -0.0288 -0.0667 -0.1458
 1579W        W 2476   4.076   2.058   4.750  0.0109 -0.0174 -0.2573
 1580W        W 2477   3.137   4.653   2.535 -0.0986 -0.2035  0.0082
 1581W        W 2478   0.915   3.923   1.005 -0.0388  0.1604  0.1580
 1582W        W 2479   2.294   6.239   6.555  0.0800  0.0898  0.0115
 1583W        W 2480   5.733   1.004   1.933  0.0350 -0.1041 -0.0690
 1584W        W 2481   0.751   3.901   4.579 -0.0716 -0.1294 -0.4318
 1585W        W 2482   5.920   0.916   4.967 -0.2674  0.2605 -0.1035
 1586W        W 2483   4.846   6.316   0.531  0.0463 -0.2958 -0.1185
 1587W        W 2484   0.646   6.411   6.780 -0.0440 -0.0076  0.1377
 1588W        W 2485   5.120   2.960   2.261  0.0376 -0.1228  0.1401
 1589W        W 2486   3.200   6.243   1.566 -0.0200 -0.4245 -0.0220
 1590W        W 2487   5.638   7.288   2.283  0.1781 -0.4280 -0.0158
 1591W        W 2488   7.263   2.667   1.213 -0.2306  0.0686  0.1035
 1592W        W 2489   7.173   1.842   6.365  0.1343 -0.1833 -0.0543
 1593W        W 2490   4.742   4.718   0.294  0.0718  0.0955 -0.0650
 1594W        W 2491   3.228   4.975   1.053  0.3021 -0.0421 -0.0043
 1595W        W 2492   0.529   3.573   0.966  0.2080  0.1090  0.0709
 1596W        W 2493   4.867   5.560   7.552  0.0759  0.0615 -0.2784
 1597W        W 2494   2.885   1.916   5.331 -0.1709 -0.2707 -0.0215
 1598W        W 2495   6.138   4.136   4.310 -0.1043  0.3346  0.0356
 1599W        W 2496   7.084   4.912   3.146 -0.2436 -0.0218  0.1103
 1600W        W 2497   1.721   5.183   0.668 -0.2167  0.0069 -0.2504
 1601W        W 2498   5.515   4.165   5.470  0.0216  0.0631  0.0545
 1602W        W 2499   7.491   1.111   3.755  0.2447 -0.3704  0.3987
 1603W        W 2500   7.268   0.192   5.022  0.0338 -0.0377  0.0322
 1604W        W 2501   2.555   7.319   3.765  0.1019  0.2843 -0.4242
 1605W        W 2502   2.800   6.808   6.552  0.2187  0.1504 -0.2776
 1606W        W 2503   3.052   7.257   1.996  0.0809  0.0365  0.2411
 1607W        W 2504   3.845   7.243   5.622  0.1236  0.1367  0.0134
 1608W        W 2505   5.510   4.813   5.630 -0.0019 -0.0114 -0.1215
 1609W        W 2506   4.978   0.063   5.256 -0.0855 -0.2886  0.3413
 1610W        W 2507   2.889   0.599   3.657  0.0758  0.0732  0.0166
 1611W        W 2508   1.114   3.291   5.283 -0.0939  0.3147  0.1334
 1612W        W 2509   5.115   4.296   2.596  0.1206 -0.0169 -0.0209
 1613W        W 2510   4.464   1.245   2.337  0.0018  0.4651 -0.0501
 1614W        W 2511   7.107   1.863   1.192 -0.0598  0.0406 -0.0879
 1615W        W 2512   1.230   5.534   4.366 -0.0008 -0.1475 -0.3853
 1616W        W 2513   7.591   5.498   3.715 -0.2589  0.0257 -0.0366
 1617W        W 2514   0.513   7.554   1.030 -0.4095  0.0518 -0.0643
 1618W        W 2515   2.407   1.900   6.730  0.0999 -0.3292  0.4004
 1619W        W 2516   0.657   5.633   3.459 -0.2680  0.2060 -0.0028
 1620W        W 2517   4.466   0.843   3.224  0.3686 -0.1753 -0.2767
 1621W        W 2518   2.438   4.382   0.946 -0.0231  0.3059 -0.0433
 1622W        W 2519   2.674   7.218   6.848 -0.0304  0.1908  0.0256
 1623W        W 2520   5.019   0.245   5.700  0.2304 -0.2049  0.0753
 1624W        W 2521   3.543   0.475   5.433  0.2304  0.1979 -0.2614
 1625W        W 2522   2.182   7.416   6.778  0.1004 -0.3325  0.0286
 1626W        W 2523   6.890   4.470   5.244  0.1400  0.1065  0.2457
 1627W        W 2524   7.477   0.163   7.372  0.1253  0.0980  0.0744
 1628W        W 2525   5.471   5.373   0.130 -0.0163  0.0383 -0.2039
 1629W        W 2526   7.510   2.556   5.256 -0.4718 -0.2935  0.1636
 1630W        W 2527   4.900   0.913   2.433 -0.1140 -0.1543  0.1013
 1631W        W 2528   4.818   4.980   5.125  0.1646 -0.1158 -0.0511
 1632W        W 2529   3.700   2.440   5.857  0.2359  0.0434 -0.0081
 1633W        W 2530   5.023   4.095   6.308  0.1970 -0.0234 -0.0189
 1634W        W 2531   3.189   2.281   5.788  0.1999  0.5177 -0.0818
 1635W        W 2532   6.371   4.171   3.850 -0.1511  0.0328 -0.0115
 1636W        W 2533   7.352   4.355   6.087 -0.1188 -0.0608  0.0478
 1637W        W 2534   5.120   5.010   0.683 -0.2594  0.0897  0.3987
 1638W        W 2535   5.065   6.329   4.741  0.0177  0.1324  0.1768
 1639W        W 2536   4.344   1.794   0.166 -0.0227 -0.1308 -0.0908
 1640W        W 2537   5.972   1.674   3.039 -0.1446 -0.0094 -0.0002
 1641W        W 2538   3.922   0.060   7.201  0.1975  0.0965 -0.0968
 1642W        W 2539   4.652   3.892   6.771 -0.0821  0.0251  0.0803
 1643W        W 2540   3.359   1.903   6.843  0.1549 -0.2760 -0.3195
 1644W        W 2541   2.333   5.228   5.453  0.0056 -0.0831 -0.0000
 1645W        W 2542   0.703   4.509   5.013 -0.1805  0.0790 -0.0564
 1646W        W 2543   7.151   2.517   5.649  0.2989 -0.2077 -0.2296
 1647W        W 2544   5.827   2.154   5.514 -0.0929  0.0206 -0.2294
 1648W        W 2545   6.112   0.106   4.468  0.1900 -0.0633 -0.1559
 1649W        W 2546   1.389   5.249   4.029 -0.0458  0.2756  0.0402
 1650W        W 2547   2.938   4.483   4.488  0.0653 -0.1293  0.1153
 1651W        W 2548   1.736   4.897   6.946 -0.2033  0.1548  0.3201
 1652W        W 2549   2.444   3.954   0.610  0.2108  0.2351  0.1014
 1653W        W 2550   1.612   5.660   0.582 -0.2031  0.0150 -0.3380
 1654W        W 2551   4.343   1.050   6.512 -0.1088 -0.2024 -0.0413
 1655W        W 2552   1.426   6.401   1.588 -0.0914 -0.2586 -0.0194
 1656W        W 2553   2.844   3.289   5.694  0.0288  0.1069 -0.1579
 1657W        W 2554   6.596   4.093   3.270 -0.0998 -0.1354 -0.2494
 1658W        W 2555   4.709   0.743   7.340 -0.2200  0.5948 -0.0023
 1659W        W 2556   1.509   3.954   6.642  0.0049  0.1294 -0.0854
 1660W        W 2557   3.185   1.998   4.961  0.0673  0.0353  0.1271
 1661W        W 2558   4.834   2.233   0.759 -0.1782 -0.0822  0.0082
 1662W        W 2559   5.008   1.489   6.117  0.2059  0.0761  0.0218
 1663W        W 2560   0.790   5.824   4.362 -0.0540 -0.1436 -0.1085
 1664W        W 2561   5.705   0.989   1.431 -0.0064  0.0012  0.1337
 1665W        W 2562   4.628   6.042   0.214 -0.0734 -0.0517  0.1353
 1666W        W 2563   2.688   0.493   0.222 -0.3608  0.1781  0.0236
 1667W        W 2564   6.648   1.977   6.377  0.0735  0.1667  0.0113
 1668W        W 2565   6.304   0.841   7.317  0.2085 -0.0650 -0.0465
 1669W        W 2566   3.898   0.960   7.605  0.2295  0.2043 -0.2404
 1670W        W 2567   4.933   7.571   6.108  0.0558  0.1782  0.1171
 1671W        W 2568   1.660   5.195   1.544 -0.1105 -0.3577  0.0986
 1672W        W 2569   2.879   1.487   6.211 -0.0486  0.1118  0.1189
 1673W        W 2570   3.736   5.402   6.534 -0.0428 -0.0499  0.1092
 1674W        W 2571   6.102   2.510   2.447 -0.3614 -0.3535 -0.1076
 1675W        W 2572   5.108   0.064   0.451  0.0027 -0.2760 -0.1647
 1676W        W 2573   7.080   6.835   0.679  0.2268 -0.1736 -0.2955
 1677W        W 2574   1.553   7.263   6.191  0.3506 -0.0884 -0.0116
 1678W        W 2575   0.205   7.524   5.767 -0.0761 -0.0791  0.0307
 1679W        W 2576   7.377   0.580   3.766  0.1732  0.0391 -0.0981
 1680W        W 2577   0.723   6.299   5.522  0.1353 -0.1046 -0.1949
 1681W        W 2578   4.238   6.865   0.658  0.2550 -0.1793 -0.2299
 1682W        W 2579   0.357   7.333   3.158 -0.0739  0.2641  0.0145
 1683W        W 2580   0.207   3.749   5.994  0.1982 -0.1038 -0.1235
 1684W        W 2581   1.660   6.134   2.535  0.1761 -0.1858  0.2541
 1685W        W 2582   4.168   2.282   6.147  0.3674 -0.0757  0.3246
 1686W        W 2583   1.841   3.510   0.457 -0.1816 -0.1058  0.1104
 1687W        W 2584   4.622   7.542   1.715  0.1463  0.1164 -0.1213
 1688W        W 2585   6.956   6.727   5.049 -0.0582  0.0442 -0.0428
 1689W        W 2586   2.017   4.225   6.725  0.0893  0.2544 -0.2653
 1690W        W 2587   5.580   5.771   3.940 -0.1209  0.0109  0.2104
 1691W        W 2588   5.027   1.686   5.573 -0.3426 -0.1589  0.0077
 1692W        W 2589   1.541   1.404   6.250 -0.0856  0.2868 -0.2534
 1693W        W 2590   5.764   5.304   3.981  0.2082 -0.1424  0.2863
 1694W        W 2591   3.339   0.397   7.032 -0.0606 -0.0492  0.4057
 1695W        W 2592   3.613   3.343   5.259  0.1917  0.2494  0.2278
 1696W        W 2593   2.461   4.153   2.041 -0.0442 -0.0980  0.2340
 1697W        W 2594   2.613   7.547   3.337  0.1991  0.0185  0.0664
 1698W        W 2595   5.007   5.160   0.176  0.1354 -0.2945 -0.1118
 1699W        W 2596   2.074   4.772   4.385 -0.3326  0.1400 -0.0819
 1700W        W 2597   5.478   2.474   5.255  0.0012 -0.0100  0.1419
 1701W        W 2598   0.416   1.207   7.529  0.2105 -0.4753  0.0980
 1702W        W 2599   0.006   7.442   1.096 -0.1674 -0.3495 -0.2831
 1703W        W 2600   5.448   2.266   6.784  0.0210  0.0465  0.1334
 1704W        W 2601   7.534   6.125   5.570  0.4082 -0.2363  0.0797
 1705W        W 2602   1.092   3.589   1.878  0.3266  0.1564 -0.0968
 1706W        W 2603   2.373   7.280   1.285  0.0981 -0.1040 -0.3956
 1707W        W 2604   3.535   0.430   1.072 -0.1379  0.1050 -0.1493
 1708W        W 2605   5.109   1.459   0.381 -0.2286 -0.1148  0.0965
 1709W        W 2606   6.480   1.650   5.624 -0.2377 -0.0092 -0.0250
 1710W        W 2607   7.212   1.764   2.951 -0.3043 -0.1958  0.1598
 1711W        W 2608   6.020   1.269   7.232 -0.2948  0.3018 -0.2107
 1712W        W 2609   1.122   4.321   3.181 -0.0214  0.1736  0.0812
 1713W        W 2610   0.216   3.115   0.772 -0.1088  0.1136 -0.1305
 1714W        W 2611   0.153   1.379   7.114  0.0939 -0.0064 -0.1364
 1715W        W 2612   3.991   0.072   5.766  0.0553  0.1665 -0.0217
 1716W        W 2613   3.470   5.083   6.962  0.2051 -0.1149 -0.0071
 1717W        W 2614   7.129   3.208   6.407 -0.0389 -0.2286 -0.2265
 1718W        W 2615   3.970   5.111   6.928  0.1707  0.3457 -0.0780
 1719W        W 2616   3.990   1.650   5.442 -0.1525 -0.3545  0.0187
 1720W        W 2617   2.981   5.132   6.722  0.0353 -0.0211  0.0803
 1721W        W 2618   3.425   5.218   3.832  0.0175  0.1463  0.0517
 1722W        W 2619   3.016   3.420   4.393  0.0232  0.1510  0.1304
 1723W        W 2620   0.617   6.682   0.397 -0.1045  0.2881 -0.1549
 1724W        W 2621   5.043   3.654   1.400  0.1864  0.1505  0.0319
 1725W        W 2622   1.127   4.301   6.538 -0.1136  0.0818  0.2014
 1726W        W 2623   4.464   2.091   6.495 -0.1991  0.1629  0.1891
 1727W        W 2624   0.150   4.562   1.072 -0.2440 -0.2555  0.2559
 1728W        W 2625   5.122   0.618   0.274 -0.3088 -0.1891 -0.1938
 1729W        W 2626   4.404   2.209   4.399  0.3942  0.1159 -0.2448
 1730W        W 2627   3.390   1.719   0.162 -0.4432 -0.0292 -0.0014
 1731W        W 2628   4.436   3.404   5.588 -0.0322 -0.3238 -0.0828
 1732W        W 2629   6.201   2.538   5.895 -0.2441  0.0725 -0.3302
 1733W        W 2630   6.372   5.346   1.966  0.0158  0.3170 -0.0016
 1734W        W 2631   2.864   0.792   4.841 -0.0309 -0.1176 -0.3336
 1735W        W 2632   4.742   2.109   0.248 -0.3253 -0.1907 -0.0310
 1736W        W 2633   4.475   3.558   4.691 -0.2009  0.2593 -0.0998
 1737W        W 2634   1.279   4.251   7.443  0.0530  0.1460  0.0462
 1738W        W 2635   3.958   5.456   0.106 -0.1347  0.3825  0.2001
 1739W        W 2636   3.200   6.751   1.883 -0.1528 -0.0176  0.0884
 1740W        W 2637   4.376   4.138   5.532 -0.1166 -0.0093  0.1293
 1741W        W 2638   0.689   3.811   4.098  0.0542  0.1154 -0.0555
 1742W        W 2639   0.564   0.027   6.158 -0.0233 -0.0947  0.2203
 1743W        W 2640   2.656   5.217   6.163 -0.3507 -0.0325 -0.1590
 1744W        W 2641   1.085   3.405   2.426 -0.0449  0.1431 -0.1688
 1745W        W 2642   4.950   7.226   1.616  0.0405  0.2483 -0.4507
 1746W        W 2643   4.414   2.096   3.135  0.1315 -0.0917 -0.0484
 1747W        W 2644   5.970   6.251   7.582 -0.2632 -0.2398 -0.3841
 1748W        W 2645   3.556   6.763   3.184 -0.0461  0.0594  0.1958
 1749W        W 2646   1.454   1.459   4.550 -0.0870 -0.0105  0.2823
 1750W        W 2647   4.129   1.734   2.852  0.0807  0.2984 -0.1358
 1751W        W 2648   6.563   5.788   6.788  0.2722  0.1704 -0.0693
 1752W        W 2649   0.071   4.059   0.305 -0.1222  0.0273 -0.0376
 1753W        W 2650   0.207   6.144   7.384  0.0616 -0.1940  0.1121
 1754W        W 2651   3.122   5.945   6.550 -0.1101  0.2063 -0.2435
 1755W        W 2652   0.694   7.115   2.298 -0.1012 -0.0888  0.1078
 1756W        W 2653   7.584   5.558   6.808 -0.2303 -0.0416  0.2053
 1757W        W 2654   5.298   5.550   2.106  0.0768 -0.0901  0.1378
 1758W        W 2655   5.534   6.755   0.095  0.0918  0.1931  0.1575
 1759W        W 2656   4.172   7.325   1.459  0.2361  0.2592 -0.0286
 1760W        W 2657   6.303   0.638   0.296  0.1053 -0.2974  0.0639
 1761W        W 2658   4.960   3.470   4.369  0.0056  0.1390  0.1669
 1762W        W 2659   3.375   1.656   0.656 -0.3233 -0.2614  0.0754
 1763W        W 2660   0.571   3.635   6.605 -0.2147 -0.1148  0.4502
 1764W        W 2661   1.732   6.185   0.690  0.1557 -0.1995 -0.1024
 1765W        W 2662   7.560   3.217   0.396  0.1358  0.2223  0.0515
 1766W        W 2663   6.542   0.954   6.185 -0.0727  0.0611 -0.2359
 1767W        W 2664   3.073   1.968   7.539  0.3320  0.1806  0.2466
 1768W        W 2665   3.904   1.437   3.380  0.0297 -0.0519  0.0511
 1769W        W 2666   5.065   5.281   4.751  0.0293  0.0348 -0.2010
 1770W        W 2667   4.567   6.161   3.160 -0.1263  0.1730  0.0435
 1771W        W 2668   4.429   5.280   6.299 -0.0196  0.3270 -0.1735
 1772W        W 2669   3.700   0.758   4.935  0.2250 -0.1858 -0.3899
 1773W        W 2670   1.499   6.386   5.266  0.2735  0.2489 -0.0390
 1774W        W 2671   2.918   6.940   5.535 -0.0445  0.0085  0.3765
 1775W        W 2672   6.087   1.791   5.395 -0.1090 -0.0255 -0.0656
 1776W        W 2673   6.539   4.834   1.688 -0.1736 -0.0071 -0.2064
 1777W        W 2674   1.543   3.342   5.618  0.0682 -0.3686 -0.0083
 1778W        W 2675   5.722   4.229   2.661 -0.0067  0.2708 -0.2063
 1779W        W 2676   2.164   5.937   3.714 -0.0505 -0.0839  0.2832
 1780W        W 2677   5.948   3.408   3.252 -0.0866 -0.1076 -0.0868
 1781W        W 2678   4.407   0.908   0.124  0.3151  0.0891 -0.0658
 1782W        W 2679   4.666   0.310   2.001 -0.2127  0.0547 -0.2569
 1783W        W 2680   2.455   6.755   3.899  0.1418 -0.3986 -0.2270
 1784W        W 2681   2.951   4.324   6.225  0.2279 -0.0763 -0.0926
 1785W        W 2682   0.951   5.849   3.065  0.1012 -0.3518  0.1125
 1786W        W 2683   2.459   0.530   5.539  0.2009 -0.0342  0.0039
 1787W        W 2684   4.860   6.650   6.293  0.2292  0.4418 -0.3293
 1788W        W 2685   6.515   2.629   1.612 -0.0527  0.0795 -0.1496
 1789W        W 2686   6.953   1.791   3.412 -0.0320 -0.0985 -0.2707
 1790W        W 2687   3.928   1.965   0.884 -0.2279  0.2439  0.0203
 1791W        W 2688   5.874   6.276   2.076  0.2503 -0.1345 -0.0489
 1792W        W 2689   4.970   6.311   3.812 -0.1098 -0.0417 -0.1888
 1793W        W 2690   3.593   0.758   2.436 -0.1231 -0.0881  0.1358
 1794W        W 2691   7.584   3.062   1.879  0.0098  0.0081 -0.1664
 1795W        W 2692   3.364   5.984   2.342  0.2194  0.1074  0.1003
 1796W        W 2693   5.382   4.323   4.015 -0.0696  0.0697  0.0231
 1797W        W 2694   5.835   5.315   7.422  0.0502 -0.2879 -0.3496
 1798W        W 2695   4.774   2.181   5.472  0.0512  0.0070  0.0723
 1799W        W 2696   7.187   7.360   7.598 -0.1026  0.1399  0.2414
 1800W        W 2697   2.327   6.518   1.850  0.0908  0.1942  0.3792
 1801W        W 2698   4.149   2.255   3.923 -0.0214  0.3700 -0.0205
 1802W        W 2699   3.003   5.415   1.014 -0.2203 -0.0420 -0.0393
 1803W        W 2700   5.531   3.709   1.860 -0.1770 -0.0897 -0.0706
 1804W        W 2701   6.934   2.310   0.916 -0.1437  0.2418 -0.0318
 1805W        W 2702   5.338   6.556   0.711 -0.2397  0.2993 -0.3138
 1806W        W 2703   1.855   6.476   2.919 -0.0284  0.0885 -0.2548
 1807W        W 2704   5.852   4.588   6.135  0.0978 -0.0320  0.4098
 1808W        W 2705   4.176   6.533   7.554  0.0113  0.1933  0.0578
 1809W        W 2706   3.073   0.863   6.965 -0.1997 -0.2675  0.2265
 1810W        W 2707   2.968   6.734   4.073 -0.0451  0.0527 -0.3266
 1811W        W 2708   1.785   6.765   6.406  0.1856 -0.0521 -0.3012
 1812W        W 2709   0.417   6.688   3.181  0.3977  0.0251  0.2171
 1813W        W 2710   4.555   5.952   5.459  0.2103 -0.0287 -0.2226
 1814W        W 2711   5.900   2.049   4.590 -0.2657 -0.0135 -0.1934
 1815W        W 2712   3.489   7.201   1.641  0.5240  0.0320 -0.1896
 1816W        W 2713   1.750   7.109   6.720 -0.0788 -0.0409 -0.2324
 1817W        W 2714   6.342   2.406   7.268  0.0881 -0.0974 -0.0907
 1818W        W 2715   5.242   7.060   2.213  0.1393  0.2055 -0.2154
 1819W        W 2716   5.402   3.193   4.440 -0.1344 -0.1590 -0.2811
 1820W        W 2717   7.541   6.025   0.667 -0.3052  0.0457 -0.0025
 1821W        W 2718   5.269   3.314   0.975 -0.0586  0.1305 -0.2190
 1822W        W 2719   2.801   5.785   4.845  0.3002 -0.0945  0.1895
 1823W        W 2720   6.630   3.541   5.408  0.0708 -0.0364  0.1039
 1824W        W 2721   7.514   2.609   0.127 -0.1784  0.1981  0.0678
 1825W        W 2722   0.499   5.571   6.589 -0.0954  0.0565 -0.1843
 1826W        W 2723   3.320   6.680   6.390  0.2099  0.2308  0.2011
 1827W        W 2724   2.055   4.462   6.187 -0.1152 -0.3359 -0.0213
 1828W        W 2725   1.925   1.575   6.662  0.3020  0.1194 -0.0924
 1829W        W 2726   7.322   3.675   0.187  0.2469 -0.1138 -0.2125
 1830W        W 2727   4.160   7.258   4.513 -0.1214  0.0336  0.0371
 1831W        W 2728   2.863   6.108   7.099 -0.5031 -0.3118 -0.2813
 1832W        W 2729   1.757   4.399   1.917  0.1302 -0.0187 -0.1136
 1833W        W 2730   6.765   0.259   3.108 -0.0575 -0.2563 -0.0700
 1834W        W 2731   0.119   1.281   6.090 -0.3693 -0.1402 -0.0442
 1835W        W 2732   1.466   3.444   6.914 -0.0696 -0.0661 -0.1514
 1836W        W 2733   4.678   1.167   6.906 -0.1941  0.0482  0.3857
 1837W        W 2734   4.775   4.232   2.242  0.0615 -0.1780  0.2357
 1838W        W 2735   2.621   3.127   6.175  0.1698  0.0702  0.4118
 1839W        W 2736   2.628   4.634   3.256 -0.0807  0.2489  0.1323
 1840W        W 2737   3.779   0.416   3.970  0.0432 -0.3660  0.0619
 1841W        W 2738   3.946   0.552   0.846 -0.1956  0.3710 -0.3569
 1842W        W 2739   0.381   0.153   7.516 -0.4368  0.1622 -0.0715
 1843W        W 2740   4.267   7.367   7.092 -0.0581 -0.2263 -0.0718
 1844W        W 2741   5.413   0.323   5.383 -0.0171  0.3678 -0.2529
 1845W        W 2742   0.395   3.559   4.415 -0.2985  0.2597  0.0405
 1846W        W 2743   6.396   1.716   4.497  0.1615 -0.2718 -0.0772
 1847W        W 2744   4.741   2.986   0.651  0.1263  0.1088 -0.0214
 1848W        W 2745   4.634   5.576   4.484  0.3401 -0.4429 -0.0085
 1849W        W 2746   6.448   6.665   5.917 -0.0722  0.0875  0.0065
 1850W        W 2747   4.028   2.469   7.346 -0.0027 -0.2027  0.1938
 1851W        W 2748   3.837   5.384   1.186  0.0019  0.0829  0.1172
 1852W        W 2749   2.538   5.546   5.179 -0.0700 -0.1041  0.1239
 1853W        W 2750   3.224   3.952   0.766  0.2497 -0.0597 -0.2615
 1854W        W 2751   6.410   6.195   1.891 -0.1595  0.1932  0.0432
 1855W        W 2752   6.120   2.002   4.086 -0.0549 -0.1942  0.1528
 1856W        W 2753   4.020   1.662   0.492 -0.0883 -0.4181 -0.0385
 1857W        W 2754   2.506   6.542   5.230  0.4010  0.4100  0.1294
 1858W        W 2755   7.279   4.623   2.401 -0.0756  0.0389 -0.2186
 1859W        W 2756   6.980   0.479   1.553  0.0121 -0.1462 -0.3391
 1860W        W 2757   1.808   5.652   3.324 -0.1570  0.0500 -0.2562
 1861W        W 2758   3.812   6.460   5.256  0.0547  0.0612  0.0863
 1862W        W 2759   3.214   6.017   1.140  0.0310 -0.0349  0.2866
 1863W        W 2760   6.721   6.646   0.246 -0.0498  0.3714 -0.2904
 1864W        W 2761   5.167   3.832   2.242  0.5523  0.2971 -0.1443
 1865W        W 2762   1.566   5.846   5.075  0.3018  0.2627  0.1965
 1866W        W 2763   2.120   4.269   4.079 -0.3905  0.1090  0.0336
 1867W        W 2764   5.725   1.460   1.187  0.0288  0.1186 -0.0407
 1868W        W 2765   5.615   1.442   3.881 -0.0876 -0.3621  0.1736
 1869W        W 2766   5.084   3.146   6.166 -0.2154  0.0906 -0.0046
 1870W        W 2767   3.411   1.056   0.704  0.1331  0.3004  0.2476
 1871W        W 2768   6.678   3.548   2.009 -0.2036  0.2265  0.0698
 1872W        W 2769   5.134   0.758   5.719  0.2517 -0.2460  0.0457
 1873W        W 2770   1.231   0.720   4.403 -0.0163  0.0579 -0.0996
 1874W        W 2771   4.035   6.808   4.307 -0.1145 -0.2075  0.0299
 1875W        W 2772   4.528   4.365   2.731  0.2405 -0.1030 -0.1262
 1876W        W 2773   2.163   4.584   4.925  0.0928  0.0254  0.1681
 1877W        W 2774   6.628   5.149   5.839  0.2194  0.1537 -0.2303
 1878W        W 2775   4.594   4.827   1.264 -0.1262 -0.0240 -0.0465
 1879W        W 2776   0.064   1.639   6.424  0.2140 -0.2089  0.0242
 1880W        W 2777   4.590   0.743   2.739  0.0944 -0.2938  0.0574
 1881W        W 2778   0.958   3.327   6.489  0.0439 -0.0855  0.0747
 1882W        W 2779   6.625   6.416   4.096  0.3306 -0.0047 -0.2388
 1883W        W 2780   6.298   2.599   0.153 -0.0246 -0.2577 -0.1218
 1884W        W 2781   3.102   4.854   0.154 -0.0149 -0.4599  0.0079
 1885W        W 2782   6.755   0.429   0.390  0.2834  0.2164  0.2112
 1886W        W 2783   6.961   0.388   0.841 -0.1599 -0.0870  0.0049
 1887W        W 2784   6.917   4.990   7.626  0.0100 -0.0767  0.1322
 1888W        W 2785   4.184   2.801   6.062  0.1518  0.0175  0.0750
 1889W        W 2786   6.750   6.426   0.810  0.0296 -0.1242 -0.0397
 1890W        W 2787   4.444   6.589   4.025  0.1667  0.0885  0.2197
 1891W        W 2788   2.981   5.648   2.174  0.0472 -0.2369  0.1721
 1892W        W 2789   2.529   2.307   7.266  0.1001 -0.2606  0.0432
 1893W        W 2790   1.700   5.757   6.395  0.2483  0.2058 -0.2641
 1894W        W 2791   6.980   1.333   0.008  0.3155 -0.0359 -0.2988
 1895W        W 2792   5.017   2.116   7.046 -0.0157 -0.0874 -0.1980
 1896W        W 2793   6.897   6.940   7.500 -0.0017 -0.0096 -0.2571
 1897W        W 2794   5.037   5.075   2.407 -0.3013  0.0586 -0.0923
 1898W        W 2795   2.354   5.612   4.727  0.3526  0.2241  0.0050
 1899W        W 2796   4.616   6.141   6.318  0.1500 -0.0294 -0.4694
 1900W        W 2797   5.227   0.889   1.075  0.1616 -0.0462  0.1483
 1901W        W 2798   0.661   4.309   0.090 -0.2329 -0.1964 -0.2779
 1902W        W 2799   6.878   7.524   2.519 -0.0909  0.0126 -0.0050
 1903W        W 2800   3.429   4.428   7.102 -0.0990 -0.0478 -0.2144
 1904W        W 2801   2.085   7.504   0.410  0.3281  0.0857  0.1866
 1905W        W 2802   6.415   6.875   6.373 -0.0701  0.1418 -0.1818
 1906W        W 2803   6.098   2.341   3.724 -0.3839 -0.2402 -0.1774
 1907W        W 2804   1.228   3.722   1.351 -0.3287 -0.2127  0.0282
 1908W        W 2805   5.234   0.630   2.802 -0.2130 -0.0622 -0.1041
 1909W        W 2806   6.646   7.422   7.518 -0.1614  0.1545  0.0877
 1910W        W 2807   2.709   5.706   6.276  0.0828 -0.2434 -0.2085
 1911W        W 2808   6.757   1.728   2.139 -0.0690  0.0447 -0.5244
 1912W        W 2809   0.745   5.530   1.673 -0.2955  0.1506 -0.0204
 1913W        W 2810   1.037   6.551   4.108  0.1775 -0.0575  0.0510
 1914W        W 2811   3.370   5.940   0.176  0.2681  0.2590  0.0754
 1915W        W 2812   5.921   6.695   7.228  0.0766 -0.2115 -0.0714
 1916W        W 2813   7.438   2.985   4.980 -0.0236 -0.0910 -0.0226
 1917W        W 2814   6.311   0.159   3.964  0.1615 -0.3149 -0.2852
 1918W        W 2815   0.491   3.249   0.310  0.0482  0.0354  0.0395
 1919W        W 2816   3.077   1.403   7.036 -0.1183 -0.4243 -0.2071
 1920W        W 2817   5.507   5.836   3.034  0.0093  0.0428 -0.1649
 1921W        W 2818   5.613   2.589   3.676 -0.0380 -0.1559  0.0744
 1922W        W 2819   4.436   3.017   1.028 -0.0994 -0.1771 -0.2344
 1923W        W 2820   3.366   4.051   6.418  0.0015  0.1323  0.0735
 1924W        W 2821   6.193   3.734   1.874  0.0215 -0.0527 -0.0599
 1925W        W 2822   1.854   5.362   2.864  0.0001 -0.1436  0.1017
 1926W        W 2823   4.502   6.339   1.341  0.1708 -0.0264  0.1357
 1927W        W 2824   7.036   1.471   0.836 -0.2382  0.0493  0.0052
 1928W        W 2825   3.965   5.946   7.477 -0.3417  0.1480 -0.0560
 1929W        W 2826   1.064   1.139   4.568  0.3990 -0.1571 -0.3051
 1930W        W 2827   1.944   4.008   4.594 -0.0140 -0.0004 -0.1469
 1931W        W 2828   6.306   5.849   5.425  0.3336 -0.1369 -0.1577
 1932W        W 2829   6.010   4.780   3.204 -0.3481 -0.3014 -0.0821
 1933W        W 2830   1.727   6.101   0.157 -0.1786  0.2996  0.2027
 1934W        W 2831   0.265   6.830   4.824 -0.0805  0.1624 -0.0188
 1935W        W 2832   4.718   3.878   3.192  0.2966  0.2296 -0.1974
 1936W        W 2833   1.322   5.548   1.863 -0.0131  0.4133  0.0246
 1937W        W 2834   1.730   3.067   4.885 -0.2164  0.3096  0.3930
 1938W        W 2835   4.197   7.326   0.970 -0.3388  0.2133  0.2199
 1939W        W 2836   6.734   2.164   3.161 -0.2717 -0.2484  0.1006
 1940W        W 2837   6.337   1.439   6.105 -0.2547 -0.0644  0.0344
 1941W        W 2838   7.336   6.085   7.237  0.1186 -0.2224 -0.1029
 1942W        W 2839   5.765   1.559   2.497 -0.1173  0.0716 -0.0501
 1943W        W 2840   3.780   1.397   4.184 -0.1986  0.2037 -0.3908
 1944W        W 2841   2.490   5.127   3.231 -0.0146  0.3213 -0.1132
 1945W        W 2842   0.332   5.062   0.467 -0.0823 -0.2241  0.1046
 1946W        W 2843   7.370   6.017   4.496  0.1784 -0.2375  0.2295
 1947W        W 2844   5.017   1.919   2.184 -0.1391  0.0611  0.0555
 1948W        W 2845   1.889   5.750   4.658  0.2750  0.2675  0.0762
 1949W        W 2846   4.775   6.259   5.788  0.0421  0.0836  0.0691
 1950W        W 2847   0.222   1.899   6.024 -0.1235  0.2472 -0.1492
 1951W        W 2848   6.723   5.623   0.112  0.2735 -0.1200  0.2793
 1952W        W 2849   2.908   4.348   1.911  0.1359 -0.1005  0.0827
 1953W        W 2850   4.034   1.865   4.335  0.1514  0.0366 -0.0874
 1954W        W 2851   6.994   0.373   2.513  0.0300 -0.0314 -0.0355
 1955W        W 2852   6.925   2.999   4.765  0.1597  0.0609  0.0832
 1956W        W 2853   3.086   4.742   4.848  0.3358 -0.0506 -0.3408
 1957W        W 2854   5.577   6.538   6.788 -0.3368 -0.1489  0.2542
 1958W        W 2855   2.419   1.570   6.379 -0.0405  0.1744  0.0737
 1959W        W 2856   2.519   0.475   7.341 -0.0540 -0.1819 -0.0933
 1960W        W 2857   2.026   4.996   7.375 -0.2518 -0.3337 -0.0460
 1961W        W 2858   0.635   4.368   0.898 -0.1852 -0.1152 -0.0934
 1962W        W 2859   6.854   1.264   3.269 -0.0645  0.3873 -0.3453
 1963W        W 2860   4.864   4.490   4.245 -0.4961 -0.3254  0.1741
 1964W        W 2861   1.960   4.019   7.176 -0.0862  0.0842 -0.0104
 1965W        W 2862   0.689   4.902   4.563  0.3488  0.1147 -0.2481
 1966W        W 2863   7.295   6.400   4.809 -0.1300  0.4355 -0.0572
 1967W        W 2864   7.004   4.804   7.153  0.1565  0.0002 -0.0797
 1968W        W 2865   3.783   3.391   3.889  0.0470 -0.0607 -0.0710
 1969W        W 2866   3.956   2.929   3.530  0.1727 -0.2095 -0.0160
 1970W        W 2867   3.254   1.074   4.831 -0.0525  0.0563 -0.0986
 1971W        W 2868   0.158   3.905   6.794  0.0948 -0.1668  0.0609
 1972W        W 2869   4.262   3.109   5.149  0.3747  0.3011  0.0751
 1973W        W 2870   4.522   5.177   2.469  0.0894  0.1486  0.4022
 1974W        W 2871   7.141   6.607   4.211 -0.1248  0.2794  0.1886
 1975W        W 2872   4.186   1.001   4.767 -0.1940  0.0182 -0.1119
 1976W        W 2873   0.617   4.908   0.104 -0.2979 -0.0730  0.3211
 1977W        W 2874   5.863   1.916   1.456  0.0195  0.0626  0.2570
 1978W        W 2875   5.226   6.025   5.988 -0.1435 -0.0281  0.1611
 1979W        W 2876   6.181   6.722   1.942  0.2345 -0.0994 -0.1795
 1980W        W 2877   4.412   5.124   3.955 -0.1307 -0.0606  0.2298
 1981W        W 2878   2.371   6.007   5.082  0.0088 -0.1761  0.0057
 1982W        W 2879   7.232   5.745   5.381  0.0892  0.1517  0.0533
 1983W        W 2880   0.858   0.735   6.662  0.3170 -0.0985 -0.0301
 1984W        W 2881   0.924   3.160   0.045 -0.1626  0.0462 -0.0516
 1985W        W 2882   7.031   5.320   2.816 -0.1615  0.0727  0.3390
 1986W        W 2883   6.512   6.258   0.006  0.0613 -0.1666 -0.1611
 1987W        W 2884   3.622   3.885   1.029  0.2412 -0.4305  0.0628
 1988W        W 2885   5.822   5.508   1.356 -0.0608  0.1275 -0.1726
 1989W        W 2886   4.545   2.654   5.141 -0.2628 -0.0147  0.3494
 1990W        W 2887   0.320   5.820   4.280 -0.1876  0.0023 -0.0182
 1991W        W 2888   1.853   5.417   5.497  0.2060 -0.0163  0.1884
 1992W        W 2889   6.216   4.417   1.991 -0.0925 -0.0435 -0.0367
 1993W        W 2890   5.261   1.106   5.307 -0.0108 -0.2636  0.0102
 1994W        W 2891   7.117   6.251   5.241 -0.1862 -0.0285 -0.2238
 1995W        W 2892   2.380   6.891   5.638  0.0356  0.1918  0.2746
 1996W        W 2893   7.113   6.732   3.213 -0.0383 -0.1848  0.4024
 1997W        W 2894   6.164   6.287   3.896  0.4228 -0.0333  0.2176
 1998W        W 2895   4.845   5.303   1.034 -0.4282 -0.1858  0.0344
 1999W        W 2896   2.712   4.790   1.659  0.2782 -0.1088  0.0794
 2000W        W 2897   1.758   3.203   6.520  0.2120 -0.1763  0.0789
 2001W        W 2898   3.937   1.019   6.907  0.2845 -0.1694 -0.1856
 2002W        W 2899   5.179   5.582   6.843 -0.0633 -0.1578  0.1879
 2003W        W 2900   0.757   7.339   7.323  0.0578  0.0513 -0.0175
 2004W        W 2901   6.767   2.601   7.043 -0.2439  0.0305 -0.2328
 2005W        W 2902   7.161   6.771   1.212 -0.0321  0.3240 -0.3647
 2006W        W 2903   0.368   2.336   3.812 -0.2299 -0.2305 -0.0255
 2007W        W 2904   6.026   5.202   2.432 -0.1003 -0.1814 -0.0440
 2008W        W 2905   6.656   2.753   5.569 -0.1365  0.2910 -0.0153
 2009W        W 2906   5.427   2.298   5.764  0.0880  0.1572  0.1672
 2010W        W 2907   3.720   3.574   7.150  0.0721  0.0481 -0.3272
 2011W        W 2908   2.820   3.985   4.597 -0.0595 -0.0174  0.2288
 2012W        W 2909   2.663   6.955   1.923 -0.2100 -0.0603 -0.1017
 2013W        W 2910   5.951   7.617   4.959 -0.3687  0.1062 -0.0824
 2014W        W 2911   4.147   6.872   7.063 -0.1609 -0.0057  0.0184
 2015W        W 2912   3.983   4.561   5.346 -0.1947 -0.2126  0.1183
 2016W        W 2913   3.710   5.735   4.200 -0.0316 -0.1882 -0.1147
 2017W        W 2914   0.373   6.479   3.728 -0.2371  0.2263  0.0796
 2018W        W 2915   5.746   7.145   5.491  0.0271  0.0422 -0.0063
 2019W        W 2916   5.978   2.464   4.320  0.1615  0.0153 -0.2386
 2020W        W 2917   0.850   3.133   2.000  0.2396 -0.2924 -0.1949
 2021W        W 2918   7.066   3.702   6.247 -0.0143 -0.2925 -0.0409
 2022W        W 2919   6.719   7.595   3.750  0.2499 -0.1497 -0.1738
 2023W        W 2920   4.178   6.169   4.916 -0.1221 -0.0160 -0.0288
 2024W        W 2921   0.285   6.310   1.336  0.0373  0.1425 -0.0861
 2025W        W 2922   5.493   1.243   6.835 -0.2444 -0.2663  0.1589
 2026W        W 2923   5.865   1.187   6.119  0.1063  0.2280  0.2411
 2027W        W 2924   3.918   0.939   0.579  0.0695 -0.0909 -0.1817
 2028W        W 2925   0.001   4.304   2.516 -0.0125 -0.1709 -0.1181
 2029W        W 2926   6.434   6.044   2.917 -0.0468  0.0618 -0.0504
 2030W        W 2927   1.393   0.859   5.331 -0.0451 -0.0460  0.1327
 2031W        W 2928   0.729   3.915   2.607 -0.1162  0.0321 -0.1301
 2032W        W 2929   5.317   4.636   1.506 -0.0305  0.0596  0.0956
 2033W        W 2930   6.661   7.392   3.183  0.1066  0.1395 -0.1912
 2034W        W 2931   7.510   4.088   3.714  0.2020  0.1610  0.1233
 2035W        W 2932   5.364   4.854   6.159  0.1601 -0.0469  0.0206
 2036W        W 2933   4.829   0.458   4.303  0.1619 -0.0331 -0.0724
 2037W        W 2934   3.830   0.527   6.915  0.0540  0.1116 -0.1023
 2038W        W 2935   3.509   0.745   1.547 -0.0320 -0.0111 -0.0482
 2039W        W 2936   3.444   0.259   2.421  0.3041 -0.3860  0.0202
 2040W        W 2937   3.569   6.954   4.580 -0.1263  0.0988  0.0537
 2041W        W 2938   3.122   0.441   7.469  0.0263  0.1906  0.0509
 2042W        W 2939   3.336   7.360   2.372 -0.0101 -0.0223  0.4243
 2043W        W 2940   7.008   2.802   5.231 -0.3787  0.1245 -0.2388
 2044W        W 2941   7.375   2.600   1.760 -0.1713 -0.1239  0.1002
 2045W        W 2942   0.413   5.105   1.641 -0.1001  0.0377 -0.0878
 2046W        W 2943   4.858   1.468   4.339 -0.0162 -0.3444 -0.2408
 2047W        W 2944   4.941   3.008   4.571  0.0565  0.0798  0.0080
 2048W        W 2945   1.248   5.960   0.520 -0.0923 -0.2826  0.0310
 2049W        W 2946   4.439   4.670   4.047  0.0329  0.1391 -0.2221
 2050W        W 2947   4.681   2.873   3.506 -0.0771 -0.1947 -0.1489
 2051W        W 2948   3.008   3.898   5.063  0.0033 -0.2655  0.2851
 2052W        W 2949   6.612   4.671   4.874 -0.1335  0.2202  0.1423
 2053W        W 2950   1.090   3.461   5.766 -0.0385  0.2470  0.1002
 2054W        W 2951   3.211   7.096   4.975  0.0618 -0.3387 -0.0480
 2055W        W 2952   1.142   6.094   0.054  0.0003 -0.1725 -0.1908
 2056W        W 2953   0.205   6.518   0.817 -0.0972 -0.2745 -0.6493
 2057W        W 2954   5.776   5.356   1.855  0.2500  0.2143 -0.2327
 2058W        W 2955   5.280   3.168   2.729  0.3351  0.0740  0.2078
 2059W        W 2956   2.432   6.105   6.080 -0.0060 -0.1583  0.2273
 2060W        W 2957   2.145   3.030   0.370 -0.2756  0.0641 -0.0116
 2061W        W 2958   1.074   4.130   5.932 -0.1609  0.0673  0.0165
 2062W        W 2959   4.676   2.578   4.633 -0.0991 -0.0077 -0.1197
 2063W        W 2960   4.798   0.491   3.829  0.0333  0.1837  0.2104
 2064W        W 2961   4.657   6.868   6.697 -0.2955  0.1259  0.1851
 2065W        W 2962   7.415   4.404   5.260 -0.0829  0.1601  0.0670
 2066W        W 2963   3.667   4.086   5.079  0.0216 -0.1329 -0.2607
 2067W        W 2964   1.759   4.445   5.227  0.0850  0.0443  0.0905
 2068W        W 2965   0.774   0.815   5.936 -0.1240 -0.2595 -0.2839
 2069W        W 2966   5.371   1.849   6.019  0.1414  0.3217 -0.1263
 2070W        W 2967   4.851   6.934   3.882  0.0255 -0.2474 -0.2235
 2071W        W 2968   4.987   0.170   6.559  0.1059  0.2293 -0.2036
 2072W        W 2969   0.761   2.019   0.034 -0.5375 -0.1308  0.2159
 2073W        W 2970   1.121   3.691   4.953 -0.2694  0.3486 -0.2856
 2074W        W 2971   2.827   6.441   6.231 -0.0835 -0.0009 -0.0636
 2075W        W 2972   4.602   1.243   2.803 -0.3164  0.1761 -0.1805
 2076W        W 2973   4.415   6.103   7.316  0.1822  0.3378  0.0197
 2077W        W 2974   1.939   2.564   4.765 -0.0000 -0.1599  0.0330
 2078W        W 2975   2.419   2.615   0.324 -0.1051  0.1570  0.1623
 2079W        W 2976   2.908   7.553   0.747  0.0292  0.2986  0.2026
 2080W        W 2977   5.298   0.551   1.572  0.1170 -0.2425 -0.0258
 2081W        W 2978   4.253   4.811   3.590  0.1777  0.1739 -0.0910
 2082W        W 2979   4.167   6.674   6.574  0.1893 -0.2332  0.1985
 2083W        W 2980   7.428   1.223   4.882  0.3132  0.1135 -0.0398
 2084W        W 2981   0.073   0.995   5.201  0.1928 -0.0264  0.1873
 2085W        W 2982   1.068   7.052   1.024  0.1258 -0.2227  0.0371
 2086W        W 2983   5.922   4.472   5.648 -0.1263  0.2354 -0.1339
 2087W        W 2984   1.642   7.627   6.947 -0.1542 -0.0450  0.3340
 2088W        W 2985   7.077   2.688   6.465  0.1504 -0.2484 -0.2133
 2089W        W 2986   3.240   0.392   3.908 -0.1606  0.1910  0.3490
 2090W        W 2987   2.045   2.415   6.280 -0.0853 -0.4037 -0.2699
 2091W        W 2988   7.448   4.034   4.812  0.0978  0.0329 -0.1865
 2092W        W 2989   1.074   3.930   3.533 -0.1757  0.2070  0.1605
 2093W        W 2990   3.652   0.950   1.106 -0.1999  0.2787 -0.1267
 2094W        W 2991   1.179   7.205   5.073  0.0085 -0.0198  0.3940
 2095W        W 2992   0.061   5.132   6.500  0.1989 -0.1223 -0.0094
 2096W        W 2993   5.372   1.262   5.825 -0.0140  0.0567  0.0323
 2097W        W 2994   3.045   6.518   0.462  0.0519 -0.0931  0.2125
 2098W        W 2995   3.672   2.319   1.220 -0.0068  0.3800 -0.0689
 2099W        W 2996   6.213   0.488   6.851  0.2075  0.1598  0.2056
 2100W        W 2997   2.676   1.062   7.184 -0.0435  0.0013  0.0815
 2101W        W 2998   7.333   4.596   3.542  0.1513 -0.0835  0.2392
 2102W        W 2999   0.978   0.091   5.184 -0.1864 -0.0733  0.2262
 2103W        W 3000   5.852   0.563   0.521  0.0004  0.1861  0.0155
 2104W        W 3001   2.388   1.430   0.618  0.2080 -0.2134 -0.1937
 2105W        W 3002   5.614   0.875   7.239  0.1763  0.0359  0.1100
 2106W        W 3003   3.335   3.551   0.470  0.0962 -0.2408 -0.3049
 2107W        W 3004   6.771   1.925   1.714 -0.1912 -0.1239 -0.1214
 2108W        W 3005   0.348   1.771   6.895  0.2965 -0.3086 -0.2223
 2109W        W 3006   6.815   6.621   6.260 -0.1618 -0.0627  0.1126
 2110W        W 3007   6.593   3.097   5.178  0.1343  0.3820  0.1034
 2111W        W 3008   2.097   7.230   5.419  0.0471  0.0476  0.0094
 2112W        W 3009   6.525   5.011   3.136  0.1175 -0.2258 -0.1248
 2113W        W 3010   1.098   3.614   4.470 -0.0083 -0.0573  0.0652
 2114W        W 3011   7.323   0.162   1.345 -0.1809  0.1150 -0.1561
 2115W        W 3012   0.053   1.279   5.581 -0.0442  0.1545  0.0855
 2116W        W 3013   5.374   6.385   6.341 -0.1435 -0.0399 -0.0833
 2117W        W 3014   6.897   3.126   4.274  0.0740  0.2357 -0.1819
 2118W        W 3015   4.578   6.919   4.372  0.0264 -0.0178  0.1375
 2119W        W 3016   7.424   3.732   2.302  0.0794 -0.3939 -0.4001
 2120W        W 3017   6.292   1.786   1.855 -0.1273 -0.0076  0.1806
 2121W        W 3018   4.012   3.440   0.307 -0.0316 -0.2591 -0.0302
 2122W        W 3019   6.219   0.468   3.106  0.2968  0.2780  0.0700
 2123W        W 3020   6.640   2.479   6.564  0.3553 -0.1781  0.2397
 2124W        W 3021   7.397   6.076   6.035  0.3903 -0.2455  0.1047
 2125W        W 3022   1.279   5.492   3.520  0.1059  0.1421  0.2397
 2126W        W 3023   4.118   2.424   1.600  0.1334  0.1279  0.5386
 2127W        W 3024   3.851   5.846   6.700 -0.0109 -0.2763 -0.0506
 2128W        W 3025   3.157   1.799   5.924  0.3574  0.1447 -0.1082
 2129W        W 3026   4.877   4.360   3.070  0.0820  0.2300 -0.2205
 2130W        W 3027   2.691   3.872   1.642 -0.2397 -0.0303  0.1642
 2131W        W 3028   1.192   3.826   0.364 -0.2078 -0.0394  0.0952
 2132W        W 3029   7.444   5.013   2.723 -0.1802  0.2170 -0.1565
 2133W        W 3030   3.715   2.126   6.320 -0.0247  0.1715  0.0061
 2134W        W 3031   1.029   4.330   1.357  0.0867  0.0236  0.1644
 2135W        W 3032   6.694   0.005   0.791 -0.0166  0.0009 -0.0568
 2136W        W 3033   4.822   2.671   1.110 -0.1825  0.0143 -0.0393
 2137W        W 3034   2.483   1.575   5.859 -0.0517 -0.1431 -0.5383
 2138W        W 3035   4.985   6.376   3.266 -0.0097  0.1120 -0.3311
 2139W        W 3036   2.749   4.952   2.791 -0.4381  0.1314  0.3503
 2140W        W 3037   1.409   6.483   0.368 -0.1304  0.2863  0.0352
 2141W        W 3038   1.873   3.421   6.043  0.2081  0.0921  0.1280
 2142W        W 3039   2.151   3.524   0.085  0.0211  0.1036 -0.0308
 2143W        W 3040   6.210   0.907   1.604 -0.0520 -0.0710  0.1096
 2144W        W 3041   1.400   3.403   0.237  0.1515  0.0398  0.2764
 2145W        W 3042   1.073   3.908   5.503 -0.2420  0.0437 -0.2236
 2146W        W 3043   6.344   1.566   7.001 -0.3026  0.0044 -0.2163
 2147W        W 3044   3.344   3.391   5.751 -0.3181  0.2593  0.1179
 2148W        W 3045   4.800   0.336   2.982 -0.0020 -0.0332  0.1971
 2149W        W 3046   6.029   1.958   7.114 -0.1598  0.0967  0.0377
 2150W        W 3047   3.919   3.760   7.545 -0.2140 -0.2870  0.0659
 2151W        W 3048   4.303   5.581   5.764  0.1670 -0.3073  0.1031
 2152W        W 3049   1.335   4.812   0.561  0.2553  0.1313  0.0499
 2153W        W 3050   2.532   3.624   5.410 -0.1772  0.0657  0.1159
 2154W        W 3051   6.014   7.358   7.530  0.0684 -0.1128 -0.1697
 2155W        W 3052   6.743   2.109   0.424  0.1724 -0.7612  0.0083
 2156W        W 3053   1.493   5.970   1.924 -0.1478  0.2796 -0.2300
 2157W        W 3054   5.282   6.620   4.035  0.1017 -0.2809 -0.0941
 2158W        W 3055   6.514   6.243   6.575  0.0295  0.2165  0.0082
 2159W        W 3056   0.404   0.039   5.219  0.2878  0.1055  0.0079
 2160W        W 3057   1.080   4.476   2.245  0.1433  0.1540  0.1691
 2161W        W 3058   7.370   5.831   4.000 -0.1868  0.0820  0.0500
 2162W        W 3059   6.470   7.540   4.843  0.2320 -0.2622 -0.0622
 2163W        W 3060   3.464   0.786   0.112 -0.1067 -0.2562 -0.2246
 2164W        W 3061   0.922   6.308   0.517 -0.2200 -0.0270 -0.3048
 2165W        W 3062   2.460   6.357   0.465  0.2127 -0.2059  0.4070
 2166W        W 3063   4.046   4.163   0.288  0.4323  0.1766 -0.0749
 2167W        W 3064   3.741   4.440   1.280  0.1630  0.0196  0.0146
 2168W        W 3065   1.719   5.661   2.402 -0.1730 -0.1317 -0.3006
 2169W        W 3066   6.099   5.842   2.129  0.1296  0.2046 -0.3106
 2170W        W 3067   6.032   7.066   6.000 -0.2732  0.0148 -0.3669
 2171W        W 3068   2.166   0.448   6.059 -0.1626 -0.0669  0.1406
 2172W        W 3069   5.732   7.329   0.863 -0.0500 -0.0520  0.0805
 2173W        W 3070   6.991   6.043   7.587  0.2523  0.0070  0.3473
 2174W        W 3071   7.355   1.407   3.320  0.2263  0.0328 -0.0918
 2175W        W 3072   3.267   0.751   5.719  0.0024 -0.0876  0.0082
 2176W        W 3073   0.258   2.410   6.087  0.3153 -0.0098 -0.1964
 2177W        W 3074   0.220   6.463   1.812 -0.0947 -0.2540 -0.0375
 2178W        W 3075   0.276   5.878   3.754  0.3017  0.1706  0.0143
 2179W        W 3076   6.430   3.628   3.460 -0.0052 -0.0331  0.0446
 2180W        W 3077   4.286   0.372   4.018  0.1113  0.3950  0.1612
 2181W        W 3078   2.204   3.396   6.424 -0.4836  0.1426 -0.2285
 2182W        W 3079   3.391   7.587   0.803 -0.0591 -0.0321 -0.0049
 2183W        W 3080   2.889   5.764   1.664 -0.0555 -0.1390 -0.4070
 2184W        W 3081   7.371   6.558   1.745 -0.0326  0.0666 -0.1671
 2185W        W 3082   2.266   4.635   1.923  0.0317  0.1318 -0.3148
 2186W        W 3083   7.031   0.604   6.822 -0.1248  0.2859  0.0202
 2187W        W 3084   1.617   0.305   4.447  0.1237  0.3217  0.1961
 2188W        W 3085   4.291   3.423   0.714  0.0612  0.0292  0.3293
 2189W        W 3086   3.989   2.792   7.006 -0.1116 -0.0404  0.0193
 2190W        W 3087   6.607   5.115   1.252  0.1518  0.0301 -0.0337
 2191W        W 3088   6.754   1.650   6.716  0.1614  0.3833 -0.0134
 2192W        W 3089   5.818   6.250   5.409 -0.1384  0.1662  0.1794
 2193W        W 3090   1.693   6.925   7.225  0.0049  0.4418 -0.4794
 2194W        W 3091   3.601   5.816   2.818  0.0352  0.1377  0.1581
 2195W        W 3092   3.595   7.321   4.266 -0.0462 -0.2254  0.0583
 2196W        W 3093   1.518   4.180   0.337 -0.1713  0.1026  0.1271
 2197W        W 3094   5.766   7.321   3.548  0.1610  0.0530  0.0206
 2198W        W 3095   5.818   4.605   5.107  0.0519 -0.0408 -0.0552
 2199W        W 3096   3.362   4.235   1.616  0.1670  0.1060  0.3554
 2200W        W 3097   5.271   1.249   3.494 -0.1045  0.3289  0.0237
 2201W        W 3098   6.628   4.474   5.717 -0.2270  0.0420 -0.0217
 2202W        W 3099   3.536   5.423   4.524 -0.1403  0.1101  0.1773
 2203W        W 3100   6.761   7.238   1.311 -0.1370  0.1723  0.2327
 2204W        W 3101   4.507   1.830   4.062  0.2884  0.0726  0.3863
 2205W        W 3102   6.090   5.251   3.069 -0.1306  0.0770 -0.0605
 2206W        W 3103   0.977   0.904   5.056  0.2725  0.3657 -0.1145
 2207W        W 3104   2.303   5.555   2.962  0.0054 -0.0388 -0.1235
 2208W        W 3105   6.213   3.223   1.912  0.1273 -0.2163  0.1277
 2209W        W 3106   0.577   3.928   7.110 -0.2136  0.3448  0.1747
 2210W        W 3107   4.937   7.223   6.520  0.0524 -0.0166  0.3838
 2211W        W 3108   1.537   5.703   3.954 -0.1849 -0.0989 -0.0462
 2212W        W 3109   4.215   3.611   6.521  0.0265 -0.3900 -0.1737
 2213W        W 3110   2.967   0.140   2.150 -0.1852 -0.0294 -0.1146
 2214W        W 3111   5.271   0.546   6.890  0.3477  0.2256 -0.0385
 2215W        W 3112   3.851   1.227   6.404 -0.3213  0.1359 -0.0304
 2216W        W 3113   7.205   5.241   2.259  0.1830 -0.1477 -0.0866
 2217W        W 3114   5.449   4.038   3.596 -0.1042  0.1055 -0.1072
 2218W        W 3115   5.419   3.342   5.865 -0.0435 -0.1254 -0.2158
 2219W        W 3116   5.118   2.539   1.578  0.2574  0.2566 -0.2123
 2220W        W 3117   5.182   2.009   0.455 -0.0634  0.0716  0.2860
 2221W        W 3118   5.725   0.018   3.925 -0.3037  0.1920 -0.2459
 2222W        W 3119   1.638   7.271   5.686  0.0331 -0.0878  0.1798
 2223W        W 3120   5.056   0.088   1.587  0.0842 -0.1550  0.2457
 2224W        W 3121   6.167   3.282   3.769  0.2043  0.1900  0.0912
 2225W        W 3122   5.352   0.151   4.922 -0.3206 -0.4404 -0.0029
 2226W        W 3123   2.105   2.726   5.388 -0.2160 -0.1780 -0.0385
 2227W        W 3124   4.549   3.938   3.674 -0.1651  0.0724  0.3608
 2228W        W 3125   2.398   5.972   1.610 -0.1971  0.4090  0.0786
 2229W        W 3126   5.137   3.171   3.578 -0.0282 -0.1730 -0.3121
 2230W        W 3127   7.431   0.711   4.882 -0.0958 -0.1493  0.1627
 2231W        W 3128   4.877   1.702   1.468  0.0570 -0.4138  0.1543
 2232W        W 3129   5.178   6.004   2.670  0.1069  0.2092  0.4440
 2233W        W 3130   2.756   3.296   7.325  0.1333  0.0277 -0.1754
 2234W        W 3131   0.272   1.713   5.562 -0.0758 -0.1765 -0.1406
 2235W        W 3132   0.561   1.357   5.837 -0.0409 -0.0827  0.3035
 2236W        W 3133   6.729   5.454   2.280 -0.2054 -0.2134  0.0866
 2237W        W 3134   4.469   0.702   2.246 -0.1174  0.0073 -0.0419
 2238W        W 3135   6.448   2.436   0.701 -0.0770 -0.0605  0.2434
 2239W        W 3136   4.276   3.744   4.254 -0.0025 -0.1351  0.0358
 2240W        W 3137   5.870   0.749   3.214  0.1706 -0.1070 -0.1207
 2241W        W 3138   4.462   0.164   7.307  0.3228 -0.0081  0.2729
 2242W        W 3139   1.759   3.921   2.672 -0.0914 -0.0575  0.0071
 2243W        W 3140   4.723   0.985   4.036 -0.3085 -0.1029 -0.2213
 2244W        W 3141   6.015   1.840   3.528 -0.0281 -0.0271  0.1903
 2245W        W 3142   3.422   2.944   4.968 -0.2375 -0.4592 -0.1316
 2246W        W 3143   5.256   5.240   7.207  0.1339 -0.0630  0.2170
 2247W        W 3144   3.155   7.598   5.127 -0.2751  0.3776 -0.0074
 2248W        W 3145   3.935   0.564   1.376 -0.0731 -0.2208  0.1785
 2249W        W 3146   7.000   2.642   2.915  0.0076  0.1447  0.1753
 2250W        W 3147   1.139   6.925   0.518 -0.2217 -0.3406 -0.1982
 2251W        W 3148   1.896   1.800   6.175  0.2818  0.0470  0.0111
 2252W        W 3149   4.541   7.173   3.522  0.1634 -0.0464 -0.0290
 2253W        W 3150   4.650   0.648   5.736  0.1191 -0.1767  0.3846
 2254W        W 3151   0.806   2.700   0.121  0.0256  0.0610  0.1725
 2255W        W 3152   6.989   3.465   1.567 -0.4160  0.2996 -0.1786
 2256W        W 3153   6.767   5.386   7.316  0.1341 -0.1425 -0.0505
 2257W        W 3154   6.560   3.735   4.443 -0.6156  0.1121 -0.3125
 2258W        W 3155   3.444   6.235   0.669  0.2436 -0.0014 -0.0085
 2259W        W 3156   1.583   7.210   2.330  0.1246  0.2230  0.0873
 2260W        W 3157   0.685   6.016   2.623 -0.0852 -0.2581  0.0370
 2261W        W 3158   5.472   4.184   2.261 -0.3109  0.0160  0.1694
 2262W        W 3159   1.840   5.524   0.168 -0.0375 -0.2224  0.1543
 2263W        W 3160   7.098   4.840   5.790  0.0995  0.1351 -0.0822
 2264W        W 3161   2.395   7.349   5.863 -0.0809 -0.1917 -0.2467
 2265W        W 3162   3.120   7.560   4.191  0.1877  0.2159 -0.1498
 2266W        W 3163   4.336   6.096   4.030 -0.0804  0.3684  0.0580
 2267W        W 3164   2.310   3.903   1.155 -0.1569 -0.0946 -0.1180
 2268W        W 3165   4.004   5.417   5.369  0.0978 -0.2266 -0.1470
 2269W        W 3166   0.812   2.874   0.601  0.0238  0.1007 -0.1849
 2270W        W 3167   1.161   0.487   4.872  0.1959 -0.0506 -0.0359
 2271W        W 3168   4.023   4.941   1.445 -0.0295 -0.0312  0.1781
 2272W        W 3169   6.228   1.730   6.538 -0.0304 -0.2157 -0.3754
 2273W        W 3170   3.972   1.037   1.632 -0.2961  0.2172  0.0155
 2274W        W 3171   3.862   0.337   2.168  0.1711 -0.2722  0.1152
 2275W        W 3172   3.536   1.624   6.272 -0.2780 -0.0272 -0.1212
 2276W        W 3173   1.519   6.660   6.818 -0.2141 -0.0166  0.0725
 2277W        W 3174   3.452   1.707   7.280 -0.2188 -0.0295  0.0779
 2278W        W 3175   3.887   6.822   6.175  0.0798 -0.0996 -0.2563
 2279W        W 3176   4.437   2.721   3.034 -0.0739  0.2666 -0.0252
 2280W        W 3177   3.911   1.952   1.431 -0.3496 -0.0053 -0.1386
 2281W        W 3178   4.267   1.399   1.551 -0.2472 -0.0676 -0.0662
 2282W        W 3179   2.948   1.207   0.827 -0.1804  0.1078  0.0410
 2283W        W 3180   0.247   4.991   4.202 -0.1251 -0.1090 -0.0094
 2284W        W 3181   6.715   6.595   2.084 -0.0921 -0.0480  0.0587
 2285W        W 3182   0.534   0.900   5.386 -0.1037 -0.3441  0.0025
 2286W        W 3183   5.954   1.325   5.635  0.0118 -0.2657  0.0666
 2287W        W 3184   5.743   0.359   6.949  0.0123 -0.0108 -0.0538
 2288W        W 3185   7.196   4.889   5.281 -0.1872 -0.0991 -0.0179
 2289W        W 3186   3.426   6.193   4.238  0.4155  0.0483 -0.0074
 2290W        W 3187   3.150   7.248   6.438  0.0163  0.2232 -0.0916
 2291W        W 3188   5.801   6.241   4.751  0.2625  0.0096  0.0484
 2292W        W 3189   6.418   2.543   4.158 -0.0574 -0.1196  0.1117
 2293W        W 3190   0.950   5.245   3.063 -0.2031 -0.1480  0.1235
 2294W        W 3191   0.927   3.640   6.889 -0.2927  0.2208 -0.2895
 2295W        W 3192   5.261   6.810   1.580 -0.3757  0.1980  0.4835
 2296W        W 3193   6.299   6.738   2.439 -0.0209 -0.1334  0.1297
 2297W        W 3194   4.784   4.489   1.632 -0.0539 -0.0923  0.1457
 2298W        W 3195   3.346   3.932   6.898  0.2011  0.0468 -0.1422
 2299W        W 3196   2.886   5.481   3.495 -0.0887  0.0531  0.1484
 2300W        W 3197   7.329   0.955   0.060 -0.0208  0.1551  0.0910
 2301W        W 3198   5.930   3.066   5.930 -0.1343  0.1484  0.1908
 2302W        W 3199   5.397   3.814   2.641  0.0711 -0.0761  0.1246
 2303W        W 3200   3.345   6.191   2.799  0.0585 -0.0194  0.0352
 2304W        W 3201   0.461   5.433   2.095  0.0832  0.0589  0.2513
 2305W        W 3202   0.574   3.369   2.584  0.1771 -0.2297 -0.0554
 2306W        W 3203   0.144   7.491   3.619  0.2400 -0.1359  0.1498
 2307W        W 3204   6.992   2.768   0.766 -0.1646  0.3161  0.2222
 2308W        W 3205   2.082   1.980   7.173  0.0582  0.0283 -0.0010
 2309W        W 3206   2.947   2.213   4.382 -0.2354  0.1378 -0.1984
 2310W        W 3207   3.542   5.582   7.457  0.1716 -0.1025  0.0327
 2311W        W 3208   5.849   6.514   3.633  0.0079 -0.2092 -0.1439
 2312W        W 3209   5.767   6.979   0.470 -0.1809 -0.1218 -0.1488
 2313W        W 3210   5.567   5.118   2.244 -0.0343 -0.0385  0.3819
 2314W        W 3211   2.194   2.358   5.757 -0.0729  0.0742  0.3942
 2315W        W 3212   3.832   6.909   1.128 -0.0976 -0.1045  0.0198
 2316W        W 3213   5.332   6.848   5.056  0.2927  0.1421 -0.3021
 2317W        W 3214   3.849   6.668   5.734 -0.0077 -0.0787 -0.0226
 2318W        W 3215   2.680   2.236   0.117  0.0175 -0.0264  0.1599
 2319W        W 3216   5.954   0.935   6.875 -0.2070  0.1353  0.0896
 2320W        W 3217   5.347   6.318   1.616  0.0763 -0.3184  0.2143
 2321W        W 3218   6.632   1.633   4.077  0.3928  0.2597  0.2569
 2322W        W 3219   6.101   1.068   0.584  0.1472  0.3948  0.1212
 2323W        W 3220   5.161   2.511   4.426 -0.1465 -0.2526 -0.1810
 2324W        W 3221   1.997   6.617   6.940 -0.1814  0.2597 -0.3272
 2325W        W 3222   3.958   6.305   4.235  0.2055 -0.0154 -0.1392
 2326W        W 3223   5.877   7.253   7.050  0.0026 -0.1313 -0.0152
 2327W        W 3224   3.207   5.105   2.876  0.0350  0.1777  0.0876
 2328W        W 3225   7.297   7.024   6.289 -0.0138 -0.4400 -0.3834
 2329W        W 3226   0.482   5.022   5.030 -0.2682  0.2351  0.0001
 2330W        W 3227   7.330   3.234   4.491 -0.3357  0.1120  0.1094
 2331W        W 3228   1.696   5.438   5.986  0.0542 -0.0821 -0.1199
 2332W        W 3229   0.585   4.919   2.198 -0.0032  0.0931 -0.3512
 2333W        W 3230   7.320   6.872   7.283  0.0955  0.0720 -0.3310
 2334W        W 3231   4.113   4.165   1.073  0.3337  0.2255  0.2630
 2335W        W 3232   7.527   5.379   4.215  0.0657 -0.1775  0.1037
 2336W        W 3233   2.586   6.291   3.599 -0.2675 -0.1091 -0.0109
 2337W        W 3234   6.199   5.430   0.941 -0.3199  0.0624  0.1153
 2338W        W 3235   3.461   7.597   6.258 -0.1170 -0.1159  0.0484
 2339W        W 3236   5.428   3.347   1.462 -0.1484  0.3590 -0.0617
 2340W        W 3237   6.200   2.234   6.423  0.1877  0.2614  0.2966
 2341W        W 3238   6.266   2.929   1.329 -0.4154  0.0686 -0.2086
 2342W        W 3239   7.078   5.680   6.965 -0.0698 -0.0888 -0.1901
 2343W        W 3240   4.294   4.216   3.266 -0.3616 -0.1489 -0.2487
 2344W        W 3241   7.206   0.812   6.379  0.0770 -0.0765 -0.1791
 2345W        W 3242   4.331   6.498   6.078 -0.3712  0.0429  0.2529
 2346W        W 3243   2.810   7.418   4.680 -0.0746 -0.0151 -0.1501
 2347W        W 3244   4.811   2.599   7.502 -0.0430  0.0721 -0.0145
 2348W        W 3245   4.964   7.620   4.378 -0.1486 -0.1750 -0.2028
 2349W        W 3246   4.904   3.859   0.426 -0.0425  0.0306 -0.2288
 2350W        W 3247   0.730   5.918   0.318  0.0263  0.2428 -0.3416
 2351W        W 3248   6.048   0.393   2.589  0.0014 -0.0288  0.0775
 2352W        W 3249   5.403   5.087   6.717 -0.0202  0.2859 -0.0869
 2353W        W 3250   1.033   5.137   1.766  0.2157 -0.4127 -0.3201
 2354W        W 3251   4.206   2.431   6.789 -0.3020  0.1419 -0.1101
 2355W        W 3252   4.464   5.107   5.838 -0.0850 -0.0125  0.0236
 2356W        W 3253   5.860   0.486   1.704 -0.0617 -0.0993 -0.0034
 2357W        W 3254   0.357   5.104   5.499  0.1336  0.1746 -0.0755
 2358W        W 3255   5.000   3.035   0.268  0.2124  0.2813 -0.1261
 2359W        W 3256   5.433   6.608   4.576 -0.0656 -0.0860  0.0983
 2360W        W 3257   2.920   6.169   4.369  0.3206  0.1074 -0.0338
 2361W        W 3258   4.585   4.320   1.157  0.2010 -0.0288 -0.1181
 2362W        W 3259   2.784   4.524   3.733 -0.1088 -0.0204 -0.3172
 2363W        W 3260   4.142   7.317   0.386  0.1472  0.1311  0.3581
 2364W        W 3261   5.793   5.955   3.499  0.2507 -0.0179 -0.1142
 2365W        W 3262   3.406   2.580   4.380  0.5077  0.0377  0.0394
 2366W        W 3263   3.642   0.294   4.920 -0.3735  0.0514  0.3009
 2367W        W 3264   0.581   6.045   6.391 -0.2167  0.0430 -0.1148
 2368W        W 3265   2.078   7.171   6.307 -0.1611  0.1094  0.0375
 2369W        W 3266   0.161   1.489   5.103  0.0015 -0.2481 -0.1321
 2370W        W 3267   4.655   7.257   2.287 -0.0982 -0.0255  0.0925
 2371W        W 3268   2.635   7.163   5.142 -0.1713  0.1482  0.1560
 2372W        W 3269   6.262   5.844   3.383 -0.3676 -0.0476  0.0278
 2373W        W 3270   2.030   4.005   1.745 -0.3080 -0.2776 -0.2055
 2374W        W 3271   0.154   5.256   2.466  0.2688  0.2433  0.0681
 2375W        W 3272   1.000   0.683   7.268 -0.0240 -0.0595  0.1179
 2376W        W 3273   0.820   2.153   6.852  0.0483  0.1288 -0.0464
 2377W        W 3274   6.083   5.938   1.187 -0.1063  0.0786 -0.0717
 2378W        W 3275   2.530   5.895   7.378  0.1525  0.1624 -0.2329
 2379W        W 3276   2.236   7.099   1.712 -0.1132 -0.1901 -0.0758
 2380W        W 3277   5.286   2.984   1.783 -0.0143  0.2446  0.0895
 2381W        W 3278   3.382   1.284   7.526  0.1815  0.2451  0.2063
 2382W        W 3279   0.934   0.142   7.494  0.1033 -0.2108 -0.1802
 2383W        W 3280   2.485   7.206   7.511 -0.2635  0.2121  0.3653
 2384W        W 3281   6.058   1.334   1.526 -0.1073 -0.0157 -0.1422
 2385W        W 3282   0.057   0.462   5.300  0.1870 -0.0769 -0.1733
 2386W        W 3283   4.435   6.940   6.198 -0.0263  0.0253 -0.4091
 2387W        W 3284   5.491   0.002   6.710  0.0492  0.2034  0.2042
 2388W        W 3285   5.139   3.600   6.330  0.3007  0.0501  0.0965
 2389W        W 3286   4.592   3.744   6.190  0.1847  0.0941 -0.0545
 2390W        W 3287   0.273   4.231   4.854  0.1605 -0.0222  0.2486
 2391W        W 3288   5.584   7.556   4.496  0.1068  0.0499 -0.1803
 2392W        W 3289   2.313   6.395   1.346 -0.0719  0.1145  0.2251
 2393W        W 3290   4.045   1.641   6.262  0.1704 -0.1406 -0.1478
 2394W        W 3291   5.276   5.912   3.538  0.1492 -0.0846  0.0546
 2395W        W 3292   0.966   6.371   4.572  0.1282 -0.0190  0.0575
 2396W        W 3293   2.578   5.403   6.670  0.0964  0.2286 -0.0381
 2397W        W 3294   3.189   1.300   0.340 -0.1484 -0.1458 -0.4183
 2398W        W 3295   4.382   0.236   4.481  0.1192  0.2688  0.4444
 2399W        W 3296   6.529   1.368   1.707  0.1282  0.0395  0.3576
 2400W        W 3297   2.999   0.309   3.257  0.0789 -0.0802  0.0383
 2401W        W 3298   5.188   5.133   1.909 -0.0256  0.0142  0.1740
 2402W        W 3299   1.530   4.085   3.291 -0.2412 -0.3160 -0.0395
 2403W        W 3300   7.605   5.531   0.399 -0.0809  0.3564  0.2376
 2404W        W 3301   4.458   5.019   6.754  0.1419  0.1242  0.0539
 2405W        W 3302   7.524   1.016   6.803  0.2741 -0.1160 -0.0906
 2406W        W 3303   7.351   5.327   3.282 -0.0501 -0.2493  0.3047
 2407W        W 3304   0.758   4.704   3.109  0.2653  0.2049  0.0020
 2408W        W 3305   3.182   3.805   1.342  0.1147  0.2469 -0.1920
 2409W        W 3306   0.510   4.866   0.937  0.2186 -0.2506 -0.1986
 2410W        W 3307   3.927   4.964   3.150 -0.3705  0.2541 -0.2239
 2411W        W 3308   2.554   5.426   1.399 -0.1144 -0.2037 -0.0408
 2412W        W 3309   0.595   4.449   4.112  0.0561  0.1792 -0.0620
 2413W        W 3310   3.364   2.557   6.250 -0.3757  0.0628 -0.1107
 2414W        W 3311   5.101   2.074   3.011  0.2178  0.1035 -0.0911
 2415W        W 3312   0.615   6.946   7.588 -0.0319  0.0011 -0.0322
 2416W        W 3313   5.877   3.294   4.118  0.2399 -0.3331 -0.1715
 2417W        W 3314   2.256   1.279   4.988 -0.0315  0.2281  0.0140
 2418W        W 3315   0.937   5.225   3.734  0.1241 -0.1477  0.0068
 2419W        W 3316   5.267   6.049   0.667  0.1382  0.0495  0.0502
 2420W        W 3317   5.254   4.079   3.093 -0.1334  0.2172  0.0433
 2421W        W 3318   3.749   4.325   7.532  0.0693  0.1896 -0.0335
 2422W        W 3319   3.339   3.477   4.851  0.0245  0.0499 -0.0207
 2423W        W 3320   3.575   2.880   5.598  0.1551 -0.1330  0.1245
 2424W        W 3321   3.824   0.052   0.573  0.0436  0.2022 -0.1716
 2425W        W 3322   3.824   3.327   6.505  0.0818 -0.0017  0.1407
 2426W        W 3323   1.878   4.120   5.774 -0.1812  0.0298 -0.4119
 2427W        W 3324   5.704   6.433   5.923  0.1201 -0.0204 -0.1282
 2428W        W 3325   0.605   1.329   4.766 -0.1193 -0.0315  0.1377
 2429W        W 3326   0.366   6.409   2.689 -0.0166 -0.1811  0.1424
 2430W        W 3327   6.796   3.575   2.930 -0.3415  0.0151 -0.0689
 2431W        W 3328   2.880   0.038   6.446 -0.0897  0.0199 -0.1324
 2432W        W 3329   3.617   0.145   1.510 -0.1268  0.0893 -0.1516
 2433W        W 3330   0.335   2.943   3.366 -0.0308 -0.1397  0.1447
 2434W        W 3331   1.574   7.288   0.427 -0.1165 -0.0462  0.0661
 2435W        W 3332   2.348   3.443   0.610  0.1120  0.1258 -0.2886
 2436W        W 3333   3.168   2.152   0.329  0.0812 -0.1291  0.1058
 2437W        W 3334   5.056   1.820   0.947  0.0078 -0.0421 -0.2030
 2438W        W 3335   0.667   2.582   5.830 -0.4266 -0.2394 -0.1608
 2439W        W 3336   6.968   4.230   4.539 -0.3257  0.0955  0.2963
 2440W        W 3337   7.229   2.910   2.220 -0.2432  0.1098 -0.0427
 2441W        W 3338   4.919   3.534   5.878  0.4085 -0.1353  0.2519
 2442W        W 3339   3.610   7.172   6.533 -0.0045 -0.1507  0.3489
 2443W        W 3340   0.353   3.092   2.153 -0.0376  0.1491 -0.3082
 2444W        W 3341   3.584   4.737   1.779 -0.2227 -0.2642 -0.3790
 2445W        W 3342   0.906   6.396   3.197  0.2501 -0.0644  0.2063
 2446W        W 3343   4.794   5.666   5.997  0.2209  0.0719 -0.0883
 2447W        W 3344   1.027   6.488   5.188  0.1702 -0.1835  0.0843
 2448W        W 3345   5.129   1.272   3.957  0.0914 -0.2621 -0.0323
 2449W        W 3346   3.051   4.391   3.263  0.0464  0.3102 -0.3059
 2450W        W 3347   5.238   1.040   1.707  0.4259  0.4785 -0.1941
 2451W        W 3348   0.101   0.212   6.224  0.2073  0.0593  0.2046
 2452W        W 3349   3.035   7.288   2.858  0.2123  0.0818 -0.0237
 2453W        W 3350   1.651   4.019   4.985  0.2026 -0.2316  0.0797
 2454W        W 3351   3.312   2.120   0.858  0.1514 -0.2009 -0.2119
 2455W        W 3352   3.049   7.400   0.191 -0.1245 -0.1944  0.3327
 2456W        W 3353   0.254   5.799   1.018 -0.1062  0.2015 -0.0972
 2457W        W 3354   0.292   2.608   6.752 -0.2703  0.1664 -0.3145
 2458W        W 3355   6.305   6.926   4.997 -0.1581 -0.2104 -0.1246
 2459W        W 3356   4.592   4.540   5.231  0.4129  0.1508 -0.1290
 2460W        W 3357   6.184   0.643   3.569  0.2195  0.2105  0.1304
 2461W        W 3358   7.529   1.818   0.183 -0.1854 -0.2295  0.0786
 2462W        W 3359   2.841   7.425   5.518 -0.1196 -0.0766  0.0942
 2463W        W 3360   2.509   1.772   7.411  0.1180 -0.1779 -0.0571
 2464W        W 3361   4.119   2.957   0.649 -0.1849 -0.1006 -0.0497
 2465W        W 3362   2.215   4.726   3.018  0.2985  0.0942  0.2315
 2466W        W 3363   5.491   7.036   6.887 -0.0525  0.1535  0.0200
 2467W        W 3364   0.550   2.732   7.223 -0.1045  0.3828 -0.0872
 2468W        W 3365   6.557   3.310   4.641  0.1053 -0.0398  0.1869
 2469W        W 3366   4.025   4.363   3.686  0.1057  0.4505  0.1309
 2470W        W 3367   1.153   5.849   4.751 -0.0830 -0.2469  0.0098
 2471W        W 3368   2.732   2.190   0.606 -0.2450  0.1458 -0.1354
 2472W        W 3369   5.514   6.248   3.794 -0.0453  0.0165  0.3097
 2473W        W 3370   7.201   0.446   3.271 -0.1811  0.1798 -0.1265
 2474W        W 3371   0.998   3.852   6.350  0.1109 -0.0790  0.0018
 2475W        W 3372   2.381   7.455   0.809 -0.1050  0.0736 -0.1999
 2476W        W 3373   0.688   7.513   6.814 -0.2348 -0.1589  0.2422
 2477W        W 3374   3.265   7.083   6.971 -0.1006 -0.1392 -0.1936
 2478W        W 3375   0.773   5.944   5.110 -0.1324 -0.1957  0.0836
 2479W        W 3376   1.624   4.540   6.558 -0.2003  0.0362  0.2300
 2480W        W 3377   1.876   0.032   5.792 -0.3026 -0.3644  0.3314
 2481W        W 3378   6.576   0.972   3.617 -0.0784 -0.0504 -0.0508
 2482W        W 3379   4.759   0.383   6.945 -0.0382  0.2662 -0.2708
 2483W        W 3380   5.358   4.689   2.421  0.0179 -0.2637 -0.2654
 2484W        W 3381   1.201   6.993   3.905  0.0340 -0.1794  0.0932
 2485W        W 3382   3.632   1.813   5.062 -0.1138 -0.3482  0.0122
 2486W        W 3383   1.282   4.585   4.385 -0.2726 -0.0201  0.0300
 2487W        W 3384   0.684   0.468   5.168 -0.2585  0.1340 -0.1191
 2488W        W 3385   2.231   5.277   6.346  0.1214 -0.2309  0.2200
 2489W        W 3386   2.290   7.473   4.443  0.0668  0.0204 -0.1101
 2490W        W 3387   4.536   3.469   1.828  0.0711 -0.2762  0.1916
 2491W        W 3388   3.364   1.341   5.941 -0.2675  0.2345  0.1022
 2492W        W 3389   7.347   6.062   6.752  0.3314  0.4087  0.0675
 2493W        W 3390   1.502   3.844   7.152 -0.3220  0.1326 -0.1974
 2494W        W 3391   0.984   6.764   1.626 -0.0968 -0.1881  0.4327
 2495W        W 3392   1.529   2.370   6.573  0.2863  0.0443  0.1618
 2496W        W 3393   2.099   5.171   1.300 -0.2192 -0.1631 -0.5171
 2497W        W 3394   4.934   0.482   6.150 -0.1190 -0.1056 -0.2186
 2498W        W 3395   2.719   1.211   0.326  0.0248  0.1559  0.1599
 2499W        W 3396   2.421   1.121   5.503  0.0423 -0.1514  0.2217
 2500W        W 3397   7.516   7.018   0.866  0.1452  0.1952  0.1889
 2501W        W 3398   5.752   6.217   0.856  0.1428 -0.1266 -0.2563
 2502W        W 3399   6.681   7.543   2.040 -0.1063 -0.0362  0.1221
 2503W        W 3400   3.934   7.414   6.211  0.0966  0.0696 -0.4086
 2504W        W 3401   6.945   0.830   4.040  0.0433  0.2537  0.0591
 2505W        W 3402   4.137   3.854   2.026  0.0370 -0.1430  0.2967
 2506W        W 3403   6.462   7.229   6.740  0.1032 -0.0970  0.0962
 2507W        W 3404   0.134   7.265   0.012  0.0173 -0.4597 -0.0275
 2508W        W 3405   7.209   5.330   5.039 -0.1909 -0.2988 -0.0311
 2509W        W 3406   6.243   5.392   7.167 -0.1366  0.0459 -0.3030
 2510W        W 3407   6.884   3.897   1.349  0.2657 -0.1956 -0.0984
 2511W        W 3408   6.660   0.747   3.208  0.1420  0.2866  0.1104
 2512W        W 3409   5.197   5.490   3.710 -0.1326  0.1769 -0.1902
 2513W        W 3410   4.084   4.776   1.909 -0.1430 -0.2211 -0.3519
 2514W        W 3411   5.381   6.710   3.532 -0.1073 -0.1814  0.0264
 2515W        W 3412   4.826   5.015   7.375  0.0326 -0.1935  0.0106
 2516W        W 3413   0.683   0.184   4.658  0.2743 -0.1620  0.0911
 2517W        W 3414   2.081   2.974   6.221  0.0101  0.0181 -0.1618
 2518W        W 3415   3.723   5.169   1.916  0.0617  0.1786 -0.1470
 2519W        W 3416   5.628   2.453   4.694  0.2382  0.0976 -0.0420
 2520W        W 3417   0.136   3.524   2.054 -0.3033 -0.0444 -0.0822
 2521W        W 3418   6.754   3.384   6.062  0.0302  0.1441 -0.2542
 2522W        W 3419   0.141   3.010   7.055  0.1274 -0.3664 -0.2332
 2523W        W 3420   7.077   7.235   2.888  0.0137 -0.1557  0.1450
 2524W        W 3421   6.239   6.427   5.058  0.0877  0.1613  0.0514
 2525W        W 3422   1.287   5.188   7.244 -0.0012  0.0895 -0.0104
 2526W        W 3423   2.900   4.259   0.643  0.2455 -0.2734 -0.0224
 2527W        W 3424   4.579   2.490   1.549 -0.2805 -0.2290  0.2946
 2528W        W 3425   4.878   2.985   5.183 -0.0464 -0.0963  0.0735
 2529W        W 3426   6.223   0.833   2.724  0.2175 -0.0649 -0.1186
 2530W        W 3427   1.464   1.867   6.450 -0.5881 -0.1626  0.0739
 2531W        W 3428   6.955   4.924   4.571  0.1605  0.4143  0.3814
 2532W        W 3429   4.963   4.279   5.414  0.3782  0.0358  0.1638
 2533W        W 3430   5.635   2.584   2.083 -0.1191  0.3113  0.0573
 2534W        W 3431   0.326   2.131   6.499  0.0456 -0.0453  0.3777
 2535W        W 3432   5.505   5.031   3.309  0.2184 -0.0830 -0.0875
 2536W        W 3433   5.510   2.408   0.430 -0.1991 -0.3370  0.1796
 2537W        W 3434   6.528   2.018   3.658  0.0738  0.1176 -0.0326
 2538W        W 3435   0.285   3.108   7.520  0.2014  0.0670  0.1213
 2539W        W 3436   2.608   4.836   6.809  0.1781  0.1397 -0.0486
 2540W        W 3437   2.663   4.346   0.223 -0.1720  0.1089 -0.2295
 2541W        W 3438   5.681   6.410   0.376  0.1034  0.1015 -0.1504
 2542W        W 3439   5.112   3.424   1.832  0.0861 -0.0620  0.2276
 2543W        W 3440   3.632   4.487   5.721 -0.0738  0.0658  0.0051
 2544W        W 3441   7.411   3.093   3.999 -0.4628 -0.1275  0.1465
 2545W        W 3442   4.059   2.157   0.107  0.1919 -0.2291  0.0473
 2546W        W 3443   4.422   0.290   2.561  0.2210 -0.1140 -0.0667
 2547W        W 3444   5.672   3.150   3.663  0.2927  0.1738 -0.2977
 2548W        W 3445   7.238   4.225   0.328  0.0751 -0.0994 -0.0569
 2549W        W 3446   1.411   1.478   6.831  0.1904 -0.2866  0.0929
 2550W        W 3447   6.279   0.455   4.897  0.2752  0.1271  0.0216
 2551W        W 3448   6.246   3.711   2.956  0.0311 -0.0181 -0.4053
 2552W        W 3449   4.085   3.802   3.728 -0.2588  0.1744 -0.0825
 2553W        W 3450   0.691   5.093   5.873  0.1976 -0.0334 -0.1143
 2554W        W 3451   2.984   3.774   6.181  0.0689 -0.0384 -0.0060
 2555W        W 3452   4.765   5.850   3.593  0.0848  0.0638  0.4986
 2556W        W 3453   6.188   3.199   5.011 -0.0829 -0.0775  0.0491
 2557W        W 3454   0.567   0.619   0.046  0.0506  0.0456 -0.2546
 2558W        W 3455   7.420   7.364   7.116 -0.0341 -0.0458 -0.1701
 2559W        W 3456   4.477   1.729   5.066  0.0519 -0.0370  0.2403
 2560W        W 3457   0.291   3.726   4.885 -0.0795 -0.0089  0.1440
 2561W        W 3458   0.850   4.391   4.568  0.0986  0.0682 -0.1308
 2562W        W 3459   7.528   2.229   1.499 -0.3259 -0.1881  0.2454
 2563W        W 3460   3.810   0.961   5.574  0.0721 -0.1176 -0.1232
 2564W        W 3461   4.088   1.496   4.706 -0.0698  0.0032 -0.3255
 2565W        W 3462   4.900   6.885   3.332  0.2320 -0.2033  0.2037
 2566W        W 3463   2.790   6.130   0.163  0.1709 -0.3782 -0.1981
 2567W        W 3464   5.307   5.333   5.943 -0.3363  0.0209 -0.1216
 2568W        W 3465   4.316   4.210   4.086 -0.0919 -0.1038  0.2587
 2569W        W 3466   2.174   0.444   0.327  0.1900 -0.0424  0.2215
 2570W        W 3467   5.065   2.584   5.541  0.2722 -0.3165  0.1736
 2571W        W 3468   5.586   5.998   1.304  0.0176  0.3409 -0.1193
 2572W        W 3469   2.446   2.435   6.597 -0.3444  0.2833 -0.0242
 2573W        W 3470   6.036   3.977   1.368  0.0390 -0.0689  0.0622
 2574W        W 3471   6.989   1.608   4.886  0.0403  0.0443  0.1364
 2575W        W 3472   1.718   6.060   3.585 -0.1444 -0.0906  0.0402
 2576W        W 3473   5.337   4.975   3.796 -0.0530  0.1426 -0.0223
 2577W        W 3474   2.469   0.848   0.544 -0.1050  0.1173  0.3365
 2578W        W 3475   2.567   3.133   4.488 -0.0056  0.1048 -0.3460
 2579W        W 3476   0.082   5.625   5.497  0.5356 -0.0595  0.1176
 2580W        W 3477   7.160   0.187   2.086 -0.0582 -0.1286  0.0508
 2581W        W 3478   7.593   5.609   5.964 -0.1898 -0.0425  0.0786
 2582W        W 3479   0.755   6.948   4.907  0.1399  0.1567 -0.0091
 2583W        W 3480   1.665   0.652   7.042  0.4492 -0.1119  0.0156
 2584W        W 3481   6.711   4.976   0.788 -0.2720  0.1519  0.2793
 2585W        W 3482   2.051   4.324   3.279 -0.1269  0.1216  0.1775
 2586W        W 3483   4.746   3.802   5.505 -0.0703 -0.2687 -0.0313
 2587W        W 3484   2.065   4.735   6.618 -0.0117 -0.1000 -0.1855
 2588W        W 3485   4.750   1.229   7.393 -0.0661 -0.0731  0.0229
 2589W        W 3486   5.318   2.823   5.914  0.0636 -0.0611 -0.1782
 2590W        W 3487   1.088   6.925   4.435 -0.2071 -0.1777 -0.0454
 2591W        W 3488   3.138   0.233   4.706 -0.4426  0.0569  0.3496
 2592W        W 3489   4.420   2.499   0.161  0.2006 -0.0562 -0.2859
 2593W        W 3490   5.352   0.459   0.716  0.3096 -0.3840  0.0632
 2594W        W 3491   6.566   5.509   4.309  0.0570 -0.0766  0.1478
 2595W        W 3492   4.098   3.268   4.360  0.1353 -0.1084 -0.1570
 2596W        W 3493   3.648   3.070   0.403  0.0595  0.0494  0.0288
 2597W        W 3494   4.125   1.425   3.836  0.1917  0.1273 -0.3768
 2598W        W 3495   2.224   5.409   7.529 -0.0611 -0.1761 -0.0465
 2599W        W 3496   0.371   4.730   7.271  0.1685  0.0876 -0.1585
 2600W        W 3497   2.579   0.046   0.374  0.0657 -0.0791  0.1809
 2601W        W 3498   1.187   2.202   5.757  0.2932 -0.2955  0.1313
 2602W        W 3499   5.729   6.042   6.348 -0.0038  0.2046 -0.0711
 2603W        W 3500   3.972   3.139   5.550 -0.0466 -0.2055 -0.2024
 2604W        W 3501   3.174   6.431   3.307 -0.0791  0.0587  0.1908
 2605W        W 3502   4.691   4.264   0.204  0.1930 -0.0090 -0.0538
 2606W        W 3503   4.562   6.603   0.912  0.3219  0.1669 -0.3722
 2607W        W 3504   2.312   2.765   7.028 -0.2537 -0.0111 -0.2817
 2608W        W 3505   7.488   2.426   6.448 -0.0550  0.0258  0.1733
 2609W        W 3506   4.201   7.157   3.921 -0.1117  0.2486  0.0676
 2610W        W 3507   0.308   6.716   2.289 -0.0785 -0.2511  0.5056
 2611W        W 3508   2.098   5.026   5.939  0.2432 -0.1377  0.0247
 2612W        W 3509   4.633   4.461   3.562  0.0738  0.1322 -0.1922
 2613W        W 3510   5.684   0.940   5.516 -0.0629  0.3189 -0.0713
 2614W        W 3511   0.087   0.810   6.300 -0.1214 -0.3333 -0.1375
 2615W        W 3512   4.821   3.890   1.807 -0.0443  0.0778  0.0764
 2616W        W 3513   3.861   6.261   6.038 -0.1976  0.2205  0.2266
 2617W        W 3514   3.511   4.590   3.263 -0.0010 -0.0508  0.1149
 2618W        W 3515   5.177   4.281   4.580  0.1766  0.0052  0.1519
 2619W        W 3516   3.250   5.699   0.624 -0.0295 -0.1520 -0.1231
 2620W        W 3517   3.156   5.400   6.343  0.0201 -0.2139 -0.0363
 2621W        W 3518   7.344   6.440   7.552 -0.0064 -0.2283  0.0945
 2622W        W 3519   4.946   6.233   1.090  0.0626 -0.0198 -0.1387
 2623W        W 3520   2.739   1.708   4.887 -0.0095  0.4831 -0.3114
 2624W        W 3521   6.837   4.599   6.220 -0.2487  0.1716 -0.3477
 2625W        W 3522   7.362   2.143   6.016  0.1650 -0.0597  0.1047
 2626W        W 3523   6.216   0.112   1.953 -0.1515  0.1228 -0.1678
 2627W        W 3524   2.608   5.831   2.644  0.0177  0.2424  0.4795
 2628W        W 3525   7.567   7.549   1.702  0.0759  0.2662 -0.0425
 2629W        W 3526   3.985   6.642   3.740 -0.1786  0.0958  0.0285
 2630W        W 3527   1.904   4.623   2.349  0.0508 -0.1720  0.1035
 2631W        W 3528   4.818   4.736   2.700  0.1280 -0.2791  0.0237
 2632W        W 3529   6.987   7.380   5.698 -0.1736  0.1938 -0.2005
 2633W        W 3530   2.460   1.635   5.361 -0.0844 -0.3498  0.1910
 2634W        W 3531   0.423   2.196   7.225  0.1769  0.2627 -0.0939
 2635W        W 3532   3.726   7.342   7.611 -0.0995  0.2292  0.1323
 2636W        W 3533   4.312   5.163   0.975 -0.0769 -0.0571 -0.0264
 2637W        W 3534   4.369   2.116   0.573 -0.0240 -0.0784  0.0442
 2638W        W 3535   5.297   5.497   2.581  0.2180 -0.0531 -0.0512
 2639W        W 3536   3.620   7.509   5.288 -0.1223  0.1073 -0.0730
 2640W        W 3537   6.200   6.636   2.907  0.1781  0.0709  0.2467
 2641W        W 3538   7.036   5.854   4.855 -0.0039  0.1148  0.0227
 2642W        W 3539   6.982   0.939   0.459 -0.0961 -0.1409  0.1128
 2643W        W 3540   6.350   4.501   5.299  0.1781  0.0250  0.1786
 2644W        W 3541   2.866   1.423   5.593  0.1391  0.3597 -0.3694
 2645W        W 3542   2.412   5.423   3.886 -0.0880  0.0378  0.0873
 2646W        W 3543   6.251   3.998   5.718 -0.0052  0.1703 -0.2928
 2647W        W 3544   5.664   4.305   3.220  0.0601 -0.3214  0.1472
 2648W        W 3545   3.369   2.997   4.010 -0.1850  0.1277  0.3361
 2649W        W 3546   2.927   6.079   0.674 -0.0792 -0.4979 -0.0711
 2650W        W 3547   6.742   1.310   5.228  0.0981 -0.0648  0.1684
 2651W        W 3548   4.530   3.742   7.548 -0.0489  0.1345  0.1906
 2652W        W 3549   4.930   3.078   5.655 -0.2542 -0.1028  0.0349
 2653W        W 3550   4.767   1.912   3.395  0.4387 -0.1479  0.2673
 2654W        W 3551   6.873   2.288   5.254  0.1914 -0.2072  0.2871
 2655W        W 3552   0.716   6.368   1.722 -0.1375 -0.2102 -0.1461
 2656W        W 3553   4.934   7.334   3.180 -0.2868  0.1049  0.3791
 2657W        W 3554   1.033   6.782   6.810  0.2410 -0.2351  0.1567
 2658W        W 3555   1.191   3.168   0.646  0.1596 -0.1740 -0.1379
 2659W        W 3556   5.854   2.981   2.881 -0.3310  0.2508  0.1962
 2660W        W 3557   2.158   5.723   6.471  0.2360 -0.0194  0.1185
 2661W        W 3558   7.384   6.877   4.911  0.0582 -0.1049  0.3066
 2662W        W 3559   0.266   2.795   0.392 -0.2601 -0.2076  0.0718
 2663W        W 3560   6.524   7.522   4.308 -0.0004 -0.1476  0.1763
 2664W        W 3561   7.542   4.558   0.622  0.1157 -0.1285  0.2649
 2665W        W 3562   4.509   6.528   5.081 -0.1943 -0.0301 -0.1000
 2666W        W 3563   5.347   1.735   0.063 -0.1115  0.1905  0.1203
 2667W        W 3564   2.226   6.057   0.169  0.0961 -0.0804  0.2856
 2668W        W 3565   0.364   1.268   6.721  0.0451  0.1908 -0.0024
 2669W        W 3566   1.872   0.368   6.660  0.1647  0.2762 -0.0986
 2670W        W 3567   7.570   4.668   5.675 -0.0568  0.3781  0.2824
 2671W        W 3568   4.753   5.414   2.079 -0.0830  0.0254 -0.0154
 2672W        W 3569   5.863   3.266   5.440  0.1758 -0.1519  0.3521
 2673W        W 3570   5.411   0.351   6.369  0.0324  0.2649  0.0901
 2674W        W 3571   1.923   6.854   5.931 -0.4411 -0.0788 -0.0221
 2675W        W 3572   3.951   5.133   2.373  0.1697 -0.0576 -0.1558
 2676W        W 3573   1.456   6.929   0.104  0.0786 -0.1281  0.1743
 2677W        W 3574   0.294   4.153   6.301 -0.2046 -0.1136 -0.2156
 2678W        W 3575   7.598   3.969   1.920 -0.0645 -0.3086 -0.0547
 2679W        W 3576   5.423   1.719   4.633 -0.0463  0.4072  0.2256
 2680W        W 3577   3.113   2.787   5.835 -0.1731 -0.0010 -0.1136
 2681W        W 3578   4.707   5.513   5.317 -0.0105 -0.4399 -0.0933
 2682W        W 3579   6.812   5.773   2.715 -0.0128  0.3491 -0.0184
 2683W        W 3580   0.258   1.756   7.472 -0.1467 -0.0023  0.3149
 2684W        W 3581   1.598   1.098   5.867 -0.3176 -0.3184 -0.1612
 2685W        W 3582   2.004   5.087   3.252  0.0166  0.0001 -0.2518
 2686W        W 3583   5.828   4.548   2.246 -0.2566  0.2062  0.0552
 2687W        W 3584   5.841   4.050   5.993 -0.1683 -0.4128 -0.0670
 2688W        W 3585   1.735   6.409   2.124 -0.0305  0.1285 -0.2577
 2689W        W 3586   3.902   6.905   0.213 -0.4862 -0.2248 -0.1458
 2690W        W 3587   5.645   0.044   7.364 -0.1166 -0.1245  0.1006
 2691W        W 3588   0.795   4.875   0.546  0.2184  0.0780 -0.0429
 2692W        W 3589   6.223   5.921   6.391  0.1814  0.0995 -0.3589
 2693W        W 3590   3.029   0.586   2.469 -0.0273  0.0010 -0.2639
 2694W        W 3591   3.096   0.305   0.324  0.1706  0.1919 -0.2250
 2695W        W 3592   6.087   4.987   6.855 -0.2339  0.1761  0.3399
 2696W        W 3593   1.112   1.236   6.020 -0.3597  0.0930  0.1090
 2697W        W 3594   0.052   3.646   2.681 -0.1166 -0.0111  0.0470
 2698W        W 3595   6.874   7.137   3.561  0.7215 -0.2211 -0.0611
 2699W        W 3596   5.732   2.636   6.125  0.1841  0.2869 -0.2310
 2700W        W 3597   5.024   6.958   7.005 -0.0127 -0.0079 -0.0175
 2701W        W 3598   6.168   4.156   2.393 -0.1078  0.0750 -0.1180
 2702W        W 3599   7.012   2.914   1.759  0.0807 -0.0798  0.0223
 2703W        W 3600   2.273   2.980   4.903  0.3712  0.1377  0.0621
 2704W        W 3601   7.208   7.266   2.097 -0.1490  0.0068 -0.0446
 2705W        W 3602   0.978   5.263   2.260  0.2773  0.0763  0.0668
 2706W        W 3603   5.631   6.476   2.525 -0.2544 -0.1796  0.0574
 2707W        W 3604   5.838   1.138   2.872  0.1982 -0.2495 -0.2473
 2708W        W 3605   0.930   3.610   2.991  0.1783 -0.0127  0.0410
 2709W        W 3606   7.579   6.308   2.286 -0.1804  0.0837  0.0056
 2710W        W 3607   5.198   3.925   5.071  0.1762  0.0496 -0.1053
 2711W        W 3608   5.989   2.850   3.951  0.0558  0.0017 -0.2360
 2712W        W 3609   4.579   3.785   2.340 -0.1233  0.3004  0.0212
 2713W        W 3610   0.595   7.378   1.886 -0.0077  0.1716 -0.1362
 2714W        W 3611   7.039   5.959   0.855  0.1452 -0.0456  0.2028
 2715W        W 3612   2.056   0.203   7.123 -0.2212  0.0927  0.3253
 2716W        W 3613   0.324   4.548   2.889 -0.1859 -0.0198  0.1458
 2717W        W 3614   0.168   4.764   2.465 -0.1419  0.0805  0.0030
 2718W        W 3615   7.349   0.113   5.678 -0.0518 -0.1697 -0.0053
 2719W        W 3616   5.847   3.169   0.981  0.3038 -0.1373 -0.1604
 2720W        W 3617   0.225   6.128   6.829 -0.0136 -0.1065  0.1165
 2721W        W 3618   4.843   6.009   6.857 -0.1007 -0.0715 -0.0215
 2722W        W 3619   0.149   5.332   0.808  0.0874 -0.1401  0.1090
 2723W        W 3620   6.252   2.725   4.697  0.1990 -0.0580 -0.0186
 2724W        W 3621   6.560   0.349   4.450 -0.1484  0.4522 -0.3012
 2725W        W 3622   5.365   4.985   5.122 -0.2046  0.2589 -0.4090
 2726W        W 3623   4.610   4.930   1.835  0.0449  0.0436  0.0462
 2727W        W 3624   6.372   4.686   2.723 -0.2397  0.2476 -0.0169
 2728W        W 3625   0.938   6.388   6.311 -0.2603 -0.2333  0.0750
 2729W        W 3626   3.009   1.728   4.417  0.0123 -0.2371 -0.0305
 2730W        W 3627   0.403   6.212   0.514  0.2314 -0.0508 -0.0499
 2731W        W 3628   6.461   7.139   5.736  0.0073 -0.3676 -0.2024
 2732W        W 3629   4.327   5.914   6.848 -0.3932  0.1463 -0.2441
 2733W        W 3630   0.825   1.790   7.197 -0.4119 -0.1620  0.0031
 2734W        W 3631   5.190   0.564   4.637 -0.1621 -0.1214 -0.0207
 2735W        W 3632   4.474   3.431   1.341 -0.4176 -0.2922  0.2425
 2736W        W 3633   0.187   6.843   6.242  0.6901  0.1881 -0.0554
 2737W        W 3634   1.394   5.336   6.318  0.0889  0.2704 -0.1909
 2738W        W 3635   1.062   4.712   3.960  0.2529  0.1626 -0.0366
 2739W        W 3636   6.192   3.465   5.775 -0.0698 -0.0864 -0.5951
 2740W        W 3637   0.435   7.033   5.636 -0.1848 -0.1278 -0.0878
 2741W        W 3638   6.832   2.592   4.519  0.1391  0.0284  0.2078
 2742W        W 3639   7.502   3.592   1.594 -0.0029 -0.0728 -0.0661
 2743W        W 3640   3.790   7.186   0.711  0.1412 -0.2359 -0.0147
 2744W        W 3641   5.782   4.435   1.063  0.1183 -0.1873 -0.2825
 2745W        W 3642   6.827   0.105   6.221  0.0271 -0.1425  0.0217
 2746W        W 3643   2.098   0.963   7.329  0.1679  0.0086 -0.1961
 2747W        W 3644   6.294   0.707   2.086  0.1569  0.0329  0.0115
 2748W        W 3645   7.066   0.011   3.412 -0.0424 -0.2196 -0.1219
 2749W        W 3646   3.079   5.115   4.489  0.2836 -0.1481 -0.0420
 2750W        W 3647   0.274   2.901   5.169 -0.0140 -0.1183 -0.0426
 2751W        W 3648   6.379   0.176   1.136  0.2773  0.1495  0.2533
 2752W        W 3649   1.855   6.915   2.074 -0.0528 -0.1088  0.1153
 2753W        W 3650   3.628   6.282   7.507 -0.1852  0.2346 -0.0107
 2754W        W 3651   6.389   7.423   6.279 -0.0545  0.2788 -0.3438
 2755W        W 3652   5.886   0.418   5.205 -0.0498 -0.1114  0.3696
 2756W        W 3653   1.247   2.901   6.484  0.2049  0.0778 -0.0480
 2757W        W 3654   7.436   5.210   5.691  0.1052 -0.1585  0.0144
 2758W        W 3655   4.372   0.064   4.965  0.0124 -0.2132  0.0673
 2759W        W 3656   7.155   6.529   6.840  0.2366 -0.1460  0.0573
 2760W        W 3657   2.208   5.548   2.452 -0.2684 -0.1393 -0.0691
 2761W        W 3658   0.752   7.579   5.641  0.0507 -0.2244 -0.1262
 2762W        W 3659   4.935   4.528   7.501 -0.1173 -0.0895 -0.2259
 2763W        W 3660   3.107   7.084   4.432 -0.1242  0.0854  0.1675
 2764W        W 3661   2.353   4.183   7.485  0.1319 -0.1478  0.0691
 2765W        W 3662   6.078   6.719   0.127 -0.0330  0.0100  0.0596
 2766W        W 3663   1.450   3.737   0.760  0.0702 -0.0827  0.0130
 2767W        W 3664   4.685   1.311   1.217 -0.0440  0.2228 -0.3871
 2768W        W 3665   0.684   3.981   5.110  0.0004 -0.0387  0.1186
 2769W        W 3666   7.057   0.042   0.403 -0.0958 -0.0642  0.0216
 2770W        W 3667   1.082   7.458   3.723  0.3368  0.0335  0.1112
 2771W        W 3668   1.934   2.756   6.659  0.4439  0.0086  0.2897
 2772W        W 3669   5.687   6.715   3.009  0.0114  0.1991  0.2032
 2773W        W 3670   0.180   3.239   4.762 -0.0234 -0.2243 -0.0871
 2774W        W 3671   4.888   2.034   4.363  0.2186 -0.0412 -0.1606
 2775W        W 3672   3.689   2.442   4.855  0.0720 -0.2697 -0.3620
 2776W        W 3673   2.186   6.401   5.653  0.1880 -0.0889 -0.0940
 2777W        W 3674   4.245   4.200   7.408 -0.0082  0.3642 -0.3904
 2778W        W 3675   1.338   5.510   5.586  0.0602  0.1475  0.0441
 2779W        W 3676   7.405   7.189   3.467  0.0925 -0.0368 -0.0257
 2780W        W 3677   4.198   5.350   2.864  0.1868 -0.0692 -0.0164
 2781W        W 3678   6.489   1.872   2.873  0.1248 -0.0628 -0.2907
 2782W        W 3679   6.663   3.689   3.926 -0.4048 -0.3948 -0.1233
 2783W        W 3680   3.126   4.540   6.658  0.0450 -0.0695  0.0977
 2784W        W 3681   1.796   6.012   5.479  0.0550 -0.1182 -0.0648
 2785W        W 3682   6.778   0.773   0.061 -0.4041  0.0103 -0.2094
 2786W        W 3683   1.149   1.375   5.050  0.0128  0.0791  0.0956
 2787W        W 3684   3.055   4.862   6.250 -0.1725 -0.2926 -0.0016
 2788W        W 3685   6.252   7.178   2.235  0.1613  0.1023 -0.0859
 2789W        W 3686   7.588   3.215   2.408 -0.1259  0.0924  0.2440
 2790W        W 3687   6.179   6.265   0.384  0.0142  0.2639  0.3415
 2791W        W 3688   4.292   2.268   5.286  0.2794  0.4513  0.0554
 2792W        W 3689   1.134   5.920   1.466  0.1424 -0.1862 -0.1082
 2793W        W 3690   6.112   0.615   1.167 -0.0675  0.0830  0.0202
 2794W        W 3691   0.233   4.504   2.035  0.0287 -0.0747 -0.0212
 2795W        W 3692   7.256   7.512   6.132 -0.1577 -0.2320 -0.0995
 2796W        W 3693   2.169   4.949   0.765  0.2381 -0.2308  0.0653
 2797W        W 3694   3.145   0.368   6.118  0.1136 -0.0610 -0.2395
 2798W        W 3695   0.309   3.403   5.253  0.0205 -0.2541  0.0915
 2799W        W 3696   6.137   5.245   3.589  0.3099  0.0030 -0.0710
 2800W        W 3697   3.713   0.469   5.942  0.2889 -0.0553  0.0856
 2801W        W 3698   3.076   3.433   5.308  0.2680  0.1200  0.1607
 2802W        W 3699   4.059   6.009   3.071 -0.2441 -0.3374  0.3354
 2803W        W 3700   6.649   5.785   1.783 -0.3018 -0.1085  0.0941
 2804W        W 3701   4.556   0.394   5.339  0.1389  0.0442 -0.2006
 2805W        W 3702   1.855   4.096   3.671  0.2574  0.3939 -0.1077
 2806W        W 3703   2.293   1.359   0.048 -0.2349 -0.0471 -0.3581
 2807W        W 3704   7.219   2.401   2.350  0.2056  0.1968  0.2665
 2808W        W 3705   7.194   5.184   6.628  0.2463 -0.1965 -0.1558
 2809W        W 3706   0.516   0.572   6.282  0.1474  0.1978  0.2887
 2810W        W 3707   6.700   2.786   0.366  0.2227 -0.0077 -0.0164
 2811W        W 3708   4.296   5.916   2.680  0.2804  0.0433  0.1272
 2812W        W 3709   6.527   6.825   1.138 -0.2071 -0.2441 -0.0276
 2813W        W 3710   3.963   5.215   0.586 -0.1681  0.2245 -0.1246
 2814W        W 3711   5.844   4.140   3.889  0.0003  0.0600  0.0081
 2815W        W 3712   4.271   3.341   3.760  0.0338 -0.0257  0.1080
 2816W        W 3713   3.459   6.679   0.164 -0.0692 -0.2236 -0.2935
 2817W        W 3714   7.354   7.370   4.803  0.0468 -0.1583 -0.3502
 2818W        W 3715   1.005   4.384   0.515 -0.0509  0.0415 -0.0505
 2819W        W 3716   5.501   1.810   2.042  0.4022 -0.1141 -0.0330
 2820W        W 3717   7.415   6.492   6.428 -0.0060 -0.0836 -0.2824
 2821W        W 3718   1.650   7.397   1.877  0.3468 -0.1731 -0.1892
 2822W        W 3719   3.072   6.296   3.822  0.1605 -0.1224 -0.0207
 2823W        W 3720   4.966   7.057   6.020 -0.0540  0.1158  0.3270
 2824W        W 3721   6.174   3.604   0.981  0.0978 -0.1876  0.2250
 2825W        W 3722   0.065   0.557   0.043  0.2114  0.0104  0.2380
 2826W        W 3723   6.189   2.759   6.361  0.0291 -0.2004 -0.1164
 2827W        W 3724   5.073   2.578   4.984  0.1056  0.1488 -0.2891
 2828W        W 3725   0.295   3.915   2.335  0.0696 -0.1158  0.1378
 2829W        W 3726   0.325   2.308   0.065  0.1240 -0.2345 -0.0077
 2830W        W 3727   5.154   3.378   4.929 -0.3281  0.0611  0.1042
 2831W        W 3728   0.563   4.553   1.354  0.2632 -0.0719  0.1040
 2832W        W 3729   6.786   0.501   3.717  0.0898  0.2221  0.0883
 2833W        W 3730   6.442   2.279   4.626  0.2626  0.1943 -0.3419
 2834W        W 3731   6.670   0.880   1.722 -0.1159 -0.3434  0.0574
 2835W        W 3732   0.022   1.959   4.278 -0.2149 -0.1101 -0.2330
 2836W        W 3733   0.494   1.965   4.128 -0.0230 -0.0695  0.0478
 2837W        W 3734   0.544   3.099   6.651 -0.1918  0.1756 -0.2497
 2838W        W 3735   4.828   3.938   2.721 -0.0625 -0.1483 -0.1829
 2839W        W 3736   0.002   6.302   4.082  0.1387 -0.0741  0.1008
 2840W        W 3737   0.381   5.741   7.615  0.0227  0.0474  0.1079
 2841W        W 3738   3.568   6.283   1.895  0.2817 -0.0391  0.1173
 2842W        W 3739   6.005   2.055   2.635 -0.0552  0.2605  0.0215
 2843W        W 3740   5.461   6.233   7.535  0.0259 -0.2339 -0.0510
 2844W        W 3741   7.186   0.438   0.137 -0.1305 -0.1009  0.1147
 2845W        W 3742   7.226   0.553   5.428 -0.2302  0.3862  0.1797
 2846W        W 3743   6.354   2.022   5.935  0.0115 -0.0972 -0.0818
 2847W        W 3744   5.501   7.532   1.463  0.0640 -0.0367 -0.0669
 2848W        W 3745   3.221   3.470   0.936 -0.1177  0.2258 -0.0094
 2849W        W 3746   7.143   5.248   6.068  0.0407  0.0517 -0.0251
 2850W        W 3747   0.679   7.170   0.612 -0.3225  0.0578 -0.0403
 2851W        W 3748   2.592   7.230   6.344 -0.0659 -0.1288 -0.0163
 2852W        W 3749   5.011   6.739   1.110  0.0356  0.0800 -0.0782
 2853W        W 3750   3.078   6.882   2.364 -0.0985 -0.1807  0.0202
 2854W        W 3751   3.487   7.535   3.830  0.2483 -0.2127  0.5007
 2855W        W 3752   1.949   7.036   4.579  0.0176 -0.0521  0.3240
 2856W        W 3753   6.901   6.229   1.839  0.1341  0.1534  0.1189
 2857W        W 3754   4.421   7.017   3.040  0.1801  0.1749 -0.0168
 2858W        W 3755   1.645   4.799   4.159 -0.2598 -0.1670  0.1322
 2859W        W 3756   6.971   4.802   1.466 -0.1477  0.1438 -0.0011
 2860W        W 3757   0.024   2.203   0.449 -0.0511  0.0576 -0.0618
 2861W        W 3758   7.355   4.429   1.869  0.0866 -0.0561  0.1731
 2862W        W 3759   4.741   3.212   7.506  0.1380 -0.0200 -0.0277
 2863W        W 3760   5.708   3.179   1.924  0.0834 -0.0710  0.2538
 2864W        W 3761   3.539   5.431   6.018 -0.0743 -0.0653 -0.1332
 2865W        W 3762   0.582   7.467   0.195 -0.0518  0.2941 -0.1299
 2866W        W 3763   0.024   3.955   1.242 -0.1545  0.0188  0.0720
 2867W        W 3764   7.528   2.937   6.571 -0.4428  0.0631  0.3201
 2868W        W 3765   4.122   4.257   4.577  0.0353  0.0299  0.1536
 2869W        W 3766   3.634   4.852   6.569 -0.0776  0.0918  0.1460
 2870W        W 3767   4.439   6.275   2.233 -0.0795  0.0236  0.1825
 2871W        W 3768   4.951   2.161   1.275  0.0262 -0.1995  0.0158
 2872W        W 3769   4.854   2.099   1.745 -0.0986 -0.1935 -0.2230
 2873W        W 3770   5.556   1.725   5.558  0.1890 -0.1172  0.1514
 2874W        W 3771   3.169   4.677   1.425 -0.0677 -0.0967 -0.2263
 2875W        W 3772   4.541   6.076   1.758  0.2096  0.1153  0.0979
 2876W        W 3773   4.352   5.039   5.356  0.1679 -0.0996 -0.2161
 2877W        W 3774   6.282   4.424   1.313 -0.1442  0.1005  0.1205
 2878W        W 3775   0.275   4.017   4.322 -0.1769 -0.0836 -0.1609
 2879W        W 3776   6.454   0.669   4.044  0.0678 -0.0007  0.1970
 2880W        W 3777   0.934   7.374   4.682  0.0586  0.1892  0.0571
 2881W        W 3778   4.689   7.407   4.764 -0.1728  0.1178  0.0113
 2882W        W 3779   0.579   4.070   5.827  0.0292  0.2140 -0.0733
 2883W        W 3780   2.495   7.568   7.151  0.1745 -0.0286 -0.1636
 2884W        W 3781   4.646   1.371   0.219 -0.1317 -0.0296  0.0805
 2885W        W 3782   2.653   4.208   4.162  0.0721  0.0557 -0.1119
 2886W        W 3783   0.672   5.499   2.691 -0.1453  0.0545  0.1766
 2887W        W 3784   1.483   4.220   2.349 -0.3054  0.1494  0.1931
 2888W        W 3785   6.963   6.393   5.745 -0.0248 -0.1154 -0.1480
 2889W        W 3786   2.198   4.608   0.034 -0.1606 -0.2792 -0.1518
 2890W        W 3787   4.741   6.029   4.336  0.1224 -0.0865  0.1304
 2891W        W 3788   7.534   0.518   6.794 -0.0290  0.2018 -0.3293
 2892W        W 3789   3.099   2.867   5.366 -0.0423  0.1584 -0.1436
 2893W        W 3790   2.406   3.804   6.668 -0.1913 -0.1717 -0.2108
 2894W        W 3791   1.772   4.301   7.538  0.1489  0.1759  0.1438
 2895W        W 3792   7.108   3.339   3.265 -0.1714  0.0547 -0.0586
 2896W        W 3793   3.932   6.908   1.693 -0.1770 -0.1791  0.2323
 2897W        W 3794   2.834   4.648   1.070  0.2189  0.0247 -0.2014
 2898W        W 3795   0.678   3.003   5.495 -0.1030 -0.2537  0.2117
 2899W        W 3796   1.814   5.335   6.683 -0.1880  0.0111 -0.1719
 2900W        W 3797   6.017   6.294   6.707 -0.0799  0.1732  0.3014
 2901W        W 3798   0.560   2.700   4.442 -0.4500  0.1403  0.1888
 2902W        W 3799   6.474   1.783   4.959  0.0092 -0.0832 -0.0134
 2903W        W 3800   2.442   1.794   0.290 -0.3109  0.0537  0.2121
 2904W        W 3801   5.661   4.218   4.434 -0.1799  0.1381 -0.0704
 2905W        W 3802   3.858   4.997   5.147  0.1827 -0.5200  0.2041
 2906W        W 3803   2.199   5.140   6.921 -0.0182  0.1479  0.4084
 2907W        W 3804   2.861   6.823   7.142  0.4961  0.1191 -0.1640
 2908W        W 3805   1.778   7.159   1.428  0.2624 -0.1388  0.0118
 2909W        W 3806   3.465   7.160   6.054 -0.1878  0.0332 -0.0547
 2910W        W 3807   1.324   4.824   1.454 -0.1320  0.0207  0.3697
 2911W        W 3808   7.194   2.664   3.930  0.0192  0.1654 -0.2049
 2912W        W 3809   7.504   3.859   5.268  0.0983  0.2771 -0.1434
 2913W        W 3810   3.543   5.820   6.306  0.0288  0.1386 -0.0287
 2914W        W 3811   1.247   1.956   6.914 -0.2068 -0.1559 -0.0696
 2915W        W 3812   5.622   5.803   5.416 -0.1221  0.0008 -0.0458
 2916W        W 3813   2.009   1.903   5.689  0.0731 -0.0664 -0.2154
 2917W        W 3814   0.319   5.979   1.801 -0.3985 -0.1622  0.0630
 2918W        W 3815   3.338   6.555   5.019  0.1173  0.3560  0.1596
 2919W        W 3816   0.876   6.035   5.935  0.2444  0.2435 -0.0370
 2920W        W 3817   5.956   0.496   4.106 -0.0238 -0.0143 -0.1643
 2921W        W 3818   5.442   1.313   2.168 -0.0935 -0.1989  0.0934
 2922W        W 3819   7.423   1.607   3.939 -0.1215 -0.0642 -0.2549
 2923W        W 3820   2.046   4.089   0.282 -0.1165 -0.1050  0.0700
 2924W        W 3821   3.135   0.040   1.695  0.1239  0.3864  0.2076
 2925W        W 3822   3.736   3.831   6.625  0.1930 -0.0062 -0.0599
 2926W        W 3823   6.882   2.412   1.970 -0.0672 -0.0814 -0.0465
 2927W        W 3824   1.285   6.735   4.856  0.0164 -0.0917 -0.0893
 2928W        W 3825   1.864   4.934   1.946 -0.0834  0.2294  0.0381
 2929W        W 3826   1.384   2.889   5.213 -0.1804 -0.1838 -0.2150
 2930W        W 3827   3.116   6.411   7.510 -0.1801 -0.1166  0.1291
 2931W        W 3828   3.539   5.105   1.446  0.0440  0.0142  0.3492
 2932W        W 3829   5.409   2.176   1.780  0.0989 -0.1665  0.3091
 2933W        W 3830   4.397   0.762   3.718 -0.0115 -0.0158 -0.0122
 2934W        W 3831   4.709   5.600   2.623  0.1940 -0.0911  0.4813
 2935W        W 3832   2.606   1.341   4.554  0.0387  0.1633 -0.3426
 2936W        W 3833   1.229   1.376   7.287  0.1148 -0.0186 -0.1777
 2937W        W 3834   4.391   4.253   0.669 -0.0559 -0.0606 -0.0080
 2938W        W 3835   1.523   6.498   4.369  0.3346 -0.3534  0.4627
 2939W        W 3836   5.581   2.671   2.672  0.2646 -0.3171  0.3650
 2940W        W 3837   4.729   6.250   2.620  0.0437  0.1640  0.1432
 2941W        W 3838   4.190   7.179   7.524  0.4212 -0.0202  0.1199
 2942W        W 3839   3.254   5.349   1.875  0.0892 -0.0241 -0.1896
 2943W        W 3840   0.343   0.192   6.642 -0.1588 -0.1065  0.1264
 2944W        W 3841   4.702   3.436   0.344 -0.1008  0.0004 -0.2530
 2945W        W 3842   5.454   1.519   2.990  0.0128 -0.1014  0.0427
 2946W        W 3843   7.013   7.537   1.663 -0.1995  0.2444 -0.0349
 2947W        W 3844   6.630   6.144   6.024  0.1223  0.0922  0.2815
 2948W        W 3845   7.042   3.663   4.546  0.4919  0.0317 -0.3546
 2949W        W 3846   7.133   2.927   0.315  0.0914 -0.2808 -0.1069
 2950W        W 3847   0.596   6.333   0.049  0.0772 -0.3523 -0.1375
 2951W        W 3848   1.882   6.742   5.384  0.2335 -0.2049 -0.4224
 2952W        W 3849   6.165   2.888   0.794  0.1424  0.0777 -0.1214
 2953W        W 3850   3.104   4.029   0.249 -0.1276  0.2135  0.2900
 2954W        W 3851   5.244   1.134   7.622 -0.1437  0.2247 -0.2019
 2955W        W 3852   6.780   2.417   7.554  0.0270 -0.1617 -0.0138
 2956W        W 3853   5.311   1.594   5.162 -0.0123 -0.1554  0.2427
 2957W        W 3854   4.212   4.828   2.677  0.2341 -0.0394 -0.0345
 2958W        W 3855   1.622   6.943   4.177  0.0419 -0.0453  0.1098
 2959W        W 3856   6.701   5.651   5.159  0.0183 -0.1572  0.2242
 2960W        W 3857   6.876   7.196   4.863  0.0190  0.0784  0.2051
 2961W        W 3858   2.553   0.160   4.137  0.4336 -0.2923 -0.3049
 2962W        W 3859   2.571   3.103   5.262  0.1518  0.1715 -0.0079
 2963W        W 3860   2.958   5.583   6.928 -0.1096  0.0622 -0.0638
 2964W        W 3861   0.028   0.250   4.018 -0.0369 -0.1173 -0.0625
 2965W        W 3862   3.029   0.440   0.859  0.0594  0.0452 -0.1683
 2966W        W 3863   5.694   0.747   2.643 -0.1091 -0.1700 -0.0403
 2967W        W 3864   6.833   5.304   1.769 -0.0678 -0.2518  0.1895
 2968W        W 3865   3.848   6.143   2.378 -0.2601 -0.0508  0.4807
 2969W        W 3866   6.257   5.846   0.023 -0.1547  0.0039  0.3030
 2970W        W 3867   2.520   6.077   2.161 -0.0278 -0.3338 -0.1088
 2971W        W 3868   7.447   2.212   7.489 -0.1659 -0.1572 -0.3184
 2972W        W 3869   0.889   5.247   5.455  0.0458 -0.2148 -0.0347
 2973W        W 3870   1.415   6.844   5.343  0.1942 -0.3192 -0.0254
 2974W        W 3871   4.763   0.801   4.718  0.1583 -0.2396 -0.1618
 2975W        W 3872   5.189   1.337   1.263  0.1609  0.1170 -0.3686
 2976W        W 3873   5.376   7.583   3.456 -0.2664 -0.0573  0.0242
 2977W        W 3874   6.966   4.006   5.018 -0.2842 -0.1225 -0.0981
 2978W        W 3875   5.495   0.361   4.272  0.2926  0.2787  0.1847
 2979W        W 3876   4.511   5.664   1.163 -0.0250  0.0598  0.0676
 2980W        W 3877   1.757   0.003   5.281 -0.2229 -0.2939 -0.0158
 2981W        W 3878   3.360   6.499   2.390 -0.3079 -0.0949 -0.0834
 2982W        W 3879   5.687   0.036   1.935 -0.1375  0.0038  0.1879
 2983W        W 3880   2.633   0.526   6.275 -0.0757  0.1266  0.1119
 2984W        W 3881   0.699   4.099   3.138  0.4995 -0.3051  0.0365
 2985W        W 3882   0.537   4.433   2.455  0.4620 -0.1801  0.0568
 2986W        W 3883   5.263   5.448   0.578 -0.3908 -0.0856 -0.1401
 2987W        W 3884   1.689   5.488   1.079 -0.2756 -0.0078  0.1735
 2988W        W 3885   6.979   2.829   3.530 -0.2562 -0.1599  0.0983
 2989W        W 3886   4.198   5.929   4.464  0.1665 -0.0100 -0.3279
 2990W        W 3887   4.360   5.627   7.423  0.2256 -0.0204  0.3221
 2991W        W 3888   5.910   0.200   3.459  0.0083  0.0150 -0.1099
 2992W        W 3889   3.914   4.583   6.157  0.2141  0.1579 -0.0907
 2993W        W 3890   7.538   6.695   4.477  0.2017  0.4341 -0.0171
 2994W        W 3891   1.133   5.395   0.468 -0.0279 -0.2948  0.0088
 2995W        W 3892   7.012   3.997   4.112  0.0326  0.0593  0.1613
 2996W        W 3893   7.089   5.435   3.929  0.1304  0.0539 -0.2562
 2997W        W 3894   3.901   4.632   7.120  0.1629  0.2601  0.0254
 2998W        W 3895   4.928   5.035   6.050 -0.1803  0.1878 -0.2857
 2999W        W 3896   4.640   5.574   7.024 -0.2912  0.1102  0.3037
 3000W        W 3897   5.579   0.764   0.130 -0.0434  0.2140 -0.3024
 3001W        W 3898   7.215   1.988   5.050 -0.1573 -0.0150  0.0323
 3002W        W 3899   7.451   2.892   3.323 -0.0157 -0.0624  0.1950
 3003W        W 3900   1.362   7.016   3.448  0.1789  0.1086  0.1634
 3004W        W 3901   6.918   0.789   5.865 -0.2105 -0.0700 -0.1110
 3005W        W 3902   0.960   7.203   6.546 -0.0436 -0.1140 -0.1695
 3006W        W 3903   6.051   6.724   4.637  0.0312 -0.2426  0.1117
 3007W        W 3904   1.920   6.682   1.633  0.4454  0.0300  0.3407
 3008W        W 3905   0.557   2.809   3.923 -0.1304  0.5120 -0.1333
 3009W        W 3906   4.234   0.135   6.712 -0.2535 -0.3549 -0.1759
 3010W        W 3907   3.155   2.503   4.839  0.0973 -0.0907 -0.0201
 3011W        W 3908   6.149   2.721   1.942  0.1055  0.4214  0.1621
 3012W        W 3909   5.204   0.781   3.767  0.4378 -0.1593  0.0666
 3013W        W 3910   0.836   4.361   3.660  0.1065  0.1927 -0.0868
 3014W        W 3911   4.511   0.012   1.217  0.1966  0.4623 -0.0577
 3015W        W 3912   2.099   4.997   3.944  0.0454 -0.1924 -0.4253
 3016W        W 3913   5.991   1.028   0.091 -0.2542  0.4091 -0.3001
 3017W        W 3914   6.247   3.013   2.352 -0.1244 -0.0070 -0.0148
 3018W        W 3915   7.423   6.027   1.811  0.0917  0.0481 -0.0735
 3019W        W 3916   5.646   7.463   2.934 -0.1439 -0.5783  0.0122
 3020W        W 3917   5.460   1.428   6.354  0.1601 -0.2616 -0.0743
 3021W        W 3918   7.574   3.498   5.594 -0.5750 -0.0977 -0.0294
 3022W        W 3919   4.998   6.080   5.204 -0.1012  0.1484 -0.0878
 3023W        W 3920   3.526   6.718   4.112 -0.0382 -0.1496 -0.0560
 3024W        W 3921   4.773   3.535   3.940  0.4408  0.0225 -0.0695
 3025W        W 3922   1.105   4.639   0.089 -0.2444  0.0524 -0.4298
 3026W        W 3923   5.393   1.840   1.332 -0.1589  0.2384  0.2337
 3027W        W 3924   2.328   0.026   6.251  0.0633 -0.1982  0.1255
 3028W        W 3925   3.260   1.232   4.357 -0.0538  0.0272 -0.0336
 3029W        W 3926   4.206   1.492   6.819  0.1996  0.1330  0.3752
 3030W        W 3927   0.456   5.836   4.753  0.2054 -0.1288 -0.0956
 3031W        W 3928   3.881   0.578   4.510  0.0528  0.1240  0.0484
 3032W        W 3929   5.048   5.858   4.007  0.0056 -0.1061 -0.0367
 3033W        W 3930   5.382   6.618   7.262  0.1492 -0.1380  0.0139
 3034W        W 3931   4.497   0.543   6.370 -0.0602  0.1997 -0.2075
 3035W        W 3932   0.982   2.542   5.417 -0.0641 -0.0177 -0.0724
 3036W        W 3933   5.569   2.219   2.450 -0.1052 -0.1373 -0.1212
 3037W        W 3934   4.746   5.490   3.944  0.1350  0.0642  0.3644
 3038W        W 3935   3.144   5.714   5.953  0.0051 -0.0475  0.0363
 3039W        W 3936   4.387   3.804   0.365  0.0834  0.0242  0.3732
 3040W        W 3937   5.828   6.699   5.063 -0.0875 -0.2703 -0.0474
 3041W        W 3938   2.987   3.794   5.664  0.0439 -0.0645 -0.2643
 3042W        W 3939   2.700   2.143   5.718  0.1469 -0.0072 -0.0255
 3043W        W 3940   6.464   4.997   4.493  0.0119  0.0468 -0.1819
 3044W        W 3941   0.479   4.595   5.808  0.1989 -0.0549  0.0211
 3045W        W 3942   6.885   5.412   3.400  0.2661 -0.0892  0.2661
 3046W        W 3943   2.425   6.171   4.092 -0.4176  0.0827 -0.3258
 3047W        W 3944   2.185   6.215   3.289 -0.0021 -0.0377  0.0254
 3048W        W 3945   5.977   5.040   4.577  0.1722 -0.1119 -0.1247
 3049W        W 3946   3.477   1.507   4.704  0.0774 -0.0859 -0.3773
 3050W        W 3947   3.366   5.546   1.336 -0.0088  0.0814  0.0694
 3051W        W 3948   1.412   0.083   5.974 -0.1908 -0.0269 -0.1886
 3052W        W 3949   7.193   4.025   2.762  0.0528  0.2841  0.0223
 3053W        W 3950   4.267   6.745   1.356  0.0832 -0.4848  0.2472
 3054W        W 3951   2.334   6.841   7.219 -0.1916 -0.0959 -0.1015
 3055W        W 3952   0.234   7.313   4.915 -0.0915  0.0098  0.3159
 3056W        W 3953   7.132   5.794   0.390  0.3221  0.2314 -0.0813
 3057W        W 3954   3.376   5.835   1.821  0.2476 -0.3361  0.0668
 3058W        W 3955   2.674   0.238   5.216 -0.2101  0.0058 -0.1213
 3059W        W 3956   3.656   0.914   6.092 -0.0939 -0.1226 -0.2515
 3060W        W 3957   5.241   3.037   7.315  0.0093  0.1073  0.3047
 3061W        W 3958   6.117   7.299   4.081 -0.1858 -0.1723 -0.0052
 3062W        W 3959   7.597   1.369   0.002 -0.2555 -0.0738 -0.1396
 3063W        W 3960   0.209   6.661   7.616 -0.0889  0.0133 -0.1068
 3064W        W 3961   2.265   5.139   1.753  0.1154 -0.2918  0.0468
 3065W        W 3962   7.610   5.808   3.339 -0.1326  0.1551  0.3694
 3066W        W 3963   3.351   0.502   1.995  0.0916  0.0883  0.2143
 3067W        W 3964   7.026   2.963   5.948 -0.0747  0.0442  0.0047
 3068W        W 3965   4.019   4.367   2.912  0.2121  0.1165 -0.1338
 3069W        W 3966   3.273   4.480   0.945 -0.4009  0.0615 -0.1176
 3070W        W 3967   5.242   4.520   3.501 -0.2620 -0.0169 -0.0518
 3071W        W 3968   4.336   1.340   4.289 -0.0418  0.1359  0.0780
 3072W        W 3969   0.031   2.041   5.213  0.2290  0.0817  0.2085
 3073W        W 3970   0.710   3.436   1.465  0.1680  0.0270 -0.1821
 3074W        W 3971   6.913   3.131   1.205 -0.1311  0.1130  0.1443
 3075W        W 3972   4.068   0.892   2.469  0.0313 -0.0301 -0.0902
 3076W        W 3973   5.774   6.234   7.112  0.0878  0.0539 -0.0856
 3077W        W 3974   3.822   0.743   2.942  0.0734  0.0978  0.0048
 3078W        W 3975   7.113   2.413   0.323  0.2178  0.1521 -0.2258
 3079W        W 3976   2.011   5.889   1.174  0.1154 -0.1166 -0.3872
 3080W        W 3977   1.503   0.021   1.498  0.1802  0.0853  0.2517
 3081W        W 3978   1.243   1.955   7.432  0.2135 -0.1514  0.1414
 3082W        W 3979   7.414   0.942   3.205  0.1668  0.4713 -0.0464
 3083W        W 3980   4.104   0.315   3.530  0.0458  0.0567 -0.0317
 3084W        W 3981   5.622   1.242   4.771 -0.0133  0.0580  0.3092
 3085W        W 3982   1.374   3.552   6.387 -0.0055  0.0115  0.3536
 3086W        W 3983   3.143   5.235   7.346  0.0090 -0.2106 -0.0101
 3087W        W 3984   1.383   5.650   2.968 -0.1525  0.0353  0.1143
 3088W        W 3985   0.656   5.405   0.269  0.2411 -0.0009  0.2661
 3089W        W 3986   4.422   6.386   4.572  0.2065 -0.0431  0.0381
 3090W        W 3987   7.049   4.894   1.955 -0.1093  0.0322  0.1661
 3091W        W 3988   6.892   5.871   4.258 -0.1705  0.1352 -0.0495
 3092W        W 3989   4.255   5.717   3.557 -0.2417  0.1459  0.1219
 3093W        W 3990   0.925   2.665   6.828  0.0107 -0.0448 -0.1455
 3094W        W 3991   2.531   4.965   0.068 -0.0733  0.1996 -0.1941
 3095W        W 3992   3.097   0.531   5.164 -0.0910  0.4104 -0.3913
 3096W        W 3993   4.352   1.123   0.623 -0.0819  0.3080 -0.2039
 3097W        W 3994   0.344   7.213   6.561 -0.3061  0.1610 -0.0584
 3098W        W 3995   0.501   3.281   3.980 -0.0085 -0.1569 -0.0160
 3099W        W 3996   6.470   1.428   7.516 -0.0397 -0.0639  0.0023
 3100W        W 3997   5.334   1.140   2.654 -0.1468  0.1207 -0.0573
 3101W        W 3998   4.659   6.924   5.541  0.1806  0.1847  0.0977
 3102W        W 3999   0.162   6.274   4.586 -0.1154 -0.1185  0.1193
 3103W        W 4000   5.423   3.554   3.325  0.0384 -0.0180 -0.1898
 3104W        W 4001   0.282   6.999   3.579  0.0050  0.2358  0.0547
 3105W        W 4002   3.735   1.034   4.514  0.0699  0.2361  0.0511
 3106W        W 4003   2.314   5.238   4.390 -0.0939 -0.0848  0.0471
 3107W        W 4004   2.425   5.012   2.221 -0.0488 -0.0274 -0.0369
 3108W        W 4005   2.987   3.124   4.827 -0.0474 -0.0248  0.0911
 3109W        W 4006   7.384   3.123   0.894 -0.0275  0.2459 -0.0640
 3110W        W 4007   7.377   6.997   6.809 -0.0466  0.2217  0.0703
 3111W        W 4008   3.314   3.544   3.939  0.2095  0.0098  0.1916
 3112W        W 4009   0.398   6.945   2.721 -0.2212 -0.0850  0.0476
 3113W        W 4010   4.023   6.506   0.841  0.3086  0.2028  0.2144
 3114W        W 4011   0.733   2.408   4.947 -0.3257  0.0769 -0.1729
 3115W        W 4012   0.666   5.319   0.757 -0.2355 -0.0721 -0.3064
 3116W        W 4013   2.297   5.128   2.747  0.0775 -0.1015 -0.3136
 3117W        W 4014   1.909   5.424   3.788  0.0298  0.0872  0.0758
 3118W        W 4015   5.313   7.362   4.105  0.0414  0.0053 -0.1068
 3119W        W 4016   6.981   6.194   1.312  0.3361 -0.0243  0.4074
 3120W        W 4017   7.068   3.260   5.522  0.0415  0.0099 -0.1595
 3121W        W 4018   3.426   4.487   6.214  0.1300  0.1271  0.2547
 3122W        W 4019   4.561   7.476   0.123 -0.1439  0.2802  0.3055
 3123W        W 4020   2.826   3.731   4.040  0.2052 -0.2630 -0.0217
 3124W        W 4021   5.563   7.365   0.168 -0.0410  0.0007  0.4358
 3125W        W 4022   6.709   3.623   0.989 -0.0585  0.1134  0.0077
 3126W        W 4023   3.051   7.491   5.974 -0.3895 -0.1906  0.3783
 3127W        W 4024   0.405   5.781   3.036  0.3438  0.2617 -0.0273
 3128W        W 4025   2.748   3.249   0.932 -0.0836 -0.0521  0.3843
 3129W        W 4026   4.362   0.668   6.877 -0.1674  0.1129 -0.1574
 3130W        W 4027   7.178   2.282   4.269  0.2223  0.1052  0.1346
 3131W        W 4028   1.447   0.953   4.828  0.3053  0.2011  0.1196
 3132W        W 4029   3.145   5.576   2.654  0.0251  0.1628  0.2320
 3133W        W 4030   2.003   7.379   7.279  0.0087  0.2284  0.0720
 3134W        W 4031   3.519   5.230   0.221  0.0238  0.2396 -0.3059
 3135W        W 4032   6.556   6.916   3.232 -0.1985 -0.0920 -0.2437
 3136W        W 4033   4.411   7.504   3.159 -0.1139 -0.3108 -0.1210
 3137W        W 4034   7.492   2.682   6.031 -0.1409 -0.0951 -0.2056
 3138W        W 4035   3.635   6.267   6.528  0.1153 -0.0263  0.4482
 3139W        W 4036   6.055   2.361   1.619  0.2219  0.1973  0.0651
 3140W        W 4037   4.482   2.572   0.686 -0.0567  0.3598 -0.1953
 3141W        W 4038   2.047   6.414   7.501  0.2065 -0.1121 -0.1615
 3142W        W 4039   0.126   3.614   3.972 -0.3398  0.2307  0.0635
 3143W        W 4040   3.800   4.026   6.081 -0.0973  0.0126 -0.0161
 3144W        W 4041   3.356   1.421   1.067 -0.1979  0.0670 -0.1277
 3145W        W 4042   3.617   3.439   4.395 -0.1295  0.2946  0.0699
 3146W        W 4043   2.928   2.398   5.325 -0.0723  0.0809 -0.0054
 3147W        W 4044   1.519   1.393   5.388 -0.2489 -0.0057  0.0191
 3148W        W 4045   5.280   0.316   3.852  0.0154  0.2461 -0.0384
 3149W        W 4046   1.261   3.868   2.678  0.3037  0.1057 -0.3730
 3150W        W 4047   2.950   6.900   0.039 -0.1497  0.1890  0.0921
 3151W        W 4048   3.664   1.290   0.313  0.1207 -0.1261 -0.0895
 3152W        W 4049   3.988   0.047   4.650 -0.0984  0.3721 -0.0693
 3153W        W 4050   5.783   3.752   4.282 -0.1416  0.0069 -0.2634
 3154W        W 4051   6.140   0.726   6.398  0.0843 -0.2654  0.0135
 3155W        W 4052   0.738   1.304   7.113 -0.0948  0.0762 -0.0278
 3156W        W 4053   0.370   3.779   1.644 -0.0575 -0.1280  0.2113
 3157W        W 4054   6.871   0.238   7.474  0.0123  0.1281 -0.0078
 3158W        W 4055   5.030   0.563   5.130  0.2568  0.1030 -0.1020
 3159W        W 4056   1.621   1.722   7.192  0.1653 -0.2432 -0.0101
 3160W        W 4057   1.942   3.130   6.985  0.2242 -0.1504 -0.0998
 3161W        W 4058   2.918   1.706   0.410 -0.1084 -0.0768  0.0803
 3162W        W 4059   2.254   6.924   6.693  0.1039 -0.0647  0.2743
 3163W        W 4060   3.204   7.539   1.248 -0.0810 -0.0034  0.0624
 3164W        W 4061   3.284   1.276   6.467  0.3746  0.0497  0.0347
 3165W        W 4062   2.644   7.073   3.082  0.0211  0.2013  0.2578
 3166W        W 4063   1.264   6.254   6.640  0.2168 -0.2608 -0.0013
 3167W        W 4064   2.053   6.554   2.453 -0.1725  0.0921 -0.2441
 3168W        W 4065   1.511   5.223   2.184  0.1647 -0.0702  0.0522
 3169W        W 4066   5.286   5.732   7.314 -0.3291  0.1973 -0.0726
 3170W        W 4067   4.805   4.916   3.682 -0.0704  0.4070  0.0201
 3171W        W 4068   1.370   7.349   7.377 -0.2976 -0.0222 -0.0568
 3172W        W 4069   6.113   1.106   3.772  0.2501 -0.1249  0.0617
 3173W        W 4070   2.602   2.712   5.641 -0.0735 -0.1651  0.0010
 3174W        W 4071   5.662   7.100   1.331  0.1740  0.3693 -0.1569
 3175W        W 4072   0.051   0.892   7.254 -0.2306 -0.1884  0.0187
 3176W        W 4073   4.179   5.663   0.792  0.0144  0.0412  0.0506
 3177W        W 4074   6.625   6.118   5.115 -0.1378  0.1198  0.0782
 3178W        W 4075   2.169   0.926   5.846  0.2873 -0.0475  0.1842
 3179W        W 4076   3.526   2.274   4.008  0.2623  0.2287  0.3469
 3180W        W 4077   7.332   0.953   4.434 -0.1790  0.2290 -0.0205
 3181W        W 4078   1.091   5.565   5.109 -0.0563  0.0530 -0.1345
 3182W        W 4079   0.268   5.778   2.477  0.1584  0.3092  0.1182
 3183W        W 4080   0.607   5.043   3.409  0.0954 -0.1987  0.3076
 3184W        W 4081   2.425   4.281   1.520  0.1369  0.0397  0.1043
 3185W        W 4082   4.691   1.761   2.744  0.0030  0.0131 -0.1034
 3186W        W 4083   5.829   1.319   3.388  0.1449  0.2689 -0.0007
 3187W        W 4084   4.126   4.631   6.594  0.0150  0.0081  0.0383
 3188W        W 4085   4.314   6.574   1.811 -0.0934  0.0800 -0.0199
 3189W        W 4086   6.994   3.383   7.207 -0.3306 -0.3040  0.0927
 3190W        W 4087   4.404   3.050   4.683 -0.2018 -0.2628 -0.1906
 3191W        W 4088   1.956   3.956   6.260 -0.0083 -0.1447 -0.1883
 3192W        W 4089   1.489   6.429   7.485  0.3081 -0.1721 -0.2159
 3193W        W 4090   0.673   3.574   6.056  0.0214 -0.0762  0.1170
 3194W        W 4091   5.601   0.822   6.520  0.1160  0.1085  0.3517
 3195W        W 4092   2.780   6.274   1.327 -0.3240  0.0510  0.0486
 3196W        W 4093   0.180   1.023   4.644  0.1921 -0.1400  0.1239
 3197W        W 4094   2.778   5.199   1.947  0.0686 -0.3195  0.1141
 3198W        W 4095   4.444   0.130   0.655  0.1909 -0.0750  0.1285
 3199W        W 4096   5.523   2.140   4.300 -0.1232  0.0050  0.0397
 3200W        W 4097   5.599   4.658   4.676  0.2025 -0.0269  0.0914
 3201W        W 4098   5.125   2.647   3.731 -0.1759 -0.0088  0.0931
 3202W        W 4099   6.341   7.116   0.174 -0.0583 -0.1442 -0.1653
 3203W        W 4100   4.335   2.968   1.573  0.0826  0.1432 -0.1020
 3204W        W 4101   2.649   2.771   7.426  0.0251 -0.1629  0.2070
 3205W        W 4102   2.048   3.655   5.552  0.0799  0.0355  0.0567
 3206W        W 4103   0.194   7.017   7.203  0.2013  0.4874 -0.1548
 3207W        W 4104   6.426   0.046   0.308 -0.0683 -0.0863  0.2411
 3208W        W 4105   1.127   7.076   2.608  0.0680  0.1137  0.3154
 3209W        W 4106   4.059   5.690   6.299  0.2729 -0.0566  0.0648
 3210W        W 4107   4.177   2.026   5.738  0.1316 -0.0574  0.1544
 3211W        W 4108   6.120   5.787   1.639 -0.1537  0.1358 -0.0363
 3212W        W 4109   0.655   4.149   6.694  0.1003 -0.0338 -0.1070
 3213W        W 4110   5.327   2.873   1.217  0.1622  0.1038 -0.0521
 3214W        W 4111   0.099   4.536   0.123 -0.0776  0.1298 -0.0571
 3215W        W 4112   3.817   1.413   1.333 -0.3456 -0.0295  0.2848
 3216W        W 4113   4.521   1.771   4.568  0.3489 -0.0740 -0.0869
 3217W        W 4114   6.774   5.943   3.198 -0.2540  0.0747 -0.1662
 3218W        W 4115   3.913   3.043   7.625  0.2285 -0.0592 -0.4016
 3219W        W 4116   3.614   0.410   6.533  0.0824 -0.0325  0.2438
 3220W        W 4117   2.293   0.082   5.527  0.3601 -0.2790 -0.1537
 3221W        W 4118   1.544   2.581   5.555  0.0358 -0.0041 -0.0586
 3222W        W 4119   5.707   7.154   4.910  0.0511 -0.5163 -0.0542
 3223W        W 4120   0.039   5.289   5.147  0.0510 -0.1708  0.0501
 3224W        W 4121   1.539   6.428   3.890  0.1957  0.0989  0.2694
 3225W        W 4122   5.033   2.471   0.335  0.2995 -0.0660  0.0577
 3226W        W 4123   4.005   2.751   1.184 -0.0827  0.1550  0.1944
 3227W        W 4124   4.436   5.590   0.295  0.0806 -0.2638 -0.2942
 3228W        W 4125   3.522   6.714   1.490  0.0165 -0.2159 -0.0968
 3229W        W 4126   2.789   6.747   3.550 -0.0531 -0.1654  0.1021
 3230W        W 4127   2.876   4.195   1.345  0.0438 -0.0559  0.1434
 3231W        W 4128   5.363   6.255   5.580  0.3044  0.2053 -0.0241
 3232W        W 4129   1.430   0.291   7.338  0.0660  0.1838 -0.1758
 3233W        W 4130   6.852   6.430   7.313 -0.2162  0.0528 -0.1985
 3234W        W 4131   1.839   2.947   5.800 -0.3416  0.0920 -0.2165
 3235W        W 4132   4.144   5.979   0.318  0.1946 -0.0200 -0.0772
 3236W        W 4133   7.310   6.663   5.449  0.1930  0.2079 -0.2642
 3237W        W 4134   2.271   4.731   3.590 -0.1619 -0.1206 -0.1060
 3238W        W 4135   6.182   7.340   1.102 -0.3187  0.1752  0.3748
 3239W        W 4136   0.288   7.283   1.479 -0.0141 -0.0441  0.2108
 3240W        W 4137   1.352   5.328   2.645  0.0629  0.0995  0.2523
 3241W        W 4138   2.386   2.544   4.677  0.0215  0.2383  0.2300
 3242W        W 4139   5.948   0.193   0.192 -0.0420 -0.0501  0.1497
 3243W        W 4140   7.133   6.314   2.823  0.0055 -0.0865 -0.3101
 3244W        W 4141   1.693   3.031   0.513  0.2987  0.2433  0.1838
 3245W        W 4142   3.906   2.902   4.594 -0.0504  0.2210 -0.1703
 3246W        W 4143   7.422   1.644   5.898 -0.0466  0.0139 -0.1956
 3247W        W 4144   5.611   5.723   5.925 -0.0723 -0.1942  0.1052
 3248W        W 4145   2.065   5.605   1.581  0.0187  0.2983  0.1064
 3249W        W 4146   2.815   1.171   6.680 -0.2283 -0.2339  0.0336
 3250W        W 4147   6.841   0.242   5.614  0.2014  0.0851 -0.2881
 3251W        W 4148   3.852   1.672   0.025 -0.1275 -0.0492 -0.0401
 3252W        W 4149   0.464   6.207   2.230 -0.2706 -0.0497  0.2267
 3253W        W 4150   7.318   1.080   5.918  0.2524  0.0187  0.1190
 3254W        W 4151   6.244   1.964   0.759  0.0390  0.0401  0.1535
 3255W        W 4152   4.435   6.126   0.836 -0.3865 -0.1226  0.2476
 3256W        W 4153   2.410   6.736   0.172 -0.0516  0.5550  0.1672
 3257W        W 4154   4.893   7.607   0.919 -0.0246  0.1879 -0.0144
 3258W        W 4155   0.320   2.911   6.281 -0.0058  0.2544  0.3063
 3259W        W 4156   4.003   0.263   5.284  0.0273 -0.0469 -0.3486
 3260W        W 4157   5.816   7.511   5.971 -0.0249 -0.1173 -0.1277
 3261W        W 4158   2.819   6.814   4.875 -0.0277 -0.1960  0.0574
 3262W        W 4159   3.824   5.781   5.841  0.0042  0.1116 -0.0139
   7.62875   7.62875   7.62875
