Martini system from ../2_Creating_coordinates/TYR-PRO-TYR_aa.pdb
 4272
    1TYR     BB    1   5.665   7.369   0.582 -0.1338  0.2712 -0.0067
    1TYR    SC1    2   5.956   7.345   0.686  0.3033 -0.0500 -0.0063
    1TYR    SC2    3   6.225   7.373   0.678  0.2937  0.1502  0.2163
    1TYR    SC3    4   6.081   7.504   0.866  0.0190  0.2075 -0.0257
    2PRO     BB    5   5.693   7.348   0.213  0.0665 -0.1966  0.0329
    2PRO    SC1    6   5.919   7.313   0.088 -0.1073  0.0201  0.1678
    3TYR     BB    7   5.459   7.159   0.059 -0.1430  0.2556 -0.0253
    3TYR    SC1    8   5.307   7.305  -0.161 -0.1966 -0.2122  0.0916
    3TYR    SC2    9   5.271   7.340  -0.426 -0.3274  0.4316  0.1724
    3TYR    SC3   10   5.076   7.411  -0.253 -0.3500 -0.2178  0.4490
    1TYR     BB   11   4.121   6.422   3.672 -0.0849 -0.3782 -0.0406
    1TYR    SC1   12   4.159   6.707   3.685 -0.0922  0.0852  0.3520
    1TYR    SC2   13   4.312   6.863   3.526 -0.2635 -0.1899 -0.1064
    1TYR    SC3   14   4.261   6.939   3.780  0.5012 -0.0165  0.0272
    2PRO     BB   15   4.284   6.314   3.928 -0.2959 -0.2373  0.1496
    2PRO    SC1   16   4.125   6.172   4.073  0.2306 -0.1152  0.1348
    3TYR     BB   17   4.236   6.611   4.220  0.0447 -0.0266  0.1557
    3TYR    SC1   18   4.257   6.424   4.469 -0.1756  0.0815 -0.0677
    3TYR    SC2   19   4.195   6.187   4.583 -0.1751  0.0159 -0.2009
    3TYR    SC3   20   4.454   6.254   4.543 -0.1554  0.2142  0.1970
    1TYR     BB   21   5.156   5.572   0.886  0.0132  0.1053 -0.0276
    1TYR    SC1   22   5.136   5.858   0.757  0.0655 -0.0287 -0.2585
    1TYR    SC2   23   5.039   6.091   0.853  0.0057 -0.1604  0.0117
    1TYR    SC3   24   5.047   6.048   0.587  0.3469  0.2896 -0.0655
    2PRO     BB   25   5.364   5.600   1.154 -0.2346 -0.0932 -0.1010
    2PRO    SC1   26   5.534   5.860   1.078 -0.0097  0.0236 -0.0790
    3TYR     BB   27   5.437   5.457   1.409 -0.2576 -0.0561 -0.2429
    3TYR    SC1   28   5.698   5.559   1.492  0.1988  0.2053  0.0327
    3TYR    SC2   29   5.779   5.816   1.501  0.2914  0.1788 -0.0210
    3TYR    SC3   30   5.943   5.620   1.588  0.0535  0.1712  0.4520
    1TYR     BB   31   5.656   5.978   6.862 -0.1002 -0.1583 -0.0408
    1TYR    SC1   32   5.933   5.929   7.021 -0.0977  0.4106  0.1997
    1TYR    SC2   33   6.186   5.893   6.936 -0.1171  0.2355  0.2118
    1TYR    SC3   34   6.139   5.958   7.193 -0.0803  0.3688  0.1860
    2PRO     BB   35   5.489   5.743   6.902  0.0245  0.1881  0.1826
    2PRO    SC1   36   5.186   5.765   6.920 -0.0517  0.1065  0.0663
    3TYR     BB   37   5.574   5.411   6.766 -0.3926 -0.0139  0.2188
    3TYR    SC1   38   5.558   5.494   6.495  0.1595 -0.0879  0.2359
    3TYR    SC2   39   5.470   5.621   6.274  0.0478 -0.1176  0.2625
    3TYR    SC3   40   5.683   5.455   6.259 -0.1549 -0.3738  0.1072
    1TYR     BB   41   5.503   5.151   2.358 -0.0448  0.2095  0.1628
    1TYR    SC1   42   5.524   4.963   2.624  0.2964  0.3341 -0.1239
    1TYR    SC2   43   5.405   4.954   2.866  0.0292  0.0989 -0.2569
    1TYR    SC3   44   5.652   4.851   2.833  0.2776  0.5648  0.0160
    2PRO     BB   45   5.728   5.132   2.057 -0.2419  0.1789  0.1045
    2PRO    SC1   46   5.767   4.832   2.070  0.0384 -0.3171 -0.0279
    3TYR     BB   47   5.857   5.313   1.950  0.1501  0.0466 -0.0592
    3TYR    SC1   48   6.160   5.415   1.912  0.1631 -0.0465  0.0056
    3TYR    SC2   49   6.327   5.371   1.705  0.1185 -0.1284 -0.0136
    3TYR    SC3   50   6.424   5.465   1.939  0.2385 -0.4334  0.0663
    1TYR     BB   51   5.948   7.173   2.112  0.2686  0.0744  0.2135
    1TYR    SC1   52   5.713   7.173   1.961  0.3793  0.3184 -0.3558
    1TYR    SC2   53   5.663   7.108   1.704  0.1366  0.1140 -0.2615
    1TYR    SC3   54   5.516   7.298   1.826  0.1712  0.1258 -0.2384
    2PRO     BB   55   5.940   7.349   2.397 -0.0790  0.0027  0.0790
    2PRO    SC1   56   6.207   7.384   2.517 -0.1945  0.0938 -0.1763
    3TYR     BB   57   5.729   7.597   2.262 -0.3070 -0.2074 -0.0576
    3TYR    SC1   58   5.540   7.660   2.490 -0.0667  0.1855 -0.2732
    3TYR    SC2   59   5.577   7.505   2.708  0.2877  0.2536 -0.2764
    3TYR    SC3   60   5.352   7.653   2.683  0.4312  0.5991  0.2716
    1TYR     BB   61   6.490   5.995   0.872  0.3543 -0.2000  0.1340
    1TYR    SC1   62   6.601   5.741   0.805  0.0638 -0.0359  0.3013
    1TYR    SC2   63   6.700   5.673   0.563 -0.1063 -0.0610  0.2374
    1TYR    SC3   64   6.791   5.550   0.785 -0.0211 -0.1089  0.1769
    2PRO     BB   65   6.600   6.247   0.905  0.0458  0.0119 -0.1249
    2PRO    SC1   66   6.855   6.265   1.003  0.0695 -0.2900  0.0206
    3TYR     BB   67   6.386   6.511   0.812  0.2430 -0.0760  0.0143
    3TYR    SC1   68   6.222   6.466   0.573  0.1108 -0.1636 -0.0627
    3TYR    SC2   69   6.194   6.448   0.305  0.0250  0.3029 -0.0957
    3TYR    SC3   70   5.977   6.486   0.461  0.0770  0.0538  0.0431
    1TYR     BB   71   4.803   4.752   3.604  0.1303  0.0319  0.1393
    1TYR    SC1   72   4.779   4.472   3.656 -0.2703 -0.0144  0.1703
    1TYR    SC2   73   4.670   4.234   3.722  0.0864 -0.1725  0.2179
    1TYR    SC3   74   4.899   4.314   3.840  0.1880  0.0096 -0.0912
    2PRO     BB   75   4.724   4.815   3.298 -0.1176  0.1516 -0.0084
    2PRO    SC1   76   4.668   4.661   3.047  0.1186  0.0991  0.0597
    3TYR     BB   77   4.946   5.061   3.070 -0.0619 -0.1150  0.3530
    3TYR    SC1   78   4.915   4.980   2.736  0.0154  0.0075 -0.1805
    3TYR    SC2   79   5.003   5.007   2.483 -0.0823  0.3471 -0.1855
    3TYR    SC3   80   4.852   4.794   2.551  0.0422  0.1912 -0.3798
    1TYR     BB   81   3.703   5.731   3.280 -0.3768 -0.0150 -0.2252
    1TYR    SC1   82   3.670   5.946   3.446  0.0734 -0.1403  0.1065
    1TYR    SC2   83   3.676   6.202   3.532  0.1066 -0.0128 -0.2555
    1TYR    SC3   84   3.687   6.000   3.711 -0.0741  0.2335  0.0475
    2PRO     BB   85   3.963   5.668   3.081 -0.0220  0.0865 -0.0679
    2PRO    SC1   86   3.940   5.852   2.872  0.1185 -0.1901  0.0437
    3TYR     BB   87   4.258   5.534   3.111 -0.2009 -0.5066 -0.1377
    3TYR    SC1   88   4.284   5.237   3.004 -0.0847  0.2136 -0.2044
    3TYR    SC2   89   4.484   5.071   2.930 -0.0605  0.1069  0.0839
    3TYR    SC3   90   4.251   5.069   2.795 -0.1347 -0.3156  0.2012
    1TYR     BB   91   4.397   5.093   3.513 -0.0840 -0.2024  0.3069
    1TYR    SC1   92   4.192   4.933   3.388  0.2188 -0.1151  0.5149
    1TYR    SC2   93   4.009   4.735   3.387  0.0414  0.0428  0.2397
    1TYR    SC3   94   4.183   4.760   3.181  0.2678 -0.0055  0.4196
    2PRO     BB   95   4.672   5.334   3.425  0.6566  0.0985  0.0704
    2PRO    SC1   96   4.952   5.224   3.538 -0.2310 -0.0274 -0.1222
    3TYR     BB   97   4.591   5.577   3.510 -0.0818 -0.2325  0.0100
    3TYR    SC1   98   4.446   5.610   3.780  0.1116 -0.1123 -0.1897
    3TYR    SC2   99   4.395   5.802   3.962 -0.0399  0.0847 -0.4303
    3TYR    SC3  100   4.376   5.542   4.031  0.3420  0.1437 -0.0499
    1TYR     BB  101   6.116   5.378   7.551 -0.4948 -0.0704  0.1020
    1TYR    SC1  102   6.373   5.411   7.685  0.4291 -0.1364  0.2662
    1TYR    SC2  103   6.640   5.386   7.711  0.4539  0.1674  0.3565
    1TYR    SC3  104   6.512   5.592   7.830  0.1456 -0.0986  0.5046
    2PRO     BB  105   5.953   5.665   7.507 -0.2327  0.1580 -0.0244
    2PRO    SC1  106   5.683   5.676   7.386 -0.2735  0.3128  0.0819
    3TYR     BB  107   5.990   5.887   7.681 -0.0785 -0.2008 -0.0751
    3TYR    SC1  108   6.170   6.012   7.858  0.0301 -0.0867  0.0006
    3TYR    SC2  109   6.426   6.093   7.827  0.0400 -0.1551 -0.1017
    3TYR    SC3  110   6.342   5.999   8.065  0.0104  0.2139  0.0421
    1TYR     BB  111   5.558   4.921   4.148 -0.0473 -0.0165  0.1152
    1TYR    SC1  112   5.745   4.824   3.962  0.1655 -0.0588 -0.1529
    1TYR    SC2  113   5.926   4.730   3.785  0.1484  0.1383 -0.2785
    1TYR    SC3  114   5.773   4.943   3.722 -0.2536 -0.1257 -0.2455
    2PRO     BB  115   5.723   5.056   4.400  0.1662  0.1102  0.1218
    2PRO    SC1  116   5.758   4.947   4.630  0.1284 -0.1001  0.0043
    3TYR     BB  117   5.851   5.331   4.398 -0.0603 -0.2215 -0.4755
    3TYR    SC1  118   6.169   5.285   4.401  0.0733  0.1121 -0.1274
    3TYR    SC2  119   6.328   5.392   4.210 -0.0016  0.4220 -0.0230
    3TYR    SC3  120   6.429   5.214   4.387  0.0740  0.1475 -0.3306
    1TYR     BB  121   5.897   6.392   0.902  0.0066 -0.3769 -0.2987
    1TYR    SC1  122   6.009   6.122   0.761  0.1119  0.0231 -0.3583
    1TYR    SC2  123   5.985   5.855   0.789  0.3145  0.0416  0.0941
    1TYR    SC3  124   5.929   5.971   0.552  0.0962 -0.3807 -0.0742
    2PRO     BB  125   5.606   6.323   0.911  0.1749 -0.0534 -0.0405
    2PRO    SC1  126   5.502   6.248   0.629 -0.3057  0.2870 -0.1420
    3TYR     BB  127   5.353   6.339   1.157  0.1490  0.1077 -0.0429
    3TYR    SC1  128   5.131   6.504   1.090 -0.3987 -0.1058  0.3001
    3TYR    SC2  129   4.872   6.580   1.079 -0.3260  0.1373 -0.3964
    3TYR    SC3  130   5.068   6.761   1.036 -0.0218 -0.0452  0.1052
    1TYR     BB  131   4.554   6.852   2.748  0.0527 -0.1668  0.1805
    1TYR    SC1  132   4.491   7.082   2.655 -0.0981  0.0691 -0.0413
    1TYR    SC2  133   4.427   7.215   2.429  0.1087 -0.0015 -0.1443
    1TYR    SC3  134   4.284   7.256   2.655 -0.3476 -0.2104 -0.3781
    2PRO     BB  135   4.872   6.735   2.583  0.1001 -0.0109  0.1069
    2PRO    SC1  136   4.878   6.484   2.585  0.0272  0.2854 -0.1065
    3TYR     BB  137   4.951   6.973   2.395  0.0150 -0.1977 -0.2199
    3TYR    SC1  138   4.780   6.932   2.181 -0.2469 -0.2201 -0.0788
    3TYR    SC2  139   4.706   6.818   1.948 -0.1075  0.0184 -0.2454
    3TYR    SC3  140   4.570   7.030   2.044  0.0719  0.1693 -0.3165
    1TYR     BB  141   6.264   6.378   6.856 -0.2150 -0.1384  0.0478
    1TYR    SC1  142   6.592   6.388   6.813 -0.1046 -0.1119  0.2015
    1TYR    SC2  143   6.788   6.381   6.628 -0.4757  0.5935 -0.2756
    1TYR    SC3  144   6.842   6.470   6.877 -0.0292 -0.1077 -0.0834
    2PRO     BB  145   6.224   6.684   6.895  0.0745  0.1677  0.0512
    2PRO    SC1  146   6.252   6.698   7.225  0.3834  0.0915  0.2012
    3TYR     BB  147   6.048   6.855   6.738 -0.1172  0.1163 -0.0066
    3TYR    SC1  148   6.135   7.005   6.476  0.1647  0.0939 -0.1296
    3TYR    SC2  149   6.085   7.179   6.277  0.0254 -0.1755 -0.3383
    3TYR    SC3  150   6.336   7.088   6.315  0.0889  0.0236 -0.2624
    1TYR     BB  151   6.162   6.026   5.426  0.2161 -0.1338 -0.0102
    1TYR    SC1  152   6.477   6.084   5.442  0.0922  0.0483  0.0012
    1TYR    SC2  153   6.672   6.020   5.266  0.1163 -0.3115  0.1464
    1TYR    SC3  154   6.725   6.186   5.473  0.0716  0.1662 -0.2045
    2PRO     BB  155   6.122   6.026   5.801 -0.0594 -0.0961  0.0610
    2PRO    SC1  156   6.221   5.846   6.015 -0.2523 -0.0271  0.3689
    3TYR     BB  157   5.919   6.246   5.938  0.0606  0.0480 -0.1170
    3TYR    SC1  158   5.897   6.149   6.230 -0.1447 -0.1753 -0.2145
    3TYR    SC2  159   5.784   5.958   6.383  0.0235 -0.0329  0.0997
    3TYR    SC3  160   6.038   6.035   6.430 -0.0161  0.2158 -0.0704
    1TYR     BB  161   4.795   7.198   0.283  0.1066  0.3116 -0.0585
    1TYR    SC1  162   5.031   7.361   0.233  0.1575 -0.0821  0.0858
    1TYR    SC2  163   5.229   7.495   0.358 -0.0599  0.2363  0.1045
    1TYR    SC3  164   5.093   7.613   0.157 -0.0824 -0.0640 -0.0630
    2PRO     BB  165   4.835   6.884   0.240  0.1716 -0.0455 -0.0699
    2PRO    SC1  166   5.111   6.845   0.141 -0.0612  0.1737  0.0568
    3TYR     BB  167   4.698   6.559   0.157  0.1095  0.2364  0.1483
    3TYR    SC1  168   4.751   6.465  -0.142  0.3182  0.0763  0.0123
    3TYR    SC2  169   4.959   6.384  -0.293  0.2165 -0.1217 -0.0271
    3TYR    SC3  170   4.744   6.497  -0.409  0.2756  0.0299  0.0075
    1TYR     BB  171   5.981   6.373   3.636  0.2169 -0.0519 -0.1773
    1TYR    SC1  172   5.728   6.260   3.790  0.3689 -0.2871 -0.2582
    1TYR    SC2  173   5.479   6.164   3.831  0.1109  0.4742  0.2225
    1TYR    SC3  174   5.689   6.054   3.960  0.1147 -0.3483 -0.3859
    2PRO     BB  175   6.196   6.144   3.580  0.1046  0.3190 -0.0605
    2PRO    SC1  176   6.415   6.278   3.691  0.1840  0.1207  0.1632
    3TYR     BB  177   6.025   5.809   3.606  0.0333  0.1026  0.4861
    3TYR    SC1  178   5.716   5.779   3.549  0.1759 -0.1970 -0.1714
    3TYR    SC2  179   5.549   5.657   3.375 -0.2593  0.3083 -0.1401
    3TYR    SC3  180   5.452   5.769   3.600  0.2796 -0.2779  0.4390
    1TYR     BB  181   4.301   6.739   2.356  0.2467  0.1322  0.2795
    1TYR    SC1  182   4.095   6.827   2.568 -0.1376 -0.0609 -0.0920
    1TYR    SC2  183   3.901   6.702   2.708 -0.2482  0.0857 -0.1114
    1TYR    SC3  184   3.946   6.965   2.745 -0.2021  0.1014 -0.2690
    2PRO     BB  185   4.151   6.522   2.181 -0.1337 -0.2495  0.1390
    2PRO    SC1  186   4.239   6.610   1.903 -0.1866 -0.0282  0.3230
    3TYR     BB  187   3.778   6.609   2.225 -0.2728 -0.0248 -0.4587
    3TYR    SC1  188   3.721   6.366   2.390  0.0739 -0.0717 -0.1296
    3TYR    SC2  189   3.680   6.215   2.609  0.2031  0.0681 -0.0065
    3TYR    SC3  190   3.823   6.117   2.402 -0.2000 -0.1901 -0.1759
    1TYR     BB  191   6.291   7.054   3.098 -0.0452  0.3273 -0.0426
    1TYR    SC1  192   6.048   7.281   3.114 -0.1471 -0.1054  0.1043
    1TYR    SC2  193   5.948   7.494   2.981 -0.0928 -0.0743  0.1130
    1TYR    SC3  194   5.872   7.446   3.236 -0.1286 -0.0828  0.1007
    2PRO     BB  195   6.195   6.956   2.801  0.1723  0.1723  0.0871
    2PRO    SC1  196   6.431   6.933   2.632  0.3801  0.1768  0.3477
    3TYR     BB  197   5.884   6.954   2.694  0.2150  0.0931  0.0596
    3TYR    SC1  198   5.695   7.010   2.950 -0.0546 -0.0704  0.4065
    3TYR    SC2  199   5.535   7.193   3.067  0.1456  0.0750  0.4587
    3TYR    SC3  200   5.506   6.931   3.126 -0.1331  0.0887  0.3953
    1TYR     BB  201   4.358   6.241   5.095 -0.3118  0.3110 -0.1549
    1TYR    SC1  202   4.451   6.533   5.237  0.3496 -0.0067 -0.0756
    1TYR    SC2  203   4.480   6.799   5.271 -0.0306  0.0231  0.0819
    1TYR    SC3  204   4.280   6.669   5.396  0.0550 -0.3139 -0.1162
    2PRO     BB  205   4.255   5.974   5.307 -0.0198  0.3340 -0.2060
    2PRO    SC1  206   4.073   5.857   5.090  0.0977 -0.1089  0.2721
    3TYR     BB  207   3.989   5.847   5.530 -0.0921  0.0410 -0.0455
    3TYR    SC1  208   4.144   5.563   5.604  0.2884 -0.0942 -0.0718
    3TYR    SC2  209   4.126   5.302   5.670 -0.0500  0.0129  0.3126
    3TYR    SC3  210   4.039   5.387   5.428  0.2131 -0.2434  0.1188
    1TYR     BB  211   6.253   5.183   5.220  0.0576 -0.1867 -0.0157
    1TYR    SC1  212   6.464   5.382   5.338  0.4371 -0.1458  0.7366
    1TYR    SC2  213   6.679   5.527   5.262  0.1703 -0.0942 -0.0276
    1TYR    SC3  214   6.483   5.643   5.407  0.3549  0.0440  0.1183
    2PRO     BB  215   6.321   4.922   5.299 -0.3842 -0.2096  0.1659
    2PRO    SC1  216   6.667   4.905   5.232  0.0659  0.1876 -0.0011
    3TYR     BB  217   6.150   4.820   5.510  0.0735  0.1985 -0.0626
    3TYR    SC1  218   6.072   4.509   5.453  0.0304 -0.0845  0.1193
    3TYR    SC2  219   5.959   4.288   5.346  0.2205  0.0541 -0.4035
    3TYR    SC3  220   6.203   4.274   5.461  0.1714 -0.0307 -0.3079
    1TYR     BB  221   5.756   6.602   7.058  0.0955 -0.2627  0.2871
    1TYR    SC1  222   5.807   6.870   7.210 -0.0882 -0.1167 -0.1021
    1TYR    SC2  223   5.734   7.101   7.330 -0.1043 -0.3364  0.3360
    1TYR    SC3  224   5.962   7.090   7.185 -0.0899 -0.0547  0.3308
    2PRO     BB  225   5.851   6.368   7.164 -0.0780  0.0035 -0.2479
    2PRO    SC1  226   5.658   6.183   7.304  0.1014  0.0141  0.0290
    3TYR     BB  227   6.041   6.373   7.504 -0.1972  0.1414 -0.2373
    3TYR    SC1  228   5.971   6.627   7.624  0.1631 -0.0264 -0.0938
    3TYR    SC2  229   5.823   6.851   7.650 -0.0229 -0.1756  0.1978
    3TYR    SC3  230   6.084   6.853   7.720  0.1155  0.0756 -0.2716
    1TYR     BB  231   5.036   4.654   0.380  0.0681 -0.0059 -0.1293
    1TYR    SC1  232   4.841   4.869   0.302  0.1523  0.0409  0.0553
    1TYR    SC2  233   4.773   5.126   0.254 -0.0343 -0.0076  0.0506
    1TYR    SC3  234   4.584   4.949   0.331  0.2114  0.0440  0.8990
    2PRO     BB  235   5.281   4.709   0.147 -0.0588  0.1402 -0.3885
    2PRO    SC1  236   5.142   4.710  -0.108  0.0502 -0.1768 -0.0377
    3TYR     BB  237   5.578   4.777   0.285 -0.2779 -0.0878 -0.1496
    3TYR    SC1  238   5.747   4.551   0.285 -0.0668 -0.2028  0.1600
    3TYR    SC2  239   5.996   4.450   0.307  0.0330  0.0001  0.0051
    3TYR    SC3  240   5.808   4.317   0.165  0.1758  0.0486 -0.2373
    1TYR     BB  241   4.999   5.115   7.385 -0.1201  0.3756 -0.3073
    1TYR    SC1  242   5.138   5.189   7.696 -0.0004 -0.1255 -0.0843
    1TYR    SC2  243   5.306   5.213   7.906 -0.3252  0.1340  0.1597
    1TYR    SC3  244   5.314   5.393   7.705 -0.0962 -0.0456  0.0004
    2PRO     BB  245   5.098   5.309   7.219 -0.1609  0.1088  0.1830
    2PRO    SC1  246   5.372   5.343   7.181 -0.0216 -0.2212  0.2918
    3TYR     BB  247   4.776   5.448   7.103  0.0408  0.1552 -0.0396
    3TYR    SC1  248   4.671   5.201   7.021 -0.1369  0.0952  0.1618
    3TYR    SC2  249   4.753   4.980   6.890 -0.1349 -0.0144  0.3439
    3TYR    SC3  250   4.496   5.001   6.971 -0.1932  0.1526  0.1270
    1TYR     BB  251   3.993   5.388   0.267 -0.0530  0.2108 -0.0144
    1TYR    SC1  252   3.839   5.672   0.210  0.3269  0.2398  0.1305
    1TYR    SC2  253   3.735   5.890   0.089  0.1998  0.0848 -0.0473
    1TYR    SC3  254   3.651   5.820   0.335  0.2164  0.2156 -0.0034
    2PRO     BB  255   4.321   5.387   0.419  0.0611  0.0898 -0.2482
    2PRO    SC1  256   4.495   5.574   0.301  0.1717  0.2936 -0.1323
    3TYR     BB  257   4.212   5.254   0.700  0.3034  0.0469  0.0373
    3TYR    SC1  258   4.002   5.041   0.643  0.0649 -0.0059 -0.1227
    3TYR    SC2  259   3.923   4.786   0.684 -0.0353  0.0613  0.1284
    3TYR    SC3  260   3.739   4.981   0.655  0.0394  0.1451  0.2097
    1TYR     BB  261   6.596   4.628   2.395  0.0777 -0.1303  0.1243
    1TYR    SC1  262   6.585   4.887   2.570  0.1121  0.2485 -0.2592
    1TYR    SC2  263   6.488   5.052   2.761  0.0246 -0.0217 -0.0618
    1TYR    SC3  264   6.749   5.063   2.692  0.0914 -0.0178  0.1810
    2PRO     BB  265   6.257   4.522   2.287  0.0117 -0.0565  0.0029
    2PRO    SC1  266   6.121   4.608   2.503 -0.0538  0.0742  0.1455
    3TYR     BB  267   6.111   4.531   2.041  0.2539  0.1579 -0.0134
    3TYR    SC1  268   6.007   4.281   1.888 -0.1564 -0.0142 -0.1611
    3TYR    SC2  269   6.021   4.021   1.818 -0.0516  0.0040 -0.2087
    3TYR    SC3  270   5.869   4.191   1.674 -0.3978 -0.0970  0.0225
    1TYR     BB  271   5.735   6.714   3.900  0.0614 -0.2100 -0.0910
    1TYR    SC1  272   5.479   6.619   3.768 -0.1898 -0.0257  0.1559
    1TYR    SC2  273   5.498   6.624   3.498 -0.0189  0.1053  0.1677
    1TYR    SC3  274   5.256   6.626   3.617 -0.0940  0.3005  0.0173
    2PRO     BB  275   5.928   6.500   4.242  0.1271  0.3222 -0.0816
    2PRO    SC1  276   6.153   6.376   4.092  0.3843 -0.1119  0.1229
    3TYR     BB  277   5.761   6.491   4.433 -0.4852  0.5722 -0.2299
    3TYR    SC1  278   5.663   6.730   4.565  0.0284 -0.1679  0.2503
    3TYR    SC2  279   5.706   6.981   4.656 -0.0863 -0.1249  0.1885
    3TYR    SC3  280   5.509   6.934   4.477 -0.0705 -0.2606  0.2054
    1TYR     BB  281   4.882   6.017   4.628 -0.1291 -0.1788  0.1865
    1TYR    SC1  282   4.713   5.933   4.848 -0.0821  0.0516 -0.0974
    1TYR    SC2  283   4.479   5.805   4.887 -0.0426  0.0541  0.1723
    1TYR    SC3  284   4.674   5.790   5.073  0.2169 -0.0362 -0.0956
    2PRO     BB  285   4.741   5.885   4.348  0.1917 -0.4074  0.1006
    2PRO    SC1  286   4.776   5.590   4.370  0.1619 -0.1227  0.3518
    3TYR     BB  287   4.771   6.119   4.100 -0.0253  0.2912 -0.0562
    3TYR    SC1  288   4.822   6.390   4.237  0.1083 -0.3673  0.1306
    3TYR    SC2  289   4.722   6.632   4.301 -0.1277 -0.3809 -0.1608
    3TYR    SC3  290   4.873   6.497   4.480  0.0570  0.0010 -0.0140
    1TYR     BB  291   5.223   4.632   3.238  0.1499 -0.0383  0.0503
    1TYR    SC1  292   5.271   4.663   3.529 -0.0024 -0.2279  0.0244
    1TYR    SC2  293   5.374   4.602   3.771 -0.2031 -0.1910  0.1219
    1TYR    SC3  294   5.297   4.855   3.718 -0.1691 -0.2012  0.0219
    2PRO     BB  295   5.213   4.290   3.232  0.1844  0.5873 -0.2062
    2PRO    SC1  296   4.936   4.210   3.252  0.1031 -0.3090  0.1053
    3TYR     BB  297   5.440   4.145   3.102  0.1812  0.0072  0.2667
    3TYR    SC1  298   5.692   4.260   3.014 -0.0182 -0.0613  0.1285
    3TYR    SC2  299   5.952   4.328   2.999  0.0002 -0.1670 -0.0706
    3TYR    SC3  300   5.789   4.371   2.788 -0.2473  0.2940  0.1939
    1TYR     BB  301   4.723   6.996   0.717  0.0187 -0.1664 -0.1297
    1TYR    SC1  302   5.019   7.070   0.714 -0.0592  0.2520 -0.3742
    1TYR    SC2  303   5.239   7.060   0.557  0.1758  0.1057 -0.0501
    1TYR    SC3  304   5.253   7.172   0.803 -0.0402 -0.1483  0.0841
    2PRO     BB  305   4.479   7.235   0.765  0.0059 -0.1431  0.1071
    2PRO    SC1  306   4.265   7.307   0.956  0.1498  0.1188 -0.0120
    3TYR     BB  307   4.497   7.491   0.556  0.0709  0.1066 -0.3454
    3TYR    SC1  308   4.765   7.593   0.599  0.1938 -0.4575 -0.0540
    3TYR    SC2  309   5.002   7.538   0.715  0.2812  0.1482  0.0921
    3TYR    SC3  310   4.957   7.782   0.607 -0.2958  0.0689  0.1146
    1TYR     BB  311   4.520   6.999   7.015  0.0989 -0.1423  0.3180
    1TYR    SC1  312   4.387   6.784   6.868  0.0328  0.3744 -0.0803
    1TYR    SC2  313   4.459   6.638   6.653 -0.0923  0.0348  0.0986
    1TYR    SC3  314   4.199   6.660   6.720 -0.0568  0.1591  0.2013
    2PRO     BB  315   4.737   7.197   6.807 -0.3187 -0.0270  0.1301
    2PRO    SC1  316   4.869   7.380   6.983  0.1445 -0.0382 -0.0493
    3TYR     BB  317   4.648   7.118   6.495 -0.0023 -0.3102  0.0102
    3TYR    SC1  318   4.365   7.207   6.461 -0.0428  0.4540  0.2119
    3TYR    SC2  319   4.146   7.199   6.620 -0.1245  0.0877  0.0922
    3TYR    SC3  320   4.174   7.397   6.438 -0.5262 -0.0363 -0.1192
    1TYR     BB  321   5.959   6.701   1.278  0.4167  0.1131 -0.1033
    1TYR    SC1  322   5.860   6.455   1.506  0.3029 -0.0403  0.0416
    1TYR    SC2  323   5.657   6.281   1.542  0.0700  0.2204  0.0256
    1TYR    SC3  324   5.857   6.293   1.722  0.0548 -0.0132  0.0621
    2PRO     BB  325   5.636   6.798   1.189  0.3904 -0.0677  0.2667
    2PRO    SC1  326   5.468   6.718   1.379  0.0474  0.3468  0.0101
    3TYR     BB  327   5.573   6.859   0.926  0.1398 -0.0591  0.1305
    3TYR    SC1  328   5.599   6.776   0.609 -0.2081  0.0077  0.1036
    3TYR    SC2  329   5.538   6.690   0.360 -0.1313 -0.1396  0.1344
    3TYR    SC3  330   5.727   6.880   0.395 -0.2006 -0.0592  0.0752
    1TYR     BB  331   5.114   7.668   1.430  0.2654 -0.1749  0.0957
    1TYR    SC1  332   5.124   7.865   1.175 -0.0711  0.2627  0.3503
    1TYR    SC2  333   4.944   8.033   1.065 -0.0810  0.1699  0.2219
    1TYR    SC3  334   5.207   8.071   1.022 -0.0928  0.0223  0.0009
    2PRO     BB  335   5.139   7.372   1.553 -0.0008 -0.3512 -0.2491
    2PRO    SC1  336   5.292   7.210   1.381 -0.0787 -0.0546 -0.0397
    3TYR     BB  337   4.916   7.247   1.800 -0.0553 -0.0190  0.0647
    3TYR    SC1  338   4.594   7.316   1.630 -0.2594 -0.2016 -0.0114
    3TYR    SC2  339   4.411   7.348   1.433 -0.0810 -0.2302 -0.1862
    3TYR    SC3  340   4.364   7.175   1.635 -0.2993 -0.1448 -0.1607
    1TYR     BB  341   6.494   4.117   3.116 -0.0564 -0.1572 -0.1815
    1TYR    SC1  342   6.229   3.961   3.186  0.2481  0.3384 -0.0816
    1TYR    SC2  343   6.120   3.774   3.347  0.2381  0.0646 -0.3936
    1TYR    SC3  344   5.961   3.938   3.203  0.2472  0.2319 -0.2180
    2PRO     BB  345   6.467   4.445   3.131 -0.1381  0.1858 -0.3148
    2PRO    SC1  346   6.459   4.542   2.906  0.1265  0.0154  0.0675
    3TYR     BB  347   6.550   4.420   3.515 -0.2826 -0.1552 -0.1054
    3TYR    SC1  348   6.299   4.247   3.575 -0.1712  0.0203  0.2317
    3TYR    SC2  349   6.046   4.289   3.492 -0.1067 -0.2531 -0.1403
    3TYR    SC3  350   6.098   4.097   3.675 -0.1531 -0.2969 -0.1729
    1TYR     BB  351   5.438   0.405   1.515  0.0036 -0.0692  0.3107
    1TYR    SC1  352   5.320   0.301   1.798  0.1074 -0.0872  0.1006
    1TYR    SC2  353   5.404   0.089   1.943  0.4918 -0.1031 -0.1274
    1TYR    SC3  354   5.174   0.215   2.008  0.3658 -0.4528  0.1424
    2PRO     BB  355   5.665   0.346   1.349  0.0207 -0.1672  0.0011
    2PRO    SC1  356   5.901   0.493   1.478 -0.1053  0.3610 -0.1309
    3TYR     BB  357   5.758   0.228   1.088  0.2799  0.3545  0.2588
    3TYR    SC1  358   5.578   0.073   0.919 -0.3819 -0.0127 -0.0561
    3TYR    SC2  359   5.400   0.054   0.716 -0.2473 -0.5018 -0.1453
    3TYR    SC3  360   5.372  -0.100   0.936 -0.2086 -0.2128  0.0699
    1TYR     BB  361   5.377   4.042   2.502  0.1592 -0.1396 -0.1724
    1TYR    SC1  362   5.276   4.300   2.628  0.5215  0.2174  0.0696
    1TYR    SC2  363   5.269   4.566   2.674  0.1320  0.2090  0.0982
    1TYR    SC3  364   5.054   4.413   2.730  0.2668 -0.0786 -0.1329
    2PRO     BB  365   5.524   4.222   2.188  0.1357  0.0038 -0.1128
    2PRO    SC1  366   5.733   4.333   2.325 -0.1027 -0.1385  0.0929
    3TYR     BB  367   5.441   4.211   1.948 -0.2085  0.1401  0.1278
    3TYR    SC1  368   5.591   4.458   1.745  0.1552 -0.1478 -0.0750
    3TYR    SC2  369   5.491   4.690   1.650 -0.0346 -0.2035 -0.0167
    3TYR    SC3  370   5.748   4.622   1.599 -0.0695 -0.1340 -0.3080
    1TYR     BB  371   4.062   4.986   3.856 -0.0737 -0.0132  0.3586
    1TYR    SC1  372   4.029   5.112   4.128  0.1167 -0.1330  0.2115
    1TYR    SC2  373   4.097   5.282   4.327  0.1004 -0.1312  0.2156
    1TYR    SC3  374   3.955   5.059   4.383 -0.2571  0.0724  0.1548
    2PRO     BB  375   4.366   4.750   3.919  0.1986  0.2010  0.2258
    2PRO    SC1  376   4.240   4.566   3.740 -0.0881 -0.1256 -0.0696
    3TYR     BB  377   4.571   4.582   4.126 -0.0069 -0.1072 -0.1552
    3TYR    SC1  378   4.866   4.674   4.133  0.0087 -0.1065  0.1167
    3TYR    SC2  379   5.049   4.861   4.066  0.0222 -0.1227  0.1083
    3TYR    SC3  380   5.129   4.625   4.168  0.0062 -0.1319  0.0996
    1TYR     BB  381   5.550   6.580   5.814 -0.1477  0.0970  0.1350
    1TYR    SC1  382   5.453   6.841   5.653  0.1523 -0.0019  0.1490
    1TYR    SC2  383   5.566   7.085   5.633  0.0583  0.0377  0.0925
    1TYR    SC3  384   5.473   6.962   5.412 -0.1358  0.0672  0.1553
    2PRO     BB  385   5.462   6.329   5.623 -0.0708  0.1455 -0.0730
    2PRO    SC1  386   5.184   6.376   5.630  0.1330  0.0893 -0.2576
    3TYR     BB  387   5.662   6.088   5.543  0.2482  0.2036 -0.1096
    3TYR    SC1  388   5.620   5.819   5.645 -0.1493  0.1329  0.3121
    3TYR    SC2  389   5.543   5.584   5.753  0.1623 -0.0441  0.1666
    3TYR    SC3  390   5.698   5.754   5.895  0.3110 -0.1340  0.1143
    1TYR     BB  391   5.111   5.870   5.617 -0.3187 -0.1689 -0.2094
    1TYR    SC1  392   5.092   5.652   5.802 -0.0480 -0.0370 -0.0530
    1TYR    SC2  393   4.911   5.459   5.853 -0.0353  0.0084  0.1741
    1TYR    SC3  394   5.090   5.530   6.042  0.5232 -0.3498 -0.1839
    2PRO     BB  395   4.776   5.909   5.525 -0.0875  0.0570 -0.0761
    2PRO    SC1  396   4.797   6.159   5.366 -0.1351  0.2434 -0.0581
    3TYR     BB  397   4.530   5.832   5.731 -0.2665  0.1028 -0.0030
    3TYR    SC1  398   4.364   6.094   5.756  0.2936  0.0298  0.0981
    3TYR    SC2  399   4.294   6.316   5.893  0.1308  0.0459 -0.0089
    3TYR    SC3  400   4.264   6.308   5.624  0.2057 -0.0790 -0.0142
    1TYR     BB  401   5.999   5.135   2.502  0.0082 -0.2017 -0.3306
    1TYR    SC1  402   6.189   5.049   2.316 -0.3672 -0.0108 -0.2024
    1TYR    SC2  403   6.436   5.131   2.245 -0.3395  0.1259  0.0377
    1TYR    SC3  404   6.274   5.015   2.062 -0.0248 -0.1578 -0.0754
    2PRO     BB  405   5.907   5.463   2.471  0.0722  0.1223  0.3069
    2PRO    SC1  406   6.150   5.573   2.380  0.0397  0.0403  0.0257
    3TYR     BB  407   5.578   5.707   2.550 -0.0024  0.0667 -0.2875
    3TYR    SC1  408   5.426   5.487   2.721  0.0270  0.0256 -0.0014
    3TYR    SC2  409   5.189   5.360   2.747 -0.1331  0.2792 -0.1718
    3TYR    SC3  410   5.349   5.394   2.962 -0.1590 -0.0629 -0.0925
    1TYR     BB  411   5.310   5.920   1.522  0.1488  0.2701  0.1053
    1TYR    SC1  412   5.049   5.923   1.353  0.0061 -0.1407 -0.1387
    1TYR    SC2  413   4.852   5.865   1.178 -0.3757 -0.4011  0.3447
    1TYR    SC3  414   4.909   6.122   1.237 -0.1189 -0.2966 -0.2616
    2PRO     BB  415   5.198   6.197   1.759  0.2311  0.2364 -0.2995
    2PRO    SC1  416   5.133   6.408   1.621 -0.5511  0.0552  0.3033
    3TYR     BB  417   5.041   6.078   2.010  0.1122 -0.0128  0.0058
    3TYR    SC1  418   5.005   5.775   1.926 -0.0344 -0.2489 -0.0700
    3TYR    SC2  419   4.955   5.526   1.834 -0.0980 -0.3500  0.2226
    3TYR    SC3  420   4.795   5.635   2.022  0.1240 -0.2215  0.3420
    1TYR     BB  421   4.899   4.968   1.996 -0.1174  0.0976  0.0701
    1TYR    SC1  422   4.623   4.874   2.170  0.3183 -0.3910 -0.0962
    1TYR    SC2  423   4.432   4.685   2.189 -0.0581 -0.0006  0.2546
    1TYR    SC3  424   4.455   4.874   2.381  0.2915  0.3258 -0.0872
    2PRO     BB  425   5.250   4.938   1.983  0.1917 -0.0958  0.0759
    2PRO    SC1  426   5.310   5.147   1.776 -0.2980  0.1044  0.0397
    3TYR     BB  427   5.285   4.668   2.201  0.2618  0.0936  0.0319
    3TYR    SC1  428   5.067   4.506   2.206 -0.1060  0.0597 -0.0066
    3TYR    SC2  429   4.838   4.434   2.083 -0.0963  0.0021  0.0092
    3TYR    SC3  430   4.892   4.343   2.332  0.0488 -0.1709 -0.0828
    1TYR     BB  431   5.133   7.684   6.610 -0.0474 -0.0191 -0.3321
    1TYR    SC1  432   4.882   7.600   6.459 -0.0573  0.0308 -0.0352
    1TYR    SC2  433   4.613   7.586   6.437 -0.0607 -0.1902  0.1062
    1TYR    SC3  434   4.768   7.560   6.218 -0.1580  0.2890 -0.0345
    2PRO     BB  435   5.442   7.581   6.348  0.0131 -0.4226  0.1842
    2PRO    SC1  436   5.311   7.493   6.115  0.2628  0.0942  0.2752
    3TYR     BB  437   5.778   7.587   6.308 -0.1688 -0.0449  0.0622
    3TYR    SC1  438   5.865   7.484   6.035  0.2564 -0.1542  0.0771
    3TYR    SC2  439   5.809   7.416   5.780  0.2230  0.1356  0.0030
    3TYR    SC3  440   6.048   7.351   5.888  0.2234 -0.0200 -0.0883
    1TYR     BB  441   6.323   5.945   1.739 -0.0466  0.0069  0.0140
    1TYR    SC1  442   6.164   6.085   1.485 -0.0152 -0.3152 -0.0509
    1TYR    SC2  443   6.076   6.051   1.232 -0.2193  0.0268 -0.0346
    1TYR    SC3  444   6.239   6.258   1.292 -0.1702 -0.0531  0.1156
    2PRO     BB  445   6.534   5.811   1.545 -0.3238  0.1295  0.1267
    2PRO    SC1  446   6.463   5.657   1.301  0.1862  0.0328  0.0021
    3TYR     BB  447   6.808   5.948   1.392  0.1532  0.0092 -0.0198
    3TYR    SC1  448   6.955   5.748   1.239 -0.0896  0.2640 -0.3946
    3TYR    SC2  449   6.990   5.486   1.183 -0.0659  0.1637  0.0474
    3TYR    SC3  450   7.196   5.658   1.157 -0.1050  0.1647 -0.3321
    1TYR     BB  451   6.783   5.986   6.992  0.3033  0.0763 -0.0122
    1TYR    SC1  452   6.549   5.868   7.175 -0.4841  0.0015 -0.2010
    1TYR    SC2  453   6.476   5.812   7.428 -0.1968  0.0823 -0.0948
    1TYR    SC3  454   6.468   5.619   7.240 -0.2013 -0.0379  0.0262
    2PRO     BB  455   6.692   5.837   6.707  0.1661  0.3203 -0.0275
    2PRO    SC1  456   6.565   5.968   6.510 -0.1486  0.0853  0.2791
    3TYR     BB  457   6.507   5.489   6.727 -0.0248 -0.1356 -0.2488
    3TYR    SC1  458   6.252   5.583   6.628 -0.3050  0.1959  0.2075
    3TYR    SC2  459   6.146   5.580   6.380  0.0801  0.3256  0.0325
    3TYR    SC3  460   5.984   5.595   6.595 -0.2925 -0.2321 -0.1799
    1TYR     BB  461   4.846   6.928   3.445  0.0593 -0.0438  0.2104
    1TYR    SC1  462   5.047   7.178   3.441  0.0310  0.0215  0.3196
    1TYR    SC2  463   5.192   7.299   3.634  0.2289 -0.2966  0.3807
    1TYR    SC3  464   5.243   7.351   3.374 -0.0761  0.1764  0.4011
    2PRO     BB  465   4.755   6.674   3.165 -0.1623 -0.2200 -0.1025
    2PRO    SC1  466   5.036   6.611   3.190 -0.2193 -0.1932  0.1567
    3TYR     BB  467   4.567   6.517   3.352 -0.4728  0.2055  0.1189
    3TYR    SC1  468   4.622   6.525   3.659  0.1461  0.2079 -0.0183
    3TYR    SC2  469   4.617   6.711   3.855 -0.1281  0.0473  0.1354
    3TYR    SC3  470   4.843   6.573   3.806 -0.0073  0.2115  0.2184
    1TYR     BB  471   3.735   6.671   3.458 -0.0658  0.2301 -0.0236
    1TYR    SC1  472   3.685   6.596   3.776  0.1581 -0.1371  0.2315
    1TYR    SC2  473   3.793   6.674   4.010  0.1413 -0.2071  0.2631
    1TYR    SC3  474   3.653   6.444   3.997 -0.5425  0.1668  0.3756
    2PRO     BB  475   3.933   6.477   3.238  0.1292 -0.0638  0.0994
    2PRO    SC1  476   3.782   6.275   3.090 -0.0762  0.1112  0.2362
    3TYR     BB  477   4.171   6.608   3.090  0.3551 -0.0704  0.0318
    3TYR    SC1  478   4.272   6.478   2.836  0.1406  0.0347  0.0641
    3TYR    SC2  479   4.396   6.348   2.634  0.1335 -0.1187  0.1567
    3TYR    SC3  480   4.143   6.283   2.703  0.0048  0.1757 -0.0147
    1TYR     BB  481   5.456   5.840   0.141  0.4200  0.0242  0.0589
    1TYR    SC1  482   5.440   5.735   0.435  0.0364 -0.1260 -0.1342
    1TYR    SC2  483   5.622   5.639   0.610  0.0579 -0.0136 -0.0934
    1TYR    SC3  484   5.417   5.483   0.528 -0.1272  0.0264  0.2671
    2PRO     BB  485   5.409   6.165   0.204 -0.0342  0.0560  0.0962
    2PRO    SC1  486   5.641   6.267   0.063  0.1972 -0.1934 -0.2333
    3TYR     BB  487   5.184   6.308   0.163 -0.1653 -0.0748  0.2649
    3TYR    SC1  488   5.061   6.473   0.444  0.0304  0.1518 -0.1543
    3TYR    SC2  489   4.914   6.537   0.661 -0.1658  0.0623 -0.2578
    3TYR    SC3  490   5.157   6.648   0.626  0.0271 -0.1857  0.1879
    1TYR     BB  491   6.316   5.480   4.840  0.1231  0.2662  0.0397
    1TYR    SC1  492   6.564   5.293   4.857  0.1941  0.2185 -0.3427
    1TYR    SC2  493   6.827   5.287   4.919  0.1455 -0.0802 -0.1352
    1TYR    SC3  494   6.728   5.116   4.735  0.0828 -0.0186 -0.1595
    2PRO     BB  495   6.410   5.805   4.761 -0.1163 -0.0676 -0.3678
    2PRO    SC1  496   6.237   5.906   4.978  0.1764 -0.2006  0.1120
    3TYR     BB  497   6.516   5.757   4.475  0.5292 -0.1376  0.2823
    3TYR    SC1  498   6.282   5.835   4.277  0.0542  0.1195 -0.2627
    3TYR    SC2  499   6.266   5.828   4.008 -0.1373 -0.2662 -0.2507
    3TYR    SC3  500   6.043   5.798   4.157 -0.0041 -0.2694 -0.0472
    1TYR     BB  501   4.049   5.424   3.568 -0.2550 -0.4157  0.1537
    1TYR    SC1  502   3.854   5.215   3.397 -0.1902 -0.0206  0.0140
    1TYR    SC2  503   3.837   5.170   3.132 -0.3183  0.0887  0.0025
    1TYR    SC3  504   3.673   5.040   3.302 -0.0556 -0.1858  0.0560
    2PRO     BB  505   3.834   5.575   3.801 -0.1805  0.2240  0.0971
    2PRO    SC1  506   3.672   5.354   3.858 -0.0277 -0.0197 -0.1103
    3TYR     BB  507   3.905   5.758   4.066 -0.0172 -0.3645 -0.1990
    3TYR    SC1  508   4.053   5.739   4.331 -0.3025 -0.1061  0.0019
    3TYR    SC2  509   4.297   5.796   4.432 -0.1304 -0.1614 -0.3624
    3TYR    SC3  510   4.086   5.765   4.598  0.0251  0.2620 -0.0630
    1TYR     BB  511   5.637   6.620   2.360 -0.1223 -0.1847 -0.0638
    1TYR    SC1  512   5.649   6.713   2.113 -0.1237  0.0543  0.1454
    1TYR    SC2  513   5.561   6.571   1.900 -0.2526  0.2898  0.0368
    1TYR    SC3  514   5.782   6.725   1.878 -0.0280  0.0038  0.1961
    2PRO     BB  515   5.374   6.550   2.466 -0.2423 -0.5415  0.0118
    2PRO    SC1  516   5.340   6.513   2.760 -0.0478  0.2309  0.0369
    3TYR     BB  517   5.159   6.510   2.192 -0.0089  0.1003 -0.0595
    3TYR    SC1  518   5.178   6.742   1.999  0.2347 -0.0591 -0.0001
    3TYR    SC2  519   5.260   6.888   1.787  0.0877 -0.0335 -0.0405
    3TYR    SC3  520   5.285   6.987   2.037  0.0060  0.0544 -0.0663
    1TYR     BB  521   5.902   5.418   3.865 -0.0230 -0.1295  0.0856
    1TYR    SC1  522   6.090   5.152   3.886  0.5268 -0.1847 -0.3985
    1TYR    SC2  523   6.345   5.067   3.912  0.4243 -0.4016  0.0178
    1TYR    SC3  524   6.150   4.956   4.062  0.1305 -0.0276 -0.0673
    2PRO     BB  525   5.659   5.450   3.990  0.5113  0.0151  0.2205
    2PRO    SC1  526   5.526   5.661   4.120  0.1347 -0.1203 -0.0660
    3TYR     BB  527   5.351   5.305   3.840 -0.0331 -0.1698 -0.3858
    3TYR    SC1  528   5.111   5.521   3.882 -0.2139 -0.1344 -0.0385
    3TYR    SC2  529   5.041   5.771   3.807 -0.2490 -0.2559 -0.4396
    3TYR    SC3  530   4.853   5.600   3.899 -0.1595 -0.0071  0.2842
    1TYR     BB  531   4.364   5.975   1.310  0.2798  0.0190 -0.1986
    1TYR    SC1  532   4.468   6.173   1.063 -0.1542  0.0927  0.1078
    1TYR    SC2  533   4.314   6.248   0.854 -0.0127  0.3040  0.0760
    1TYR    SC3  534   4.537   6.388   0.915  0.1478  0.0274  0.1464
    2PRO     BB  535   4.046   5.951   1.292  0.0978  0.0289 -0.1828
    2PRO    SC1  536   3.915   5.992   1.044 -0.0098  0.2171  0.0753
    3TYR     BB  537   3.856   5.792   1.496  0.2676 -0.1354 -0.0611
    3TYR    SC1  538   3.940   5.485   1.638 -0.2088  0.0056  0.0901
    3TYR    SC2  539   4.018   5.263   1.771 -0.1426  0.0659  0.1533
    3TYR    SC3  540   4.051   5.279   1.503  0.0857  0.0988  0.1814
    1TYR     BB  541   5.880   6.664   6.194 -0.4192 -0.3247  0.1278
    1TYR    SC1  542   6.165   6.601   6.317 -0.1549  0.0929 -0.0769
    1TYR    SC2  543   6.347   6.417   6.394 -0.0936  0.0883 -0.2283
    1TYR    SC3  544   6.424   6.672   6.352 -0.1508  0.1180 -0.1551
    2PRO     BB  545   5.673   6.573   6.460  0.1135 -0.1496  0.0016
    2PRO    SC1  546   5.798   6.407   6.643 -0.0700  0.1122 -0.1837
    3TYR     BB  547   5.361   6.664   6.530 -0.2082  0.1104  0.2819
    3TYR    SC1  548   5.163   6.921   6.493 -0.0779 -0.1008 -0.0764
    3TYR    SC2  549   5.083   7.121   6.331  0.0023  0.0064  0.0140
    3TYR    SC3  550   5.196   7.178   6.569  0.1586 -0.1441 -0.0215
    1TYR     BB  551   5.644   7.090   6.609 -0.1592 -0.0603  0.2585
    1TYR    SC1  552   5.552   7.079   6.306 -0.1555 -0.1904 -0.2238
    1TYR    SC2  553   5.674   7.103   6.067 -0.0788  0.0164 -0.1665
    1TYR    SC3  554   5.445   6.961   6.087  0.0467 -0.2166 -0.3112
    2PRO     BB  555   5.702   7.348   6.771 -0.0957  0.0826  0.0736
    2PRO    SC1  556   6.019   7.408   6.814  0.0709  0.0614 -0.0931
    3TYR     BB  557   5.537   7.537   6.890 -0.2210  0.1820  0.2964
    3TYR    SC1  558   5.552   7.651   7.192 -0.1262 -0.1605  0.0056
    3TYR    SC2  559   5.680   7.586   7.421  0.0038  0.1006  0.0123
    3TYR    SC3  560   5.440   7.709   7.431 -0.0125  0.0696  0.0064
    1TYR     BB  561   4.795   5.525   7.589 -0.0678  0.1849  0.3345
    1TYR    SC1  562   4.602   5.298   7.600 -0.3065 -0.0190  0.1234
    1TYR    SC2  563   4.365   5.188   7.667 -0.2354 -0.2002  0.0846
    1TYR    SC3  564   4.527   5.062   7.492 -0.1749 -0.0042 -0.0037
    2PRO     BB  565   4.959   5.680   7.814  0.1188 -0.2549 -0.1770
    2PRO    SC1  566   4.966   5.573   8.050 -0.3824 -0.0428 -0.3018
    3TYR     BB  567   4.827   6.009   7.775  0.2141 -0.0613 -0.3212
    3TYR    SC1  568   4.633   6.042   8.008 -0.0029 -0.2452  0.3388
    3TYR    SC2  569   4.396   6.089   8.129 -0.0997  0.1055  0.0365
    3TYR    SC3  570   4.614   6.232   8.199 -0.0677  0.0499  0.0512
    1TYR     BB  571   4.867   4.775   0.918  0.0310 -0.0368  0.0542
    1TYR    SC1  572   4.757   4.565   1.119  0.0136  0.1438  0.1391
    1TYR    SC2  573   4.761   4.364   1.299  0.2230  0.0801  0.0662
    1TYR    SC3  574   4.525   4.460   1.211  0.1199 -0.0752  0.1658
    2PRO     BB  575   4.644   5.010   0.858  0.2945  0.3907 -0.0144
    2PRO    SC1  576   4.736   5.269   0.763 -0.2814 -0.1499  0.2417
    3TYR     BB  577   4.412   5.090   1.101 -0.1016  0.2962 -0.5128
    3TYR    SC1  578   4.222   4.862   1.124  0.0222 -0.0067  0.2998
    3TYR    SC2  579   3.959   4.801   1.119  0.0042  0.0639 -0.1562
    3TYR    SC3  580   4.142   4.619   1.038  0.0687  0.1252 -0.1493
    1TYR     BB  581   5.950   6.588   5.546 -0.0206 -0.0330 -0.1024
    1TYR    SC1  582   6.163   6.542   5.348 -0.1787 -0.0430 -0.0252
    1TYR    SC2  583   6.291   6.387   5.168 -0.1358  0.0210 -0.0502
    1TYR    SC3  584   6.401   6.620   5.247 -0.1857  0.0244  0.0100
    2PRO     BB  585   6.027   6.916   5.621 -0.0062  0.4196  0.0560
    2PRO    SC1  586   5.989   7.048   5.315  0.0078 -0.1453  0.2801
    3TYR     BB  587   6.240   6.887   5.908  0.4303  0.1309 -0.1337
    3TYR    SC1  588   6.335   6.616   5.900  0.3246  0.0675  0.1549
    3TYR    SC2  589   6.391   6.368   5.990 -0.0757  0.0650  0.4308
    3TYR    SC3  590   6.414   6.425   5.727 -0.0972 -0.2984  0.3436
    1TYR     BB  591   6.488   6.741   1.251  0.0982 -0.0612  0.2219
    1TYR    SC1  592   6.643   6.828   1.453 -0.1026  0.2213 -0.0653
    1TYR    SC2  593   6.736   7.064   1.545 -0.0666  0.1361  0.1241
    1TYR    SC3  594   6.814   6.834   1.662  0.0645  0.0127 -0.1902
    2PRO     BB  595   6.325   6.989   1.035 -0.0542  0.0815  0.1299
    2PRO    SC1  596   6.416   7.282   1.124  0.3360 -0.2304  0.3051
    3TYR     BB  597   6.057   6.890   0.795 -0.0422 -0.1781 -0.2340
    3TYR    SC1  598   6.229   6.903   0.526 -0.1127  0.1539  0.2069
    3TYR    SC2  599   6.327   7.053   0.324 -0.2630  0.4994  0.3801
    3TYR    SC3  600   6.487   6.876   0.450 -0.2319  0.0753 -0.2036
    1TYR     BB  601   4.304   5.667   2.631  0.0783  0.0028 -0.1160
    1TYR    SC1  602   4.501   5.880   2.538  0.1828  0.1721 -0.2383
    1TYR    SC2  603   4.741   5.866   2.414  0.2340 -0.0841 -0.1180
    1TYR    SC3  604   4.710   6.025   2.629  0.2621  0.0377 -0.2027
    2PRO     BB  605   4.319   5.425   2.477  0.1134  0.1715  0.3802
    2PRO    SC1  606   4.613   5.341   2.436 -0.0217 -0.2081 -0.3162
    3TYR     BB  607   4.179   5.368   2.210  0.0276 -0.2360 -0.1372
    3TYR    SC1  608   4.096   5.095   2.214 -0.1284 -0.1879  0.0282
    3TYR    SC2  609   3.971   4.927   2.385 -0.5602  0.0421 -0.0432
    3TYR    SC3  610   3.983   4.868   2.122 -0.3863 -0.0453 -0.0179
    1TYR     BB  611   5.923   0.128   0.493  0.2113 -0.2254  0.1855
    1TYR    SC1  612   6.172   0.000   0.352 -0.0885 -0.2143 -0.2171
    1TYR    SC2  613   6.320  -0.201   0.250  0.0166 -0.1528 -0.1881
    1TYR    SC3  614   6.373   0.054   0.180 -0.0451 -0.1265 -0.1402
    2PRO     BB  615   5.746   0.139   0.190  0.1182 -0.0653 -0.1107
    2PRO    SC1  616   5.488   0.222   0.212  0.0454 -0.1286  0.1808
    3TYR     BB  617   5.970   0.275  -0.036 -0.2234  0.1475 -0.0691
    3TYR    SC1  618   6.119   0.011  -0.156  0.1212 -0.1261  0.4042
    3TYR    SC2  619   6.129  -0.170  -0.356 -0.0007  0.2275  0.0631
    3TYR    SC3  620   6.354  -0.107  -0.220  0.1380  0.1561 -0.1264
    1TYR     BB  621   5.385   6.238   4.618  0.1838  0.1111  0.0377
    1TYR    SC1  622   5.269   6.175   4.912 -0.2924 -0.0918 -0.0101
    1TYR    SC2  623   5.284   6.221   5.177 -0.0332  0.0888 -0.0511
    1TYR    SC3  624   5.165   5.997   5.086 -0.2819  0.1080  0.2072
    2PRO     BB  625   5.285   6.240   4.432  0.0122 -0.0295 -0.1022
    2PRO    SC1  626   5.208   6.020   4.265 -0.1169 -0.2672 -0.0199
    3TYR     BB  627   5.341   6.516   4.206  0.2038  0.1376 -0.0452
    3TYR    SC1  628   5.167   6.760   4.117  0.0372  0.1629  0.0598
    3TYR    SC2  629   4.945   6.906   4.073 -0.0247  0.0903  0.1283
    3TYR    SC3  630   5.164   6.946   3.921 -0.1014  0.1255  0.0251
    1TYR     BB  631   5.227   4.629   1.190  0.0826 -0.0103 -0.2048
    1TYR    SC1  632   5.095   4.574   1.455 -0.1572  0.0400  0.0766
    1TYR    SC2  633   4.985   4.582   1.702 -0.2034 -0.1592  0.0645
    1TYR    SC3  634   5.100   4.355   1.612  0.2761  0.0548  0.0977
    2PRO     BB  635   5.373   4.925   1.225 -0.0037  0.0012  0.0026
    2PRO    SC1  636   5.209   5.119   1.126  0.2856  0.1013 -0.2080
    3TYR     BB  637   5.721   4.857   1.132 -0.1058 -0.0424  0.2999
    3TYR    SC1  638   5.795   5.137   1.034 -0.1275  0.2184  0.0409
    3TYR    SC2  639   5.823   5.290   0.814  0.0178  0.2488  0.0796
    3TYR    SC3  640   5.820   5.405   1.058  0.3114  0.1792  0.1208
    1TYR     BB  641   6.604   5.082   0.603 -0.0276  0.1847 -0.0062
    1TYR    SC1  642   6.500   4.799   0.547  0.1139 -0.0152 -0.1254
    1TYR    SC2  643   6.416   4.572   0.665 -0.0432  0.0391 -0.1303
    1TYR    SC3  644   6.480   4.572   0.402  0.0773 -0.0267 -0.1020
    2PRO     BB  645   6.343   5.279   0.674  0.0777  0.2251 -0.1381
    2PRO    SC1  646   6.271   5.278   0.992  0.0953 -0.4012 -0.1086
    3TYR     BB  647   6.175   5.504   0.531 -0.2143  0.1071  0.1019
    3TYR    SC1  648   5.940   5.464   0.353  0.0931  0.0293 -0.2213
    3TYR    SC2  649   5.803   5.237   0.299  0.0735  0.0238 -0.1502
    3TYR    SC3  650   5.727   5.471   0.187 -0.0738  0.0445 -0.0116
    1TYR     BB  651   6.297   4.804   1.051 -0.2301 -0.1762 -0.2834
    1TYR    SC1  652   6.596   4.940   1.180  0.3680 -0.1893 -0.3093
    1TYR    SC2  653   6.637   5.123   1.375  0.4604 -0.3018 -0.2209
    1TYR    SC3  654   6.725   5.171   1.124 -0.1178  0.0833 -0.3786
    2PRO     BB  655   6.190   4.644   1.301  0.0629  0.1473 -0.1159
    2PRO    SC1  656   6.116   4.394   1.295  0.3320  0.0398 -0.1416
    3TYR     BB  657   6.258   4.776   1.628 -0.1666 -0.1703 -0.0037
    3TYR    SC1  658   6.042   5.010   1.618 -0.1202 -0.0009  0.0363
    3TYR    SC2  659   5.813   5.129   1.539 -0.1584  0.1652  0.3775
    3TYR    SC3  660   6.047   5.196   1.422 -0.2262  0.3229  0.3286
    1TYR     BB  661   4.247   6.373   0.012 -0.0804  0.0743 -0.0793
    1TYR    SC1  662   4.216   6.634  -0.138 -0.2430  0.2249 -0.1416
    1TYR    SC2  663   4.266   6.725  -0.387  0.3971  0.2428 -0.0285
    1TYR    SC3  664   4.145   6.885  -0.206  0.0851  0.2898 -0.2677
    2PRO     BB  665   4.298   6.141  -0.150 -0.1924 -0.0530  0.0783
    2PRO    SC1  666   4.315   6.245  -0.457  0.0437  0.0451 -0.2850
    3TYR     BB  667   4.277   5.814  -0.052  0.0533  0.0011 -0.1193
    3TYR    SC1  668   4.306   5.642  -0.298 -0.4878  0.0072 -0.0018
    3TYR    SC2  669   4.309   5.616  -0.567 -0.1060 -0.2733  0.0180
    3TYR    SC3  670   4.294   5.396  -0.410  0.1919 -0.1569  0.2213
    1TYR     BB  671   5.807   4.896   6.941  0.0277 -0.0937  0.0213
    1TYR    SC1  672   5.466   4.849   6.945 -0.0794  0.2639 -0.1442
    1TYR    SC2  673   5.305   4.784   7.151  0.1703 -0.2460 -0.0905
    1TYR    SC3  674   5.206   4.922   6.941 -0.1022  0.2489  0.3324
    2PRO     BB  675   5.817   5.230   7.145  0.2311  0.0248  0.1964
    2PRO    SC1  676   6.076   5.372   7.050 -0.1370  0.0061 -0.1443
    3TYR     BB  677   5.685   5.140   7.447 -0.2461 -0.0490 -0.0021
    3TYR    SC1  678   5.703   4.830   7.484 -0.2582  0.0705 -0.5260
    3TYR    SC2  679   5.588   4.593   7.423  0.1210 -0.2885  0.0318
    3TYR    SC3  680   5.850   4.603   7.486  0.1095  0.2857  0.0493
    1TYR     BB  681   4.339   6.622   0.491  0.0182 -0.2188  0.2244
    1TYR    SC1  682   4.349   6.912   0.350  0.0455  0.3136  0.0168
    1TYR    SC2  683   4.290   7.071   0.141 -0.1928  0.0604 -0.1165
    1TYR    SC3  684   4.175   7.116   0.381 -0.3133  0.0495 -0.1714
    2PRO     BB  685   4.063   6.651   0.648  0.0184 -0.0725  0.2950
    2PRO    SC1  686   4.018   6.889   0.823 -0.1103 -0.0574 -0.1244
    3TYR     BB  687   3.826   6.428   0.782 -0.0261 -0.0449  0.4231
    3TYR    SC1  688   3.695   6.541   1.006 -0.1085  0.1047 -0.0253
    3TYR    SC2  689   3.702   6.752   1.174 -0.0437  0.2909 -0.2560
    3TYR    SC3  690   3.504   6.571   1.195  0.1179  0.1490  0.2042
    1TYR     BB  691   4.907   6.729   6.868  0.0678 -0.2343  0.2574
    1TYR    SC1  692   5.099   6.460   6.905  0.1255  0.0771  0.3485
    1TYR    SC2  693   5.335   6.334   6.941  0.0392 -0.1493  0.1562
    1TYR    SC3  694   5.107   6.224   7.035 -0.0357 -0.1280  0.0043
    2PRO     BB  695   5.093   6.918   7.029  0.0744 -0.1839  0.2489
    2PRO    SC1  696   5.369   6.886   6.998  0.0738  0.3732 -0.1506
    3TYR     BB  697   5.013   6.900   7.330 -0.0915  0.1065 -0.0400
    3TYR    SC1  698   4.820   6.991   7.454 -0.1192 -0.2050 -0.2985
    3TYR    SC2  699   4.578   6.896   7.524 -0.1635  0.2382  0.2323
    3TYR    SC3  700   4.612   7.160   7.482  0.0803  0.1078 -0.6051
    1TYR     BB  701   5.196   6.635   4.798 -0.1778 -0.1114  0.1142
    1TYR    SC1  702   5.465   6.653   4.996  0.1530 -0.0551 -0.2600
    1TYR    SC2  703   5.725   6.704   5.047  0.1509 -0.2091 -0.0795
    1TYR    SC3  704   5.578   6.567   5.226  0.0189 -0.3726 -0.3073
    2PRO     BB  705   4.968   6.667   4.979  0.3166 -0.0383  0.0291
    2PRO    SC1  706   4.793   6.420   4.944  0.1044  0.3008  0.2897
    3TYR     BB  707   4.990   6.775   5.361  0.1725  0.2002  0.0964
    3TYR    SC1  708   4.816   6.685   5.565  0.1222 -0.0193 -0.3060
    3TYR    SC2  709   4.649   6.509   5.683  0.0626  0.1182 -0.1805
    3TYR    SC3  710   4.620   6.773   5.728  0.5047  0.1315  0.0984
    1TYR     BB  711   5.523   4.568   0.758  0.1132  0.1508 -0.0517
    1TYR    SC1  712   5.372   4.824   0.742 -0.1306 -0.0844 -0.2561
    1TYR    SC2  713   5.205   5.015   0.650 -0.0396 -0.0667 -0.3885
    1TYR    SC3  714   5.465   5.073   0.696 -0.0808 -0.0771 -0.1205
    2PRO     BB  715   5.852   4.621   0.733 -0.0806  0.1719  0.0911
    2PRO    SC1  716   5.986   4.378   0.798  0.1863  0.1880  0.0111
    3TYR     BB  717   6.008   4.922   0.628  0.2493  0.0231  0.0341
    3TYR    SC1  718   6.089   4.885   0.344  0.0727  0.0583  0.1157
    3TYR    SC2  719   6.280   4.997   0.189  0.2872 -0.4810 -0.0418
    3TYR    SC3  720   6.060   4.889   0.075 -0.1121  0.0856  0.1344
    1TYR     BB  721   4.871   6.129   5.963 -0.0782  0.1992  0.3376
    1TYR    SC1  722   5.182   6.164   6.063  0.0185  0.2431  0.0088
    1TYR    SC2  723   5.421   6.047   6.019 -0.1328 -0.1016  0.0641
    1TYR    SC3  724   5.406   6.269   6.171  0.1317 -0.1844  0.2204
    2PRO     BB  725   4.630   6.068   6.198  0.0116  0.0971  0.0525
    2PRO    SC1  726   4.703   5.771   6.243 -0.1681  0.5235  0.0182
    3TYR     BB  727   4.413   6.213   6.370  0.2249  0.0508  0.0428
    3TYR    SC1  728   4.215   6.069   6.584  0.3223 -0.1232  0.1142
    3TYR    SC2  729   4.161   5.885   6.773  0.1537  0.0277  0.2176
    3TYR    SC3  730   3.992   6.091   6.735  0.1736 -0.0116 -0.1150
    1TYR     BB  731   6.037   7.513   1.781  0.0400  0.1207  0.1960
    1TYR    SC1  732   6.208   7.577   2.022  0.1833  0.2468 -0.1838
    1TYR    SC2  733   6.298   7.802   2.141  0.3624  0.2566 -0.3339
    1TYR    SC3  734   6.466   7.594   2.099  0.1389 -0.0141  0.0423
    2PRO     BB  735   5.813   7.688   1.726  0.2484  0.0929 -0.1172
    2PRO    SC1  736   5.846   7.913   1.941  0.2753 -0.2607  0.1604
    3TYR     BB  737   5.604   7.608   1.516 -0.2769 -0.0374 -0.0709
    3TYR    SC1  738   5.768   7.461   1.326  0.2629  0.0247 -0.1283
    3TYR    SC2  739   5.690   7.324   1.106  0.1701  0.0449 -0.1083
    3TYR    SC3  740   5.850   7.206   1.288 -0.3839 -0.2660  0.2145
    1TYR     BB  741   6.057   6.261   3.148  0.0034 -0.1026  0.1937
    1TYR    SC1  742   5.946   6.039   3.052 -0.3561  0.0258  0.2684
    1TYR    SC2  743   5.946   5.850   2.859  0.1285  0.1711  0.1077
    1TYR    SC3  744   5.882   5.784   3.113  0.2008 -0.1881  0.0393
    2PRO     BB  745   5.958   6.533   3.159 -0.2928 -0.2091 -0.0718
    2PRO    SC1  746   5.786   6.542   2.911  0.0959 -0.2155  0.0400
    3TYR     BB  747   5.944   6.772   3.301  0.1460 -0.0095 -0.2094
    3TYR    SC1  748   6.111   6.833   3.510 -0.3003 -0.0863 -0.1899
    3TYR    SC2  749   6.201   6.770   3.757 -0.3544  0.1141 -0.1166
    3TYR    SC3  750   6.156   7.028   3.691 -0.2667  0.0705 -0.3630
    1TYR     BB  751   4.453   4.969   4.425  0.3185 -0.1176  0.0371
    1TYR    SC1  752   4.612   5.147   4.224  0.2792  0.3956  0.0559
    1TYR    SC2  753   4.850   5.211   4.114  0.4011 -0.2874 -0.1373
    1TYR    SC3  754   4.632   5.185   3.957  0.2883 -0.0699 -0.0212
    2PRO     BB  755   4.428   5.106   4.691 -0.0654 -0.1266 -0.0073
    2PRO    SC1  756   4.469   5.374   4.712  0.0741 -0.1411 -0.2691
    3TYR     BB  757   4.418   4.951   4.951 -0.4457  0.1092  0.2064
    3TYR    SC1  758   4.711   4.884   5.018  0.2864  0.1863 -0.2750
    3TYR    SC2  759   4.855   5.082   5.132  0.0860  0.1692  0.0211
    3TYR    SC3  760   4.980   4.883   4.999  0.3280  0.2116  0.1770
    1TYR     BB  761   5.863   4.848   5.084  0.0007  0.1251 -0.2114
    1TYR    SC1  762   5.987   4.591   4.988  0.1742 -0.2213  0.4768
    1TYR    SC2  763   6.124   4.370   4.916  0.3441  0.0068  0.0562
    1TYR    SC3  764   5.857   4.381   4.879  0.3199 -0.1560  0.1657
    2PRO     BB  765   5.658   4.994   5.182  0.0726 -0.2490  0.2718
    2PRO    SC1  766   5.715   5.143   5.443  0.0702  0.2474  0.1379
    3TYR     BB  767   5.377   5.172   4.921  0.2145  0.0951  0.2093
    3TYR    SC1  768   5.336   5.395   5.147 -0.1843 -0.0515  0.1414
    3TYR    SC2  769   5.146   5.567   5.234 -0.1469  0.2225 -0.2829
    3TYR    SC3  770   5.326   5.465   5.407 -0.8414 -0.2931  0.2068
    1TYR     BB  771   3.832   5.429   2.619  0.2635 -0.1847  0.3659
    1TYR    SC1  772   3.554   5.436   2.800  0.1934  0.0949  0.1527
    1TYR    SC2  773   3.285   5.465   2.812  0.1499  0.0750 -0.4244
    1TYR    SC3  774   3.420   5.370   3.026 -0.2999  0.0551 -0.1323
    2PRO     BB  775   3.758   5.612   2.379 -0.2902 -0.1963 -0.1792
    2PRO    SC1  776   3.470   5.736   2.411  0.1243  0.0031 -0.0089
    3TYR     BB  777   3.827   5.716   2.094 -0.1438 -0.2102 -0.3450
    3TYR    SC1  778   3.893   5.999   1.985 -0.4097 -0.1991 -0.4062
    3TYR    SC2  779   4.077   6.099   1.815 -0.0784 -0.0497  0.0174
    3TYR    SC3  780   3.861   6.246   1.882 -0.0859 -0.0123 -0.0869
    1TYR     BB  781   5.340   5.742   4.659  0.2559  0.3297  0.0027
    1TYR    SC1  782   5.622   5.816   4.581  0.0878 -0.3911 -0.0618
    1TYR    SC2  783   5.884   5.823   4.648  0.0060  0.1221  0.2809
    1TYR    SC3  784   5.787   5.993   4.461 -0.0450 -0.2642 -0.0616
    2PRO     BB  785   5.223   5.557   4.594 -0.0425  0.2370  0.2714
    2PRO    SC1  786   4.988   5.478   4.791  0.1943  0.1059  0.4163
    3TYR     BB  787   5.320   5.314   4.359  0.1519 -0.0096  0.0752
    3TYR    SC1  788   5.171   5.082   4.455 -0.1506 -0.0978 -0.1737
    3TYR    SC2  789   5.141   4.835   4.561 -0.0039 -0.0888 -0.1086
    3TYR    SC3  790   4.935   5.010   4.564 -0.0310 -0.1221  0.0773
    1TYR     BB  791   5.621   5.749   5.066  0.0762 -0.5942  0.0172
    1TYR    SC1  792   5.724   6.059   5.075 -0.0682  0.0135 -0.0140
    1TYR    SC2  793   5.878   6.277   5.117 -0.1972  0.1011  0.0095
    1TYR    SC3  794   5.788   6.221   4.869 -0.0294 -0.0176 -0.0267
    2PRO     BB  795   5.825   5.575   5.132  0.0517  0.0944  0.1849
    2PRO    SC1  796   5.822   5.369   4.913  0.0193  0.1486 -0.0779
    3TYR     BB  797   5.972   5.557   5.402 -0.0671 -0.0126 -0.0006
    3TYR    SC1  798   6.054   5.486   5.690 -0.2948 -0.1885  0.0762
    3TYR    SC2  799   6.018   5.299   5.882 -0.0714 -0.3044  0.0094
    3TYR    SC3  800   6.240   5.293   5.728 -0.0109  0.0742  0.0708
    1TYR     BB  801   4.954   6.205   3.002  0.0187  0.2120 -0.4249
    1TYR    SC1  802   4.650   6.160   3.049  0.1663  0.0206  0.1029
    1TYR    SC2  803   4.546   5.912   3.078  0.2115 -0.0411 -0.2181
    1TYR    SC3  804   4.389   6.116   2.997  0.2001  0.0113 -0.0667
    2PRO     BB  805   5.232   5.991   2.758  0.0584  0.1372  0.3736
    2PRO    SC1  806   5.224   6.080   2.480  0.0304  0.0774 -0.0184
    3TYR     BB  807   5.359   5.877   3.003  0.1130 -0.1533 -0.4364
    3TYR    SC1  808   5.515   6.073   3.157 -0.2138 -0.0514  0.1782
    3TYR    SC2  809   5.466   6.336   3.188  0.0569  0.0184  0.0516
    3TYR    SC3  810   5.615   6.204   3.370  0.3098  0.0631 -0.1167
    1TYR     BB  811   4.704   6.384   2.136  0.1856 -0.0016  0.3026
    1TYR    SC1  812   4.459   6.189   2.167 -0.2474 -0.1688  0.0121
    1TYR    SC2  813   4.441   5.934   2.080  0.1329 -0.1635 -0.1030
    1TYR    SC3  814   4.243   6.039   2.230 -0.0190 -0.5326 -0.0309
    2PRO     BB  815   4.616   6.338   1.715  0.0200  0.0064 -0.2827
    2PRO    SC1  816   4.656   6.060   1.671  0.1963 -0.1024  0.3581
    3TYR     BB  817   4.550   6.487   1.469  0.0257 -0.0201  0.0490
    3TYR    SC1  818   4.231   6.429   1.446  0.1192 -0.1031  0.0389
    3TYR    SC2  819   3.962   6.422   1.422  0.1043  0.1587  0.0936
    3TYR    SC3  820   4.117   6.450   1.202  0.1088 -0.3234  0.0224
    1TYR     BB  821   5.097   6.667   6.034 -0.2291  0.1138  0.2229
    1TYR    SC1  822   5.019   6.915   5.930 -0.0945 -0.1658  0.1186
    1TYR    SC2  823   4.862   7.135   5.922 -0.2757 -0.2966 -0.3416
    1TYR    SC3  824   5.098   7.133   5.792  0.1758 -0.0790  0.3956
    2PRO     BB  825   4.849   6.581   6.229 -0.0923 -0.0402  0.2082
    2PRO    SC1  826   4.561   6.684   6.212 -0.2404  0.0454 -0.0984
    3TYR     BB  827   4.876   6.433   6.430  0.0273  0.0429 -0.3460
    3TYR    SC1  828   5.027   6.160   6.518  0.0196  0.2093 -0.4244
    3TYR    SC2  829   5.282   6.098   6.578 -0.0694  0.1989 -0.0253
    3TYR    SC3  830   5.119   5.910   6.473 -0.0051  0.1067  0.0377
    1TYR     BB  831   5.539   6.110   2.074 -0.1727 -0.0406 -0.0722
    1TYR    SC1  832   5.719   6.182   2.353  0.0889  0.1291 -0.2042
    1TYR    SC2  833   5.766   6.177   2.619  0.0233 -0.2266 -0.1932
    1TYR    SC3  834   5.932   6.047   2.450  0.0169 -0.0731 -0.3206
    2PRO     BB  835   5.658   5.867   1.969  0.1285  0.0631  0.3828
    2PRO    SC1  836   5.933   5.828   2.043  0.1084 -0.2989  0.2626
    3TYR     BB  837   5.476   5.636   1.918  0.4029 -0.2327  0.0788
    3TYR    SC1  838   5.315   5.531   2.175  0.1609 -0.0281 -0.5011
    3TYR    SC2  839   5.098   5.383   2.238  0.1814  0.1376  0.0150
    3TYR    SC3  840   5.128   5.630   2.343  0.5381  0.1892 -0.1878
    1TYR     BB  841   6.224   6.250   4.559 -0.1124 -0.2082 -0.3922
    1TYR    SC1  842   6.221   6.543   4.707  0.1130  0.0040  0.1167
    1TYR    SC2  843   6.115   6.722   4.879  0.2608  0.1109  0.0993
    1TYR    SC3  844   6.161   6.792   4.622 -0.2643 -0.1450 -0.0818
    2PRO     BB  845   6.573   6.228   4.520 -0.1921 -0.3080  0.1780
    2PRO    SC1  846   6.612   6.242   4.824 -0.1623 -0.0628  0.1961
    3TYR     BB  847   6.626   6.214   4.231  0.1306  0.2230  0.2261
    3TYR    SC1  848   6.706   6.021   4.010 -0.0195 -0.0927 -0.1359
    3TYR    SC2  849   6.657   5.851   3.806  0.0708 -0.1385 -0.1203
    3TYR    SC3  850   6.707   5.755   4.053  0.2397 -0.0951 -0.1360
    1TYR     BB  851   4.708   5.161   6.367  0.2719  0.2992  0.2727
    1TYR    SC1  852   4.887   5.321   6.556  0.0708 -0.0314  0.2039
    1TYR    SC2  853   5.088   5.331   6.736  0.0299 -0.0484  0.2505
    1TYR    SC3  854   5.098   5.484   6.515 -0.0402  0.1661  0.3921
    2PRO     BB  855   4.554   5.159   6.059  0.0725  0.4589  0.0704
    2PRO    SC1  856   4.466   5.416   5.992  0.0234  0.2271  0.0133
    3TYR     BB  857   4.571   5.014   5.739  0.2913  0.1163 -0.0635
    3TYR    SC1  858   4.529   5.214   5.509 -0.1286 -0.0203  0.0778
    3TYR    SC2  859   4.631   5.455   5.442  0.1260 -0.1514 -0.0223
    3TYR    SC3  860   4.446   5.338   5.284 -0.0901  0.0295  0.0908
    1TYR     BB  861   6.671   6.052   3.371 -0.1283 -0.1933  0.0765
    1TYR    SC1  862   6.543   6.314   3.224  0.1393  0.1400  0.0466
    1TYR    SC2  863   6.488   6.489   3.026  0.1009 -0.0027 -0.0706
    1TYR    SC3  864   6.474   6.568   3.284  0.3945  0.2554 -0.1266
    2PRO     BB  865   6.631   5.741   3.193 -0.0019  0.2198  0.3167
    2PRO    SC1  866   6.358   5.782   3.168 -0.0226 -0.1451 -0.0413
    3TYR     BB  867   6.944   5.588   3.181 -0.0177 -0.0379  0.0635
    3TYR    SC1  868   7.016   5.311   3.326 -0.2709 -0.2324 -0.4582
    3TYR    SC2  869   7.057   5.168   3.551 -0.1741  0.2826 -0.1276
    3TYR    SC3  870   7.264   5.225   3.387 -0.2013  0.1095 -0.2252
    1TYR     BB  871   6.551   6.630   7.675  0.2274  0.3854 -0.2085
    1TYR    SC1  872   6.544   6.894   7.584 -0.0623 -0.1334 -0.1402
    1TYR    SC2  873   6.420   7.134   7.581 -0.2471 -0.1991  0.4896
    1TYR    SC3  874   6.686   7.121   7.623 -0.2263 -0.1066  0.3934
    2PRO     BB  875   6.705   6.371   7.428  0.5098  0.4424  0.0233
    2PRO    SC1  876   6.496   6.302   7.323 -0.1539  0.3586  0.0740
    3TYR     BB  877   6.883   6.190   7.604  0.1407  0.0313 -0.3637
    3TYR    SC1  878   6.823   6.266   7.900  0.0057 -0.3183 -0.0533
    3TYR    SC2  879   6.740   6.359   8.139  0.0471 -0.1598 -0.0990
    3TYR    SC3  880   6.828   6.105   8.116 -0.0898 -0.2199  0.0235
    1TYR     BB  881   4.780   4.930   1.450  0.2239  0.0414 -0.0644
    1TYR    SC1  882   4.797   5.264   1.374 -0.2805  0.2132  0.0661
    1TYR    SC2  883   4.944   5.490   1.370  0.1317 -0.0409 -0.2540
    1TYR    SC3  884   4.747   5.454   1.189  0.1442  0.0119 -0.2783
    2PRO     BB  885   4.543   4.865   1.540  0.0882 -0.1418  0.3785
    2PRO    SC1  886   4.523   4.582   1.679 -0.0051 -0.0375  0.3610
    3TYR     BB  887   4.435   5.057   1.746  0.0927 -0.0614  0.3031
    3TYR    SC1  888   4.421   5.391   1.753 -0.1702  0.1109 -0.0508
    3TYR    SC2  889   4.343   5.649   1.781  0.3683  0.2917 -0.0807
    3TYR    SC3  890   4.506   5.578   1.578 -0.0168 -0.1468 -0.2599
    1TYR     BB  891   4.763   7.470   2.644  0.1290 -0.2578 -0.0964
    1TYR    SC1  892   4.876   7.310   2.803 -0.0542 -0.1607 -0.0632
    1TYR    SC2  893   5.098   7.346   2.953 -0.0429 -0.0492 -0.1054
    1TYR    SC3  894   4.979   7.104   2.944  0.0753 -0.1092 -0.0804
    2PRO     BB  895   4.928   7.524   2.368  0.1682  0.1690 -0.1149
    2PRO    SC1  896   4.728   7.546   2.121 -0.0777  0.1079 -0.0370
    3TYR     BB  897   5.180   7.422   2.211 -0.2515 -0.1070 -0.0769
    3TYR    SC1  898   5.322   7.251   2.389  0.0978  0.1873 -0.0816
    3TYR    SC2  899   5.507   7.064   2.450  0.1746  0.2526 -0.1112
    3TYR    SC3  900   5.332   7.147   2.638 -0.0747 -0.0832 -0.1826
    1TYR     BB  901   5.834   4.314   4.043 -0.2492 -0.1251  0.0746
    1TYR    SC1  902   6.175   4.366   4.027 -0.0004 -0.0776 -0.3177
    1TYR    SC2  903   6.413   4.411   4.147 -0.3743  0.2073  0.3903
    1TYR    SC3  904   6.325   4.578   3.953 -0.0333  0.1225  0.1500
    2PRO     BB  905   5.852   4.543   4.356 -0.3804 -0.1646  0.0411
    2PRO    SC1  906   5.562   4.524   4.411 -0.3979  0.2492  0.0348
    3TYR     BB  907   6.080   4.637   4.422  0.1305  0.1469 -0.0879
    3TYR    SC1  908   6.225   4.736   4.640 -0.0089  0.4095 -0.0588
    3TYR    SC2  909   6.269   4.971   4.766  0.1749  0.1797  0.3307
    3TYR    SC3  910   6.423   4.757   4.823 -0.0198 -0.0538  0.0207
    1TYR     BB  911   5.473   5.014   6.510 -0.2851  0.0596  0.0246
    1TYR    SC1  912   5.780   5.013   6.460  0.1711 -0.0488 -0.2217
    1TYR    SC2  913   5.967   5.156   6.593 -0.0666  0.0805 -0.0163
    1TYR    SC3  914   5.979   5.136   6.324  0.1152  0.2737 -0.0263
    2PRO     BB  915   5.350   5.144   6.210 -0.0595 -0.0686 -0.1988
    2PRO    SC1  916   5.523   5.127   5.983 -0.0078  0.2016  0.4789
    3TYR     BB  917   5.076   5.003   6.097 -0.0504 -0.0031  0.1181
    3TYR    SC1  918   5.044   5.024   5.769 -0.3207 -0.1429 -0.1714
    3TYR    SC2  919   5.234   5.005   5.578  0.0749  0.0507  0.1832
    3TYR    SC3  920   5.021   5.168   5.541  0.0459 -0.0558 -0.1605
    1TYR     BB  921   4.438   6.807   1.113  0.3168  0.1125 -0.0036
    1TYR    SC1  922   4.221   6.891   1.320  0.0164  0.2415  0.3743
    1TYR    SC2  923   4.015   6.920   1.492 -0.3740  0.0423 -0.0323
    1TYR    SC3  924   4.034   7.081   1.275 -0.0361  0.1217  0.0485
    2PRO     BB  925   4.653   7.011   1.203  0.0379 -0.0981 -0.0850
    2PRO    SC1  926   4.788   6.913   1.454  0.0244  0.0531 -0.1846
    3TYR     BB  927   4.868   7.265   1.149 -0.1477 -0.0426 -0.1436
    3TYR    SC1  928   4.726   7.500   1.124 -0.0185 -0.0820 -0.0327
    3TYR    SC2  929   4.593   7.695   0.993  0.0300 -0.1734 -0.2220
    3TYR    SC3  930   4.621   7.708   1.261 -0.3086 -0.1226 -0.1831
    1TYR     BB  931   6.092   5.388   3.365 -0.0341  0.2493 -0.0499
    1TYR    SC1  932   6.373   5.374   3.566 -0.0429 -0.1806  0.1867
    1TYR    SC2  933   6.640   5.415   3.561 -0.0706  0.0739 -0.4798
    1TYR    SC3  934   6.502   5.449   3.790  0.4574 -0.0637 -0.1198
    2PRO     BB  935   6.075   5.359   3.057  0.1634 -0.2505  0.0537
    2PRO    SC1  936   5.812   5.311   2.941  0.1527  0.2892 -0.1950
    3TYR     BB  937   6.285   5.470   2.860  0.1804  0.2627 -0.0203
    3TYR    SC1  938   6.561   5.487   2.754 -0.5669  0.0879  0.0359
    3TYR    SC2  939   6.627   5.472   2.492 -0.1645 -0.3788  0.1453
    3TYR    SC3  940   6.753   5.648   2.654 -0.2661 -0.2348  0.0708
    1TYR     BB  941   5.021   5.672   3.352 -0.2790  0.0142  0.0933
    1TYR    SC1  942   4.930   5.540   3.059 -0.1972 -0.2145  0.0390
    1TYR    SC2  943   4.867   5.643   2.818 -0.2402 -0.2374  0.0403
    1TYR    SC3  944   4.716   5.446   2.923 -0.1703 -0.2879  0.0466
    2PRO     BB  945   4.922   5.961   3.417  0.4038  0.0300  0.1508
    2PRO    SC1  946   5.106   6.180   3.537  0.1629 -0.1645 -0.4108
    3TYR     BB  947   4.654   6.078   3.549 -0.0261 -0.1584  0.0285
    3TYR    SC1  948   4.360   6.006   3.511 -0.0249 -0.2093 -0.1560
    3TYR    SC2  949   4.137   5.891   3.610  0.0093 -0.2443 -0.1190
    3TYR    SC3  950   4.134   6.000   3.363 -0.1674  0.1216  0.0341
    1TYR     BB  951   6.226   4.913   3.460  0.0632 -0.2877 -0.0313
    1TYR    SC1  952   6.482   5.036   3.269  0.1261  0.1098  0.4380
    1TYR    SC2  953   6.660   5.197   3.146 -0.0637 -0.0374 -0.0639
    1TYR    SC3  954   6.709   4.932   3.166 -0.0490 -0.0196  0.1638
    2PRO     BB  955   6.056   4.791   3.254 -0.2038 -0.2509 -0.2554
    2PRO    SC1  956   6.088   4.878   2.977 -0.1883 -0.1214  0.1685
    3TYR     BB  957   5.709   4.669   3.344 -0.2623 -0.1412  0.0856
    3TYR    SC1  958   5.588   4.968   3.304 -0.2922  0.0010 -0.1596
    3TYR    SC2  959   5.627   5.220   3.394  0.1692 -0.0905 -0.0704
    3TYR    SC3  960   5.377   5.132   3.343 -0.0291  0.2746  0.2098
    1TYR     BB  961   4.678   5.935   7.305  0.2774  0.0497 -0.0056
    1TYR    SC1  962   4.989   5.922   7.323 -0.0541  0.3933 -0.2550
    1TYR    SC2  963   5.221   6.011   7.428  0.0161  0.2254 -0.2628
    1TYR    SC3  964   5.177   5.746   7.403 -0.5369  0.1915  0.5845
    2PRO     BB  965   4.696   5.979   6.941 -0.0764  0.2152  0.0080
    2PRO    SC1  966   4.620   6.219   6.842 -0.0239 -0.0219  0.2908
    3TYR     BB  967   4.668   5.748   6.716 -0.1091  0.0395 -0.0258
    3TYR    SC1  968   4.426   5.566   6.666  0.1452 -0.0612  0.2178
    3TYR    SC2  969   4.306   5.400   6.490  0.3693 -0.1004  0.0971
    3TYR    SC3  970   4.329   5.328   6.748 -0.0601  0.0044  0.1759
    1TYR     BB  971   6.224   6.658   1.777 -0.0351  0.1267  0.2687
    1TYR    SC1  972   6.418   6.447   1.727 -0.2393 -0.3933 -0.0318
    1TYR    SC2  973   6.641   6.337   1.832  0.2307  0.5023  0.0221
    1TYR    SC3  974   6.611   6.350   1.564  0.0627  0.0907  0.0131
    2PRO     BB  975   6.256   6.959   1.782  0.1734  0.1462 -0.0131
    2PRO    SC1  976   6.244   7.109   1.551  0.0182 -0.0432 -0.0220
    3TYR     BB  977   6.481   7.074   1.999  0.0384  0.1284 -0.1413
    3TYR    SC1  978   6.608   6.826   2.106 -0.0486 -0.0143  0.2712
    3TYR    SC2  979   6.529   6.582   2.190  0.1574 -0.0222  0.4514
    3TYR    SC3  980   6.785   6.623   2.114  0.0788  0.0935  0.2361
    1TYR     BB  981   4.258   5.546   1.115 -0.2436  0.0665  0.0690
    1TYR    SC1  982   3.950   5.491   1.127  0.1464 -0.0153 -0.2877
    1TYR    SC2  983   3.836   5.250   1.084 -0.1709  0.0398  0.1585
    1TYR    SC3  984   3.697   5.445   1.209  0.2234  0.3180  0.1868
    2PRO     BB  985   4.311   5.733   0.858  0.0186  0.2736  0.3009
    2PRO    SC1  986   4.599   5.795   0.776 -0.1458  0.1047 -0.1554
    3TYR     BB  987   4.087   5.790   0.619 -0.2344 -0.1651 -0.1765
    3TYR    SC1  988   3.850   5.648   0.712  0.0541 -0.0465  0.0344
    3TYR    SC2  989   3.704   5.424   0.674 -0.3772  0.2777 -0.3566
    3TYR    SC3  990   3.587   5.648   0.772  0.1158  0.2686  0.3470
    1TYR     BB  991   6.175   6.467   2.642 -0.1520 -0.0355 -0.0430
    1TYR    SC1  992   6.277   6.167   2.688 -0.0011  0.0042 -0.1305
    1TYR    SC2  993   6.516   6.077   2.773 -0.0695  0.0060  0.0699
    1TYR    SC3  994   6.344   5.908   2.651  0.0046 -0.0118 -0.0114
    2PRO     BB  995   6.071   6.519   2.320 -0.0147 -0.0182  0.0198
    2PRO    SC1  996   6.102   6.800   2.286  0.1637 -0.0140  0.3438
    3TYR     BB  997   6.147   6.303   2.111  0.1176 -0.1401  0.1333
    3TYR    SC1  998   6.339   6.111   2.228  0.2189 -0.1017  0.3669
    3TYR    SC2  999   6.479   5.884   2.191  0.4056  0.0974 -0.3515
    3TYR    SC3 1000   6.590   6.092   2.324  0.2842 -0.1597  0.1884
    4W        W 1001   7.447   0.794   7.298 -0.4445 -0.0523 -0.1785
    5W        W 1002   0.472   3.229   3.183  0.2787 -0.3325  0.1337
    6W        W 1003   1.165   6.096   7.237 -0.1241  0.1905  0.1713
    7W        W 1004   0.132   3.485   5.789 -0.2438 -0.3434 -0.0598
    8W        W 1005   4.520   3.130   4.959  0.3890  0.1089  0.2690
    9W        W 1006   1.224   4.017   6.056  0.1575 -0.3350  0.0387
   10W        W 1007   4.838   3.353   7.189 -0.3340 -0.1533  0.3130
   11W        W 1008   1.936   6.867   4.585 -0.2541  0.0887 -0.1402
   12W        W 1009   4.223   4.877   5.404  0.1072  0.1021  0.1639
   13W        W 1010   1.238   4.941   0.238 -0.2160  0.1579 -0.0701
   14W        W 1011   1.272   3.918   1.260  0.2143  0.1641 -0.1040
   15W        W 1012   6.857   0.552   2.819 -0.1433  0.1298  0.1972
   16W        W 1013   5.187   0.808   1.867  0.2149  0.2533  0.0248
   17W        W 1014   4.663   0.901   3.856  0.2327 -0.2032 -0.5312
   18W        W 1015   5.511   1.724   2.775  0.1639  0.2066 -0.0105
   19W        W 1016   6.317   0.574   2.669  0.2382 -0.2539 -0.1864
   20W        W 1017   5.483   3.632   3.252 -0.1889 -0.0227 -0.1665
   21W        W 1018   4.149   0.886   1.133 -0.0719 -0.5730  0.0308
   22W        W 1019   2.665   7.657   6.354  0.0453 -0.1825 -0.2930
   23W        W 1020   6.351   1.274   4.775 -0.0041  0.1319  0.0954
   24W        W 1021   3.229   2.318   5.038 -0.1046 -0.2500 -0.1376
   25W        W 1022   3.120   4.708   7.149 -0.2163 -0.2779  0.2579
   26W        W 1023   2.393   5.488   7.567  0.2439  0.0661 -0.1337
   27W        W 1024   7.234   3.662   3.228 -0.0388  0.0612  0.0338
   28W        W 1025   1.970   6.751   2.909 -0.0275 -0.2542  0.0458
   29W        W 1026   7.478   3.066   0.334 -0.1449  0.2047  0.2892
   30W        W 1027   7.242   4.384   1.145  0.1700 -0.0196 -0.0368
   31W        W 1028   2.841   6.515   6.421 -0.0717 -0.2474  0.0821
   32W        W 1029   7.505   7.276   5.678  0.0359  0.1078 -0.0879
   33W        W 1030   1.412   7.602   5.036  0.0573 -0.0163  0.2593
   34W        W 1031   0.307   1.646   7.328  0.2363  0.0167  0.0223
   35W        W 1032   2.851   2.600   6.168 -0.2110  0.1071 -0.3945
   36W        W 1033   7.443   0.111   5.475 -0.1071 -0.2988  0.1607
   37W        W 1034   2.091   4.057   4.414  0.0490  0.1521 -0.2213
   38W        W 1035   1.022   4.984   4.298  0.1981  0.0106  0.1889
   39W        W 1036   2.233   5.404   4.612 -0.1668 -0.0709 -0.0197
   40W        W 1037   1.558   0.546   1.256 -0.0130  0.0598  0.1937
   41W        W 1038   2.279   1.070   6.025  0.0481 -0.0410  0.0051
   42W        W 1039   4.823   3.118   5.432 -0.2730 -0.0283 -0.1569
   43W        W 1040   5.212   0.204   3.563  0.3748  0.0431  0.0715
   44W        W 1041   3.307   1.103   6.923 -0.0356 -0.2547  0.3410
   45W        W 1042   6.161   3.707   4.029 -0.1277 -0.4034 -0.1691
   46W        W 1043   4.670   0.164   4.899  0.1632 -0.4146 -0.0175
   47W        W 1044   0.767   0.992   2.954 -0.2002  0.1420 -0.2585
   48W        W 1045   6.193   2.099   1.696 -0.1906 -0.0840  0.1079
   49W        W 1046   0.212   0.782   5.910  0.1996 -0.0536  0.2231
   50W        W 1047   4.354   3.197   5.529 -0.0601 -0.3451  0.2837
   51W        W 1048   0.419   6.024   1.615 -0.3991 -0.0447 -0.0198
   52W        W 1049   2.865   0.845   3.824 -0.0037  0.1548 -0.2862
   53W        W 1050   5.762   2.520   0.368  0.0845  0.1352 -0.2294
   54W        W 1051   5.720   1.490   6.575 -0.2789  0.1077  0.0520
   55W        W 1052   3.607   2.644   2.972 -0.0020  0.2368 -0.2641
   56W        W 1053   2.657   3.290   2.187  0.2678  0.0865  0.0625
   57W        W 1054   1.649   6.661   5.981 -0.1855  0.3078  0.2516
   58W        W 1055   2.954   5.385   4.001  0.2179  0.0373  0.1039
   59W        W 1056   4.578   2.986   5.927 -0.2062 -0.2089  0.1350
   60W        W 1057   0.838   7.456   6.713  0.0968  0.1977  0.2764
   61W        W 1058   3.189   1.812   0.364  0.1991  0.3859 -0.0159
   62W        W 1059   4.448   1.209   5.084 -0.2103  0.1706 -0.1530
   63W        W 1060   0.109   7.165   0.828 -0.1007  0.0368 -0.0490
   64W        W 1061   3.808   4.633   4.055 -0.2458  0.3906  0.1419
   65W        W 1062   0.767   5.970   6.165 -0.0265  0.4298  0.1961
   66W        W 1063   2.342   0.541   5.561  0.1233 -0.0460 -0.0663
   67W        W 1064   5.614   1.937   5.283 -0.0076  0.2012 -0.1463
   68W        W 1065   0.002   0.723   6.843 -0.0437  0.1072 -0.1485
   69W        W 1066   1.777   2.978   4.984  0.0423 -0.1176 -0.0129
   70W        W 1067   6.559   2.336   2.035  0.0812 -0.1969 -0.0858
   71W        W 1068   3.058   3.202   3.213 -0.1880  0.0742 -0.1927
   72W        W 1069   2.188   5.274   5.195  0.2062  0.0475 -0.2013
   73W        W 1070   2.289   5.924   1.591 -0.2006 -0.0031 -0.0368
   74W        W 1071   3.150   1.512   5.342  0.0595 -0.0759 -0.1819
   75W        W 1072   2.450   7.462   3.807  0.2429  0.0497 -0.2756
   76W        W 1073   6.428   1.194   3.422  0.2467  0.0308  0.2176
   77W        W 1074   5.297   3.007   4.442 -0.0578  0.0499  0.4499
   78W        W 1075   5.208   1.230   1.484 -0.0190  0.1082 -0.2996
   79W        W 1076   2.521   1.804   4.974  0.1773  0.0043  0.1332
   80W        W 1077   1.800   1.439   1.903  0.1846 -0.3280 -0.1509
   81W        W 1078   5.095   3.830   2.849 -0.3567  0.1366  0.1593
   82W        W 1079   3.979   3.177   4.111  0.1763 -0.0428 -0.0250
   83W        W 1080   5.454   2.232   2.798 -0.1214 -0.3627  0.1757
   84W        W 1081   5.020   2.489   3.683 -0.0503  0.1077  0.1662
   85W        W 1082   1.459   7.630   5.689  0.2707  0.2212  0.0144
   86W        W 1083   5.562   0.375   5.268  0.1454  0.0488  0.0046
   87W        W 1084   1.728   6.067   7.327 -0.4273 -0.0863  0.2855
   88W        W 1085   3.489   5.660   7.347  0.2127 -0.3454 -0.2296
   89W        W 1086   7.633   6.215   0.750  0.1569 -0.2214  0.0783
   90W        W 1087   4.190   0.746   4.051 -0.3507 -0.1151  0.0047
   91W        W 1088   4.887   2.965   1.714 -0.0295 -0.0878 -0.6223
   92W        W 1089   2.401   6.655   5.377  0.0895  0.0880 -0.0167
   93W        W 1090   3.128   6.699   5.870 -0.1485  0.1538  0.2324
   94W        W 1091   0.838   3.582   4.528  0.0132 -0.1577  0.0978
   95W        W 1092   1.506   2.192   7.486 -0.1790 -0.0794 -0.0559
   96W        W 1093   4.245   4.558   6.886  0.0844  0.2108 -0.3252
   97W        W 1094   2.680   6.257   1.517  0.3171  0.3837 -0.0054
   98W        W 1095   0.725   2.461   2.280  0.1771 -0.4845 -0.0733
   99W        W 1096   6.174   2.573   4.636  0.2276 -0.0445 -0.1083
  100W        W 1097   3.664   6.986   7.464  0.2638  0.1549  0.1083
  101W        W 1098   1.452   5.616   5.372 -0.2662 -0.0060 -0.0299
  102W        W 1099   6.263   3.063   4.942  0.0849  0.1106  0.0976
  103W        W 1100   6.989   4.476   0.485 -0.1643  0.1073  0.2356
  104W        W 1101   0.591   0.268   5.436 -0.0382 -0.2384  0.0757
  105W        W 1102   7.346   1.594   4.049  0.2304 -0.1121  0.1408
  106W        W 1103   0.856   2.892   3.191  0.0323  0.1369 -0.0162
  107W        W 1104   2.736   0.197   2.689 -0.1008 -0.1257  0.1185
  108W        W 1105   1.949   4.076   7.633  0.0053 -0.1120  0.1222
  109W        W 1106   7.391   1.214   1.213 -0.0148 -0.1018 -0.1426
  110W        W 1107   2.284   7.678   5.473  0.2544 -0.2888  0.0172
  111W        W 1108   3.015   5.887   1.615 -0.2728  0.0273 -0.2438
  112W        W 1109   5.429   4.127   5.643  0.0122  0.0382 -0.2443
  113W        W 1110   2.516   3.550   0.504 -0.3292 -0.2026  0.1936
  114W        W 1111   0.515   0.996   0.639 -0.0735  0.0537 -0.0496
  115W        W 1112   7.677   1.956   2.250  0.2110 -0.1641  0.2155
  116W        W 1113   2.010   0.190   1.248 -0.1745  0.1691 -0.0910
  117W        W 1114   1.798   0.195   5.174 -0.1324 -0.0006 -0.2888
  118W        W 1115   6.729   2.958   3.217 -0.2472 -0.0656  0.1786
  119W        W 1116   0.185   0.976   6.404  0.2539  0.2200 -0.2030
  120W        W 1117   5.130   0.561   6.676  0.3394 -0.2571  0.0931
  121W        W 1118   0.502   1.978   2.380 -0.2566 -0.2799  0.0198
  122W        W 1119   7.671   7.401   2.712 -0.1618 -0.2542 -0.0292
  123W        W 1120   2.832   3.770   6.890  0.2174 -0.0759  0.0609
  124W        W 1121   3.429   5.611   1.755 -0.3727  0.0083 -0.2225
  125W        W 1122   7.209   7.053   0.642  0.0445  0.0793 -0.1387
  126W        W 1123   1.799   3.530   1.715 -0.0488  0.3311 -0.0001
  127W        W 1124   3.993   1.235   3.119 -0.2353 -0.0674 -0.2025
  128W        W 1125   3.258   7.451   5.138  0.0293  0.0885 -0.3072
  129W        W 1126   2.909   5.738   2.576 -0.0066 -0.2963  0.2677
  130W        W 1127   6.516   3.137   0.165 -0.0715 -0.0362 -0.3216
  131W        W 1128   6.991   0.036   6.755  0.2151 -0.0168 -0.1634
  132W        W 1129   2.546   7.004   3.676  0.1899  0.1141 -0.1144
  133W        W 1130   2.530   0.558   0.927  0.0554  0.3111 -0.2581
  134W        W 1131   1.356   0.339   2.367 -0.0227 -0.1159 -0.1329
  135W        W 1132   1.359   3.548   2.020  0.0666 -0.0381  0.0573
  136W        W 1133   2.599   4.951   0.690  0.0931 -0.2443  0.1415
  137W        W 1134   1.000   2.832   7.029 -0.1953 -0.4556  0.0524
  138W        W 1135   0.832   6.464   7.513 -0.2067 -0.0009 -0.1544
  139W        W 1136   1.296   6.018   0.094  0.3382 -0.4899  0.0767
  140W        W 1137   0.967   0.577   1.292 -0.1444 -0.1512 -0.0371
  141W        W 1138   7.162   2.381   4.521 -0.0578  0.3761  0.2670
  142W        W 1139   4.143   2.479   1.648 -0.1595  0.0547 -0.3104
  143W        W 1140   3.829   3.308   2.508  0.3357  0.2263  0.0270
  144W        W 1141   3.367   1.131   0.209  0.0273 -0.0257 -0.1796
  145W        W 1142   0.001   4.403   3.678  0.0540  0.0308 -0.1269
  146W        W 1143   2.652   5.917   7.467 -0.0546 -0.2527  0.2344
  147W        W 1144   1.764   5.307   1.177 -0.0609  0.0751 -0.0899
  148W        W 1145   6.925   7.395   1.937 -0.0795  0.2008  0.4594
  149W        W 1146   3.612   2.280   6.297 -0.1191 -0.2170 -0.0325
  150W        W 1147   4.559   0.649   0.095 -0.2088  0.2531 -0.2890
  151W        W 1148   3.533   1.450   7.352 -0.0465 -0.1609  0.0174
  152W        W 1149   0.434   0.170   7.516  0.0555 -0.0792 -0.0815
  153W        W 1150   5.855   2.174   4.673 -0.1991  0.1643  0.0135
  154W        W 1151   2.837   7.533   0.535 -0.0067  0.0867  0.0200
  155W        W 1152   7.100   2.848   7.207 -0.3865 -0.2399 -0.0905
  156W        W 1153   7.472   1.905   5.329  0.2011 -0.2442  0.1133
  157W        W 1154   6.023   7.325   4.796 -0.2004  0.1507 -0.2844
  158W        W 1155   1.026   3.595   1.521  0.1523 -0.2704  0.3722
  159W        W 1156   6.934   5.205   6.650  0.0200 -0.0628  0.0308
  160W        W 1157   1.368   6.888   7.262 -0.1615  0.1813  0.0001
  161W        W 1158   0.490   6.870   7.592 -0.4066  0.0691 -0.2598
  162W        W 1159   3.543   1.193   3.339  0.2464 -0.1338 -0.0794
  163W        W 1160   7.235   0.938   5.599  0.0653 -0.2167 -0.6430
  164W        W 1161   2.716   1.118   7.122  0.2851 -0.1032  0.3201
  165W        W 1162   3.392   0.338   2.381 -0.4099  0.0538 -0.2711
  166W        W 1163   7.173   3.811   7.439  0.1609 -0.2275 -0.0402
  167W        W 1164   3.095   3.306   6.954  0.0754  0.2482 -0.0088
  168W        W 1165   6.514   0.740   5.634 -0.1825  0.0832  0.2131
  169W        W 1166   4.109   3.831   1.748 -0.2168 -0.0219  0.2794
  170W        W 1167   2.853   0.676   1.550  0.1600 -0.0633  0.3511
  171W        W 1168   5.828   1.666   4.722 -0.2450 -0.1673  0.2977
  172W        W 1169   1.112   4.397   2.535 -0.0730 -0.1381 -0.1104
  173W        W 1170   4.885   1.807   5.893  0.1396 -0.0538 -0.1639
  174W        W 1171   0.130   2.547   1.348  0.0015  0.0651 -0.0123
  175W        W 1172   0.284   1.038   3.877 -0.0142 -0.0433 -0.1552
  176W        W 1173   5.244   4.558   6.482  0.1591  0.0603  0.1128
  177W        W 1174   0.659   2.922   6.644  0.0006  0.1179 -0.1071
  178W        W 1175   2.561   6.096   2.614  0.3106  0.1900 -0.0710
  179W        W 1176   2.029   5.956   4.916 -0.1468 -0.3066  0.1441
  180W        W 1177   0.857   3.981   3.437  0.0585  0.1435 -0.2542
  181W        W 1178   7.225   2.045   1.077 -0.2092 -0.1636  0.2059
  182W        W 1179   0.122   1.818   6.393  0.0949 -0.0193  0.4285
  183W        W 1180   7.171   6.416   5.626  0.0297 -0.1164  0.1008
  184W        W 1181   4.736   3.335   2.633  0.1274 -0.1321  0.2336
  185W        W 1182   6.992   2.524   3.801  0.0317  0.0581  0.1237
  186W        W 1183   0.314   4.504   7.091 -0.1170  0.0224 -0.0341
  187W        W 1184   2.670   3.459   7.259 -0.0658 -0.0355  0.2347
  188W        W 1185   6.853   5.256   4.051 -0.3352  0.3190  0.0008
  189W        W 1186   1.897   6.233   6.835  0.0919  0.0982 -0.2528
  190W        W 1187   1.775   5.033   3.697 -0.0939  0.1967 -0.2718
  191W        W 1188   4.352   7.590   5.154 -0.1312  0.4192  0.0685
  192W        W 1189   2.214   2.131   2.948  0.2327  0.0958 -0.0049
  193W        W 1190   2.230   4.659   0.919 -0.0176  0.0443 -0.0178
  194W        W 1191   7.179   6.072   3.398  0.0651  0.0713  0.1115
  195W        W 1192   3.602   3.832   1.881  0.3713  0.0248  0.3548
  196W        W 1193   3.441   0.701   1.556 -0.0485  0.1331 -0.0430
  197W        W 1194   6.647   3.872   5.276  0.0518  0.0920 -0.0070
  198W        W 1195   0.393   6.425   0.603 -0.2433  0.0886  0.2492
  199W        W 1196   7.120   0.063   3.975 -0.1185  0.1607 -0.0639
  200W        W 1197   6.933   1.880   4.471  0.3787  0.1019  0.0708
  201W        W 1198   5.576   0.890   7.177  0.3065 -0.0416 -0.1791
  202W        W 1199   3.297   6.943   5.365 -0.0310  0.3612 -0.3446
  203W        W 1200   3.238   0.311   0.330 -0.1354  0.2180 -0.1461
  204W        W 1201   1.606   0.171   0.081  0.2179  0.0708 -0.2009
  205W        W 1202   7.173   4.936   4.417  0.2605  0.1484 -0.3189
  206W        W 1203   1.569   5.856   0.996  0.0631 -0.1117 -0.3042
  207W        W 1204   7.423   7.354   4.103  0.1388 -0.1771  0.1026
  208W        W 1205   4.406   7.282   5.939  0.0376  0.2197 -0.1114
  209W        W 1206   3.619   5.031   4.699  0.1768 -0.1696  0.0258
  210W        W 1207   2.170   5.934   6.477  0.0127  0.0229 -0.0358
  211W        W 1208   1.403   6.951   0.482 -0.0238  0.0675 -0.0711
  212W        W 1209   6.076   0.907   4.272  0.1122  0.2619  0.1813
  213W        W 1210   0.601   3.142   2.347  0.1006  0.1254 -0.0401
  214W        W 1211   1.459   1.695   7.516 -0.2994 -0.0237  0.2527
  215W        W 1212   0.859   6.223   0.410  0.1712 -0.1956  0.1507
  216W        W 1213   1.934   5.583   0.661 -0.0182  0.0107 -0.0165
  217W        W 1214   1.151   3.637   3.149 -0.0908 -0.3169  0.0191
  218W        W 1215   3.038   5.739   6.730  0.0482 -0.0370  0.0187
  219W        W 1216   1.102   2.779   3.629 -0.0842  0.0284 -0.2114
  220W        W 1217   0.483   1.863   6.895  0.0883 -0.4309  0.0448
  221W        W 1218   4.034   3.545   5.536  0.2856  0.3020 -0.1691
  222W        W 1219   0.106   5.458   5.779 -0.0839  0.2958 -0.1474
  223W        W 1220   2.578   5.028   6.210 -0.0992  0.1198  0.0578
  224W        W 1221   2.463   0.407   1.382  0.0902  0.0653  0.1281
  225W        W 1222   2.418   6.280   0.186 -0.0424 -0.1396  0.2716
  226W        W 1223   2.876   6.437   5.504  0.1339  0.0632 -0.2766
  227W        W 1224   3.843   3.681   5.067 -0.1148  0.0754 -0.4807
  228W        W 1225   2.966   0.292   0.761  0.2518  0.3207  0.2103
  229W        W 1226   1.463   4.853   6.622 -0.0142 -0.3294  0.1347
  230W        W 1227   0.662   0.832   4.426 -0.0622 -0.2193  0.0824
  231W        W 1228   5.011   1.018   6.563 -0.1395  0.3574  0.0752
  232W        W 1229   2.689   3.196   5.510 -0.1411  0.4646 -0.1409
  233W        W 1230   5.990   0.224   3.446 -0.3045  0.2370  0.1331
  234W        W 1231   7.251   5.266   7.589  0.0438 -0.2789 -0.0831
  235W        W 1232   2.279   0.775   0.472 -0.1517 -0.1205 -0.2603
  236W        W 1233   2.030   4.520   4.345 -0.0100  0.0789  0.3936
  237W        W 1234   0.899   0.631   0.506  0.0134  0.1544 -0.2239
  238W        W 1235   6.402   2.026   2.415 -0.0005  0.0595  0.2504
  239W        W 1236   7.523   2.686   7.681  0.3007 -0.2134  0.3597
  240W        W 1237   2.848   5.387   0.610  0.2370  0.1952  0.1309
  241W        W 1238   0.804   3.488   1.995  0.1793  0.3021  0.0911
  242W        W 1239   6.865   7.058   5.201  0.0537 -0.1965 -0.2993
  243W        W 1240   6.936   4.646   4.761 -0.0590  0.0765  0.1845
  244W        W 1241   7.364   2.570   2.472  0.0538 -0.3714  0.0643
  245W        W 1242   0.942   4.909   5.352 -0.1396 -0.0700 -0.0570
  246W        W 1243   0.288   5.469   4.717 -0.2307  0.1250 -0.0217
  247W        W 1244   3.525   6.151   1.513  0.3550 -0.0160  0.1577
  248W        W 1245   6.954   5.411   1.659 -0.0942 -0.2455  0.3031
  249W        W 1246   6.093   4.114   4.445  0.1298 -0.2322  0.1225
  250W        W 1247   0.054   3.083   7.525  0.0186 -0.0498 -0.1226
  251W        W 1248   2.110   3.021   4.610 -0.0738  0.0160 -0.0884
  252W        W 1249   2.142   5.692   6.950  0.0199 -0.4902 -0.1888
  253W        W 1250   7.057   0.102   4.693 -0.0444 -0.2837 -0.2737
  254W        W 1251   5.935   3.474   1.769 -0.2128 -0.1669 -0.0895
  255W        W 1252   3.010   6.954   3.934  0.1610  0.1572  0.0323
  256W        W 1253   6.537   7.427   6.031  0.2389  0.0853  0.2028
  257W        W 1254   0.043   3.099   4.761  0.1443  0.3286  0.3190
  258W        W 1255   0.279   4.078   3.396 -0.1164 -0.0822 -0.0859
  259W        W 1256   3.429   1.960   7.586  0.3007  0.2206  0.1575
  260W        W 1257   1.614   5.455   3.533  0.1883  0.0893  0.2708
  261W        W 1258   1.795   2.971   2.820 -0.0293  0.2657  0.2019
  262W        W 1259   3.880   6.333   5.374  0.0009 -0.0859  0.2600
  263W        W 1260   4.895   7.011   4.552 -0.4090  0.0666 -0.1001
  264W        W 1261   0.973   5.416   3.972 -0.0649  0.0350  0.2231
  265W        W 1262   5.431   6.615   7.460 -0.0937 -0.0327 -0.0487
  266W        W 1263   2.800   6.769   6.845  0.0671  0.1788 -0.1199
  267W        W 1264   1.347   4.059   3.364 -0.0796 -0.0060  0.2876
  268W        W 1265   6.613   3.594   6.064 -0.2053 -0.0262 -0.1394
  269W        W 1266   3.204   0.096   2.926  0.0272  0.3276 -0.2650
  270W        W 1267   6.729   5.159   7.298  0.0596  0.0981 -0.2425
  271W        W 1268   1.164   7.672   3.312  0.2090 -0.2948 -0.3638
  272W        W 1269   4.645   2.357   2.869 -0.1236 -0.0012  0.2462
  273W        W 1270   6.534   2.860   1.308 -0.0003  0.1013 -0.2884
  274W        W 1271   1.479   3.030   6.271 -0.1278 -0.2327 -0.2633
  275W        W 1272   0.354   7.283   6.528  0.1063  0.1967  0.1937
  276W        W 1273   1.013   3.761   6.776 -0.0451  0.2726 -0.2842
  277W        W 1274   2.412   5.359   0.332  0.2947 -0.1075 -0.0692
  278W        W 1275   1.970   5.313   0.108 -0.1922  0.1771 -0.2094
  279W        W 1276   1.714   6.126   2.663  0.2107  0.2218  0.0267
  280W        W 1277   6.475   2.538   3.774 -0.0411  0.2079 -0.0340
  281W        W 1278   4.404   3.681   0.645  0.0494 -0.2813 -0.0433
  282W        W 1279   0.987   5.664   5.787 -0.1333 -0.0120 -0.0273
  283W        W 1280   0.313   5.805   4.385  0.0793  0.4544 -0.2374
  284W        W 1281   1.705   0.360   2.763  0.1274 -0.0678 -0.2549
  285W        W 1282   1.134   5.414   6.582 -0.0797  0.0179  0.0544
  286W        W 1283   4.676   4.022   5.018 -0.3307  0.1922 -0.4427
  287W        W 1284   0.026   6.797   5.798  0.0733 -0.1763 -0.0769
  288W        W 1285   2.248   2.634   1.452 -0.4829 -0.0635 -0.2182
  289W        W 1286   1.083   7.203   4.972  0.3444 -0.3572  0.1078
  290W        W 1287   3.942   3.157   1.122  0.3670 -0.1321  0.0720
  291W        W 1288   6.884   5.796   4.902 -0.2110  0.1569 -0.1543
  292W        W 1289   2.192   6.646   1.014 -0.1630  0.0908 -0.0660
  293W        W 1290   2.171   1.111   3.337 -0.2841  0.0763  0.2693
  294W        W 1291   1.898   2.799   7.087 -0.0076 -0.2819  0.1868
  295W        W 1292   7.158   1.732   4.929 -0.0625 -0.0967  0.0237
  296W        W 1293   7.229   2.896   4.752 -0.4145  0.1163 -0.1483
  297W        W 1294   5.929   2.249   2.658 -0.4592  0.2670 -0.2252
  298W        W 1295   5.670   7.398   5.270  0.3438 -0.1054  0.3278
  299W        W 1296   3.284   2.750   4.789 -0.2297  0.1158  0.1510
  300W        W 1297   3.250   2.852   7.284  0.1023  0.0442  0.3076
  301W        W 1298   7.020   2.311   1.705 -0.0375 -0.1038  0.0555
  302W        W 1299   7.690   1.970   4.029  0.1991  0.0404  0.0279
  303W        W 1300   7.469   0.243   2.457  0.0066 -0.1120 -0.2783
  304W        W 1301   6.587   0.396   5.301  0.2250 -0.1427  0.1748
  305W        W 1302   4.351   1.144   7.161 -0.0711  0.3007  0.0811
  306W        W 1303   3.308   7.540   0.693  0.0450 -0.1812  0.0241
  307W        W 1304   2.892   5.203   0.176  0.0133  0.0238  0.0681
  308W        W 1305   0.029   2.326   4.540  0.1310 -0.1860 -0.0917
  309W        W 1306   7.657   1.730   6.848 -0.1944 -0.0403  0.2857
  310W        W 1307   3.095   7.342   5.652  0.0585  0.3735 -0.2347
  311W        W 1308   7.628   4.809   2.732 -0.0703  0.1185  0.2061
  312W        W 1309   3.442   2.775   5.334  0.1009  0.0166 -0.1305
  313W        W 1310   1.613   5.495   2.893 -0.0075 -0.3921 -0.0307
  314W        W 1311   3.090   7.027   0.717  0.1116  0.2114  0.0409
  315W        W 1312   7.378   6.629   6.906 -0.1656  0.2547  0.2483
  316W        W 1313   1.612   3.026   1.913  0.0905  0.1654 -0.0804
  317W        W 1314   2.456   1.828   7.668  0.2695  0.1543  0.0567
  318W        W 1315   0.790   4.154   5.871  0.1184  0.1596 -0.0287
  319W        W 1316   3.490   3.613   5.469  0.0246 -0.0258  0.2654
  320W        W 1317   7.683   5.159   0.605  0.0271 -0.0756 -0.1470
  321W        W 1318   2.491   4.160   3.964  0.0332 -0.0709  0.0117
  322W        W 1319   1.809   3.790   5.154 -0.1772  0.0419  0.2438
  323W        W 1320   0.214   7.559   5.597 -0.4362  0.0746 -0.2740
  324W        W 1321   7.055   3.086   2.487  0.2839 -0.0926  0.0081
  325W        W 1322   3.900   3.615   2.899  0.4097 -0.1397  0.3707
  326W        W 1323   0.620   4.500   4.957  0.1699 -0.0715  0.2504
  327W        W 1324   3.520   6.916   3.030 -0.2345  0.0560  0.0289
  328W        W 1325   5.272   4.053   6.680 -0.0743 -0.5475  0.0811
  329W        W 1326   0.142   0.226   7.117  0.0909  0.1227  0.3684
  330W        W 1327   3.040   5.131   6.870  0.1359 -0.3451  0.0557
  331W        W 1328   6.421   1.157   6.694  0.2342 -0.2901 -0.1957
  332W        W 1329   2.556   1.864   2.578  0.1422 -0.0692  0.0420
  333W        W 1330   3.908   4.232   3.552 -0.1796  0.4848 -0.1791
  334W        W 1331   1.016   1.208   0.729 -0.1209  0.1910  0.0920
  335W        W 1332   1.404   7.579   1.550 -0.0595  0.0744 -0.0393
  336W        W 1333   5.579   0.846   1.311  0.0404 -0.3988  0.0777
  337W        W 1334   2.098   4.112   2.736  0.1172 -0.1848  0.0616
  338W        W 1335   0.063   4.838   6.176  0.4624  0.0303 -0.2119
  339W        W 1336   6.704   6.849   5.621  0.3531  0.0425 -0.0948
  340W        W 1337   5.648   0.839   5.455  0.0609  0.2725  0.0960
  341W        W 1338   0.032   1.874   4.870  0.3581  0.1283  0.1067
  342W        W 1339   3.969   3.738   7.492  0.1243 -0.0834 -0.1869
  343W        W 1340   6.372   0.804   4.960 -0.0691  0.0434 -0.2025
  344W        W 1341   1.698   7.526   3.175  0.2146 -0.0844 -0.3298
  345W        W 1342   1.846   6.596   6.445 -0.1967 -0.0595 -0.0866
  346W        W 1343   1.349   6.463   7.549 -0.1267 -0.2525 -0.3234
  347W        W 1344   3.764   5.289   7.480  0.0887  0.0594  0.3988
  348W        W 1345   3.683   0.135   2.743 -0.1443 -0.0763  0.0398
  349W        W 1346   2.498   1.157   0.274  0.0817 -0.0556  0.1538
  350W        W 1347   2.183   1.586   3.600  0.0656  0.0423  0.2445
  351W        W 1348   2.624   0.417   4.130  0.0314  0.2040 -0.0646
  352W        W 1349   0.414   6.111   5.283 -0.0482  0.1078 -0.1995
  353W        W 1350   6.893   1.138   0.059 -0.0424 -0.0253 -0.2268
  354W        W 1351   6.741   2.376   5.505  0.0235 -0.1274 -0.0744
  355W        W 1352   2.398   4.768   4.018  0.0113  0.1928  0.1087
  356W        W 1353   2.811   2.302   1.286 -0.2387  0.4226  0.0222
  357W        W 1354   3.295   0.656   7.172 -0.1389  0.2072 -0.1687
  358W        W 1355   3.320   6.207   4.697  0.0980 -0.3941  0.1179
  359W        W 1356   3.108   1.495   7.667 -0.0384  0.2137  0.0482
  360W        W 1357   5.518   0.414   6.975 -0.0302  0.1320 -0.1912
  361W        W 1358   7.133   5.532   0.344 -0.1643  0.1511  0.3578
  362W        W 1359   6.411   3.734   0.877  0.4459 -0.0032 -0.0762
  363W        W 1360   2.568   2.373   2.653  0.1115 -0.0902 -0.0029
  364W        W 1361   3.057   7.435   1.118  0.0629  0.3097  0.0864
  365W        W 1362   3.805   2.105   2.939 -0.0085  0.0074 -0.2293
  366W        W 1363   0.320   0.069   6.113  0.1867 -0.2215 -0.5482
  367W        W 1364   5.312   1.624   1.819 -0.2285  0.0320  0.1269
  368W        W 1365   3.199   0.591   4.258 -0.1063  0.1425  0.4268
  369W        W 1366   6.925   1.273   4.940 -0.3051  0.1420  0.1175
  370W        W 1367   5.279   4.147   4.157  0.2501 -0.1349 -0.1209
  371W        W 1368   4.530   1.651   7.140  0.0387 -0.0251  0.2288
  372W        W 1369   2.005   7.314   1.937 -0.1205  0.1148  0.1407
  373W        W 1370   5.747   3.445   5.078 -0.1148  0.0920 -0.0185
  374W        W 1371   3.413   3.590   2.772  0.1239  0.0439 -0.2573
  375W        W 1372   6.953   5.108   6.042  0.2833 -0.3273 -0.2830
  376W        W 1373   5.492   2.980   4.922  0.0785  0.0560 -0.0941
  377W        W 1374   1.524   7.485   2.601  0.1148  0.3181 -0.2682
  378W        W 1375   1.685   5.831   6.593  0.1157 -0.1270 -0.0297
  379W        W 1376   2.365   6.336   1.998  0.0362  0.0632  0.2347
  380W        W 1377   0.046   3.647   3.212  0.0308  0.0569  0.0528
  381W        W 1378   0.267   0.078   6.631 -0.0167 -0.1644  0.0494
  382W        W 1379   0.734   6.140   5.678 -0.1266  0.1977  0.1287
  383W        W 1380   4.995   2.184   0.637  0.0031 -0.1641 -0.0714
  384W        W 1381   5.419   2.812   3.717 -0.3142  0.1978 -0.0321
  385W        W 1382   4.291   4.581   2.743  0.1233 -0.1193  0.1376
  386W        W 1383   7.589   2.613   2.980  0.0727 -0.2123  0.1913
  387W        W 1384   3.840   4.329   5.941  0.0650 -0.1817  0.1050
  388W        W 1385   6.219   4.870   5.987 -0.0981 -0.1328  0.2116
  389W        W 1386   5.935   3.679   4.527 -0.1763 -0.1072  0.2343
  390W        W 1387   0.994   6.246   3.552 -0.4288 -0.1005  0.2154
  391W        W 1388   7.301   2.896   2.111  0.2107 -0.0132 -0.1522
  392W        W 1389   4.588   0.742   6.408  0.2259  0.4531 -0.2988
  393W        W 1390   3.690   6.037   6.288 -0.0677  0.2132 -0.4132
  394W        W 1391   5.142   2.065   1.568 -0.0249  0.3687 -0.1410
  395W        W 1392   3.471   4.375   6.319  0.0758 -0.1005  0.2710
  396W        W 1393   0.985   0.067   1.337  0.0084  0.1114 -0.1748
  397W        W 1394   5.040   0.268   7.520  0.1686 -0.1205 -0.1326
  398W        W 1395   5.036   1.676   0.717  0.1080  0.2616  0.0275
  399W        W 1396   0.042   5.066   4.307 -0.2341  0.1437  0.0336
  400W        W 1397   4.961   3.425   1.984  0.0623 -0.1683 -0.0277
  401W        W 1398   7.495   1.281   2.648 -0.0389  0.0183  0.0053
  402W        W 1399   2.265   5.034   1.838  0.0200  0.1412 -0.0033
  403W        W 1400   0.324   3.347   2.006 -0.0925 -0.0094 -0.0199
  404W        W 1401   4.525   1.594   2.758  0.1928  0.1323 -0.3863
  405W        W 1402   5.705   2.402   5.533  0.2080  0.0383 -0.0297
  406W        W 1403   3.075   2.604   5.634  0.0592  0.1844 -0.2959
  407W        W 1404   3.815   1.319   6.986 -0.1033 -0.0784  0.1037
  408W        W 1405   1.417   7.011   6.368  0.1439  0.1991  0.0260
  409W        W 1406   7.585   0.467   2.054 -0.2054  0.2385  0.0040
  410W        W 1407   3.789   7.305   0.642  0.1100  0.1966  0.1301
  411W        W 1408   3.953   7.169   4.041  0.1005  0.1481  0.0455
  412W        W 1409   5.393   1.139   4.775 -0.0701  0.0757 -0.1133
  413W        W 1410   6.045   0.557   5.710 -0.0261 -0.3596 -0.0186
  414W        W 1411   6.185   1.587   6.957  0.1532 -0.1049 -0.1008
  415W        W 1412   7.211   1.894   0.526 -0.1397 -0.0409 -0.3323
  416W        W 1413   7.508   6.429   5.052 -0.0604  0.0296  0.1241
  417W        W 1414   2.213   3.190   1.925  0.2167  0.0838  0.0540
  418W        W 1415   5.341   1.630   7.514 -0.0764 -0.2249 -0.2352
  419W        W 1416   3.338   2.740   4.296 -0.2416  0.1832 -0.1294
  420W        W 1417   2.939   5.879   0.875  0.0717  0.1838 -0.0356
  421W        W 1418   0.440   1.995   2.995 -0.1348  0.1000  0.1121
  422W        W 1419   4.254   2.809   0.967 -0.3965  0.2549 -0.1494
  423W        W 1420   5.956   3.838   0.043  0.0997 -0.3837 -0.0123
  424W        W 1421   2.202   1.234   2.816  0.2061 -0.1029  0.0810
  425W        W 1422   5.310   7.636   5.619  0.1369  0.0794 -0.1087
  426W        W 1423   6.167   3.093   2.750 -0.1756 -0.0149  0.0040
  427W        W 1424   3.272   6.865   6.529  0.1314  0.3923  0.0187
  428W        W 1425   5.773   1.537   0.088 -0.0381  0.1480 -0.1267
  429W        W 1426   0.872   2.906   4.191 -0.2213  0.0024 -0.1347
  430W        W 1427   1.048   2.704   0.911 -0.2118  0.1251  0.2060
  431W        W 1428   6.954   2.825   4.225 -0.1076 -0.1773 -0.0236
  432W        W 1429   2.069   0.036   4.512  0.2487 -0.0189 -0.0100
  433W        W 1430   0.798   5.646   0.827  0.1664 -0.3162  0.0601
  434W        W 1431   1.900   0.459   2.129 -0.1317 -0.3332 -0.0886
  435W        W 1432   3.110   7.349   6.606 -0.1278 -0.0785 -0.1070
  436W        W 1433   5.970   3.794   1.353 -0.0343  0.0342  0.0159
  437W        W 1434   2.645   1.374   7.513  0.1603 -0.4087  0.0747
  438W        W 1435   0.725   4.373   2.065  0.1688  0.0844  0.2312
  439W        W 1436   7.108   2.505   6.684 -0.2240 -0.0493 -0.1937
  440W        W 1437   2.558   1.830   5.454 -0.1620  0.1888  0.0614
  441W        W 1438   3.021   1.520   2.755  0.0361 -0.1350 -0.0945
  442W        W 1439   1.316   3.743   4.475  0.0659 -0.1555  0.3049
  443W        W 1440   3.085   1.260   0.615  0.1744 -0.0965  0.1677
  444W        W 1441   5.786   3.826   6.487  0.4697  0.1099 -0.0623
  445W        W 1442   4.204   0.776   7.427 -0.1346  0.0202 -0.1161
  446W        W 1443   1.073   2.037   6.288 -0.2753 -0.2687  0.0323
  447W        W 1444   6.858   1.271   6.364 -0.1226  0.0630 -0.1132
  448W        W 1445   3.185   5.310   4.473  0.0353  0.0402  0.4089
  449W        W 1446   1.382   1.695   6.144 -0.0899  0.1079 -0.0954
  450W        W 1447   0.559   0.654   0.009  0.0090  0.2603 -0.0482
  451W        W 1448   6.346   3.697   6.472 -0.0889  0.1517 -0.2863
  452W        W 1449   0.192   4.975   4.904  0.1355  0.4189 -0.3998
  453W        W 1450   6.323   0.790   6.190 -0.0450 -0.0223 -0.0878
  454W        W 1451   2.417   7.201   4.735  0.1816  0.1490  0.0927
  455W        W 1452   7.385   2.293   4.953 -0.0931  0.2521  0.0392
  456W        W 1453   2.448   5.730   0.752 -0.1178 -0.0904 -0.1918
  457W        W 1454   3.801   6.759   0.188  0.0541 -0.0905  0.2626
  458W        W 1455   3.900   5.054   6.641 -0.1234  0.1198 -0.0374
  459W        W 1456   0.009   5.904   2.952 -0.0647  0.1256 -0.0486
  460W        W 1457   3.728   7.380   0.150 -0.2445 -0.1204  0.2371
  461W        W 1458   1.402   2.742   2.460 -0.0308 -0.3463 -0.2283
  462W        W 1459   2.543   0.233   0.507 -0.0526 -0.2263  0.1240
  463W        W 1460   4.021   2.392   5.781 -0.1874 -0.1106  0.0907
  464W        W 1461   1.187   2.229   5.532 -0.0082  0.0704 -0.0653
  465W        W 1462   5.691   3.443   0.003  0.1416 -0.0645 -0.2531
  466W        W 1463   4.097   2.805   7.290  0.2759 -0.1695 -0.0411
  467W        W 1464   3.677   0.628   4.098  0.1849  0.1694  0.0318
  468W        W 1465   5.518   2.101   1.960  0.1121  0.2238 -0.1178
  469W        W 1466   6.691   2.109   3.672  0.0540  0.0162 -0.0597
  470W        W 1467   6.687   7.387   2.505  0.0253 -0.2603  0.2403
  471W        W 1468   3.736   3.267   7.566  0.1227  0.0445 -0.0404
  472W        W 1469   2.053   1.726   2.645 -0.0647 -0.0905 -0.1880
  473W        W 1470   7.315   4.686   0.031  0.1380 -0.0310  0.0591
  474W        W 1471   1.738   5.277   4.966  0.1910 -0.1293 -0.3780
  475W        W 1472   6.737   3.538   7.618 -0.1892 -0.0938  0.0851
  476W        W 1473   7.429   3.134   6.073  0.1865 -0.1635 -0.0718
  477W        W 1474   2.984   0.129   2.266  0.0364  0.2331 -0.1495
  478W        W 1475   3.313   1.621   3.576 -0.1221 -0.1346 -0.1681
  479W        W 1476   4.411   4.224   2.315  0.0599 -0.0263 -0.0154
  480W        W 1477   7.073   6.628   7.564 -0.1246  0.0365 -0.0106
  481W        W 1478   0.640   2.417   4.359 -0.0182  0.2875  0.0136
  482W        W 1479   2.228   4.543   1.813 -0.0605  0.1130  0.5120
  483W        W 1480   5.249   2.015   2.352  0.0565 -0.1939 -0.1377
  484W        W 1481   2.450   0.925   7.522  0.0401  0.3143 -0.0812
  485W        W 1482   2.559   0.923   1.245  0.1498 -0.0485  0.1767
  486W        W 1483   7.514   1.336   1.726 -0.3171 -0.0639 -0.1118
  487W        W 1484   3.621   3.209   0.594  0.1363  0.1858  0.1041
  488W        W 1485   6.946   7.315   0.301  0.0504 -0.1229  0.0713
  489W        W 1486   3.349   1.048   1.946 -0.1619 -0.0629  0.1084
  490W        W 1487   5.224   3.565   2.446 -0.1633 -0.1473  0.0651
  491W        W 1488   2.151   6.718   7.564  0.0969 -0.0272 -0.2299
  492W        W 1489   6.615   3.454   4.047  0.1095 -0.0624  0.0080
  493W        W 1490   0.448   5.348   4.078 -0.0259  0.1513 -0.3177
  494W        W 1491   2.642   6.702   2.303  0.0395  0.1614  0.0879
  495W        W 1492   3.491   2.252   0.783 -0.0708  0.0244  0.6142
  496W        W 1493   5.629   3.358   4.210 -0.1396  0.0608  0.0344
  497W        W 1494   0.659   6.935   1.534  0.3204 -0.1745  0.1989
  498W        W 1495   3.679   3.139   5.677 -0.1768 -0.3878  0.0873
  499W        W 1496   2.563   1.210   1.617  0.3564 -0.2370 -0.1963
  500W        W 1497   6.679   0.019   0.568 -0.1477  0.2174  0.0686
  501W        W 1498   7.309   6.932   3.240  0.0138  0.2416 -0.1686
  502W        W 1499   0.723   4.766   5.791 -0.0812  0.0351  0.1214
  503W        W 1500   1.114   1.273   4.920 -0.2331  0.0231 -0.1284
  504W        W 1501   0.514   5.146   2.602 -0.1471  0.1120  0.2134
  505W        W 1502   2.751   4.180   5.164  0.2620 -0.0223 -0.1463
  506W        W 1503   5.049   2.027   5.152  0.0009  0.1466  0.0499
  507W        W 1504   6.922   6.773   0.298 -0.1008  0.1341 -0.2006
  508W        W 1505   4.931   1.345   3.063  0.2357 -0.2859  0.2231
  509W        W 1506   2.940   3.146   5.998  0.0243  0.3252 -0.0767
  510W        W 1507   1.325   5.765   2.530  0.4977  0.0271 -0.2208
  511W        W 1508   2.642   3.429   4.128  0.2056  0.0179 -0.0402
  512W        W 1509   2.718   3.697   5.513 -0.2064  0.1084 -0.2421
  513W        W 1510   2.413   0.874   4.934  0.2139 -0.2546  0.3422
  514W        W 1511   2.108   2.425   1.928 -0.0476  0.0079 -0.1144
  515W        W 1512   7.319   3.393   1.195 -0.0057  0.2474 -0.0076
  516W        W 1513   6.553   2.658   7.542  0.3304 -0.0394 -0.0063
  517W        W 1514   1.253   7.526   0.370 -0.2359 -0.1277  0.2348
  518W        W 1515   1.838   2.653   4.247 -0.1463  0.0467 -0.1575
  519W        W 1516   6.858   7.364   4.818 -0.1675  0.3555  0.0730
  520W        W 1517   0.215   2.978   3.673 -0.0386  0.0070  0.1327
  521W        W 1518   2.322   5.381   1.435  0.1865  0.1128 -0.1513
  522W        W 1519   0.852   3.872   7.206 -0.4920 -0.1126 -0.0523
  523W        W 1520   3.965   3.431   0.278  0.1158  0.1270 -0.1052
  524W        W 1521   4.530   4.506   4.681 -0.1619 -0.3165  0.0553
  525W        W 1522   5.333   1.654   4.759  0.3803 -0.0632 -0.1808
  526W        W 1523   4.117   0.207   7.473 -0.0722 -0.0926  0.0089
  527W        W 1524   0.664   2.531   6.310 -0.2267 -0.2988  0.0926
  528W        W 1525   3.300   5.032   3.693 -0.1474 -0.2048  0.1222
  529W        W 1526   6.149   0.074   1.302 -0.2862 -0.0429 -0.2027
  530W        W 1527   6.665   0.892   2.486  0.1569 -0.1162  0.1433
  531W        W 1528   3.811   3.763   1.272 -0.0181  0.3953  0.0794
  532W        W 1529   2.769   5.276   2.673  0.2436  0.0033 -0.0255
  533W        W 1530   0.260   2.332   1.857  0.0179 -0.1879 -0.1704
  534W        W 1531   0.804   3.129   0.721  0.2075  0.0271  0.0340
  535W        W 1532   0.582   2.084   7.346 -0.0637 -0.2028 -0.4411
  536W        W 1533   1.978   4.901   1.401 -0.1469  0.0205 -0.0039
  537W        W 1534   4.210   0.048   2.526  0.0358  0.0052  0.3415
  538W        W 1535   7.660   0.843   1.628 -0.0491 -0.2836 -0.1020
  539W        W 1536   0.302   6.519   4.823  0.1926  0.0536  0.0680
  540W        W 1537   0.697   1.429   7.069 -0.1873  0.2897 -0.1595
  541W        W 1538   4.224   7.459   2.017 -0.1400  0.1086  0.0208
  542W        W 1539   6.986   0.032   5.862 -0.4690 -0.1121  0.0784
  543W        W 1540   4.156   3.804   4.373 -0.1641  0.0093  0.2817
  544W        W 1541   4.330   3.693   4.970 -0.1519  0.0716  0.3726
  545W        W 1542   2.284   7.555   0.694  0.0097 -0.2002  0.4399
  546W        W 1543   2.329   2.222   6.761 -0.0973  0.0299 -0.0774
  547W        W 1544   1.338   4.026   0.656 -0.1112 -0.1081  0.1528
  548W        W 1545   7.159   3.234   5.698 -0.1085  0.0467  0.0831
  549W        W 1546   6.904   0.086   2.265  0.0719 -0.0172 -0.4109
  550W        W 1547   0.995   3.740   4.069  0.3996  0.1316 -0.3249
  551W        W 1548   2.573   0.087   4.799 -0.1576  0.1538  0.2780
  552W        W 1549   3.034   3.085   6.482  0.3619  0.1144 -0.1830
  553W        W 1550   2.226   1.188   7.174  0.0304 -0.0717 -0.0326
  554W        W 1551   7.386   5.347   1.919  0.3132  0.4514  0.0015
  555W        W 1552   6.684   3.618   0.454  0.2064  0.0424  0.2754
  556W        W 1553   0.110   2.794   1.775  0.1131 -0.1004 -0.1699
  557W        W 1554   3.157   1.804   0.844  0.0996 -0.2564 -0.0030
  558W        W 1555   0.028   1.663   3.049  0.0967  0.1177 -0.0121
  559W        W 1556   5.469   2.127   0.622 -0.1083 -0.0474  0.1155
  560W        W 1557   0.096   4.699   0.349  0.1755 -0.0599  0.1162
  561W        W 1558   4.526   2.634   3.667 -0.1841 -0.4989 -0.1481
  562W        W 1559   5.537   0.783   5.991  0.1826 -0.0108  0.2649
  563W        W 1560   4.413   4.347   3.327 -0.0533 -0.0067 -0.0009
  564W        W 1561   0.048   0.714   0.788 -0.2511  0.2004 -0.1784
  565W        W 1562   6.114   2.851   0.980  0.0222  0.1448 -0.0315
  566W        W 1563   7.502   4.927   1.679  0.1065  0.4359  0.1527
  567W        W 1564   4.851   3.324   4.136 -0.2554  0.0594 -0.2276
  568W        W 1565   4.382   2.532   6.107 -0.0138 -0.0047  0.1850
  569W        W 1566   5.505   3.871   1.441 -0.1076  0.1642 -0.1298
  570W        W 1567   5.956   0.361   3.916 -0.3048 -0.0070  0.1334
  571W        W 1568   1.688   2.075   5.378  0.1812 -0.1186  0.1073
  572W        W 1569   7.558   6.654   1.694 -0.0581  0.1419 -0.3662
  573W        W 1570   7.417   0.593   4.730  0.0050  0.4970  0.2164
  574W        W 1571   2.116   3.135   0.457 -0.0172  0.2570  0.0036
  575W        W 1572   0.836   6.395   2.976  0.0333  0.0144  0.0823
  576W        W 1573   7.275   3.522   0.656 -0.0177 -0.0601 -0.0793
  577W        W 1574   1.647   2.600   3.729 -0.3133  0.0409  0.0645
  578W        W 1575   7.689   5.139   0.098 -0.0464 -0.0904  0.0425
  579W        W 1576   4.573   0.452   7.305  0.0188  0.0708 -0.2965
  580W        W 1577   1.610   4.565   0.551 -0.0783 -0.3984  0.2108
  581W        W 1578   3.021   0.396   3.750 -0.1483 -0.2903 -0.0368
  582W        W 1579   0.035   4.057   7.139 -0.0675  0.2532 -0.0223
  583W        W 1580   7.181   7.234   2.821 -0.0102  0.1813  0.3347
  584W        W 1581   1.210   4.445   5.015  0.1021 -0.0302 -0.0623
  585W        W 1582   3.261   7.398   2.608  0.0887  0.1259  0.0720
  586W        W 1583   3.610   3.070   2.062 -0.1567  0.0591  0.1387
  587W        W 1584   2.425   1.681   3.009 -0.0077  0.1355 -0.0141
  588W        W 1585   5.968   3.098   0.448 -0.0970  0.0291  0.1004
  589W        W 1586   3.915   7.334   5.975  0.0561  0.1623 -0.0565
  590W        W 1587   1.493   2.141   5.950 -0.1228 -0.0956 -0.3120
  591W        W 1588   7.244   1.234   3.679  0.0364 -0.1233  0.0704
  592W        W 1589   0.185   0.017   0.236 -0.0175  0.0081  0.2397
  593W        W 1590   2.533   1.720   3.934 -0.0252  0.1613  0.0545
  594W        W 1591   7.265   5.982   0.217  0.1621 -0.1681  0.1313
  595W        W 1592   0.987   2.153   1.098  0.0823  0.1104 -0.1820
  596W        W 1593   4.251   1.304   2.335 -0.1236  0.2398 -0.3843
  597W        W 1594   1.947   7.655   2.414 -0.2245 -0.0507 -0.0869
  598W        W 1595   3.479   3.476   1.002  0.0222 -0.0839 -0.0380
  599W        W 1596   0.943   6.965   7.507  0.0290  0.1250 -0.0545
  600W        W 1597   3.966   1.865   6.199 -0.1187 -0.0534 -0.1056
  601W        W 1598   7.348   4.121   3.868 -0.0324 -0.0979 -0.0259
  602W        W 1599   3.268   4.450   1.226  0.0129  0.4490 -0.0027
  603W        W 1600   1.552   2.796   0.197  0.0793  0.2311  0.0044
  604W        W 1601   6.940   4.530   3.005 -0.1805  0.0493  0.1396
  605W        W 1602   2.765   1.554   0.331 -0.0533  0.0935  0.1401
  606W        W 1603   0.185   0.981   4.496  0.0124  0.0524 -0.4098
  607W        W 1604   1.145   2.534   5.952  0.1584 -0.2303  0.1891
  608W        W 1605   0.955   1.656   2.189 -0.0328  0.2490  0.1315
  609W        W 1606   2.019   0.198   3.089 -0.1157  0.1838 -0.0166
  610W        W 1607   0.039   6.922   6.774 -0.2336 -0.0028 -0.2340
  611W        W 1608   1.340   5.797   3.921 -0.1199  0.5142 -0.0382
  612W        W 1609   2.118   7.318   1.081 -0.0264  0.0051  0.2765
  613W        W 1610   1.648   5.694   2.102  0.0208 -0.0092  0.0219
  614W        W 1611   2.208   2.083   5.295  0.1656 -0.0347  0.2096
  615W        W 1612   1.502   5.337   3.989 -0.0358 -0.0695 -0.1049
  616W        W 1613   2.543   5.937   4.627  0.2528  0.0909 -0.1847
  617W        W 1614   7.540   4.550   5.757 -0.0485  0.1492 -0.2417
  618W        W 1615   0.332   7.369   7.066  0.2151 -0.0333 -0.0492
  619W        W 1616   7.505   4.627   4.132  0.0916 -0.1272 -0.1822
  620W        W 1617   4.826   1.474   1.733  0.4630 -0.0509 -0.0796
  621W        W 1618   5.073   1.218   2.185 -0.0168 -0.3266  0.1390
  622W        W 1619   0.041   6.199   3.480  0.3607 -0.0192  0.1109
  623W        W 1620   0.321   2.422   0.889  0.0969  0.0924 -0.3296
  624W        W 1621   4.688   0.271   6.793  0.2706  0.1537 -0.0420
  625W        W 1622   3.656   6.092   4.313  0.3407  0.2296 -0.1011
  626W        W 1623   1.875   7.055   6.150  0.1806  0.2304  0.0412
  627W        W 1624   3.648   1.789   1.554  0.5134  0.2892  0.1302
  628W        W 1625   4.706   2.913   7.405  0.0371 -0.0757 -0.1227
  629W        W 1626   0.833   0.960   7.314  0.1556 -0.2212  0.2865
  630W        W 1627   2.798   6.410   7.251 -0.2454 -0.1028  0.1888
  631W        W 1628   0.398   1.455   6.577 -0.2779 -0.1434  0.1016
  632W        W 1629   5.464   3.140   2.030  0.0101 -0.2690  0.4276
  633W        W 1630   5.196   2.548   2.547 -0.1828 -0.2894  0.0186
  634W        W 1631   1.108   5.446   3.452  0.1370 -0.1491  0.0601
  635W        W 1632   0.093   5.476   3.772  0.1759 -0.1794 -0.0433
  636W        W 1633   3.614   1.435   0.548  0.1983 -0.0709  0.0901
  637W        W 1634   6.568   4.350   4.608  0.1712  0.3844  0.0625
  638W        W 1635   7.588   0.330   3.880  0.4021 -0.1108  0.0710
  639W        W 1636   4.505   2.074   6.318  0.3494 -0.0394  0.1728
  640W        W 1637   1.183   3.278   5.362  0.2270 -0.0323  0.2721
  641W        W 1638   2.059   1.294   7.640 -0.2087  0.1929  0.0327
  642W        W 1639   0.312   4.745   1.856  0.0521  0.0061  0.1569
  643W        W 1640   7.005   2.601   5.121  0.0651 -0.0259  0.0333
  644W        W 1641   1.488   2.690   7.354  0.0731  0.1035  0.0716
  645W        W 1642   7.182   0.556   6.930 -0.3262  0.1804  0.0195
  646W        W 1643   1.355   6.801   1.076  0.0267 -0.0341 -0.0834
  647W        W 1644   4.174   1.788   0.763 -0.1827 -0.0715  0.1258
  648W        W 1645   7.045   4.026   2.979  0.2482 -0.0069  0.0461
  649W        W 1646   4.046   1.256   7.506 -0.3594 -0.3861 -0.1787
  650W        W 1647   3.179   4.776   0.163 -0.0449  0.0698 -0.0971
  651W        W 1648   2.060   1.067   1.548  0.0392  0.1450 -0.0143
  652W        W 1649   3.560   1.690   3.122 -0.1154  0.0190  0.4162
  653W        W 1650   7.529   2.727   6.866  0.0203 -0.2099 -0.3841
  654W        W 1651   1.035   7.392   7.180  0.0849  0.1440  0.2103
  655W        W 1652   0.227   2.286   6.183  0.1380  0.1048  0.0816
  656W        W 1653   5.195   3.078   6.575 -0.0271 -0.4141 -0.1897
  657W        W 1654   5.339   2.537   5.179 -0.0248  0.0839 -0.0340
  658W        W 1655   3.122   3.222   1.332  0.1424  0.0664 -0.2407
  659W        W 1656   7.250   5.220   0.851  0.1373 -0.1448  0.0105
  660W        W 1657   4.508   1.027   2.987  0.0082 -0.1533 -0.2037
  661W        W 1658   5.615   3.738   5.914  0.2310  0.1748  0.0987
  662W        W 1659   7.063   0.528   2.331  0.0754 -0.0385 -0.1815
  663W        W 1660   2.784   0.127   5.903  0.0006 -0.1986 -0.0330
  664W        W 1661   6.901   4.141   3.413  0.0702 -0.0075 -0.0406
  665W        W 1662   3.177   0.974   5.650  0.2299 -0.0680  0.2959
  666W        W 1663   7.073   5.952   4.347  0.2080 -0.2074 -0.1111
  667W        W 1664   3.074   6.226   1.270 -0.0004  0.2273 -0.0742
  668W        W 1665   4.241   1.192   3.871 -0.0469  0.0807 -0.2407
  669W        W 1666   2.223   5.160   0.909  0.3915  0.0879  0.1047
  670W        W 1667   1.376   4.356   1.005  0.0563 -0.0587 -0.0136
  671W        W 1668   0.454   2.174   4.848 -0.1062 -0.0095  0.0394
  672W        W 1669   1.448   5.385   0.785 -0.4787 -0.2075 -0.0321
  673W        W 1670   1.426   2.903   4.061 -0.0382 -0.1462 -0.0574
  674W        W 1671   3.694   2.615   7.512  0.0445  0.0349  0.0542
  675W        W 1672   5.624   0.488   0.643 -0.0482  0.2136 -0.0197
  676W        W 1673   2.687   4.040   0.742 -0.0526  0.0140  0.0122
  677W        W 1674   2.208   6.040   5.484 -0.1561 -0.1771 -0.0941
  678W        W 1675   4.122   6.975   4.560 -0.3301 -0.0718 -0.0743
  679W        W 1676   6.977   0.327   6.330 -0.0146 -0.0306 -0.0295
  680W        W 1677   6.949   3.168   0.515  0.2407 -0.1548  0.2102
  681W        W 1678   3.393   7.492   4.579 -0.1017 -0.1140 -0.1722
  682W        W 1679   0.559   3.923   1.936  0.0752 -0.3054  0.3197
  683W        W 1680   4.029   4.284   1.918  0.1501 -0.0425 -0.0138
  684W        W 1681   4.793   1.150   2.596  0.1612  0.1491  0.1309
  685W        W 1682   6.823   3.584   7.117  0.2168 -0.3535  0.0352
  686W        W 1683   1.622   4.447   6.280  0.3492 -0.0910  0.1398
  687W        W 1684   6.563   1.539   2.495 -0.0278  0.0639  0.1485
  688W        W 1685   1.171   2.709   6.487  0.0250  0.2104  0.0058
  689W        W 1686   2.751   2.045   0.428 -0.1217 -0.0199  0.1367
  690W        W 1687   7.132   3.624   2.489  0.3945 -0.0693 -0.0960
  691W        W 1688   0.864   1.696   2.692 -0.3154 -0.1317  0.0109
  692W        W 1689   6.130   2.866   5.796 -0.1286  0.1209 -0.3068
  693W        W 1690   2.325   0.858   2.414  0.0571  0.0147  0.1733
  694W        W 1691   1.318   4.772   7.405  0.0658 -0.1323  0.0869
  695W        W 1692   2.498   3.862   6.394  0.2001 -0.2657 -0.1535
  696W        W 1693   3.325   5.798   1.243  0.1655 -0.1141 -0.0958
  697W        W 1694   5.218   3.150   1.066 -0.2278  0.0582  0.1281
  698W        W 1695   1.972   6.741   1.893  0.2105  0.0447 -0.1238
  699W        W 1696   5.495   1.511   2.317 -0.0120 -0.0458 -0.0858
  700W        W 1697   1.302   3.164   0.813 -0.0246 -0.1753  0.1044
  701W        W 1698   7.396   6.876   5.351  0.1163  0.4385 -0.2335
  702W        W 1699   0.857   1.012   5.303  0.0433  0.0930 -0.0080
  703W        W 1700   2.150   6.082   2.341 -0.0998 -0.1022  0.0619
  704W        W 1701   0.935   5.036   2.818 -0.1985 -0.0783  0.2412
  705W        W 1702   2.384   2.738   0.184  0.3153 -0.0285 -0.0306
  706W        W 1703   2.975   1.109   4.987 -0.0487  0.1956 -0.1035
  707W        W 1704   1.317   1.931   3.708  0.0354 -0.0379 -0.3101
  708W        W 1705   3.476   1.068   5.116  0.0542  0.0628 -0.4984
  709W        W 1706   6.039   2.744   0.001  0.1081  0.0707  0.0717
  710W        W 1707   0.862   3.091   4.999 -0.0626 -0.0910 -0.0073
  711W        W 1708   0.799   6.238   1.426  0.0285 -0.0670 -0.0125
  712W        W 1709   7.501   7.447   1.094  0.2451  0.0444  0.1364
  713W        W 1710   3.010   2.598   2.872  0.0128  0.1627 -0.1038
  714W        W 1711   6.386   0.455   4.159 -0.0839  0.3419  0.2231
  715W        W 1712   6.097   2.201   0.028 -0.1868 -0.2039  0.0182
  716W        W 1713   7.186   6.475   0.717  0.1064  0.1210  0.0658
  717W        W 1714   4.186   4.619   7.387 -0.1736  0.1044  0.0375
  718W        W 1715   0.001   5.203   3.212 -0.1730 -0.1400 -0.3813
  719W        W 1716   7.037   1.361   2.346 -0.3483 -0.1076  0.0131
  720W        W 1717   4.181   2.001   0.256  0.0176  0.0279 -0.3091
  721W        W 1718   6.980   4.322   6.547  0.1068 -0.0232  0.5197
  722W        W 1719   5.959   3.330   3.252 -0.1811 -0.3370 -0.1801
  723W        W 1720   3.684   0.684   2.095  0.1291 -0.1425  0.2835
  724W        W 1721   4.472   1.391   4.373  0.2075  0.3349  0.0384
  725W        W 1722   2.668   5.531   1.749  0.0431  0.0844 -0.0260
  726W        W 1723   3.030   0.324   1.245  0.5257  0.0445  0.1288
  727W        W 1724   5.699   2.266   1.482 -0.1328 -0.2976  0.2262
  728W        W 1725   2.985   4.636   6.648  0.1685 -0.0977  0.1775
  729W        W 1726   2.621   2.564   3.750 -0.1195  0.2708  0.1808
  730W        W 1727   3.297   2.422   2.508 -0.0244 -0.1415  0.1429
  731W        W 1728   1.492   1.844   1.093  0.2050 -0.1744  0.1003
  732W        W 1729   3.439   3.011   3.449  0.0398  0.0264 -0.0158
  733W        W 1730   3.218   6.173   6.400  0.2250  0.3881 -0.0023
  734W        W 1731   4.950   2.950   2.286  0.1230 -0.2728 -0.0046
  735W        W 1732   0.198   6.687   3.341  0.1048 -0.1293 -0.1291
  736W        W 1733   0.879   7.252   0.214 -0.1751  0.0210 -0.1610
  737W        W 1734   0.448   2.051   3.904  0.1100  0.2531 -0.0138
  738W        W 1735   0.216   7.009   4.827 -0.1283  0.2581 -0.0964
  739W        W 1736   0.584   2.480   5.346  0.0455  0.2375  0.0036
  740W        W 1737   5.983   1.070   0.467 -0.2567 -0.1499 -0.0870
  741W        W 1738   6.881   1.923   1.463 -0.2402 -0.1189 -0.1182
  742W        W 1739   6.993   5.187   5.516  0.1481  0.0301 -0.1283
  743W        W 1740   7.155   7.388   6.267  0.0047  0.0773 -0.1547
  744W        W 1741   0.501   6.782   2.937  0.0162 -0.0101 -0.2863
  745W        W 1742   0.100   1.508   1.218  0.0865 -0.1883 -0.1091
  746W        W 1743   0.313   2.977   5.585 -0.1577  0.1169  0.1636
  747W        W 1744   5.951   2.276   5.132  0.1828 -0.0621  0.0626
  748W        W 1745   2.318   6.338   6.270 -0.0132  0.0098 -0.2690
  749W        W 1746   0.300   4.742   3.971 -0.1610 -0.2042  0.1571
  750W        W 1747   6.945   4.114   4.719 -0.2901  0.4232  0.1984
  751W        W 1748   6.883   0.138   3.231  0.0043  0.0643  0.0459
  752W        W 1749   2.816   3.895   2.278  0.3076  0.0367 -0.1627
  753W        W 1750   0.720   2.406   1.697  0.1417  0.0220 -0.4408
  754W        W 1751   4.291   0.800   5.343  0.2638 -0.0557 -0.1461
  755W        W 1752   4.284   0.228   6.449  0.1390  0.0290 -0.0496
  756W        W 1753   7.446   5.207   4.758  0.1438 -0.0049  0.0422
  757W        W 1754   4.691   4.653   7.264  0.0246 -0.1778 -0.0661
  758W        W 1755   4.204   3.095   2.777  0.0606  0.1012  0.0503
  759W        W 1756   0.914   2.500   4.871  0.1027  0.0923 -0.3480
  760W        W 1757   7.312   3.276   4.461  0.0675  0.0478 -0.0800
  761W        W 1758   4.296   4.861   6.382 -0.0827 -0.0229 -0.0730
  762W        W 1759   7.375   0.510   5.933 -0.1954  0.3045  0.2498
  763W        W 1760   3.432   2.496   1.224  0.5183 -0.1085 -0.1049
  764W        W 1761   1.390   4.562   4.533  0.0118  0.1151  0.1093
  765W        W 1762   7.378   1.378   0.357 -0.0271  0.1486  0.1191
  766W        W 1763   3.205   2.372   7.403 -0.0658 -0.1128  0.0391
  767W        W 1764   1.669   6.297   3.166 -0.3357  0.1969 -0.2529
  768W        W 1765   1.265   6.178   4.808  0.0508  0.0355 -0.1830
  769W        W 1766   2.613   2.957   3.263 -0.4109  0.0760  0.0936
  770W        W 1767   6.013   2.326   0.930  0.2246  0.3450 -0.0983
  771W        W 1768   4.756   2.872   4.498  0.1433 -0.0917 -0.3349
  772W        W 1769   5.433   3.471   6.786 -0.1929  0.0580 -0.1396
  773W        W 1770   1.358   4.378   1.502  0.2311 -0.2339  0.1433
  774W        W 1771   0.167   5.231   1.567  0.1157  0.1244  0.2515
  775W        W 1772   6.419   4.967   6.752  0.4105  0.1331 -0.3649
  776W        W 1773   3.822   3.637   6.964  0.1101  0.0540  0.0386
  777W        W 1774   7.409   2.157   3.692  0.0570 -0.1051 -0.0030
  778W        W 1775   0.004   3.787   2.353 -0.0892 -0.1885 -0.2222
  779W        W 1776   4.546   0.109   1.822 -0.2121 -0.1491  0.1492
  780W        W 1777   4.143   3.338   7.264 -0.4325  0.1872 -0.2118
  781W        W 1778   4.769   0.499   3.530 -0.2837  0.0797 -0.3486
  782W        W 1779   1.422   0.253   6.082  0.0003 -0.0581  0.0470
  783W        W 1780   0.082   7.060   7.387  0.0356 -0.0432  0.0037
  784W        W 1781   6.700   4.781   1.939  0.2196 -0.0509  0.1366
  785W        W 1782   2.584   2.763   5.826 -0.1566 -0.0138  0.0888
  786W        W 1783   3.470   3.245   5.027 -0.2812  0.0515 -0.0337
  787W        W 1784   3.774   4.529   7.054  0.0077 -0.1631  0.0437
  788W        W 1785   4.383   1.577   6.292  0.1131 -0.1790  0.0110
  789W        W 1786   6.634   4.790   4.353 -0.1000  0.0205  0.0212
  790W        W 1787   2.947   6.477   3.683  0.0793 -0.0236  0.2035
  791W        W 1788   4.076   7.639   5.535 -0.2166 -0.2831  0.0236
  792W        W 1789   3.662   5.461   4.347  0.0540  0.0696  0.1085
  793W        W 1790   3.106   2.289   6.514 -0.0527 -0.1778 -0.2199
  794W        W 1791   1.214   6.209   5.629 -0.4446  0.0161 -0.1662
  795W        W 1792   5.350   2.274   6.107 -0.0247  0.0211 -0.0708
  796W        W 1793   0.209   4.363   7.629 -0.1133  0.0967  0.3209
  797W        W 1794   6.299   1.739   4.593  0.2514  0.2016  0.0631
  798W        W 1795   1.898   7.284   6.625 -0.6574  0.1273  0.1606
  799W        W 1796   2.749   5.505   7.261 -0.2153  0.3321 -0.0094
  800W        W 1797   2.080   4.068   5.609 -0.2769 -0.3943  0.1033
  801W        W 1798   7.393   1.247   3.173 -0.3740  0.2089  0.0317
  802W        W 1799   6.040   0.506   5.192 -0.2996  0.1559  0.0377
  803W        W 1800   1.122   6.960   2.228 -0.1026 -0.2437 -0.0670
  804W        W 1801   7.155   4.052   0.173  0.0176 -0.1449 -0.1718
  805W        W 1802   4.389   7.454   6.953 -0.2479  0.0020  0.0179
  806W        W 1803   1.714   2.590   1.562  0.1583 -0.3939 -0.2313
  807W        W 1804   3.416   0.276   0.987 -0.1671 -0.1358  0.2614
  808W        W 1805   7.256   4.799   6.411  0.0862 -0.2634 -0.1727
  809W        W 1806   5.991   0.213   6.802 -0.0895 -0.5448 -0.2358
  810W        W 1807   0.379   2.300   3.488 -0.2426  0.0655 -0.2493
  811W        W 1808   3.806   0.003   3.850 -0.2988  0.2489  0.1480
  812W        W 1809   1.272   5.718   4.424  0.3188  0.1238  0.1314
  813W        W 1810   0.267   7.274   5.990 -0.0858  0.1524  0.2484
  814W        W 1811   2.653   2.209   6.363 -0.3531 -0.2617 -0.1754
  815W        W 1812   7.242   1.644   7.656 -0.0297  0.1505 -0.0900
  816W        W 1813   0.318   5.478   0.428 -0.2164 -0.1649  0.0864
  817W        W 1814   0.139   3.225   4.151  0.3065  0.0052 -0.3641
  818W        W 1815   3.348   0.748   4.680  0.0895 -0.0708 -0.0031
  819W        W 1816   4.804   3.774   3.887 -0.0890  0.1232 -0.1034
  820W        W 1817   6.468   6.692   4.292 -0.0040  0.1194  0.0111
  821W        W 1818   5.204   1.175   7.329  0.0195  0.1401  0.1393
  822W        W 1819   5.424   1.177   6.257  0.1593  0.3074 -0.3444
  823W        W 1820   6.535   2.068   7.589 -0.2411 -0.1324 -0.1021
  824W        W 1821   6.206   1.615   6.469  0.0179  0.1204  0.1924
  825W        W 1822   1.561   3.474   1.224  0.0019 -0.2793  0.0984
  826W        W 1823   2.907   6.904   7.323 -0.1764 -0.2783  0.3080
  827W        W 1824   2.124   6.848   3.948  0.0308  0.1041  0.1026
  828W        W 1825   1.622   3.799   5.687 -0.1237 -0.1495  0.0182
  829W        W 1826   2.160   3.119   2.551 -0.0570 -0.2177  0.1489
  830W        W 1827   0.996   5.656   7.010 -0.0381 -0.2330  0.0755
  831W        W 1828   1.320   6.637   3.396  0.0447 -0.0390 -0.1762
  832W        W 1829   1.439   6.335   3.864 -0.1798  0.3128  0.2177
  833W        W 1830   0.910   1.701   5.808 -0.1281 -0.2945  0.1016
  834W        W 1831   6.230   2.155   4.344 -0.1176 -0.0304 -0.2230
  835W        W 1832   7.688   4.506   1.380  0.0146  0.1561  0.1399
  836W        W 1833   6.793   0.879   5.231  0.0629  0.1202 -0.0515
  837W        W 1834   5.728   2.413   6.480 -0.0126  0.1514  0.3096
  838W        W 1835   1.070   2.224   1.972 -0.0222  0.1974  0.1707
  839W        W 1836   1.855   5.396   7.340 -0.2276 -0.3993 -0.1294
  840W        W 1837   3.861   6.555   7.056 -0.3015 -0.1771  0.0226
  841W        W 1838   0.481   1.928   0.974 -0.0620 -0.0936  0.2130
  842W        W 1839   3.156   1.334   6.513 -0.0469  0.0821  0.2253
  843W        W 1840   3.578   4.643   3.591 -0.0559 -0.1584  0.0148
  844W        W 1841   0.256   5.942   5.842 -0.0857  0.5123  0.0553
  845W        W 1842   4.036   1.283   5.446 -0.0760  0.7065 -0.0321
  846W        W 1843   2.607   5.871   2.168 -0.3260  0.0080  0.1361
  847W        W 1844   1.797   4.145   0.500  0.3146  0.2235 -0.4069
  848W        W 1845   2.879   0.596   4.834  0.1959 -0.3199  0.0178
  849W        W 1846   6.486   2.461   0.968  0.1295  0.0788  0.3640
  850W        W 1847   2.531   3.754   4.907 -0.0171  0.1397 -0.1512
  851W        W 1848   7.590   5.709   0.623 -0.4411  0.4043 -0.2103
  852W        W 1849   7.243   3.516   0.161 -0.0084  0.1364  0.0051
  853W        W 1850   0.993   1.976   4.235  0.1343 -0.0221  0.0645
  854W        W 1851   4.203   4.128   4.830 -0.0192  0.0901  0.0947
  855W        W 1852   2.163   6.183   3.384 -0.1118  0.2005  0.1282
  856W        W 1853   4.200   3.832   3.424 -0.3293  0.2334  0.4542
  857W        W 1854   7.196   2.051   6.952 -0.0634  0.0464  0.0936
  858W        W 1855   7.418   5.702   4.663  0.0773 -0.0323 -0.1411
  859W        W 1856   4.082   7.100   5.525 -0.0234 -0.2345  0.0243
  860W        W 1857   7.053   2.211   2.295  0.2681 -0.1101  0.0104
  861W        W 1858   5.372   1.242   0.142 -0.0217  0.1216  0.1454
  862W        W 1859   1.355   5.213   2.561 -0.0596  0.0819  0.1386
  863W        W 1860   7.019   0.094   2.737 -0.0920 -0.1633 -0.0495
  864W        W 1861   3.387   3.640   2.293 -0.0708 -0.3423 -0.0590
  865W        W 1862   1.195   0.316   6.952  0.0664  0.1680  0.0415
  866W        W 1863   7.244   3.627   1.749  0.2178 -0.3636  0.0095
  867W        W 1864   3.294   3.047   2.839  0.2689 -0.2531 -0.1515
  868W        W 1865   0.611   4.532   6.232  0.0716 -0.4313  0.2772
  869W        W 1866   2.145   2.293   0.284 -0.0796  0.2858  0.0161
  870W        W 1867   3.656   1.945   0.464  0.3404 -0.0746  0.2111
  871W        W 1868   0.090   2.160   7.031  0.0588 -0.0972 -0.1427
  872W        W 1869   0.925   4.438   1.240 -0.0657  0.1091 -0.0266
  873W        W 1870   3.581   6.571   6.163 -0.0762  0.2425  0.0914
  874W        W 1871   0.011   3.589   4.561  0.0335  0.1023  0.1019
  875W        W 1872   1.162   6.137   4.250 -0.2040  0.1251  0.0470
  876W        W 1873   4.056   4.717   4.744 -0.1240  0.0927 -0.1680
  877W        W 1874   1.437   7.243   3.547  0.2391 -0.0911 -0.0444
  878W        W 1875   3.100   5.641   7.668  0.0883 -0.1103  0.1076
  879W        W 1876   0.234   5.932   7.431 -0.1763  0.2209 -0.1408
  880W        W 1877   6.602   3.146   7.357 -0.0942 -0.4655 -0.0627
  881W        W 1878   2.556   2.861   2.811 -0.2554  0.2192  0.3541
  882W        W 1879   3.716   5.018   5.186 -0.3411 -0.1623 -0.0509
  883W        W 1880   5.659   3.794   2.815 -0.1830  0.2776  0.2904
  884W        W 1881   2.099   3.193   4.138 -0.0413 -0.2190  0.0750
  885W        W 1882   2.542   4.808   1.254  0.0346  0.2681 -0.3281
  886W        W 1883   0.587   0.088   4.896 -0.0743  0.3353 -0.0469
  887W        W 1884   3.013   5.116   3.228 -0.0548 -0.1815 -0.0267
  888W        W 1885   7.514   2.860   5.692 -0.1202 -0.1211  0.1472
  889W        W 1886   0.417   4.931   3.077  0.2343 -0.5116 -0.2456
  890W        W 1887   3.040   3.363   3.742 -0.0577  0.1768  0.1859
  891W        W 1888   2.384   6.849   6.365 -0.0620 -0.0714  0.0192
  892W        W 1889   5.834   0.465   6.393 -0.2529 -0.0286  0.2018
  893W        W 1890   2.919   0.989   0.091 -0.2418 -0.1632 -0.0523
  894W        W 1891   0.770   4.893   3.887  0.0210  0.1117 -0.1773
  895W        W 1892   6.402   7.638   4.025 -0.4215 -0.1752 -0.3993
  896W        W 1893   7.116   2.766   6.212 -0.0904 -0.0778  0.1190
  897W        W 1894   4.009   1.572   2.743 -0.0991  0.2736  0.0831
  898W        W 1895   4.678   1.477   3.910 -0.3817  0.0061  0.6277
  899W        W 1896   2.897   0.212   7.223 -0.3406  0.0443 -0.2277
  900W        W 1897   6.752   1.261   7.098 -0.0702  0.0839 -0.1812
  901W        W 1898   4.502   2.065   5.025  0.0386 -0.2812 -0.0027
  902W        W 1899   0.268   1.641   2.640  0.2587  0.1165  0.0340
  903W        W 1900   0.887   5.387   6.136  0.0150  0.2141  0.1306
  904W        W 1901   1.714   0.846   0.807  0.0183 -0.4648 -0.1211
  905W        W 1902   3.589   5.523   5.398  0.0937 -0.0663 -0.2519
  906W        W 1903   7.321   5.519   2.913 -0.1625  0.1261  0.2509
  907W        W 1904   2.322   2.017   3.424  0.0473  0.0270 -0.1871
  908W        W 1905   0.037   1.247   6.971  0.2377  0.0009  0.0162
  909W        W 1906   0.806   7.378   3.711 -0.2197 -0.1340  0.2096
  910W        W 1907   5.959   1.029   5.867  0.2363  0.0308 -0.0783
  911W        W 1908   5.172   2.212   0.106 -0.2355  0.0232  0.0331
  912W        W 1909   0.664   5.702   5.007 -0.0853 -0.1022 -0.4993
  913W        W 1910   0.623   5.399   3.135 -0.1966  0.3129  0.0930
  914W        W 1911   4.722   7.094   5.016  0.0175 -0.0049 -0.3102
  915W        W 1912   0.541   0.080   2.036 -0.0589 -0.0104 -0.2216
  916W        W 1913   3.053   7.077   1.698  0.0048 -0.0179 -0.2090
  917W        W 1914   3.642   4.027   2.689 -0.0072  0.2104  0.0023
  918W        W 1915   3.196   7.500   0.254  0.2197 -0.1221  0.1019
  919W        W 1916   3.667   4.614   0.316  0.1571 -0.0486 -0.2323
  920W        W 1917   2.979   1.583   7.193  0.1080 -0.0417  0.2289
  921W        W 1918   7.689   3.763   0.529 -0.2053  0.0773 -0.1812
  922W        W 1919   2.595   1.417   6.229 -0.0428  0.2008 -0.5234
  923W        W 1920   3.108   3.852   1.889 -0.1163 -0.2319 -0.1849
  924W        W 1921   6.672   0.035   1.031  0.4503  0.0039 -0.0455
  925W        W 1922   3.734   1.467   6.447  0.0344 -0.0340  0.0766
  926W        W 1923   0.866   5.943   2.691 -0.1481 -0.0691  0.1960
  927W        W 1924   1.558   0.360   0.598  0.1397  0.0277  0.0723
  928W        W 1925   6.810   4.252   7.595 -0.0472 -0.2192  0.5157
  929W        W 1926   1.870   4.349   0.963  0.0942  0.0966 -0.1182
  930W        W 1927   1.949   7.037   5.043 -0.1650  0.0996  0.1692
  931W        W 1928   6.493   1.605   1.596  0.1540 -0.2051  0.0254
  932W        W 1929   0.319   3.750   4.167  0.0497  0.0540 -0.1707
  933W        W 1930   5.060   1.546   2.536  0.1958  0.4495 -0.1941
  934W        W 1931   3.720   1.679   2.323  0.1981  0.0485 -0.0202
  935W        W 1932   3.568   1.007   6.516  0.0292  0.2116  0.1707
  936W        W 1933   0.129   3.555   1.248 -0.3203 -0.0503 -0.0972
  937W        W 1934   6.807   6.881   2.989  0.1718  0.1397 -0.1982
  938W        W 1935   0.104   5.586   2.232  0.1930  0.2739  0.6628
  939W        W 1936   3.001   5.983   4.945  0.2163 -0.1650  0.1024
  940W        W 1937   1.945   7.247   2.756 -0.0663  0.0312 -0.1436
  941W        W 1938   1.503   7.081   1.675 -0.0073  0.1551  0.0941
  942W        W 1939   1.434   3.623   3.627  0.0057  0.3099 -0.3745
  943W        W 1940   7.043   7.321   3.285 -0.0545 -0.0707  0.0935
  944W        W 1941   5.549   0.503   7.508 -0.0051  0.1559 -0.2777
  945W        W 1942   3.984   0.628   4.601 -0.1352  0.2849  0.1548
  946W        W 1943   4.823   2.506   5.135  0.4214 -0.0926 -0.1408
  947W        W 1944   6.302   3.408   3.659 -0.0492 -0.1380  0.0444
  948W        W 1945   1.164   6.745   2.737  0.0486  0.1389  0.1343
  949W        W 1946   4.518   7.085   3.164 -0.1313  0.1365  0.3139
  950W        W 1947   6.207   3.268   5.483  0.1565 -0.0200 -0.0062
  951W        W 1948   6.687   3.362   6.622  0.2783 -0.0415 -0.2264
  952W        W 1949   1.561   1.377   5.194  0.2480  0.1102  0.0171
  953W        W 1950   3.873   7.407   2.419 -0.0807  0.1796  0.3076
  954W        W 1951   2.788   0.782   3.240 -0.0060 -0.0669 -0.2616
  955W        W 1952   0.422   6.505   5.722  0.1852 -0.0175  0.1920
  956W        W 1953   6.421   0.371   6.464 -0.2434 -0.0846 -0.1976
  957W        W 1954   2.855   7.301   3.455  0.0403  0.4130  0.0041
  958W        W 1955   6.416   3.221   0.694 -0.1790 -0.1684 -0.3852
  959W        W 1956   0.009   3.120   3.181  0.4691 -0.0511 -0.0911
  960W        W 1957   7.258   3.758   4.596  0.3175  0.0595  0.0146
  961W        W 1958   2.400   4.481   5.512  0.0822 -0.2021 -0.0072
  962W        W 1959   1.464   5.074   4.520  0.2177  0.0507 -0.0449
  963W        W 1960   6.341   3.276   6.976  0.2183 -0.0186  0.3052
  964W        W 1961   4.983   3.584   6.694  0.3152 -0.0925 -0.0909
  965W        W 1962   1.786   2.147   0.719  0.1825  0.2954  0.3615
  966W        W 1963   1.728   1.069   6.268  0.1368 -0.3403  0.0795
  967W        W 1964   3.729   7.460   7.272 -0.0641  0.0011  0.1308
  968W        W 1965   5.805   4.304   6.554  0.0096  0.1232 -0.2112
  969W        W 1966   1.119   7.673   7.610  0.3041 -0.0138 -0.2508
  970W        W 1967   2.552   1.895   2.009  0.0155  0.0861 -0.0073
  971W        W 1968   5.363   1.299   6.813  0.2394 -0.4674  0.2051
  972W        W 1969   0.668   7.237   2.159 -0.2311 -0.0607  0.2638
  973W        W 1970   1.225   5.614   7.468 -0.1420 -0.0641 -0.0361
  974W        W 1971   6.148   0.844   3.122 -0.0126  0.1498  0.2132
  975W        W 1972   6.484   1.312   1.071  0.0313  0.0029 -0.2259
  976W        W 1973   2.771   2.271   5.189  0.2602  0.1609  0.2854
  977W        W 1974   3.341   4.261   0.330  0.2546 -0.0918 -0.2259
  978W        W 1975   5.890   2.867   3.191 -0.2349  0.0575  0.4639
  979W        W 1976   5.883   2.864   5.255 -0.0499  0.1466  0.2918
  980W        W 1977   6.720   6.690   3.731  0.3685  0.1502 -0.1803
  981W        W 1978   7.342   3.612   6.057 -0.2366  0.2202  0.1446
  982W        W 1979   3.934   0.509   2.494  0.1968  0.1899  0.2288
  983W        W 1980   2.635   4.399   6.964  0.0269 -0.1622 -0.2263
  984W        W 1981   0.375   5.910   0.692  0.1154  0.4553 -0.1472
  985W        W 1982   3.110   1.077   1.482  0.1019 -0.1689 -0.1001
  986W        W 1983   2.530   0.348   3.106 -0.1901 -0.1276  0.0178
  987W        W 1984   7.588   5.440   7.294  0.0156  0.0948 -0.1836
  988W        W 1985   3.948   2.763   5.430  0.0064  0.1419 -0.1499
  989W        W 1986   0.002   3.582   7.326 -0.0335 -0.0382 -0.0716
  990W        W 1987   1.225   0.552   3.661 -0.1464  0.2316 -0.3008
  991W        W 1988   7.422   3.434   6.538 -0.0026 -0.1631 -0.0249
  992W        W 1989   6.112   3.855   6.018 -0.2288  0.1539 -0.1041
  993W        W 1990   4.818   2.500   4.157 -0.1637 -0.0188  0.0907
  994W        W 1991   3.849   0.487   1.173  0.1376 -0.0065  0.0536
  995W        W 1992   6.795   3.000   4.951  0.4559  0.1908  0.0943
  996W        W 1993   0.416   5.427   7.605 -0.2869  0.0826 -0.1378
  997W        W 1994   1.523   2.144   6.533 -0.1010  0.0135  0.1433
  998W        W 1995   3.373   3.174   6.145 -0.0939  0.1819 -0.0462
  999W        W 1996   5.019   3.850   1.584 -0.1631  0.0020  0.0308
 1000W        W 1997   4.799   0.052   3.889 -0.0216  0.2132  0.1565
 1001W        W 1998   7.414   3.161   1.715 -0.2757 -0.1145 -0.0005
 1002W        W 1999   2.796   0.969   2.032 -0.2138  0.0193  0.1525
 1003W        W 2000   2.141   1.290   6.644 -0.0208  0.0017  0.0626
 1004W        W 2001   2.663   1.253   2.990  0.1335 -0.1826 -0.0396
 1005W        W 2002   1.629   4.824   4.133  0.0200 -0.0431 -0.3012
 1006W        W 2003   0.811   4.028   0.772  0.0803  0.0747 -0.0652
 1007W        W 2004   2.156   7.517   5.004 -0.0393 -0.0159 -0.2444
 1008W        W 2005   7.149   4.711   5.483  0.2594  0.0774  0.2505
 1009W        W 2006   7.676   5.799   1.247 -0.0111 -0.1592  0.0584
 1010W        W 2007   2.274   1.412   1.203 -0.2610  0.0380 -0.0059
 1011W        W 2008   7.450   3.819   2.805 -0.0326 -0.1054 -0.0981
 1012W        W 2009   2.611   3.278   1.117 -0.2120  0.2158 -0.0785
 1013W        W 2010   2.021   0.122   0.331  0.2310  0.1001  0.0333
 1014W        W 2011   1.784   7.448   5.352  0.0034 -0.0054 -0.0564
 1015W        W 2012   6.068   3.346   5.970  0.0388 -0.1275 -0.0699
 1016W        W 2013   4.764   0.665   5.262 -0.2310  0.0472 -0.1058
 1017W        W 2014   7.144   2.386   3.334  0.3491 -0.2866 -0.0566
 1018W        W 2015   7.613   1.685   3.565  0.1234 -0.0267 -0.1890
 1019W        W 2016   1.677   5.099   0.454  0.0274  0.1216 -0.3257
 1020W        W 2017   1.554   4.775   2.369 -0.0076  0.2190 -0.1033
 1021W        W 2018   3.151   0.205   4.976  0.0121 -0.3395 -0.3573
 1022W        W 2019   6.680   4.745   6.365 -0.2889 -0.0384 -0.0200
 1023W        W 2020   3.084   3.221   0.807  0.0723  0.0167 -0.4235
 1024W        W 2021   2.194   5.840   0.329 -0.1417 -0.0705  0.3076
 1025W        W 2022   6.347   7.659   5.173 -0.0947  0.4818  0.2312
 1026W        W 2023   5.653   2.799   0.750  0.0365  0.0950  0.2537
 1027W        W 2024   0.337   6.274   2.917 -0.3160  0.1196  0.0104
 1028W        W 2025   7.407   1.936   4.470 -0.2740 -0.1618  0.1598
 1029W        W 2026   6.982   7.257   5.707 -0.0130  0.1006 -0.3641
 1030W        W 2027   0.426   5.319   1.962  0.2452  0.3196 -0.1794
 1031W        W 2028   1.191   5.395   4.823 -0.0542  0.1564  0.2853
 1032W        W 2029   2.097   6.152   3.968  0.1882 -0.0019  0.2391
 1033W        W 2030   3.517   3.528   3.457  0.1391  0.2927  0.1486
 1034W        W 2031   7.296   0.960   5.112 -0.1911 -0.2803  0.0118
 1035W        W 2032   0.844   1.092   3.982  0.0031 -0.2608  0.2247
 1036W        W 2033   0.602   2.865   1.934  0.1936  0.2440  0.1148
 1037W        W 2034   6.200   3.640   7.329 -0.1573 -0.2549  0.0777
 1038W        W 2035   1.768   1.266   1.120  0.0860 -0.1524 -0.2608
 1039W        W 2036   0.617   3.384   6.947  0.2435 -0.0952  0.0294
 1040W        W 2037   1.128   6.759   1.525 -0.0959 -0.0582 -0.4118
 1041W        W 2038   1.119   4.440   6.450 -0.1806  0.0501  0.0966
 1042W        W 2039   3.259   5.948   5.660 -0.1524  0.3654 -0.1418
 1043W        W 2040   1.698   7.607   4.201 -0.1919 -0.1005 -0.0973
 1044W        W 2041   0.660   4.397   6.750 -0.2356  0.0123 -0.2595
 1045W        W 2042   0.408   0.224   3.757  0.3690  0.4815 -0.1868
 1046W        W 2043   3.375   2.042   2.132 -0.2056 -0.2000  0.0603
 1047W        W 2044   0.322   4.007   6.317 -0.2093 -0.1296 -0.0217
 1048W        W 2045   5.425   4.200   5.133 -0.2510  0.2051  0.1649
 1049W        W 2046   1.529   2.845   3.240  0.1035 -0.0168  0.0175
 1050W        W 2047   2.733   4.706   3.198  0.0131  0.0314 -0.0851
 1051W        W 2048   7.156   1.602   6.672  0.2667 -0.0014  0.2179
 1052W        W 2049   6.290   3.530   5.118 -0.2544  0.0569  0.3304
 1053W        W 2050   2.568   3.167   4.534  0.0515 -0.1796 -0.0665
 1054W        W 2051   2.228   3.073   5.325 -0.1655  0.0357  0.2233
 1055W        W 2052   3.452   3.910   6.306 -0.0461 -0.0147  0.0917
 1056W        W 2053   3.339   5.325   4.991 -0.1814  0.3199 -0.0123
 1057W        W 2054   6.328   2.118   4.880  0.1008 -0.0327  0.3196
 1058W        W 2055   1.452   0.095   1.093  0.0801 -0.1409 -0.2887
 1059W        W 2056   5.729   3.355   1.345 -0.1324  0.2794  0.0474
 1060W        W 2057   3.183   0.757   0.577 -0.1102 -0.5369  0.0990
 1061W        W 2058   1.290   4.990   3.650 -0.0598 -0.2457  0.1341
 1062W        W 2059   0.594   4.378   1.552 -0.1866 -0.0780 -0.3470
 1063W        W 2060   2.468   5.323   3.188  0.0767 -0.0830 -0.1300
 1064W        W 2061   4.022   4.949   7.106 -0.0632 -0.0341 -0.0432
 1065W        W 2062   0.026   2.008   5.804  0.0607 -0.4215 -0.1351
 1066W        W 2063   0.876   1.722   3.210 -0.0626  0.2915 -0.1112
 1067W        W 2064   3.953   0.433   5.706  0.0064 -0.0798  0.1701
 1068W        W 2065   1.897   1.924   7.659 -0.1389  0.0024 -0.1326
 1069W        W 2066   4.968   2.936   3.886  0.1612  0.3186  0.1377
 1070W        W 2067   3.712   5.652   5.886 -0.1458 -0.0639  0.0078
 1071W        W 2068   2.650   4.731   2.632 -0.0852  0.0862  0.1052
 1072W        W 2069   6.815   6.842   7.169  0.1240 -0.0774 -0.0599
 1073W        W 2070   1.647   1.731   0.351 -0.2329 -0.0709 -0.5831
 1074W        W 2071   1.888   1.825   6.708 -0.0814  0.1019  0.1201
 1075W        W 2072   1.573   7.273   1.104  0.3687  0.1089 -0.1146
 1076W        W 2073   2.723   5.749   0.290 -0.1473 -0.2112  0.2715
 1077W        W 2074   1.307   2.329   3.405 -0.1222 -0.2854 -0.0597
 1078W        W 2075   2.535   3.163   0.037 -0.0305 -0.1364  0.2328
 1079W        W 2076   1.294   7.502   4.539  0.0796 -0.0902  0.0487
 1080W        W 2077   1.592   2.546   6.207 -0.2098 -0.0426  0.2474
 1081W        W 2078   2.261   1.482   5.760 -0.0344  0.0159 -0.2825
 1082W        W 2079   1.095   6.634   6.462 -0.3773  0.1059 -0.0663
 1083W        W 2080   3.619   1.860   3.897 -0.0657 -0.1874  0.0965
 1084W        W 2081   3.863   7.407   4.825  0.0222 -0.1967  0.2050
 1085W        W 2082   4.208   3.885   5.890 -0.2478 -0.2835  0.4063
 1086W        W 2083   2.288   3.579   4.473  0.0627  0.0666 -0.0555
 1087W        W 2084   5.262   0.689   5.054 -0.2866 -0.2718 -0.1021
 1088W        W 2085   7.593   4.353   6.229 -0.0118  0.3395  0.1027
 1089W        W 2086   0.466   0.562   6.483 -0.2806 -0.2895  0.1415
 1090W        W 2087   3.118   2.714   6.801 -0.0261 -0.1465  0.1524
 1091W        W 2088   0.223   5.985   4.821  0.0047  0.0617 -0.3260
 1092W        W 2089   1.472   2.958   6.824  0.0085 -0.2498 -0.1631
 1093W        W 2090   2.293   3.792   3.008  0.2488 -0.2359  0.0832
 1094W        W 2091   6.149   1.776   7.464 -0.0630  0.0259  0.0768
 1095W        W 2092   3.559   3.816   0.591  0.0679 -0.2052 -0.2629
 1096W        W 2093   7.432   4.283   7.472 -0.0058 -0.3064  0.2499
 1097W        W 2094   6.430   7.165   6.912 -0.0429  0.0807  0.2071
 1098W        W 2095   7.269   2.941   3.381  0.1970 -0.0326 -0.0499
 1099W        W 2096   6.201   2.552   2.918 -0.1708  0.1498 -0.1142
 1100W        W 2097   5.492   1.384   3.114  0.0929  0.0834 -0.3134
 1101W        W 2098   4.112   0.143   0.897 -0.4324 -0.2090 -0.1358
 1102W        W 2099   5.488   4.090   4.620  0.0248 -0.0696 -0.0525
 1103W        W 2100   0.108   0.089   1.784 -0.2221  0.1563 -0.1239
 1104W        W 2101   2.942   6.985   2.847  0.0720  0.1600 -0.2088
 1105W        W 2102   1.787   3.921   3.872 -0.2060 -0.2957  0.3933
 1106W        W 2103   7.676   1.232   0.683  0.1029 -0.0884 -0.1132
 1107W        W 2104   0.959   6.986   3.139 -0.0689 -0.1161 -0.0497
 1108W        W 2105   7.608   2.245   6.535  0.1417 -0.0911  0.3177
 1109W        W 2106   7.246   1.082   6.976  0.1443 -0.0078 -0.2332
 1110W        W 2107   1.763   7.580   6.182  0.0735  0.0288  0.0339
 1111W        W 2108   0.584   3.704   3.154  0.0851 -0.2687 -0.0287
 1112W        W 2109   1.938   3.503   2.221  0.0126  0.2674  0.3050
 1113W        W 2110   4.939   1.396   4.439 -0.1805 -0.1544  0.0087
 1114W        W 2111   7.140   6.093   5.194 -0.1641 -0.1096 -0.1205
 1115W        W 2112   7.523   7.633   6.005 -0.0798  0.0249 -0.0770
 1116W        W 2113   7.012   2.036   7.468 -0.2263 -0.0372 -0.0979
 1117W        W 2114   0.496   1.312   4.273 -0.2422  0.0791 -0.5510
 1118W        W 2115   6.843   0.850   2.017 -0.1783  0.1505  0.2191
 1119W        W 2116   6.080   1.539   3.771  0.1580 -0.2007 -0.2632
 1120W        W 2117   1.695   1.345   6.849  0.1659  0.3327 -0.0172
 1121W        W 2118   3.098   1.580   1.448 -0.0938  0.1117  0.1688
 1122W        W 2119   6.846   2.253   6.091  0.0076  0.1955  0.0212
 1123W        W 2120   0.462   1.011   6.806 -0.1360 -0.1679  0.1115
 1124W        W 2121   1.109   1.609   0.408 -0.0580  0.4411 -0.0662
 1125W        W 2122   0.687   5.314   6.796  0.0328  0.1663  0.1980
 1126W        W 2123   5.115   1.511   3.512  0.3112 -0.0353 -0.1308
 1127W        W 2124   6.075   1.648   2.669  0.1508  0.0075 -0.0009
 1128W        W 2125   2.145   7.049   0.252 -0.1129  0.0872 -0.0181
 1129W        W 2126   4.397   1.646   7.683  0.1163 -0.1283  0.3768
 1130W        W 2127   7.436   3.957   6.495  0.1413 -0.0840 -0.0638
 1131W        W 2128   5.262   3.715   6.308  0.3003  0.2366 -0.1343
 1132W        W 2129   3.075   2.653   3.396  0.4642 -0.0522  0.3022
 1133W        W 2130   2.522   6.143   4.204 -0.0143 -0.2692  0.0441
 1134W        W 2131   3.030   3.735   0.517 -0.1272 -0.4500  0.0470
 1135W        W 2132   3.688   3.887   3.189  0.2831  0.0936 -0.2545
 1136W        W 2133   5.019   3.892   5.388  0.1916 -0.0223 -0.0838
 1137W        W 2134   7.563   6.329   6.485 -0.0057 -0.1066  0.2406
 1138W        W 2135   7.504   4.560   2.188 -0.2720 -0.3411  0.2129
 1139W        W 2136   3.746   0.787   6.956 -0.0175  0.2228  0.1348
 1140W        W 2137   0.721   0.317   4.369 -0.2737  0.0375 -0.2605
 1141W        W 2138   1.509   6.595   5.455  0.3532 -0.0109  0.1524
 1142W        W 2139   6.412   0.852   0.864 -0.2385  0.0078  0.0854
 1143W        W 2140   2.628   6.726   1.791 -0.0404  0.0814  0.3430
 1144W        W 2141   3.676   2.563   3.503 -0.2616  0.3270 -0.1202
 1145W        W 2142   2.276   7.001   2.434  0.1009  0.0097 -0.4307
 1146W        W 2143   0.325   4.349   5.741  0.1363  0.1755  0.4238
 1147W        W 2144   7.408   4.377   2.961  0.1137 -0.0611  0.0886
 1148W        W 2145   2.953   5.817   4.394 -0.0403  0.0268  0.0527
 1149W        W 2146   4.098   6.849   6.008  0.0654 -0.1406 -0.1708
 1150W        W 2147   1.605   2.304   2.134  0.0714 -0.3078  0.2364
 1151W        W 2148   4.175   1.514   6.777 -0.1519 -0.1385 -0.3415
 1152W        W 2149   3.004   2.432   4.074 -0.2993  0.2666  0.0394
 1153W        W 2150   2.780   1.861   6.695  0.0159  0.0694 -0.1291
 1154W        W 2151   5.381   3.353   0.556  0.2432 -0.1173  0.2906
 1155W        W 2152   0.799   7.052   2.625  0.3141  0.0712  0.2323
 1156W        W 2153   2.590   6.726   1.299 -0.1199  0.1493 -0.2306
 1157W        W 2154   1.102   0.823   2.145 -0.1713  0.2361 -0.1607
 1158W        W 2155   4.422   2.649   5.595 -0.2219 -0.1032  0.2936
 1159W        W 2156   5.276   3.560   7.406 -0.1598 -0.0829  0.0584
 1160W        W 2157   6.303   7.497   3.512 -0.0063  0.1867 -0.0140
 1161W        W 2158   1.041   7.196   1.760  0.2248 -0.2473 -0.3732
 1162W        W 2159   7.108   6.488   4.259  0.1296 -0.1798 -0.0948
 1163W        W 2160   4.659   7.653   4.348  0.3601  0.0453  0.2419
 1164W        W 2161   1.566   3.215   2.412 -0.2847  0.1003  0.0416
 1165W        W 2162   0.364   2.436   6.715  0.2100 -0.0446  0.0738
 1166W        W 2163   5.119   0.146   4.498 -0.0392 -0.2711  0.2510
 1167W        W 2164   3.957   3.455   2.044  0.3475 -0.1147  0.2487
 1168W        W 2165   2.120   5.856   4.373  0.0447  0.1097 -0.3818
 1169W        W 2166   5.036   1.185   3.898  0.2711  0.1218 -0.2076
 1170W        W 2167   2.148   4.213   6.172  0.1168 -0.0151 -0.1034
 1171W        W 2168   5.724   3.457   7.173 -0.1617  0.0404  0.0759
 1172W        W 2169   3.512   7.203   6.897  0.1529  0.3140  0.0931
 1173W        W 2170   4.267   2.687   0.446 -0.0806  0.2952  0.1912
 1174W        W 2171   6.959   1.236   0.773 -0.0729 -0.1321 -0.1692
 1175W        W 2172   4.616   7.190   5.500  0.1612 -0.4063  0.0338
 1176W        W 2173   6.102   1.391   4.317 -0.0248 -0.0868 -0.0198
 1177W        W 2174   1.012   7.205   1.276 -0.0313  0.1811 -0.1097
 1178W        W 2175   0.736   5.473   4.576 -0.0741 -0.1345  0.0253
 1179W        W 2176   7.498   4.874   1.097  0.1167 -0.0567 -0.0769
 1180W        W 2177   6.844   1.904   2.681 -0.0476  0.1031 -0.0607
 1181W        W 2178   6.391   2.409   6.775 -0.3113 -0.0396  0.0385
 1182W        W 2179   0.674   0.050   7.059 -0.2789  0.0510  0.0313
 1183W        W 2180   0.194   0.275   5.197 -0.0195  0.3268 -0.0318
 1184W        W 2181   1.140   0.970   3.391 -0.0798 -0.2660  0.2560
 1185W        W 2182   0.608   0.728   2.380  0.2642 -0.1000 -0.3210
 1186W        W 2183   0.172   0.044   0.789  0.1735 -0.0941  0.4054
 1187W        W 2184   3.670   4.131   4.112 -0.1275 -0.0166 -0.1479
 1188W        W 2185   0.784   2.411   3.191 -0.0520  0.2411 -0.0083
 1189W        W 2186   6.951   4.335   2.117  0.2683 -0.2794 -0.2979
 1190W        W 2187   3.884   1.335   1.978  0.0495 -0.0530 -0.2014
 1191W        W 2188   0.823   6.509   7.004 -0.0195 -0.3254 -0.0572
 1192W        W 2189   2.707   6.002   6.434  0.3343 -0.0290  0.1464
 1193W        W 2190   1.101   5.879   1.254 -0.3185 -0.1627  0.1023
 1194W        W 2191   3.482   6.347   0.303 -0.1845  0.0821  0.0777
 1195W        W 2192   5.002   4.387   4.580  0.4101  0.1784  0.1006
 1196W        W 2193   2.893   1.701   4.527 -0.0642  0.0448 -0.2046
 1197W        W 2194   1.238   4.875   0.725 -0.3676 -0.0953 -0.3822
 1198W        W 2195   0.176   2.499   2.343 -0.1060 -0.0104  0.1992
 1199W        W 2196   1.016   0.217   5.794 -0.1474  0.1077  0.0820
 1200W        W 2197   6.714   2.094   6.623 -0.3239 -0.0240  0.0735
 1201W        W 2198   7.284   1.803   3.135 -0.0009 -0.0485 -0.0147
 1202W        W 2199   3.582   1.414   5.562 -0.1749 -0.0750 -0.1648
 1203W        W 2200   3.441   0.493   5.768  0.0447  0.0289  0.1463
 1204W        W 2201   1.115   6.391   1.833  0.0805 -0.0373  0.1587
 1205W        W 2202   1.714   4.849   1.904 -0.1025 -0.0226  0.1307
 1206W        W 2203   1.159   7.471   0.890  0.0916  0.0273  0.3207
 1207W        W 2204   6.702   5.962   5.926 -0.2396 -0.2408 -0.2675
 1208W        W 2205   7.103   3.291   4.023  0.0791  0.0850  0.3462
 1209W        W 2206   1.310   2.854   4.934 -0.0681 -0.0095 -0.1102
 1210W        W 2207   1.865   1.230   2.400  0.2477  0.1137 -0.0889
 1211W        W 2208   2.608   7.137   4.158 -0.2436  0.0484  0.1423
 1212W        W 2209   7.244   0.298   3.517 -0.1282 -0.0008  0.0038
 1213W        W 2210   6.624   2.850   6.931 -0.1344  0.2661 -0.0338
 1214W        W 2211   3.334   5.485   3.477 -0.1391 -0.2401  0.0152
 1215W        W 2212   7.511   0.081   4.941  0.3323  0.2786  0.0675
 1216W        W 2213   1.409   4.875   1.381 -0.0929 -0.1274 -0.1395
 1217W        W 2214   1.077   4.855   4.785 -0.1754 -0.1765  0.2164
 1218W        W 2215   4.692   0.653   0.825  0.0157  0.2409 -0.3792
 1219W        W 2216   1.608   4.403   3.775 -0.0137 -0.0173 -0.0725
 1220W        W 2217   1.455   1.507   4.655  0.0610  0.1327 -0.1536
 1221W        W 2218   2.652   5.737   1.275  0.2421  0.1127  0.1344
 1222W        W 2219   3.487   4.949   1.089  0.2090  0.0915  0.1527
 1223W        W 2220   1.562   6.504   4.611 -0.0764 -0.3884 -0.0209
 1224W        W 2221   3.691   3.311   1.546 -0.1405 -0.1524  0.1239
 1225W        W 2222   2.180   4.922   0.389  0.2552  0.4159  0.0031
 1226W        W 2223   2.977   0.208   6.726  0.1142 -0.1133 -0.2101
 1227W        W 2224   2.064   2.838   3.842 -0.2445 -0.0464  0.2132
 1228W        W 2225   4.018   2.857   3.238  0.3005  0.0084 -0.0166
 1229W        W 2226   7.198   4.485   1.736 -0.2994  0.0074 -0.0092
 1230W        W 2227   5.212   2.612   0.526 -0.0550 -0.0897  0.2696
 1231W        W 2228   3.300   2.342   0.296  0.0303 -0.1651  0.0645
 1232W        W 2229   5.174   0.655   3.771  0.3911 -0.0361 -0.1749
 1233W        W 2230   0.917   3.038   6.150 -0.0236  0.0284 -0.0146
 1234W        W 2231   3.712   0.087   5.244  0.0497 -0.0460 -0.0446
 1235W        W 2232   6.801   0.876   1.179 -0.0641  0.1362 -0.2533
 1236W        W 2233   0.345   4.751   6.607 -0.0490  0.0596 -0.0126
 1237W        W 2234   6.932   2.536   1.223 -0.1352  0.1396  0.1595
 1238W        W 2235   2.830   6.633   3.251 -0.2273 -0.2694  0.1966
 1239W        W 2236   5.558   0.865   6.624  0.3467 -0.1760 -0.1099
 1240W        W 2237   1.722   3.472   6.332 -0.1243 -0.0314  0.1616
 1241W        W 2238   1.240   0.157   4.175 -0.2146 -0.0218  0.0373
 1242W        W 2239   0.513   4.362   1.015  0.3217 -0.1279 -0.1891
 1243W        W 2240   3.545   2.334   5.589  0.0820 -0.0362 -0.0585
 1244W        W 2241   1.304   2.357   2.812 -0.0794 -0.1158  0.1040
 1245W        W 2242   0.662   5.616   3.631 -0.1157  0.0750  0.1457
 1246W        W 2243   5.181   3.333   2.969 -0.0461 -0.0351 -0.0394
 1247W        W 2244   0.685   3.060   3.714 -0.1848  0.1439  0.2216
 1248W        W 2245   7.576   7.514   6.485 -0.0757  0.3530 -0.0792
 1249W        W 2246   0.741   5.363   1.488  0.1892 -0.1607 -0.0424
 1250W        W 2247   3.566   1.260   1.561 -0.2891  0.0227 -0.0399
 1251W        W 2248   0.195   6.186   2.020  0.0270 -0.1921 -0.1821
 1252W        W 2249   4.316   0.127   5.966  0.2020  0.1242 -0.2052
 1253W        W 2250   0.472   7.131   3.390  0.1418 -0.1755 -0.0648
 1254W        W 2251   0.786   1.143   1.283  0.0341 -0.3120  0.1182
 1255W        W 2252   3.783   7.503   1.096 -0.0601  0.0601  0.1230
 1256W        W 2253   0.527   4.955   4.502  0.1572  0.2916 -0.1189
 1257W        W 2254   0.656   2.544   7.099  0.0304 -0.3304 -0.1819
 1258W        W 2255   3.104   4.981   6.017 -0.2346 -0.0060  0.1226
 1259W        W 2256   2.195   3.920   0.757 -0.3617 -0.0387  0.2709
 1260W        W 2257   3.170   6.280   4.211 -0.3350 -0.0725 -0.0103
 1261W        W 2258   2.876   7.545   3.963  0.2382 -0.0098  0.0193
 1262W        W 2259   1.738   4.358   5.834  0.1602 -0.0851  0.0263
 1263W        W 2260   1.474   0.540   5.046 -0.0716  0.0329 -0.4562
 1264W        W 2261   0.727   0.187   0.187  0.0941 -0.2112  0.1264
 1265W        W 2262   4.712   2.063   0.218 -0.2091  0.1125  0.0240
 1266W        W 2263   2.786   0.203   0.032  0.0703 -0.1886  0.1756
 1267W        W 2264   0.135   7.596   2.245 -0.1181  0.2635 -0.0260
 1268W        W 2265   2.749   2.073   3.685  0.0943 -0.1696  0.0161
 1269W        W 2266   3.768   2.554   2.045  0.0688 -0.1939  0.1772
 1270W        W 2267   1.922   2.500   7.568 -0.1246 -0.1356 -0.0985
 1271W        W 2268   1.073   2.401   7.393  0.2879 -0.2396  0.0198
 1272W        W 2269   5.047   7.383   4.288 -0.0983  0.2333  0.0869
 1273W        W 2270   3.538   3.495   6.565  0.0814  0.1789 -0.1376
 1274W        W 2271   5.763   2.866   6.147 -0.1823  0.0592 -0.2034
 1275W        W 2272   3.640   0.419   3.150  0.0956  0.2123  0.1733
 1276W        W 2273   4.741   3.483   5.719 -0.0494  0.0593  0.0794
 1277W        W 2274   6.942   1.435   1.847 -0.2146  0.2998 -0.0815
 1278W        W 2275   3.392   3.635   4.711 -0.0526  0.1989  0.1838
 1279W        W 2276   2.932   3.695   1.058  0.0249 -0.1093  0.1207
 1280W        W 2277   7.012   3.820   4.177  0.0510 -0.1587 -0.3334
 1281W        W 2278   6.942   3.722   5.677 -0.0702  0.2309  0.1950
 1282W        W 2279   2.433   7.144   2.934 -0.0850  0.1017  0.1898
 1283W        W 2280   4.101   4.116   2.897  0.3015  0.3438  0.2539
 1284W        W 2281   2.773   6.911   5.591  0.1983 -0.0015 -0.0304
 1285W        W 2282   7.467   0.211   1.418  0.3532 -0.0655 -0.1517
 1286W        W 2283   3.890   5.477   6.936  0.0463  0.1916 -0.1260
 1287W        W 2284   3.868   2.893   0.209  0.0742 -0.1219 -0.0362
 1288W        W 2285   2.099   5.395   2.896  0.0282 -0.2035  0.0583
 1289W        W 2286   4.036   3.268   6.719  0.3079  0.3607  0.0137
 1290W        W 2287   7.166   6.654   6.414 -0.1389  0.0114  0.1490
 1291W        W 2288   2.300   4.673   5.020  0.0059 -0.1288 -0.1542
 1292W        W 2289   5.893   3.915   5.003 -0.0594  0.2263  0.1580
 1293W        W 2290   7.660   5.061   2.199  0.1449 -0.0214  0.1937
 1294W        W 2291   1.897   0.789   4.269  0.2616  0.2586 -0.0705
 1295W        W 2292   4.747   4.026   6.685 -0.1390 -0.4429  0.0207
 1296W        W 2293   1.079   3.575   0.905  0.0859 -0.1793 -0.1395
 1297W        W 2294   0.627   3.353   4.103  0.0274 -0.0604  0.0053
 1298W        W 2295   5.650   2.445   2.325  0.0056 -0.0094  0.2212
 1299W        W 2296   1.803   3.092   0.866  0.1299  0.3552  0.0872
 1300W        W 2297   1.817   2.317   3.219  0.0471  0.0109 -0.0377
 1301W        W 2298   7.070   4.165   5.565 -0.1510 -0.0147 -0.2452
 1302W        W 2299   4.875   2.287   5.958  0.1436  0.2690 -0.0786
 1303W        W 2300   7.435   4.667   4.750 -0.1147 -0.0727  0.1543
 1304W        W 2301   6.973   3.695   6.371  0.0769  0.1032 -0.1012
 1305W        W 2302   0.140   0.907   0.328  0.0915  0.0455  0.1390
 1306W        W 2303   3.817   2.745   6.360  0.0021 -0.0567 -0.1114
 1307W        W 2304   6.007   0.169   2.601  0.2191 -0.0686 -0.0017
 1308W        W 2305   1.435   6.950   4.733  0.0204  0.1473  0.0502
 1309W        W 2306   0.398   2.803   4.168  0.0477 -0.2182 -0.2442
 1310W        W 2307   1.344   2.347   5.054 -0.0862 -0.1120  0.1252
 1311W        W 2308   2.906   6.203   2.960 -0.2165 -0.2092 -0.1149
 1312W        W 2309   4.499   1.648   2.093  0.2029  0.0418 -0.0450
 1313W        W 2310   4.670   0.994   2.062 -0.1521 -0.2147  0.0879
 1314W        W 2311   4.957   0.543   4.717 -0.0883 -0.0300 -0.0514
 1315W        W 2312   7.676   3.235   5.309  0.0417 -0.0392 -0.1011
 1316W        W 2313   5.105   2.559   4.626 -0.2001 -0.0661 -0.0638
 1317W        W 2314   0.319   6.456   6.765  0.0587 -0.2120 -0.2322
 1318W        W 2315   7.158   3.866   5.160  0.1434  0.0417 -0.2118
 1319W        W 2316   7.174   0.827   3.311  0.1680 -0.0866  0.1980
 1320W        W 2317   7.423   6.941   1.074 -0.0381 -0.1552  0.1653
 1321W        W 2318   0.476   7.363   1.671 -0.1862  0.1599 -0.0611
 1322W        W 2319   5.813   2.553   7.046 -0.4882  0.1976  0.2891
 1323W        W 2320   1.241   4.497   5.932 -0.0391  0.1368  0.3892
 1324W        W 2321   6.992   4.793   0.883 -0.1320  0.0004 -0.4067
 1325W        W 2322   7.574   6.507   1.144 -0.0128 -0.0317  0.0288
 1326W        W 2323   5.989   1.289   1.006  0.3524 -0.3993 -0.3369
 1327W        W 2324   2.111   7.275   4.272  0.0600  0.0032 -0.0787
 1328W        W 2325   2.927   7.416   4.773  0.0237  0.0084  0.0833
 1329W        W 2326   2.213   3.470   0.903  0.0369 -0.1517 -0.2120
 1330W        W 2327   4.840   2.845   1.246  0.1153  0.2278 -0.4960
 1331W        W 2328   7.209   3.007   5.270  0.0702 -0.2667  0.2553
 1332W        W 2329   7.088   7.553   0.848 -0.4195 -0.2195  0.0265
 1333W        W 2330   2.791   7.105   0.222 -0.1410 -0.0500  0.0412
 1334W        W 2331   6.789   1.192   5.687  0.2602 -0.0589  0.0767
 1335W        W 2332   0.888   4.757   1.696 -0.0472  0.0519 -0.0880
 1336W        W 2333   7.455   5.259   5.436  0.0812  0.0739  0.0717
 1337W        W 2334   3.577   2.384   4.038 -0.1325 -0.1285 -0.0671
 1338W        W 2335   1.061   0.232   4.802 -0.4983  0.2796  0.4410
 1339W        W 2336   1.198   6.633   5.037 -0.2297 -0.0512  0.1569
 1340W        W 2337   2.057   0.201   7.507 -0.0593 -0.1347  0.0665
 1341W        W 2338   7.439   0.237   6.671  0.2121  0.1860 -0.2017
 1342W        W 2339   2.493   2.751   4.910  0.1618  0.3481  0.3903
 1343W        W 2340   2.627   6.603   5.937  0.2949  0.1008  0.3456
 1344W        W 2341   7.110   1.409   5.390  0.0763 -0.1965 -0.2634
 1345W        W 2342   3.560   5.173   1.557 -0.2421  0.3916 -0.0116
 1346W        W 2343   3.877   2.668   4.316  0.1761 -0.1025  0.0290
 1347W        W 2344   4.431   0.689   2.573  0.0807  0.4090  0.2468
 1348W        W 2345   0.594   0.454   5.955 -0.1105 -0.2556 -0.2587
 1349W        W 2346   0.385   2.906   0.972 -0.1398  0.1151 -0.3718
 1350W        W 2347   4.137   0.637   3.033 -0.0809 -0.1085 -0.3886
 1351W        W 2348   1.014   0.494   6.227  0.2285 -0.5143 -0.2042
 1352W        W 2349   1.514   2.669   0.658  0.0999  0.1429  0.2286
 1353W        W 2350   0.316   5.594   6.271  0.1396  0.1184 -0.0600
 1354W        W 2351   0.715   1.258   3.515 -0.0060  0.0175  0.0254
 1355W        W 2352   6.777   3.640   4.828  0.4226  0.0371 -0.0544
 1356W        W 2353   2.685   5.288   5.794 -0.0431 -0.1785  0.0585
 1357W        W 2354   3.132   1.182   4.302 -0.2666 -0.1309  0.1281
 1358W        W 2355   3.216   6.615   2.734 -0.0178  0.1851  0.2088
 1359W        W 2356   2.959   2.061   2.760  0.1663  0.2599 -0.2613
 1360W        W 2357   0.874   0.725   6.767 -0.0285 -0.5351 -0.1379
 1361W        W 2358   5.361   1.627   6.077 -0.0769 -0.5401 -0.1461
 1362W        W 2359   2.533   2.484   0.627 -0.2445  0.2640  0.0507
 1363W        W 2360   5.500   3.653   1.929  0.0713  0.0340 -0.1098
 1364W        W 2361   7.120   1.001   4.295  0.1356  0.0515 -0.2997
 1365W        W 2362   7.091   6.356   2.366  0.0362 -0.2642 -0.1817
 1366W        W 2363   7.381   6.850   4.102  0.2493  0.0146 -0.1814
 1367W        W 2364   2.150   3.961   1.588  0.3374  0.0366 -0.1251
 1368W        W 2365   7.099   6.108   2.856  0.0393  0.4174 -0.0415
 1369W        W 2366   3.359   2.235   3.066 -0.1037 -0.1042  0.1059
 1370W        W 2367   1.217   3.528   5.845 -0.0860 -0.0411  0.2992
 1371W        W 2368   6.637   7.134   3.461 -0.0475 -0.0584  0.1002
 1372W        W 2369   0.518   5.154   3.578 -0.0988  0.2123 -0.2665
 1373W        W 2370   2.467   7.633   2.202  0.1344  0.1444 -0.2882
 1374W        W 2371   4.180   3.372   3.280  0.1823 -0.1814 -0.0567
 1375W        W 2372   0.966   5.410   1.990 -0.0626 -0.1046 -0.1926
 1376W        W 2373   6.457   2.967   4.445 -0.3066 -0.3990 -0.0161
 1377W        W 2374   3.596   1.936   5.312 -0.3138  0.0817  0.4649
 1378W        W 2375   7.011   3.045   1.352  0.0870 -0.0890 -0.1051
 1379W        W 2376   0.251   4.029   4.693 -0.0265  0.0582  0.0391
 1380W        W 2377   2.250   4.833   3.011 -0.1719  0.0628  0.1009
 1381W        W 2378   0.287   5.947   3.917  0.0629  0.0112 -0.1613
 1382W        W 2379   4.672   4.600   6.560  0.2716  0.1244  0.0443
 1383W        W 2380   6.292   2.149   6.311  0.2097 -0.5801 -0.2391
 1384W        W 2381   7.543   6.216   4.477  0.2008  0.2663  0.0985
 1385W        W 2382   1.871   5.044   3.221  0.3787 -0.2083 -0.0592
 1386W        W 2383   6.678   4.407   5.669 -0.0973 -0.0863  0.0261
 1387W        W 2384   3.344   7.681   5.993  0.0275 -0.0352  0.0548
 1388W        W 2385   4.516   0.393   4.445 -0.1703 -0.0639  0.0850
 1389W        W 2386   2.031   6.593   2.390 -0.0118  0.1202 -0.0561
 1390W        W 2387   4.631   7.267   3.779 -0.1262 -0.3378 -0.0969
 1391W        W 2388   7.316   7.686   1.920 -0.0383 -0.0689 -0.0708
 1392W        W 2389   3.435   4.555   0.787 -0.2745  0.1135  0.1445
 1393W        W 2390   4.005   1.950   4.948 -0.0951 -0.0708  0.2751
 1394W        W 2391   7.454   4.093   3.355  0.1499  0.2844  0.0817
 1395W        W 2392   6.671   2.394   2.667 -0.0066 -0.1350 -0.2964
 1396W        W 2393   3.683   4.883   2.798 -0.1024  0.2627  0.2539
 1397W        W 2394   4.206   7.422   3.577 -0.1231  0.0504  0.0514
 1398W        W 2395   4.010   6.986   2.042 -0.3299 -0.1876  0.0586
 1399W        W 2396   2.351   2.586   7.263  0.0045  0.1708 -0.1868
 1400W        W 2397   1.347   5.445   1.515  0.0087  0.2474 -0.4320
 1401W        W 2398   1.050   1.652   0.951  0.1799  0.0829 -0.1924
 1402W        W 2399   5.347   0.001   4.985 -0.2539 -0.1007 -0.1999
 1403W        W 2400   5.465   3.733   5.376  0.0409  0.1099  0.0108
 1404W        W 2401   4.142   1.504   0.373 -0.0154  0.0485  0.0072
 1405W        W 2402   0.495   5.675   5.485 -0.0448  0.0863 -0.1862
 1406W        W 2403   3.012   3.154   4.805 -0.1199  0.4939  0.3190
 1407W        W 2404   3.377   3.458   0.248 -0.1258  0.1138  0.0247
 1408W        W 2405   2.083   0.312   4.041  0.1353 -0.1311 -0.6762
 1409W        W 2406   4.188   4.766   5.887  0.2410 -0.0370 -0.1872
 1410W        W 2407   3.069   7.224   4.335 -0.0417  0.0143  0.2574
 1411W        W 2408   2.466   5.521   6.204  0.0748  0.5852 -0.0676
 1412W        W 2409   5.990   4.128   7.324 -0.3156  0.1572 -0.1733
 1413W        W 2410   1.615   7.108   4.257  0.0290 -0.0861  0.2464
 1414W        W 2411   4.113   0.604   6.189  0.2665 -0.4618 -0.0814
 1415W        W 2412   7.607   4.998   3.703  0.1132 -0.1760  0.3384
 1416W        W 2413   3.360   3.690   1.446 -0.0187  0.0234  0.1889
 1417W        W 2414   2.612   3.017   0.636  0.1983 -0.0056  0.0783
 1418W        W 2415   7.612   2.264   0.669  0.3266 -0.1795  0.0833
 1419W        W 2416   1.542   3.808   0.248  0.0419 -0.1368 -0.1706
 1420W        W 2417   6.872   3.219   3.612 -0.0973  0.2388 -0.0607
 1421W        W 2418   4.505   1.455   1.310  0.1139  0.0573  0.1228
 1422W        W 2419   1.433   2.898   1.236 -0.1486  0.3543 -0.2149
 1423W        W 2420   7.041   1.636   7.186  0.2750 -0.1327 -0.3734
 1424W        W 2421   7.212   6.825   5.839 -0.3686  0.1317 -0.2327
 1425W        W 2422   1.495   0.105   3.747 -0.1662  0.2089  0.1288
 1426W        W 2423   4.613   0.119   0.128 -0.0359  0.1589  0.2713
 1427W        W 2424   2.608   3.254   4.998 -0.2570  0.1205 -0.0652
 1428W        W 2425   0.827   6.615   5.437  0.0980 -0.2519 -0.0707
 1429W        W 2426   0.473   3.560   0.597 -0.2117  0.1624  0.1140
 1430W        W 2427   3.308   0.620   6.666 -0.1943 -0.3105  0.1017
 1431W        W 2428   1.753   3.358   5.858 -0.1849 -0.0471 -0.2032
 1432W        W 2429   5.537   4.002   7.558 -0.0398 -0.4167 -0.0998
 1433W        W 2430   5.844   3.113   3.725  0.2739  0.0487  0.3843
 1434W        W 2431   5.379   3.313   3.792  0.1567 -0.1145 -0.0092
 1435W        W 2432   6.729   6.879   6.646  0.2157  0.0637 -0.0415
 1436W        W 2433   4.158   1.756   4.001 -0.2025  0.0489 -0.1422
 1437W        W 2434   2.312   7.231   6.994  0.0565  0.2305  0.2154
 1438W        W 2435   3.419   1.819   6.322 -0.3021 -0.1125 -0.1613
 1439W        W 2436   2.849   4.453   7.458  0.4623 -0.1702  0.0444
 1440W        W 2437   5.103   1.215   5.239 -0.1449  0.0079  0.0757
 1441W        W 2438   5.560   0.421   4.732 -0.1285 -0.2339  0.0318
 1442W        W 2439   7.394   5.496   6.719 -0.0925 -0.0054 -0.3538
 1443W        W 2440   0.999   7.582   5.395  0.1858  0.1175 -0.2912
 1444W        W 2441   2.727   0.237   1.759 -0.1530  0.2836 -0.0947
 1445W        W 2442   6.359   3.971   4.828 -0.0359  0.0760 -0.0016
 1446W        W 2443   1.083   0.944   0.066  0.0692  0.2534  0.1068
 1447W        W 2444   1.368   3.267   0.042 -0.3460 -0.3402 -0.0511
 1448W        W 2445   5.455   2.122   3.819 -0.0197  0.1088  0.0950
 1449W        W 2446   5.055   4.262   7.454 -0.0454  0.5480  0.1920
 1450W        W 2447   0.200   6.697   6.299 -0.0916  0.0708 -0.1824
 1451W        W 2448   1.515   0.993   4.909  0.1711 -0.2937  0.0924
 1452W        W 2449   3.206   3.631   4.251 -0.0269  0.1918 -0.2256
 1453W        W 2450   4.443   0.305   0.586 -0.0591 -0.2154  0.2845
 1454W        W 2451   0.270   3.923   0.924 -0.0627  0.2877 -0.0767
 1455W        W 2452   4.256   4.351   6.176 -0.1174  0.1263 -0.0288
 1456W        W 2453   1.423   2.213   1.591 -0.0698 -0.1711 -0.0079
 1457W        W 2454   3.967   0.399   1.695  0.0642 -0.0341  0.1825
 1458W        W 2455   3.259   0.654   7.663 -0.0685  0.3606 -0.4241
 1459W        W 2456   1.586   3.466   4.084  0.2361 -0.0524 -0.3254
 1460W        W 2457   1.772   3.914   1.290  0.1298 -0.0144 -0.0171
 1461W        W 2458   6.704   1.413   4.426 -0.0764 -0.1553 -0.0873
 1462W        W 2459   1.946   1.659   5.298  0.1121  0.2006  0.1301
 1463W        W 2460   7.591   2.967   1.215 -0.1794  0.2138 -0.1205
 1464W        W 2461   0.019   2.061   1.081  0.0197  0.0612 -0.0064
 1465W        W 2462   1.830   2.604   1.048 -0.4895  0.0921 -0.1196
 1466W        W 2463   5.855   1.716   1.845 -0.0981  0.0366 -0.0540
 1467W        W 2464   7.409   4.053   2.037  0.1091 -0.2147 -0.1581
 1468W        W 2465   7.068   3.724   3.684  0.0413  0.0667 -0.3015
 1469W        W 2466   1.021   1.779   6.738 -0.1694 -0.3773 -0.0962
 1470W        W 2467   2.203   0.256   1.759 -0.1037  0.0358  0.3994
 1471W        W 2468   7.235   7.008   1.541 -0.3398 -0.1579 -0.2448
 1472W        W 2469   5.452   3.627   1.011  0.0101 -0.2613 -0.0552
 1473W        W 2470   3.581   1.173   4.586 -0.0842  0.3001 -0.1074
 1474W        W 2471   7.500   1.864   7.310  0.0655 -0.0121 -0.1463
 1475W        W 2472   0.318   1.437   0.382 -0.2723 -0.1372 -0.1108
 1476W        W 2473   0.520   6.207   3.577  0.2132  0.1973  0.0742
 1477W        W 2474   2.866   4.324   2.814  0.1276 -0.0757  0.2927
 1478W        W 2475   1.724   1.136   7.284 -0.2158  0.0236  0.2607
 1479W        W 2476   4.454   0.367   3.907  0.0546 -0.4023  0.0748
 1480W        W 2477   2.450   5.671   5.030 -0.0082 -0.1211  0.2827
 1481W        W 2478   0.965   5.394   5.318 -0.0326  0.0229  0.0990
 1482W        W 2479   5.835   4.262   5.894 -0.3870  0.3076 -0.2738
 1483W        W 2480   5.117   3.853   0.702 -0.0856 -0.1751 -0.1193
 1484W        W 2481   3.243   2.759   0.654 -0.3202 -0.1770 -0.0060
 1485W        W 2482   5.620   2.478   7.570 -0.0576  0.0837 -0.0804
 1486W        W 2483   7.385   6.460   0.224 -0.2095 -0.0135 -0.0604
 1487W        W 2484   2.640   0.036   1.106  0.0477  0.1475 -0.0099
 1488W        W 2485   0.553   0.593   4.941 -0.2268  0.2011 -0.1378
 1489W        W 2486   4.093   4.057   5.300  0.3875 -0.0221  0.1254
 1490W        W 2487   2.286   3.672   7.590 -0.3847 -0.0313  0.1348
 1491W        W 2488   2.957   4.392   2.319  0.0702  0.0967 -0.0626
 1492W        W 2489   5.653   4.616   6.152  0.0185 -0.2702 -0.1587
 1493W        W 2490   1.918   1.178   0.469 -0.2422 -0.0587 -0.0554
 1494W        W 2491   2.033   0.724   7.302  0.0858  0.0103 -0.2497
 1495W        W 2492   3.694   7.365   2.890 -0.1213 -0.2068 -0.0120
 1496W        W 2493   2.973   4.407   4.729  0.1050  0.1127  0.1414
 1497W        W 2494   4.038   1.016   2.674  0.2430  0.2536 -0.4485
 1498W        W 2495   0.831   6.713   1.089  0.2174  0.4136 -0.1222
 1499W        W 2496   7.653   6.360   6.007  0.1208  0.0145  0.0553
 1500W        W 2497   2.940   2.806   5.168  0.0907  0.0940 -0.1306
 1501W        W 2498   3.252   7.042   4.857  0.0392 -0.1226  0.2787
 1502W        W 2499   0.476   1.401   3.047 -0.1717 -0.2953  0.0492
 1503W        W 2500   4.688   2.594   0.799  0.0090 -0.0607 -0.1464
 1504W        W 2501   5.512   1.433   5.189 -0.1771 -0.1090 -0.0172
 1505W        W 2502   6.092   2.507   1.427 -0.3068  0.1027 -0.0361
 1506W        W 2503   0.066   7.494   4.583 -0.0867  0.0457 -0.0485
 1507W        W 2504   4.298   2.704   5.107  0.2424 -0.0495  0.0758
 1508W        W 2505   1.232   3.657   6.342  0.1822  0.1545 -0.4730
 1509W        W 2506   3.944   5.938   7.307  0.0865  0.2177 -0.0692
 1510W        W 2507   5.226   2.494   2.074 -0.1507  0.1750  0.0971
 1511W        W 2508   0.841   7.535   4.236 -0.0026 -0.1821 -0.0942
 1512W        W 2509   2.982   4.507   0.640 -0.1686 -0.4655 -0.1057
 1513W        W 2510   6.994   2.519   7.634 -0.0152  0.2978  0.1504
 1514W        W 2511   1.598   3.344   3.150  0.0832 -0.2159  0.4850
 1515W        W 2512   3.371   6.742   7.004  0.1592  0.0509 -0.1526
 1516W        W 2513   0.389   1.785   3.462  0.1670  0.1855  0.0866
 1517W        W 2514   6.920   7.290   6.995 -0.0459  0.2299 -0.1303
 1518W        W 2515   1.263   4.601   1.954  0.2103 -0.1162  0.2886
 1519W        W 2516   1.692   6.490   0.862 -0.0379  0.0744  0.1998
 1520W        W 2517   6.699   2.721   6.470  0.0111  0.1170 -0.1298
 1521W        W 2518   1.905   4.216   3.342  0.1241  0.3772  0.1071
 1522W        W 2519   3.484   6.221   7.151 -0.0847 -0.2678  0.1018
 1523W        W 2520   4.352   4.359   5.683  0.0672 -0.2098 -0.1695
 1524W        W 2521   6.100   0.570   0.317 -0.0388  0.1986 -0.2843
 1525W        W 2522   1.759   7.636   0.759  0.2675 -0.3054  0.1433
 1526W        W 2523   1.705   1.604   3.924 -0.1441  0.1126 -0.2530
 1527W        W 2524   7.484   7.481   0.559 -0.0731 -0.1882 -0.0236
 1528W        W 2525   0.286   0.041   4.195  0.1974 -0.1781 -0.0988
 1529W        W 2526   2.954   0.170   3.343  0.0283  0.3457  0.1402
 1530W        W 2527   3.195   5.369   0.942 -0.0063  0.2128  0.3535
 1531W        W 2528   0.615   3.251   7.446  0.2455  0.3442 -0.1494
 1532W        W 2529   4.999   3.338   4.684 -0.0355  0.1886  0.3661
 1533W        W 2530   2.800   6.605   4.165  0.2600 -0.1404 -0.0842
 1534W        W 2531   3.515   1.883   4.730 -0.0112  0.0687  0.0199
 1535W        W 2532   0.830   5.963   4.578  0.3805 -0.2018  0.1820
 1536W        W 2533   3.494   2.338   1.707 -0.0411  0.1756 -0.2680
 1537W        W 2534   2.224   2.103   7.259 -0.2554  0.0910 -0.1802
 1538W        W 2535   7.091   0.392   0.417  0.0807 -0.0241 -0.0844
 1539W        W 2536   2.672   6.170   0.596  0.0193  0.0877 -0.1921
 1540W        W 2537   3.315   4.519   4.053  0.1492 -0.1041 -0.1474
 1541W        W 2538   4.227   0.310   3.385  0.2239 -0.1101  0.0799
 1542W        W 2539   1.698   4.822   0.984 -0.1152  0.2806 -0.0888
 1543W        W 2540   2.986   5.750   3.109  0.1215  0.3041  0.2611
 1544W        W 2541   1.293   4.155   5.562 -0.0784 -0.0914 -0.3901
 1545W        W 2542   1.373   0.890   5.398  0.0357  0.1836 -0.2735
 1546W        W 2543   7.539   7.431   6.985  0.1261  0.0693 -0.1145
 1547W        W 2544   4.272   3.487   2.430  0.1659 -0.2261  0.2345
 1548W        W 2545   1.749   7.387   4.691 -0.2904  0.4610 -0.0531
 1549W        W 2546   0.175   3.136   6.588  0.2751  0.2853 -0.3901
 1550W        W 2547   1.087   3.136   2.229 -0.0287 -0.1611 -0.0797
 1551W        W 2548   3.960   2.269   7.135  0.2788  0.3438 -0.1289
 1552W        W 2549   0.660   2.548   1.186 -0.0634  0.0641  0.2274
 1553W        W 2550   0.588   2.789   7.588 -0.0436 -0.0846 -0.0432
 1554W        W 2551   2.553   4.701   2.163  0.0363  0.1262 -0.0406
 1555W        W 2552   0.328   6.205   1.141 -0.0247 -0.0151 -0.3106
 1556W        W 2553   7.470   5.659   3.371  0.0940  0.3341  0.0208
 1557W        W 2554   1.371   1.816   5.070  0.0648  0.0743  0.0694
 1558W        W 2555   7.263   7.394   5.158 -0.1903 -0.2475 -0.0857
 1559W        W 2556   2.847   6.277   2.019 -0.0139 -0.1258 -0.4061
 1560W        W 2557   3.768   7.636   3.355 -0.1164 -0.4823 -0.0039
 1561W        W 2558   6.484   1.953   5.363  0.0850 -0.0155 -0.3862
 1562W        W 2559   0.673   0.991   1.947  0.3024  0.2176 -0.1015
 1563W        W 2560   7.536   4.123   5.403  0.1387 -0.1023 -0.2222
 1564W        W 2561   6.661   3.439   2.412 -0.1252 -0.0427 -0.2365
 1565W        W 2562   2.302   0.785   6.847 -0.0165 -0.1481  0.1803
 1566W        W 2563   0.327   6.118   6.315  0.3336 -0.0625 -0.0728
 1567W        W 2564   1.640   1.239   3.402  0.0382  0.0714 -0.0456
 1568W        W 2565   7.143   4.381   5.134 -0.2836 -0.0490  0.0139
 1569W        W 2566   3.167   4.012   2.578 -0.0412 -0.1140 -0.1418
 1570W        W 2567   5.552   3.318   6.226 -0.0726  0.0624  0.2674
 1571W        W 2568   5.504   3.115   3.350  0.2947  0.0310  0.1160
 1572W        W 2569   7.641   2.730   6.349 -0.0828 -0.1803 -0.0162
 1573W        W 2570   2.295   6.972   5.851 -0.0528  0.0093  0.2902
 1574W        W 2571   2.258   3.171   5.842  0.2969 -0.1742 -0.0131
 1575W        W 2572   3.939   1.581   4.366  0.1983 -0.0650  0.2776
 1576W        W 2573   3.448   4.819   6.602  0.0562  0.1635  0.0569
 1577W        W 2574   1.313   6.337   1.196  0.1100  0.2692  0.0164
 1578W        W 2575   1.792   4.839   0.058 -0.0742  0.0122  0.0451
 1579W        W 2576   1.376   5.997   1.666  0.0941 -0.1478  0.2103
 1580W        W 2577   0.589   2.358   0.144 -0.0555 -0.1421 -0.1060
 1581W        W 2578   6.268   1.277   7.396  0.1561  0.0131  0.1642
 1582W        W 2579   1.926   3.687   3.339  0.2094  0.0778 -0.0720
 1583W        W 2580   4.474   4.554   0.591  0.0373 -0.4084  0.4092
 1584W        W 2581   5.002   2.915   4.951  0.0337  0.0581 -0.4923
 1585W        W 2582   5.947   3.059   2.136  0.1617  0.1643 -0.0634
 1586W        W 2583   1.976   4.962   4.646 -0.1699 -0.2719  0.2238
 1587W        W 2584   4.625   1.156   6.088  0.0074 -0.0368 -0.0961
 1588W        W 2585   2.682   5.008   7.267 -0.0339 -0.2076  0.0871
 1589W        W 2586   4.880   3.818   7.641  0.2273 -0.1456 -0.0039
 1590W        W 2587   4.359   2.439   4.247  0.1190 -0.3475  0.4453
 1591W        W 2588   4.910   3.251   0.068 -0.2125  0.0391 -0.0975
 1592W        W 2589   1.907   1.602   7.216 -0.1391  0.3854 -0.2029
 1593W        W 2590   6.573   7.481   3.061 -0.2362 -0.2045  0.2588
 1594W        W 2591   7.464   1.103   6.023  0.0689 -0.0044 -0.1701
 1595W        W 2592   5.928   1.120   6.345  0.2270 -0.3871 -0.0610
 1596W        W 2593   4.549   3.965   1.573  0.1639  0.3452  0.2079
 1597W        W 2594   3.189   3.120   2.303 -0.0049  0.1184  0.1096
 1598W        W 2595   1.849   6.170   6.196 -0.0060  0.1057  0.2124
 1599W        W 2596   4.325   1.164   1.755  0.2994  0.0586 -0.2570
 1600W        W 2597   5.000   3.449   3.471 -0.1300  0.0789 -0.0182
 1601W        W 2598   5.106   1.721   0.234  0.0239 -0.0535  0.1486
 1602W        W 2599   0.301   0.930   7.305 -0.0108  0.0741 -0.3254
 1603W        W 2600   6.135   0.957   5.394 -0.1034 -0.0322  0.1881
 1604W        W 2601   4.817   0.987   0.408 -0.1541  0.0672  0.2281
 1605W        W 2602   1.836   3.785   6.711 -0.1927  0.1468  0.1643
 1606W        W 2603   0.582   1.098   4.839  0.2041  0.0448 -0.3068
 1607W        W 2604   1.804   1.731   4.399 -0.0698  0.1598 -0.1051
 1608W        W 2605   0.151   1.284   3.429 -0.2303  0.0615  0.1521
 1609W        W 2606   1.710   7.316   0.353 -0.1968 -0.0807 -0.0511
 1610W        W 2607   6.998   2.977   0.011 -0.0177  0.0919 -0.0658
 1611W        W 2608   0.231   1.526   3.904 -0.0591 -0.1022  0.0518
 1612W        W 2609   2.104   0.351   6.857 -0.1776  0.2264 -0.2044
 1613W        W 2610   6.135   2.178   3.859 -0.0286  0.2526  0.0839
 1614W        W 2611   5.827   1.916   3.629  0.0243  0.1459  0.1578
 1615W        W 2612   3.482   1.329   2.797 -0.0519 -0.0511 -0.1791
 1616W        W 2613   3.465   5.197   6.247 -0.2368  0.0729  0.2021
 1617W        W 2614   4.758   1.655   5.419  0.0096 -0.0687  0.1680
 1618W        W 2615   0.927   0.167   3.814 -0.0356  0.0366 -0.0131
 1619W        W 2616   5.412   2.186   4.851  0.2690  0.1765 -0.1225
 1620W        W 2617   7.594   6.989   3.660 -0.0644 -0.4940 -0.0932
 1621W        W 2618   5.968   1.801   3.140  0.1819 -0.0536 -0.0673
 1622W        W 2619   5.617   4.351   1.158  0.2509 -0.0005 -0.1413
 1623W        W 2620   4.140   1.499   4.817  0.0577 -0.0005 -0.1843
 1624W        W 2621   6.474   7.661   6.917 -0.0726  0.0226  0.1490
 1625W        W 2622   3.624   0.126   1.418 -0.0198 -0.3132 -0.3568
 1626W        W 2623   4.064   2.399   4.742 -0.0008  0.0576 -0.0726
 1627W        W 2624   4.399   3.075   0.087 -0.1598  0.0904 -0.0476
 1628W        W 2625   5.014   3.890   7.125  0.1499 -0.1063  0.0930
 1629W        W 2626   0.934   0.393   7.387  0.0033  0.1026 -0.0932
 1630W        W 2627   3.973   0.581   0.687  0.1929 -0.1057  0.1337
 1631W        W 2628   2.285   3.106   7.255 -0.0130  0.1133  0.1861
 1632W        W 2629   1.971   2.999   6.330 -0.1820 -0.0706  0.2100
 1633W        W 2630   3.785   6.178   4.846  0.0420 -0.0719 -0.2063
 1634W        W 2631   0.664   6.904   5.895  0.0302 -0.0408  0.2610
 1635W        W 2632   2.849   2.239   3.193  0.2504 -0.1779  0.2258
 1636W        W 2633   1.008   4.481   3.494 -0.2466  0.1856 -0.1250
 1637W        W 2634   1.311   5.514   0.351 -0.1499 -0.0680 -0.0526
 1638W        W 2635   1.885   6.051   1.773  0.2147 -0.0670 -0.2418
 1639W        W 2636   5.708   3.728   0.454 -0.1230 -0.0438 -0.2023
 1640W        W 2637   4.864   1.404   7.620 -0.2293  0.1389 -0.2996
 1641W        W 2638   4.442   3.625   6.567  0.2141  0.3190 -0.1061
 1642W        W 2639   2.495   6.003   5.966  0.2419 -0.3175  0.3245
 1643W        W 2640   7.326   6.642   2.692 -0.0462  0.0944 -0.1356
 1644W        W 2641   3.459   2.856   1.587 -0.2132 -0.0267  0.1652
 1645W        W 2642   7.043   5.025   0.375 -0.0930  0.0965 -0.2781
 1646W        W 2643   3.205   6.912   3.417  0.3294  0.2304 -0.0824
 1647W        W 2644   7.274   7.428   2.342  0.0864 -0.1506  0.2726
 1648W        W 2645   7.124   2.059   4.043 -0.0848  0.2372 -0.1371
 1649W        W 2646   2.190   2.367   5.812  0.0049 -0.0899  0.1396
 1650W        W 2647   1.049   3.212   6.637 -0.3563  0.4839  0.3477
 1651W        W 2648   3.616   1.928   7.130  0.4089  0.3891  0.0200
 1652W        W 2649   6.926   5.486   4.478  0.2000  0.2035  0.1846
 1653W        W 2650   3.536   0.488   6.238  0.0326  0.0042  0.1895
 1654W        W 2651   5.802   2.359   3.122  0.1151  0.2550  0.1353
 1655W        W 2652   1.745   5.506   4.460 -0.0253 -0.0087  0.0365
 1656W        W 2653   4.199   4.059   3.937  0.1353 -0.0433 -0.2857
 1657W        W 2654   7.408   2.947   3.914  0.0389  0.3578  0.0436
 1658W        W 2655   2.274   4.343   1.302 -0.1927  0.0999  0.2254
 1659W        W 2656   2.818   0.915   2.594  0.0111  0.0135 -0.2534
 1660W        W 2657   1.363   1.028   3.805  0.1788  0.1771 -0.4776
 1661W        W 2658   3.669   2.849   2.512 -0.0196  0.1062 -0.1931
 1662W        W 2659   3.164   2.160   4.446  0.4218  0.1406 -0.2963
 1663W        W 2660   0.848   1.500   6.220  0.1392 -0.1030  0.2302
 1664W        W 2661   4.185   7.426   7.566  0.0529 -0.2930 -0.0560
 1665W        W 2662   4.713   3.207   6.522 -0.1540 -0.1971 -0.2127
 1666W        W 2663   0.046   0.519   7.577  0.0004  0.0035 -0.0462
 1667W        W 2664   1.431   0.635   4.535 -0.2210 -0.0319 -0.2064
 1668W        W 2665   1.276   4.444   6.947  0.2044  0.0806 -0.1779
 1669W        W 2666   3.551   3.109   4.515 -0.0664 -0.1410 -0.1565
 1670W        W 2667   6.525   1.251   2.051 -0.0253 -0.1209  0.0551
 1671W        W 2668   0.179   0.361   5.717  0.3293  0.1196 -0.1028
 1672W        W 2669   2.987   2.322   0.791 -0.0873 -0.3109  0.0496
 1673W        W 2670   4.106   0.387   5.051 -0.0470  0.1372  0.1500
 1674W        W 2671   4.567   3.797   2.037  0.0161 -0.0536 -0.2593
 1675W        W 2672   5.729   1.312   1.437 -0.0404 -0.1685 -0.3891
 1676W        W 2673   2.309   5.130   2.517 -0.2219 -0.0039  0.0059
 1677W        W 2674   2.856   4.155   3.321 -0.1808 -0.1569 -0.0798
 1678W        W 2675   0.811   6.157   0.911  0.4822 -0.0582  0.0449
 1679W        W 2676   6.852   2.009   3.213 -0.0152  0.0320  0.1765
 1680W        W 2677   7.185   2.280   2.842  0.0765 -0.0186  0.2930
 1681W        W 2678   4.512   3.219   1.944 -0.2258  0.2950  0.2801
 1682W        W 2679   2.530   0.013   6.869 -0.0872  0.1118 -0.2000
 1683W        W 2680   3.681   0.903   7.517  0.1719  0.0274  0.0178
 1684W        W 2681   3.857   5.603   6.449 -0.2663  0.0780 -0.4638
 1685W        W 2682   1.114   1.388   7.571  0.3931 -0.0164 -0.0667
 1686W        W 2683   2.344   3.722   2.496  0.2288 -0.0256 -0.2340
 1687W        W 2684   4.816   2.425   1.698 -0.1306 -0.0221 -0.0264
 1688W        W 2685   1.021   0.756   4.802 -0.1511 -0.0384  0.0215
 1689W        W 2686   6.716   0.563   1.585 -0.1351 -0.3901 -0.1225
 1690W        W 2687   1.966   1.119   5.112 -0.0335  0.2120  0.1852
 1691W        W 2688   0.628   7.691   0.970 -0.2112 -0.0146  0.0893
 1692W        W 2689   5.239   0.520   3.184  0.0088  0.1947 -0.2628
 1693W        W 2690   2.537   3.042   6.320 -0.2393  0.0714 -0.0798
 1694W        W 2691   2.408   2.161   1.586 -0.0074 -0.1041  0.2352
 1695W        W 2692   6.644   0.431   7.013 -0.2107 -0.2167 -0.0959
 1696W        W 2693   1.910   1.839   5.777 -0.1940  0.1221 -0.0876
 1697W        W 2694   1.816   6.193   1.282  0.2372  0.1155 -0.4130
 1698W        W 2695   2.926   3.276   0.312  0.0210  0.1061 -0.0011
 1699W        W 2696   1.581   2.837   5.381  0.0789 -0.0121  0.1116
 1700W        W 2697   3.271   0.134   7.502 -0.0994 -0.2511 -0.1669
 1701W        W 2698   6.233   2.667   6.239  0.4568  0.2883  0.3491
 1702W        W 2699   2.362   4.622   6.011  0.0197 -0.0044  0.2466
 1703W        W 2700   4.288   3.200   0.618  0.1321  0.2977 -0.1115
 1704W        W 2701   1.288   1.586   4.172 -0.0936  0.1915  0.0833
 1705W        W 2702   4.721   0.931   7.417 -0.0415  0.0721 -0.0200
 1706W        W 2703   6.155   0.193   6.032  0.0290  0.3145  0.1791
 1707W        W 2704   3.067   5.962   7.185  0.0827 -0.1081 -0.0770
 1708W        W 2705   7.122   0.981   1.617 -0.0298 -0.0196 -0.1736
 1709W        W 2706   7.110   6.357   4.726 -0.0280 -0.3007  0.2948
 1710W        W 2707   7.314   5.986   5.923 -0.1413 -0.0205  0.0878
 1711W        W 2708   0.970   1.523   5.328  0.1183  0.0021 -0.0405
 1712W        W 2709   0.787   5.748   0.322  0.1250  0.0202  0.1589
 1713W        W 2710   3.295   2.027   1.304  0.0657 -0.2060 -0.0744
 1714W        W 2711   3.366   4.394   6.837 -0.1000  0.1967 -0.3451
 1715W        W 2712   0.205   7.391   3.740 -0.3790 -0.0011  0.1521
 1716W        W 2713   0.637   3.663   5.997 -0.0021  0.1295  0.1040
 1717W        W 2714   6.696   1.595   6.745  0.1037 -0.1599  0.3791
 1718W        W 2715   5.612   0.240   5.882 -0.2122 -0.3318 -0.0069
 1719W        W 2716   5.745   1.353   7.258 -0.2097  0.2584 -0.0863
 1720W        W 2717   4.682   1.921   1.525  0.3672 -0.1002 -0.2968
 1721W        W 2718   7.650   6.726   0.625  0.1270 -0.0827 -0.2394
 1722W        W 2719   3.041   7.081   2.259 -0.3610 -0.0260  0.0718
 1723W        W 2720   0.274   5.237   5.333 -0.1101  0.0830 -0.0472
 1724W        W 2721   1.621   4.297   2.607 -0.0508  0.0030 -0.0360
 1725W        W 2722   3.014   3.174   4.277 -0.0957  0.0321 -0.1273
 1726W        W 2723   3.759   3.617   5.940  0.0881 -0.0514 -0.3086
 1727W        W 2724   4.095   0.529   0.202 -0.0907  0.1580  0.0069
 1728W        W 2725   7.258   1.936   6.306 -0.0561 -0.0731  0.1748
 1729W        W 2726   4.378   1.257   0.822 -0.0259 -0.2491  0.3170
 1730W        W 2727   2.458   0.489   7.265  0.1265 -0.1199 -0.0304
 1731W        W 2728   3.275   6.633   2.138 -0.0913  0.1795 -0.0803
 1732W        W 2729   6.612   0.476   0.369  0.3787  0.2520 -0.3480
 1733W        W 2730   2.253   2.943   0.981 -0.0683 -0.0600 -0.2190
 1734W        W 2731   2.882   0.561   5.694 -0.0682 -0.1570  0.0667
 1735W        W 2732   5.564   1.360   4.322 -0.3728 -0.0007  0.0366
 1736W        W 2733   2.073   0.683   1.205  0.4603  0.0895 -0.0307
 1737W        W 2734   2.887   4.061   1.446  0.1514  0.2018 -0.0119
 1738W        W 2735   0.074   7.185   2.006  0.0528 -0.0923 -0.0763
 1739W        W 2736   6.162   1.022   1.392 -0.0145  0.0908  0.2417
 1740W        W 2737   4.520   2.802   3.088 -0.3735 -0.1734 -0.2815
 1741W        W 2738   2.899   5.697   6.004  0.1493  0.1191  0.1369
 1742W        W 2739   2.427   7.550   0.216 -0.0932 -0.1535 -0.3400
 1743W        W 2740   2.040   6.596   0.483 -0.0171 -0.0881  0.0239
 1744W        W 2741   4.138   0.104   1.362 -0.1928  0.0713 -0.0472
 1745W        W 2742   6.877   3.865   1.089  0.1254 -0.0984 -0.1811
 1746W        W 2743   4.574   2.443   4.698 -0.3592 -0.2670  0.3776
 1747W        W 2744   2.743   3.712   0.033 -0.0165  0.0331  0.1533
 1748W        W 2745   3.967   6.226   0.386 -0.0689 -0.0224  0.1655
 1749W        W 2746   1.927   5.839   3.081 -0.0915  0.1496  0.0222
 1750W        W 2747   6.997   0.275   1.264 -0.1278  0.0336 -0.0938
 1751W        W 2748   4.103   2.918   5.913  0.0768  0.1486 -0.0133
 1752W        W 2749   1.231   3.007   5.774  0.2414 -0.1012 -0.1755
 1753W        W 2750   6.691   3.956   6.774  0.0390  0.0085 -0.3736
 1754W        W 2751   1.418   1.558   2.569 -0.0485 -0.1457  0.0087
 1755W        W 2752   3.569   0.320   4.567  0.0139 -0.2888  0.0533
 1756W        W 2753   0.591   2.011   6.419 -0.0150  0.0908  0.1114
 1757W        W 2754   7.606   0.654   5.444  0.1343  0.1882  0.0530
 1758W        W 2755   0.061   3.715   1.748 -0.0330 -0.0446  0.2998
 1759W        W 2756   2.727   0.304   5.291 -0.0266 -0.3562 -0.0137
 1760W        W 2757   7.368   5.002   5.861 -0.1686  0.1662  0.1421
 1761W        W 2758   3.720   6.820   5.613  0.2075 -0.0559  0.2735
 1762W        W 2759   0.855   2.111   3.617  0.1902  0.2572  0.1619
 1763W        W 2760   2.158   7.173   3.398  0.0508 -0.0963  0.1792
 1764W        W 2761   0.541   6.918   7.120  0.2854 -0.2455  0.1017
 1765W        W 2762   7.565   4.198   4.400  0.1614 -0.0158 -0.0011
 1766W        W 2763   2.710   5.167   4.395  0.0648  0.2533  0.1709
 1767W        W 2764   6.001   2.044   6.758  0.1512 -0.2005 -0.2284
 1768W        W 2765   1.354   4.167   2.158 -0.1904  0.2125  0.0736
 1769W        W 2766   1.428   1.812   1.861 -0.0056 -0.3319  0.1106
 1770W        W 2767   5.060   0.801   6.123 -0.0147 -0.1410 -0.1779
 1771W        W 2768   5.583   2.609   4.641  0.0331 -0.0109  0.2747
 1772W        W 2769   2.007   4.758   6.474 -0.1265  0.1043 -0.2333
 1773W        W 2770   6.518   0.150   2.589 -0.1830 -0.2465 -0.2734
 1774W        W 2771   7.053   2.711   5.682  0.0885 -0.0327 -0.1787
 1775W        W 2772   1.807   3.581   7.164  0.0321 -0.0634 -0.0776
 1776W        W 2773   4.058   1.734   7.246 -0.1321 -0.0502  0.3968
 1777W        W 2774   5.112   0.904   4.340 -0.1556  0.1391 -0.1260
 1778W        W 2775   2.444   5.825   3.826 -0.0270  0.2104  0.0024
 1779W        W 2776   4.835   2.802   6.850 -0.6680  0.3701  0.0655
 1780W        W 2777   6.412   4.004   1.426  0.2808 -0.3638  0.1456
 1781W        W 2778   2.140   2.592   2.827 -0.2442  0.0805  0.2913
 1782W        W 2779   1.280   6.176   2.875  0.2919 -0.1889  0.2769
 1783W        W 2780   0.641   5.211   5.711  0.0942  0.0345 -0.1323
 1784W        W 2781   0.704   7.331   4.670 -0.1289  0.2661  0.0486
 1785W        W 2782   7.597   0.402   0.397 -0.0329 -0.4329 -0.2086
 1786W        W 2783   2.908   3.436   2.579  0.1184  0.0002  0.3569
 1787W        W 2784   0.400   4.882   7.531  0.1289 -0.1971  0.0180
 1788W        W 2785   4.096   2.335   6.413 -0.2099 -0.0158 -0.0618
 1789W        W 2786   0.672   1.787   0.543 -0.2988  0.2466 -0.0947
 1790W        W 2787   6.287   1.675   0.264 -0.0084  0.0122 -0.0828
 1791W        W 2788   0.870   5.204   7.238  0.1274 -0.1832  0.2638
 1792W        W 2789   2.183   6.248   2.901  0.0073 -0.0642  0.0949
 1793W        W 2790   0.338   3.006   6.114 -0.0467 -0.2278 -0.1786
 1794W        W 2791   7.638   5.653   0.070  0.1144  0.2060 -0.0095
 1795W        W 2792   3.344   3.759   6.884  0.0610  0.3472 -0.0380
 1796W        W 2793   5.275   2.770   6.039  0.1256 -0.0067  0.0694
 1797W        W 2794   3.584   2.369   6.822  0.0735  0.2096  0.3056
 1798W        W 2795   6.750   6.507   2.637  0.3346 -0.4442 -0.1382
 1799W        W 2796   3.002   4.171   6.535 -0.1772 -0.0254  0.0564
 1800W        W 2797   0.494   3.430   5.352  0.0781 -0.3030 -0.2612
 1801W        W 2798   2.654   1.703   1.465 -0.0480  0.0819  0.2029
 1802W        W 2799   1.574   3.184   7.292  0.1058  0.0252  0.0200
 1803W        W 2800   3.180   5.974   3.481 -0.3701  0.0343  0.1824
 1804W        W 2801   1.972   1.654   0.800 -0.0261 -0.0457  0.1509
 1805W        W 2802   6.883   7.689   5.207  0.1348  0.0438 -0.1838
 1806W        W 2803   5.528   1.338   5.691 -0.0191  0.1866 -0.0302
 1807W        W 2804   5.217   1.701   5.511 -0.1804  0.1561  0.0534
 1808W        W 2805   3.422   3.612   7.339  0.0869  0.0611 -0.0205
 1809W        W 2806   2.363   7.606   2.806 -0.0802  0.0027  0.3597
 1810W        W 2807   4.689   1.783   3.257  0.0215 -0.1843 -0.0930
 1811W        W 2808   2.456   2.499   3.248 -0.1885 -0.0907 -0.0076
 1812W        W 2809   1.085   7.504   2.364  0.2310  0.2253  0.1757
 1813W        W 2810   1.714   5.707   0.051 -0.0905 -0.1165 -0.0856
 1814W        W 2811   4.416   1.545   5.804  0.1255  0.0915  0.0625
 1815W        W 2812   3.347   6.123   0.854 -0.2861 -0.0281 -0.1798
 1816W        W 2813   3.219   5.283   2.393  0.1990 -0.0886  0.0177
 1817W        W 2814   5.224   1.215   0.615  0.0493 -0.2348 -0.1967
 1818W        W 2815   1.184   4.220   7.414  0.0017 -0.1378  0.5099
 1819W        W 2816   0.968   6.517   4.595 -0.1464  0.2599 -0.2516
 1820W        W 2817   4.880   1.039   4.773  0.0911  0.0576  0.2299
 1821W        W 2818   0.395   0.459   0.445 -0.2088 -0.2925 -0.2786
 1822W        W 2819   3.686   2.399   5.066 -0.0476 -0.1476  0.0563
 1823W        W 2820   7.328   0.669   1.215  0.0590  0.0161  0.0782
 1824W        W 2821   0.550   1.655   4.942  0.1607 -0.1039  0.1144
 1825W        W 2822   6.632   2.874   5.384 -0.0721 -0.1917 -0.0847
 1826W        W 2823   1.778   2.310   7.098 -0.4105 -0.0251  0.0158
 1827W        W 2824   5.012   1.988   3.600 -0.2228 -0.1492  0.0277
 1828W        W 2825   6.893   3.368   2.923  0.0341 -0.0070 -0.3143
 1829W        W 2826   2.231   4.183   6.712  0.2737 -0.0033  0.2079
 1830W        W 2827   5.514   3.008   0.187  0.0168  0.1001 -0.0908
 1831W        W 2828   2.521   0.577   6.032 -0.1496 -0.2173 -0.0593
 1832W        W 2829   3.840   0.432   6.628 -0.0539  0.0447  0.0745
 1833W        W 2830   2.686   2.274   4.667  0.0000 -0.0682 -0.0682
 1834W        W 2831   3.320   7.584   3.592 -0.0086  0.0561  0.0714
 1835W        W 2832   7.171   1.474   5.899  0.0477 -0.0015 -0.3107
 1836W        W 2833   0.465   5.675   2.779  0.1043 -0.1198 -0.2118
 1837W        W 2834   0.687   3.410   6.441  0.2218  0.1427  0.0152
 1838W        W 2835   0.965   7.079   0.700 -0.0828  0.0233 -0.0530
 1839W        W 2836   3.595   0.648   0.350  0.0699 -0.3442 -0.0040
 1840W        W 2837   2.903   3.843   3.880 -0.3576  0.0559  0.0393
 1841W        W 2838   1.894   1.023   3.785  0.0520 -0.0212  0.1239
 1842W        W 2839   4.918   4.251   6.263 -0.0989  0.0608 -0.2216
 1843W        W 2840   3.386   1.441   1.030 -0.1720  0.2746 -0.0635
 1844W        W 2841   5.525   1.609   0.549 -0.2744  0.2136 -0.0548
 1845W        W 2842   0.759   6.271   6.565  0.2528  0.1101 -0.1747
 1846W        W 2843   1.847   0.831   2.693  0.0850  0.2572  0.4629
 1847W        W 2844   5.662   1.879   5.781  0.0115  0.2815  0.0017
 1848W        W 2845   7.489   3.904   1.004 -0.2292  0.0301  0.0603
 1849W        W 2846   7.395   2.518   1.091 -0.0398 -0.1122  0.1809
 1850W        W 2847   0.368   3.862   5.586 -0.0305  0.0092 -0.0917
 1851W        W 2848   0.186   2.448   3.921 -0.3255 -0.2412 -0.2084
 1852W        W 2849   2.658   1.534   3.412 -0.1409 -0.1054 -0.1263
 1853W        W 2850   2.764   5.972   5.479  0.0162 -0.0046 -0.1080
 1854W        W 2851   2.242   1.919   1.173  0.0195  0.1881 -0.0101
 1855W        W 2852   0.443   1.455   2.151  0.0643 -0.2511 -0.0300
 1856W        W 2853   3.458   4.022   5.084 -0.4279 -0.0670  0.0305
 1857W        W 2854   2.004   0.048   3.587  0.1617 -0.2898  0.0745
 1858W        W 2855   6.789   6.988   6.144 -0.3158  0.2330 -0.2704
 1859W        W 2856   2.493   1.435   0.728  0.1124 -0.0640 -0.2935
 1860W        W 2857   2.729   4.516   1.612 -0.0788  0.1786  0.2932
 1861W        W 2858   0.765   3.204   0.255  0.2410 -0.0709  0.1611
 1862W        W 2859   6.388   3.428   4.635 -0.2247  0.1329 -0.0954
 1863W        W 2860   0.102   6.085   0.312  0.2515  0.1077  0.0105
 1864W        W 2861   5.996   3.003   1.579  0.1468 -0.0453 -0.0258
 1865W        W 2862   7.359   0.184   7.253  0.0340 -0.0164  0.2588
 1866W        W 2863   0.584   1.609   1.346  0.2096 -0.0128  0.1903
 1867W        W 2864   2.883   3.550   4.591  0.1615  0.1834 -0.4960
 1868W        W 2865   2.966   2.042   7.684 -0.0274 -0.0006 -0.4050
 1869W        W 2866   0.936   5.222   0.567 -0.3980  0.1262 -0.2921
 1870W        W 2867   4.172   0.105   4.656  0.1239 -0.1574  0.1566
 1871W        W 2868   6.897   0.839   6.028  0.2120  0.1031 -0.0750
 1872W        W 2869   4.122   1.072   6.306 -0.0592 -0.1317 -0.0551
 1873W        W 2870   4.737   3.809   6.175  0.4367 -0.0185  0.0192
 1874W        W 2871   7.339   5.251   4.038  0.0060  0.5347  0.1364
 1875W        W 2872   0.590   1.293   5.793 -0.2565  0.1746 -0.0877
 1876W        W 2873   1.484   1.338   0.640 -0.1637  0.1332  0.0766
 1877W        W 2874   2.686   1.388   6.700 -0.0554  0.0469 -0.1836
 1878W        W 2875   2.172   2.184   2.350 -0.4025  0.4017  0.0052
 1879W        W 2876   0.168   3.486   2.709 -0.0746 -0.2494 -0.2595
 1880W        W 2877   3.614   7.158   3.596  0.1458  0.1709 -0.2575
 1881W        W 2878   0.899   3.636   7.672  0.0812  0.2550  0.2040
 1882W        W 2879   4.879   3.622   1.097  0.0894  0.0956 -0.2440
 1883W        W 2880   6.616   4.327   1.031 -0.3888  0.0131 -0.1511
 1884W        W 2881   5.482   1.021   2.358  0.0595  0.5109  0.2796
 1885W        W 2882   3.078   4.093   6.003 -0.2621 -0.1547  0.3262
 1886W        W 2883   2.715   0.949   0.682  0.2809  0.1446  0.0889
 1887W        W 2884   2.820   2.794   1.052  0.0429 -0.1619 -0.1343
 1888W        W 2885   6.372   1.758   3.460  0.1631  0.2209  0.2534
 1889W        W 2886   0.301   5.742   3.330  0.2078  0.1087  0.0340
 1890W        W 2887   1.830   6.545   4.175 -0.0607  0.1908 -0.0613
 1891W        W 2888   3.813   2.385   0.328  0.0501 -0.3066 -0.3054
 1892W        W 2889   1.167   4.366   3.032  0.2212  0.0523 -0.0783
 1893W        W 2890   6.977   5.617   6.246  0.3372 -0.0076  0.0961
 1894W        W 2891   2.384   4.132   0.122 -0.2923  0.0746  0.3164
 1895W        W 2892   7.359   7.660   3.120  0.2616  0.2818 -0.0633
 1896W        W 2893   0.318   6.535   1.607 -0.1951  0.2810  0.1270
 1897W        W 2894   2.089   5.458   3.454 -0.2475  0.1171  0.0857
 1898W        W 2895   6.864   2.679   2.273  0.0815  0.1236  0.0032
 1899W        W 2896   0.479   4.763   5.325  0.1511 -0.2091  0.0673
 1900W        W 2897   4.611   4.164   2.832 -0.2241 -0.4566  0.1384
 1901W        W 2898   7.080   6.095   6.309  0.1895  0.1643 -0.1754
 1902W        W 2899   6.604   0.418   4.710 -0.0235  0.0531  0.0656
 1903W        W 2900   2.329   0.485   4.557  0.3531  0.1304  0.4996
 1904W        W 2901   3.565   4.060   7.197  0.0052 -0.1242 -0.0448
 1905W        W 2902   5.407   2.059   4.382 -0.2434 -0.1849  0.2123
 1906W        W 2903   0.552   5.064   6.241  0.1556 -0.0699  0.2090
 1907W        W 2904   3.058   6.871   1.237 -0.0376  0.0082  0.3409
 1908W        W 2905   3.372   5.676   6.260 -0.1353 -0.0628  0.2848
 1909W        W 2906   4.051   0.301   4.230  0.0708 -0.0879 -0.0300
 1910W        W 2907   1.996   1.543   6.174  0.0726 -0.1280  0.0371
 1911W        W 2908   3.379   4.040   3.616 -0.3264 -0.0633  0.0666
 1912W        W 2909   0.871   5.467   2.469  0.2081 -0.0564 -0.1824
 1913W        W 2910   1.366   2.437   6.910 -0.4598  0.1148 -0.2214
 1914W        W 2911   6.072   4.489   6.920  0.3120  0.0533 -0.1449
 1915W        W 2912   0.939   1.252   6.642 -0.1005  0.0574 -0.1440
 1916W        W 2913   1.899   1.716   3.146 -0.1347 -0.1079 -0.4394
 1917W        W 2914   6.224   2.242   3.369  0.3724 -0.1629 -0.0420
 1918W        W 2915   0.053   3.314   0.839  0.0072 -0.1993  0.0058
 1919W        W 2916   3.187   2.274   5.977 -0.0805 -0.0372 -0.3015
 1920W        W 2917   3.003   1.775   2.348  0.1062  0.0445 -0.0922
 1921W        W 2918   4.992   0.452   0.298 -0.2368  0.2199  0.0250
 1922W        W 2919   1.882   2.153   1.395 -0.1320  0.0972  0.0302
 1923W        W 2920   3.990   3.671   6.377  0.2575  0.1509 -0.0539
 1924W        W 2921   2.116   5.741   1.111  0.0820 -0.1841 -0.0947
 1925W        W 2922   7.360   4.369   6.891  0.0347 -0.3863  0.0955
 1926W        W 2923   3.988   2.308   0.766 -0.1088 -0.0650 -0.3459
 1927W        W 2924   6.241   1.791   0.815 -0.3306 -0.0149  0.1975
 1928W        W 2925   6.561   0.434   5.992 -0.0230  0.2109 -0.0528
 1929W        W 2926   3.952   5.258   6.114 -0.0023 -0.1877 -0.2294
 1930W        W 2927   0.509   5.244   0.852 -0.2105  0.0175  0.2733
 1931W        W 2928   1.559   0.179   1.935  0.2742  0.2246  0.3746
 1932W        W 2929   4.945   2.059   4.649  0.3267  0.1837 -0.0839
 1933W        W 2930   1.066   2.556   1.426  0.0249 -0.0355 -0.1864
 1934W        W 2931   1.128   6.919   3.749  0.0554  0.2243 -0.0260
 1935W        W 2932   6.092   1.260   1.781 -0.0388 -0.1632  0.1456
 1936W        W 2933   1.685   1.219   2.916 -0.6556 -0.0184 -0.0463
 1937W        W 2934   3.000   6.652   0.371  0.3878 -0.1169  0.1838
 1938W        W 2935   0.642   0.580   0.930  0.0706 -0.2264  0.0095
 1939W        W 2936   6.851   7.530   4.334  0.1158  0.3928  0.2611
 1940W        W 2937   2.466   6.204   1.087  0.0211  0.2856 -0.2356
 1941W        W 2938   1.863   5.281   1.699 -0.1919 -0.2346  0.2403
 1942W        W 2939   7.611   0.719   2.503 -0.0098 -0.3863 -0.2425
 1943W        W 2940   0.517   7.388   7.500  0.0740  0.4057 -0.0732
 1944W        W 2941   2.186   5.253   6.462  0.0821 -0.2964 -0.2137
 1945W        W 2942   5.061   7.358   5.302 -0.2378  0.0531  0.0750
 1946W        W 2943   6.155   4.677   6.450 -0.2857 -0.2469  0.2463
 1947W        W 2944   3.204   1.107   7.404  0.1565  0.3389 -0.0505
 1948W        W 2945   7.059   5.603   3.741 -0.1537 -0.1281 -0.1826
 1949W        W 2946   3.451   0.051   6.541  0.0658 -0.2680  0.1566
 1950W        W 2947   0.245   7.584   1.321  0.1228 -0.0751  0.1293
 1951W        W 2948   7.496   2.200   1.528  0.1844  0.0782  0.4515
 1952W        W 2949   0.600   7.618   3.323 -0.0106  0.2320  0.0986
 1953W        W 2950   7.497   6.657   4.567  0.0029 -0.2265 -0.0940
 1954W        W 2951   7.101   6.627   1.199 -0.0485 -0.2543 -0.0394
 1955W        W 2952   3.453   0.307   1.845 -0.0118 -0.0525 -0.1722
 1956W        W 2953   1.916   5.640   2.506  0.0987 -0.1014 -0.2207
 1957W        W 2954   0.049   7.296   5.209 -0.1811 -0.0047  0.0622
 1958W        W 2955   6.464   7.199   4.513 -0.0643  0.1522  0.4887
 1959W        W 2956   1.082   2.422   0.309 -0.0724  0.0476 -0.0055
 1960W        W 2957   2.865   2.232   2.253 -0.0308 -0.0647 -0.2775
 1961W        W 2958   5.468   2.213   6.807  0.1427  0.2200 -0.2062
 1962W        W 2959   6.850   0.082   0.081 -0.0487  0.0702 -0.2354
 1963W        W 2960   3.728   6.573   4.489  0.3248  0.2309 -0.1450
 1964W        W 2961   3.018   1.877   4.979 -0.1488  0.0890 -0.1437
 1965W        W 2962   7.630   3.897   0.029 -0.1764  0.2308 -0.1826
 1966W        W 2963   7.150   0.504   7.593  0.2906 -0.0446 -0.3272
 1967W        W 2964   6.465   3.910   2.279 -0.1859 -0.1292  0.0991
 1968W        W 2965   5.074   2.426   3.049 -0.1935  0.0183  0.0782
 1969W        W 2966   0.901   4.956   3.322 -0.0610  0.1706 -0.0307
 1970W        W 2967   7.440   6.932   0.136  0.0809  0.0286  0.1510
 1971W        W 2968   7.376   3.275   2.827  0.2537 -0.2807  0.3263
 1972W        W 2969   3.036   2.613   1.560 -0.0909 -0.0090 -0.0504
 1973W        W 2970   0.945   0.543   3.167 -0.1385  0.0623  0.0599
 1974W        W 2971   4.784   3.811   2.496 -0.0341  0.3220  0.0551
 1975W        W 2972   5.827   1.880   2.331  0.1146  0.1774 -0.0750
 1976W        W 2973   2.204   2.475   4.562 -0.1175  0.3296 -0.0475
 1977W        W 2974   6.700   2.334   4.212  0.1319  0.1276  0.1149
 1978W        W 2975   5.223   3.372   5.643  0.2965  0.0467  0.0108
 1979W        W 2976   2.726   2.936   7.088  0.0689  0.0432 -0.0120
 1980W        W 2977   6.167   2.848   6.721  0.0746  0.0647 -0.0787
 1981W        W 2978   6.681   4.542   1.508  0.3319  0.2223 -0.0092
 1982W        W 2979   1.063   7.045   4.478 -0.0404  0.0661 -0.0138
 1983W        W 2980   6.763   1.868   2.039  0.0559  0.0047 -0.0758
 1984W        W 2981   6.338   3.180   6.329 -0.0150 -0.0684 -0.2569
 1985W        W 2982   7.574   1.188   4.106  0.2105 -0.0549 -0.0596
 1986W        W 2983   2.361   1.694   7.018  0.0321  0.0733  0.3412
 1987W        W 2984   0.903   5.283   0.086 -0.1561 -0.2902 -0.2681
 1988W        W 2985   3.509   7.083   2.020 -0.1790 -0.1253 -0.1627
 1989W        W 2986   0.564   1.227   7.595  0.5116 -0.1618  0.0740
 1990W        W 2987   7.409   2.355   7.317  0.2291 -0.0179  0.0500
 1991W        W 2988   3.775   0.874   5.495  0.4069  0.0253 -0.1263
 1992W        W 2989   3.956   4.762   1.621 -0.0508  0.2776  0.1509
 1993W        W 2990   6.881   2.158   0.266  0.1019 -0.1866  0.0814
 1994W        W 2991   3.775   6.917   6.481 -0.1540  0.0713  0.0006
 1995W        W 2992   7.521   6.981   2.403  0.0727 -0.2434  0.3192
 1996W        W 2993   3.462   2.937   1.064 -0.0579 -0.1150  0.0140
 1997W        W 2994   2.297   2.367   1.013 -0.0209  0.0437 -0.0524
 1998W        W 2995   3.938   2.106   4.275 -0.0352 -0.0505 -0.0291
 1999W        W 2996   2.317   6.307   7.312  0.0716  0.0539  0.1507
 2000W        W 2997   0.736   6.681   3.506 -0.1105 -0.2256  0.1378
 2001W        W 2998   3.931   2.126   1.294  0.0645 -0.2697 -0.2898
 2002W        W 2999   1.279   2.659   4.440 -0.3402 -0.0051  0.0487
 2003W        W 3000   0.347   2.934   5.117 -0.2761 -0.1316 -0.1804
 2004W        W 3001   3.073   5.726   2.089  0.0387  0.0184 -0.0754
 2005W        W 3002   2.824   3.463   1.633  0.1175 -0.1387  0.3273
 2006W        W 3003   3.159   4.806   1.521  0.3226  0.5053 -0.2279
 2007W        W 3004   1.035   0.648   4.119 -0.0449  0.1215 -0.0541
 2008W        W 3005   0.363   0.523   1.942  0.2732 -0.0412 -0.0387
 2009W        W 3006   1.883   0.280   5.670  0.2475  0.0120  0.1386
 2010W        W 3007   7.254   3.450   4.968  0.0455 -0.1161 -0.0268
 2011W        W 3008   2.273   2.572   6.288 -0.1459  0.0742 -0.0708
 2012W        W 3009   2.050   2.652   0.567  0.1036 -0.0820 -0.0132
 2013W        W 3010   4.815   1.269   6.995  0.0904  0.1881  0.1052
 2014W        W 3011   4.608   0.877   4.337 -0.0957 -0.1112  0.0352
 2015W        W 3012   6.051   2.228   2.115 -0.0765 -0.1729 -0.1811
 2016W        W 3013   6.954   5.710   7.536 -0.2260 -0.1901  0.3433
 2017W        W 3014   5.408   3.035   2.550 -0.0257  0.0465 -0.0139
 2018W        W 3015   2.794   4.394   1.079 -0.0593 -0.1765  0.0692
 2019W        W 3016   0.803   6.507   3.996  0.2981  0.0768 -0.1019
 2020W        W 3017   2.389   5.638   2.538  0.2622  0.1667 -0.2819
 2021W        W 3018   3.430   6.074   2.023  0.2781 -0.1443  0.1340
 2022W        W 3019   0.608   3.422   1.093 -0.2934  0.1494 -0.4297
 2023W        W 3020   7.558   6.226   2.527 -0.1075 -0.2720  0.0313
 2024W        W 3021   2.405   2.590   5.386  0.1036 -0.0268 -0.0951
 2025W        W 3022   0.117   1.758   1.705  0.0583  0.0492  0.1147
 2026W        W 3023   7.283   1.754   2.509  0.1416  0.1399  0.0545
 2027W        W 3024   3.998   6.450   6.357 -0.4881  0.0491 -0.0776
 2028W        W 3025   3.427   4.594   5.267  0.2877 -0.1420  0.0643
 2029W        W 3026   0.247   4.295   5.188 -0.1275  0.2149  0.0878
 2030W        W 3027   7.015   4.157   7.131 -0.0961  0.0893  0.2890
 2031W        W 3028   4.659   4.468   0.037  0.4196 -0.0152 -0.0850
 2032W        W 3029   3.415   1.623   6.805 -0.1139  0.0111  0.2272
 2033W        W 3030   4.446   1.949   4.556  0.0692  0.0834 -0.1446
 2034W        W 3031   3.609   7.379   5.549 -0.2244  0.1521  0.2916
 2035W        W 3032   3.524   7.108   1.490  0.0777 -0.0973  0.2162
 2036W        W 3033   2.285   1.009   4.494  0.4744 -0.0556  0.3589
 2037W        W 3034   6.441   7.148   5.012  0.1312 -0.0894  0.3398
 2038W        W 3035   3.812   3.745   3.834  0.1581 -0.1405  0.1685
 2039W        W 3036   2.367   5.574   5.560 -0.0643 -0.1516 -0.2402
 2040W        W 3037   2.199   5.944   7.568  0.3918  0.3058 -0.3410
 2041W        W 3038   6.922   3.205   6.159 -0.0355  0.1053 -0.0164
 2042W        W 3039   1.110   5.498   2.922 -0.0482 -0.2134 -0.2382
 2043W        W 3040   5.651   2.958   6.795  0.1778  0.1982  0.0620
 2044W        W 3041   2.839   7.443   2.979 -0.0704 -0.1077  0.0200
 2045W        W 3042   6.415   3.214   1.732 -0.1373  0.1813 -0.1024
 2046W        W 3043   5.119   0.827   5.569  0.0588 -0.1780  0.1366
 2047W        W 3044   1.918   1.326   4.679 -0.1818 -0.1682  0.2327
 2048W        W 3045   4.926   2.427   7.416 -0.0974 -0.0982  0.1367
 2049W        W 3046   6.681   2.671   0.355  0.0456 -0.0495  0.2298
 2050W        W 3047   1.440   0.564   6.449 -0.3396  0.0996  0.1309
 2051W        W 3048   3.236   6.731   4.417 -0.2932  0.0527 -0.1098
 2052W        W 3049   3.033   4.806   2.132  0.1288  0.0998  0.2232
 2053W        W 3050   3.096   5.239   1.929  0.1111  0.1904 -0.1389
 2054W        W 3051   2.989   3.010   1.841  0.0378 -0.1603  0.0401
 2055W        W 3052   4.691   1.791   6.677  0.0877  0.0196  0.1176
 2056W        W 3053   5.968   7.442   3.881  0.0029  0.1476 -0.1655
 2057W        W 3054   6.313   0.316   1.726  0.0344 -0.0170  0.0818
 2058W        W 3055   3.056   0.526   2.024 -0.0977 -0.2827  0.2963
 2059W        W 3056   4.774   4.629   5.488 -0.3775  0.1231 -0.0394
 2060W        W 3057   4.222   0.285   7.013  0.1873  0.3593 -0.0683
 2061W        W 3058   3.142   3.965   5.437  0.4189  0.1089  0.0867
 2062W        W 3059   3.691   4.787   7.506  0.1674  0.2827  0.0306
 2063W        W 3060   0.567   3.901   3.798 -0.2931 -0.0414 -0.2194
 2064W        W 3061   0.730   6.801   4.955  0.1970  0.1222  0.0376
 2065W        W 3062   0.011   6.900   2.926 -0.1118 -0.2199 -0.1769
 2066W        W 3063   5.434   2.452   3.383 -0.2304  0.1309  0.0936
 2067W        W 3064   1.788   2.384   2.564  0.1633  0.0030 -0.0769
 2068W        W 3065   3.385   4.458   2.678 -0.1291 -0.0877  0.1497
 2069W        W 3066   4.937   7.478   4.768  0.1183  0.1009  0.1631
 2070W        W 3067   3.343   6.067   7.593  0.3014 -0.0873 -0.1407
 2071W        W 3068   6.819   6.760   0.805 -0.0793  0.1625 -0.1273
 2072W        W 3069   1.758   3.290   5.376  0.2815 -0.1454  0.1033
 2073W        W 3070   1.690   0.373   7.153  0.0293  0.3011  0.3205
 2074W        W 3071   2.580   5.497   6.820  0.2774 -0.2378  0.2052
 2075W        W 3072   2.065   3.240   3.133 -0.1696 -0.3464  0.0767
 2076W        W 3073   7.135   4.078   0.743 -0.0218 -0.1118  0.2452
 2077W        W 3074   7.671   0.568   6.311  0.0613 -0.2688 -0.0517
 2078W        W 3075   5.965   0.687   0.946  0.1695  0.1395  0.1039
 2079W        W 3076   0.878   4.881   6.577  0.0786 -0.0213 -0.0126
 2080W        W 3077   1.566   2.269   4.207 -0.1758  0.1105  0.0603
 2081W        W 3078   4.392   0.834   0.519 -0.0953  0.2013  0.0268
 2082W        W 3079   0.997   1.902   1.611 -0.1428 -0.0487  0.1257
 2083W        W 3080   0.304   0.325   2.389  0.0381 -0.0443 -0.4321
 2084W        W 3081   6.826   3.287   4.454 -0.0610 -0.2296  0.0337
 2085W        W 3082   0.383   0.586   4.099  0.4174  0.0762  0.2047
 2086W        W 3083   2.924   1.406   3.825 -0.0204  0.2612 -0.0834
 2087W        W 3084   5.450   0.415   2.711 -0.1216  0.1349  0.0334
 2088W        W 3085   1.712   4.446   7.407  0.0884  0.2256  0.0670
 2089W        W 3086   0.382   0.724   5.387 -0.3248  0.2280  0.3482
 2090W        W 3087   1.665   1.225   4.246  0.0057  0.0271 -0.1738
 2091W        W 3088   5.031   4.362   0.750 -0.2678  0.2394 -0.0298
 2092W        W 3089   6.593   0.435   7.529 -0.3708  0.2858 -0.1249
 2093W        W 3090   4.856   0.709   2.871 -0.0971  0.1099 -0.3143
 2094W        W 3091   3.893   1.533   3.584  0.1056  0.3855  0.1145
 2095W        W 3092   2.497   7.570   4.321  0.0258  0.2906  0.0611
 2096W        W 3093   3.530   5.890   6.791  0.1312 -0.2383  0.3368
 2097W        W 3094   0.785   4.753   0.870  0.3305 -0.1571  0.1182
 2098W        W 3095   2.594   3.529   5.951  0.1477  0.1010 -0.5178
 2099W        W 3096   7.509   4.760   3.299  0.3700  0.4301  0.1455
 2100W        W 3097   6.917   0.808   4.756  0.1589  0.0862 -0.1228
 2101W        W 3098   5.834   0.786   2.604 -0.2154 -0.1931 -0.1588
 2102W        W 3099   7.531   3.357   3.622 -0.0356 -0.2192  0.2867
 2103W        W 3100   6.092   0.489   4.658 -0.0358 -0.2671  0.0996
 2104W        W 3101   2.625   1.402   2.418 -0.0413  0.1455 -0.5408
 2105W        W 3102   7.691   6.280   7.111  0.0681 -0.0894  0.3263
 2106W        W 3103   1.063   5.939   2.149 -0.1070 -0.1103 -0.2269
 2107W        W 3104   1.308   1.010   1.150 -0.2347 -0.1103 -0.1997
 2108W        W 3105   1.918   3.522   2.752  0.2257 -0.3374  0.1847
 2109W        W 3106   6.717   1.798   6.250 -0.0399  0.0137 -0.3468
 2110W        W 3107   7.346   0.074   0.112 -0.1503 -0.2112 -0.1933
 2111W        W 3108   1.347   5.187   7.082 -0.0538 -0.1929 -0.0571
 2112W        W 3109   1.022   3.998   0.319 -0.0725 -0.0102 -0.0472
 2113W        W 3110   7.529   0.685   4.274 -0.3784  0.1668 -0.0125
 2114W        W 3111   1.771   1.983   3.561 -0.0734 -0.0905 -0.0354
 2115W        W 3112   3.899   3.256   3.658 -0.1790  0.0227 -0.2253
 2116W        W 3113   3.961   3.952   0.344  0.3619  0.4037  0.0153
 2117W        W 3114   1.343   7.233   7.647  0.1577  0.0388  0.0795
 2118W        W 3115   2.835   6.348   4.581 -0.2117 -0.1738 -0.0622
 2119W        W 3116   2.105   6.133   0.772  0.0731 -0.3663 -0.0964
 2120W        W 3117   5.821   2.118   7.289 -0.0149  0.0339 -0.2539
 2121W        W 3118   0.628   0.215   2.882  0.2014  0.0987 -0.0622
 2122W        W 3119   7.590   3.207   6.949  0.2749  0.1832  0.0760
 2123W        W 3120   2.205   4.956   7.524  0.0274  0.0960 -0.1798
 2124W        W 3121   0.863   7.114   6.318 -0.2233  0.1403  0.0185
 2125W        W 3122   1.511   3.398   4.932  0.1633  0.0991  0.1916
 2126W        W 3123   7.485   3.655   4.099 -0.1142  0.0030 -0.0057
 2127W        W 3124   2.604   2.338   7.627  0.2275  0.0113  0.1881
 2128W        W 3125   1.751   6.064   5.683 -0.2506  0.3071 -0.0168
 2129W        W 3126   5.750   1.272   2.695 -0.2823 -0.1764 -0.1090
 2130W        W 3127   2.060   5.132   4.169 -0.4015 -0.0477 -0.1502
 2131W        W 3128   4.621   4.065   0.943  0.2487  0.0120 -0.0527
 2132W        W 3129   0.737   7.025   4.066  0.2277  0.0065  0.0103
 2133W        W 3130   4.380   2.311   1.137 -0.1008 -0.1069  0.1214
 2134W        W 3131   5.712   2.729   1.269  0.1115 -0.0749  0.0223
 2135W        W 3132   2.340   0.643   3.481 -0.0161  0.0144 -0.1786
 2136W        W 3133   1.839   2.056   4.852  0.1872 -0.2755 -0.1789
 2137W        W 3134   4.298   1.995   2.927  0.0617 -0.0393  0.0667
 2138W        W 3135   1.239   3.552   2.670  0.1781  0.0700  0.3555
 2139W        W 3136   7.617   6.354   3.985 -0.1293 -0.2519  0.1116
 2140W        W 3137   0.730   4.383   3.919 -0.2210 -0.1229  0.1476
 2141W        W 3138   1.922   0.652   3.159 -0.0804 -0.4050  0.1812
 2142W        W 3139   6.512   3.986   5.738 -0.0193 -0.1004 -0.2882
 2143W        W 3140   2.102   3.432   4.989 -0.2203  0.1907 -0.2667
 2144W        W 3141   6.149   0.714   6.721 -0.0595 -0.1869  0.2152
 2145W        W 3142   0.238   4.275   2.023  0.0509 -0.0884 -0.1501
 2146W        W 3143   4.840   0.962   3.353 -0.0161 -0.0995 -0.3032
 2147W        W 3144   4.349   4.118   7.621  0.2204 -0.0567  0.1163
 2148W        W 3145   0.583   7.581   2.477  0.0641  0.0385 -0.0118
 2149W        W 3146   0.344   2.972   2.777 -0.1726 -0.1011 -0.2624
 2150W        W 3147   7.285   7.032   7.169  0.0475 -0.3583  0.2626
 2151W        W 3148   3.833   2.818   0.756 -0.1650  0.2038 -0.0177
 2152W        W 3149   6.330   4.393   6.002 -0.0392  0.1395  0.0514
 2153W        W 3150   4.839   4.201   5.780  0.1112 -0.0603 -0.1503
 2154W        W 3151   1.226   7.692   6.529 -0.2021  0.1261 -0.1008
 2155W        W 3152   1.227   4.088   3.821 -0.1808  0.2004 -0.0118
 2156W        W 3153   4.201   0.771   6.695 -0.1903 -0.2235 -0.1163
 2157W        W 3154   2.241   7.037   1.606 -0.0982 -0.0739  0.1581
 2158W        W 3155   0.963   3.128   1.227 -0.0648 -0.3770  0.0828
 2159W        W 3156   5.902   0.094   4.904  0.1496  0.0534 -0.0638
 2160W        W 3157   2.663   6.090   3.440  0.0865 -0.1214  0.0497
 2161W        W 3158   2.177   6.354   4.598  0.0695 -0.0377 -0.4046
 2162W        W 3159   7.215   5.106   7.116 -0.0813 -0.0266  0.0559
 2163W        W 3160   3.105   3.718   3.192  0.0510  0.0496 -0.0151
 2164W        W 3161   3.372   1.015   3.790  0.0057 -0.0350 -0.2921
 2165W        W 3162   6.709   7.272   0.734 -0.1085 -0.0246 -0.0102
 2166W        W 3163   7.610   1.457   5.170  0.0308 -0.0755  0.0619
 2167W        W 3164   1.864   2.870   5.826 -0.1581  0.1393 -0.1185
 2168W        W 3165   3.133   0.769   1.073  0.3795  0.1695 -0.0314
 2169W        W 3166   6.203   4.932   7.241 -0.2430 -0.0276  0.0820
 2170W        W 3167   4.148   4.166   1.328  0.0855  0.0426 -0.0592
 2171W        W 3168   2.604   1.303   4.772  0.1142 -0.0382 -0.2544
 2172W        W 3169   0.659   5.783   6.601  0.1659  0.0769 -0.1470
 2173W        W 3170   2.397   7.502   1.641 -0.1372  0.2283 -0.0095
 2174W        W 3171   6.906   1.395   1.335 -0.1042 -0.1095 -0.0243
 2175W        W 3172   5.501   4.174   0.569 -0.2037 -0.1333  0.0369
 2176W        W 3173   5.444   3.012   1.571  0.1181 -0.0205  0.0043
 2177W        W 3174   1.575   3.115   4.519  0.0545 -0.2300 -0.5580
 2178W        W 3175   7.428   3.657   5.535 -0.1092 -0.0378 -0.1048
 2179W        W 3176   2.935   1.791   6.215 -0.0145  0.0992 -0.0496
 2180W        W 3177   0.041   1.746   0.657 -0.0003 -0.1847  0.0713
 2181W        W 3178   1.988   2.991   7.650 -0.2657 -0.2199  0.1546
 2182W        W 3179   2.659   3.920   4.358 -0.0454  0.0599  0.3160
 2183W        W 3180   2.591   4.483   3.582  0.1193  0.1377  0.0613
 2184W        W 3181   2.462   7.551   3.320  0.1452 -0.1903 -0.0675
 2185W        W 3182   6.075   0.549   2.243 -0.1372  0.0213 -0.0863
 2186W        W 3183   1.943   5.663   5.312  0.0060 -0.0076  0.1896
 2187W        W 3184   3.968   3.313   4.736 -0.3763 -0.3371  0.2306
 2188W        W 3185   1.643   6.845   6.786  0.1773 -0.4583 -0.0368
 2189W        W 3186   3.964   2.951   1.759 -0.0547  0.2790  0.0833
 2190W        W 3187   5.465   1.895   3.288 -0.1035 -0.0626  0.0467
 2191W        W 3188   7.622   0.727   3.480  0.0032  0.1807 -0.1603
 2192W        W 3189   3.801   4.635   5.539 -0.2217  0.0214 -0.0213
 2193W        W 3190   3.707   4.424   3.063  0.0274  0.0692 -0.4101
 2194W        W 3191   6.776   2.860   0.848 -0.1518  0.1800 -0.1386
 2195W        W 3192   5.148   3.811   4.875 -0.0102  0.2516  0.1502
 2196W        W 3193   0.356   1.302   5.249 -0.1475  0.0551  0.0309
 2197W        W 3194   3.220   6.568   7.537  0.1135  0.0350  0.1842
 2198W        W 3195   6.325   0.542   1.285  0.1533 -0.1493  0.0427
 2199W        W 3196   0.545   3.556   1.555 -0.0296 -0.0127  0.2665
 2200W        W 3197   2.474   1.207   3.716 -0.0012 -0.1965 -0.0539
 2201W        W 3198   3.925   1.047   0.292  0.0311  0.2379  0.0908
 2202W        W 3199   6.609   1.924   7.130  0.0670 -0.2864  0.1951
 2203W        W 3200   4.221   0.952   5.824 -0.0855  0.1072  0.0996
 2204W        W 3201   2.482   4.257   2.444  0.1012  0.0183 -0.2410
 2205W        W 3202   4.008   7.058   7.022  0.0840 -0.3867  0.1222
 2206W        W 3203   4.391   3.440   6.076  0.1913  0.0442 -0.5477
 2207W        W 3204   4.048   4.895   0.117  0.1709 -0.1871  0.0581
 2208W        W 3205   1.980   7.593   7.082 -0.0063 -0.0608  0.0917
 2209W        W 3206   0.482   6.939   0.558  0.0207  0.2358 -0.0858
 2210W        W 3207   5.449   0.513   4.216 -0.2278 -0.0045 -0.0324
 2211W        W 3208   7.406   7.529   3.613  0.1277 -0.1923  0.0698
 2212W        W 3209   2.451   7.674   7.369  0.1014 -0.1704  0.1776
 2213W        W 3210   6.469   3.716   1.808  0.1433 -0.1625 -0.0516
 2214W        W 3211   7.293   5.509   5.850  0.0687  0.2007 -0.3245
 2215W        W 3212   0.044   7.548   7.442 -0.0807  0.2041  0.0471
 2216W        W 3213   5.099   0.821   7.684 -0.3005 -0.1847  0.1020
 2217W        W 3214   5.865   1.468   6.036  0.3146 -0.0573  0.0475
 2218W        W 3215   6.029   1.479   5.575 -0.2387  0.3043  0.1532
 2219W        W 3216   3.093   4.503   3.613  0.2461 -0.0450  0.0767
 2220W        W 3217   4.739   3.770   3.221 -0.0477  0.1982  0.3424
 2221W        W 3218   2.886   7.328   7.049  0.0218  0.0581 -0.0736
 2222W        W 3219   4.134   2.431   3.276  0.1039  0.1775  0.1776
 2223W        W 3220   7.605   5.653   4.219  0.1335 -0.0313  0.1920
 2224W        W 3221   3.309   0.065   4.068 -0.0259 -0.1339  0.1413
 2225W        W 3222   6.650   2.479   3.172  0.0362  0.2759 -0.0397
 2226W        W 3223   6.593   1.130   1.614 -0.1472  0.0017  0.1939
 2227W        W 3224   3.317   3.399   1.882 -0.2138  0.2221  0.1355
 2228W        W 3225   0.816   3.304   2.858 -0.1214 -0.3385  0.0371
 2229W        W 3226   7.128   4.652   2.529  0.0212  0.1350 -0.0152
 2230W        W 3227   4.653   1.605   4.877 -0.1157 -0.0319 -0.0452
 2231W        W 3228   3.207   4.956   0.637 -0.4019  0.5256  0.3854
 2232W        W 3229   6.813   7.531   3.715 -0.0513  0.1162  0.3276
 2233W        W 3230   1.144   5.905   6.638 -0.0371 -0.2529 -0.1713
 2234W        W 3231   7.645   4.839   6.867 -0.1855  0.0607 -0.1855
 2235W        W 3232   7.400   1.337   7.330 -0.2325  0.1570  0.1540
 2236W        W 3233   2.697   2.277   5.774  0.3646 -0.0018 -0.0101
 2237W        W 3234   2.473   0.223   3.623 -0.2122  0.2050  0.2600
 2238W        W 3235   6.320   0.290   0.802  0.0907 -0.0731 -0.1785
 2239W        W 3236   2.880   2.756   4.499 -0.0529 -0.0525 -0.0737
 2240W        W 3237   4.947   2.891   2.819 -0.0999 -0.0941 -0.0911
 2241W        W 3238   2.858   2.598   0.309  0.0799  0.0940  0.1755
 2242W        W 3239   0.564   2.998   1.444  0.1217  0.1035  0.0919
 2243W        W 3240   4.261   1.672   5.295  0.1711 -0.1388 -0.0381
 2244W        W 3241   7.126   6.460   1.848 -0.3250 -0.1224  0.0012
 2245W        W 3242   0.032   1.094   5.564 -0.2596 -0.0119 -0.3502
 2246W        W 3243   3.309   7.317   3.166 -0.0481  0.1912 -0.1288
 2247W        W 3244   3.012   5.345   6.371 -0.2343 -0.2013  0.1817
 2248W        W 3245   1.436   7.365   6.851  0.0328  0.1450 -0.1639
 2249W        W 3246   5.863   3.378   0.843 -0.1166 -0.2821 -0.0721
 2250W        W 3247   2.263   6.636   3.296 -0.0682 -0.0121 -0.0525
 2251W        W 3248   6.189   0.410   7.207  0.0337  0.1998  0.0143
 2252W        W 3249   0.087   3.667   6.819  0.1906 -0.0763 -0.1007
 2253W        W 3250   6.446   3.948   0.077  0.0792 -0.0728  0.1721
 2254W        W 3251   1.337   1.088   2.507 -0.1476 -0.1411  0.0286
 2255W        W 3252   2.181   0.001   6.480 -0.2068  0.1536  0.1798
 2256W        W 3253   1.596   5.260   6.305 -0.2870  0.0012 -0.0621
 2257W        W 3254   2.671   1.846   0.978 -0.0608  0.1754 -0.0709
 2258W        W 3255   1.856   4.529   2.975  0.1182  0.0139  0.2612
 2259W        W 3256   1.430   2.371   1.125  0.0849  0.1172 -0.0765
 2260W        W 3257   3.030   3.607   6.423  0.1001 -0.1198 -0.2695
 2261W        W 3258   2.597   7.364   5.770 -0.1466 -0.2002  0.2460
 2262W        W 3259   0.680   3.925   1.282 -0.2272 -0.1705 -0.0416
 2263W        W 3260   6.955   7.130   1.112 -0.0295  0.1494  0.0028
 2264W        W 3261   4.984   0.220   5.265  0.0511  0.1609 -0.1147
 2265W        W 3262   0.339   2.647   4.732  0.0160  0.1420  0.1146
 2266W        W 3263   3.281   2.677   2.063  0.0014 -0.1514 -0.1136
 2267W        W 3264   4.505   7.063   4.222 -0.0190  0.2042  0.0299
 2268W        W 3265   3.434   4.970   4.186  0.1001  0.2869 -0.1365
 2269W        W 3266   6.732   4.791   0.004  0.0372 -0.1897  0.3014
 2270W        W 3267   4.761   2.173   5.498 -0.0924  0.0029  0.1042
 2271W        W 3268   5.296   4.587   5.406  0.0886  0.0590  0.2017
 2272W        W 3269   4.671   7.636   7.314  0.0944 -0.1605  0.2136
 2273W        W 3270   0.626   2.220   5.795  0.0497 -0.2075  0.5501
 2274W        W 3271   6.240   2.517   5.499  0.4372 -0.2729 -0.0780
 2275W        W 3272   4.404   3.691   2.866 -0.0807  0.1658  0.0340
 2276W        W 3273   2.293   3.482   1.515 -0.2534  0.3738 -0.3402
 2277W        W 3274   3.863   0.095   6.151  0.0009  0.0227  0.3648
 2278W        W 3275   1.556   4.644   3.352 -0.0842 -0.1379 -0.4633
 2279W        W 3276   3.719   7.103   5.169  0.0842  0.1084  0.0884
 2280W        W 3277   1.073   2.026   0.048  0.0604 -0.0119  0.0805
 2281W        W 3278   7.601   2.050   2.735  0.1409  0.1245  0.3442
 2282W        W 3279   1.569   6.212   2.183  0.0314  0.0175  0.2353
 2283W        W 3280   5.107   0.132   7.054  0.3930  0.0937 -0.2048
 2284W        W 3281   1.432   1.880   6.976  0.3772  0.1647 -0.1540
 2285W        W 3282   4.335   3.709   1.172  0.2761  0.3100  0.0879
 2286W        W 3283   0.113   4.304   6.692 -0.1179 -0.1386  0.3082
 2287W        W 3284   0.515   2.122   1.404  0.2542  0.2226 -0.1989
 2288W        W 3285   0.703   0.708   3.709 -0.2471  0.0073  0.0400
 2289W        W 3286   4.291   7.504   4.054  0.0013  0.0495 -0.1336
 2290W        W 3287   6.815   0.477   3.858  0.1400 -0.1920  0.0482
 2291W        W 3288   7.474   5.912   3.784  0.3735 -0.2855  0.0171
 2292W        W 3289   2.783   7.024   5.056 -0.0236 -0.1015 -0.0134
 2293W        W 3290   4.722   3.440   1.518  0.0231 -0.0467  0.1461
 2294W        W 3291   6.903   5.978   1.929  0.0472  0.1967  0.2564
 2295W        W 3292   1.623   3.802   2.429  0.2061  0.1146 -0.1694
 2296W        W 3293   4.448   2.142   1.906  0.2634 -0.0570 -0.2556
 2297W        W 3294   0.068   3.705   5.127  0.0694 -0.0989 -0.0621
 2298W        W 3295   0.170   6.594   2.568  0.0469 -0.1588  0.1447
 2299W        W 3296   4.895   2.699   5.643  0.1628  0.2365 -0.0314
 2300W        W 3297   2.525   6.199   5.089  0.4663  0.1638 -0.0339
 2301W        W 3298   1.797   5.229   6.790  0.1653  0.4877 -0.0014
 2302W        W 3299   3.590   5.259   2.066  0.0484 -0.1898  0.0451
 2303W        W 3300   4.116   1.756   1.677 -0.2175  0.0384 -0.2017
 2304W        W 3301   0.887   4.077   4.783 -0.1618  0.1151 -0.2491
 2305W        W 3302   3.340   4.391   7.470  0.0040  0.0057  0.1165
 2306W        W 3303   4.883   1.947   2.025 -0.1069  0.0936  0.2791
 2307W        W 3304   3.328   7.556   2.072 -0.1868 -0.0148 -0.3712
 2308W        W 3305   0.788   1.616   3.892  0.1520 -0.2140  0.0869
 2309W        W 3306   2.040   5.224   6.021  0.4577 -0.0382  0.1863
 2310W        W 3307   5.894   0.433   3.017  0.3673  0.3175 -0.2291
 2311W        W 3308   0.395   3.483   3.635 -0.1034 -0.0436  0.1270
 2312W        W 3309   4.585   4.183   7.141 -0.0460 -0.0281 -0.1872
 2313W        W 3310   5.554   1.778   1.405  0.2058  0.1127  0.0224
 2314W        W 3311   6.666   4.863   3.678 -0.1127 -0.0542  0.1153
 2315W        W 3312   2.988   0.461   6.267 -0.0171 -0.2989 -0.0817
 2316W        W 3313   0.507   0.534   7.122 -0.5887  0.2505  0.1170
 2317W        W 3314   0.450   4.479   0.548 -0.0454 -0.0690  0.0029
 2318W        W 3315   6.519   3.907   4.324 -0.3272 -0.3142  0.1683
 2319W        W 3316   5.697   3.007   7.359 -0.1774  0.0228  0.2532
 2320W        W 3317   2.050   0.466   6.301 -0.1142 -0.1251 -0.1782
 2321W        W 3318   1.256   5.933   0.631  0.2089 -0.2002 -0.3877
 2322W        W 3319   0.249   3.988   2.841  0.0740 -0.2022  0.1905
 2323W        W 3320   7.193   4.066   6.071  0.0486 -0.1034 -0.0580
 2324W        W 3321   3.420   1.591   4.289  0.0901 -0.0362 -0.0998
 2325W        W 3322   0.822   7.664   6.211 -0.0325 -0.1961 -0.1073
 2326W        W 3323   7.345   2.360   5.486 -0.1105  0.2480 -0.0663
 2327W        W 3324   2.045   0.410   0.790  0.0736 -0.3475  0.2004
 2328W        W 3325   1.564   5.757   4.852 -0.1534  0.1045  0.1699
 2329W        W 3326   6.432   1.783   4.049  0.3303  0.2093  0.1164
 2330W        W 3327   1.242   1.394   7.076  0.1301 -0.0432 -0.1219
 2331W        W 3328   2.540   3.083   3.764 -0.1227 -0.2065  0.0754
 2332W        W 3329   0.675   6.561   6.228  0.2050  0.1262  0.0902
 2333W        W 3330   0.581   3.916   5.126 -0.0984 -0.1129 -0.0203
 2334W        W 3331   3.331   5.794   4.025 -0.0829  0.1858 -0.2542
 2335W        W 3332   3.668   4.503   4.502 -0.0372 -0.0576  0.1366
 2336W        W 3333   5.259   3.429   1.476  0.1360  0.0955  0.0226
 2337W        W 3334   2.437   1.361   5.258  0.2162 -0.1437 -0.2008
 2338W        W 3335   3.856   7.523   4.357  0.3253  0.1317 -0.0578
 2339W        W 3336   0.551   0.245   1.524  0.4331  0.1044 -0.0518
 2340W        W 3337   3.069   4.822   4.435  0.3615 -0.1091  0.0001
 2341W        W 3338   0.529   5.991   7.058 -0.1192 -0.4285  0.1102
 2342W        W 3339   6.119   3.580   2.802  0.1430  0.0770  0.3427
 2343W        W 3340   2.557   5.098   4.883 -0.0461  0.1942 -0.3016
 2344W        W 3341   1.362   0.864   0.463  0.0139  0.0673  0.3284
 2345W        W 3342   1.484   7.392   2.087  0.0933  0.1053  0.2055
 2346W        W 3343   2.128   3.294   3.641  0.2856  0.2131 -0.4510
 2347W        W 3344   2.787   3.779   2.837 -0.0691 -0.0402  0.1315
 2348W        W 3345   2.045   5.751   5.945 -0.1900  0.0043 -0.1874
 2349W        W 3346   2.470   4.441   0.562  0.1191  0.2077  0.1856
 2350W        W 3347   5.630   0.855   4.482 -0.0505  0.3193 -0.2908
 2351W        W 3348   0.440   0.412   3.318  0.1151  0.0726  0.0092
 2352W        W 3349   7.378   5.261   6.291  0.0539  0.2220 -0.0101
 2353W        W 3350   3.167   6.515   1.658  0.1808 -0.0919 -0.0564
 2354W        W 3351   3.206   5.019   5.436 -0.0360 -0.0737  0.4717
 2355W        W 3352   5.967   3.774   5.559 -0.0569 -0.2525  0.0830
 2356W        W 3353   3.984   7.059   3.245 -0.1976  0.2174 -0.0960
 2357W        W 3354   7.271   5.786   1.647 -0.0346  0.2813  0.1016
 2358W        W 3355   1.957   7.445   7.659  0.3149  0.1623 -0.1897
 2359W        W 3356   2.652   3.343   6.709  0.0008  0.2401 -0.1390
 2360W        W 3357   6.833   1.463   3.911  0.1901  0.0752  0.1587
 2361W        W 3358   0.837   2.297   2.695 -0.4022  0.2167 -0.0579
 2362W        W 3359   2.838   2.781   7.549  0.0528  0.1715  0.1393
 2363W        W 3360   0.877   1.470   4.554 -0.0424 -0.2183  0.5932
 2364W        W 3361   2.469   4.724   4.545  0.2172 -0.1280  0.1757
 2365W        W 3362   1.413   1.772   3.217 -0.3327 -0.0383 -0.2117
 2366W        W 3363   1.334   6.445   6.951  0.0626 -0.1601 -0.2004
 2367W        W 3364   1.833   6.822   1.311 -0.0228  0.0660  0.0271
 2368W        W 3365   0.967   3.958   2.807 -0.1759 -0.3141  0.0823
 2369W        W 3366   4.524   6.779   4.737  0.0609 -0.1581  0.0715
 2370W        W 3367   7.055   0.476   4.327 -0.3800 -0.0973 -0.0123
 2371W        W 3368   1.683   6.847   0.088  0.1590  0.2281 -0.0076
 2372W        W 3369   5.552   7.245   4.073 -0.0137  0.1751 -0.0608
 2373W        W 3370   4.953   4.413   5.062  0.1006  0.2260  0.4195
 2374W        W 3371   7.264   5.184   2.527 -0.0805 -0.1415  0.3120
 2375W        W 3372   0.472   3.958   6.904 -0.1222  0.1669  0.2466
 2376W        W 3373   4.960   2.922   3.314 -0.2416 -0.2744  0.0216
 2377W        W 3374   7.496   7.035   6.166 -0.2504 -0.0667  0.0648
 2378W        W 3375   3.710   2.067   3.425 -0.1858 -0.1833 -0.4361
 2379W        W 3376   5.253   3.677   0.208 -0.2900 -0.3284 -0.1004
 2380W        W 3377   2.336   7.176   5.342  0.0751 -0.1748 -0.1759
 2381W        W 3378   5.124   4.179   0.263  0.0326  0.0449 -0.1229
 2382W        W 3379   1.472   7.012   2.984 -0.0086 -0.0792  0.0076
 2383W        W 3380   4.491   2.537   6.673  0.0604 -0.0279  0.1341
 2384W        W 3381   2.686   1.978   7.262  0.0335 -0.1159  0.2477
 2385W        W 3382   0.188   4.489   3.078 -0.1552  0.0902  0.1307
 2386W        W 3383   1.152   4.949   6.153 -0.1734  0.0534  0.2211
 2387W        W 3384   3.626   2.694   5.918  0.0952 -0.0747 -0.0987
 2388W        W 3385   7.436   4.694   0.669 -0.1417  0.2921 -0.0187
 2389W        W 3386   2.819   7.429   7.543  0.1794  0.1080  0.0583
 2390W        W 3387   1.772   4.371   6.741 -0.0697 -0.1188 -0.0462
 2391W        W 3388   3.173   0.143   5.554 -0.1417 -0.2556  0.1366
 2392W        W 3389   3.402   1.875   2.662  0.0781  0.1050 -0.0429
 2393W        W 3390   7.209   1.468   4.500 -0.0863  0.1410  0.0099
 2394W        W 3391   0.677   1.703   0.012  0.0751  0.0527 -0.1442
 2395W        W 3392   4.173   0.862   2.143 -0.0892  0.1161 -0.4955
 2396W        W 3393   7.448   1.097   4.675 -0.3591  0.1842 -0.0909
 2397W        W 3394   5.565   0.813   0.262  0.0444 -0.1454  0.1307
 2398W        W 3395   6.884   6.491   6.031  0.3988  0.2598 -0.0766
 2399W        W 3396   1.583   0.686   7.581 -0.0184 -0.0073  0.1699
 2400W        W 3397   4.155   1.960   2.410  0.0970 -0.0081 -0.0280
 2401W        W 3398   2.031   3.646   0.332 -0.2511  0.1209  0.0591
 2402W        W 3399   2.531   5.600   4.269  0.0561  0.1177 -0.0555
 2403W        W 3400   3.854   0.923   3.639 -0.0221  0.0947 -0.1053
 2404W        W 3401   5.094   0.389   5.778 -0.0557  0.0348  0.1932
 2405W        W 3402   5.906   0.959   4.906 -0.0169 -0.1836  0.0252
 2406W        W 3403   6.376   1.305   0.574 -0.0110 -0.0211 -0.2245
 2407W        W 3404   3.870   2.713   1.305 -0.0959  0.2094  0.1272
 2408W        W 3405   3.125   3.588   5.822  0.1170 -0.0049 -0.1460
 2409W        W 3406   7.172   5.918   0.747  0.1057  0.1605 -0.3347
 2410W        W 3407   1.889   7.473   1.475  0.1965 -0.0456 -0.0066
 2411W        W 3408   1.181   0.232   2.844  0.0046 -0.2334 -0.1236
 2412W        W 3409   7.542   6.188   1.580  0.0547  0.1708 -0.0652
 2413W        W 3410   0.369   5.032   7.066  0.1509  0.1050  0.0852
 2414W        W 3411   0.765   5.879   4.067 -0.1883 -0.0580  0.1465
 2415W        W 3412   5.282   2.838   7.511 -0.1151  0.1617 -0.3180
 2416W        W 3413   3.279   4.180   3.072 -0.3354 -0.2406 -0.1300
 2417W        W 3414   3.597   2.379   4.572  0.1090  0.1133  0.0544
 2418W        W 3415   7.335   5.592   5.115 -0.0880 -0.1075 -0.0238
 2419W        W 3416   1.253   3.084   2.889 -0.2157 -0.1117 -0.2495
 2420W        W 3417   7.383   0.486   3.038  0.2494 -0.1043  0.1648
 2421W        W 3418   0.518   6.201   0.080  0.0304 -0.0736  0.3181
 2422W        W 3419   1.282   0.874   7.220  0.1659 -0.4083  0.3303
 2423W        W 3420   1.747   1.644   1.495  0.1107 -0.0209  0.4598
 2424W        W 3421   7.156   4.960   5.097 -0.0599  0.2794  0.1638
 2425W        W 3422   6.462   1.363   5.218  0.1211  0.0886 -0.1330
 2426W        W 3423   6.398   2.314   5.869 -0.0592  0.0952 -0.0597
 2427W        W 3424   4.342   2.094   6.858 -0.1428 -0.0379 -0.0753
 2428W        W 3425   3.943   1.399   1.178 -0.1445 -0.3397  0.3123
 2429W        W 3426   0.094   0.914   4.982 -0.2253  0.2262 -0.1621
 2430W        W 3427   1.114   3.190   4.478 -0.3304 -0.2430  0.0068
 2431W        W 3428   1.420   5.173   2.010 -0.0301  0.1498  0.1938
 2432W        W 3429   5.682   7.134   3.576  0.0977  0.0611 -0.3195
 2433W        W 3430   4.175   7.059   5.020  0.2683  0.2425  0.0841
 2434W        W 3431   6.704   0.983   2.969 -0.3037  0.3618  0.0440
 2435W        W 3432   5.294   2.612   7.076 -0.3239  0.0846  0.0983
 2436W        W 3433   7.018   4.617   7.301 -0.2065 -0.3856 -0.0105
 2437W        W 3434   1.945   4.136   7.124 -0.2083 -0.1558 -0.0491
 2438W        W 3435   2.957   6.491   0.888  0.2172  0.5618  0.0900
 2439W        W 3436   1.750   6.849   3.322 -0.1265 -0.2067  0.0493
 2440W        W 3437   7.091   3.084   6.627 -0.2693 -0.0847 -0.3575
 2441W        W 3438   1.058   4.439   0.574 -0.4790  0.2388  0.1621
 2442W        W 3439   4.877   3.002   0.504 -0.1437 -0.0682  0.0839
 2443W        W 3440   6.398   0.858   7.173  0.1253  0.2551 -0.0998
 2444W        W 3441   5.703   0.739   1.853  0.0486  0.0467  0.0483
 2445W        W 3442   0.122   2.210   7.535 -0.0783 -0.1621 -0.0354
 2446W        W 3443   1.136   3.519   0.381  0.4180  0.0475 -0.1378
 2447W        W 3444   3.249   0.800   2.369  0.0494  0.2259 -0.0011
 2448W        W 3445   0.314   2.716   3.243  0.1345  0.1517 -0.2453
 2449W        W 3446   2.556   0.474   2.237  0.3450  0.0822  0.0086
 2450W        W 3447   3.045   4.942   4.878 -0.1094  0.0066 -0.1417
 2451W        W 3448   6.815   1.758   0.953  0.0366  0.0189  0.0346
 2452W        W 3449   1.828   6.527   7.226 -0.0402 -0.0440  0.1712
 2453W        W 3450   5.616   0.991   0.843  0.2669 -0.0699  0.0744
 2454W        W 3451   4.191   3.371   1.517 -0.0720  0.0139 -0.3129
 2455W        W 3452   2.905   6.229   0.037  0.2310 -0.0519  0.0525
 2456W        W 3453   2.626   0.923   6.444 -0.2524 -0.1147 -0.1875
 2457W        W 3454   3.059   4.111   7.144  0.0002 -0.1855 -0.1345
 2458W        W 3455   0.459   5.697   1.169  0.2392  0.0077 -0.0809
 2459W        W 3456   1.421   3.894   7.042 -0.0216  0.1401  0.4467
 2460W        W 3457   6.960   1.907   5.325 -0.1274 -0.4529 -0.0477
 2461W        W 3458   3.171   5.861   0.436 -0.1899  0.2742 -0.1571
 2462W        W 3459   6.244   2.688   1.925 -0.0617 -0.1916 -0.0497
 2463W        W 3460   6.552   4.530   7.242  0.2252  0.0335  0.0128
 2464W        W 3461   4.474   0.286   2.931  0.1275  0.0311  0.2657
 2465W        W 3462   3.109   2.873   3.854  0.1576 -0.2516  0.3263
 2466W        W 3463   2.384   0.738   1.744  0.3769 -0.1374 -0.2624
 2467W        W 3464   2.511   5.009   6.737 -0.3741 -0.0846  0.1153
 2468W        W 3465   5.133   0.624   7.217  0.0445 -0.4091 -0.0541
 2469W        W 3466   4.080   2.220   5.348  0.0967 -0.0959  0.2496
 2470W        W 3467   6.715   7.400   6.481 -0.3059 -0.2599 -0.1119
 2471W        W 3468   0.292   6.717   1.032  0.0267  0.1847 -0.2996
 2472W        W 3469   4.540   1.225   6.578 -0.2737  0.2649  0.0155
 2473W        W 3470   1.182   1.333   3.036  0.0696 -0.0918 -0.3244
 2474W        W 3471   5.219   2.588   1.449 -0.0948  0.2776  0.0577
 2475W        W 3472   0.380   6.057   2.472 -0.3900  0.0188 -0.0781
 2476W        W 3473   1.934   6.413   5.201 -0.4417  0.2054  0.0978
 2477W        W 3474   6.261   1.073   2.717 -0.1165 -0.1486 -0.1549
 2478W        W 3475   4.827   3.496   0.495  0.3454 -0.2628 -0.3609
 2479W        W 3476   3.995   2.313   3.765 -0.0003  0.1743 -0.0923
 2480W        W 3477   2.457   1.862   4.414  0.0778  0.0499 -0.1141
 2481W        W 3478   6.949   4.743   6.799 -0.1481  0.1993 -0.0823
 2482W        W 3479   1.599   6.597   2.587 -0.2921  0.1131 -0.0709
 2483W        W 3480   4.082   2.833   3.770 -0.0112  0.1470  0.2439
 2484W        W 3481   3.438   4.195   2.176 -0.4156  0.1962  0.0748
 2485W        W 3482   0.818   2.268   0.684  0.2110  0.2347 -0.1336
 2486W        W 3483   2.202   1.663   1.619 -0.3568  0.0521 -0.2009
 2487W        W 3484   1.042   2.700   5.347  0.4152  0.0770 -0.2545
 2488W        W 3485   0.841   0.251   6.617  0.1238 -0.1062  0.2602
 2489W        W 3486   3.162   0.659   5.273 -0.1861 -0.2305  0.0648
 2490W        W 3487   0.186   0.441   4.629 -0.0216 -0.3510  0.1654
 2491W        W 3488   3.505   7.106   0.960  0.2238  0.0728  0.1970
 2492W        W 3489   2.652   7.326   2.531  0.1646  0.0542  0.0295
 2493W        W 3490   7.226   7.353   7.527 -0.0878 -0.0422  0.1112
 2494W        W 3491   4.518   3.850   5.472 -0.1510 -0.1292 -0.0815
 2495W        W 3492   0.066   0.114   3.402  0.1479 -0.0221  0.1802
 2496W        W 3493   1.751   2.445   5.633  0.3435  0.4194 -0.0746
 2497W        W 3494   4.673   0.627   5.755 -0.1508 -0.0880 -0.3509
 2498W        W 3495   6.644   0.896   4.322 -0.2999 -0.1548  0.3042
 2499W        W 3496   7.647   6.178   5.503 -0.1691 -0.0586  0.1915
 2500W        W 3497   2.416   3.702   1.935 -0.4646 -0.0383  0.0116
 2501W        W 3498   0.832   0.510   1.860 -0.1494 -0.0034 -0.0947
 2502W        W 3499   3.710   3.563   4.331  0.2572  0.2180  0.2277
 2503W        W 3500   7.056   4.599   5.974  0.0855  0.0008  0.2345
 2504W        W 3501   1.204   0.580   0.867 -0.2565  0.1892  0.0124
 2505W        W 3502   7.038   1.351   2.869  0.0124  0.0009  0.0511
 2506W        W 3503   7.565   2.712   5.228 -0.0413  0.1111 -0.3492
 2507W        W 3504   1.296   6.644   4.206  0.0976  0.4308  0.0276
 2508W        W 3505   6.591   2.938   3.942 -0.2427 -0.0551 -0.1004
 2509W        W 3506   4.539   2.726   1.986 -0.1076  0.2475  0.1988
 2510W        W 3507   1.778   6.981   0.763 -0.1861 -0.0233  0.0823
 2511W        W 3508   1.422   4.043   6.565  0.1566  0.1468  0.0109
 2512W        W 3509   3.071   5.621   5.342 -0.1315 -0.3151 -0.0354
 2513W        W 3510   4.390   0.468   1.188  0.1265 -0.0377  0.1138
 2514W        W 3511   1.632   0.188   4.660  0.0398 -0.3521  0.1701
 2515W        W 3512   4.414   0.779   4.811 -0.4577 -0.2768 -0.0260
 2516W        W 3513   7.315   1.847   1.860  0.0949 -0.3234 -0.0628
 2517W        W 3514   2.901   6.041   3.898 -0.3641  0.0622  0.1746
 2518W        W 3515   7.601   2.810   4.381  0.0341 -0.0765  0.1597
 2519W        W 3516   1.223   5.116   5.707 -0.0902 -0.0580 -0.0795
 2520W        W 3517   4.807   3.544   5.141 -0.3452 -0.0233  0.0238
 2521W        W 3518   6.695   0.608   3.286 -0.1611 -0.2402 -0.1604
 2522W        W 3519   1.045   5.274   1.095 -0.0680  0.1735 -0.0460
 2523W        W 3520   7.448   6.376   3.111  0.0773 -0.3289 -0.2489
 2524W        W 3521   0.061   5.337   1.084  0.1427  0.1923 -0.0044
 2525W        W 3522   0.979   0.512   5.228 -0.1206 -0.0179  0.2208
 2526W        W 3523   4.889   2.253   6.962  0.1725  0.0801 -0.0945
 2527W        W 3524   6.643   4.115   0.594 -0.1227  0.1991 -0.0544
 2528W        W 3525   5.632   0.940   3.925 -0.0716 -0.1566 -0.1639
 2529W        W 3526   6.401   1.246   3.964  0.2597 -0.0579 -0.0444
 2530W        W 3527   1.676   4.784   5.062 -0.2922 -0.0685 -0.0906
 2531W        W 3528   3.334   4.572   5.848 -0.0578 -0.0870  0.0195
 2532W        W 3529   0.801   4.696   7.137 -0.0251  0.0120 -0.0724
 2533W        W 3530   0.226   4.033   1.425  0.0350 -0.0552 -0.0563
 2534W        W 3531   5.075   3.907   2.084  0.3098  0.0599 -0.2583
 2535W        W 3532   7.553   6.611   7.434 -0.0841  0.3473 -0.1410
 2536W        W 3533   1.027   0.988   1.652  0.2402  0.1509 -0.1845
 2537W        W 3534   6.780   4.201   2.539 -0.0826  0.0811 -0.0875
 2538W        W 3535   4.727   0.740   6.927 -0.2217  0.3019 -0.2661
 2539W        W 3536   2.611   5.347   2.180 -0.1388 -0.1727  0.0644
 2540W        W 3537   3.319   0.716   3.393  0.1342 -0.4274  0.0029
 2541W        W 3538   3.900   7.620   6.811 -0.1087  0.3237 -0.0714
 2542W        W 3539   3.715   1.797   1.011  0.0682 -0.0296  0.1752
 2543W        W 3540   6.940   6.968   4.368 -0.1072 -0.2044 -0.2019
 2544W        W 3541   6.948   4.071   1.620  0.1235  0.0058 -0.1504
 2545W        W 3542   5.967   3.411   6.646 -0.0830  0.1016  0.1169
 2546W        W 3543   6.252   7.588   6.417 -0.2975 -0.0268  0.0680
 2547W        W 3544   3.643   6.709   1.751 -0.0066 -0.0728 -0.2879
 2548W        W 3545   2.173   4.102   5.139 -0.0502  0.2305 -0.1512
 2549W        W 3546   4.972   2.157   6.501 -0.1846  0.1739 -0.0987
 2550W        W 3547   0.037   5.701   5.350  0.1882 -0.1663  0.0899
 2551W        W 3548   1.855   3.447   7.638 -0.1263 -0.1422  0.1225
 2552W        W 3549   1.301   0.597   1.734  0.0141  0.0293 -0.1586
 2553W        W 3550   2.021   7.364   5.754 -0.2161 -0.2443  0.0484
 2554W        W 3551   7.619   2.602   3.526 -0.2038 -0.1056 -0.1808
 2555W        W 3552   3.026   0.120   4.446 -0.0326  0.0011  0.0754
 2556W        W 3553   3.706   4.349   1.527 -0.0097 -0.0437 -0.1031
 2557W        W 3554   0.072   2.971   2.354  0.2240 -0.0729 -0.1098
 2558W        W 3555   4.538   2.805   2.511 -0.0019  0.0007 -0.1275
 2559W        W 3556   7.549   6.537   2.173 -0.1163  0.2246 -0.1685
 2560W        W 3557   0.532   4.856   1.374  0.1190 -0.2284  0.2927
 2561W        W 3558   4.910   0.464   4.136 -0.1215 -0.1388 -0.3719
 2562W        W 3559   3.487   3.348   3.948  0.5018 -0.0800 -0.0658
 2563W        W 3560   2.294   3.714   6.959  0.2298  0.4032 -0.2102
 2564W        W 3561   3.446   4.834   2.352  0.1814  0.0532  0.1569
 2565W        W 3562   2.516   0.435   6.512 -0.1206  0.1312 -0.2322
 2566W        W 3563   5.172   0.737   0.711  0.1762  0.2558  0.0207
 2567W        W 3564   3.644   2.867   3.932  0.1943 -0.0786  0.1527
 2568W        W 3565   2.975   6.206   5.992 -0.0580  0.0605  0.1800
 2569W        W 3566   3.760   4.073   6.764  0.1541 -0.0359 -0.1292
 2570W        W 3567   3.638   0.585   5.071  0.1137  0.0683 -0.2212
 2571W        W 3568   3.035   3.925   4.846  0.1389 -0.2813  0.0110
 2572W        W 3569   0.374   6.482   7.322  0.0353  0.3994 -0.0752
 2573W        W 3570   1.001   6.962   6.859 -0.0784  0.0475  0.1418
 2574W        W 3571   3.060   6.317   6.823 -0.0382 -0.0331 -0.1436
 2575W        W 3572   4.916   1.888   7.461  0.2149 -0.0940  0.1282
 2576W        W 3573   6.648   1.707   4.923  0.2125 -0.0446  0.2786
 2577W        W 3574   0.393   0.670   2.833  0.0912  0.0893 -0.0108
 2578W        W 3575   2.708   7.489   5.274  0.0563  0.0494  0.0910
 2579W        W 3576   7.568   7.411   1.589 -0.0984 -0.1300 -0.2330
 2580W        W 3577   1.790   4.936   7.236  0.3665  0.1319 -0.1860
 2581W        W 3578   2.309   2.024   0.631  0.1636  0.1230 -0.2443
 2582W        W 3579   2.627   2.530   1.891 -0.0937  0.2156 -0.0645
 2583W        W 3580   0.043   1.293   7.689 -0.0446  0.1275 -0.1076
 2584W        W 3581   6.892   0.843   7.344  0.2088 -0.1455 -0.0495
 2585W        W 3582   6.512   7.507   1.615  0.0454 -0.5786 -0.0829
 2586W        W 3583   4.366   7.386   4.641  0.0264 -0.3509 -0.0445
 2587W        W 3584   2.812   0.599   0.339  0.0669 -0.1067  0.1256
 2588W        W 3585   2.485   1.904   5.970  0.2777  0.1216  0.0072
 2589W        W 3586   1.779   4.360   1.994  0.1030  0.0041  0.2105
 2590W        W 3587   3.201   3.159   5.506 -0.1415 -0.1014 -0.0376
 2591W        W 3588   0.213   3.493   0.054  0.0349  0.0932 -0.3303
 2592W        W 3589   1.368   0.400   5.526 -0.1551 -0.1542  0.0715
 2593W        W 3590   0.363   5.514   7.127  0.2143 -0.0827  0.0607
 2594W        W 3591   2.373   0.848   4.036 -0.1031  0.4426 -0.0333
 2595W        W 3592   7.647   4.711   5.295 -0.2023  0.1364 -0.1245
 2596W        W 3593   7.531   1.356   6.518  0.1038 -0.0999 -0.0399
 2597W        W 3594   4.470   2.483   7.188  0.1501 -0.0594 -0.1184
 2598W        W 3595   3.814   4.383   5.027 -0.0138 -0.2749  0.1472
 2599W        W 3596   6.291   2.321   7.251 -0.1021  0.1017 -0.1292
 2600W        W 3597   6.174   2.636   4.153 -0.2652  0.2445 -0.2208
 2601W        W 3598   0.637   4.209   3.089 -0.4012 -0.2918 -0.0664
 2602W        W 3599   6.235   0.648   3.563 -0.1603 -0.3152 -0.1827
 2603W        W 3600   1.410   5.832   3.344 -0.0753  0.1155  0.1209
 2604W        W 3601   7.068   4.592   3.480  0.0883 -0.2426 -0.1632
 2605W        W 3602   7.623   4.813   7.323 -0.1032 -0.3190  0.3684
 2606W        W 3603   3.670   1.125   2.373  0.2211 -0.0167  0.1421
 2607W        W 3604   4.402   3.622   0.065 -0.0647  0.1223  0.0626
 2608W        W 3605   2.183   5.659   2.049  0.4174  0.0003 -0.1323
 2609W        W 3606   6.482   5.241   6.295 -0.2498 -0.4059  0.1008
 2610W        W 3607   0.681   5.204   4.962  0.1322  0.1705 -0.2782
 2611W        W 3608   3.147   3.952   7.600  0.3375 -0.1060  0.0907
 2612W        W 3609   2.242   2.941   6.760  0.1028 -0.2678  0.0406
 2613W        W 3610   4.616   3.210   3.685 -0.1003  0.1047  0.1924
 2614W        W 3611   3.306   4.706   3.154  0.0143 -0.0981 -0.1878
 2615W        W 3612   2.372   0.802   2.953 -0.1785 -0.0095  0.4656
 2616W        W 3613   0.190   1.033   1.153  0.2359  0.1112 -0.2650
 2617W        W 3614   4.419   0.652   1.682  0.2097  0.0652  0.0933
 2618W        W 3615   1.558   7.118   5.718  0.1272  0.3491  0.1392
 2619W        W 3616   2.115   1.964   4.008  0.0102 -0.0438  0.3405
 2620W        W 3617   7.171   4.890   2.114 -0.1901 -0.1235  0.0188
 2621W        W 3618   4.795   0.340   6.171  0.2483  0.1954 -0.1886
 2622W        W 3619   4.210   1.899   3.450  0.0783 -0.1064  0.1697
 2623W        W 3620   1.197   1.454   3.622 -0.1794 -0.1758  0.0811
 2624W        W 3621   2.783   4.805   5.712 -0.0290 -0.2270  0.1628
 2625W        W 3622   1.960   0.747   5.845  0.4061 -0.1105 -0.5627
 2626W        W 3623   0.644   2.693   5.790  0.2866  0.1052  0.1726
 2627W        W 3624   2.709   7.218   1.397 -0.1587 -0.1363  0.0360
 2628W        W 3625   3.736   4.795   6.136  0.0475  0.0068  0.1298
 2629W        W 3626   1.118   6.557   0.724 -0.1445  0.1668  0.2331
 2630W        W 3627   7.435   2.341   2.014 -0.3119 -0.5104  0.3013
 2631W        W 3628   2.725   5.275   1.097 -0.0897  0.1700 -0.1596
 2632W        W 3629   7.396   6.560   3.591 -0.0207 -0.0072 -0.1958
 2633W        W 3630   3.483   1.846   5.796 -0.2462 -0.0282 -0.0764
 2634W        W 3631   2.361   7.284   6.207  0.2954 -0.0091  0.0432
 2635W        W 3632   3.924   3.902   2.293 -0.4375 -0.1447 -0.2625
 2636W        W 3633   6.616   1.572   7.595  0.1544 -0.3380  0.0931
 2637W        W 3634   5.009   4.371   6.939 -0.3189  0.1263  0.1612
 2638W        W 3635   7.189   4.965   2.979  0.0867  0.1840  0.0060
 2639W        W 3636   2.487   3.872   1.196 -0.0337 -0.0190 -0.2124
 2640W        W 3637   3.463   5.369   6.706 -0.0269  0.1087 -0.2149
 2641W        W 3638   2.231   4.690   7.028 -0.0673 -0.1185  0.1605
 2642W        W 3639   5.834   1.850   4.125 -0.0842 -0.1114 -0.1272
 2643W        W 3640   0.654   4.292   7.404  0.0733  0.1659 -0.1040
 2644W        W 3641   5.507   0.093   3.150  0.2672 -0.0505  0.1480
 2645W        W 3642   4.267   2.939   6.399  0.3463 -0.1790  0.0678
 2646W        W 3643   2.001   2.795   3.364 -0.3040  0.1066 -0.3581
 2647W        W 3644   0.497   6.834   4.451 -0.0841 -0.0346 -0.0403
 2648W        W 3645   1.813   0.688   0.346 -0.3270  0.1590 -0.1021
 2649W        W 3646   3.672   4.125   5.557 -0.0390  0.0971  0.2571
 2650W        W 3647   7.257   6.102   1.199  0.2446 -0.1579 -0.0023
 2651W        W 3648   2.368   6.767   4.390  0.0522  0.0060  0.0653
 2652W        W 3649   6.755   3.494   1.463 -0.3146 -0.3647  0.2293
 2653W        W 3650   7.602   1.574   5.683  0.1837 -0.0704 -0.1264
 2654W        W 3651   3.388   1.576   1.945 -0.0786 -0.0758  0.3253
 2655W        W 3652   2.458   6.431   6.747 -0.0816 -0.1250 -0.2371
 2656W        W 3653   1.941   5.635   4.001  0.1160 -0.1903 -0.0071
 2657W        W 3654   0.594   7.369   5.182  0.1827  0.1711 -0.0565
 2658W        W 3655   0.175   1.382   6.100  0.0112 -0.1195 -0.1560
 2659W        W 3656   4.709   2.625   0.236 -0.1834 -0.3447  0.3080
 2660W        W 3657   6.379   0.258   3.042  0.2213 -0.0318 -0.2158
 2661W        W 3658   5.502   1.192   1.872  0.0618  0.1097  0.0958
 2662W        W 3659   3.433   7.057   6.052  0.0283 -0.0140  0.2429
 2663W        W 3660   1.732   3.708   0.766  0.3436  0.0616 -0.0096
 2664W        W 3661   3.325   3.994   0.969  0.0674  0.0529  0.2351
 2665W        W 3662   0.857   5.863   3.193  0.1381 -0.0477 -0.1656
 2666W        W 3663   7.188   6.300   7.226 -0.5266 -0.1904  0.1225
 2667W        W 3664   2.487   7.142   2.020 -0.0396 -0.1940 -0.1005
 2668W        W 3665   6.499   3.024   2.229 -0.2653  0.3177  0.0075
 2669W        W 3666   2.858   4.256   0.201 -0.1760  0.1147 -0.1617
 2670W        W 3667   0.544   6.863   6.633  0.1084  0.4687  0.0286
 2671W        W 3668   3.736   6.399   7.582 -0.3011 -0.0745  0.2507
 2672W        W 3669   1.115   4.211   4.275 -0.0080 -0.0592  0.1832
 2673W        W 3670   2.568   3.050   1.590  0.0674  0.1788  0.1599
 2674W        W 3671   5.290   7.147   4.926 -0.1388  0.0770  0.4320
 2675W        W 3672   1.200   1.093   4.464  0.1390 -0.2770  0.1005
 2676W        W 3673   7.377   1.676   1.405  0.0794  0.0469  0.0324
 2677W        W 3674   0.324   4.690   2.377 -0.0232  0.2347  0.0466
 2678W        W 3675   2.441   6.406   3.775 -0.1415 -0.2216  0.0208
 2679W        W 3676   5.116   3.817   5.868  0.0189  0.2403  0.1419
 2680W        W 3677   1.386   4.787   2.836  0.1220  0.0216 -0.1628
 2681W        W 3678   6.040   7.049   4.192 -0.0951  0.2041  0.1123
 2682W        W 3679   6.262   2.931   3.489  0.0015 -0.0294  0.2425
 2683W        W 3680   4.072   1.109   4.532  0.0612  0.3172  0.0193
 2684W        W 3681   6.916   5.400   2.126  0.1009  0.1577  0.0925
 2685W        W 3682   5.804   1.911   6.255  0.1232  0.1628  0.2738
 2686W        W 3683   7.375   2.474   4.086 -0.0040  0.2532  0.0028
 2687W        W 3684   6.272   2.629   2.454  0.0923  0.1445  0.3567
 2688W        W 3685   3.111   3.261   7.508 -0.3369  0.3754 -0.2369
 2689W        W 3686   0.789   2.015   5.291 -0.1241  0.0181 -0.0558
 2690W        W 3687   6.658   3.685   3.357  0.1387  0.1291 -0.1060
 2691W        W 3688   4.381   3.392   4.478 -0.1274 -0.3025 -0.2565
 2692W        W 3689   2.406   5.316   3.828 -0.0747 -0.1044 -0.1019
 2693W        W 3690   7.277   4.120   2.497  0.2915 -0.0448  0.1741
 2694W        W 3691   2.213   1.031   0.880  0.2349  0.2163  0.0744
 2695W        W 3692   0.410   7.014   5.453 -0.3312  0.2642  0.4137
 2696W        W 3693   1.023   0.022   1.933 -0.1324 -0.2389 -0.4207
 2697W        W 3694   6.822   3.343   5.283  0.1179  0.2830  0.0179
 2698W        W 3695   0.159   0.400   1.173  0.0304 -0.1030 -0.1487
 2699W        W 3696   0.893   3.518   3.582  0.1763 -0.0572  0.3231
 2700W        W 3697   3.759   2.291   2.472 -0.3828  0.0597  0.1548
 2701W        W 3698   0.326   2.458   2.823 -0.1336  0.1003 -0.0801
 2702W        W 3699   3.921   4.400   2.436  0.0985 -0.0123 -0.2574
 2703W        W 3700   1.613   3.869   2.955  0.1747  0.1904  0.1931
 2704W        W 3701   2.088   4.633   2.334 -0.0226 -0.0496  0.0181
 2705W        W 3702   4.071   4.121   7.202  0.1660 -0.1041  0.0553
 2706W        W 3703   7.255   0.704   3.840  0.0161  0.1777  0.1853
 2707W        W 3704   5.726   2.862   4.117  0.2706 -0.2529  0.0491
 2708W        W 3705   5.294   2.107   7.261  0.0089 -0.1746 -0.0009
 2709W        W 3706   3.160   4.349   1.757  0.0115 -0.1654 -0.2159
 2710W        W 3707   0.156   3.511   6.286 -0.1925 -0.3700  0.3288
 2711W        W 3708   1.365   2.024   4.595  0.1942 -0.4079  0.2766
 2712W        W 3709   4.135   4.339   4.370  0.0050  0.1258 -0.0231
 2713W        W 3710   1.358   5.127   5.234  0.2303  0.0807  0.1740
 2714W        W 3711   0.859   3.815   5.488 -0.2033  0.2431 -0.0512
 2715W        W 3712   2.339   3.936   3.511  0.0361 -0.1953 -0.2194
 2716W        W 3713   1.973   6.853   5.526  0.1801  0.0192  0.4642
 2717W        W 3714   6.755   2.603   4.655  0.2697 -0.0670 -0.2048
 2718W        W 3715   2.186   4.842   3.534 -0.0901 -0.1193 -0.0946
 2719W        W 3716   7.378   6.045   2.056  0.0114 -0.0404  0.1208
 2720W        W 3717   2.132   6.840   6.774  0.1670  0.2431  0.0966
 2721W        W 3718   5.069   1.881   2.949 -0.2329  0.0886  0.0662
 2722W        W 3719   0.699   0.926   6.228  0.0415  0.1161  0.3420
 2723W        W 3720   1.254   2.692   1.966 -0.0717  0.1645  0.3245
 2724W        W 3721   0.654   6.583   2.444  0.3195  0.1413 -0.1464
 2725W        W 3722   2.236   3.753   4.003 -0.2966  0.2328  0.1230
 2726W        W 3723   2.106   3.748   5.973  0.1041  0.1146  0.0490
 2727W        W 3724   1.904   2.004   1.908 -0.3486 -0.1255 -0.1281
 2728W        W 3725   1.056   7.074   5.477 -0.1163  0.2205 -0.3208
 2729W        W 3726   5.120   0.714   2.473  0.0279 -0.1081  0.0183
 2730W        W 3727   1.045   4.042   1.835  0.0118 -0.0301  0.0055
 2731W        W 3728   5.580   4.176   3.573 -0.0537  0.1056  0.0421
 2732W        W 3729   0.338   1.860   5.462  0.0257  0.1068  0.0410
 2733W        W 3730   7.316   7.337   4.586  0.1163 -0.1948 -0.1161
 2734W        W 3731   1.916   4.687   5.491 -0.1010 -0.2650 -0.1264
 2735W        W 3732   4.772   1.017   1.560 -0.1951  0.0884  0.0419
 2736W        W 3733   2.069   4.450   0.254  0.2119 -0.2575  0.2550
 2737W        W 3734   1.777   5.727   1.436 -0.0347  0.0501 -0.1863
 2738W        W 3735   7.074   4.869   1.429  0.0383  0.0733  0.0486
 2739W        W 3736   0.073   5.314   2.685 -0.0404  0.1754  0.0715
 2740W        W 3737   4.520   2.137   3.723  0.1651 -0.0648 -0.3097
 2741W        W 3738   6.583   3.914   3.797 -0.1085 -0.3206 -0.0468
 2742W        W 3739   1.397   3.722   7.477  0.2012 -0.1888  0.0482
 2743W        W 3740   6.188   2.820   7.214  0.1839 -0.0100  0.0223
 2744W        W 3741   3.585   6.400   6.642  0.0416 -0.4936  0.0393
 2745W        W 3742   2.821   7.470   1.930 -0.3259  0.2277 -0.0313
 2746W        W 3743   7.682   4.349   0.890  0.0229 -0.3472 -0.1113
 2747W        W 3744   0.468   4.581   3.506 -0.1172  0.1951  0.0110
 2748W        W 3745   6.105   3.188   7.564 -0.1361 -0.2585  0.3513
 2749W        W 3746   5.048   0.776   1.263 -0.0261  0.3904  0.1039
 2750W        W 3747   7.443   3.359   2.169  0.1436  0.3832  0.1288
 2751W        W 3748   0.855   4.554   4.470 -0.0209  0.0251 -0.0437
 2752W        W 3749   0.524   3.630   2.378 -0.0142 -0.3789  0.0630
 2753W        W 3750   3.868   7.441   1.662 -0.3927 -0.3908 -0.2603
 2754W        W 3751   6.027   1.297   2.271  0.3773 -0.2237  0.1037
 2755W        W 3752   2.885   1.452   1.934 -0.2364 -0.1616 -0.1615
 2756W        W 3753   3.558   6.617   5.032 -0.0121 -0.0763  0.0701
 2757W        W 3754   1.777   3.673   4.593 -0.2047  0.1269  0.0011
 2758W        W 3755   0.539   0.724   1.486  0.2174  0.3533 -0.0625
 2759W        W 3756   7.409   0.239   0.868  0.0422  0.1009 -0.1499
 2760W        W 3757   2.428   4.307   3.035  0.0135  0.0033  0.1229
 2761W        W 3758   1.027   5.881   5.290 -0.5871  0.0027  0.0416
 2762W        W 3759   6.824   2.422   7.163 -0.1954 -0.1324 -0.0635
 2763W        W 3760   1.606   6.512   1.604  0.0118  0.1672 -0.0342
 2764W        W 3761   4.804   1.993   4.187 -0.0540 -0.1636  0.1569
 2765W        W 3762   1.662   1.193   5.680 -0.0606  0.0399  0.0837
 2766W        W 3763   0.940   2.829   2.664 -0.0710 -0.1328 -0.0247
 2767W        W 3764   1.259   7.428   6.116 -0.0467  0.2193  0.0547
 2768W        W 3765   5.189   4.559   5.883 -0.5543  0.0113 -0.1112
 2769W        W 3766   3.536   6.006   5.254  0.2034  0.0226  0.4992
 2770W        W 3767   7.465   4.065   1.537  0.1376 -0.1164  0.2224
 2771W        W 3768   2.880   0.686   7.420  0.1782 -0.0785  0.1746
 2772W        W 3769   1.644   4.186   4.311  0.2967 -0.0098  0.1556
 2773W        W 3770   2.838   1.311   1.092 -0.1349 -0.1077  0.3373
 2774W        W 3771   3.204   5.203   7.390 -0.0259 -0.0315  0.0446
 2775W        W 3772   3.277   4.098   4.417 -0.2145 -0.0080 -0.1422
 2776W        W 3773   6.549   2.375   1.503 -0.2224 -0.2470  0.0002
 2777W        W 3774   7.328   5.270   1.414  0.1432  0.1383  0.0253
 2778W        W 3775   7.399   2.202   0.192  0.2760 -0.0749  0.1185
 2779W        W 3776   6.999   6.291   3.800 -0.0293 -0.0269  0.0070
 2780W        W 3777   7.109   0.470   5.127  0.1284  0.2339 -0.0929
 2781W        W 3778   0.439   0.925   3.289  0.2216 -0.1048 -0.0249
 2782W        W 3779   6.447   0.853   7.685 -0.1791 -0.0758  0.1596
 2783W        W 3780   0.741   4.318   5.404 -0.0944  0.2826  0.1002
 2784W        W 3781   6.127   4.043   0.487  0.0925 -0.0252  0.1947
 2785W        W 3782   5.653   3.837   4.062 -0.2627  0.1572  0.1411
 2786W        W 3783   5.846   3.101   4.604 -0.3000 -0.2333  0.2985
 2787W        W 3784   3.142   2.070   7.011  0.1550 -0.1125  0.0943
 2788W        W 3785   0.796   5.860   7.519 -0.2748  0.1258 -0.1056
 2789W        W 3786   0.452   7.299   2.957  0.1157 -0.1154  0.1415
 2790W        W 3787   5.810   2.728   2.708  0.1929 -0.2969 -0.1165
 2791W        W 3788   5.181   3.672   4.311 -0.2091 -0.1394  0.0656
 2792W        W 3789   6.490   4.257   1.885 -0.1953  0.3608  0.2353
 2793W        W 3790   7.177   6.904   2.016  0.0123  0.2682  0.1770
 2794W        W 3791   1.507   4.288   0.153 -0.0651  0.0103  0.0419
 2795W        W 3792   1.194   0.418   0.171  0.3789  0.0237 -0.1470
 2796W        W 3793   0.631   3.115   4.568  0.0613  0.2276  0.0255
 2797W        W 3794   4.269   4.067   6.718 -0.0334  0.1842  0.1509
 2798W        W 3795   0.672   6.314   2.024  0.0794  0.0351  0.0617
 2799W        W 3796   5.422   2.775   3.007 -0.0200 -0.2818 -0.3533
 2800W        W 3797   4.702   7.516   3.278 -0.1204 -0.1198  0.0282
 2801W        W 3798   4.617   4.031   0.384 -0.0489  0.0054  0.0031
 2802W        W 3799   5.872   0.975   7.634 -0.2032 -0.1377 -0.0163
 2803W        W 3800   2.120   3.612   5.462  0.0193  0.0716 -0.3590
 2804W        W 3801   1.153   3.148   1.674 -0.1416 -0.1339 -0.0873
 2805W        W 3802   6.980   6.541   3.260  0.3370  0.2428  0.0574
 2806W        W 3803   0.512   1.445   0.869 -0.1791 -0.0648 -0.0635
 2807W        W 3804   0.131   6.631   5.323 -0.0021 -0.0913 -0.0808
 2808W        W 3805   1.732   5.942   3.677  0.2823  0.1275  0.0318
 2809W        W 3806   6.362   0.008   4.590  0.2603  0.2167 -0.1287
 2810W        W 3807   0.233   4.955   5.726 -0.1499  0.1074  0.0905
 2811W        W 3808   4.674   3.301   3.128 -0.0301 -0.2592 -0.0564
 2812W        W 3809   5.243   2.162   5.620 -0.2243 -0.2747 -0.0004
 2813W        W 3810   2.154   1.411   4.129 -0.0097  0.0187 -0.1092
 2814W        W 3811   2.718   0.851   4.395  0.1608 -0.0901 -0.0828
 2815W        W 3812   6.985   5.726   5.553  0.0427 -0.2562  0.0357
 2816W        W 3813   3.967   3.210   5.192  0.1382 -0.0323  0.0257
 2817W        W 3814   6.284   1.699   2.085 -0.0118 -0.1499 -0.1201
 2818W        W 3815   6.849   4.331   3.916 -0.1679 -0.3922  0.4595
 2819W        W 3816   1.303   3.755   5.272 -0.0666 -0.1028  0.2231
 2820W        W 3817   1.081   2.902   7.627 -0.1765 -0.3702 -0.2388
 2821W        W 3818   0.373   2.988   7.061 -0.2294  0.2888 -0.4028
 2822W        W 3819   7.662   3.963   5.927  0.4053 -0.0016  0.1276
 2823W        W 3820   3.401   5.992   2.928 -0.0644 -0.1313  0.0358
 2824W        W 3821   3.745   1.230   4.084 -0.3315 -0.0142  0.1122
 2825W        W 3822   7.067   7.073   3.773 -0.2455 -0.0413 -0.2937
 2826W        W 3823   0.112   2.266   5.241  0.1864  0.0884 -0.2820
 2827W        W 3824   1.580   1.116   1.622  0.0755  0.3503  0.3725
 2828W        W 3825   5.774   2.339   4.165 -0.1189  0.1342  0.0918
 2829W        W 3826   6.512   4.023   7.238 -0.4445 -0.2805  0.0908
 2830W        W 3827   1.242   1.459   1.416  0.0698  0.2832  0.0332
 2831W        W 3828   4.423   3.739   7.095 -0.0888  0.1503  0.0243
 2832W        W 3829   3.080   0.542   2.898  0.2344  0.0153 -0.0084
 2833W        W 3830   2.456   3.316   2.906 -0.0333 -0.2394 -0.0954
 2834W        W 3831   5.623   7.597   3.648  0.3998 -0.1389 -0.0066
 2835W        W 3832   3.518   0.365   3.708  0.2694 -0.0661  0.0110
 2836W        W 3833   2.830   7.083   6.141 -0.0429  0.1195 -0.2129
 2837W        W 3834   0.928   0.744   5.727  0.1579 -0.2876  0.2135
 2838W        W 3835   5.337   0.416   6.268  0.1092 -0.0503  0.1081
 2839W        W 3836   2.463   4.273   4.710  0.1676  0.0869  0.1924
 2840W        W 3837   2.763   5.019   1.650  0.4497 -0.2317 -0.2142
 2841W        W 3838   7.081   7.528   1.407  0.0156  0.1369  0.0539
 2842W        W 3839   3.914   0.902   1.645 -0.2751  0.0446  0.1558
 2843W        W 3840   2.606   4.214   1.975 -0.2998 -0.1081  0.1290
 2844W        W 3841   0.443   1.745   5.935  0.2789  0.0401  0.1805
 2845W        W 3842   4.318   0.849   3.516  0.1797 -0.1056 -0.3025
 2846W        W 3843   6.422   3.317   3.116  0.1232  0.0303 -0.0188
 2847W        W 3844   3.037   5.452   1.416 -0.3199 -0.0144 -0.0237
 2848W        W 3845   1.485   5.209   7.601  0.1131 -0.2063 -0.0709
 2849W        W 3846   4.158   4.133   0.784 -0.0276 -0.0045  0.2010
 2850W        W 3847   7.571   4.280   0.380 -0.0150  0.1986 -0.1884
 2851W        W 3848   1.574   6.142   5.186 -0.0130 -0.0780 -0.0457
 2852W        W 3849   4.097   0.035   0.339  0.1045 -0.0249 -0.0947
 2853W        W 3850   3.073   3.523   5.126 -0.0117  0.0349 -0.1761
 2854W        W 3851   3.188   7.613   1.627 -0.0110 -0.0013 -0.3375
 2855W        W 3852   6.716   1.763   5.773 -0.2159 -0.0097 -0.0637
 2856W        W 3853   4.475   2.232   0.593 -0.0765  0.2628  0.0443
 2857W        W 3854   4.118   4.409   0.265 -0.0479  0.0187 -0.1077
 2858W        W 3855   1.515   5.657   7.064  0.2039 -0.2951  0.0097
 2859W        W 3856   4.059   6.613   4.893  0.0011  0.0861  0.3669
 2860W        W 3857   5.985   0.110   5.462  0.0329  0.0715 -0.2770
 2861W        W 3858   1.912   6.307   0.040  0.1540  0.3304 -0.0981
 2862W        W 3859   3.510   3.009   6.686 -0.2379  0.1356  0.4494
 2863W        W 3860   0.810   6.209   5.028 -0.1140 -0.5488 -0.0054
 2864W        W 3861   2.747   1.014   5.905  0.1662 -0.1454  0.1336
 2865W        W 3862   5.908   2.385   6.012 -0.1648 -0.4360 -0.0519
 2866W        W 3863   3.860   1.405   5.970 -0.0962  0.2817  0.0652
 2867W        W 3864   6.609   2.919   2.740  0.1208 -0.0007 -0.0572
 2868W        W 3865   0.165   0.985   2.072 -0.2836  0.1301  0.0724
 2869W        W 3866   1.029   4.885   2.370  0.0590 -0.0247 -0.2356
 2870W        W 3867   4.413   1.120   0.081  0.0554 -0.0663  0.2103
 2871W        W 3868   7.107   4.403   4.343 -0.2621 -0.2368  0.1367
 2872W        W 3869   2.334   1.818   6.443 -0.1747 -0.1373  0.1285
 2873W        W 3870   1.201   2.043   2.421 -0.2762 -0.0824  0.0355
 2874W        W 3871   3.135   0.987   2.998 -0.2307  0.0673 -0.2189
 2875W        W 3872   5.306   7.686   4.031 -0.4880 -0.0864 -0.0741
 2876W        W 3873   6.432   2.013   1.208 -0.0134 -0.1419  0.0226
 2877W        W 3874   0.215   4.584   4.496  0.0671  0.0144 -0.0788
 2878W        W 3875   0.782   1.263   0.294 -0.1779  0.0449  0.2599
 2879W        W 3876   2.819   0.668   6.910 -0.0464 -0.1934  0.0067
 2880W        W 3877   6.807   0.928   3.671  0.0420 -0.1977 -0.0435
 2881W        W 3878   3.849   1.057   0.764 -0.2301  0.1701 -0.3106
 2882W        W 3879   4.862   0.405   1.567  0.2148 -0.1503 -0.1073
 2883W        W 3880   0.918   4.576   0.086  0.0901  0.2800  0.0992
 2884W        W 3881   0.329   1.272   1.626 -0.0038 -0.1091  0.1953
 2885W        W 3882   2.196   1.649   2.182 -0.0811  0.2097  0.0889
 2886W        W 3883   2.349   2.735   2.231  0.1088 -0.1997 -0.3976
 2887W        W 3884   5.678   3.271   2.877 -0.2085  0.0358  0.0209
 2888W        W 3885   4.415   2.077   7.451 -0.0711 -0.4236  0.2061
 2889W        W 3886   2.097   6.450   5.775 -0.2000 -0.2336 -0.1920
 2890W        W 3887   1.642   3.118   3.672 -0.1664 -0.0335 -0.0486
 2891W        W 3888   1.045   3.862   2.330  0.0599 -0.2686  0.0230
 2892W        W 3889   7.315   0.873   0.748  0.0381  0.1846  0.0147
 2893W        W 3890   6.860   0.035   7.271  0.1611  0.0501 -0.2278
 2894W        W 3891   1.912   0.713   4.767 -0.4771 -0.1752 -0.2391
 2895W        W 3892   4.437   3.014   6.936  0.2118  0.0966  0.0056
 2896W        W 3893   0.622   4.620   2.769 -0.0343 -0.1002 -0.2496
 2897W        W 3894   1.690   3.926   6.166  0.0983  0.1723  0.0078
 2898W        W 3895   0.215   5.309   6.698  0.1872 -0.0858 -0.0700
 2899W        W 3896   0.580   7.399   0.598 -0.2609 -0.2269 -0.0685
 2900W        W 3897   3.699   5.130   5.709  0.1175 -0.2352 -0.0229
 2901W        W 3898   3.297   7.289   7.410  0.1625  0.0541 -0.0580
 2902W        W 3899   6.896   3.834   2.092 -0.2805  0.1826 -0.2695
 2903W        W 3900   6.217   1.778   5.917 -0.3353  0.0623 -0.1861
 2904W        W 3901   6.664   5.478   5.853 -0.2219 -0.0272 -0.0642
 2905W        W 3902   3.517   6.934   2.499  0.1594  0.1020 -0.4625
 2906W        W 3903   2.616   2.633   6.697 -0.2361  0.1377  0.2504
 2907W        W 3904   6.621   0.452   2.134 -0.0378 -0.1847 -0.1780
 2908W        W 3905   7.144   0.913   2.651  0.0964 -0.0874 -0.3155
 2909W        W 3906   1.025   0.680   2.620  0.0309  0.2836  0.0074
 2910W        W 3907   0.108   2.508   0.291 -0.1716 -0.3224 -0.0824
 2911W        W 3908   7.302   1.590   0.917 -0.2193  0.0462  0.2743
 2912W        W 3909   0.533   6.274   4.373  0.2299  0.1935  0.0605
 2913W        W 3910   2.734   4.981   3.650 -0.2317 -0.3165  0.1009
 2914W        W 3911   1.601   1.955   2.760 -0.0842 -0.3435 -0.0165
 2915W        W 3912   6.352   2.048   2.939 -0.1601  0.1497  0.2540
 2916W        W 3913   6.176   3.903   6.906 -0.1032 -0.2444 -0.2268
 2917W        W 3914   1.886   2.568   6.609  0.1134 -0.0875 -0.2575
 2918W        W 3915   7.385   5.836   7.141  0.0828  0.1553  0.1089
 2919W        W 3916   4.761   0.510   2.050  0.2340 -0.1481  0.1987
 2920W        W 3917   2.890   5.471   4.857  0.0990 -0.2546  0.2323
 2921W        W 3918   0.293   3.088   0.266 -0.2625 -0.0012  0.1092
 2922W        W 3919   0.788   6.781   1.958  0.1532  0.0949 -0.1295
 2923W        W 3920   0.334   6.763   3.899  0.0420 -0.2606  0.3092
 2924W        W 3921   4.908   2.313   1.173  0.0165 -0.2631 -0.0525
 2925W        W 3922   2.269   0.145   5.971  0.1515 -0.0944  0.1868
 2926W        W 3923   5.734   2.633   1.829 -0.1960 -0.1148  0.0486
 2927W        W 3924   4.649   1.859   0.978  0.0792 -0.1068  0.0503
 2928W        W 3925   0.301   6.739   2.061 -0.1332 -0.3114  0.1084
 2929W        W 3926   6.635   2.761   5.990 -0.2522  0.0703  0.1539
 2930W        W 3927   1.229   4.587   4.014  0.1689 -0.1999 -0.0042
 2931W        W 3928   6.497   0.059   5.642 -0.1818 -0.2863  0.1122
 2932W        W 3929   5.697   0.902   3.089  0.0307  0.2051  0.3682
 2933W        W 3930   4.433   1.364   3.385  0.0648 -0.0633  0.1311
 2934W        W 3931   1.129   3.275   3.927  0.0265  0.0220 -0.1026
 2935W        W 3932   7.192   0.544   1.781  0.1552  0.0685 -0.1898
 2936W        W 3933   1.708   6.047   0.457 -0.1123 -0.0996  0.0582
 2937W        W 3934   3.684   0.907   6.003  0.0539  0.1347  0.0104
 2938W        W 3935   6.483   0.228   3.566  0.1122 -0.2077  0.0143
 2939W        W 3936   2.563   7.226   0.895  0.1069  0.1425  0.1177
 2940W        W 3937   3.853   3.224   6.185  0.0483  0.0515 -0.0472
 2941W        W 3938   7.639   2.789   0.730 -0.2713  0.0156 -0.4402
 2942W        W 3939   5.090   1.747   7.013  0.0925 -0.0379 -0.1610
 2943W        W 3940   3.625   3.149   7.107 -0.1231 -0.2141  0.2062
 2944W        W 3941   5.156   4.061   1.141  0.3025  0.0228  0.2000
 2945W        W 3942   6.144   3.209   4.146 -0.3688  0.1225  0.1753
 2946W        W 3943   3.814   4.283   7.601 -0.0483 -0.1809  0.3430
 2947W        W 3944   1.123   2.415   3.994 -0.2024  0.1512  0.0858
 2948W        W 3945   6.279   4.148   2.672 -0.2175  0.1528 -0.2457
 2949W        W 3946   2.458   5.869   3.078  0.1470  0.0770  0.0988
 2950W        W 3947   7.118   1.760   3.606 -0.0276 -0.0557 -0.3290
 2951W        W 3948   2.811   6.916   4.573 -0.2655 -0.0251  0.1438
 2952W        W 3949   0.067   7.007   1.405 -0.3075  0.0994  0.3384
 2953W        W 3950   1.692   1.859   2.301 -0.1994 -0.1066  0.3526
 2954W        W 3951   4.156   5.815   6.114  0.1322  0.2161  0.0415
 2955W        W 3952   5.166   1.716   4.003  0.1408  0.3762  0.0323
 2956W        W 3953   1.877   0.514   3.637 -0.1787 -0.0630 -0.0940
 2957W        W 3954   7.527   6.134   7.546 -0.0526 -0.2517 -0.2308
 2958W        W 3955   3.886   2.156   7.587 -0.2895 -0.0082  0.0496
 2959W        W 3956   2.225   3.461   6.371  0.0820  0.0426 -0.1487
 2960W        W 3957   3.619   5.099   0.193  0.4023  0.2348 -0.2222
 2961W        W 3958   2.437   2.787   4.220  0.0882 -0.0770 -0.1886
 2962W        W 3959   6.068   1.637   1.341 -0.1250 -0.2164  0.2109
 2963W        W 3960   1.514   6.688   2.061 -0.0595 -0.2248 -0.0032
 2964W        W 3961   2.389   6.668   4.879 -0.0376 -0.2670 -0.0191
 2965W        W 3962   4.917   1.513   6.369  0.0102 -0.0015  0.2032
 2966W        W 3963   0.016   1.775   0.114  0.1820 -0.1948 -0.0896
 2967W        W 3964   1.462   6.289   6.492 -0.0046 -0.0126  0.0507
 2968W        W 3965   3.254   1.455   4.760 -0.1219 -0.1015  0.0737
 2969W        W 3966   5.649   0.596   3.514  0.0709  0.0720 -0.0793
 2970W        W 3967   3.015   4.853   1.051 -0.0988 -0.2628  0.0110
 2971W        W 3968   3.986   5.329   4.829  0.2438  0.1482  0.1278
 2972W        W 3969   3.866   2.070   1.974 -0.2588  0.2150 -0.2419
 2973W        W 3970   0.015   0.957   3.012  0.0362  0.2625  0.4220
 2974W        W 3971   1.838   4.416   1.514  0.3886  0.0412  0.0119
 2975W        W 3972   0.253   7.220   4.206  0.1058  0.2226 -0.0297
 2976W        W 3973   6.055   2.032   5.559  0.5677 -0.1606  0.0570
 2977W        W 3974   5.282   3.162   7.126  0.0385  0.1528  0.1825
 2978W        W 3975   5.401   2.950   5.406 -0.0738 -0.1241 -0.0699
 2979W        W 3976   2.826   2.741   2.395 -0.1474 -0.0108 -0.0298
 2980W        W 3977   2.496   6.640   2.762  0.1496 -0.3858 -0.1224
 2981W        W 3978   6.257   3.315   1.224 -0.1557  0.0983  0.0291
 2982W        W 3979   6.790   2.852   1.822 -0.2076  0.1813 -0.0669
 2983W        W 3980   1.656   5.977   4.309  0.0700  0.4189  0.0081
 2984W        W 3981   0.941   2.297   6.659  0.3112  0.0632 -0.0082
 2985W        W 3982   2.753   5.241   5.326 -0.1799 -0.0967 -0.2494
 2986W        W 3983   2.943   4.377   5.597  0.1417 -0.1926  0.1502
 2987W        W 3984   4.188   2.443   2.233  0.1767  0.1869 -0.2992
 2988W        W 3985   1.006   1.860   7.274  0.1908 -0.1386  0.0440
 2989W        W 3986   0.853   0.314   2.371 -0.0649 -0.1222  0.1543
 2990W        W 3987   7.240   6.122   6.755 -0.0200 -0.0762 -0.2699
 2991W        W 3988   2.335   0.475   0.130 -0.0283  0.3970 -0.1857
 2992W        W 3989   1.767   7.067   2.312 -0.4283 -0.3703  0.1527
 2993W        W 3990   3.360   6.415   3.240 -0.2207  0.0144  0.0359
 2994W        W 3991   6.910   1.342   3.325  0.0501 -0.1711  0.3092
 2995W        W 3992   1.870   6.462   3.625 -0.0898 -0.0271  0.3054
 2996W        W 3993   0.540   1.923   1.868  0.0761 -0.0440  0.0314
 2997W        W 3994   4.471   2.920   4.104 -0.2792  0.3339  0.0682
 2998W        W 3995   2.578   6.005   6.973  0.2053  0.0069  0.0493
 2999W        W 3996   6.440   2.145   0.512  0.1909  0.1446  0.3564
 3000W        W 3997   6.539   4.438   6.771 -0.1777 -0.1049 -0.2179
 3001W        W 3998   3.606   7.090   4.483 -0.0226  0.0924  0.2280
 3002W        W 3999   6.847   3.375   0.973  0.0437  0.3447 -0.1210
 3003W        W 4000   0.564   4.189   2.503 -0.1317 -0.0869  0.1454
 3004W        W 4001   6.498   1.561   3.003 -0.0034 -0.1183 -0.1046
 3005W        W 4002   2.457   6.793   7.161  0.0829 -0.0719 -0.0534
 3006W        W 4003   4.991   1.605   1.253 -0.1656  0.4745 -0.0877
 3007W        W 4004   3.915   1.834   5.675 -0.1065  0.0771 -0.1435
 3008W        W 4005   1.905   7.319   3.800 -0.1602  0.0678  0.1309
 3009W        W 4006   2.073   3.981   2.148 -0.0111 -0.1552 -0.1874
 3010W        W 4007   1.523   5.531   5.890 -0.0457 -0.1280  0.0094
 3011W        W 4008   3.744   6.207   5.824  0.3157 -0.2149  0.0163
 3012W        W 4009   6.315   4.401   7.654  0.0023 -0.1081  0.4171
 3013W        W 4010   6.638   4.881   5.738  0.0424 -0.1626  0.0331
 3014W        W 4011   3.057   1.796   3.181  0.0263  0.1050 -0.3374
 3015W        W 4012   1.487   7.058   5.242 -0.0528 -0.0409 -0.0481
 3016W        W 4013   3.555   4.689   1.915  0.1577 -0.1480 -0.2958
 3017W        W 4014   1.417   1.693   5.603  0.1889 -0.1057  0.1869
 3018W        W 4015   1.225   7.318   4.056 -0.1283  0.0310 -0.2303
 3019W        W 4016   5.946   3.880   2.387 -0.3547 -0.0221  0.2945
 3020W        W 4017   6.425   7.295   5.503 -0.1881  0.2330 -0.0439
 3021W        W 4018   1.181   3.213   3.415  0.0135  0.2834  0.0398
 3022W        W 4019   5.826   3.942   0.932  0.3722  0.0969  0.1991
 3023W        W 4020   7.377   2.408   6.015  0.0515  0.0725 -0.1571
 3024W        W 4021   5.492   3.514   4.677 -0.1770  0.1644  0.1774
 3025W        W 4022   0.098   5.903   6.764  0.3637 -0.2653 -0.0416
 3026W        W 4023   1.992   2.497   5.127  0.0992  0.1289 -0.1145
 3027W        W 4024   0.558   7.206   1.121  0.0582  0.1564  0.2417
 3028W        W 4025   6.211   3.465   2.247 -0.0377  0.0092 -0.5457
 3029W        W 4026   0.547   5.800   2.102 -0.0679 -0.1017 -0.3111
 3030W        W 4027   2.229   6.466   1.539  0.0392 -0.0751  0.3138
 3031W        W 4028   0.243   4.274   4.067 -0.1290 -0.1365 -0.1077
 3032W        W 4029   4.852   1.176   1.008  0.0523  0.1087  0.1489
 3033W        W 4030   1.891   3.053   1.488  0.0474 -0.0149  0.4096
 3034W        W 4031   1.456   4.096   4.803 -0.5324  0.2412 -0.2021
 3035W        W 4032   6.751   0.921   0.460  0.0933  0.0358  0.1480
 3036W        W 4033   4.347   2.053   5.843  0.0335 -0.4710 -0.2127
 3037W        W 4034   3.879   1.929   6.664 -0.0199 -0.0306  0.1292
 3038W        W 4035   7.675   7.290   3.249  0.3075 -0.1248 -0.1001
 3039W        W 4036   2.340   4.457   7.447  0.1307  0.0353 -0.1416
 3040W        W 4037   6.278   4.168   6.457 -0.0531  0.1377  0.0896
 3041W        W 4038   3.737   1.514   5.096 -0.2129 -0.0910  0.0288
 3042W        W 4039   6.691   0.781   6.545 -0.2348 -0.0525  0.0845
 3043W        W 4040   5.709   3.264   5.632 -0.0833  0.0861  0.2119
 3044W        W 4041   1.474   6.457   0.341 -0.5379  0.0924 -0.1764
 3045W        W 4042   0.643   4.057   4.347 -0.0237 -0.2898 -0.0209
 3046W        W 4043   0.929   1.985   4.821  0.2196 -0.0687  0.0840
 3047W        W 4044   3.495   5.775   4.758  0.2719  0.0873 -0.3483
 3048W        W 4045   5.929   0.049   4.391 -0.2478  0.0423  0.1769
 3049W        W 4046   7.261   2.691   1.560 -0.1941  0.0654 -0.1595
 3050W        W 4047   5.237   1.957   1.025 -0.0130 -0.0189  0.0667
 3051W        W 4048   5.675   3.907   6.968  0.1409  0.0809 -0.2328
 3052W        W 4049   6.651   3.764   2.814 -0.0384 -0.2550 -0.5064
 3053W        W 4050   0.665   2.714   0.503 -0.2750 -0.0575 -0.2715
 3054W        W 4051   4.251   2.538   7.650  0.1306  0.3116 -0.0441
 3055W        W 4052   5.783   3.569   3.658  0.3013 -0.2700  0.0823
 3056W        W 4053   1.356   5.144   3.171 -0.0012 -0.0080 -0.0888
 3057W        W 4054   0.720   7.413   5.769  0.1276  0.0287  0.1910
 3058W        W 4055   4.619   1.180   5.526  0.1832  0.2675  0.3157
 3059W        W 4056   2.210   0.368   5.072 -0.1381 -0.2505 -0.2198
 3060W        W 4057   5.703   4.717   5.630 -0.3658  0.1299  0.1584
 3061W        W 4058   6.956   0.479   5.633 -0.1209 -0.0774  0.1882
 3062W        W 4059   1.928   3.318   6.792  0.3172 -0.0182 -0.0006
 3063W        W 4060   6.948   6.962   2.484  0.0925  0.1095  0.1464
 3064W        W 4061   3.694   0.221   0.082 -0.0096 -0.1369  0.0943
 3065W        W 4062   1.472   0.414   3.260  0.1691 -0.0915  0.1212
 3066W        W 4063   6.886   0.159   1.763  0.2198  0.0976 -0.3361
 3067W        W 4064   1.601   2.310   0.333  0.0386 -0.0539  0.0086
 3068W        W 4065   4.423   4.444   5.167 -0.2456 -0.2029  0.0873
 3069W        W 4066   5.341   1.009   3.446 -0.1274 -0.1225 -0.0848
 3070W        W 4067   1.861   0.627   1.673 -0.0881  0.3486 -0.0189
 3071W        W 4068   5.436   4.155   6.170 -0.0253  0.0064  0.0523
 3072W        W 4069   5.406   2.459   1.019  0.1138 -0.1077 -0.0184
 3073W        W 4070   2.805   2.455   7.142 -0.2583  0.3919  0.0057
 3074W        W 4071   3.188   1.291   2.337 -0.1279 -0.0561 -0.3806
 3075W        W 4072   5.029   3.226   6.146  0.0762  0.1487  0.1032
 3076W        W 4073   1.136   2.957   0.419  0.2578  0.2263  0.0905
 3077W        W 4074   4.424   2.921   1.534 -0.2321  0.0496  0.1569
 3078W        W 4075   2.655   6.679   7.663  0.0692  0.1402 -0.1596
 3079W        W 4076   0.131   2.625   7.278 -0.1711  0.0529 -0.0633
 3080W        W 4077   0.224   7.188   0.188 -0.0713  0.0176 -0.1034
 3081W        W 4078   1.642   3.310   0.456  0.1502 -0.3817 -0.2474
 3082W        W 4079   0.120   0.168   2.891 -0.2347 -0.1281 -0.0135
 3083W        W 4080   6.734   4.077   6.186  0.0168  0.1228 -0.0189
 3084W        W 4081   3.298   5.404   0.368  0.2230  0.3958 -0.0691
 3085W        W 4082   2.221   5.212   7.065  0.4543  0.2037 -0.2072
 3086W        W 4083   2.953   2.109   1.755  0.2102  0.2954 -0.0681
 3087W        W 4084   3.240   2.196   3.659 -0.1742  0.2033  0.0464
 3088W        W 4085   4.423   0.285   5.426 -0.2350  0.3196  0.0616
 3089W        W 4086   2.913   4.550   6.144  0.0805  0.0147 -0.1685
 3090W        W 4087   7.209   3.027   0.867 -0.0155  0.0520  0.0467
 3091W        W 4088   1.309   6.033   6.069 -0.2250  0.2404  0.0432
 3092W        W 4089   1.765   5.202   5.580  0.0341 -0.2412 -0.0287
 3093W        W 4090   0.840   1.184   2.478  0.0194 -0.2719  0.1019
 3094W        W 4091   5.478   4.337   7.046  0.2338  0.1007 -0.1460
 3095W        W 4092   2.295   5.024   5.629 -0.1605 -0.2071 -0.3163
 3096W        W 4093   0.434   3.534   4.801  0.0308  0.2734 -0.3140
 3097W        W 4094   1.566   0.517   4.051  0.1028 -0.0257 -0.0068
 3098W        W 4095   4.758   2.367   2.268 -0.0353 -0.0177  0.2139
 3099W        W 4096   3.676   0.140   0.597  0.2463  0.1031 -0.1113
 3100W        W 4097   7.134   2.817   2.877  0.1115 -0.2842 -0.0935
 3101W        W 4098   3.812   0.110   2.124 -0.1704 -0.2939  0.0196
 3102W        W 4099   2.229   0.383   2.624 -0.2737  0.2627  0.2145
 3103W        W 4100   3.125   0.920   6.224  0.2233 -0.0646  0.1515
 3104W        W 4101   1.344   0.955   6.716 -0.4153 -0.2227  0.1563
 3105W        W 4102   5.928   2.027   0.517  0.2285  0.1913 -0.2237
 3106W        W 4103   1.734   2.590   4.693  0.2117  0.0623  0.0645
 3107W        W 4104   0.289   2.083   0.421 -0.1100  0.3442  0.0180
 3108W        W 4105   6.459   1.359   6.055 -0.4225 -0.0578 -0.0542
 3109W        W 4106   5.324   1.823   6.549 -0.1726  0.1110  0.2198
 3110W        W 4107   1.182   1.048   6.254 -0.0809 -0.0840 -0.1734
 3111W        W 4108   6.974   5.534   7.010  0.0918 -0.0112 -0.1930
 3112W        W 4109   1.123   1.246   5.741 -0.2767  0.3401  0.1289
 3113W        W 4110   3.034   1.864   4.018 -0.3114  0.0326 -0.0469
 3114W        W 4111   3.730   3.153   3.052  0.1092 -0.2333  0.3174
 3115W        W 4112   1.598   6.867   3.836  0.0249  0.0519 -0.0982
 3116W        W 4113   2.748   4.709   5.244 -0.3341  0.0393  0.0039
 3117W        W 4114   6.589   4.368   5.160  0.0308 -0.1417 -0.1341
 3118W        W 4115   0.669   2.561   3.810 -0.0525  0.1067  0.0488
 3119W        W 4116   0.187   6.555   0.108 -0.2107 -0.1246 -0.1951
 3120W        W 4117   5.589   1.752   7.057 -0.0821 -0.1754 -0.2431
 3121W        W 4118   3.390   6.393   5.535  0.2671 -0.0619 -0.0231
 3122W        W 4119   6.057   1.341   3.118 -0.0077 -0.2255  0.1226
 3123W        W 4120   3.572   0.977   1.149 -0.0153 -0.1243  0.1878
 3124W        W 4121   1.912   4.343   4.790  0.2989 -0.1879  0.2035
 3125W        W 4122   3.081   2.041   5.537  0.0245 -0.2079  0.2651
 3126W        W 4123   2.593   4.109   5.870  0.4201  0.3995 -0.0469
 3127W        W 4124   5.413   4.640   4.848  0.1697  0.1673 -0.1790
 3128W        W 4125   3.962   1.077   5.008 -0.0725  0.2181  0.1783
 3129W        W 4126   3.580   3.872   0.086 -0.1151 -0.0972  0.0334
 3130W        W 4127   2.611   4.795   0.105  0.0564 -0.0383  0.1276
 3131W        W 4128   0.418   3.832   7.419  0.1536  0.1339  0.1076
 3132W        W 4129   5.314   0.996   2.835  0.1451 -0.0736  0.0742
 3133W        W 4130   3.722   1.591   0.100  0.0772 -0.1083  0.0940
 3134W        W 4131   4.523   3.209   1.040  0.1004  0.1685 -0.1039
 3135W        W 4132   0.161   2.460   5.700  0.3383  0.0622  0.1083
 3136W        W 4133   4.088   2.606   2.730 -0.0347 -0.3003  0.0669
 3137W        W 4134   1.549   3.954   1.738  0.0263  0.0407 -0.2621
 3138W        W 4135   3.751   4.244   1.026  0.1083 -0.1080 -0.2744
 3139W        W 4136   3.686   0.341   7.146  0.2195 -0.6917  0.0221
 3140W        W 4137   5.765   1.861   0.980  0.4072 -0.2206  0.0022
 3141W        W 4138   3.261   5.397   5.781 -0.1952  0.1761  0.0456
 3142W        W 4139   6.829   0.514   0.813 -0.1516  0.2105  0.1345
 3143W        W 4140   1.834   5.010   2.718 -0.0474 -0.2313 -0.0537
 3144W        W 4141   4.772   0.011   5.709  0.2036  0.1259  0.0534
 3145W        W 4142   5.172   3.935   3.567 -0.0187 -0.2519  0.0503
 3146W        W 4143   7.268   0.843   6.443  0.3663  0.1564  0.0215
 3147W        W 4144   5.046   1.333   5.763 -0.0644 -0.1644 -0.1498
 3148W        W 4145   4.272   0.367   2.150  0.0029 -0.2415  0.0288
 3149W        W 4146   7.295   3.290   7.427 -0.2140 -0.0395  0.4632
 3150W        W 4147   7.467   0.196   4.359 -0.2818  0.1517  0.0359
 3151W        W 4148   1.374   4.695   5.475  0.0328 -0.1613  0.1865
 3152W        W 4149   7.205   6.932   4.890 -0.0505 -0.0534  0.1602
 3153W        W 4150   6.646   6.734   4.765 -0.2553 -0.2333 -0.1790
 3154W        W 4151   3.047   6.567   5.077  0.1082  0.1370 -0.0247
 3155W        W 4152   0.937   3.586   4.998 -0.1803  0.0977  0.1120
 3156W        W 4153   0.774   3.162   5.698  0.0630  0.0128 -0.0536
 3157W        W 4154   1.712   0.166   6.634  0.3246  0.1401  0.0253
 3158W        W 4155   2.342   7.186   7.512 -0.4392  0.3616  0.1759
 3159W        W 4156   2.332   1.183   2.047 -0.1192  0.2887 -0.0621
 3160W        W 4157   6.133   1.728   5.126  0.2766 -0.3540 -0.1695
 3161W        W 4158   4.639   1.643   0.486  0.2882 -0.2887 -0.1356
 3162W        W 4159   5.518   0.509   2.215  0.2079  0.3921 -0.1406
 3163W        W 4160   6.513   2.509   5.112  0.0437  0.0796  0.3223
 3164W        W 4161   2.492   4.561   6.492  0.0290 -0.0597  0.2153
 3165W        W 4162   3.304   7.017   0.108  0.2335 -0.0853 -0.2011
 3166W        W 4163   3.047   1.178   3.423 -0.3057  0.0618  0.0077
 3167W        W 4164   7.485   4.108   4.902 -0.0615 -0.4283  0.0102
 3168W        W 4165   2.070   4.373   3.820 -0.0391 -0.1133 -0.0968
 3169W        W 4166   4.613   4.113   4.207 -0.0514 -0.2612 -0.0111
 3170W        W 4167   4.750   3.747   4.532 -0.1693  0.4119  0.2001
 3171W        W 4168   3.832   2.811   4.810 -0.0952 -0.1150 -0.1731
 3172W        W 4169   7.254   5.753   2.429 -0.2286  0.0318 -0.1425
 3173W        W 4170   7.172   1.993   5.765  0.0735 -0.2252  0.0058
 3174W        W 4171   6.514   7.116   3.980 -0.0523 -0.2492  0.0185
 3175W        W 4172   0.030   3.827   3.760 -0.1683 -0.0472  0.2391
 3176W        W 4173   1.936   2.109   6.243  0.2479  0.0571  0.2465
 3177W        W 4174   0.501   3.991   0.351  0.3125  0.2231 -0.0243
 3178W        W 4175   1.723   0.903   2.056  0.1591  0.1078  0.0636
 3179W        W 4176   7.578   5.764   6.282  0.2991 -0.1851  0.1766
 3180W        W 4177   1.355   1.476   6.555  0.0156  0.0958  0.3332
 3181W        W 4178   1.875   0.697   5.350  0.1070  0.0178  0.3089
 3182W        W 4179   3.958   3.521   0.780  0.0639 -0.1858  0.1101
 3183W        W 4180   6.909   3.289   1.985 -0.2274  0.0573 -0.1756
 3184W        W 4181   6.933   6.560   5.166 -0.1157 -0.0909 -0.1442
 3185W        W 4182   3.132   4.929   2.771  0.2408  0.1708  0.1464
 3186W        W 4183   3.314   2.701   6.330  0.1201 -0.2953  0.0439
 3187W        W 4184   6.246   2.591   0.507  0.1256  0.0617 -0.0220
 3188W        W 4185   6.925   2.327   0.736  0.2182  0.1176 -0.0288
 3189W        W 4186   5.206   2.579   6.565 -0.4561 -0.3179  0.3093
 3190W        W 4187   3.955   4.530   6.525 -0.2410 -0.0806  0.0743
 3191W        W 4188   3.168   6.149   2.512  0.1387 -0.1314 -0.0220
 3192W        W 4189   0.832   4.050   6.385  0.3754 -0.0007 -0.2665
 3193W        W 4190   5.905   1.049   3.517  0.0720  0.2834 -0.3328
 3194W        W 4191   2.606   3.966   7.299 -0.0774 -0.0837 -0.3663
 3195W        W 4192   0.081   5.651   1.741  0.1416  0.0310  0.2821
 3196W        W 4193   5.524   1.409   3.718  0.1255 -0.1097 -0.1250
 3197W        W 4194   1.373   0.824   2.948  0.1193  0.0176 -0.2525
 3198W        W 4195   3.721   3.996   4.641 -0.4385  0.0097 -0.1574
 3199W        W 4196   1.274   2.045   0.631 -0.0109  0.0894 -0.0457
 3200W        W 4197   0.933   7.452   2.899 -0.0712 -0.0093  0.1036
 3201W        W 4198   4.222   7.582   3.081 -0.0060  0.2255  0.0241
 3202W        W 4199   1.529   1.217   0.076  0.2306 -0.1182 -0.1002
 3203W        W 4200   5.311   2.493   4.159 -0.0376  0.1002  0.0979
 3204W        W 4201   5.576   1.991   0.071  0.2319 -0.0492 -0.0316
 3205W        W 4202   5.254   3.360   5.124  0.1485 -0.0918 -0.1179
 3206W        W 4203   0.877   5.794   1.727 -0.1708 -0.3522 -0.2241
 3207W        W 4204   1.616   4.842   5.924 -0.1717  0.0236  0.1232
 3208W        W 4205   1.919   5.201   2.228 -0.3051 -0.0953 -0.3218
 3209W        W 4206   1.086   3.305   7.175  0.2849  0.1143 -0.0283
 3210W        W 4207   1.502   7.578   7.320  0.0209 -0.2051  0.1999
 3211W        W 4208   1.162   6.778   5.949  0.2074 -0.2613 -0.2606
 3212W        W 4209   4.251   2.886   4.564 -0.2701 -0.2097  0.4279
 3213W        W 4210   2.661   1.296   4.264 -0.1089 -0.2691 -0.1616
 3214W        W 4211   7.248   2.617   0.420 -0.0272 -0.0396  0.0400
 3215W        W 4212   4.776   1.954   2.568 -0.0995 -0.1512 -0.1539
 3216W        W 4213   0.895   6.701   0.298 -0.3151 -0.0516 -0.0615
 3217W        W 4214   4.129   3.002   2.226 -0.1060  0.0933 -0.0730
 3218W        W 4215   3.331   7.635   7.025  0.0402 -0.0677  0.0497
 3219W        W 4216   7.265   7.060   6.636 -0.1021 -0.2498 -0.3321
 3220W        W 4217   2.574   3.524   3.381 -0.2415 -0.0086 -0.3324
 3221W        W 4218   4.248   3.511   3.947  0.3205  0.3578 -0.1520
 3222W        W 4219   2.794   4.424   4.276 -0.0369  0.1533  0.0537
 3223W        W 4220   2.110   2.367   3.727 -0.2907 -0.0882  0.3049
 3224W        W 4221   2.863   1.531   5.755 -0.0035 -0.1521  0.0751
 3225W        W 4222   4.791   2.775   6.295  0.2335  0.2979 -0.2972
 3226W        W 4223   6.173   3.538   0.410  0.0053 -0.2208 -0.0107
 3227W        W 4224   1.460   3.488   6.777  0.1686  0.0054  0.0917
 3228W        W 4225   2.153   1.053   5.536  0.0538  0.1923 -0.1796
 3229W        W 4226   3.537   6.786   0.573 -0.0907 -0.2846  0.0191
 3230W        W 4227   5.420   1.428   1.030  0.1551 -0.5078 -0.0811
 3231W        W 4228   3.516   4.964   7.091 -0.0262 -0.1629  0.0013
 3232W        W 4229   4.983   0.121   3.022 -0.2207  0.0640 -0.1613
 3233W        W 4230   3.600   0.797   2.862  0.0401 -0.2386  0.1257
 3234W        W 4231   1.454   0.721   5.910  0.0801 -0.2616  0.0430
 3235W        W 4232   0.534   4.982   0.380  0.3457 -0.0080  0.1236
 3236W        W 4233   0.019   4.261   2.502  0.1942  0.1208 -0.0938
 3237W        W 4234   3.315   2.849   0.139 -0.1446 -0.0553  0.3138
 3238W        W 4235   0.431   1.822   4.434 -0.2110 -0.1253 -0.0797
 3239W        W 4236   2.479   2.299   4.151 -0.2304 -0.0488  0.3584
 3240W        W 4237   2.191   1.565   0.330  0.0825 -0.2514 -0.3116
 3241W        W 4238   2.667   0.857   5.343 -0.1046 -0.0877 -0.3014
 3242W        W 4239   7.301   0.872   0.209  0.0649  0.1223 -0.0636
 3243W        W 4240   7.091   4.803   3.901  0.0131 -0.0402 -0.1701
 3244W        W 4241   3.360   1.363   6.041  0.0660 -0.3417 -0.0510
 3245W        W 4242   0.044   1.488   4.504  0.0136 -0.1046  0.0427
 3246W        W 4243   7.373   0.950   2.073 -0.0247  0.1135 -0.0748
 3247W        W 4244   7.648   1.424   2.203  0.1318  0.0975 -0.2238
 3248W        W 4245   4.005   2.708   6.813 -0.0156 -0.1738 -0.0892
 3249W        W 4246   5.557   7.527   4.589 -0.2739 -0.1107 -0.5124
 3250W        W 4247   6.877   2.177   4.877  0.1336  0.0577  0.0212
 3251W        W 4248   2.541   6.765   0.547  0.4007  0.0076  0.0443
 3252W        W 4249   4.850   0.293   2.537 -0.0830 -0.0813 -0.2271
 3253W        W 4250   7.279   3.714   6.954  0.0726 -0.1735  0.1143
 3254W        W 4251   0.782   1.440   1.745  0.1460 -0.0914  0.2599
 3255W        W 4252   0.295   7.106   2.498 -0.0529  0.1214  0.2041
 3256W        W 4253   0.953   0.181   0.653  0.0478  0.1506  0.2808
 3257W        W 4254   1.714   4.286   5.301  0.2084 -0.0620 -0.2973
 3258W        W 4255   0.661   4.930   2.092  0.3754 -0.1556 -0.0348
 3259W        W 4256   5.954   1.164   6.878 -0.0637  0.0815 -0.1863
 3260W        W 4257   0.246   4.815   0.815  0.0005  0.0834 -0.1102
 3261W        W 4258   5.717   3.471   2.358  0.0011  0.1335 -0.1281
 3262W        W 4259   6.887   1.562   0.315 -0.1660 -0.3779 -0.2290
 3263W        W 4260   7.650   2.159   3.259 -0.1046  0.0780 -0.2202
 3264W        W 4261   1.886   2.799   2.325  0.1122 -0.1390  0.0826
 3265W        W 4262   1.127   6.427   2.380 -0.3977 -0.1060 -0.1439
 3266W        W 4263   5.849   2.559   3.590 -0.3077 -0.1840  0.2801
 3267W        W 4264   6.336   0.754   1.838  0.0047 -0.1645  0.0897
 3268W        W 4265   1.808   7.159   7.221 -0.0672 -0.1896 -0.1573
 3269W        W 4266   2.627   7.229   6.627 -0.2100 -0.0634 -0.1822
 3270W        W 4267   6.603   3.204   5.768 -0.1067 -0.0386 -0.0775
 3271W        W 4268   1.299   1.320   1.976  0.0266 -0.1704  0.0076
 3272W        W 4269   0.344   1.124   2.593  0.2840  0.2966  0.2593
 3273W        W 4270   1.796   0.750   6.818 -0.0360 -0.1613 -0.2374
 3274W        W 4271   2.813   5.562   3.532 -0.0873 -0.2351  0.0889
 3275W        W 4272   4.681   4.651   6.041 -0.3670  0.0594 -0.2138
   7.69165   7.69165   7.69165
