Martini system from ../2_Creating_coordinates/TYR-ILE-TYR_aa.pdb
 4203
    1TYR     BB    1   0.161   5.420   6.738
    1TYR    SC1    2   0.269   5.528   6.473
    1TYR    SC2    3   0.281   5.610   6.216
    1TYR    SC3    4   0.508   5.581   6.359
    2ILE     BB    5   7.854   5.539   6.791
    2ILE    SC1    6   7.904   5.824   6.901
    3TYR     BB    7   7.675   5.552   6.515
    3TYR    SC1    8   7.847   5.759   6.358
    3TYR    SC2    9   7.941   5.932   6.173
    3TYR    SC3   10   0.017   5.956   6.431
    1TYR     BB   11   0.426   2.715   4.794
    1TYR    SC1   12   0.194   2.676   5.001
    1TYR    SC2   13   7.968   2.541   5.059
    1TYR    SC3   14   0.109   2.661   5.256
    2ILE     BB   15   0.399   2.415   4.644
    2ILE    SC1   16   0.241   2.488   4.388
    3TYR     BB   17   0.203   2.165   4.840
    3TYR    SC1   18   0.359   2.232   5.097
    3TYR    SC2   19   0.595   2.173   5.213
    3TYR    SC3   20   0.512   2.430   5.198
    1TYR     BB   21   5.998   6.586   0.338
    1TYR    SC1   22   5.935   6.285   0.310
    1TYR    SC2   23   5.838   6.072   0.176
    1TYR    SC3   24   5.897   6.050   0.438
    2ILE     BB   25   5.750   6.759   0.488
    2ILE    SC1   26   5.729   7.048   0.377
    3TYR     BB   27   5.593   6.715   0.817
    3TYR    SC1   28   5.479   6.436   0.747
    3TYR    SC2   29   5.295   6.248   0.688
    3TYR    SC3   30   5.515   6.274   0.534
    1TYR     BB   31   4.838   4.488   6.867
    1TYR    SC1   32   4.914   4.755   6.734
    1TYR    SC2   33   5.028   4.843   6.505
    1TYR    SC3   34   4.981   5.015   6.707
    2ILE     BB   35   4.759   4.308   6.588
    2ILE    SC1   36   4.759   4.015   6.687
    3TYR     BB   37   4.623   4.465   6.355
    3TYR    SC1   38   4.710   4.339   6.076
    3TYR    SC2   39   4.737   4.143   5.892
    3TYR    SC3   40   4.669   4.393   5.814
    1TYR     BB   41   0.361   4.775   3.941
    1TYR    SC1   42   0.551   4.646   3.740
    1TYR    SC2   43   0.765   4.486   3.778
    1TYR    SC3   44   0.593   4.435   3.577
    2ILE     BB   45   0.588   4.765   4.221
    2ILE    SC1   46   0.492   5.030   4.352
    3TYR     BB   47   0.868   4.606   4.314
    3TYR    SC1   48   0.953   4.359   4.159
    3TYR    SC2   49   0.857   4.134   4.045
    3TYR    SC3   50   1.123   4.181   4.047
    1TYR     BB   51   0.892   2.833   4.389
    1TYR    SC1   52   0.823   2.535   4.360
    1TYR    SC2   53   0.706   2.309   4.268
    1TYR    SC3   54   0.958   2.301   4.363
    2ILE     BB   55   1.175   2.818   4.170
    2ILE    SC1   56   1.407   2.950   4.328
    3TYR     BB   57   1.293   2.561   4.044
    3TYR    SC1   58   1.119   2.349   3.930
    3TYR    SC2   59   0.997   2.220   3.727
    3TYR    SC3   60   1.076   2.083   3.945
    1TYR     BB   61   2.157   4.221   3.179
    1TYR    SC1   62   2.389   4.085   3.036
    1TYR    SC2   63   2.637   3.983   3.010
    1TYR    SC3   64   2.469   3.984   2.799
    2ILE     BB   65   1.896   4.179   2.966
    2ILE    SC1   66   1.689   3.997   3.108
    3TYR     BB   67   1.976   4.131   2.692
    3TYR    SC1   68   1.853   4.336   2.496
    3TYR    SC2   69   1.698   4.295   2.279
    3TYR    SC3   70   1.823   4.532   2.313
    1TYR     BB   71   6.707   0.866   0.325
    1TYR    SC1   72   6.934   0.910   0.114
    1TYR    SC2   73   7.050   1.115   7.981
    1TYR    SC3   74   7.053   0.866   7.875
    2ILE     BB   75   6.828   1.097   0.564
    2ILE    SC1   76   6.575   1.273   0.596
    3TYR     BB   77   7.149   1.189   0.482
    3TYR    SC1   78   7.409   1.072   0.604
    3TYR    SC2   79   7.677   1.063   0.569
    3TYR    SC3   80   7.559   0.903   0.752
    1TYR     BB   81   1.689   4.993   0.884
    1TYR    SC1   82   1.541   4.764   1.000
    1TYR    SC2   83   1.347   4.628   1.130
    1TYR    SC3   84   1.552   4.494   1.017
    2ILE     BB   85   1.480   5.208   0.791
    2ILE    SC1   86   1.579   5.321   0.519
    3TYR     BB   87   1.185   5.094   0.705
    3TYR    SC1   88   1.198   4.786   0.675
    3TYR    SC2   89   1.171   4.525   0.741
    3TYR    SC3   90   1.161   4.601   0.481
    1TYR     BB   91   4.930   2.944   0.413
    1TYR    SC1   92   5.075   2.727   0.260
    1TYR    SC2   93   5.052   2.558   0.051
    1TYR    SC3   94   5.291   2.672   0.107
    2ILE     BB   95   4.754   3.091   0.150
    2ILE    SC1   96   4.815   3.393   0.184
    3TYR     BB   97   4.684   2.883   7.941
    3TYR    SC1   98   4.535   2.931   7.679
    3TYR    SC2   99   4.331   2.863   7.515
    3TYR    SC3  100   4.540   3.005   7.420
    1TYR     BB  101   3.183   3.551   5.581
    1TYR    SC1  102   3.417   3.723   5.662
    1TYR    SC2  103   3.432   3.945   5.814
    1TYR    SC3  104   3.629   3.761   5.825
    2ILE     BB  105   3.057   3.549   5.930
    2ILE    SC1  106   2.780   3.413   5.900
    3TYR     BB  107   3.265   3.678   6.193
    3TYR    SC1  108   3.321   3.522   6.449
    3TYR    SC2  109   3.340   3.519   6.719
    3TYR    SC3  110   3.432   3.310   6.574
    1TYR     BB  111   2.647   5.657   7.908
    1TYR    SC1  112   2.338   5.661   7.919
    1TYR    SC2  113   2.113   5.690   0.065
    1TYR    SC3  114   2.097   5.651   7.799
    2ILE     BB  115   2.704   5.982   0.016
    2ILE    SC1  116   2.922   6.053   7.808
    3TYR     BB  117   2.421   6.166   0.080
    3TYR    SC1  118   2.155   6.112   7.940
    3TYR    SC2  119   1.897   6.094   0.015
    3TYR    SC3  120   1.962   6.086   7.753
    1TYR     BB  121   0.990   0.883   0.274
    1TYR    SC1  122   0.706   0.778   0.249
    1TYR    SC2  123   0.547   0.655   0.070
    1TYR    SC3  124   0.452   0.861   0.215
    2ILE     BB  125   1.074   0.882   7.943
    2ILE    SC1  126   0.841   1.047   7.822
    3TYR     BB  127   1.028   0.578   7.842
    3TYR    SC1  128   0.949   0.400   0.082
    3TYR    SC2  129   0.772   0.296   0.257
    3TYR    SC3  130   1.024   0.201   0.247
    1TYR     BB  131   1.837   6.475   6.799
    1TYR    SC1  132   1.697   6.317   6.566
    1TYR    SC2  133   1.691   6.277   6.299
    1TYR    SC3  134   1.602   6.085   6.467
    2ILE     BB  135   1.912   6.756   6.608
    2ILE    SC1  136   1.818   6.986   6.792
    3TYR     BB  137   1.811   6.800   6.295
    3TYR    SC1  138   1.854   6.632   6.033
    3TYR    SC2  139   1.901   6.642   5.767
    3TYR    SC3  140   1.895   6.404   5.894
    1TYR     BB  141   1.891   3.341   5.831
    1TYR    SC1  142   1.924   3.214   5.545
    1TYR    SC2  143   1.821   2.999   5.417
    1TYR    SC3  144   1.926   3.203   5.275
    2ILE     BB  145   1.636   3.181   5.943
    2ILE    SC1  146   1.615   3.195   6.252
    3TYR     BB  147   1.465   3.024   5.798
    3TYR    SC1  148   1.175   3.118   5.724
    3TYR    SC2  149   0.981   3.105   5.537
    3TYR    SC3  150   1.032   3.339   5.662
    1TYR     BB  151   2.846   5.350   1.572
    1TYR    SC1  152   2.612   5.442   1.403
    1TYR    SC2  153   2.445   5.398   1.195
    1TYR    SC3  154   2.459   5.643   1.309
    2ILE     BB  155   2.783   5.441   1.868
    2ILE    SC1  156   3.009   5.308   2.033
    3TYR     BB  157   2.477   5.418   1.956
    3TYR    SC1  158   2.274   5.453   1.731
    3TYR    SC2  159   2.013   5.522   1.712
    3TYR    SC3  160   2.132   5.385   1.512
    1TYR     BB  161   7.372   1.461   6.275
    1TYR    SC1  162   7.372   1.428   5.965
    1TYR    SC2  163   7.420   1.512   5.713
    1TYR    SC3  164   7.271   1.291   5.755
    2ILE     BB  165   7.529   1.196   6.394
    2ILE    SC1  166   7.387   1.009   6.597
    3TYR     BB  167   7.840   1.210   6.292
    3TYR    SC1  168   7.792   1.167   5.994
    3TYR    SC2  169   7.738   1.187   5.730
    3TYR    SC3  170   7.603   1.009   5.882
    1TYR     BB  171   0.740   6.826   3.344
    1TYR    SC1  172   0.953   6.653   3.479
    1TYR    SC2  173   1.013   6.441   3.636
    1TYR    SC3  174   1.129   6.467   3.394
    2ILE     BB  175   0.571   6.532   3.206
    2ILE    SC1  176   0.496   6.625   2.920
    3TYR     BB  177   0.541   6.247   3.375
    3TYR    SC1  178   0.814   6.112   3.375
    3TYR    SC2  179   1.017   5.996   3.508
    3TYR    SC3  180   1.042   6.049   3.245
    1TYR     BB  181   2.754   0.443   5.738
    1TYR    SC1  182   2.485   0.432   5.573
    1TYR    SC2  183   2.262   0.282   5.548
    1TYR    SC3  184   2.247   0.551   5.531
    2ILE     BB  185   2.588   0.457   6.055
    2ILE    SC1  186   2.639   0.165   6.146
    3TYR     BB  187   2.234   0.442   6.044
    3TYR    SC1  188   2.134   0.729   5.982
    3TYR    SC2  189   2.016   0.883   5.795
    3TYR    SC3  190   2.114   0.995   6.021
    1TYR     BB  191   7.888   6.969   6.694
    1TYR    SC1  192   7.828   7.238   6.534
    1TYR    SC2  193   7.818   7.348   6.288
    1TYR    SC3  194   7.691   7.467   6.494
    2ILE     BB  195   7.782   6.654   6.685
    2ILE    SC1  196   7.474   6.629   6.658
    3TYR     BB  197   0.031   6.395   6.702
    3TYR    SC1  198   0.183   6.503   6.447
    3TYR    SC2  199   0.370   6.597   6.277
    3TYR    SC3  200   0.136   6.729   6.307
    1TYR     BB  201   4.025   0.481   2.437
    1TYR    SC1  202   3.991   0.790   2.476
    1TYR    SC2  203   3.857   1.021   2.518
    1TYR    SC3  204   4.115   0.998   2.595
    2ILE     BB  205   3.722   0.376   2.581
    2ILE    SC1  206   3.820   0.246   2.845
    3TYR     BB  207   3.518   0.653   2.685
    3TYR    SC1  208   3.728   0.767   2.881
    3TYR    SC2  209   3.879   0.962   2.992
    3TYR    SC3  210   3.986   0.719   2.943
    1TYR     BB  211   3.421   1.904   5.212
    1TYR    SC1  212   3.458   1.610   5.171
    1TYR    SC2  213   3.604   1.384   5.145
    1TYR    SC3  214   3.352   1.395   5.047
    2ILE     BB  215   3.148   1.960   4.987
    2ILE    SC1  216   2.958   2.101   5.187
    3TYR     BB  217   2.947   1.701   4.892
    3TYR    SC1  218   3.065   1.490   4.701
    3TYR    SC2  219   3.006   1.274   4.550
    3TYR    SC3  220   3.264   1.340   4.596
    1TYR     BB  221   0.844   6.455   2.514
    1TYR    SC1  222   0.933   6.240   2.316
    1TYR    SC2  223   1.044   5.994   2.312
    1TYR    SC3  224   1.086   6.166   2.107
    2ILE     BB  225   0.920   6.352   2.826
    2ILE    SC1  226   1.019   6.621   2.943
    3TYR     BB  227   0.673   6.152   2.880
    3TYR    SC1  228   0.625   5.986   2.620
    3TYR    SC2  229   0.691   5.773   2.467
    3TYR    SC3  230   0.548   5.976   2.361
    1TYR     BB  231   5.052   3.332   5.705
    1TYR    SC1  232   5.200   3.076   5.823
    1TYR    SC2  233   5.208   2.811   5.875
    1TYR    SC3  234   5.376   2.918   5.692
    2ILE     BB  235   5.010   3.223   5.402
    2ILE    SC1  236   4.807   3.382   5.229
    3TYR     BB  237   4.934   2.901   5.434
    3TYR    SC1  238   4.691   2.868   5.268
    3TYR    SC2  239   4.481   3.020   5.192
    3TYR    SC3  240   4.597   2.852   5.015
    1TYR     BB  241   2.327   1.084   4.419
    1TYR    SC1  242   2.049   1.196   4.467
    1TYR    SC2  243   2.001   1.438   4.576
    1TYR    SC3  244   1.810   1.316   4.429
    2ILE     BB  245   2.504   1.373   4.409
    2ILE    SC1  246   2.515   1.519   4.682
    3TYR     BB  247   2.334   1.618   4.229
    3TYR    SC1  248   2.133   1.436   4.070
    3TYR    SC2  249   1.877   1.423   3.984
    3TYR    SC3  250   2.074   1.309   3.839
    1TYR     BB  251   4.356   6.727   4.785
    1TYR    SC1  252   4.070   6.836   4.842
    1TYR    SC2  253   3.809   6.871   4.782
    1TYR    SC3  254   3.958   7.081   4.865
    2ILE     BB  255   4.320   6.418   4.751
    2ILE    SC1  256   4.604   6.299   4.716
    3TYR     BB  257   4.080   6.280   4.795
    3TYR    SC1  258   3.816   6.422   4.880
    3TYR    SC2  259   3.570   6.495   4.796
    3TYR    SC3  260   3.613   6.440   5.057
    1TYR     BB  261   3.765   2.394   2.262
    1TYR    SC1  262   4.048   2.391   2.377
    1TYR    SC2  263   4.217   2.569   2.488
    1TYR    SC3  264   4.161   2.338   2.616
    2ILE     BB  265   3.682   2.640   2.529
    2ILE    SC1  266   3.604   2.849   2.313
    3TYR     BB  267   3.746   2.518   2.819
    3TYR    SC1  268   3.666   2.660   3.084
    3TYR    SC2  269   3.650   2.873   3.250
    3TYR    SC3  270   3.472   2.671   3.271
    1TYR     BB  271   3.220   4.645   1.058
    1TYR    SC1  272   2.925   4.643   1.134
    1TYR    SC2  273   2.666   4.661   1.058
    1TYR    SC3  274   2.741   4.478   1.242
    2ILE     BB  275   3.297   4.319   1.017
    2ILE    SC1  276   3.394   4.336   0.724
    3TYR     BB  277   3.151   4.026   1.028
    3TYR    SC1  278   2.857   4.034   1.125
    3TYR    SC2  279   2.630   3.898   1.074
    3TYR    SC3  280   2.653   4.040   1.302
    1TYR     BB  281   4.838   2.890   2.658
    1TYR    SC1  282   4.615   2.685   2.731
    1TYR    SC2  283   4.496   2.518   2.908
    1TYR    SC3  284   4.603   2.420   2.681
    2ILE     BB  285   5.069   2.823   2.877
    2ILE    SC1  286   5.324   2.897   2.718
    3TYR     BB  287   4.982   2.536   3.033
    3TYR    SC1  288   4.808   2.633   3.275
    3TYR    SC2  289   4.810   2.688   3.540
    3TYR    SC3  290   4.589   2.585   3.425
    1TYR     BB  291   6.468   2.036   1.956
    1TYR    SC1  292   6.421   2.208   2.216
    1TYR    SC2  293   6.513   2.304   2.451
    1TYR    SC3  294   6.251   2.248   2.421
    2ILE     BB  295   6.264   1.783   2.038
    2ILE    SC1  296   6.291   1.567   1.817
    3TYR     BB  297   6.048   1.823   2.209
    3TYR    SC1  298   6.056   1.833   2.514
    3TYR    SC2  299   5.884   1.915   2.705
    3TYR    SC3  300   6.046   1.705   2.751
    1TYR     BB  301   3.133   4.667   2.903
    1TYR    SC1  302   2.941   4.759   3.129
    1TYR    SC2  303   2.862   4.745   3.387
    1TYR    SC3  304   2.848   4.980   3.254
    2ILE     BB  305   3.286   4.389   2.998
    2ILE    SC1  306   3.501   4.316   2.788
    3TYR     BB  307   3.127   4.165   3.189
    3TYR    SC1  308   2.861   4.295   3.267
    3TYR    SC2  309   2.641   4.420   3.175
    3TYR    SC3  310   2.633   4.290   3.411
    1TYR     BB  311   3.294   2.330   3.626
    1TYR    SC1  312   3.146   2.596   3.569
    1TYR    SC2  313   3.070   2.838   3.662
    1TYR    SC3  314   2.996   2.759   3.414
    2ILE     BB  315   3.595   2.425   3.713
    2ILE    SC1  316   3.798   2.290   3.522
    3TYR     BB  317   3.704   2.719   3.737
    3TYR    SC1  318   3.517   2.944   3.693
    3TYR    SC2  319   3.404   3.154   3.820
    3TYR    SC3  320   3.398   3.141   3.551
    1TYR     BB  321   2.263   4.106   7.449
    1TYR    SC1  322   2.023   4.306   7.508
    1TYR    SC2  323   1.914   4.513   7.643
    1TYR    SC3  324   1.839   4.464   7.389
    2ILE     BB  325   2.468   4.334   7.293
    2ILE    SC1  326   2.676   4.425   7.503
    3TYR     BB  327   2.299   4.564   7.146
    3TYR    SC1  328   2.342   4.503   6.851
    3TYR    SC2  329   2.464   4.513   6.610
    3TYR    SC3  330   2.236   4.372   6.640
    1TYR     BB  331   6.397   7.986   2.802
    1TYR    SC1  332   6.339   7.682   2.874
    1TYR    SC2  333   6.313   7.417   2.830
    1TYR    SC3  334   6.314   7.512   3.083
    2ILE     BB  335   6.329   7.972   2.468
    2ILE    SC1  336   6.423   0.228   2.320
    3TYR     BB  337   6.275   7.644   2.352
    3TYR    SC1  338   6.543   7.525   2.458
    3TYR    SC2  339   6.792   7.419   2.456
    3TYR    SC3  340   6.729   7.612   2.634
    1TYR     BB  341   6.929   4.976   1.540
    1TYR    SC1  342   7.032   5.027   1.826
    1TYR    SC2  343   7.146   4.896   2.033
    1TYR    SC3  344   6.979   5.103   2.080
    2ILE     BB  345   6.662   5.138   1.471
    2ILE    SC1  346   6.532   4.983   1.236
    3TYR     BB  347   6.703   5.456   1.417
    3TYR    SC1  348   6.838   5.571   1.676
    3TYR    SC2  349   6.991   5.515   1.891
    3TYR    SC3  350   6.861   5.751   1.876
    1TYR     BB  351   5.232   7.832   7.765
    1TYR    SC1  352   5.484   7.982   7.662
    1TYR    SC2  353   5.656   0.163   7.765
    1TYR    SC3  354   5.718   0.034   7.536
    2ILE     BB  355   5.262   7.839   0.120
    2ILE    SC1  356   5.168   7.552   0.190
    3TYR     BB  357   5.115   0.027   0.365
    3TYR    SC1  358   5.059   7.849   0.625
    3TYR    SC2  359   5.053   7.860   0.895
    3TYR    SC3  360   5.104   7.626   0.770
    1TYR     BB  361   5.940   5.334   7.953
    1TYR    SC1  362   5.978   5.606   7.815
    1TYR    SC2  363   6.037   5.869   7.821
    1TYR    SC3  364   6.121   5.717   7.614
    2ILE     BB  365   5.789   5.318   0.228
    2ILE    SC1  366   5.887   5.053   0.355
    3TYR     BB  367   5.912   5.544   0.451
    3TYR    SC1  368   6.114   5.694   0.263
    3TYR    SC2  369   6.273   5.908   0.220
    3TYR    SC3  370   6.335   5.670   0.109
    1TYR     BB  371   1.100   5.025   6.649
    1TYR    SC1  372   0.967   4.821   6.458
    1TYR    SC2  373   0.751   4.779   6.302
    1TYR    SC3  374   0.943   4.591   6.319
    2ILE     BB  375   1.050   5.317   6.468
    2ILE    SC1  376   1.304   5.460   6.573
    3TYR     BB  377   0.889   5.268   6.227
    3TYR    SC1  378   1.035   5.087   6.024
    3TYR    SC2  379   1.007   4.831   5.941
    3TYR    SC3  380   1.212   4.981   5.850
    1TYR     BB  381   6.751   5.208   6.399
    1TYR    SC1  382   6.900   4.984   6.572
    1TYR    SC2  383   7.133   4.957   6.707
    1TYR    SC3  384   6.939   4.770   6.732
    2ILE     BB  385   6.891   5.475   6.544
    2ILE    SC1  386   7.190   5.406   6.502
    3TYR     BB  387   6.821   5.483   6.861
    3TYR    SC1  388   6.838   5.203   6.985
    3TYR    SC2  389   6.957   5.011   7.134
    3TYR    SC3  390   6.693   4.994   7.076
    1TYR     BB  391   6.939   6.518   4.689
    1TYR    SC1  392   6.963   6.650   4.408
    1TYR    SC2  393   7.072   6.656   4.160
    1TYR    SC3  394   6.806   6.695   4.193
    2ILE     BB  395   6.828   6.199   4.576
    2ILE    SC1  396   6.692   6.053   4.813
    3TYR     BB  397   6.791   6.181   4.301
    3TYR    SC1  398   6.613   6.277   4.083
    3TYR    SC2  399   6.483   6.211   3.855
    3TYR    SC3  400   6.614   6.446   3.872
    1TYR     BB  401   1.823   0.856   1.937
    1TYR    SC1  402   1.777   0.554   1.987
    1TYR    SC2  403   1.570   0.381   2.005
    1TYR    SC3  404   1.823   0.288   1.996
    2ILE     BB  405   1.603   0.942   1.729
    2ILE    SC1  406   1.639   1.247   1.685
    3TYR     BB  407   1.411   0.697   1.631
    3TYR    SC1  408   1.631   0.492   1.553
    3TYR    SC2  409   1.773   0.264   1.531
    3TYR    SC3  410   1.900   0.501   1.540
    1TYR     BB  411   3.868   3.972   2.698
    1TYR    SC1  412   3.660   3.932   2.473
    1TYR    SC2  413   3.470   4.032   2.310
    1TYR    SC3  414   3.618   3.821   2.231
    2ILE     BB  415   3.966   4.298   2.582
    2ILE    SC1  416   4.169   4.373   2.804
    3TYR     BB  417   3.790   4.415   2.346
    3TYR    SC1  418   3.805   4.281   2.065
    3TYR    SC2  419   3.888   4.302   1.809
    3TYR    SC3  420   3.745   4.087   1.888
    1TYR     BB  421   2.984   1.776   7.044
    1TYR    SC1  422   2.691   1.890   7.037
    1TYR    SC2  423   2.430   1.847   7.093
    1TYR    SC3  424   2.500   1.975   6.866
    2ILE     BB  425   3.187   1.995   7.202
    2ILE    SC1  426   3.444   1.844   7.289
    3TYR     BB  427   3.036   2.152   7.432
    3TYR    SC1  428   2.775   2.259   7.297
    3TYR    SC2  429   2.507   2.247   7.318
    3TYR    SC3  430   2.620   2.354   7.097
    1TYR     BB  431   6.257   5.277   3.647
    1TYR    SC1  432   6.319   5.330   3.345
    1TYR    SC2  433   6.327   5.470   3.114
    1TYR    SC3  434   6.556   5.380   3.225
    2ILE     BB  435   6.587   5.333   3.756
    2ILE    SC1  436   6.556   5.348   4.064
    3TYR     BB  437   6.811   5.148   3.654
    3TYR    SC1  438   6.932   5.151   3.375
    3TYR    SC2  439   7.134   5.233   3.216
    3TYR    SC3  440   6.952   5.056   3.124
    1TYR     BB  441   3.105   1.455   1.102
    1TYR    SC1  442   3.401   1.363   1.116
    1TYR    SC2  443   3.579   1.207   0.985
    1TYR    SC3  444   3.654   1.340   1.208
    2ILE     BB  445   3.071   1.640   0.835
    2ILE    SC1  446   2.790   1.746   0.757
    3TYR     BB  447   3.308   1.771   0.659
    3TYR    SC1  448   3.562   1.625   0.739
    3TYR    SC2  449   3.783   1.482   0.680
    3TYR    SC3  450   3.778   1.640   0.899
    1TYR     BB  451   4.935   5.257   5.532
    1TYR    SC1  452   4.892   5.102   5.267
    1TYR    SC2  453   4.804   5.106   5.011
    1TYR    SC3  454   4.953   4.899   5.100
    2ILE     BB  455   4.944   5.563   5.393
    2ILE    SC1  456   4.647   5.649   5.376
    3TYR     BB  457   5.038   5.557   5.077
    3TYR    SC1  458   5.337   5.560   5.089
    3TYR    SC2  459   5.567   5.560   5.230
    3TYR    SC3  460   5.572   5.524   4.962
    1TYR     BB  461   2.834   0.528   6.502
    1TYR    SC1  462   2.690   0.550   6.770
    1TYR    SC2  463   2.670   0.687   7.002
    1TYR    SC3  464   2.463   0.536   6.915
    2ILE     BB  465   2.982   0.234   6.507
    2ILE    SC1  466   3.168   0.255   6.754
    3TYR     BB  467   2.750   7.998   6.619
    3TYR    SC1  468   2.685   0.111   6.904
    3TYR    SC2  469   2.555   0.144   7.138
    3TYR    SC3  470   2.800   0.252   7.104
    1TYR     BB  471   3.735   5.534   7.213
    1TYR    SC1  472   3.952   5.731   7.316
    1TYR    SC2  473   4.039   5.818   7.557
    1TYR    SC3  474   4.198   5.840   7.339
    2ILE     BB  475   3.484   5.727   7.120
    2ILE    SC1  476   3.239   5.560   7.028
    3TYR     BB  477   3.605   5.920   6.905
    3TYR    SC1  478   3.874   5.798   6.818
    3TYR    SC2  479   4.029   5.657   6.648
    3TYR    SC3  480   4.126   5.732   6.889
    1TYR     BB  481   2.484   7.166   1.427
    1TYR    SC1  482   2.556   6.931   1.245
    1TYR    SC2  483   2.675   6.864   1.012
    1TYR    SC3  484   2.750   6.743   1.241
    2ILE     BB  485   2.852   7.179   1.537
    2ILE    SC1  486   2.805   7.218   1.841
    3TYR     BB  487   2.962   7.265   1.254
    3TYR    SC1  488   3.100   7.056   1.074
    3TYR    SC2  489   3.337   6.984   0.966
    3TYR    SC3  490   3.132   6.808   0.971
    1TYR     BB  491   6.550   3.465   3.207
    1TYR    SC1  492   6.400   3.273   3.400
    1TYR    SC2  493   6.483   3.054   3.534
    1TYR    SC3  494   6.234   3.150   3.573
    2ILE     BB  495   6.866   3.459   3.362
    2ILE    SC1  496   6.955   3.747   3.289
    3TYR     BB  497   6.874   3.372   3.688
    3TYR    SC1  498   6.886   3.067   3.730
    3TYR    SC2  499   6.990   2.845   3.618
    3TYR    SC3  500   6.803   2.824   3.811
    1TYR     BB  501   4.573   5.940   3.908
    1TYR    SC1  502   4.343   6.018   4.102
    1TYR    SC2  503   4.130   6.180   4.137
    1TYR    SC3  504   4.258   6.077   4.351
    2ILE     BB  505   4.554   5.656   3.774
    2ILE    SC1  506   4.616   5.674   3.471
    3TYR     BB  507   4.312   5.504   3.914
    3TYR    SC1  508   4.358   5.563   4.216
    3TYR    SC2  509   4.372   5.458   4.464
    3TYR    SC3  510   4.497   5.691   4.408
    1TYR     BB  511   0.182   4.360   5.433
    1TYR    SC1  512   0.050   4.275   5.695
    1TYR    SC2  513   0.145   4.201   5.937
    1TYR    SC3  514   7.918   4.347   5.919
    2ILE     BB  515   0.355   4.641   5.610
    2ILE    SC1  516   0.166   4.832   5.764
    3TYR     BB  517   0.591   4.580   5.845
    3TYR    SC1  518   0.428   4.528   6.099
    3TYR    SC2  519   0.191   4.605   6.204
    3TYR    SC3  520   0.322   4.393   6.307
    1TYR     BB  521   7.726   2.605   1.793
    1TYR    SC1  522   7.640   2.785   2.026
    1TYR    SC2  523   7.542   3.010   2.138
    1TYR    SC3  524   7.791   2.926   2.200
    2ILE     BB  525   7.462   2.466   1.682
    2ILE    SC1  526   7.520   2.379   1.390
    3TYR     BB  527   7.172   2.535   1.806
    3TYR    SC1  528   7.151   2.775   2.014
    3TYR    SC2  529   7.099   3.040   2.010
    3TYR    SC3  530   7.079   2.901   2.241
    1TYR     BB  531   6.344   1.401   6.176
    1TYR    SC1  532   6.062   1.360   6.079
    1TYR    SC2  533   5.920   1.338   5.850
    1TYR    SC3  534   5.831   1.220   6.076
    2ILE     BB  535   6.540   1.467   5.945
    2ILE    SC1  536   6.847   1.507   5.968
    3TYR     BB  537   6.429   1.444   5.656
    3TYR    SC1  538   6.295   1.161   5.666
    3TYR    SC2  539   6.109   0.969   5.627
    3TYR    SC3  540   6.226   0.995   5.868
    1TYR     BB  541   2.164   0.588   7.755
    1TYR    SC1  542   2.255   0.878   7.724
    1TYR    SC2  543   2.386   1.043   7.554
    1TYR    SC3  544   2.237   1.146   7.755
    2ILE     BB  545   2.280   0.484   7.429
    2ILE    SC1  546   2.578   0.559   7.466
    3TYR     BB  547   2.110   0.657   7.245
    3TYR    SC1  548   2.254   0.895   7.125
    3TYR    SC2  549   2.440   1.088   7.088
    3TYR    SC3  550   2.309   0.985   6.876
    1TYR     BB  551   5.180   6.338   1.756
    1TYR    SC1  552   5.343   6.532   1.933
    1TYR    SC2  553   5.532   6.704   2.018
    1TYR    SC3  554   5.285   6.714   2.124
    2ILE     BB  555   4.994   6.606   1.592
    2ILE    SC1  556   4.914   6.439   1.343
    3TYR     BB  557   4.959   6.847   1.751
    3TYR    SC1  558   4.851   7.132   1.679
    3TYR    SC2  559   4.735   7.313   1.516
    3TYR    SC3  560   4.868   7.396   1.736
    1TYR     BB  561   2.059   6.752   4.640
    1TYR    SC1  562   1.763   6.678   4.680
    1TYR    SC2  563   1.531   6.724   4.810
    1TYR    SC3  564   1.593   6.474   4.727
    2ILE     BB  565   2.117   6.766   4.308
    2ILE    SC1  566   2.343   6.978   4.299
    3TYR     BB  567   1.887   6.708   4.096
    3TYR    SC1  568   1.619   6.664   4.240
    3TYR    SC2  569   1.411   6.772   4.375
    3TYR    SC3  570   1.374   6.553   4.221
    1TYR     BB  571   5.350   3.591   4.451
    1TYR    SC1  572   5.202   3.828   4.311
    1TYR    SC2  573   5.268   4.014   4.127
    1TYR    SC3  574   5.011   3.936   4.153
    2ILE     BB  575   5.540   3.480   4.202
    2ILE    SC1  576   5.694   3.240   4.326
    3TYR     BB  577   5.685   3.681   4.047
    3TYR    SC1  578   5.594   3.858   3.839
    3TYR    SC2  579   5.516   4.103   3.756
    3TYR    SC3  580   5.443   3.883   3.617
    1TYR     BB  581   3.245   6.665   5.550
    1TYR    SC1  582   3.485   6.469   5.507
    1TYR    SC2  583   3.750   6.420   5.501
    1TYR    SC3  584   3.582   6.238   5.608
    2ILE     BB  585   3.139   6.545   5.858
    2ILE    SC1  586   2.891   6.711   5.941
    3TYR     BB  587   3.381   6.468   6.038
    3TYR    SC1  588   3.418   6.163   6.032
    3TYR    SC2  589   3.337   5.912   6.088
    3TYR    SC3  590   3.572   5.953   5.962
    1TYR     BB  591   3.831   7.040   3.550
    1TYR    SC1  592   3.655   6.798   3.619
    1TYR    SC2  593   3.489   6.734   3.822
    1TYR    SC3  594   3.460   6.615   3.582
    2ILE     BB  595   3.652   7.279   3.702
    2ILE    SC1  596   3.816   7.538   3.654
    3TYR     BB  597   3.321   7.219   3.651
    3TYR    SC1  598   3.327   7.037   3.404
    3TYR    SC2  599   3.234   6.845   3.239
    3TYR    SC3  600   3.486   6.936   3.211
    1TYR     BB  601   5.817   2.751   6.403
    1TYR    SC1  602   5.508   2.778   6.348
    1TYR    SC2  603   5.292   2.627   6.289
    1TYR    SC3  604   5.269   2.895   6.302
    2ILE     BB  605   5.804   2.413   6.439
    2ILE    SC1  606   5.956   2.293   6.197
    3TYR     BB  607   5.593   2.327   6.626
    3TYR    SC1  608   5.432   2.565   6.740
    3TYR    SC2  609   5.201   2.705   6.737
    3TYR    SC3  610   5.433   2.828   6.800
    1TYR     BB  611   2.717   5.801   5.723
    1TYR    SC1  612   2.520   5.661   5.548
    1TYR    SC2  613   2.320   5.483   5.516
    1TYR    SC3  614   2.429   5.604   5.300
    2ILE     BB  615   2.571   6.090   5.799
    2ILE    SC1  616   2.789   6.215   5.981
    3TYR     BB  617   2.264   6.058   5.828
    3TYR    SC1  618   2.153   5.935   5.563
    3TYR    SC2  619   1.987   5.776   5.421
    3TYR    SC3  620   2.145   5.954   5.294
    1TYR     BB  621   2.673   6.234   3.087
    1TYR    SC1  622   2.857   6.302   2.857
    1TYR    SC2  623   2.907   6.418   2.619
    1TYR    SC3  624   3.102   6.403   2.805
    2ILE     BB  625   2.368   6.313   2.944
    2ILE    SC1  626   2.282   6.020   2.888
    3TYR     BB  627   2.396   6.560   2.771
    3TYR    SC1  628   2.656   6.715   2.836
    3TYR    SC2  629   2.837   6.883   2.726
    3TYR    SC3  630   2.889   6.765   2.963
    1TYR     BB  631   5.047   1.615   2.706
    1TYR    SC1  632   5.197   1.372   2.619
    1TYR    SC2  633   5.131   1.169   2.455
    1TYR    SC3  634   5.375   1.175   2.570
    2ILE     BB  635   4.784   1.621   2.483
    2ILE    SC1  636   4.527   1.585   2.653
    3TYR     BB  637   4.732   1.593   2.150
    3TYR    SC1  638   4.887   1.323   2.061
    3TYR    SC2  639   4.907   1.054   2.066
    3TYR    SC3  640   4.976   1.191   1.843
    1TYR     BB  641   5.856   1.058   2.252
    1TYR    SC1  642   5.895   1.271   2.031
    1TYR    SC2  643   5.894   1.284   1.762
    1TYR    SC3  644   5.813   1.496   1.907
    2ILE     BB  645   5.758   0.782   2.078
    2ILE    SC1  646   5.492   0.740   1.925
    3TYR     BB  647   5.991   0.714   1.838
    3TYR    SC1  648   5.873   0.863   1.597
    3TYR    SC2  649   5.876   1.027   1.383
    3TYR    SC3  650   5.645   0.983   1.516
    1TYR     BB  651   0.239   1.946   1.684
    1TYR    SC1  652   0.427   2.124   1.524
    1TYR    SC2  653   0.685   2.141   1.444
    1TYR    SC3  654   0.499   2.308   1.340
    2ILE     BB  655   0.234   1.658   1.526
    2ILE    SC1  656   7.980   1.520   1.636
    3TYR     BB  657   0.496   1.610   1.302
    3TYR    SC1  658   0.429   1.856   1.129
    3TYR    SC2  659   0.407   2.060   0.954
    3TYR    SC3  660   0.205   2.007   1.125
    1TYR     BB  661   2.130   7.600   3.669
    1TYR    SC1  662   2.228   7.353   3.501
    1TYR    SC2  663   2.217   7.090   3.439
    1TYR    SC3  664   2.444   7.196   3.540
    2ILE     BB  665   2.195   7.426   3.982
    2ILE    SC1  666   2.502   7.383   3.997
    3TYR     BB  667   2.042   7.159   3.966
    3TYR    SC1  668   1.875   7.124   3.723
    3TYR    SC2  669   1.778   7.009   3.499
    3TYR    SC3  670   1.749   7.275   3.538
    1TYR     BB  671   6.451   2.428   6.340
    1TYR    SC1  672   6.476   2.115   6.351
    1TYR    SC2  673   6.519   1.881   6.477
    1TYR    SC3  674   6.517   1.890   6.207
    2ILE     BB  675   6.267   2.497   6.581
    2ILE    SC1  676   6.353   2.755   6.728
    3TYR     BB  677   6.174   2.247   6.780
    3TYR    SC1  678   6.086   2.014   6.599
    3TYR    SC2  679   5.852   1.909   6.514
    3TYR    SC3  680   6.083   1.841   6.392
    1TYR     BB  681   2.417   5.439   6.551
    1TYR    SC1  682   2.343   5.159   6.681
    1TYR    SC2  683   2.218   4.968   6.825
    1TYR    SC3  684   2.480   4.942   6.765
    2ILE     BB  685   2.262   5.436   6.273
    2ILE    SC1  686   2.407   5.610   6.062
    3TYR     BB  687   1.981   5.273   6.269
    3TYR    SC1  688   2.016   4.981   6.338
    3TYR    SC2  689   2.123   4.757   6.442
    3TYR    SC3  690   1.862   4.763   6.374
    1TYR     BB  691   2.488   3.563   1.445
    1TYR    SC1  692   2.273   3.702   1.259
    1TYR    SC2  693   2.038   3.755   1.136
    1TYR    SC3  694   2.201   3.958   1.210
    2ILE     BB  695   2.451   3.756   1.705
    2ILE    SC1  696   2.345   3.636   1.971
    3TYR     BB  697   2.285   4.047   1.694
    3TYR    SC1  698   2.316   4.131   1.999
    3TYR    SC2  699   2.178   4.184   2.225
    3TYR    SC3  700   2.440   4.121   2.239
    1TYR     BB  701   6.717   1.880   4.777
    1TYR    SC1  702   6.627   1.948   4.490
    1TYR    SC2  703   6.528   2.158   4.353
    1TYR    SC3  704   6.638   1.950   4.220
    2ILE     BB  705   6.981   2.098   4.794
    2ILE    SC1  706   6.870   2.359   4.667
    3TYR     BB  707   7.221   1.991   4.599
    3TYR    SC1  708   7.080   1.773   4.415
    3TYR    SC2  709   7.093   1.596   4.212
    3TYR    SC3  710   6.886   1.588   4.385
    1TYR     BB  711   3.546   6.426   7.021
    1TYR    SC1  712   3.520   6.719   6.911
    1TYR    SC2  713   3.575   6.984   6.919
    1TYR    SC3  714   3.383   6.891   6.754
    2ILE     BB  715   3.851   6.352   6.859
    2ILE    SC1  716   3.990   6.209   7.096
    3TYR     BB  717   3.915   6.463   6.599
    3TYR    SC1  718   3.791   6.719   6.504
    3TYR    SC2  719   3.765   6.987   6.491
    3TYR    SC3  720   3.626   6.829   6.322
    1TYR     BB  721   6.682   3.423   0.876
    1TYR    SC1  722   6.912   3.632   0.883
    1TYR    SC2  723   6.977   3.855   0.746
    1TYR    SC3  724   7.109   3.794   0.973
    2ILE     BB  725   6.567   3.491   0.553
    2ILE    SC1  726   6.832   3.487   0.391
    3TYR     BB  727   6.418   3.768   0.421
    3TYR    SC1  728   6.618   4.013   0.466
    3TYR    SC2  729   6.835   4.165   0.412
    3TYR    SC3  730   6.654   4.247   0.595
    1TYR     BB  731   7.866   0.746   4.435
    1TYR    SC1  732   7.855   0.717   4.121
    1TYR    SC2  733   7.777   0.842   3.895
    1TYR    SC3  734   7.941   0.628   3.881
    2ILE     BB  735   7.758   1.076   4.453
    2ILE    SC1  736   7.897   1.178   4.711
    3TYR     BB  737   7.964   1.224   4.190
    3TYR    SC1  738   0.233   1.119   4.305
    3TYR    SC2  739   0.356   1.024   4.526
    3TYR    SC3  740   0.499   1.071   4.301
    1TYR     BB  741   2.536   2.362   2.355
    1TYR    SC1  742   2.461   2.542   2.596
    1TYR    SC2  743   2.409   2.805   2.622
    1TYR    SC3  744   2.323   2.632   2.811
    2ILE     BB  745   2.266   2.398   2.168
    2ILE    SC1  746   2.374   2.388   1.877
    3TYR     BB  747   2.038   2.557   2.331
    3TYR    SC1  748   1.794   2.415   2.454
    3TYR    SC2  749   1.564   2.276   2.426
    3TYR    SC3  750   1.687   2.287   2.666
    1TYR     BB  751   0.679   5.953   5.460
    1TYR    SC1  752   0.773   6.146   5.246
    1TYR    SC2  753   0.777   6.375   5.104
    1TYR    SC3  754   0.904   6.156   5.010
    2ILE     BB  755   0.933   5.903   5.658
    2ILE    SC1  756   0.809   5.985   5.930
    3TYR     BB  757   1.206   6.013   5.598
    3TYR    SC1  758   1.243   6.165   5.327
    3TYR    SC2  759   1.204   6.423   5.258
    3TYR    SC3  760   1.353   6.262   5.101
    1TYR     BB  761   4.389   6.291   6.080
    1TYR    SC1  762   4.559   6.044   6.179
    1TYR    SC2  763   4.804   5.934   6.203
    1TYR    SC3  764   4.588   5.804   6.298
    2ILE     BB  765   4.638   6.511   6.026
    2ILE    SC1  766   4.561   6.811   6.025
    3TYR     BB  767   4.887   6.371   5.969
    3TYR    SC1  768   5.069   6.334   6.214
    3TYR    SC2  769   5.182   6.205   6.423
    3TYR    SC3  770   5.257   6.457   6.363
    1TYR     BB  771   7.209   3.308   5.279
    1TYR    SC1  772   7.435   3.458   5.134
    1TYR    SC2  773   7.627   3.646   5.109
    1TYR    SC3  774   7.662   3.401   5.000
    2ILE     BB  775   7.347   3.038   5.360
    2ILE    SC1  776   7.251   2.853   5.131
    3TYR     BB  777   7.660   3.044   5.411
    3TYR    SC1  778   7.784   2.976   5.139
    3TYR    SC2  779   7.927   3.022   4.914
    3TYR    SC3  780   7.701   2.874   4.903
    1TYR     BB  781   5.221   4.934   2.681
    1TYR    SC1  782   5.335   5.007   2.955
    1TYR    SC2  783   5.535   5.132   3.088
    1TYR    SC3  784   5.409   4.921   3.200
    2ILE     BB  785   4.932   5.046   2.619
    2ILE    SC1  786   4.917   5.014   2.311
    3TYR     BB  787   4.764   5.219   2.821
    3TYR    SC1  788   4.921   5.270   3.087
    3TYR    SC2  789   5.144   5.315   3.232
    3TYR    SC3  790   4.907   5.279   3.356
    1TYR     BB  791   0.248   1.502   6.228
    1TYR    SC1  792   0.059   1.574   5.999
    1TYR    SC2  793   7.803   1.627   5.929
    1TYR    SC3  794   7.986   1.569   5.739
    2ILE     BB  795   0.374   1.733   6.377
    2ILE    SC1  796   0.682   1.757   6.400
    3TYR     BB  797   0.185   1.976   6.442
    3TYR    SC1  798   0.040   2.029   6.165
    3TYR    SC2  799   0.031   2.018   5.896
    3TYR    SC3  800   7.972   2.249   6.024
    1TYR     BB  801   5.275   3.636   1.512
    1TYR    SC1  802   5.145   3.626   1.240
    1TYR    SC2  803   4.920   3.746   1.151
    1TYR    SC3  804   5.132   3.718   0.986
    2ILE     BB  805   5.158   3.992   1.551
    2ILE    SC1  806   5.020   3.924   1.820
    3TYR     BB  807   5.056   4.194   1.290
    3TYR    SC1  808   5.051   4.166   0.974
    3TYR    SC2  809   4.965   4.316   0.767
    3TYR    SC3  810   5.115   4.097   0.721
    1TYR     BB  811   4.477   0.907   1.188
    1TYR    SC1  812   4.484   1.061   0.917
    1TYR    SC2  813   4.453   1.270   0.749
    1TYR    SC3  814   4.538   1.033   0.654
    2ILE     BB  815   4.711   1.047   1.381
    2ILE    SC1  816   4.787   0.820   1.578
    3TYR     BB  817   4.700   1.363   1.264
    3TYR    SC1  818   4.856   1.341   0.990
    3TYR    SC2  819   4.896   1.309   0.724
    3TYR    SC3  820   5.107   1.328   0.891
    1TYR     BB  821   7.735   6.140   0.902
    1TYR    SC1  822   7.483   5.983   0.806
    1TYR    SC2  823   7.350   5.824   0.632
    1TYR    SC3  824   7.219   5.937   0.839
    2ILE     BB  825   7.937   5.919   1.045
    2ILE    SC1  826   7.827   5.867   1.330
    3TYR     BB  827   7.897   5.602   0.905
    3TYR    SC1  828   7.590   5.564   0.969
    3TYR    SC2  829   7.326   5.507   0.961
    3TYR    SC3  830   7.421   5.679   1.145
    1TYR     BB  831   6.073   0.300   4.334
    1TYR    SC1  832   6.295   0.308   4.111
    1TYR    SC2  833   6.359   0.301   3.849
    1TYR    SC3  834   6.480   0.478   4.014
    2ILE     BB  835   5.878   0.556   4.202
    2ILE    SC1  836   5.602   0.548   4.343
    3TYR     BB  837   5.980   0.667   3.907
    3TYR    SC1  838   6.193   0.879   3.987
    3TYR    SC2  839   6.268   1.131   4.048
    3TYR    SC3  840   6.454   0.950   3.972
    1TYR     BB  841   4.349   0.842   6.062
    1TYR    SC1  842   4.215   0.821   5.778
    1TYR    SC2  843   4.263   0.949   5.546
    1TYR    SC3  844   4.252   0.680   5.551
    2ILE     BB  845   4.656   0.916   5.928
    2ILE    SC1  846   4.605   1.212   5.850
    3TYR     BB  847   4.740   0.778   5.644
    3TYR    SC1  848   4.719   1.002   5.422
    3TYR    SC2  849   4.844   1.202   5.289
    3TYR    SC3  850   4.574   1.195   5.301
    1TYR     BB  851   5.548   1.350   7.021
    1TYR    SC1  852   5.445   1.613   6.873
    1TYR    SC2  853   5.493   1.857   6.767
    1TYR    SC3  854   5.296   1.702   6.667
    2ILE     BB  855   5.423   1.105   6.808
    2ILE    SC1  856   5.532   0.829   6.897
    3TYR     BB  857   5.283   1.214   6.554
    3TYR    SC1  858   5.222   1.115   6.274
    3TYR    SC2  859   5.144   0.935   6.089
    3TYR    SC3  860   5.041   1.185   6.087
    1TYR     BB  861   1.499   5.796   3.117
    1TYR    SC1  862   1.754   5.619   3.133
    1TYR    SC2  863   2.016   5.663   3.085
    1TYR    SC3  864   1.940   5.458   3.245
    2ILE     BB  865   1.624   6.071   2.993
    2ILE    SC1  866   1.389   6.273   3.001
    3TYR     BB  867   1.896   6.200   3.148
    3TYR    SC1  868   1.947   6.004   3.378
    3TYR    SC2  869   1.990   6.006   3.645
    3TYR    SC3  870   1.845   5.807   3.533
    1TYR     BB  871   0.625   3.419   6.942
    1TYR    SC1  872   0.430   3.221   6.807
    1TYR    SC2  873   0.182   3.118   6.836
    1TYR    SC3  874   0.258   3.224   6.599
    2ILE     BB  875   0.321   3.659   6.988
    2ILE    SC1  876   0.168   3.485   7.193
    3TYR     BB  877   0.041   3.683   6.740
    3TYR    SC1  878   7.830   3.452   6.774
    3TYR    SC2  879   7.744   3.199   6.739
    3TYR    SC3  880   7.573   3.405   6.707
    1TYR     BB  881   1.487   4.383   1.845
    1TYR    SC1  882   1.367   4.532   2.091
    1TYR    SC2  883   1.401   4.745   2.253
    1TYR    SC3  884   1.257   4.533   2.337
    2ILE     BB  885   1.374   4.519   1.602
    2ILE    SC1  886   1.074   4.447   1.566
    3TYR     BB  887   1.369   4.852   1.604
    3TYR    SC1  888   1.221   4.927   1.859
    3TYR    SC2  889   1.140   5.107   2.042
    3TYR    SC3  890   1.013   4.870   2.020
    1TYR     BB  891   4.303   2.764   5.601
    1TYR    SC1  892   4.117   2.977   5.461
    1TYR    SC2  893   4.081   3.180   5.286
    1TYR    SC3  894   3.871   3.027   5.361
    2ILE     BB  895   4.313   2.530   5.349
    2ILE    SC1  896   4.251   2.237   5.428
    3TYR     BB  897   4.150   2.590   5.107
    3TYR    SC1  898   4.120   2.853   4.979
    3TYR    SC2  899   4.214   3.000   4.772
    3TYR    SC3  900   3.960   3.035   4.859
    1TYR     BB  901   6.519   7.120   0.890
    1TYR    SC1  902   6.426   7.138   0.586
    1TYR    SC2  903   6.219   7.166   0.415
    1TYR    SC3  904   6.462   7.264   0.350
    2ILE     BB  905   6.536   7.462   0.924
    2ILE    SC1  906   6.843   7.503   0.935
    3TYR     BB  907   6.314   7.609   0.811
    3TYR    SC1  908   6.251   7.632   0.508
    3TYR    SC2  909   6.035   7.608   0.348
    3TYR    SC3  910   6.272   7.685   0.244
    1TYR     BB  911   3.100   4.148   4.202
    1TYR    SC1  912   3.083   4.133   4.516
    1TYR    SC2  913   3.224   4.093   4.743
    1TYR    SC3  914   2.967   4.174   4.756
    2ILE     BB  915   3.306   4.423   4.168
    2ILE    SC1  916   3.499   4.430   3.926
    3TYR     BB  917   3.455   4.453   4.456
    3TYR    SC1  918   3.218   4.580   4.627
    3TYR    SC2  919   2.989   4.614   4.766
    3TYR    SC3  920   3.151   4.825   4.719
    1TYR     BB  921   6.883   0.057   7.686
    1TYR    SC1  922   6.943   0.300   7.883
    1TYR    SC2  923   6.790   0.499   7.982
    1TYR    SC3  924   7.006   0.413   0.120
    2ILE     BB  925   6.620   7.906   7.877
    2ILE    SC1  926   6.668   7.605   7.933
    3TYR     BB  927   6.567   0.081   0.117
    3TYR    SC1  928   6.632   7.923   0.372
    3TYR    SC2  929   6.665   7.893   0.638
    3TYR    SC3  930   6.708   7.684   0.473
    1TYR     BB  931   6.606   4.777   4.714
    1TYR    SC1  932   6.672   5.052   4.615
    1TYR    SC2  933   6.552   5.290   4.569
    1TYR    SC3  934   6.810   5.254   4.501
    2ILE     BB  935   6.621   4.833   5.053
    2ILE    SC1  936   6.909   4.724   5.087
    3TYR     BB  937   6.455   5.083   5.118
    3TYR    SC1  938   6.551   5.365   5.026
    3TYR    SC2  939   6.508   5.606   4.911
    3TYR    SC3  940   6.666   5.586   5.129
    1TYR     BB  941   6.299   0.296   7.163
    1TYR    SC1  942   6.304   0.602   7.229
    1TYR    SC2  943   6.316   0.801   7.412
    1TYR    SC3  944   6.370   0.852   7.152
    2ILE     BB  945   6.327   0.121   7.450
    2ILE    SC1  946   6.494   7.865   7.399
    3TYR     BB  947   6.448   0.322   7.657
    3TYR    SC1  948   6.656   0.490   7.522
    3TYR    SC2  949   6.900   0.602   7.549
    3TYR    SC3  950   6.762   0.632   7.319
    1TYR     BB  951   5.508   5.018   6.553
    1TYR    SC1  952   5.395   4.859   6.793
    1TYR    SC2  953   5.328   4.601   6.840
    1TYR    SC3  954   5.361   4.772   7.046
    2ILE     BB  955   5.535   4.724   6.349
    2ILE    SC1  956   5.368   4.800   6.099
    3TYR     BB  957   5.308   4.413   6.400
    3TYR    SC1  958   5.543   4.260   6.532
    3TYR    SC2  959   5.677   4.087   6.690
    3TYR    SC3  960   5.805   4.209   6.486
    1TYR     BB  961   5.529   0.688   5.433
    1TYR    SC1  962   5.638   0.750   5.711
    1TYR    SC2  963   5.562   0.904   5.921
    1TYR    SC3  964   5.801   0.778   5.925
    2ILE     BB  965   5.232   0.543   5.435
    2ILE    SC1  966   5.043   0.674   5.227
    3TYR     BB  967   5.118   0.471   5.707
    3TYR    SC1  968   5.323   0.478   5.923
    3TYR    SC2  969   5.420   0.546   6.165
    3TYR    SC3  970   5.564   0.386   6.002
    1TYR     BB  971   3.617   4.984   3.509
    1TYR    SC1  972   3.675   5.282   3.586
    1TYR    SC2  973   3.708   5.549   3.607
    1TYR    SC3  974   3.861   5.382   3.754
    2ILE     BB  975   3.385   4.860   3.336
    2ILE    SC1  976   3.329   4.581   3.457
    3TYR     BB  977   3.309   5.098   3.083
    3TYR    SC1  978   3.432   5.347   3.186
    3TYR    SC2  979   3.626   5.530   3.142
    3TYR    SC3  980   3.404   5.598   3.280
    1TYR     BB  981   4.465   2.515   7.099
    1TYR    SC1  982   4.622   2.537   7.359
    1TYR    SC2  983   4.744   2.526   7.600
    1TYR    SC3  984   4.852   2.672   7.400
    2ILE     BB  985   4.722   2.392   6.886
    2ILE    SC1  986   4.563   2.241   6.667
    3TYR     BB  987   4.969   2.335   7.008
    3TYR    SC1  988   5.189   2.499   7.135
    3TYR    SC2  989   5.448   2.541   7.198
    3TYR    SC3  990   5.268   2.740   7.229
    1TYR     BB  991   2.632   2.970   5.224
    1TYR    SC1  992   2.628   2.672   5.150
    1TYR    SC2  993   2.583   2.422   5.241
    1TYR    SC3  994   2.495   2.495   4.996
    2ILE     BB  995   2.338   2.940   5.439
    2ILE    SC1  996   2.492   3.036   5.690
    3TYR     BB  997   2.170   2.658   5.380
    3TYR    SC1  998   1.908   2.561   5.501
    3TYR    SC2  999   1.679   2.437   5.429
    3TYR    SC3 1000   1.692   2.573   5.662
    4W        W 1001   0.299   2.026   2.196
    5W        W 1002   4.162   5.523   1.625
    6W        W 1003   3.946   4.138   0.286
    7W        W 1004   3.616   6.969   2.271
    8W        W 1005   2.568   3.517   3.102
    9W        W 1006   3.439   7.633   5.505
   10W        W 1007   3.555   6.293   2.628
   11W        W 1008   6.640   2.592   3.385
   12W        W 1009   0.843   6.417   6.165
   13W        W 1010   3.131   7.322   5.209
   14W        W 1011   5.816   6.172   3.254
   15W        W 1012   7.422   3.388   1.836
   16W        W 1013   4.873   6.790   6.400
   17W        W 1014   3.666   2.132   0.851
   18W        W 1015   4.585   4.271   3.769
   19W        W 1016   4.389   3.752   1.227
   20W        W 1017   3.253   5.682   3.752
   21W        W 1018   2.444   5.779   3.296
   22W        W 1019   5.283   4.559   7.963
   23W        W 1020   4.008   5.322   1.172
   24W        W 1021   0.223   3.109   4.033
   25W        W 1022   5.279   2.368   5.659
   26W        W 1023   3.270   0.427   5.591
   27W        W 1024   1.593   4.177   3.796
   28W        W 1025   3.340   2.394   5.322
   29W        W 1026   2.973   1.122   5.236
   30W        W 1027   1.173   6.862   5.468
   31W        W 1028   0.250   1.244   3.394
   32W        W 1029   0.065   4.564   4.311
   33W        W 1030   6.815   4.624   2.326
   34W        W 1031   7.349   6.668   5.906
   35W        W 1032   3.666   2.258   1.400
   36W        W 1033   4.445   0.680   4.570
   37W        W 1034   3.760   5.751   1.424
   38W        W 1035   4.006   3.165   0.507
   39W        W 1036   1.430   0.297   4.655
   40W        W 1037   5.438   0.661   3.869
   41W        W 1038   6.968   7.017   1.707
   42W        W 1039   2.319   0.863   3.978
   43W        W 1040   3.791   4.370   6.826
   44W        W 1041   7.848   2.953   3.658
   45W        W 1042   4.586   2.040   5.788
   46W        W 1043   4.589   6.102   2.243
   47W        W 1044   5.380   4.633   5.128
   48W        W 1045   5.554   1.575   2.900
   49W        W 1046   0.514   2.136   6.081
   50W        W 1047   4.826   1.146   7.392
   51W        W 1048   2.853   6.859   0.541
   52W        W 1049   1.231   3.298   4.036
   53W        W 1050   3.738   0.449   1.504
   54W        W 1051   6.676   1.435   3.952
   55W        W 1052   1.582   1.129   3.643
   56W        W 1053   3.915   6.756   3.077
   57W        W 1054   1.308   6.860   1.512
   58W        W 1055   5.077   5.792   0.546
   59W        W 1056   4.223   5.279   2.734
   60W        W 1057   6.321   1.497   4.808
   61W        W 1058   0.512   1.324   0.452
   62W        W 1059   1.447   6.659   0.743
   63W        W 1060   6.431   3.573   3.838
   64W        W 1061   3.609   3.447   4.163
   65W        W 1062   3.398   3.924   0.445
   66W        W 1063   4.854   0.555   2.049
   67W        W 1064   3.472   3.707   4.939
   68W        W 1065   6.483   6.170   2.601
   69W        W 1066   2.786   1.020   6.655
   70W        W 1067   6.241   0.724   0.540
   71W        W 1068   7.040   3.265   1.251
   72W        W 1069   5.778   5.080   7.018
   73W        W 1070   5.929   5.467   6.732
   74W        W 1071   1.514   1.692   1.553
   75W        W 1072   7.401   0.510   7.786
   76W        W 1073   5.413   5.652   4.021
   77W        W 1074   1.918   2.405   6.487
   78W        W 1075   5.268   2.783   1.734
   79W        W 1076   1.550   4.680   2.723
   80W        W 1077   7.176   7.472   5.726
   81W        W 1078   0.753   0.424   1.079
   82W        W 1079   0.699   2.018   4.750
   83W        W 1080   1.801   1.103   6.980
   84W        W 1081   3.567   3.947   4.053
   85W        W 1082   2.305   5.013   5.366
   86W        W 1083   0.346   6.513   1.258
   87W        W 1084   5.599   6.987   2.830
   88W        W 1085   5.953   5.737   5.434
   89W        W 1086   7.805   3.885   5.514
   90W        W 1087   2.299   3.812   0.698
   91W        W 1088   5.227   5.236   4.327
   92W        W 1089   2.070   0.737   0.990
   93W        W 1090   5.925   4.309   1.332
   94W        W 1091   6.503   0.593   1.831
   95W        W 1092   0.327   4.264   3.971
   96W        W 1093   2.606   4.055   6.478
   97W        W 1094   2.112   4.661   4.910
   98W        W 1095   0.226   5.592   1.316
   99W        W 1096   7.302   4.195   1.263
  100W        W 1097   3.668   5.732   5.529
  101W        W 1098   0.273   3.634   3.197
  102W        W 1099   6.076   6.892   0.850
  103W        W 1100   2.697   4.314   5.708
  104W        W 1101   7.123   7.769   7.322
  105W        W 1102   2.889   4.363   0.717
  106W        W 1103   3.412   0.826   4.418
  107W        W 1104   3.528   5.194   4.868
  108W        W 1105   7.519   6.705   1.211
  109W        W 1106   4.209   0.848   6.612
  110W        W 1107   7.986   3.494   5.790
  111W        W 1108   0.689   3.046   0.775
  112W        W 1109   5.154   7.138   5.578
  113W        W 1110   1.699   7.878   3.608
  114W        W 1111   0.828   6.714   1.283
  115W        W 1112   3.786   2.511   4.188
  116W        W 1113   5.681   0.005   6.323
  117W        W 1114   1.007   0.526   0.637
  118W        W 1115   2.358   6.584   6.757
  119W        W 1116   2.717   1.242   0.797
  120W        W 1117   3.824   4.291   3.138
  121W        W 1118   3.647   4.548   7.271
  122W        W 1119   2.403   5.211   3.342
  123W        W 1120   2.988   4.661   1.663
  124W        W 1121   6.735   3.204   5.139
  125W        W 1122   4.022   4.883   5.159
  126W        W 1123   5.888   7.141   7.498
  127W        W 1124   3.523   1.137   2.160
  128W        W 1125   6.001   3.616   3.558
  129W        W 1126   7.283   5.747   3.784
  130W        W 1127   4.538   7.235   6.298
  131W        W 1128   4.335   2.941   6.126
  132W        W 1129   7.233   5.513   2.330
  133W        W 1130   6.317   7.662   5.862
  134W        W 1131   2.636   2.386   1.391
  135W        W 1132   6.306   6.699   6.673
  136W        W 1133   1.056   5.254   3.602
  137W        W 1134   4.779   5.471   2.389
  138W        W 1135   3.687   6.854   1.315
  139W        W 1136   4.352   3.859   0.364
  140W        W 1137   4.595   1.781   0.992
  141W        W 1138   1.069   1.923   6.039
  142W        W 1139   6.012   6.655   3.197
  143W        W 1140   1.119   5.007   2.549
  144W        W 1141   2.966   3.695   1.522
  145W        W 1142   4.440   5.012   2.354
  146W        W 1143   7.212   5.356   1.442
  147W        W 1144   5.001   3.157   1.414
  148W        W 1145   4.144   3.260   1.120
  149W        W 1146   2.334   6.299   3.439
  150W        W 1147   4.969   7.108   7.030
  151W        W 1148   3.697   5.630   0.356
  152W        W 1149   6.159   5.978   2.946
  153W        W 1150   7.946   1.041   1.065
  154W        W 1151   0.908   4.354   2.014
  155W        W 1152   4.702   5.194   6.311
  156W        W 1153   6.440   2.583   7.165
  157W        W 1154   4.484   2.927   2.295
  158W        W 1155   5.550   5.807   0.744
  159W        W 1156   0.624   1.324   6.703
  160W        W 1157   0.116   3.939   5.123
  161W        W 1158   7.132   1.895   5.787
  162W        W 1159   6.854   0.887   1.392
  163W        W 1160   1.465   1.219   6.330
  164W        W 1161   0.254   6.065   1.539
  165W        W 1162   4.038   7.269   2.293
  166W        W 1163   5.744   3.471   7.959
  167W        W 1164   1.741   5.117   6.735
  168W        W 1165   5.546   1.032   0.140
  169W        W 1166   2.787   5.886   1.607
  170W        W 1167   7.032   6.802   6.857
  171W        W 1168   3.907   1.654   4.172
  172W        W 1169   3.887   3.233   7.973
  173W        W 1170   3.903   3.696   1.259
  174W        W 1171   7.498   0.405   0.759
  175W        W 1172   1.734   6.208   5.440
  176W        W 1173   2.581   6.774   1.729
  177W        W 1174   6.974   5.137   1.053
  178W        W 1175   6.635   2.992   3.045
  179W        W 1176   6.000   0.942   7.836
  180W        W 1177   7.005   5.662   4.756
  181W        W 1178   4.847   1.600   7.772
  182W        W 1179   4.515   3.927   6.287
  183W        W 1180   6.016   3.404   4.702
  184W        W 1181   1.291   1.511   5.144
  185W        W 1182   3.125   7.066   2.372
  186W        W 1183   1.526   6.400   1.614
  187W        W 1184   0.563   2.216   3.455
  188W        W 1185   3.385   1.867   1.178
  189W        W 1186   1.693   3.821   2.414
  190W        W 1187   5.981   3.985   0.964
  191W        W 1188   7.349   4.359   2.115
  192W        W 1189   4.394   0.746   2.163
  193W        W 1190   2.918   3.506   1.047
  194W        W 1191   1.450   2.785   2.511
  195W        W 1192   7.875   2.615   5.696
  196W        W 1193   2.070   0.626   4.389
  197W        W 1194   2.803   6.410   0.295
  198W        W 1195   5.671   6.027   2.797
  199W        W 1196   1.262   0.462   5.185
  200W        W 1197   5.154   7.547   5.251
  201W        W 1198   6.309   3.355   7.899
  202W        W 1199   5.963   2.305   5.063
  203W        W 1200   5.756   7.431   4.666
  204W        W 1201   2.063   4.655   0.848
  205W        W 1202   5.432   6.629   4.576
  206W        W 1203   3.169   2.559   7.165
  207W        W 1204   0.768   4.923   0.957
  208W        W 1205   1.454   3.662   2.824
  209W        W 1206   7.286   0.811   7.351
  210W        W 1207   3.817   3.583   5.369
  211W        W 1208   0.218   1.017   2.556
  212W        W 1209   5.312   6.552   4.090
  213W        W 1210   5.932   0.681   4.702
  214W        W 1211   7.090   6.535   5.176
  215W        W 1212   5.895   7.631   6.617
  216W        W 1213   1.032   6.485   1.702
  217W        W 1214   0.842   4.442   1.118
  218W        W 1215   2.626   6.084   5.274
  219W        W 1216   2.172   2.697   4.067
  220W        W 1217   0.912   7.207   1.209
  221W        W 1218   0.164   0.166   4.028
  222W        W 1219   0.995   3.707   6.463
  223W        W 1220   3.471   0.865   1.334
  224W        W 1221   7.707   5.229   3.242
  225W        W 1222   7.157   2.159   7.023
  226W        W 1223   3.696   2.088   5.607
  227W        W 1224   6.054   7.647   7.552
  228W        W 1225   1.425   4.766   3.207
  229W        W 1226   3.583   1.388   3.778
  230W        W 1227   6.133   7.315   7.935
  231W        W 1228   5.723   2.961   0.113
  232W        W 1229   2.680   5.685   4.869
  233W        W 1230   1.691   5.180   1.370
  234W        W 1231   3.619   4.066   3.549
  235W        W 1232   2.945   2.079   2.186
  236W        W 1233   3.087   6.386   5.153
  237W        W 1234   7.500   5.790   4.624
  238W        W 1235   7.015   1.501   0.858
  239W        W 1236   6.841   6.719   0.884
  240W        W 1237   3.240   1.690   6.262
  241W        W 1238   5.566   3.236   6.513
  242W        W 1239   7.749   2.229   6.535
  243W        W 1240   1.340   4.140   4.935
  244W        W 1241   4.846   5.897   2.637
  245W        W 1242   1.461   2.966   7.510
  246W        W 1243   1.467   3.873   0.061
  247W        W 1244   2.434   5.055   4.197
  248W        W 1245   2.424   0.233   3.159
  249W        W 1246   6.479   3.590   4.871
  250W        W 1247   2.408   6.598   5.909
  251W        W 1248   1.675   2.826   3.882
  252W        W 1249   1.750   2.573   4.324
  253W        W 1250   1.300   3.754   3.810
  254W        W 1251   6.683   4.324   3.206
  255W        W 1252   2.144   4.220   3.682
  256W        W 1253   1.916   3.070   7.273
  257W        W 1254   1.473   7.919   1.789
  258W        W 1255   3.787   4.427   1.034
  259W        W 1256   5.058   5.856   1.582
  260W        W 1257   1.577   1.964   5.205
  261W        W 1258   3.625   0.908   3.953
  262W        W 1259   1.912   4.172   0.863
  263W        W 1260   2.533   3.305   4.829
  264W        W 1261   1.054   4.589   2.847
  265W        W 1262   2.253   1.536   3.427
  266W        W 1263   5.238   7.010   1.354
  267W        W 1264   5.723   4.990   4.970
  268W        W 1265   5.736   3.414   2.763
  269W        W 1266   3.414   6.392   6.544
  270W        W 1267   7.861   5.609   2.938
  271W        W 1268   5.362   1.161   3.784
  272W        W 1269   5.828   4.592   6.825
  273W        W 1270   1.774   5.316   0.058
  274W        W 1271   0.424   0.491   3.699
  275W        W 1272   1.188   3.996   1.730
  276W        W 1273   0.213   5.085   5.339
  277W        W 1274   7.308   6.266   4.401
  278W        W 1275   5.162   4.542   7.466
  279W        W 1276   1.339   3.324   1.531
  280W        W 1277   1.669   4.156   5.325
  281W        W 1278   1.371   5.671   3.591
  282W        W 1279   5.150   3.683   7.935
  283W        W 1280   6.354   5.999   5.250
  284W        W 1281   3.168   4.321   7.349
  285W        W 1282   5.652   6.390   7.837
  286W        W 1283   4.013   0.632   3.802
  287W        W 1284   3.926   0.796   5.183
  288W        W 1285   4.173   3.839   1.721
  289W        W 1286   1.734   5.810   0.816
  290W        W 1287   0.675   2.658   3.245
  291W        W 1288   2.797   2.682   2.955
  292W        W 1289   5.733   5.860   5.857
  293W        W 1290   0.751   6.742   0.297
  294W        W 1291   1.424   1.750   1.036
  295W        W 1292   2.103   2.279   7.032
  296W        W 1293   7.945   5.158   2.055
  297W        W 1294   6.935   5.654   3.423
  298W        W 1295   2.828   4.295   6.905
  299W        W 1296   0.634   5.218   1.816
  300W        W 1297   2.361   4.495   5.368
  301W        W 1298   7.589   4.155   2.514
  302W        W 1299   2.785   2.169   3.498
  303W        W 1300   6.635   1.233   1.087
  304W        W 1301   2.043   2.380   5.979
  305W        W 1302   3.137   4.212   1.487
  306W        W 1303   4.473   6.730   1.741
  307W        W 1304   6.815   4.192   1.086
  308W        W 1305   6.127   0.613   6.761
  309W        W 1306   0.998   7.937   4.370
  310W        W 1307   6.351   6.970   7.629
  311W        W 1308   2.822   4.324   2.710
  312W        W 1309   5.499   3.816   2.500
  313W        W 1310   6.495   4.874   3.256
  314W        W 1311   5.118   5.364   1.474
  315W        W 1312   1.556   1.293   2.631
  316W        W 1313   2.470   5.166   2.397
  317W        W 1314   3.149   0.874   4.844
  318W        W 1315   4.214   0.857   3.385
  319W        W 1316   6.775   6.941   5.058
  320W        W 1317   2.583   6.724   3.352
  321W        W 1318   6.427   1.850   6.978
  322W        W 1319   1.073   4.128   0.298
  323W        W 1320   5.556   4.455   4.122
  324W        W 1321   0.603   2.245   6.565
  325W        W 1322   6.802   5.215   5.463
  326W        W 1323   2.896   5.212   7.429
  327W        W 1324   6.429   6.633   0.596
  328W        W 1325   5.008   1.380   6.946
  329W        W 1326   6.468   3.880   0.912
  330W        W 1327   6.392   6.474   1.081
  331W        W 1328   4.927   2.075   2.805
  332W        W 1329   3.373   5.530   2.354
  333W        W 1330   6.167   3.855   6.505
  334W        W 1331   2.179   6.403   6.313
  335W        W 1332   0.784   2.087   5.654
  336W        W 1333   1.284   4.024   2.213
  337W        W 1334   6.272   1.455   6.660
  338W        W 1335   1.373   6.341   2.531
  339W        W 1336   0.792   1.550   0.874
  340W        W 1337   2.809   1.424   6.328
  341W        W 1338   3.413   1.708   2.925
  342W        W 1339   7.339   4.613   5.279
  343W        W 1340   5.665   1.186   5.444
  344W        W 1341   3.127   3.553   7.182
  345W        W 1342   7.221   3.691   1.460
  346W        W 1343   6.299   7.304   7.209
  347W        W 1344   5.959   6.634   7.481
  348W        W 1345   1.591   0.793   2.378
  349W        W 1346   0.322   3.132   1.117
  350W        W 1347   2.178   4.979   1.204
  351W        W 1348   5.496   3.165   1.992
  352W        W 1349   5.889   3.251   3.227
  353W        W 1350   7.638   3.731   4.237
  354W        W 1351   5.053   5.761   7.821
  355W        W 1352   4.706   2.957   4.446
  356W        W 1353   4.544   7.010   6.754
  357W        W 1354   2.828   5.721   6.686
  358W        W 1355   5.822   5.363   0.946
  359W        W 1356   5.224   1.863   3.144
  360W        W 1357   4.932   5.419   7.017
  361W        W 1358   5.614   4.119   0.606
  362W        W 1359   4.505   3.121   0.619
  363W        W 1360   0.337   1.969   4.386
  364W        W 1361   7.299   3.141   4.746
  365W        W 1362   4.095   5.020   5.668
  366W        W 1363   5.065   1.313   0.245
  367W        W 1364   4.479   3.332   1.958
  368W        W 1365   6.512   2.527   2.896
  369W        W 1366   2.416   3.367   0.939
  370W        W 1367   3.244   3.659   4.465
  371W        W 1368   5.879   6.139   7.435
  372W        W 1369   7.362   5.773   1.669
  373W        W 1370   5.276   1.531   5.360
  374W        W 1371   5.222   3.609   2.866
  375W        W 1372   7.482   3.871   6.486
  376W        W 1373   4.530   4.694   3.473
  377W        W 1374   4.911   7.950   1.437
  378W        W 1375   1.024   1.851   3.090
  379W        W 1376   6.104   4.721   5.185
  380W        W 1377   4.423   0.446   6.389
  381W        W 1378   0.782   5.855   0.697
  382W        W 1379   0.878   0.481   2.767
  383W        W 1380   5.789   7.238   6.300
  384W        W 1381   1.045   3.082   2.596
  385W        W 1382   1.889   4.617   3.837
  386W        W 1383   7.272   6.438   0.866
  387W        W 1384   3.999   4.751   4.423
  388W        W 1385   6.855   1.726   1.702
  389W        W 1386   6.281   4.087   2.194
  390W        W 1387   3.400   1.341   3.287
  391W        W 1388   0.240   3.377   1.549
  392W        W 1389   0.312   1.146   1.451
  393W        W 1390   0.752   0.720   5.040
  394W        W 1391   5.095   6.699   7.325
  395W        W 1392   5.203   4.661   2.154
  396W        W 1393   1.238   4.485   3.642
  397W        W 1394   5.334   7.163   1.853
  398W        W 1395   2.029   2.869   3.192
  399W        W 1396   2.813   3.946   7.283
  400W        W 1397   1.045   7.505   3.231
  401W        W 1398   6.086   5.855   6.244
  402W        W 1399   1.058   3.716   4.274
  403W        W 1400   2.885   7.178   6.215
  404W        W 1401   3.816   2.555   5.493
  405W        W 1402   1.093   5.952   0.293
  406W        W 1403   0.592   1.659   5.895
  407W        W 1404   3.036   6.428   3.356
  408W        W 1405   2.635   3.456   0.480
  409W        W 1406   7.939   2.166   5.391
  410W        W 1407   6.302   3.532   6.886
  411W        W 1408   4.013   1.797   5.152
  412W        W 1409   0.571   5.665   4.199
  413W        W 1410   1.923   1.611   0.820
  414W        W 1411   3.382   2.231   0.421
  415W        W 1412   6.378   4.915   5.612
  416W        W 1413   0.833   1.824   4.308
  417W        W 1414   7.733   1.971   2.455
  418W        W 1415   2.475   1.217   3.060
  419W        W 1416   0.523   3.831   4.206
  420W        W 1417   5.953   1.387   3.203
  421W        W 1418   3.442   2.303   4.689
  422W        W 1419   4.601   3.335   7.033
  423W        W 1420   2.812   4.750   7.122
  424W        W 1421   5.034   3.359   1.903
  425W        W 1422   3.182   5.983   3.058
  426W        W 1423   6.889   7.744   6.864
  427W        W 1424   0.799   3.867   2.072
  428W        W 1425   7.145   1.395   6.735
  429W        W 1426   4.319   6.063   3.269
  430W        W 1427   1.781   4.916   5.873
  431W        W 1428   6.205   7.917   6.314
  432W        W 1429   6.096   6.374   4.943
  433W        W 1430   0.959   1.983   1.087
  434W        W 1431   7.579   4.565   0.954
  435W        W 1432   6.143   4.450   4.109
  436W        W 1433   4.228   6.354   1.985
  437W        W 1434   4.804   3.758   5.512
  438W        W 1435   6.726   1.678   2.956
  439W        W 1436   1.228   1.124   1.453
  440W        W 1437   3.505   4.436   7.749
  441W        W 1438   5.625   4.911   0.731
  442W        W 1439   3.534   0.450   3.698
  443W        W 1440   1.629   5.261   4.549
  444W        W 1441   2.574   0.897   1.164
  445W        W 1442   6.813   2.625   7.528
  446W        W 1443   1.482   0.820   6.657
  447W        W 1444   5.090   6.698   0.963
  448W        W 1445   1.973   5.571   5.864
  449W        W 1446   3.344   4.025   6.971
  450W        W 1447   6.011   3.535   5.601
  451W        W 1448   5.148   3.517   3.890
  452W        W 1449   1.897   1.867   1.262
  453W        W 1450   5.814   7.421   7.081
  454W        W 1451   0.597   3.153   2.386
  455W        W 1452   7.837   3.471   2.974
  456W        W 1453   3.450   2.001   2.170
  457W        W 1454   1.766   2.548   7.353
  458W        W 1455   5.965   2.261   0.761
  459W        W 1456   6.830   3.886   3.742
  460W        W 1457   6.284   6.479   5.454
  461W        W 1458   7.873   0.938   6.713
  462W        W 1459   4.215   1.706   3.217
  463W        W 1460   6.901   5.890   2.536
  464W        W 1461   0.829   6.337   0.883
  465W        W 1462   2.698   4.437   4.350
  466W        W 1463   1.499   7.294   2.424
  467W        W 1464   1.350   2.811   5.356
  468W        W 1465   4.790   2.140   7.931
  469W        W 1466   3.047   1.966   3.893
  470W        W 1467   0.360   1.373   1.922
  471W        W 1468   6.076   7.463   3.566
  472W        W 1469   2.490   2.839   2.121
  473W        W 1470   6.890   2.864   5.501
  474W        W 1471   2.573   2.807   3.725
  475W        W 1472   2.861   3.697   4.804
  476W        W 1473   6.480   2.743   5.136
  477W        W 1474   1.384   3.337   0.885
  478W        W 1475   1.160   1.524   2.391
  479W        W 1476   7.225   1.690   5.031
  480W        W 1477   0.491   4.299   4.446
  481W        W 1478   0.779   3.636   3.345
  482W        W 1479   4.458   4.096   5.439
  483W        W 1480   4.034   2.471   7.335
  484W        W 1481   6.823   2.920   0.919
  485W        W 1482   1.122   5.492   2.368
  486W        W 1483   3.178   7.481   5.914
  487W        W 1484   4.111   4.500   4.835
  488W        W 1485   6.180   7.066   1.328
  489W        W 1486   4.581   4.013   2.501
  490W        W 1487   6.764   7.449   6.039
  491W        W 1488   5.321   2.800   1.234
  492W        W 1489   0.827   4.009   1.386
  493W        W 1490   6.397   6.806   0.109
  494W        W 1491   6.394   3.927   3.421
  495W        W 1492   1.805   2.077   3.476
  496W        W 1493   2.418   5.031   7.293
  497W        W 1494   5.704   3.390   5.196
  498W        W 1495   6.574   2.316   3.839
  499W        W 1496   4.709   1.035   4.307
  500W        W 1497   3.569   3.297   4.680
  501W        W 1498   3.005   1.384   2.947
  502W        W 1499   4.766   6.217   3.073
  503W        W 1500   7.735   6.393   6.230
  504W        W 1501   0.244   5.893   0.608
  505W        W 1502   5.085   6.257   2.284
  506W        W 1503   7.160   1.866   3.343
  507W        W 1504   3.589   3.321   2.271
  508W        W 1505   2.907   0.620   5.266
  509W        W 1506   1.713   2.188   4.712
  510W        W 1507   6.758   7.815   3.141
  511W        W 1508   7.391   4.917   2.915
  512W        W 1509   0.429   1.828   6.870
  513W        W 1510   5.192   4.808   4.088
  514W        W 1511   4.574   3.766   7.892
  515W        W 1512   4.778   2.874   6.944
  516W        W 1513   1.248   2.917   4.873
  517W        W 1514   6.293   7.392   6.292
  518W        W 1515   4.667   3.825   0.753
  519W        W 1516   0.309   6.375   0.771
  520W        W 1517   7.037   7.892   6.035
  521W        W 1518   5.915   5.898   4.952
  522W        W 1519   0.325   0.602   4.221
  523W        W 1520   6.192   0.163   0.427
  524W        W 1521   4.498   3.113   1.478
  525W        W 1522   2.703   3.620   2.556
  526W        W 1523   4.834   2.615   1.238
  527W        W 1524   6.937   0.201   6.573
  528W        W 1525   6.191   1.406   1.328
  529W        W 1526   1.259   5.654   0.679
  530W        W 1527   0.192   3.419   4.814
  531W        W 1528   6.358   4.886   4.267
  532W        W 1529   4.296   0.858   1.669
  533W        W 1530   5.385   4.086   7.602
  534W        W 1531   1.443   4.605   6.109
  535W        W 1532   1.514   5.675   5.434
  536W        W 1533   3.796   1.586   5.558
  537W        W 1534   4.126   4.192   1.361
  538W        W 1535   7.481   4.283   6.166
  539W        W 1536   7.863   5.469   2.450
  540W        W 1537   0.352   3.949   2.804
  541W        W 1538   0.176   3.800   1.241
  542W        W 1539   1.752   5.976   6.938
  543W        W 1540   0.898   3.522   0.796
  544W        W 1541   6.247   2.275   3.317
  545W        W 1542   4.030   1.318   6.715
  546W        W 1543   3.331   1.296   5.550
  547W        W 1544   5.720   3.595   1.271
  548W        W 1545   7.949   4.064   6.397
  549W        W 1546   7.294   6.022   7.236
  550W        W 1547   5.736   4.813   1.230
  551W        W 1548   6.284   5.367   7.188
  552W        W 1549   5.459   5.407   7.809
  553W        W 1550   7.092   2.258   6.498
  554W        W 1551   0.181   2.215   3.106
  555W        W 1552   3.141   5.230   3.578
  556W        W 1553   0.420   4.303   1.876
  557W        W 1554   1.662   1.239   5.868
  558W        W 1555   2.615   1.906   2.538
  559W        W 1556   5.767   0.930   0.607
  560W        W 1557   7.649   2.307   7.023
  561W        W 1558   2.635   6.896   4.701
  562W        W 1559   1.831   0.930   4.065
  563W        W 1560   4.761   1.191   2.799
  564W        W 1561   4.207   2.707   0.605
  565W        W 1562   4.510   5.558   4.929
  566W        W 1563   2.532   0.900   5.748
  567W        W 1564   7.351   4.784   5.768
  568W        W 1565   4.396   7.192   0.991
  569W        W 1566   0.706   5.756   4.764
  570W        W 1567   2.418   1.421   5.987
  571W        W 1568   2.506   6.521   5.039
  572W        W 1569   7.085   0.505   1.091
  573W        W 1570   2.258   3.204   2.867
  574W        W 1571   1.909   4.949   7.263
  575W        W 1572   5.337   3.698   6.599
  576W        W 1573   7.361   2.956   1.574
  577W        W 1574   3.094   6.112   5.603
  578W        W 1575   1.231   1.283   0.969
  579W        W 1576   2.119   4.133   5.075
  580W        W 1577   3.319   7.184   1.881
  581W        W 1578   4.456   4.074   7.045
  582W        W 1579   1.767   7.142   4.394
  583W        W 1580   3.476   4.813   5.995
  584W        W 1581   5.683   1.468   1.353
  585W        W 1582   3.142   1.272   6.000
  586W        W 1583   2.438   3.164   4.043
  587W        W 1584   5.524   7.229   6.723
  588W        W 1585   1.334   2.530   4.588
  589W        W 1586   2.922   4.720   6.596
  590W        W 1587   5.829   0.872   7.300
  591W        W 1588   5.977   0.109   5.904
  592W        W 1589   5.036   3.076   4.904
  593W        W 1590   7.353   7.479   3.914
  594W        W 1591   5.069   1.750   1.212
  595W        W 1592   6.169   3.224   5.964
  596W        W 1593   6.604   4.439   4.343
  597W        W 1594   2.138   0.073   7.742
  598W        W 1595   2.887   5.909   3.990
  599W        W 1596   7.538   0.741   1.230
  600W        W 1597   6.144   3.252   0.370
  601W        W 1598   5.242   4.850   1.386
  602W        W 1599   7.310   4.036   3.020
  603W        W 1600   5.435   7.913   1.505
  604W        W 1601   3.319   2.601   6.667
  605W        W 1602   3.875   0.593   4.699
  606W        W 1603   4.373   1.250   6.348
  607W        W 1604   6.401   3.430   7.381
  608W        W 1605   5.651   1.258   7.586
  609W        W 1606   3.962   3.927   6.979
  610W        W 1607   6.079   3.747   5.139
  611W        W 1608   1.207   5.094   1.206
  612W        W 1609   5.642   6.166   4.053
  613W        W 1610   6.452   6.522   4.536
  614W        W 1611   1.952   1.841   3.059
  615W        W 1612   7.371   3.494   6.154
  616W        W 1613   4.927   4.157   7.819
  617W        W 1614   3.142   3.681   3.962
  618W        W 1615   3.094   4.625   5.619
  619W        W 1616   7.620   2.573   6.179
  620W        W 1617   3.253   5.342   6.150
  621W        W 1618   7.487   0.403   3.890
  622W        W 1619   1.085   3.372   3.031
  623W        W 1620   0.828   2.778   7.183
  624W        W 1621   7.785   4.662   5.521
  625W        W 1622   3.837   2.074   4.467
  626W        W 1623   2.525   5.992   4.358
  627W        W 1624   5.544   7.640   0.501
  628W        W 1625   6.662   1.389   6.989
  629W        W 1626   4.737   5.204   4.185
  630W        W 1627   7.524   7.716   6.051
  631W        W 1628   3.062   7.677   6.386
  632W        W 1629   4.070   6.847   6.904
  633W        W 1630   6.806   6.966   3.769
  634W        W 1631   5.694   4.798   1.725
  635W        W 1632   4.053   5.745   2.884
  636W        W 1633   1.110   0.789   1.071
  637W        W 1634   3.777   0.905   1.749
  638W        W 1635   3.701   5.644   5.015
  639W        W 1636   2.886   1.587   4.185
  640W        W 1637   1.550   7.881   4.381
  641W        W 1638   0.191   6.009   3.025
  642W        W 1639   1.908   4.127   7.986
  643W        W 1640   4.679   7.614   1.129
  644W        W 1641   3.426   6.466   4.310
  645W        W 1642   1.032   3.685   2.536
  646W        W 1643   0.787   1.228   1.681
  647W        W 1644   7.124   4.527   1.696
  648W        W 1645   6.624   6.209   5.684
  649W        W 1646   5.167   1.704   6.179
  650W        W 1647   1.755   5.339   3.718
  651W        W 1648   1.768   3.092   1.652
  652W        W 1649   1.314   3.948   6.761
  653W        W 1650   1.466   3.619   5.772
  654W        W 1651   5.914   7.900   0.748
  655W        W 1652   1.558   2.894   0.671
  656W        W 1653   7.739   6.088   1.747
  657W        W 1654   6.631   5.732   4.415
  658W        W 1655   4.390   6.560   2.995
  659W        W 1656   1.703   4.759   4.596
  660W        W 1657   4.757   4.016   4.584
  661W        W 1658   3.001   4.884   6.112
  662W        W 1659   6.956   0.735   6.521
  663W        W 1660   2.953   5.237   4.947
  664W        W 1661   3.264   2.647   2.782
  665W        W 1662   3.163   0.786   2.331
  666W        W 1663   6.821   1.045   2.825
  667W        W 1664   3.646   0.972   6.730
  668W        W 1665   5.418   1.197   2.057
  669W        W 1666   1.620   5.743   4.019
  670W        W 1667   4.437   4.483   2.414
  671W        W 1668   5.537   5.367   3.543
  672W        W 1669   3.251   3.493   0.668
  673W        W 1670   3.338   5.387   5.300
  674W        W 1671   7.352   2.477   4.819
  675W        W 1672   3.202   6.093   0.233
  676W        W 1673   4.175   0.175   5.475
  677W        W 1674   3.718   4.215   6.103
  678W        W 1675   4.813   3.293   2.353
  679W        W 1676   1.746   1.580   3.496
  680W        W 1677   6.976   4.364   3.981
  681W        W 1678   0.068   3.377   2.135
  682W        W 1679   4.692   2.358   5.044
  683W        W 1680   6.093   5.306   4.197
  684W        W 1681   2.915   3.796   6.777
  685W        W 1682   6.351   0.889   1.438
  686W        W 1683   4.096   1.485   2.466
  687W        W 1684   5.126   1.327   3.124
  688W        W 1685   6.530   4.302   3.752
  689W        W 1686   5.563   6.509   2.972
  690W        W 1687   4.749   4.655   7.811
  691W        W 1688   1.264   5.474   0.168
  692W        W 1689   1.470   4.583   5.609
  693W        W 1690   7.358   3.115   2.747
  694W        W 1691   5.156   6.088   3.928
  695W        W 1692   5.836   4.472   3.690
  696W        W 1693   6.817   6.212   0.965
  697W        W 1694   7.722   1.134   3.494
  698W        W 1695   3.222   4.469   2.440
  699W        W 1696   6.004   4.944   6.505
  700W        W 1697   0.326   5.536   2.172
  701W        W 1698   5.206   5.469   2.752
  702W        W 1699   4.952   2.058   2.287
  703W        W 1700   2.740   6.942   6.650
  704W        W 1701   0.485   1.801   3.151
  705W        W 1702   0.594   5.253   1.310
  706W        W 1703   3.172   0.748   6.847
  707W        W 1704   5.855   6.231   5.396
  708W        W 1705   0.987   3.189   1.181
  709W        W 1706   3.849   1.438   2.910
  710W        W 1707   1.430   3.601   1.950
  711W        W 1708   0.933   5.455   1.006
  712W        W 1709   7.635   1.405   6.846
  713W        W 1710   5.795   0.552   0.119
  714W        W 1711   4.256   6.985   2.723
  715W        W 1712   2.799   2.564   6.498
  716W        W 1713   0.403   4.272   1.372
  717W        W 1714   5.702   5.293   4.541
  718W        W 1715   2.996   1.676   5.403
  719W        W 1716   6.340   6.259   1.903
  720W        W 1717   5.449   2.299   2.976
  721W        W 1718   4.259   2.301   4.294
  722W        W 1719   0.178   0.945   0.626
  723W        W 1720   5.440   5.588   1.823
  724W        W 1721   0.324   2.367   5.655
  725W        W 1722   2.843   2.036   1.711
  726W        W 1723   0.746   2.654   2.677
  727W        W 1724   1.811   3.801   3.535
  728W        W 1725   3.577   6.754   1.808
  729W        W 1726   6.383   2.981   5.568
  730W        W 1727   4.092   4.323   7.275
  731W        W 1728   5.663   4.097   2.885
  732W        W 1729   2.043   5.207   2.126
  733W        W 1730   3.427   5.989   1.089
  734W        W 1731   4.116   3.829   7.458
  735W        W 1732   5.370   0.401   7.378
  736W        W 1733   2.450   5.952   3.782
  737W        W 1734   4.345   0.086   2.098
  738W        W 1735   5.375   2.723   3.264
  739W        W 1736   5.549   7.664   1.027
  740W        W 1737   4.847   2.074   7.421
  741W        W 1738   3.515   3.539   2.717
  742W        W 1739   0.742   1.739   2.209
  743W        W 1740   3.273   6.132   7.381
  744W        W 1741   1.936   6.532   3.613
  745W        W 1742   1.509   1.614   3.044
  746W        W 1743   7.486   1.519   1.597
  747W        W 1744   1.849   3.867   0.438
  748W        W 1745   2.478   2.545   5.757
  749W        W 1746   4.466   7.948   6.217
  750W        W 1747   7.556   2.211   5.728
  751W        W 1748   3.004   1.561   1.601
  752W        W 1749   6.593   3.956   5.226
  753W        W 1750   2.617   2.221   0.911
  754W        W 1751   6.645   6.839   1.336
  755W        W 1752   3.105   0.026   5.992
  756W        W 1753   5.889   1.640   4.577
  757W        W 1754   7.347   5.831   6.260
  758W        W 1755   1.280   7.193   4.593
  759W        W 1756   1.987   3.572   1.629
  760W        W 1757   3.913   4.611   5.870
  761W        W 1758   5.212   0.917   4.250
  762W        W 1759   3.818   0.095   2.115
  763W        W 1760   3.465   0.443   3.163
  764W        W 1761   1.975   2.265   1.601
  765W        W 1762   2.969   5.753   4.452
  766W        W 1763   1.565   5.314   1.839
  767W        W 1764   5.642   4.925   7.841
  768W        W 1765   2.464   6.017   7.560
  769W        W 1766   4.035   4.816   2.588
  770W        W 1767   3.139   4.131   3.697
  771W        W 1768   3.586   1.561   2.462
  772W        W 1769   0.196   5.059   3.531
  773W        W 1770   6.319   2.266   5.886
  774W        W 1771   4.566   6.826   7.247
  775W        W 1772   6.575   0.566   2.658
  776W        W 1773   6.785   0.331   3.096
  777W        W 1774   1.381   6.314   7.026
  778W        W 1775   5.508   1.929   1.389
  779W        W 1776   1.396   1.788   6.980
  780W        W 1777   5.940   7.790   5.510
  781W        W 1778   3.579   5.819   2.748
  782W        W 1779   1.104   5.904   7.714
  783W        W 1780   7.310   0.055   6.892
  784W        W 1781   5.497   3.805   7.115
  785W        W 1782   6.400   6.196   6.712
  786W        W 1783   4.438   2.623   1.538
  787W        W 1784   4.131   4.685   2.074
  788W        W 1785   3.834   4.437   5.255
  789W        W 1786   4.128   3.960   2.247
  790W        W 1787   7.205   6.951   5.475
  791W        W 1788   6.618   0.441   1.323
  792W        W 1789   6.479   0.049   6.765
  793W        W 1790   3.774   2.241   5.078
  794W        W 1791   5.175   0.145   6.344
  795W        W 1792   1.281   2.295   0.852
  796W        W 1793   6.095   7.163   6.712
  797W        W 1794   5.574   6.461   5.036
  798W        W 1795   3.282   6.573   2.329
  799W        W 1796   1.476   2.452   3.548
  800W        W 1797   6.370   2.545   4.676
  801W        W 1798   6.984   5.886   1.329
  802W        W 1799   6.141   1.798   5.876
  803W        W 1800   6.592   6.459   5.060
  804W        W 1801   2.094   5.379   7.073
  805W        W 1802   0.865   4.872   1.506
  806W        W 1803   0.539   6.607   1.717
  807W        W 1804   1.337   2.388   5.076
  808W        W 1805   6.754   6.693   5.534
  809W        W 1806   3.949   5.143   2.178
  810W        W 1807   2.423   1.718   2.963
  811W        W 1808   2.934   7.086   5.628
  812W        W 1809   3.518   6.394   1.445
  813W        W 1810   5.805   3.973   2.133
  814W        W 1811   3.965   6.277   2.930
  815W        W 1812   2.322   5.661   2.470
  816W        W 1813   5.864   4.072   3.378
  817W        W 1814   6.463   5.896   1.140
  818W        W 1815   3.381   6.882   5.082
  819W        W 1816   5.508   4.046   1.131
  820W        W 1817   6.851   0.130   2.615
  821W        W 1818   7.115   2.672   6.154
  822W        W 1819   4.239   1.689   1.995
  823W        W 1820   3.824   2.692   6.777
  824W        W 1821   3.171   3.221   1.443
  825W        W 1822   7.026   4.072   6.329
  826W        W 1823   5.924   1.776   5.069
  827W        W 1824   4.176   1.421   1.126
  828W        W 1825   4.124   1.311   5.881
  829W        W 1826   5.462   4.415   1.500
  830W        W 1827   0.111   3.048   5.611
  831W        W 1828   5.534   3.446   5.701
  832W        W 1829   4.674   6.525   5.159
  833W        W 1830   0.377   3.390   3.637
  834W        W 1831   0.774   3.051   3.894
  835W        W 1832   3.416   0.863   5.298
  836W        W 1833   4.690   6.593   3.434
  837W        W 1834   2.516   6.000   6.335
  838W        W 1835   2.827   3.457   6.384
  839W        W 1836   2.601   7.451   6.542
  840W        W 1837   6.564   0.101   5.973
  841W        W 1838   5.656   6.129   6.270
  842W        W 1839   1.774   2.280   3.931
  843W        W 1840   3.641   5.044   7.162
  844W        W 1841   5.817   3.135   0.896
  845W        W 1842   6.069   3.157   6.595
  846W        W 1843   4.911   7.675   6.237
  847W        W 1844   1.569   2.597   2.055
  848W        W 1845   5.469   2.172   0.928
  849W        W 1846   6.223   2.851   0.046
  850W        W 1847   4.005   1.032   0.783
  851W        W 1848   1.911   0.898   0.088
  852W        W 1849   0.165   3.127   3.186
  853W        W 1850   7.331   3.676   4.669
  854W        W 1851   4.034   3.088   6.515
  855W        W 1852   1.527   0.366   3.618
  856W        W 1853   1.171   0.928   5.987
  857W        W 1854   2.145   1.464   6.820
  858W        W 1855   5.437   2.191   0.045
  859W        W 1856   0.748   3.135   3.390
  860W        W 1857   1.429   4.857   7.078
  861W        W 1858   5.557   0.382   6.654
  862W        W 1859   6.672   3.894   2.424
  863W        W 1860   4.882   4.419   0.262
  864W        W 1861   6.726   6.589   1.812
  865W        W 1862   4.077   1.291   5.235
  866W        W 1863   0.419   5.093   6.128
  867W        W 1864   3.784   7.678   1.468
  868W        W 1865   0.706   3.560   6.031
  869W        W 1866   2.363   6.969   0.647
  870W        W 1867   0.776   1.180   5.729
  871W        W 1868   6.831   6.561   2.559
  872W        W 1869   3.662   1.932   6.119
  873W        W 1870   1.701   3.466   7.530
  874W        W 1871   5.540   7.513   7.500
  875W        W 1872   4.694   0.308   5.441
  876W        W 1873   3.134   4.840   2.118
  877W        W 1874   5.785   2.756   1.547
  878W        W 1875   5.576   2.446   0.465
  879W        W 1876   4.382   1.587   5.546
  880W        W 1877   6.859   0.974   1.894
  881W        W 1878   0.296   1.401   2.910
  882W        W 1879   6.467   4.322   2.604
  883W        W 1880   3.074   6.612   4.699
  884W        W 1881   2.300   7.094   6.839
  885W        W 1882   1.386   0.582   0.262
  886W        W 1883   7.869   3.455   6.286
  887W        W 1884   3.115   6.750   6.365
  888W        W 1885   4.396   5.211   5.298
  889W        W 1886   5.858   4.487   0.846
  890W        W 1887   3.198   5.293   4.501
  891W        W 1888   6.761   6.503   6.521
  892W        W 1889   2.948   6.274   4.330
  893W        W 1890   2.631   6.769   7.143
  894W        W 1891   7.561   0.836   5.402
  895W        W 1892   4.007   2.862   1.410
  896W        W 1893   4.164   2.554   3.857
  897W        W 1894   1.601   0.852   1.183
  898W        W 1895   4.925   2.982   0.921
  899W        W 1896   6.726   3.043   7.198
  900W        W 1897   5.128   5.003   7.798
  901W        W 1898   4.555   3.222   5.702
  902W        W 1899   3.175   6.329   3.883
  903W        W 1900   0.890   7.992   3.048
  904W        W 1901   2.069   3.700   2.965
  905W        W 1902   5.931   6.750   5.244
  906W        W 1903   4.592   5.770   1.799
  907W        W 1904   0.085   4.515   3.584
  908W        W 1905   0.661   5.523   5.872
  909W        W 1906   6.861   2.145   2.796
  910W        W 1907   1.225   2.600   5.849
  911W        W 1908   4.470   5.449   7.208
  912W        W 1909   6.871   6.308   3.006
  913W        W 1910   5.537   3.920   6.165
  914W        W 1911   7.054   1.385   1.360
  915W        W 1912   0.323   3.846   5.582
  916W        W 1913   4.125   3.463   7.116
  917W        W 1914   4.847   6.895   4.857
  918W        W 1915   0.477   4.288   4.977
  919W        W 1916   4.123   4.712   3.152
  920W        W 1917   2.856   5.154   0.534
  921W        W 1918   3.227   3.064   3.048
  922W        W 1919   3.625   0.629   2.153
  923W        W 1920   6.836   1.402   4.865
  924W        W 1921   2.568   1.792   3.794
  925W        W 1922   5.951   5.685   3.337
  926W        W 1923   4.985   5.619   1.043
  927W        W 1924   6.854   3.086   4.240
  928W        W 1925   0.533   3.429   1.959
  929W        W 1926   5.586   1.916   4.281
  930W        W 1927   5.765   1.679   5.537
  931W        W 1928   4.017   3.472   2.843
  932W        W 1929   6.316   2.846   1.625
  933W        W 1930   7.545   4.684   6.940
  934W        W 1931   6.855   7.592   3.898
  935W        W 1932   1.420   5.052   5.383
  936W        W 1933   6.909   4.091   1.573
  937W        W 1934   2.442   2.527   3.330
  938W        W 1935   1.071   2.345   3.265
  939W        W 1936   2.707   4.822   5.132
  940W        W 1937   6.797   6.143   3.488
  941W        W 1938   0.627   3.549   1.245
  942W        W 1939   1.539   6.053   1.235
  943W        W 1940   4.433   0.032   1.270
  944W        W 1941   3.643   1.032   4.818
  945W        W 1942   5.152   7.512   1.302
  946W        W 1943   3.209   1.867   3.380
  947W        W 1944   7.501   5.063   1.064
  948W        W 1945   6.431   5.819   2.152
  949W        W 1946   3.047   3.003   6.509
  950W        W 1947   0.252   2.808   1.503
  951W        W 1948   5.342   3.254   0.983
  952W        W 1949   6.927   1.883   3.819
  953W        W 1950   0.657   5.056   5.651
  954W        W 1951   6.196   0.995   0.966
  955W        W 1952   1.177   0.723   4.754
  956W        W 1953   2.692   5.023   3.763
  957W        W 1954   5.732   2.997   2.444
  958W        W 1955   6.116   6.306   4.170
  959W        W 1956   2.710   3.098   1.264
  960W        W 1957   3.178   3.962   2.719
  961W        W 1958   6.926   1.529   5.466
  962W        W 1959   5.621   7.910   7.016
  963W        W 1960   0.843   5.395   0.488
  964W        W 1961   4.553   7.265   5.743
  965W        W 1962   3.309   2.695   4.080
  966W        W 1963   4.769   2.919   1.865
  967W        W 1964   4.082   4.090   3.763
  968W        W 1965   2.273   5.962   1.651
  969W        W 1966   0.823   5.662   1.988
  970W        W 1967   1.956   5.384   0.993
  971W        W 1968   7.937   4.286   1.171
  972W        W 1969   2.235   4.653   5.966
  973W        W 1970   6.717   3.683   1.338
  974W        W 1971   6.939   6.011   6.018
  975W        W 1972   7.096   7.045   1.203
  976W        W 1973   4.888   4.343   3.359
  977W        W 1974   4.212   2.962   7.027
  978W        W 1975   1.480   6.097   4.397
  979W        W 1976   6.308   6.793   4.127
  980W        W 1977   3.807   0.578   0.994
  981W        W 1978   3.216   4.898   5.208
  982W        W 1979   6.970   2.112   1.989
  983W        W 1980   7.262   4.587   2.561
  984W        W 1981   1.948   1.158   2.341
  985W        W 1982   6.427   7.544   6.758
  986W        W 1983   3.174   5.536   2.808
  987W        W 1984   6.425   3.443   6.354
  988W        W 1985   2.011   5.523   4.991
  989W        W 1986   4.625   7.511   0.633
  990W        W 1987   4.405   6.116   2.755
  991W        W 1988   5.393   4.968   0.269
  992W        W 1989   6.164   6.380   7.872
  993W        W 1990   1.612   5.821   0.328
  994W        W 1991   0.918   4.792   3.408
  995W        W 1992   2.072   0.394   3.926
  996W        W 1993   4.897   5.897   4.732
  997W        W 1994   5.717   2.355   2.448
  998W        W 1995   5.329   4.109   0.166
  999W        W 1996   5.580   1.958   2.062
 1000W        W 1997   2.807   3.796   3.487
 1001W        W 1998   5.401   3.199   3.106
 1002W        W 1999   6.210   4.666   2.873
 1003W        W 2000   5.623   5.200   4.041
 1004W        W 2001   5.374   4.529   1.004
 1005W        W 2002   5.950   5.667   1.370
 1006W        W 2003   0.014   1.439   0.612
 1007W        W 2004   7.106   1.074   5.304
 1008W        W 2005   7.037   2.255   4.190
 1009W        W 2006   4.086   5.883   6.127
 1010W        W 2007   2.526   4.973   6.252
 1011W        W 2008   1.871   5.278   5.457
 1012W        W 2009   5.085   4.376   3.840
 1013W        W 2010   1.851   3.696   5.449
 1014W        W 2011   1.570   3.456   4.413
 1015W        W 2012   6.317   3.074   0.847
 1016W        W 2013   4.835   4.626   1.158
 1017W        W 2014   3.992   2.421   0.193
 1018W        W 2015   5.976   5.452   1.834
 1019W        W 2016   7.860   3.107   1.728
 1020W        W 2017   5.154   2.298   3.439
 1021W        W 2018   2.338   3.206   6.113
 1022W        W 2019   6.974   2.628   7.035
 1023W        W 2020   6.981   4.266   5.378
 1024W        W 2021   1.719   6.815   2.340
 1025W        W 2022   0.418   1.546   4.112
 1026W        W 2023   0.921   3.570   1.661
 1027W        W 2024   3.569   4.853   2.403
 1028W        W 2025   3.724   1.744   3.322
 1029W        W 2026   1.866   3.379   2.625
 1030W        W 2027   4.242   6.794   3.447
 1031W        W 2028   6.774   5.801   3.909
 1032W        W 2029   3.445   3.264   5.195
 1033W        W 2030   5.462   5.812   6.611
 1034W        W 2031   3.931   0.084   1.149
 1035W        W 2032   5.009   0.701   7.602
 1036W        W 2033   0.732   3.719   7.357
 1037W        W 2034   0.774   3.918   6.873
 1038W        W 2035   4.541   0.341   1.693
 1039W        W 2036   2.222   6.489   7.605
 1040W        W 2037   5.482   5.735   0.222
 1041W        W 2038   3.522   4.408   0.267
 1042W        W 2039   3.228   5.032   1.400
 1043W        W 2040   5.111   2.213   6.544
 1044W        W 2041   2.848   5.793   7.234
 1045W        W 2042   4.919   6.042   5.211
 1046W        W 2043   0.739   2.538   5.891
 1047W        W 2044   1.811   0.660   0.531
 1048W        W 2045   0.916   6.793   6.500
 1049W        W 2046   1.591   1.673   2.104
 1050W        W 2047   1.263   1.930   2.657
 1051W        W 2048   2.336   3.130   6.980
 1052W        W 2049   5.050   1.779   0.675
 1053W        W 2050   2.610   4.935   1.457
 1054W        W 2051   1.671   0.301   2.487
 1055W        W 2052   6.023   7.257   5.097
 1056W        W 2053   4.920   4.545   2.570
 1057W        W 2054   0.959   4.067   3.557
 1058W        W 2055   5.327   6.767   6.814
 1059W        W 2056   5.755   1.422   6.526
 1060W        W 2057   7.460   2.663   2.989
 1061W        W 2058   5.916   1.703   3.629
 1062W        W 2059   1.645   2.708   6.157
 1063W        W 2060   0.345   3.885   4.684
 1064W        W 2061   6.118   3.666   3.051
 1065W        W 2062   0.434   4.739   3.216
 1066W        W 2063   3.572   3.253   5.693
 1067W        W 2064   5.422   6.520   1.337
 1068W        W 2065   3.889   1.821   6.734
 1069W        W 2066   0.830   3.560   3.843
 1070W        W 2067   0.961   3.953   2.966
 1071W        W 2068   5.077   6.417   5.495
 1072W        W 2069   1.777   4.281   4.735
 1073W        W 2070   5.380   4.455   3.439
 1074W        W 2071   4.707   7.784   5.286
 1075W        W 2072   1.469   4.400   0.081
 1076W        W 2073   4.466   0.716   5.096
 1077W        W 2074   2.038   7.088   0.265
 1078W        W 2075   5.141   2.022   1.781
 1079W        W 2076   6.610   3.809   1.860
 1080W        W 2077   3.416   2.185   4.161
 1081W        W 2078   1.591   6.635   3.237
 1082W        W 2079   0.478   0.528   0.632
 1083W        W 2080   4.938   2.178   0.951
 1084W        W 2081   7.469   0.244   0.243
 1085W        W 2082   1.116   2.875   1.562
 1086W        W 2083   0.165   5.150   1.595
 1087W        W 2084   2.441   5.240   4.947
 1088W        W 2085   3.760   7.154   2.766
 1089W        W 2086   6.618   1.156   4.444
 1090W        W 2087   6.081   1.984   4.213
 1091W        W 2088   1.183   3.374   6.145
 1092W        W 2089   2.890   3.861   0.637
 1093W        W 2090   6.375   2.050   2.877
 1094W        W 2091   0.844   3.787   5.545
 1095W        W 2092   1.221   2.036   4.718
 1096W        W 2093   5.957   1.843   1.119
 1097W        W 2094   7.367   0.706   6.217
 1098W        W 2095   2.465   1.702   5.571
 1099W        W 2096   7.291   0.853   3.681
 1100W        W 2097   5.017   5.804   2.081
 1101W        W 2098   7.842   7.286   7.077
 1102W        W 2099   0.659   6.245   0.402
 1103W        W 2100   6.722   4.014   5.742
 1104W        W 2101   7.154   0.361   3.474
 1105W        W 2102   0.816   1.780   3.535
 1106W        W 2103   5.970   5.132   7.501
 1107W        W 2104   1.494   2.121   3.084
 1108W        W 2105   3.360   5.241   0.365
 1109W        W 2106   3.250   1.560   2.049
 1110W        W 2107   5.400   6.010   5.405
 1111W        W 2108   1.056   5.554   3.206
 1112W        W 2109   6.504   4.448   5.376
 1113W        W 2110   3.667   0.082   5.554
 1114W        W 2111   5.886   3.462   7.252
 1115W        W 2112   4.868   3.223   3.096
 1116W        W 2113   7.541   2.508   5.304
 1117W        W 2114   7.427   7.565   6.936
 1118W        W 2115   0.645   6.122   1.870
 1119W        W 2116   6.033   2.905   4.489
 1120W        W 2117   4.196   1.568   7.116
 1121W        W 2118   6.462   4.802   3.766
 1122W        W 2119   2.450   5.521   7.431
 1123W        W 2120   4.054   4.532   0.573
 1124W        W 2121   3.805   5.949   3.267
 1125W        W 2122   0.699   1.722   1.725
 1126W        W 2123   5.667   1.548   2.393
 1127W        W 2124   5.993   2.627   7.413
 1128W        W 2125   3.126   5.971   2.520
 1129W        W 2126   1.623   6.795   0.199
 1130W        W 2127   4.162   5.519   0.086
 1131W        W 2128   6.422   2.580   0.754
 1132W        W 2129   6.631   7.017   4.531
 1133W        W 2130   7.398   2.728   5.744
 1134W        W 2131   4.788   3.630   5.993
 1135W        W 2132   3.342   1.750   5.759
 1136W        W 2133   4.779   6.124   4.310
 1137W        W 2134   7.886   1.474   2.612
 1138W        W 2135   1.121   3.155   0.496
 1139W        W 2136   2.779   2.938   6.070
 1140W        W 2137   0.305   3.246   6.096
 1141W        W 2138   4.357   2.683   6.637
 1142W        W 2139   3.195   6.797   1.481
 1143W        W 2140   3.299   2.809   4.647
 1144W        W 2141   0.022   4.677   5.075
 1145W        W 2142   7.159   4.345   0.762
 1146W        W 2143   6.344   1.561   4.314
 1147W        W 2144   3.764   5.167   1.596
 1148W        W 2145   2.765   2.862   4.708
 1149W        W 2146   3.502   4.519   6.437
 1150W        W 2147   2.383   2.298   3.819
 1151W        W 2148   5.211   2.387   7.622
 1152W        W 2149   4.922   5.506   5.971
 1153W        W 2150   6.868   6.053   5.267
 1154W        W 2151   5.514   1.918   0.478
 1155W        W 2152   0.884   6.429   4.164
 1156W        W 2153   7.189   2.725   4.403
 1157W        W 2154   4.622   4.850   5.584
 1158W        W 2155   5.558   1.084   3.079
 1159W        W 2156   1.702   6.697   1.207
 1160W        W 2157   4.289   4.977   6.529
 1161W        W 2158   6.495   2.225   5.058
 1162W        W 2159   3.948   3.119   3.926
 1163W        W 2160   1.805   5.056   5.005
 1164W        W 2161   5.953   4.328   2.526
 1165W        W 2162   4.178   7.504   6.052
 1166W        W 2163   1.237   0.814   3.449
 1167W        W 2164   1.009   2.364   6.268
 1168W        W 2165   1.272   5.868   6.807
 1169W        W 2166   1.021   5.664   3.948
 1170W        W 2167   5.951   4.897   5.979
 1171W        W 2168   4.021   6.678   3.922
 1172W        W 2169   4.586   1.759   3.601
 1173W        W 2170   6.867   2.850   4.771
 1174W        W 2171   7.571   2.210   3.202
 1175W        W 2172   0.036   4.039   4.305
 1176W        W 2173   3.000   3.094   5.611
 1177W        W 2174   2.783   0.935   4.262
 1178W        W 2175   5.772   4.314   5.302
 1179W        W 2176   2.794   6.165   4.796
 1180W        W 2177   0.879   3.962   5.067
 1181W        W 2178   1.697   2.539   1.030
 1182W        W 2179   3.674   3.068   2.790
 1183W        W 2180   6.964   3.572   5.618
 1184W        W 2181   7.467   5.300   1.899
 1185W        W 2182   1.620   1.669   4.788
 1186W        W 2183   4.457   2.315   1.049
 1187W        W 2184   1.111   0.910   4.305
 1188W        W 2185   6.825   5.610   0.940
 1189W        W 2186   4.463   0.533   0.843
 1190W        W 2187   7.732   5.359   1.418
 1191W        W 2188   5.627   2.048   4.770
 1192W        W 2189   5.579   7.074   5.862
 1193W        W 2190   0.871   6.730   2.109
 1194W        W 2191   2.049   6.941   7.774
 1195W        W 2192   1.415   6.205   7.991
 1196W        W 2193   1.025   4.364   6.781
 1197W        W 2194   6.116   5.161   1.450
 1198W        W 2195   4.592   0.018   0.787
 1199W        W 2196   4.350   3.543   2.428
 1200W        W 2197   6.803   4.567   6.292
 1201W        W 2198   6.194   3.237   5.171
 1202W        W 2199   7.231   5.996   2.155
 1203W        W 2200   4.521   4.258   4.967
 1204W        W 2201   6.929   3.144   6.304
 1205W        W 2202   3.063   6.030   0.732
 1206W        W 2203   5.552   5.893   7.731
 1207W        W 2204   1.116   2.782   0.907
 1208W        W 2205   6.447   2.948   6.298
 1209W        W 2206   1.926   6.723   0.613
 1210W        W 2207   2.743   6.424   0.821
 1211W        W 2208   4.042   6.835   2.003
 1212W        W 2209   6.481   5.335   1.900
 1213W        W 2210   2.513   6.157   2.474
 1214W        W 2211   2.732   7.306   0.797
 1215W        W 2212   3.871   2.888   5.899
 1216W        W 2213   6.377   2.970   4.053
 1217W        W 2214   0.443   0.907   3.038
 1218W        W 2215   1.506   6.956   5.860
 1219W        W 2216   5.937   5.975   6.704
 1220W        W 2217   1.961   4.130   7.027
 1221W        W 2218   2.646   4.833   5.715
 1222W        W 2219   5.148   3.560   3.365
 1223W        W 2220   4.055   0.490   1.905
 1224W        W 2221   4.250   4.539   5.508
 1225W        W 2222   6.855   0.552   2.224
 1226W        W 2223   5.332   5.854   2.474
 1227W        W 2224   4.320   3.906   2.923
 1228W        W 2225   1.477   5.829   2.504
 1229W        W 2226   3.080   1.269   2.432
 1230W        W 2227   3.919   5.269   4.362
 1231W        W 2228   0.457   5.977   1.070
 1232W        W 2229   4.773   2.524   2.222
 1233W        W 2230   4.301   5.036   1.756
 1234W        W 2231   5.572   2.323   1.700
 1235W        W 2232   3.680   0.845   3.421
 1236W        W 2233   3.593   2.873   6.344
 1237W        W 2234   6.337   1.075   1.942
 1238W        W 2235   0.581   5.469   5.362
 1239W        W 2236   4.700   2.585   0.702
 1240W        W 2237   0.489   3.893   3.687
 1241W        W 2238   4.685   1.978   4.706
 1242W        W 2239   6.568   1.800   2.468
 1243W        W 2240   6.499   5.136   2.782
 1244W        W 2241   3.726   5.285   0.737
 1245W        W 2242   5.522   0.746   7.720
 1246W        W 2243   4.854   1.864   6.847
 1247W        W 2244   0.969   0.911   3.029
 1248W        W 2245   0.299   5.888   5.797
 1249W        W 2246   1.562   3.798   7.172
 1250W        W 2247   0.993   3.664   0.072
 1251W        W 2248   2.128   4.678   4.331
 1252W        W 2249   4.013   1.336   1.607
 1253W        W 2250   5.772   2.435   3.381
 1254W        W 2251   2.112   7.243   1.758
 1255W        W 2252   2.306   5.696   0.828
 1256W        W 2253   3.250   3.039   6.975
 1257W        W 2254   0.689   1.184   2.682
 1258W        W 2255   3.525   4.387   5.647
 1259W        W 2256   6.536   4.482   5.877
 1260W        W 2257   3.780   1.073   5.598
 1261W        W 2258   6.639   0.404   0.509
 1262W        W 2259   3.262   2.468   2.299
 1263W        W 2260   1.413   2.477   6.540
 1264W        W 2261   6.123   2.705   2.605
 1265W        W 2262   6.868   4.203   2.069
 1266W        W 2263   6.165   5.405   2.314
 1267W        W 2264   3.875   3.555   6.643
 1268W        W 2265   6.220   3.630   1.283
 1269W        W 2266   3.889   1.056   6.266
 1270W        W 2267   4.882   4.816   6.027
 1271W        W 2268   0.007   0.746   5.698
 1272W        W 2269   5.255   5.053   1.847
 1273W        W 2270   3.122   1.760   2.517
 1274W        W 2271   4.164   5.659   5.311
 1275W        W 2272   2.460   6.344   1.942
 1276W        W 2273   5.166   2.449   2.565
 1277W        W 2274   5.719   4.713   7.389
 1278W        W 2275   4.927   6.592   4.430
 1279W        W 2276   3.713   2.581   0.586
 1280W        W 2277   1.048   4.356   5.875
 1281W        W 2278   1.105   6.831   7.429
 1282W        W 2279   4.055   5.298   4.869
 1283W        W 2280   2.162   0.844   4.840
 1284W        W 2281   1.122   0.415   4.251
 1285W        W 2282   1.163   6.459   0.377
 1286W        W 2283   5.804   6.687   4.036
 1287W        W 2284   1.497   3.121   2.876
 1288W        W 2285   3.707   4.183   4.818
 1289W        W 2286   1.374   3.060   1.981
 1290W        W 2287   3.536   2.325   7.499
 1291W        W 2288   0.647   5.224   3.283
 1292W        W 2289   0.508   0.864   1.888
 1293W        W 2290   4.313   7.457   5.318
 1294W        W 2291   1.709   7.771   2.244
 1295W        W 2292   5.420   4.322   2.476
 1296W        W 2293   1.731   1.348   5.366
 1297W        W 2294   0.574   6.818   7.275
 1298W        W 2295   3.560   6.490   0.954
 1299W        W 2296   5.884   7.333   2.563
 1300W        W 2297   3.943   0.403   3.344
 1301W        W 2298   1.026   4.875   3.930
 1302W        W 2299   6.936   4.983   5.994
 1303W        W 2300   2.745   2.118   5.608
 1304W        W 2301   1.276   0.038   2.255
 1305W        W 2302   4.603   5.137   3.711
 1306W        W 2303   4.352   6.351   3.712
 1307W        W 2304   2.777   2.809   6.944
 1308W        W 2305   6.672   0.575   3.551
 1309W        W 2306   6.580   3.907   2.938
 1310W        W 2307   4.252   7.492   1.400
 1311W        W 2308   5.051   6.630   3.087
 1312W        W 2309   0.104   1.693   5.105
 1313W        W 2310   2.934   2.596   5.568
 1314W        W 2311   5.407   0.608   0.882
 1315W        W 2312   0.572   4.762   5.174
 1316W        W 2313   7.564   7.145   5.819
 1317W        W 2314   1.667   4.625   0.523
 1318W        W 2315   5.810   0.388   7.126
 1319W        W 2316   2.515   3.348   3.588
 1320W        W 2317   5.275   3.212   0.120
 1321W        W 2318   6.044   1.159   4.485
 1322W        W 2319   6.933   0.434   6.113
 1323W        W 2320   7.200   4.856   0.693
 1324W        W 2321   5.121   5.244   3.832
 1325W        W 2322   5.948   4.935   3.402
 1326W        W 2323   5.876   3.548   6.217
 1327W        W 2324   7.393   1.858   6.674
 1328W        W 2325   1.259   4.957   4.384
 1329W        W 2326   4.891   4.917   0.290
 1330W        W 2327   4.066   7.639   1.922
 1331W        W 2328   6.761   7.770   5.616
 1332W        W 2329   1.568   2.603   1.556
 1333W        W 2330   3.487   0.558   6.443
 1334W        W 2331   7.627   4.768   1.980
 1335W        W 2332   4.869   0.072   5.902
 1336W        W 2333   2.276   2.704   7.252
 1337W        W 2334   1.312   3.764   5.283
 1338W        W 2335   4.187   2.200   1.511
 1339W        W 2336   2.618   6.680   2.301
 1340W        W 2337   2.829   1.907   6.475
 1341W        W 2338   1.405   6.464   5.738
 1342W        W 2339   1.309   6.360   7.520
 1343W        W 2340   3.809   2.931   0.932
 1344W        W 2341   4.493   1.629   6.061
 1345W        W 2342   3.162   5.081   6.954
 1346W        W 2343   5.256   5.372   2.255
 1347W        W 2344   5.661   0.880   6.426
 1348W        W 2345   2.205   1.613   2.361
 1349W        W 2346   3.887   5.594   2.405
 1350W        W 2347   3.750   6.091   4.476
 1351W        W 2348   4.796   6.448   3.937
 1352W        W 2349   2.157   6.090   6.688
 1353W        W 2350   7.375   0.193   6.276
 1354W        W 2351   6.742   4.689   2.834
 1355W        W 2352   2.353   3.798   4.759
 1356W        W 2353   5.801   6.420   1.705
 1357W        W 2354   1.858   4.627   6.877
 1358W        W 2355   3.627   2.764   7.245
 1359W        W 2356   2.956   5.712   5.290
 1360W        W 2357   1.586   6.982   2.846
 1361W        W 2358   4.875   4.251   2.154
 1362W        W 2359   2.991   5.643   0.339
 1363W        W 2360   4.997   1.991   5.384
 1364W        W 2361   5.587   6.338   6.724
 1365W        W 2362   0.775   1.149   1.195
 1366W        W 2363   5.455   3.290   7.560
 1367W        W 2364   4.425   5.184   0.406
 1368W        W 2365   1.147   3.667   1.206
 1369W        W 2366   6.457   1.276   3.135
 1370W        W 2367   4.826   4.444   5.337
 1371W        W 2368   3.850   2.566   1.788
 1372W        W 2369   7.397   5.411   2.812
 1373W        W 2370   1.989   5.810   1.253
 1374W        W 2371   1.303   5.600   4.384
 1375W        W 2372   7.721   3.316   3.977
 1376W        W 2373   3.897   6.055   5.200
 1377W        W 2374   7.510   6.889   7.088
 1378W        W 2375   3.995   6.533   1.575
 1379W        W 2376   7.086   4.450   7.097
 1380W        W 2377   7.169   6.543   7.281
 1381W        W 2378   0.012   4.286   4.750
 1382W        W 2379   0.668   5.639   3.588
 1383W        W 2380   1.482   4.912   3.694
 1384W        W 2381   6.637   6.551   7.718
 1385W        W 2382   1.339   0.919   0.642
 1386W        W 2383   0.936   4.194   2.527
 1387W        W 2384   6.143   4.201   0.531
 1388W        W 2385   3.695   3.583   7.644
 1389W        W 2386   0.498   3.673   6.512
 1390W        W 2387   1.431   3.350   2.400
 1391W        W 2388   1.750   1.335   7.819
 1392W        W 2389   2.926   4.567   3.853
 1393W        W 2390   4.714   2.119   3.265
 1394W        W 2391   1.459   1.113   0.194
 1395W        W 2392   5.719   4.638   2.201
 1396W        W 2393   2.339   2.624   6.739
 1397W        W 2394   5.495   7.532   5.631
 1398W        W 2395   4.966   6.921   4.017
 1399W        W 2396   1.813   6.307   7.317
 1400W        W 2397   6.015   3.178   1.371
 1401W        W 2398   3.266   3.138   6.073
 1402W        W 2399   6.411   4.834   7.509
 1403W        W 2400   6.278   4.578   2.204
 1404W        W 2401   7.389   7.991   7.767
 1405W        W 2402   3.723   5.535   6.248
 1406W        W 2403   7.851   3.634   1.729
 1407W        W 2404   1.344   6.621   6.227
 1408W        W 2405   6.186   3.145   2.856
 1409W        W 2406   6.814   3.534   7.031
 1410W        W 2407   4.490   2.421   6.188
 1411W        W 2408   7.084   0.663   0.597
 1412W        W 2409   7.635   6.381   7.083
 1413W        W 2410   5.416   1.393   5.839
 1414W        W 2411   3.447   0.023   6.414
 1415W        W 2412   5.101   1.272   4.636
 1416W        W 2413   0.479   4.177   2.351
 1417W        W 2414   1.873   4.318   6.154
 1418W        W 2415   4.087   2.691   3.391
 1419W        W 2416   3.594   0.407   5.151
 1420W        W 2417   6.983   0.497   3.935
 1421W        W 2418   1.108   3.586   7.031
 1422W        W 2419   6.019   6.067   3.715
 1423W        W 2420   6.380   3.692   5.928
 1424W        W 2421   2.078   1.290   1.874
 1425W        W 2422   2.224   3.956   4.101
 1426W        W 2423   3.954   7.667   5.630
 1427W        W 2424   5.393   1.966   2.573
 1428W        W 2425   1.498   1.489   0.579
 1429W        W 2426   3.167   5.099   2.565
 1430W        W 2427   7.283   4.736   6.283
 1431W        W 2428   0.896   6.310   7.950
 1432W        W 2429   0.722   1.703   2.712
 1433W        W 2430   7.861   4.306   2.089
 1434W        W 2431   1.030   6.854   3.933
 1435W        W 2432   5.995   4.904   3.898
 1436W        W 2433   0.942   4.111   4.587
 1437W        W 2434   3.501   0.859   5.974
 1438W        W 2435   5.610   3.662   0.807
 1439W        W 2436   3.918   1.284   3.393
 1440W        W 2437   3.442   1.171   2.768
 1441W        W 2438   5.263   4.034   3.184
 1442W        W 2439   1.253   1.221   5.566
 1443W        W 2440   4.947   3.400   0.645
 1444W        W 2441   7.145   4.194   3.493
 1445W        W 2442   1.854   5.520   2.639
 1446W        W 2443   5.229   0.341   7.922
 1447W        W 2444   2.356   1.521   0.564
 1448W        W 2445   7.264   7.299   6.200
 1449W        W 2446   7.360   7.136   6.673
 1450W        W 2447   4.455   6.986   2.241
 1451W        W 2448   5.675   6.615   6.087
 1452W        W 2449   4.242   5.415   6.256
 1453W        W 2450   4.878   5.320   0.625
 1454W        W 2451   4.392   1.715   6.639
 1455W        W 2452   7.385   2.624   6.670
 1456W        W 2453   0.931   0.270   4.784
 1457W        W 2454   5.348   5.583   5.673
 1458W        W 2455   2.658   4.140   3.898
 1459W        W 2456   3.159   6.668   7.279
 1460W        W 2457   2.497   5.516   0.380
 1461W        W 2458   6.610   2.784   2.446
 1462W        W 2459   4.718   6.285   6.562
 1463W        W 2460   5.542   5.166   5.847
 1464W        W 2461   6.331   7.024   3.659
 1465W        W 2462   6.889   1.817   6.775
 1466W        W 2463   7.237   0.276   7.372
 1467W        W 2464   1.777   5.399   7.494
 1468W        W 2465   3.050   3.182   0.309
 1469W        W 2466   5.211   0.880   3.396
 1470W        W 2467   7.226   3.907   5.890
 1471W        W 2468   7.133   6.294   6.831
 1472W        W 2469   1.080   2.104   6.711
 1473W        W 2470   2.083   6.019   0.479
 1474W        W 2471   4.351   6.936   5.278
 1475W        W 2472   1.944   1.952   6.195
 1476W        W 2473   1.712   7.554   4.004
 1477W        W 2474   2.041   1.394   2.809
 1478W        W 2475   4.505   1.198   2.347
 1479W        W 2476   2.100   3.027   3.685
 1480W        W 2477   4.957   5.789   6.658
 1481W        W 2478   1.744   7.840   0.013
 1482W        W 2479   7.485   6.524   1.694
 1483W        W 2480   7.818   5.085   2.758
 1484W        W 2481   1.272   7.058   2.011
 1485W        W 2482   1.663   3.339   3.747
 1486W        W 2483   7.795   1.087   1.547
 1487W        W 2484   4.140   7.006   4.372
 1488W        W 2485   7.369   1.758   1.153
 1489W        W 2486   7.785   2.822   1.306
 1490W        W 2487   7.489   4.014   1.759
 1491W        W 2488   1.445   1.195   2.132
 1492W        W 2489   7.453   1.212   4.051
 1493W        W 2490   4.137   2.219   0.643
 1494W        W 2491   4.363   5.417   2.081
 1495W        W 2492   3.620   5.280   5.804
 1496W        W 2493   0.414   0.803   1.074
 1497W        W 2494   7.431   2.288   2.170
 1498W        W 2495   2.709   4.481   6.187
 1499W        W 2496   3.604   1.471   6.994
 1500W        W 2497   6.283   1.763   3.273
 1501W        W 2498   0.676   0.460   3.244
 1502W        W 2499   4.131   4.992   3.591
 1503W        W 2500   6.325   1.014   2.708
 1504W        W 2501   4.816   3.351   7.699
 1505W        W 2502   6.239   0.710   2.292
 1506W        W 2503   6.237   4.282   6.757
 1507W        W 2504   3.002   1.073   1.445
 1508W        W 2505   0.601   5.723   3.099
 1509W        W 2506   2.473   0.530   2.748
 1510W        W 2507   3.523   4.940   4.389
 1511W        W 2508   2.767   4.794   2.549
 1512W        W 2509   6.863   1.845   1.206
 1513W        W 2510   7.131   7.729   4.315
 1514W        W 2511   4.725   1.000   3.273
 1515W        W 2512   6.017   7.550   1.212
 1516W        W 2513   5.407   2.597   3.753
 1517W        W 2514   3.360   4.992   6.489
 1518W        W 2515   7.289   3.655   3.843
 1519W        W 2516   3.187   2.696   0.608
 1520W        W 2517   1.974   0.599   6.753
 1521W        W 2518   7.432   3.033   6.359
 1522W        W 2519   2.847   1.893   1.230
 1523W        W 2520   0.742   4.657   2.396
 1524W        W 2521   1.994   0.288   3.423
 1525W        W 2522   7.163   3.151   5.845
 1526W        W 2523   7.685   5.589   5.914
 1527W        W 2524   0.428   6.446   2.205
 1528W        W 2525   6.475   7.346   4.885
 1529W        W 2526   3.307   4.379   1.950
 1530W        W 2527   7.449   1.798   2.027
 1531W        W 2528   0.696   0.218   4.043
 1532W        W 2529   1.355   5.285   4.008
 1533W        W 2530   3.125   2.198   0.869
 1534W        W 2531   4.992   2.609   4.701
 1535W        W 2532   0.367   4.717   4.707
 1536W        W 2533   1.480   3.254   7.090
 1537W        W 2534   4.984   3.657   6.965
 1538W        W 2535   5.921   7.198   3.149
 1539W        W 2536   2.246   5.288   2.854
 1540W        W 2537   7.699   4.244   5.172
 1541W        W 2538   2.461   1.191   2.171
 1542W        W 2539   3.071   3.555   2.977
 1543W        W 2540   5.395   6.008   4.902
 1544W        W 2541   5.451   2.171   6.149
 1545W        W 2542   0.124   1.413   6.707
 1546W        W 2543   2.053   2.867   5.877
 1547W        W 2544   0.185   2.489   6.408
 1548W        W 2545   4.763   6.948   2.636
 1549W        W 2546   4.367   4.789   6.043
 1550W        W 2547   3.131   2.872   5.172
 1551W        W 2548   5.396   6.248   5.855
 1552W        W 2549   6.332   4.418   0.987
 1553W        W 2550   5.416   5.146   7.379
 1554W        W 2551   5.658   3.968   1.623
 1555W        W 2552   6.567   5.122   0.742
 1556W        W 2553   2.248   5.142   5.854
 1557W        W 2554   1.880   4.963   3.380
 1558W        W 2555   4.023   0.068   5.958
 1559W        W 2556   1.375   0.657   2.806
 1560W        W 2557   6.217   4.022   5.557
 1561W        W 2558   6.943   0.976   6.973
 1562W        W 2559   7.171   1.008   2.332
 1563W        W 2560   0.324   4.121   6.744
 1564W        W 2561   1.618   0.650   7.126
 1565W        W 2562   3.487   4.868   0.052
 1566W        W 2563   1.891   4.749   5.393
 1567W        W 2564   5.676   2.648   0.925
 1568W        W 2565   2.784   2.286   6.085
 1569W        W 2566   1.967   6.416   1.863
 1570W        W 2567   2.662   3.919   4.383
 1571W        W 2568   5.911   5.579   2.782
 1572W        W 2569   1.063   1.098   3.817
 1573W        W 2570   6.753   7.879   2.168
 1574W        W 2571   4.300   4.270   3.312
 1575W        W 2572   3.208   0.886   3.119
 1576W        W 2573   2.102   2.547   0.694
 1577W        W 2574   2.975   5.361   4.060
 1578W        W 2575   1.072   5.399   5.600
 1579W        W 2576   0.397   4.778   1.337
 1580W        W 2577   2.549   4.837   4.641
 1581W        W 2578   2.509   1.061   1.649
 1582W        W 2579   2.492   6.808   0.156
 1583W        W 2580   1.803   6.516   2.765
 1584W        W 2581   1.743   5.936   1.699
 1585W        W 2582   6.514   5.018   2.300
 1586W        W 2583   1.852   0.893   2.801
 1587W        W 2584   2.158   1.474   1.412
 1588W        W 2585   6.101   0.043   7.920
 1589W        W 2586   2.861   2.436   3.935
 1590W        W 2587   2.700   5.340   6.988
 1591W        W 2588   5.715   5.626   2.253
 1592W        W 2589   2.819   2.869   4.202
 1593W        W 2590   6.905   6.815   3.057
 1594W        W 2591   3.404   6.096   3.510
 1595W        W 2592   0.654   0.798   6.045
 1596W        W 2593   1.939   2.033   2.192
 1597W        W 2594   3.924   2.121   7.769
 1598W        W 2595   4.586   4.565   7.284
 1599W        W 2596   1.718   6.544   7.755
 1600W        W 2597   4.064   3.368   5.782
 1601W        W 2598   7.501   1.256   1.152
 1602W        W 2599   3.941   4.620   0.075
 1603W        W 2600   5.799   1.269   4.922
 1604W        W 2601   5.099   5.382   0.167
 1605W        W 2602   5.318   3.337   2.439
 1606W        W 2603   6.581   2.978   0.425
 1607W        W 2604   0.961   2.613   6.719
 1608W        W 2605   0.297   1.011   6.397
 1609W        W 2606   4.201   4.551   3.972
 1610W        W 2607   5.869   2.837   4.017
 1611W        W 2608   6.899   4.657   3.533
 1612W        W 2609   7.132   3.071   6.795
 1613W        W 2610   4.485   4.159   7.563
 1614W        W 2611   1.299   4.145   1.250
 1615W        W 2612   4.114   2.838   2.903
 1616W        W 2613   4.978   5.951   5.719
 1617W        W 2614   3.718   3.425   0.860
 1618W        W 2615   2.812   3.310   6.870
 1619W        W 2616   3.772   0.570   5.632
 1620W        W 2617   1.950   0.773   3.606
 1621W        W 2618   2.552   4.142   0.373
 1622W        W 2619   3.095   6.354   1.175
 1623W        W 2620   1.495   2.955   6.642
 1624W        W 2621   5.526   2.561   4.871
 1625W        W 2622   3.698   1.237   4.338
 1626W        W 2623   0.281   1.133   5.887
 1627W        W 2624   1.681   1.522   6.664
 1628W        W 2625   2.505   5.555   4.115
 1629W        W 2626   1.174   4.222   5.412
 1630W        W 2627   7.335   3.479   3.123
 1631W        W 2628   1.113   1.591   3.887
 1632W        W 2629   5.227   0.752   1.341
 1633W        W 2630   5.846   1.184   3.670
 1634W        W 2631   0.997   0.778   5.503
 1635W        W 2632   6.298   5.843   5.787
 1636W        W 2633   1.316   0.025   3.951
 1637W        W 2634   1.996   2.543   3.573
 1638W        W 2635   4.607   2.662   4.040
 1639W        W 2636   2.853   1.749   5.937
 1640W        W 2637   4.529   1.242   6.850
 1641W        W 2638   2.927   4.890   4.270
 1642W        W 2639   5.264   6.163   4.428
 1643W        W 2640   6.008   5.117   2.941
 1644W        W 2641   3.880   5.736   4.130
 1645W        W 2642   1.376   7.063   1.048
 1646W        W 2643   1.129   1.846   0.619
 1647W        W 2644   2.372   1.709   6.416
 1648W        W 2645   7.843   2.401   2.775
 1649W        W 2646   0.892   2.468   4.853
 1650W        W 2647   3.516   3.077   0.507
 1651W        W 2648   7.477   5.078   2.378
 1652W        W 2649   5.119   7.121   2.977
 1653W        W 2650   4.068   5.279   7.485
 1654W        W 2651   2.771   3.158   2.779
 1655W        W 2652   5.984   7.195   4.008
 1656W        W 2653   3.892   5.039   6.189
 1657W        W 2654   7.153   4.519   3.095
 1658W        W 2655   7.933   1.549   1.122
 1659W        W 2656   2.394   2.213   6.435
 1660W        W 2657   0.473   3.657   2.401
 1661W        W 2658   5.284   4.220   5.440
 1662W        W 2659   7.082   0.154   0.582
 1663W        W 2660   4.690   6.878   1.291
 1664W        W 2661   5.221   6.164   7.444
 1665W        W 2662   4.900   4.779   3.089
 1666W        W 2663   2.283   6.160   0.961
 1667W        W 2664   2.773   5.244   5.412
 1668W        W 2665   0.662   3.358   0.359
 1669W        W 2666   2.231   3.183   1.862
 1670W        W 2667   6.148   0.932   6.356
 1671W        W 2668   7.113   6.832   6.355
 1672W        W 2669   0.292   0.614   4.782
 1673W        W 2670   4.006   6.106   2.454
 1674W        W 2671   1.214   0.348   1.316
 1675W        W 2672   5.210   2.319   1.355
 1676W        W 2673   5.003   5.783   3.117
 1677W        W 2674   2.279   3.515   4.351
 1678W        W 2675   1.248   7.739   0.129
 1679W        W 2676   1.774   0.354   7.520
 1680W        W 2677   4.424   6.442   1.309
 1681W        W 2678   0.765   3.236   6.434
 1682W        W 2679   3.096   3.906   5.223
 1683W        W 2680   4.869   0.026   1.969
 1684W        W 2681   1.117   6.387   4.627
 1685W        W 2682   6.181   2.149   7.317
 1686W        W 2683   5.814   7.217   2.041
 1687W        W 2684   4.055   6.653   1.021
 1688W        W 2685   4.979   0.362   0.744
 1689W        W 2686   2.070   3.601   7.135
 1690W        W 2687   2.343   4.167   6.027
 1691W        W 2688   4.229   4.256   6.038
 1692W        W 2689   4.730   2.088   1.404
 1693W        W 2690   3.083   1.492   3.714
 1694W        W 2691   1.588   0.827   4.479
 1695W        W 2692   1.801   3.969   1.908
 1696W        W 2693   1.078   0.880   1.970
 1697W        W 2694   1.034   5.681   5.189
 1698W        W 2695   0.700   0.768   2.369
 1699W        W 2696   2.293   4.676   3.432
 1700W        W 2697   5.291   3.686   0.429
 1701W        W 2698   4.583   3.308   4.781
 1702W        W 2699   3.376   1.901   1.680
 1703W        W 2700   2.089   5.879   4.130
 1704W        W 2701   4.184   2.930   1.892
 1705W        W 2702   5.940   1.685   6.960
 1706W        W 2703   3.804   7.371   5.241
 1707W        W 2704   4.271   4.563   1.033
 1708W        W 2705   1.241   7.520   4.183
 1709W        W 2706   6.196   2.015   4.711
 1710W        W 2707   0.682   2.610   1.696
 1711W        W 2708   4.389   4.988   1.261
 1712W        W 2709   2.343   6.456   0.530
 1713W        W 2710   2.004   5.504   0.494
 1714W        W 2711   1.441   4.030   4.416
 1715W        W 2712   1.007   3.375   5.089
 1716W        W 2713   6.158   4.171   2.980
 1717W        W 2714   4.157   4.123   6.563
 1718W        W 2715   5.182   5.392   6.416
 1719W        W 2716   6.744   0.043   4.127
 1720W        W 2717   5.982   7.300   5.632
 1721W        W 2718   5.687   0.769   2.650
 1722W        W 2719   5.146   7.061   4.472
 1723W        W 2720   5.961   2.354   2.911
 1724W        W 2721   5.790   2.155   5.720
 1725W        W 2722   4.307   1.236   3.016
 1726W        W 2723   7.130   6.302   5.630
 1727W        W 2724   4.855   3.918   0.294
 1728W        W 2725   0.809   6.378   7.436
 1729W        W 2726   2.383   5.173   0.761
 1730W        W 2727   1.522   2.062   7.410
 1731W        W 2728   1.391   0.200   7.882
 1732W        W 2729   5.700   2.990   7.216
 1733W        W 2730   3.735   3.354   6.171
 1734W        W 2731   2.472   6.362   1.403
 1735W        W 2732   4.657   1.611   0.363
 1736W        W 2733   7.406   6.168   1.307
 1737W        W 2734   3.590   1.424   6.490
 1738W        W 2735   3.899   4.255   4.290
 1739W        W 2736   6.755   6.926   2.195
 1740W        W 2737   3.454   2.562   1.029
 1741W        W 2738   2.890   5.967   3.484
 1742W        W 2739   3.623   3.604   7.140
 1743W        W 2740   4.223   2.878   0.116
 1744W        W 2741   4.857   6.631   6.880
 1745W        W 2742   3.759   6.445   2.164
 1746W        W 2743   7.624   4.452   1.568
 1747W        W 2744   1.885   1.806   7.143
 1748W        W 2745   6.404   5.305   7.736
 1749W        W 2746   0.639   4.325   7.142
 1750W        W 2747   0.555   4.595   6.707
 1751W        W 2748   0.901   5.902   6.426
 1752W        W 2749   1.441   1.680   5.622
 1753W        W 2750   2.459   4.839   2.961
 1754W        W 2751   6.346   3.389   1.715
 1755W        W 2752   2.620   3.648   3.965
 1756W        W 2753   5.546   6.492   7.213
 1757W        W 2754   4.227   2.163   4.854
 1758W        W 2755   3.256   3.889   1.880
 1759W        W 2756   6.830   2.296   0.958
 1760W        W 2757   6.111   3.534   0.790
 1761W        W 2758   4.085   6.090   5.668
 1762W        W 2759   1.084   2.775   3.597
 1763W        W 2760   5.944   1.908   1.640
 1764W        W 2761   2.641   1.471   6.803
 1765W        W 2762   6.846   3.895   4.603
 1766W        W 2763   3.475   7.126   5.534
 1767W        W 2764   3.397   1.650   4.194
 1768W        W 2765   1.946   7.289   3.058
 1769W        W 2766   4.738   2.232   3.783
 1770W        W 2767   4.447   0.363   5.888
 1771W        W 2768   2.685   2.124   4.710
 1772W        W 2769   5.717   6.915   1.607
 1773W        W 2770   3.683   4.921   1.128
 1774W        W 2771   0.386   3.533   0.789
 1775W        W 2772   1.034   1.332   0.477
 1776W        W 2773   2.402   5.764   6.972
 1777W        W 2774   3.665   4.743   1.909
 1778W        W 2775   6.628   1.910   5.696
 1779W        W 2776   2.307   2.032   3.385
 1780W        W 2777   3.295   4.572   6.907
 1781W        W 2778   6.463   4.316   1.796
 1782W        W 2779   4.614   3.701   7.373
 1783W        W 2780   0.037   6.738   7.127
 1784W        W 2781   6.608   2.403   5.510
 1785W        W 2782   5.644   7.595   5.140
 1786W        W 2783   6.002   6.415   2.708
 1787W        W 2784   1.329   6.151   0.748
 1788W        W 2785   4.141   4.058   0.840
 1789W        W 2786   3.587   5.616   4.528
 1790W        W 2787   0.042   3.729   3.885
 1791W        W 2788   7.133   1.397   3.696
 1792W        W 2789   5.881   1.234   2.719
 1793W        W 2790   2.229   1.256   5.533
 1794W        W 2791   6.970   3.678   5.053
 1795W        W 2792   1.101   3.270   4.539
 1796W        W 2793   4.581   4.191   1.086
 1797W        W 2794   0.454   2.699   6.821
 1798W        W 2795   3.338   6.315   1.911
 1799W        W 2796   3.015   6.138   6.408
 1800W        W 2797   0.448   5.491   0.858
 1801W        W 2798   5.380   4.706   4.582
 1802W        W 2799   1.418   4.172   2.701
 1803W        W 2800   4.095   1.869   5.854
 1804W        W 2801   6.271   3.596   2.167
 1805W        W 2802   3.169   5.107   5.687
 1806W        W 2803   5.387   7.196   0.754
 1807W        W 2804   6.194   2.034   5.431
 1808W        W 2805   1.793   4.203   1.397
 1809W        W 2806   6.754   4.289   6.703
 1810W        W 2807   1.339   5.738   1.986
 1811W        W 2808   0.316   5.567   2.705
 1812W        W 2809   4.533   4.997   6.971
 1813W        W 2810   1.701   1.353   1.210
 1814W        W 2811   5.911   1.396   0.866
 1815W        W 2812   3.927   1.925   2.330
 1816W        W 2813   6.754   4.673   0.893
 1817W        W 2814   5.479   0.592   4.947
 1818W        W 2815   7.636   4.338   3.376
 1819W        W 2816   5.331   4.515   0.486
 1820W        W 2817   4.816   2.711   6.435
 1821W        W 2818   2.238   2.162   5.537
 1822W        W 2819   1.549   2.956   3.406
 1823W        W 2820   3.242   1.007   6.406
 1824W        W 2821   5.983   2.784   0.532
 1825W        W 2822   7.398   4.828   3.421
 1826W        W 2823   0.225   5.176   3.018
 1827W        W 2824   0.757   0.739   3.992
 1828W        W 2825   5.684   5.140   2.100
 1829W        W 2826   0.410   5.932   6.750
 1830W        W 2827   1.930   3.174   4.164
 1831W        W 2828   4.516   7.775   1.711
 1832W        W 2829   7.547   0.514   6.654
 1833W        W 2830   4.840   3.161   6.171
 1834W        W 2831   2.033   4.923   2.550
 1835W        W 2832   5.281   1.991   7.185
 1836W        W 2833   5.620   5.246   1.495
 1837W        W 2834   4.087   2.282   3.114
 1838W        W 2835   0.030   5.955   2.536
 1839W        W 2836   5.112   4.878   0.744
 1840W        W 2837   3.668   3.231   1.333
 1841W        W 2838   1.106   2.852   3.071
 1842W        W 2839   7.035   0.801   3.221
 1843W        W 2840   1.743   4.981   4.140
 1844W        W 2841   6.549   5.310   5.903
 1845W        W 2842   1.732   5.953   4.985
 1846W        W 2843   3.229   2.191   6.328
 1847W        W 2844   7.487   4.276   5.650
 1848W        W 2845   7.902   2.632   3.259
 1849W        W 2846   2.652   6.179   6.793
 1850W        W 2847   6.786   1.083   5.724
 1851W        W 2848   3.012   3.709   0.163
 1852W        W 2849   5.675   4.721   2.712
 1853W        W 2850   2.006   2.350   3.082
 1854W        W 2851   5.999   5.421   5.853
 1855W        W 2852   0.529   3.607   5.151
 1856W        W 2853   5.661   3.339   0.443
 1857W        W 2854   6.610   0.849   6.157
 1858W        W 2855   1.276   4.499   4.595
 1859W        W 2856   2.285   0.688   1.914
 1860W        W 2857   2.310   3.245   2.366
 1861W        W 2858   1.739   4.855   1.931
 1862W        W 2859   4.737   1.963   6.321
 1863W        W 2860   6.139   3.895   1.736
 1864W        W 2861   5.372   0.481   0.392
 1865W        W 2862   4.017   4.568   6.373
 1866W        W 2863   4.860   1.827   4.077
 1867W        W 2864   3.487   5.365   4.081
 1868W        W 2865   6.657   1.015   2.346
 1869W        W 2866   4.027   3.319   4.430
 1870W        W 2867   0.243   5.116   2.473
 1871W        W 2868   2.202   3.175   1.358
 1872W        W 2869   1.098   5.404   1.604
 1873W        W 2870   2.661   4.953   1.961
 1874W        W 2871   6.609   5.688   7.411
 1875W        W 2872   1.026   1.569   1.355
 1876W        W 2873   2.791   5.584   0.809
 1877W        W 2874   2.261   6.346   4.044
 1878W        W 2875   1.637   0.377   4.187
 1879W        W 2876   1.920   1.024   6.499
 1880W        W 2877   1.514   4.126   5.839
 1881W        W 2878   7.020   7.281   7.055
 1882W        W 2879   4.966   7.594   5.730
 1883W        W 2880   5.952   5.942   1.875
 1884W        W 2881   3.648   3.936   0.884
 1885W        W 2882   4.244   1.303   4.380
 1886W        W 2883   3.509   6.415   3.119
 1887W        W 2884   0.990   4.699   5.466
 1888W        W 2885   3.393   5.320   7.515
 1889W        W 2886   6.998   2.709   2.781
 1890W        W 2887   6.950   1.711   7.268
 1891W        W 2888   7.645   2.077   4.979
 1892W        W 2889   0.684   2.225   2.953
 1893W        W 2890   2.127   3.528   3.842
 1894W        W 2891   6.692   4.549   1.405
 1895W        W 2892   6.827   1.121   7.453
 1896W        W 2893   6.033   2.186   3.757
 1897W        W 2894   3.388   3.634   1.222
 1898W        W 2895   7.162   5.893   2.966
 1899W        W 2896   2.746   3.221   1.754
 1900W        W 2897   5.194   4.123   6.847
 1901W        W 2898   6.012   0.865   3.058
 1902W        W 2899   2.214   5.525   3.699
 1903W        W 2900   3.807   4.867   6.719
 1904W        W 2901   4.481   4.553   1.527
 1905W        W 2902   6.927   1.433   2.534
 1906W        W 2903   5.895   2.405   4.552
 1907W        W 2904   5.084   2.248   0.439
 1908W        W 2905   1.363   5.420   2.804
 1909W        W 2906   5.523   1.086   1.023
 1910W        W 2907   7.693   1.016   2.473
 1911W        W 2908   2.308   0.235   6.539
 1912W        W 2909   4.634   4.068   1.566
 1913W        W 2910   2.349   6.780   3.814
 1914W        W 2911   1.427   5.563   1.171
 1915W        W 2912   6.151   6.552   3.690
 1916W        W 2913   2.816   3.655   2.022
 1917W        W 2914   4.691   1.615   7.272
 1918W        W 2915   7.309   6.962   3.832
 1919W        W 2916   5.443   7.081   7.208
 1920W        W 2917   5.707   1.025   4.136
 1921W        W 2918   4.838   6.121   3.542
 1922W        W 2919   0.039   4.005   3.459
 1923W        W 2920   0.756   0.969   0.725
 1924W        W 2921   5.771   6.780   6.562
 1925W        W 2922   1.393   3.446   6.622
 1926W        W 2923   1.575   6.747   7.232
 1927W        W 2924   2.020   2.715   1.859
 1928W        W 2925   2.090   6.739   7.172
 1929W        W 2926   1.961   4.345   5.674
 1930W        W 2927   3.172   3.596   2.366
 1931W        W 2928   0.864   6.090   6.998
 1932W        W 2929   1.468   0.461   0.859
 1933W        W 2930   2.012   5.391   4.169
 1934W        W 2931   1.167   1.613   6.489
 1935W        W 2932   1.294   1.266   6.878
 1936W        W 2933   1.422   4.962   0.227
 1937W        W 2934   6.767   6.215   2.166
 1938W        W 2935   3.697   6.249   3.913
 1939W        W 2936   4.567   5.955   6.933
 1940W        W 2937   7.355   0.749   4.243
 1941W        W 2938   3.417   3.206   7.432
 1942W        W 2939   2.877   3.992   6.070
 1943W        W 2940   1.562   3.773   1.477
 1944W        W 2941   1.564   1.809   3.915
 1945W        W 2942   5.392   5.119   5.340
 1946W        W 2943   5.939   6.354   2.188
 1947W        W 2944   6.418   6.626   5.924
 1948W        W 2945   5.935   0.847   5.179
 1949W        W 2946   4.534   1.910   5.200
 1950W        W 2947   4.116   7.220   3.166
 1951W        W 2948   7.524   1.537   0.724
 1952W        W 2949   3.607   2.728   5.043
 1953W        W 2950   1.945   0.896   5.299
 1954W        W 2951   1.720   6.867   1.828
 1955W        W 2952   6.211   4.675   1.510
 1956W        W 2953   5.097   1.816   0.172
 1957W        W 2954   5.898   6.615   1.230
 1958W        W 2955   4.277   2.152   3.562
 1959W        W 2956   0.672   3.121   1.586
 1960W        W 2957   6.198   3.050   7.098
 1961W        W 2958   4.616   2.025   1.885
 1962W        W 2959   6.114   2.722   1.150
 1963W        W 2960   7.482   1.992   6.171
 1964W        W 2961   5.612   0.194   5.538
 1965W        W 2962   0.278   2.747   5.984
 1966W        W 2963   7.248   1.704   2.862
 1967W        W 2964   1.572   5.197   2.361
 1968W        W 2965   1.044   1.979   5.184
 1969W        W 2966   6.582   7.445   3.502
 1970W        W 2967   6.721   1.593   3.463
 1971W        W 2968   2.601   3.963   5.155
 1972W        W 2969   7.165   6.535   2.125
 1973W        W 2970   5.533   0.981   4.622
 1974W        W 2971   1.769   0.405   5.392
 1975W        W 2972   5.790   1.939   3.192
 1976W        W 2973   4.619   2.082   0.567
 1977W        W 2974   1.146   1.529   1.877
 1978W        W 2975   6.867   3.181   2.630
 1979W        W 2976   1.491   5.899   7.359
 1980W        W 2977   7.766   4.671   2.451
 1981W        W 2978   1.123   1.432   5.999
 1982W        W 2979   0.054   6.474   1.826
 1983W        W 2980   7.588   6.122   6.640
 1984W        W 2981   0.884   2.923   2.028
 1985W        W 2982   0.150   6.017   2.047
 1986W        W 2983   3.386   5.993   5.199
 1987W        W 2984   6.043   4.943   2.461
 1988W        W 2985   2.779   1.313   5.657
 1989W        W 2986   5.634   7.044   4.344
 1990W        W 2987   5.903   2.649   6.908
 1991W        W 2988   3.300   4.904   3.920
 1992W        W 2989   2.943   2.281   2.649
 1993W        W 2990   3.409   6.788   2.750
 1994W        W 2991   2.093   4.359   0.418
 1995W        W 2992   6.249   1.382   2.371
 1996W        W 2993   3.804   4.903   3.971
 1997W        W 2994   4.080   5.241   6.942
 1998W        W 2995   2.106   5.108   4.595
 1999W        W 2996   0.793   5.586   6.814
 2000W        W 2997   4.336   3.575   5.380
 2001W        W 2998   7.469   7.036   1.598
 2002W        W 2999   0.707   0.898   3.493
 2003W        W 3000   2.375   1.212   6.434
 2004W        W 3001   0.305   0.980   3.833
 2005W        W 3002   2.279   3.563   5.196
 2006W        W 3003   6.523   0.769   3.116
 2007W        W 3004   2.786   4.115   1.811
 2008W        W 3005   2.075   1.872   3.846
 2009W        W 3006   1.999   4.998   0.456
 2010W        W 3007   6.348   5.198   0.285
 2011W        W 3008   4.297   3.389   7.666
 2012W        W 3009   2.366   0.727   6.435
 2013W        W 3010   5.027   7.277   6.550
 2014W        W 3011   7.545   3.830   3.429
 2015W        W 3012   4.944   3.922   3.647
 2016W        W 3013   0.691   2.777   1.218
 2017W        W 3014   6.869   3.376   1.715
 2018W        W 3015   5.117   2.942   7.713
 2019W        W 3016   6.355   2.437   7.716
 2020W        W 3017   1.986   7.270   2.273
 2021W        W 3018   1.508   6.177   3.508
 2022W        W 3019   6.139   7.134   4.498
 2023W        W 3020   7.092   3.535   6.580
 2024W        W 3021   4.720   3.569   1.569
 2025W        W 3022   6.452   7.048   1.787
 2026W        W 3023   2.511   4.700   0.563
 2027W        W 3024   4.443   2.012   2.358
 2028W        W 3025   5.937   3.104   7.650
 2029W        W 3026   5.437   1.638   3.905
 2030W        W 3027   7.001   5.060   2.586
 2031W        W 3028   6.030   6.284   5.883
 2032W        W 3029   2.173   1.911   4.718
 2033W        W 3030   1.812   4.704   1.418
 2034W        W 3031   5.752   2.165   7.063
 2035W        W 3032   4.045   3.184   3.309
 2036W        W 3033   0.554   4.003   0.956
 2037W        W 3034   1.001   3.393   2.136
 2038W        W 3035   6.671   1.460   2.093
 2039W        W 3036   1.945   5.610   6.651
 2040W        W 3037   0.765   3.636   4.685
 2041W        W 3038   4.009   2.590   6.305
 2042W        W 3039   4.157   1.034   4.797
 2043W        W 3040   6.235   3.140   2.361
 2044W        W 3041   2.891   5.238   6.505
 2045W        W 3042   4.923   4.123   7.280
 2046W        W 3043   6.852   0.687   4.388
 2047W        W 3044   0.001   2.368   1.430
 2048W        W 3045   6.689   7.793   6.387
 2049W        W 3046   2.904   5.515   3.219
 2050W        W 3047   6.596   7.066   6.849
 2051W        W 3048   5.801   5.765   4.318
 2052W        W 3049   0.821   2.882   5.124
 2053W        W 3050   4.620   6.992   3.117
 2054W        W 3051   3.511   1.773   4.699
 2055W        W 3052   5.793   5.550   7.259
 2056W        W 3053   5.571   2.745   7.666
 2057W        W 3054   5.688   2.687   2.050
 2058W        W 3055   0.055   4.277   2.585
 2059W        W 3056   6.845   2.243   6.037
 2060W        W 3057   3.380   1.879   6.720
 2061W        W 3058   7.288   3.349   4.269
 2062W        W 3059   1.086   2.529   2.292
 2063W        W 3060   6.338   5.428   5.475
 2064W        W 3061   3.621   7.417   3.198
 2065W        W 3062   4.966   4.466   4.838
 2066W        W 3063   4.238   3.558   0.747
 2067W        W 3064   5.987   0.131   6.718
 2068W        W 3065   5.325   5.669   4.539
 2069W        W 3066   5.356   6.960   6.320
 2070W        W 3067   3.066   0.526   3.488
 2071W        W 3068   7.124   5.808   4.277
 2072W        W 3069   4.087   0.065   1.639
 2073W        W 3070   1.096   7.186   7.887
 2074W        W 3071   2.248   4.232   4.525
 2075W        W 3072   5.355   1.576   1.726
 2076W        W 3073   1.821   0.968   7.483
 2077W        W 3074   6.309   7.925   3.379
 2078W        W 3075   0.633   2.737   6.353
 2079W        W 3076   6.805   7.320   3.044
 2080W        W 3077   2.418   4.596   3.925
 2081W        W 3078   1.023   1.027   6.492
 2082W        W 3079   6.847   2.889   1.599
 2083W        W 3080   3.994   4.699   1.483
 2084W        W 3081   1.283   7.032   3.443
 2085W        W 3082   7.643   3.073   3.205
 2086W        W 3083   6.714   4.314   4.890
 2087W        W 3084   6.787   6.898   7.325
 2088W        W 3085   0.079   4.543   6.912
 2089W        W 3086   3.360   2.398   1.819
 2090W        W 3087   2.781   0.846   3.755
 2091W        W 3088   0.731   0.649   4.509
 2092W        W 3089   1.159   6.000   1.606
 2093W        W 3090   5.265   7.534   7.060
 2094W        W 3091   3.656   4.761   2.919
 2095W        W 3092   7.102   1.007   0.983
 2096W        W 3093   7.676   3.857   1.297
 2097W        W 3094   7.077   4.366   4.515
 2098W        W 3095   1.099   0.353   1.841
 2099W        W 3096   7.410   0.760   0.228
 2100W        W 3097   3.624   4.782   0.633
 2101W        W 3098   5.427   2.932   0.563
 2102W        W 3099   2.148   2.204   4.273
 2103W        W 3100   5.911   6.855   7.934
 2104W        W 3101   0.417   6.803   6.771
 2105W        W 3102   1.514   0.117   0.410
 2106W        W 3103   1.740   2.694   5.016
 2107W        W 3104   6.650   7.586   4.423
 2108W        W 3105   1.728   1.140   4.892
 2109W        W 3106   2.111   6.460   2.363
 2110W        W 3107   5.571   4.295   7.155
 2111W        W 3108   6.367   7.520   5.370
 2112W        W 3109   0.624   4.072   5.927
 2113W        W 3110   4.460   5.340   0.913
 2114W        W 3111   2.367   1.763   1.034
 2115W        W 3112   7.111   0.247   5.673
 2116W        W 3113   4.637   7.013   4.413
 2117W        W 3114   6.409   7.026   3.165
 2118W        W 3115   5.340   1.882   5.737
 2119W        W 3116   3.274   5.091   0.844
 2120W        W 3117   5.045   1.372   4.117
 2121W        W 3118   3.829   5.293   5.341
 2122W        W 3119   4.797   2.278   4.321
 2123W        W 3120   6.993   7.195   4.201
 2124W        W 3121   1.532   0.805   5.606
 2125W        W 3122   1.021   3.222   7.364
 2126W        W 3123   2.957   4.052   2.286
 2127W        W 3124   1.371   6.572   2.068
 2128W        W 3125   6.522   4.113   6.231
 2129W        W 3126   2.599   5.999   0.538
 2130W        W 3127   7.921   2.437   2.279
 2131W        W 3128   2.412   4.281   0.857
 2132W        W 3129   4.869   5.405   4.622
 2133W        W 3130   5.065   3.183   6.668
 2134W        W 3131   3.173   2.642   6.131
 2135W        W 3132   1.625   3.430   3.238
 2136W        W 3133   5.047   4.066   2.721
 2137W        W 3134   2.737   6.707   4.167
 2138W        W 3135   7.693   3.098   5.922
 2139W        W 3136   4.676   6.255   1.750
 2140W        W 3137   4.314   2.017   0.154
 2141W        W 3138   6.853   0.895   4.863
 2142W        W 3139   4.403   1.306   3.519
 2143W        W 3140   1.738   6.243   3.987
 2144W        W 3141   0.721   1.346   3.203
 2145W        W 3142   5.104   0.370   1.654
 2146W        W 3143   6.322   6.779   7.168
 2147W        W 3144   4.651   5.628   0.252
 2148W        W 3145   1.151   2.443   1.813
 2149W        W 3146   5.014   3.760   2.317
 2150W        W 3147   4.646   7.332   4.016
 2151W        W 3148   6.425   3.076   4.747
 2152W        W 3149   4.485   1.302   1.782
 2153W        W 3150   3.289   6.110   4.690
 2154W        W 3151   6.043   5.946   2.448
 2155W        W 3152   3.840   7.205   1.705
 2156W        W 3153   0.693   6.068   3.877
 2157W        W 3154   1.257   4.199   6.334
 2158W        W 3155   5.536   6.381   2.463
 2159W        W 3156   7.139   1.154   4.492
 2160W        W 3157   6.525   3.980   7.071
 2161W        W 3158   4.816   5.824   7.348
 2162W        W 3159   6.140   5.566   4.612
 2163W        W 3160   0.468   0.883   5.448
 2164W        W 3161   3.909   6.182   1.195
 2165W        W 3162   7.616   3.748   2.177
 2166W        W 3163   5.243   0.243   1.178
 2167W        W 3164   5.687   4.395   6.001
 2168W        W 3165   6.416   5.778   3.550
 2169W        W 3166   7.442   4.924   1.546
 2170W        W 3167   7.099   2.592   1.285
 2171W        W 3168   3.810   1.929   0.387
 2172W        W 3169   2.696   6.486   7.775
 2173W        W 3170   4.547   1.413   3.987
 2174W        W 3171   7.172   0.768   5.751
 2175W        W 3172   2.846   2.511   1.961
 2176W        W 3173   7.369   2.952   1.033
 2177W        W 3174   4.223   3.468   3.688
 2178W        W 3175   2.620   1.406   2.613
 2179W        W 3176   6.412   7.133   5.860
 2180W        W 3177   4.878   2.447   1.733
 2181W        W 3178   5.644   6.462   3.616
 2182W        W 3179   4.054   3.745   7.963
 2183W        W 3180   1.611   2.258   6.942
 2184W        W 3181   6.127   4.969   1.936
 2185W        W 3182   1.315   1.237   4.639
 2186W        W 3183   3.027   6.765   1.957
 2187W        W 3184   0.866   7.252   3.651
 2188W        W 3185   7.603   3.343   1.340
 2189W        W 3186   6.430   4.902   6.160
 2190W        W 3187   3.920   3.136   7.445
 2191W        W 3188   1.835   1.822   4.330
 2192W        W 3189   4.935   5.664   4.153
 2193W        W 3190   6.425   5.655   2.665
 2194W        W 3191   6.260   6.051   4.577
 2195W        W 3192   6.262   0.515   5.932
 2196W        W 3193   1.921   6.039   2.583
 2197W        W 3194   6.205   2.487   4.166
 2198W        W 3195   6.687   2.619   4.277
 2199W        W 3196   6.943   7.002   5.909
 2200W        W 3197   3.914   6.398   3.458
 2201W        W 3198   3.250   4.825   7.428
 2202W        W 3199   1.574   2.625   3.031
 2203W        W 3200   7.016   5.496   6.036
 2204W        W 3201   1.988   4.663   2.985
 2205W        W 3202   4.498   6.852   3.872
 2206W        W 3203   4.960   7.161   6.041
 2207W        W 3204   1.784   1.113   0.768
 2208W        W 3205   1.289   2.162   5.601
 2209W        W 3206   6.118   6.922   2.765
 2210W        W 3207   0.617   6.265   4.594
 2211W        W 3208   5.967   6.654   4.513
 2212W        W 3209   6.322   5.420   1.079
 2213W        W 3210   1.897   3.484   2.112
 2214W        W 3211   5.095   5.689   3.610
 2215W        W 3212   6.402   4.097   1.362
 2216W        W 3213   1.804   2.979   4.612
 2217W        W 3214   6.272   7.120   2.298
 2218W        W 3215   4.204   7.687   0.931
 2219W        W 3216   4.053   3.716   4.099
 2220W        W 3217   5.948   4.365   1.841
 2221W        W 3218   4.370   3.666   6.708
 2222W        W 3219   7.524   5.848   2.580
 2223W        W 3220   4.448   3.178   2.761
 2224W        W 3221   0.982   1.594   4.755
 2225W        W 3222   4.490   5.600   7.699
 2226W        W 3223   6.492   3.521   5.460
 2227W        W 3224   5.698   7.099   1.140
 2228W        W 3225   4.039   0.850   4.280
 2229W        W 3226   3.010   2.232   6.807
 2230W        W 3227   5.620   3.673   3.187
 2231W        W 3228   2.538   4.392   4.885
 2232W        W 3229   2.423   3.960   6.938
 2233W        W 3230   5.511   3.189   1.488
 2234W        W 3231   2.704   5.314   4.516
 2235W        W 3232   7.076   7.308   3.499
 2236W        W 3233   6.199   4.233   5.050
 2237W        W 3234   5.196   3.106   4.427
 2238W        W 3235   2.424   0.531   3.580
 2239W        W 3236   2.101   3.363   3.326
 2240W        W 3237   1.730   3.789   4.967
 2241W        W 3238   5.419   2.968   5.211
 2242W        W 3239   1.831   3.011   2.227
 2243W        W 3240   2.940   1.161   7.121
 2244W        W 3241   6.519   6.022   7.789
 2245W        W 3242   0.489   0.194   4.507
 2246W        W 3243   6.889   7.335   6.540
 2247W        W 3244   4.341   3.798   5.828
 2248W        W 3245   2.163   2.273   1.122
 2249W        W 3246   6.537   3.175   1.297
 2250W        W 3247   5.692   6.140   1.099
 2251W        W 3248   3.372   7.275   6.383
 2252W        W 3249   3.120   5.814   2.014
 2253W        W 3250   6.271   5.807   4.082
 2254W        W 3251   1.684   0.637   4.940
 2255W        W 3252   1.386   0.731   3.930
 2256W        W 3253   2.914   6.379   1.644
 2257W        W 3254   1.257   3.694   4.759
 2258W        W 3255   4.913   5.361   7.528
 2259W        W 3256   6.573   4.505   7.116
 2260W        W 3257   5.598   7.112   5.341
 2261W        W 3258   4.399   1.520   4.910
 2262W        W 3259   2.027   2.709   1.362
 2263W        W 3260   5.699   0.072   0.274
 2264W        W 3261   1.062   6.788   4.950
 2265W        W 3262   4.116   4.982   0.796
 2266W        W 3263   5.493   1.513   3.416
 2267W        W 3264   1.036   5.376   4.749
 2268W        W 3265   2.656   1.054   4.806
 2269W        W 3266   1.224   3.667   7.559
 2270W        W 3267   3.093   1.947   4.470
 2271W        W 3268   1.479   5.093   6.281
 2272W        W 3269   0.906   1.348   4.270
 2273W        W 3270   6.208   5.877   7.121
 2274W        W 3271   3.952   0.557   6.146
 2275W        W 3272   7.214   6.114   4.900
 2276W        W 3273   4.780   6.447   2.635
 2277W        W 3274   3.322   5.482   1.647
 2278W        W 3275   3.854   3.661   0.429
 2279W        W 3276   5.211   2.178   3.988
 2280W        W 3277   0.548   2.819   5.537
 2281W        W 3278   6.587   2.627   1.259
 2282W        W 3279   4.323   2.425   1.986
 2283W        W 3280   4.068   1.152   2.079
 2284W        W 3281   2.132   6.007   2.128
 2285W        W 3282   2.035   0.985   1.446
 2286W        W 3283   5.783   4.525   3.151
 2287W        W 3284   1.318   4.978   4.881
 2288W        W 3285   2.326   0.995   2.636
 2289W        W 3286   7.792   1.681   6.424
 2290W        W 3287   7.366   3.241   3.579
 2291W        W 3288   3.532   3.888   3.075
 2292W        W 3289   2.088   6.942   2.665
 2293W        W 3290   0.359   1.489   2.409
 2294W        W 3291   3.470   3.478   0.151
 2295W        W 3292   5.127   4.761   5.587
 2296W        W 3293   4.591   3.715   3.975
 2297W        W 3294   1.258   7.635   2.751
 2298W        W 3295   1.287   3.779   3.308
 2299W        W 3296   6.736   5.458   2.334
 2300W        W 3297   6.395   1.835   3.791
 2301W        W 3298   5.099   2.663   4.167
 2302W        W 3299   5.078   1.837   3.618
 2303W        W 3300   4.926   0.906   3.829
 2304W        W 3301   4.034   3.106   2.429
 2305W        W 3302   3.586   7.785   5.983
 2306W        W 3303   4.136   7.209   3.907
 2307W        W 3304   7.650   6.077   3.019
 2308W        W 3305   6.327   0.993   4.873
 2309W        W 3306   6.036   4.037   6.042
 2310W        W 3307   1.447   2.148   4.281
 2311W        W 3308   0.328   2.343   2.591
 2312W        W 3309   1.323   1.670   4.363
 2313W        W 3310   2.498   4.516   1.722
 2314W        W 3311   7.498   3.494   5.651
 2315W        W 3312   6.516   1.707   5.218
 2316W        W 3313   7.873   3.444   3.489
 2317W        W 3314   7.249   6.273   2.601
 2318W        W 3315   5.989   3.080   1.926
 2319W        W 3316   1.441   7.549   7.682
 2320W        W 3317   3.604   3.969   6.532
 2321W        W 3318   2.717   5.523   3.666
 2322W        W 3319   5.752   6.206   4.575
 2323W        W 3320   1.496   2.164   1.320
 2324W        W 3321   4.774   0.782   2.506
 2325W        W 3322   1.257   5.879   4.790
 2326W        W 3323   7.824   2.116   1.898
 2327W        W 3324   1.481   4.333   7.047
 2328W        W 3325   1.777   2.049   5.694
 2329W        W 3326   4.899   4.883   4.545
 2330W        W 3327   6.044   5.393   5.067
 2331W        W 3328   2.929   1.882   2.956
 2332W        W 3329   4.094   2.276   6.832
 2333W        W 3330   3.050   0.876   5.695
 2334W        W 3331   7.731   3.322   2.489
 2335W        W 3332   6.430   3.385   4.350
 2336W        W 3333   4.038   1.217   3.907
 2337W        W 3334   6.106   6.154   1.397
 2338W        W 3335   5.150   2.522   5.196
 2339W        W 3336   3.475   5.184   2.018
 2340W        W 3337   1.751   4.435   3.389
 2341W        W 3338   7.656   5.738   2.097
 2342W        W 3339   5.295   5.645   7.352
 2343W        W 3340   1.705   4.226   6.600
 2344W        W 3341   3.217   6.489   0.583
 2345W        W 3342   4.856   3.461   4.334
 2346W        W 3343   0.645   3.345   4.277
 2347W        W 3344   2.741   1.654   3.352
 2348W        W 3345   5.994   6.805   5.736
 2349W        W 3346   4.113   1.954   1.079
 2350W        W 3347   1.170   0.522   2.339
 2351W        W 3348   1.395   6.737   6.728
 2352W        W 3349   2.668   2.615   0.599
 2353W        W 3350   2.223   2.034   0.631
 2354W        W 3351   1.568   1.419   7.313
 2355W        W 3352   5.644   2.557   5.383
 2356W        W 3353   6.823   2.708   6.560
 2357W        W 3354   0.281   2.695   2.938
 2358W        W 3355   6.747   0.057   3.611
 2359W        W 3356   7.292   6.121   3.414
 2360W        W 3357   2.285   4.688   2.170
 2361W        W 3358   2.751   5.242   2.824
 2362W        W 3359   4.731   2.765   5.888
 2363W        W 3360   5.601   0.449   1.524
 2364W        W 3361   0.869   0.731   1.515
 2365W        W 3362   5.691   2.230   7.570
 2366W        W 3363   0.664   2.558   3.842
 2367W        W 3364   2.362   4.363   7.917
 2368W        W 3365   5.764   0.144   1.154
 2369W        W 3366   7.583   0.466   5.827
 2370W        W 3367   3.735   5.600   1.917
 2371W        W 3368   6.428   1.689   0.957
 2372W        W 3369   0.899   5.277   4.262
 2373W        W 3370   4.771   0.440   1.242
 2374W        W 3371   6.018   6.390   6.997
 2375W        W 3372   4.396   4.117   4.208
 2376W        W 3373   4.219   0.490   1.319
 2377W        W 3374   7.331   1.142   2.815
 2378W        W 3375   1.076   5.077   3.040
 2379W        W 3376   1.996   6.394   5.023
 2380W        W 3377   5.690   3.100   6.036
 2381W        W 3378   5.826   0.426   0.639
 2382W        W 3379   5.906   1.497   4.082
 2383W        W 3380   1.648   7.389   1.903
 2384W        W 3381   0.411   6.364   7.075
 2385W        W 3382   2.750   6.500   5.525
 2386W        W 3383   0.641   4.942   2.799
 2387W        W 3384   0.230   2.440   1.873
 2388W        W 3385   5.695   3.953   5.662
 2389W        W 3386   6.463   3.503   2.656
 2390W        W 3387   7.849   3.777   4.701
 2391W        W 3388   6.853   3.641   6.130
 2392W        W 3389   0.453   6.092   6.245
 2393W        W 3390   3.116   0.957   0.959
 2394W        W 3391   4.604   4.822   0.731
 2395W        W 3392   2.035   1.752   5.275
 2396W        W 3393   6.616   6.961   6.315
 2397W        W 3394   0.400   1.174   5.000
 2398W        W 3395   3.505   5.402   1.178
 2399W        W 3396   6.039   3.823   2.578
 2400W        W 3397   4.568   6.254   5.576
 2401W        W 3398   1.536   1.986   6.518
 2402W        W 3399   6.649   0.747   0.901
 2403W        W 3400   4.083   3.353   1.605
 2404W        W 3401   1.115   1.990   1.618
 2405W        W 3402   7.947   2.941   6.328
 2406W        W 3403   1.736   7.845   2.754
 2407W        W 3404   5.419   3.333   6.993
 2408W        W 3405   1.749   1.774   2.592
 2409W        W 3406   1.831   0.373   0.075
 2410W        W 3407   7.975   3.760   2.539
 2411W        W 3408   7.878   4.799   1.306
 2412W        W 3409   5.486   1.537   7.999
 2413W        W 3410   5.808   6.811   2.401
 2414W        W 3411   3.439   7.286   1.394
 2415W        W 3412   7.265   5.286   5.640
 2416W        W 3413   3.078   3.250   4.818
 2417W        W 3414   0.893   7.748   3.861
 2418W        W 3415   4.089   5.786   4.729
 2419W        W 3416   6.427   5.603   0.623
 2420W        W 3417   6.693   0.581   5.680
 2421W        W 3418   2.862   1.174   3.384
 2422W        W 3419   2.199   3.731   2.456
 2423W        W 3420   0.798   2.161   2.472
 2424W        W 3421   3.744   3.160   6.946
 2425W        W 3422   4.155   5.569   0.593
 2426W        W 3423   4.546   6.694   0.847
 2427W        W 3424   1.674   6.328   0.402
 2428W        W 3425   3.691   2.259   6.508
 2429W        W 3426   1.195   6.993   0.366
 2430W        W 3427   4.366   1.722   1.489
 2431W        W 3428   1.305   0.969   7.413
 2432W        W 3429   3.623   4.857   5.498
 2433W        W 3430   1.991   1.621   5.779
 2434W        W 3431   6.271   2.345   1.593
 2435W        W 3432   7.434   2.682   3.494
 2436W        W 3433   5.674   1.740   7.391
 2437W        W 3434   3.147   4.730   0.467
 2438W        W 3435   1.810   6.310   0.886
 2439W        W 3436   3.209   7.230   2.889
 2440W        W 3437   3.233   3.382   1.909
 2441W        W 3438   5.800   4.567   0.310
 2442W        W 3439   0.062   0.672   1.423
 2443W        W 3440   7.891   1.856   6.885
 2444W        W 3441   5.187   1.025   5.598
 2445W        W 3442   4.929   0.836   0.946
 2446W        W 3443   6.270   4.706   0.524
 2447W        W 3444   0.746   3.040   5.965
 2448W        W 3445   0.564   2.009   3.917
 2449W        W 3446   5.357   5.200   1.052
 2450W        W 3447   5.327   7.212   4.920
 2451W        W 3448   4.381   6.446   6.919
 2452W        W 3449   5.313   2.300   4.466
 2453W        W 3450   3.043   4.234   0.236
 2454W        W 3451   6.938   2.493   5.134
 2455W        W 3452   1.595   0.119   3.158
 2456W        W 3453   5.272   3.663   5.308
 2457W        W 3454   3.228   3.842   7.601
 2458W        W 3455   6.138   4.857   7.958
 2459W        W 3456   2.277   3.986   5.543
 2460W        W 3457   4.863   5.120   1.104
 2461W        W 3458   2.438   7.114   3.004
 2462W        W 3459   2.314   3.811   3.447
 2463W        W 3460   5.425   6.981   3.832
 2464W        W 3461   4.053   5.517   5.786
 2465W        W 3462   6.854   3.584   4.158
 2466W        W 3463   4.406   2.834   1.055
 2467W        W 3464   2.478   0.921   5.251
 2468W        W 3465   1.270   0.433   7.428
 2469W        W 3466   4.507   4.306   0.581
 2470W        W 3467   7.090   2.375   5.609
 2471W        W 3468   6.524   0.996   6.674
 2472W        W 3469   4.063   1.679   3.695
 2473W        W 3470   7.101   3.757   1.948
 2474W        W 3471   3.746   1.577   1.969
 2475W        W 3472   1.549   3.310   4.900
 2476W        W 3473   4.893   7.427   4.785
 2477W        W 3474   3.650   4.054   7.399
 2478W        W 3475   4.761   6.601   2.141
 2479W        W 3476   4.256   1.798   4.510
 2480W        W 3477   4.693   1.526   4.476
 2481W        W 3478   4.179   6.465   5.250
 2482W        W 3479   0.560   6.586   3.785
 2483W        W 3480   5.695   2.360   4.085
 2484W        W 3481   1.487   2.956   1.208
 2485W        W 3482   3.090   2.326   3.139
 2486W        W 3483   0.676   4.269   5.447
 2487W        W 3484   5.443   6.869   3.311
 2488W        W 3485   5.549   6.629   5.550
 2489W        W 3486   6.036   5.831   0.882
 2490W        W 3487   4.589   3.812   2.031
 2491W        W 3488   3.984   2.479   1.067
 2492W        W 3489   5.832   4.829   4.367
 2493W        W 3490   0.685   3.856   0.477
 2494W        W 3491   0.498   1.520   4.618
 2495W        W 3492   5.138   0.016   5.462
 2496W        W 3493   4.348   7.223   1.815
 2497W        W 3494   7.645   1.256   2.012
 2498W        W 3495   1.526   4.583   5.086
 2499W        W 3496   0.736   6.780   7.779
 2500W        W 3497   7.551   1.351   5.267
 2501W        W 3498   1.741   5.110   2.914
 2502W        W 3499   5.750   2.835   2.942
 2503W        W 3500   1.013   0.411   3.689
 2504W        W 3501   0.130   4.929   6.562
 2505W        W 3502   5.512   2.062   5.273
 2506W        W 3503   1.321   7.509   3.674
 2507W        W 3504   3.149   2.296   1.371
 2508W        W 3505   1.974   6.299   1.371
 2509W        W 3506   4.553   2.488   0.238
 2510W        W 3507   3.613   3.399   3.186
 2511W        W 3508   2.896   5.697   6.184
 2512W        W 3509   1.788   3.742   6.730
 2513W        W 3510   6.230   4.469   3.387
 2514W        W 3511   2.802   3.449   5.254
 2515W        W 3512   0.190   5.379   5.763
 2516W        W 3513   6.175   2.776   3.201
 2517W        W 3514   2.938   2.656   1.056
 2518W        W 3515   7.906   1.073   2.987
 2519W        W 3516   1.543   7.021   7.684
 2520W        W 3517   7.484   3.695   2.693
 2521W        W 3518   2.427   2.740   1.048
 2522W        W 3519   0.291   1.708   3.614
 2523W        W 3520   5.495   5.682   3.128
 2524W        W 3521   3.140   6.070   6.897
 2525W        W 3522   4.971   7.022   3.502
 2526W        W 3523   3.976   4.209   7.769
 2527W        W 3524   2.771   4.492   2.151
 2528W        W 3525   6.213   5.360   6.297
 2529W        W 3526   4.060   7.152   5.649
 2530W        W 3527   1.137   1.010   2.513
 2531W        W 3528   0.694   1.283   6.212
 2532W        W 3529   3.441   1.292   1.658
 2533W        W 3530   1.981   1.778   1.771
 2534W        W 3531   7.153   5.618   5.252
 2535W        W 3532   3.850   2.067   1.856
 2536W        W 3533   6.270   6.610   1.558
 2537W        W 3534   5.188   4.363   5.916
 2538W        W 3535   2.721   5.799   2.828
 2539W        W 3536   3.566   6.083   0.606
 2540W        W 3537   4.993   4.410   4.337
 2541W        W 3538   1.970   2.991   0.948
 2542W        W 3539   3.722   6.029   6.429
 2543W        W 3540   5.465   5.658   1.225
 2544W        W 3541   4.489   4.799   2.811
 2545W        W 3542   4.410   3.650   4.458
 2546W        W 3543   2.490   1.944   5.132
 2547W        W 3544   1.105   4.072   7.249
 2548W        W 3545   5.563   3.378   3.619
 2549W        W 3546   4.356   6.644   6.448
 2550W        W 3547   5.947   0.449   6.316
 2551W        W 3548   2.060   0.192   7.054
 2552W        W 3549   7.621   5.034   6.559
 2553W        W 3550   0.370   3.106   5.168
 2554W        W 3551   3.790   4.869   7.636
 2555W        W 3552   2.613   5.872   2.077
 2556W        W 3553   1.181   2.010   2.150
 2557W        W 3554   2.336   3.501   5.684
 2558W        W 3555   3.286   3.669   3.465
 2559W        W 3556   4.407   2.990   3.679
 2560W        W 3557   0.921   6.843   4.451
 2561W        W 3558   6.122   1.366   5.273
 2562W        W 3559   7.452   5.651   3.292
 2563W        W 3560   2.110   3.951   6.424
 2564W        W 3561   3.652   5.260   2.710
 2565W        W 3562   7.847   2.922   2.773
 2566W        W 3563   6.989   2.422   2.375
 2567W        W 3564   2.731   6.006   1.113
 2568W        W 3565   5.551   2.056   3.636
 2569W        W 3566   6.534   0.904   7.827
 2570W        W 3567   2.823   3.212   2.255
 2571W        W 3568   1.464   7.099   3.979
 2572W        W 3569   3.305   3.067   0.982
 2573W        W 3570   4.715   1.615   3.123
 2574W        W 3571   6.693   6.470   7.034
 2575W        W 3572   4.489   7.245   3.533
 2576W        W 3573   2.882   6.854   5.165
 2577W        W 3574   0.946   6.600   6.982
 2578W        W 3575   5.194   6.084   1.149
 2579W        W 3576   5.157   6.558   3.609
 2580W        W 3577   7.302   3.883   5.385
 2581W        W 3578   3.918   5.156   3.135
 2582W        W 3579   6.667   3.800   6.611
 2583W        W 3580   6.854   6.175   7.442
 2584W        W 3581   7.542   4.574   4.806
 2585W        W 3582   4.678   5.985   1.279
 2586W        W 3583   5.037   0.770   4.721
 2587W        W 3584   7.769   1.921   1.433
 2588W        W 3585   1.158   5.640   6.043
 2589W        W 3586   4.229   1.715   0.634
 2590W        W 3587   5.728   7.659   7.962
 2591W        W 3588   2.377   1.961   1.498
 2592W        W 3589   6.134   2.725   5.978
 2593W        W 3590   1.438   4.572   4.110
 2594W        W 3591   4.410   5.005   4.646
 2595W        W 3592   5.662   2.590   5.921
 2596W        W 3593   4.966   2.328   6.046
 2597W        W 3594   7.723   4.152   6.852
 2598W        W 3595   2.090   1.375   7.319
 2599W        W 3596   1.331   0.981   5.145
 2600W        W 3597   3.915   2.546   4.661
 2601W        W 3598   1.465   5.263   3.306
 2602W        W 3599   6.601   4.790   1.861
 2603W        W 3600   3.368   5.938   4.180
 2604W        W 3601   4.912   1.607   4.985
 2605W        W 3602   7.287   4.374   6.633
 2606W        W 3603   2.602   1.296   3.889
 2607W        W 3604   7.240   5.787   6.789
 2608W        W 3605   2.031   5.826   7.326
 2609W        W 3606   5.496   1.394   0.519
 2610W        W 3607   5.023   3.183   7.266
 2611W        W 3608   4.381   4.272   1.946
 2612W        W 3609   7.937   5.249   6.203
 2613W        W 3610   6.356   6.987   5.380
 2614W        W 3611   1.751   2.088   0.819
 2615W        W 3612   4.640   4.321   2.923
 2616W        W 3613   7.736   3.287   4.514
 2617W        W 3614   2.394   1.977   5.982
 2618W        W 3615   3.579   2.280   6.997
 2619W        W 3616   2.837   5.545   2.406
 2620W        W 3617   6.064   6.782   1.970
 2621W        W 3618   4.429   0.913   3.885
 2622W        W 3619   1.226   6.688   7.916
 2623W        W 3620   1.286   4.278   3.187
 2624W        W 3621   1.043   3.108   6.840
 2625W        W 3622   6.586   3.038   2.007
 2626W        W 3623   5.174   0.694   6.554
 2627W        W 3624   3.296   6.994   5.974
 2628W        W 3625   5.892   5.588   3.831
 2629W        W 3626   1.953   3.842   5.931
 2630W        W 3627   0.958   2.496   5.414
 2631W        W 3628   6.649   7.337   1.402
 2632W        W 3629   1.141   2.876   6.277
 2633W        W 3630   4.881   3.086   3.973
 2634W        W 3631   6.399   2.932   7.567
 2635W        W 3632   0.591   5.133   6.634
 2636W        W 3633   0.240   2.604   1.022
 2637W        W 3634   1.078   5.856   2.792
 2638W        W 3635   7.646   4.466   2.896
 2639W        W 3636   3.484   2.773   1.479
 2640W        W 3637   6.224   2.677   2.111
 2641W        W 3638   5.488   6.832   7.638
 2642W        W 3639   5.265   0.710   2.352
 2643W        W 3640   4.333   3.382   0.190
 2644W        W 3641   1.278   0.149   2.755
 2645W        W 3642   3.203   4.378   6.045
 2646W        W 3643   0.076   4.652   1.748
 2647W        W 3644   5.015   4.816   3.582
 2648W        W 3645   0.244   3.767   6.105
 2649W        W 3646   4.147   5.864   2.038
 2650W        W 3647   4.535   5.641   2.981
 2651W        W 3648   1.104   1.389   2.874
 2652W        W 3649   3.016   2.468   4.909
 2653W        W 3650   4.422   6.041   5.101
 2654W        W 3651   7.047   5.358   4.049
 2655W        W 3652   4.233   6.045   1.564
 2656W        W 3653   4.313   2.445   7.792
 2657W        W 3654   0.787   1.239   2.186
 2658W        W 3655   3.534   1.888   3.762
 2659W        W 3656   7.420   1.476   2.420
 2660W        W 3657   4.437   5.139   3.203
 2661W        W 3658   2.291   6.031   4.821
 2662W        W 3659   5.312   0.987   7.303
 2663W        W 3660   1.466   6.644   3.741
 2664W        W 3661   4.436   7.226   4.853
 2665W        W 3662   1.431   1.248   4.118
 2666W        W 3663   5.597   3.094   4.768
 2667W        W 3664   3.841   6.848   5.304
 2668W        W 3665   2.909   6.271   2.153
 2669W        W 3666   1.181   2.414   2.776
 2670W        W 3667   4.795   3.876   3.146
 2671W        W 3668   1.485   5.461   4.989
 2672W        W 3669   4.429   6.557   4.277
 2673W        W 3670   2.078   0.622   2.394
 2674W        W 3671   6.445   6.565   2.924
 2675W        W 3672   6.377   7.768   3.877
 2676W        W 3673   0.647   6.365   6.628
 2677W        W 3674   5.552   5.907   3.607
 2678W        W 3675   1.527   5.358   5.830
 2679W        W 3676   4.512   5.027   7.500
 2680W        W 3677   6.395   6.121   0.667
 2681W        W 3678   4.482   5.782   5.791
 2682W        W 3679   1.940   1.162   3.257
 2683W        W 3680   1.203   7.564   2.086
 2684W        W 3681   6.093   4.019   3.845
 2685W        W 3682   6.921   2.012   5.293
 2686W        W 3683   5.094   7.223   7.539
 2687W        W 3684   5.271   2.401   2.088
 2688W        W 3685   0.206   1.874   2.706
 2689W        W 3686   7.752   5.133   5.694
 2690W        W 3687   6.625   3.169   6.724
 2691W        W 3688   7.231   4.128   4.940
 2692W        W 3689   5.853   6.949   3.583
 2693W        W 3690   1.419   4.644   6.610
 2694W        W 3691   1.095   3.867   5.988
 2695W        W 3692   2.229   1.235   0.986
 2696W        W 3693   2.699   6.389   3.765
 2697W        W 3694   4.312   4.540   6.823
 2698W        W 3695   6.152   4.491   6.257
 2699W        W 3696   7.150   1.389   1.969
 2700W        W 3697   1.632   7.138   0.606
 2701W        W 3698   6.017   3.323   3.986
 2702W        W 3699   0.826   1.109   4.714
 2703W        W 3700   4.563   7.520   2.162
 2704W        W 3701   4.957   4.017   5.092
 2705W        W 3702   0.614   5.192   3.837
 2706W        W 3703   1.991   4.443   1.813
 2707W        W 3704   2.012   1.937   6.683
 2708W        W 3705   6.747   5.959   7.001
 2709W        W 3706   2.060   6.556   0.128
 2710W        W 3707   6.452   4.712   6.632
 2711W        W 3708   3.991   3.800   6.198
 2712W        W 3709   6.556   6.318   0.212
 2713W        W 3710   5.195   6.215   2.800
 2714W        W 3711   7.277   5.810   5.708
 2715W        W 3712   2.869   7.173   3.282
 2716W        W 3713   1.535   1.689   6.113
 2717W        W 3714   5.864   3.015   5.545
 2718W        W 3715   4.423   1.991   2.869
 2719W        W 3716   1.315   1.907   3.499
 2720W        W 3717   6.801   0.155   7.152
 2721W        W 3718   4.988   4.484   1.693
 2722W        W 3719   6.883   5.483   2.845
 2723W        W 3720   3.813   5.747   0.907
 2724W        W 3721   0.622   3.070   2.912
 2725W        W 3722   2.773   1.597   2.173
 2726W        W 3723   3.277   0.812   1.814
 2727W        W 3724   3.322   5.602   0.743
 2728W        W 3725   6.765   4.785   0.394
 2729W        W 3726   1.565   7.307   0.122
 2730W        W 3727   1.545   7.602   3.195
 2731W        W 3728   4.739   6.321   7.272
 2732W        W 3729   0.747   6.230   1.386
 2733W        W 3730   4.433   2.019   7.105
 2734W        W 3731   3.313   5.712   6.536
 2735W        W 3732   2.031   2.249   5.096
 2736W        W 3733   2.779   0.935   6.166
 2737W        W 3734   2.880   2.751   2.443
 2738W        W 3735   1.067   2.439   1.308
 2739W        W 3736   0.704   5.730   1.480
 2740W        W 3737   6.785   2.240   1.528
 2741W        W 3738   5.138   2.101   4.907
 2742W        W 3739   3.546   0.300   6.000
 2743W        W 3740   0.577   2.569   2.211
 2744W        W 3741   6.655   2.701   5.921
 2745W        W 3742   5.360   7.456   6.132
 2746W        W 3743   6.877   4.731   5.566
 2747W        W 3744   6.776   7.247   5.497
 2748W        W 3745   5.287   6.187   3.289
 2749W        W 3746   2.775   3.387   4.385
 2750W        W 3747   4.182   4.035   4.659
 2751W        W 3748   5.195   6.736   5.897
 2752W        W 3749   1.150   6.315   6.580
 2753W        W 3750   2.516   1.547   1.756
 2754W        W 3751   0.720   4.360   0.609
 2755W        W 3752   1.801   5.645   2.155
 2756W        W 3753   7.999   4.109   1.640
 2757W        W 3754   5.387   4.226   1.973
 2758W        W 3755   4.109   4.822   7.220
 2759W        W 3756   2.372   3.536   6.644
 2760W        W 3757   7.097   6.218   3.905
 2761W        W 3758   1.564   2.126   1.843
 2762W        W 3759   1.551   3.788   6.264
 2763W        W 3760   3.964   4.100   5.639
 2764W        W 3761   3.980   0.953   1.282
 2765W        W 3762   0.851   4.891   4.717
 2766W        W 3763   4.241   6.103   6.558
 2767W        W 3764   4.432   3.480   3.174
 2768W        W 3765   2.162   5.035   3.788
 2769W        W 3766   1.449   3.308   5.377
 2770W        W 3767   7.267   1.308   7.220
 2771W        W 3768   2.433   1.945   2.044
 2772W        W 3769   3.110   0.546   6.089
 2773W        W 3770   2.917   3.242   3.885
 2774W        W 3771   3.569   3.965   7.968
 2775W        W 3772   5.192   1.258   1.382
 2776W        W 3773   6.127   2.549   5.490
 2777W        W 3774   5.366   7.926   5.920
 2778W        W 3775   1.922   1.357   0.325
 2779W        W 3776   5.141   0.850   2.878
 2780W        W 3777   0.938   5.131   5.191
 2781W        W 3778   3.914   5.077   0.326
 2782W        W 3779   3.927   6.554   4.404
 2783W        W 3780   5.268   3.457   6.157
 2784W        W 3781   2.459   6.453   4.526
 2785W        W 3782   6.301   1.367   3.615
 2786W        W 3783   1.635   6.150   2.144
 2787W        W 3784   5.127   3.668   7.439
 2788W        W 3785   5.456   0.105   0.739
 2789W        W 3786   4.602   5.795   0.752
 2790W        W 3787   7.875   6.360   1.340
 2791W        W 3788   6.629   0.530   6.846
 2792W        W 3789   0.006   1.114   5.322
 2793W        W 3790   2.280   5.588   4.565
 2794W        W 3791   6.465   0.400   6.388
 2795W        W 3792   4.105   6.963   6.126
 2796W        W 3793   6.636   5.875   3.073
 2797W        W 3794   5.079   0.799   0.107
 2798W        W 3795   4.615   5.454   1.400
 2799W        W 3796   3.611   4.079   1.394
 2800W        W 3797   4.001   3.500   2.071
 2801W        W 3798   3.763   3.773   4.520
 2802W        W 3799   5.184   1.171   7.772
 2803W        W 3800   1.568   3.812   0.950
 2804W        W 3801   5.851   0.648   1.094
 2805W        W 3802   5.547   2.747   4.392
 2806W        W 3803   3.926   1.984   7.246
 2807W        W 3804   4.661   1.105   4.811
 2808W        W 3805   2.543   3.040   6.531
 2809W        W 3806   1.981   7.085   0.995
 2810W        W 3807   7.128   4.856   4.617
 2811W        W 3808   5.847   2.309   1.279
 2812W        W 3809   7.074   6.203   1.726
 2813W        W 3810   2.446   3.695   6.140
 2814W        W 3811   5.803   3.467   2.264
 2815W        W 3812   4.300   6.198   0.871
 2816W        W 3813   5.425   1.601   4.878
 2817W        W 3814   4.790   4.962   1.581
 2818W        W 3815   3.699   0.461   4.198
 2819W        W 3816   6.205   4.852   7.053
 2820W        W 3817   1.463   1.094   3.093
 2821W        W 3818   2.753   5.299   5.917
 2822W        W 3819   7.950   6.842   1.483
 2823W        W 3820   0.863   1.211   5.218
 2824W        W 3821   1.193   3.316   3.530
 2825W        W 3822   3.992   3.776   3.298
 2826W        W 3823   6.665   3.240   5.884
 2827W        W 3824   5.990   6.387   0.795
 2828W        W 3825   0.406   1.395   5.470
 2829W        W 3826   1.296   3.686   0.512
 2830W        W 3827   4.920   1.361   3.597
 2831W        W 3828   3.447   2.147   2.649
 2832W        W 3829   4.670   5.200   7.951
 2833W        W 3830   4.736   3.597   2.746
 2834W        W 3831   1.054   5.930   1.117
 2835W        W 3832   5.136   3.076   3.533
 2836W        W 3833   4.067   5.920   3.699
 2837W        W 3834   2.311   2.986   4.481
 2838W        W 3835   2.970   6.820   3.694
 2839W        W 3836   0.964   5.968   4.361
 2840W        W 3837   7.232   6.328   6.326
 2841W        W 3838   2.165   2.109   2.646
 2842W        W 3839   2.238   6.418   5.468
 2843W        W 3840   7.078   2.400   3.179
 2844W        W 3841   2.438   6.892   5.437
 2845W        W 3842   0.328   2.958   1.972
 2846W        W 3843   7.106   3.956   6.869
 2847W        W 3844   5.212   1.501   7.382
 2848W        W 3845   6.344   0.732   4.429
 2849W        W 3846   4.109   2.373   5.865
 2850W        W 3847   6.353   6.615   2.370
 2851W        W 3848   0.121   5.159   1.066
 2852W        W 3849   2.489   7.125   5.898
 2853W        W 3850   4.423   3.253   4.119
 2854W        W 3851   6.873   3.378   4.645
 2855W        W 3852   6.389   5.199   6.732
 2856W        W 3853   7.818   3.976   2.981
 2857W        W 3854   2.624   0.465   4.068
 2858W        W 3855   3.779   6.108   1.778
 2859W        W 3856   7.355   2.226   2.721
 2860W        W 3857   0.348   2.863   3.581
 2861W        W 3858   5.404   3.050   3.969
 2862W        W 3859   4.947   4.945   7.245
 2863W        W 3860   3.556   2.172   3.137
 2864W        W 3861   2.525   2.516   4.404
 2865W        W 3862   4.156   5.546   3.359
 2866W        W 3863   7.051   4.387   5.898
 2867W        W 3864   2.691   7.634   6.037
 2868W        W 3865   6.628   6.232   1.472
 2869W        W 3866   3.657   4.714   4.843
 2870W        W 3867   4.189   6.971   1.401
 2871W        W 3868   6.323   6.234   3.330
 2872W        W 3869   5.965   2.813   5.016
 2873W        W 3870   7.120   3.011   3.184
 2874W        W 3871   7.049   1.095   6.173
 2875W        W 3872   3.022   2.439   4.411
 2876W        W 3873   7.613   6.893   6.265
 2877W        W 3874   4.394   1.950   7.619
 2878W        W 3875   5.486   1.668   0.939
 2879W        W 3876   7.751   4.794   6.073
 2880W        W 3877   1.617   5.620   6.255
 2881W        W 3878   0.451   3.833   1.669
 2882W        W 3879   5.262   1.890   7.688
 2883W        W 3880   4.067   3.987   5.145
 2884W        W 3881   5.980   0.485   7.614
 2885W        W 3882   6.592   6.640   3.417
 2886W        W 3883   4.014   1.597   6.283
 2887W        W 3884   3.911   1.481   4.745
 2888W        W 3885   7.107   1.896   2.411
 2889W        W 3886   2.186   4.927   1.719
 2890W        W 3887   2.028   3.398   4.777
 2891W        W 3888   3.683   2.960   4.338
 2892W        W 3889   3.889   6.383   6.083
 2893W        W 3890   0.910   1.669   6.936
 2894W        W 3891   4.151   2.080   6.338
 2895W        W 3892   3.866   4.540   3.580
 2896W        W 3893   1.239   6.450   1.179
 2897W        W 3894   5.716   0.748   3.454
 2898W        W 3895   3.217   3.167   4.300
 2899W        W 3896   2.194   0.729   3.144
 2900W        W 3897   2.333   6.905   6.338
 2901W        W 3898   7.890   2.699   6.772
 2902W        W 3899   6.762   3.452   2.213
 2903W        W 3900   4.816   6.255   0.860
 2904W        W 3901   4.375   1.895   4.032
 2905W        W 3902   1.178   0.399   3.193
 2906W        W 3903   1.190   1.403   3.408
 2907W        W 3904   2.645   2.053   4.215
 2908W        W 3905   3.208   1.178   4.099
 2909W        W 3906   6.139   7.609   4.309
 2910W        W 3907   6.356   6.295   7.377
 2911W        W 3908   1.581   5.501   7.026
 2912W        W 3909   4.841   5.343   1.905
 2913W        W 3910   1.502   2.228   6.077
 2914W        W 3911   5.545   6.019   1.558
 2915W        W 3912   5.207   6.800   5.196
 2916W        W 3913   1.093   4.121   7.779
 2917W        W 3914   0.709   5.199   2.316
 2918W        W 3915   6.129   7.813   7.076
 2919W        W 3916   4.463   2.563   4.646
 2920W        W 3917   2.836   0.939   2.744
 2921W        W 3918   6.939   4.223   2.734
 2922W        W 3919   6.600   1.177   5.255
 2923W        W 3920   0.242   4.644   2.246
 2924W        W 3921   6.098   3.752   4.296
 2925W        W 3922   4.693   4.712   4.019
 2926W        W 3923   7.187   7.991   3.865
 2927W        W 3924   5.286   5.817   6.127
 2928W        W 3925   1.533   0.708   7.799
 2929W        W 3926   6.489   7.270   4.069
 2930W        W 3927   2.878   4.368   5.246
 2931W        W 3928   0.908   4.779   7.048
 2932W        W 3929   7.045   6.533   1.343
 2933W        W 3930   6.735   1.082   3.546
 2934W        W 3931   0.134   4.342   3.096
 2935W        W 3932   0.185   5.560   3.350
 2936W        W 3933   0.009   5.616   1.766
 2937W        W 3934   4.743   0.935   6.452
 2938W        W 3935   1.646   0.776   6.136
 2939W        W 3936   3.194   5.617   5.729
 2940W        W 3937   2.102   2.527   4.675
 2941W        W 3938   4.259   4.611   7.675
 2942W        W 3939   3.252   0.991   3.631
 2943W        W 3940   3.889   1.927   2.825
 2944W        W 3941   1.902   2.865   2.706
 2945W        W 3942   3.618   5.358   6.741
 2946W        W 3943   0.339   4.506   0.915
 2947W        W 3944   1.479   4.169   0.589
 2948W        W 3945   5.412   3.685   2.003
 2949W        W 3946   6.849   4.868   4.129
 2950W        W 3947   3.143   1.413   6.716
 2951W        W 3948   6.381   5.784   1.640
 2952W        W 3949   0.652   3.556   2.856
 2953W        W 3950   6.299   0.526   0.079
 2954W        W 3951   7.336   6.502   3.066
 2955W        W 3952   6.397   5.698   6.671
 2956W        W 3953   7.010   5.195   4.988
 2957W        W 3954   5.907   5.111   5.463
 2958W        W 3955   0.175   4.723   2.767
 2959W        W 3956   0.339   1.883   5.520
 2960W        W 3957   3.628   1.396   5.990
 2961W        W 3958   4.757   6.801   5.585
 2962W        W 3959   1.753   3.377   1.222
 2963W        W 3960   7.880   0.710   6.221
 2964W        W 3961   5.687   1.728   6.088
 2965W        W 3962   4.521   5.466   6.699
 2966W        W 3963   7.858   0.593   0.415
 2967W        W 3964   1.739   3.766   4.051
 2968W        W 3965   2.997   6.543   6.815
 2969W        W 3966   1.975   6.255   4.469
 2970W        W 3967   4.253   5.757   1.147
 2971W        W 3968   5.220   1.645   2.204
 2972W        W 3969   7.070   7.884   0.147
 2973W        W 3970   1.672   0.638   3.210
 2974W        W 3971   2.216   6.640   1.029
 2975W        W 3972   6.262   0.364   0.921
 2976W        W 3973   6.210   2.651   3.682
 2977W        W 3974   4.905   1.582   5.722
 2978W        W 3975   0.574   4.410   2.825
 2979W        W 3976   3.728   5.312   7.909
 2980W        W 3977   5.687   5.490   6.263
 2981W        W 3978   6.827   5.905   0.499
 2982W        W 3979   4.353   3.441   6.214
 2983W        W 3980   1.219   6.834   2.495
 2984W        W 3981   7.423   5.197   6.116
 2985W        W 3982   5.824   3.509   1.754
 2986W        W 3983   6.579   5.703   6.199
 2987W        W 3984   3.400   2.776   5.678
 2988W        W 3985   7.044   1.331   3.187
 2989W        W 3986   6.617   1.302   1.589
 2990W        W 3987   2.950   3.288   3.385
 2991W        W 3988   1.202   7.959   3.457
 2992W        W 3989   0.362   1.297   0.946
 2993W        W 3990   0.816   5.410   2.771
 2994W        W 3991   1.643   6.684   5.305
 2995W        W 3992   7.427   1.000   4.893
 2996W        W 3993   7.225   7.730   6.484
 2997W        W 3994   1.243   6.123   3.943
 2998W        W 3995   6.483   6.198   6.190
 2999W        W 3996   6.238   0.878   3.507
 3000W        W 3997   3.624   2.438   6.011
 3001W        W 3998   6.767   5.702   5.630
 3002W        W 3999   3.167   0.643   4.012
 3003W        W 4000   0.625   1.670   5.113
 3004W        W 4001   7.461   2.671   2.493
 3005W        W 4002   3.727   6.788   5.819
 3006W        W 4003   3.283   5.970   1.560
 3007W        W 4004   0.140   3.526   4.329
 3008W        W 4005   7.556   4.149   4.528
 3009W        W 4006   2.930   1.161   1.951
 3010W        W 4007   0.093   0.759   3.400
 3011W        W 4008   1.717   7.175   1.426
 3012W        W 4009   5.731   6.941   4.838
 3013W        W 4010   4.849   1.637   1.651
 3014W        W 4011   5.570   5.975   7.080
 3015W        W 4012   3.492   4.574   1.471
 3016W        W 4013   4.826   1.465   6.474
 3017W        W 4014   6.002   3.937   7.057
 3018W        W 4015   5.362   7.703   6.580
 3019W        W 4016   6.124   6.885   6.225
 3020W        W 4017   5.907   3.769   0.371
 3021W        W 4018   2.554   2.209   2.970
 3022W        W 4019   4.424   4.710   0.240
 3023W        W 4020   4.641   3.360   1.057
 3024W        W 4021   6.285   6.851   4.891
 3025W        W 4022   4.462   3.854   3.509
 3026W        W 4023   5.623   4.709   5.594
 3027W        W 4024   3.057   7.316   6.780
 3028W        W 4025   2.013   2.938   6.425
 3029W        W 4026   4.916   7.190   0.966
 3030W        W 4027   2.980   2.761   1.553
 3031W        W 4028   5.503   6.070   2.056
 3032W        W 4029   3.647   3.613   1.701
 3033W        W 4030   5.244   0.956   0.565
 3034W        W 4031   5.007   3.592   4.817
 3035W        W 4032   4.211   6.635   5.722
 3036W        W 4033   2.338   4.471   2.633
 3037W        W 4034   4.775   2.425   5.535
 3038W        W 4035   5.886   7.355   0.751
 3039W        W 4036   2.835   3.076   0.768
 3040W        W 4037   1.866   2.729   6.889
 3041W        W 4038   2.199   2.933   4.958
 3042W        W 4039   6.570   0.282   4.541
 3043W        W 4040   1.571   4.073   7.592
 3044W        W 4041   7.343   2.927   3.967
 3045W        W 4042   0.965   4.478   5.003
 3046W        W 4043   0.520   5.232   4.898
 3047W        W 4044   7.017   1.813   6.288
 3048W        W 4045   5.513   4.867   3.693
 3049W        W 4046   3.819   1.765   1.442
 3050W        W 4047   6.538   3.979   4.149
 3051W        W 4048   5.812   3.591   6.750
 3052W        W 4049   6.676   2.278   6.799
 3053W        W 4050   3.194   2.892   2.014
 3054W        W 4051   5.143   2.886   2.238
 3055W        W 4052   1.351   2.712   7.061
 3056W        W 4053   2.231   0.991   0.530
 3057W        W 4054   5.215   6.725   2.619
 3058W        W 4055   5.417   5.399   6.899
 3059W        W 4056   0.706   2.273   7.054
 3060W        W 4057   5.757   2.909   3.544
 3061W        W 4058   0.989   6.857   5.951
 3062W        W 4059   5.831   7.636   6.008
 3063W        W 4060   4.772   7.218   5.257
 3064W        W 4061   3.879   6.675   2.588
 3065W        W 4062   2.026   5.910   6.235
 3066W        W 4063   3.346   4.419   5.109
 3067W        W 4064   5.618   7.424   1.521
 3068W        W 4065   4.187   2.830   4.300
 3069W        W 4066   3.121   4.180   6.505
 3070W        W 4067   4.511   4.519   4.504
 3071W        W 4068   7.058   2.356   3.678
 3072W        W 4069   4.526   3.765   4.967
 3073W        W 4070   7.005   5.335   0.557
 3074W        W 4071   1.963   1.448   6.249
 3075W        W 4072   6.075   4.494   5.680
 3076W        W 4073   0.649   1.348   3.722
 3077W        W 4074   5.865   2.480   0.002
 3078W        W 4075   1.886   3.258   6.784
 3079W        W 4076   2.287   6.255   7.147
 3080W        W 4077   3.565   5.977   2.228
 3081W        W 4078   5.126   6.200   6.931
 3082W        W 4079   0.968   6.823   0.800
 3083W        W 4080   7.175   0.258   4.336
 3084W        W 4081   6.339   2.204   1.104
 3085W        W 4082   2.094   6.712   3.150
 3086W        W 4083   2.837   5.143   1.061
 3087W        W 4084   1.977   3.484   6.319
 3088W        W 4085   4.060   3.537   4.895
 3089W        W 4086   7.016   0.518   1.698
 3090W        W 4087   7.126   0.517   6.948
 3091W        W 4088   3.931   2.106   3.953
 3092W        W 4089   2.642   0.739   2.298
 3093W        W 4090   7.776   4.534   6.499
 3094W        W 4091   4.455   7.803   5.726
 3095W        W 4092   5.205   3.848   5.797
 3096W        W 4093   6.151   5.046   4.708
 3097W        W 4094   6.420   1.856   1.459
 3098W        W 4095   0.756   2.408   0.880
 3099W        W 4096   3.687   3.086   1.832
 3100W        W 4097   1.842   4.275   4.221
 3101W        W 4098   2.339   3.013   0.586
 3102W        W 4099   4.488   4.737   5.085
 3103W        W 4100   0.219   2.829   2.454
 3104W        W 4101   2.538   3.007   3.234
 3105W        W 4102   4.826   3.573   6.486
 3106W        W 4103   7.682   6.242   2.239
 3107W        W 4104   0.551   4.087   3.232
 3108W        W 4105   4.364   5.711   2.486
 3109W        W 4106   7.898   4.781   3.193
 3110W        W 4107   2.375   1.041   3.511
 3111W        W 4108   1.324   4.517   7.500
 3112W        W 4109   4.329   6.530   2.446
 3113W        W 4110   6.681   2.538   1.945
 3114W        W 4111   4.503   5.269   5.831
 3115W        W 4112   0.805   7.267   4.165
 3116W        W 4113   7.180   3.960   4.227
 3117W        W 4114   2.189   6.842   2.054
 3118W        W 4115   1.651   5.953   5.864
 3119W        W 4116   4.540   3.147   6.578
 3120W        W 4117   7.266   2.004   1.589
 3121W        W 4118   6.132   4.937   0.953
 3122W        W 4119   5.138   1.792   4.497
 3123W        W 4120   2.468   2.805   1.608
 3124W        W 4121   0.896   6.425   5.653
 3125W        W 4122   7.248   3.410   2.334
 3126W        W 4123   3.726   3.555   3.685
 3127W        W 4124   4.196   5.044   7.915
 3128W        W 4125   2.639   1.407   1.276
 3129W        W 4126   2.611   1.443   5.169
 3130W        W 4127   2.163   1.319   5.025
 3131W        W 4128   6.879   6.514   6.024
 3132W        W 4129   6.856   5.993   6.512
 3133W        W 4130   6.361   4.041   4.621
 3134W        W 4131   0.434   7.017   1.395
 3135W        W 4132   4.940   7.113   2.183
 3136W        W 4133   3.217   5.647   4.870
 3137W        W 4134   5.403   5.360   0.581
 3138W        W 4135   5.851   6.877   7.042
 3139W        W 4136   6.605   7.012   2.681
 3140W        W 4137   7.972   0.559   0.916
 3141W        W 4138   0.174   2.276   6.875
 3142W        W 4139   0.512   3.358   5.605
 3143W        W 4140   0.149   3.884   2.077
 3144W        W 4141   6.983   3.649   2.778
 3145W        W 4142   7.168   3.939   2.393
 3146W        W 4143   3.706   7.289   5.986
 3147W        W 4144   4.931   0.884   6.954
 3148W        W 4145   0.938   1.621   5.528
 3149W        W 4146   2.673   6.509   6.365
 3150W        W 4147   6.092   4.396   7.251
 3151W        W 4148   6.957   1.024   4.025
 3152W        W 4149   1.915   3.839   4.509
 3153W        W 4150   5.973   1.088   6.848
 3154W        W 4151   0.051   3.463   5.306
 3155W        W 4152   5.271   5.149   4.817
 3156W        W 4153   2.792   6.301   7.273
 3157W        W 4154   7.084   0.623   2.713
 3158W        W 4155   0.739   4.140   6.413
 3159W        W 4156   2.234   4.457   1.302
 3160W        W 4157   5.078   6.403   4.878
 3161W        W 4158   0.731   2.174   1.945
 3162W        W 4159   6.124   0.412   1.449
 3163W        W 4160   1.977   0.348   2.888
 3164W        W 4161   2.118   6.783   1.510
 3165W        W 4162   3.884   7.285   1.115
 3166W        W 4163   6.171   4.535   4.635
 3167W        W 4164   5.310   1.086   5.080
 3168W        W 4165   3.228   3.108   2.543
 3169W        W 4166   2.697   0.734   3.193
 3170W        W 4167   7.716   3.862   6.004
 3171W        W 4168   0.861   7.026   1.696
 3172W        W 4169   0.214   3.304   2.685
 3173W        W 4170   6.703   2.082   3.337
 3174W        W 4171   5.044   3.993   6.277
 3175W        W 4172   2.380   2.668   6.226
 3176W        W 4173   2.026   7.812   3.198
 3177W        W 4174   7.080   6.586   3.532
 3178W        W 4175   7.298   1.016   1.622
 3179W        W 4176   1.798   5.735   4.533
 3180W        W 4177   1.910   3.454   0.741
 3181W        W 4178   6.743   1.410   6.454
 3182W        W 4179   3.213   2.232   5.800
 3183W        W 4180   4.424   4.248   0.052
 3184W        W 4181   6.707   2.168   7.299
 3185W        W 4182   4.726   3.400   3.592
 3186W        W 4183   3.064   5.639   1.223
 3187W        W 4184   6.054   6.387   6.387
 3188W        W 4185   3.578   4.017   5.311
 3189W        W 4186   1.050   4.021   0.828
 3190W        W 4187   1.248   6.132   6.102
 3191W        W 4188   7.154   4.675   1.200
 3192W        W 4189   0.646   3.157   4.745
 3193W        W 4190   4.280   5.034   4.103
 3194W        W 4191   2.749   3.815   5.614
 3195W        W 4192   3.866   2.717   7.756
 3196W        W 4193   4.660   4.711   2.008
 3197W        W 4194   5.282   4.480   2.941
 3198W        W 4195   5.416   7.145   2.375
 3199W        W 4196   5.626   5.222   2.589
 3200W        W 4197   5.490   1.419   4.368
 3201W        W 4198   7.955   1.655   2.114
 3202W        W 4199   1.248   7.370   1.582
 3203W        W 4200   1.584   5.738   7.831
 3204W        W 4201   5.190   2.575   0.803
 3205W        W 4202   4.872   0.522   6.155
 3206W        W 4203   5.974   2.266   1.995
   8.00000   8.00000   8.00000
