Martini system from ../2_Creating_coordinates/TYR-THR-TYR_aa.pdb
 4217
    1TYR     BB    1   6.366   7.968   3.577
    1TYR    SC1    2   6.139   7.932   3.366
    1TYR    SC2    3   6.049   7.816   3.140
    1TYR    SC3    4   5.887   7.836   3.355
    2THR     BB    5   6.592   7.740   3.411
    2THR    SC1    6   6.540   7.493   3.476
    3TYR     BB    7   6.584   7.833   3.093
    3TYR    SC1    8   6.427   7.610   2.954
    3TYR    SC2    9   6.229   7.540   2.784
    3TYR    SC3   10   6.432   7.369   2.833
    1TYR     BB   11   3.383   7.958   0.678
    1TYR    SC1   12   3.072   7.971   0.713
    1TYR    SC2   13   2.858   7.824   0.638
    1TYR    SC3   14   2.856   7.956   0.873
    2THR     BB   15   3.404   7.615   0.807
    2THR    SC1   16   3.518   7.461   0.630
    3TYR     BB   17   3.190   7.565   1.043
    3TYR    SC1   18   3.179   7.849   1.171
    3TYR    SC2   19   3.276   0.099   1.139
    3TYR    SC3   20   3.061   0.057   1.297
    1TYR     BB   21   3.026   4.802   1.626
    1TYR    SC1   22   2.935   4.972   1.871
    1TYR    SC2   23   2.929   5.177   2.047
    1TYR    SC3   24   2.732   4.992   2.048
    2THR     BB   25   3.043   4.977   1.329
    2THR    SC1   26   3.073   4.861   1.098
    3TYR     BB   27   2.981   5.266   1.390
    3TYR    SC1   28   2.758   5.297   1.601
    3TYR    SC2   29   2.617   5.418   1.797
    3TYR    SC3   30   2.533   5.182   1.696
    1TYR     BB   31   5.150   0.221   5.251
    1TYR    SC1   32   5.260   7.981   5.429
    1TYR    SC2   33   5.307   7.910   5.685
    1TYR    SC3   34   5.326   7.726   5.489
    2THR     BB   35   5.101   0.542   5.430
    2THR    SC1   36   4.991   0.721   5.277
    3TYR     BB   37   5.245   0.703   5.700
    3TYR    SC1   38   5.194   0.513   5.941
    3TYR    SC2   39   5.218   0.273   6.062
    3TYR    SC3   40   5.167   0.494   6.209
    1TYR     BB   41   2.399   1.565   6.164
    1TYR    SC1   42   2.208   1.322   6.170
    1TYR    SC2   43   2.145   1.111   6.325
    1TYR    SC3   44   1.950   1.270   6.228
    2THR     BB   45   2.275   1.680   6.483
    2THR    SC1   46   2.033   1.770   6.447
    3TYR     BB   47   2.282   1.405   6.693
    3TYR    SC1   48   1.988   1.343   6.713
    3TYR    SC2   49   1.774   1.308   6.874
    3TYR    SC3   50   1.739   1.357   6.610
    1TYR     BB   51   6.427   2.803   4.904
    1TYR    SC1   52   6.519   3.085   4.900
    1TYR    SC2   53   6.594   3.327   4.804
    1TYR    SC3   54   6.634   3.266   5.064
    2THR     BB   55   6.209   2.813   4.630
    2THR    SC1   56   6.288   2.639   4.454
    3TYR     BB   57   5.941   2.950   4.773
    3TYR    SC1   58   6.059   3.236   4.846
    3TYR    SC2   59   6.142   3.488   4.797
    3TYR    SC3   60   6.188   3.376   5.038
    1TYR     BB   61   4.346   1.382   5.384
    1TYR    SC1   62   4.464   1.666   5.342
    1TYR    SC2   63   4.404   1.896   5.215
    1TYR    SC3   64   4.585   1.896   5.416
    2THR     BB   65   4.252   1.339   5.040
    2THR    SC1   66   4.242   1.085   4.985
    3TYR     BB   67   4.438   1.537   4.831
    3TYR    SC1   68   4.291   1.550   4.561
    3TYR    SC2   69   4.316   1.533   4.293
    3TYR    SC3   70   4.088   1.628   4.401
    1TYR     BB   71   6.878   1.180   0.121
    1TYR    SC1   72   6.924   1.281   7.834
    1TYR    SC2   73   6.891   1.368   7.580
    1TYR    SC3   74   7.107   1.445   7.722
    2THR     BB   75   6.543   1.137   0.152
    2THR    SC1   76   6.453   1.189   0.391
    3TYR     BB   77   6.385   1.107   7.866
    3TYR    SC1   78   6.547   1.079   7.614
    3TYR    SC2   79   6.728   0.939   7.471
    3TYR    SC3   80   6.533   1.076   7.345
    1TYR     BB   81   4.386   0.199   3.492
    1TYR    SC1   82   4.230   0.405   3.319
    1TYR    SC2   83   4.184   0.657   3.236
    1TYR    SC3   84   4.049   0.452   3.125
    2THR     BB   85   4.479   7.948   3.274
    2THR    SC1   86   4.618   7.760   3.388
    3TYR     BB   87   4.382   0.007   2.986
    3TYR    SC1   88   4.436   0.301   2.913
    3TYR    SC2   89   4.536   0.543   2.977
    3TYR    SC3   90   4.351   0.521   2.782
    1TYR     BB   91   1.706   7.528   0.353
    1TYR    SC1   92   1.927   7.565   0.140
    1TYR    SC2   93   2.114   7.465   7.973
    1TYR    SC3   94   2.017   7.714   7.933
    2THR     BB   95   1.631   7.201   0.327
    2THR    SC1   96   1.415   7.102   0.434
    3TYR     BB   97   1.806   7.055   0.085
    3TYR    SC1   98   1.727   7.254   7.849
    3TYR    SC2   99   1.783   7.408   7.634
    3TYR    SC3  100   1.604   7.493   7.818
    1TYR     BB  101   7.945   4.489   0.117
    1TYR    SC1  102   7.654   4.392   0.153
    1TYR    SC2  103   7.412   4.291   0.220
    1TYR    SC3  104   7.463   4.361   7.964
    2THR     BB  105   7.955   4.419   7.759
    2THR    SC1  106   7.862   4.184   7.696
    3TYR     BB  107   7.775   4.686   7.628
    3TYR    SC1  108   7.528   4.544   7.516
    3TYR    SC2  109   7.350   4.340   7.519
    3TYR    SC3  110   7.343   4.523   7.320
    1TYR     BB  111   7.551   5.560   3.864
    1TYR    SC1  112   7.703   5.459   3.613
    1TYR    SC2  113   7.929   5.555   3.501
    1TYR    SC3  114   7.842   5.307   3.439
    2THR     BB  115   7.727   5.880   3.844
    2THR    SC1  116   7.853   5.913   4.069
    3TYR     BB  117   7.712   6.014   3.538
    3TYR    SC1  118   7.996   5.998   3.407
    3TYR    SC2  119   0.165   6.106   3.226
    3TYR    SC3  120   0.216   5.862   3.330
    1TYR     BB  121   2.569   1.950   5.304
    1TYR    SC1  122   2.501   2.253   5.306
    1TYR    SC2  123   2.350   2.447   5.418
    1TYR    SC3  124   2.609   2.495   5.357
    2THR     BB  125   2.912   1.991   5.395
    2THR    SC1  126   3.058   1.880   5.211
    3TYR     BB  127   2.991   2.237   5.573
    3TYR    SC1  128   3.124   2.143   5.835
    3TYR    SC2  129   3.201   1.937   5.992
    3TYR    SC3  130   3.319   2.178   6.019
    1TYR     BB  131   3.775   4.195   3.070
    1TYR    SC1  132   3.814   3.904   3.145
    1TYR    SC2  133   4.017   3.734   3.199
    1TYR    SC3  134   3.763   3.664   3.259
    2THR     BB  135   4.094   4.293   3.019
    2THR    SC1  136   4.174   4.355   2.779
    3TYR     BB  137   4.270   4.218   3.266
    3TYR    SC1  138   4.117   4.092   3.493
    3TYR    SC2  139   3.898   3.970   3.593
    3TYR    SC3  140   4.126   3.976   3.737
    1TYR     BB  141   3.663   4.976   3.584
    1TYR    SC1  142   3.896   4.955   3.795
    1TYR    SC2  143   4.103   4.912   3.963
    1TYR    SC3  144   3.909   5.087   4.030
    2THR     BB  145   3.759   5.352   3.553
    2THR    SC1  146   3.603   5.429   3.360
    3TYR     BB  147   4.097   5.465   3.593
    3TYR    SC1  148   4.210   5.390   3.884
    3TYR    SC2  149   4.387   5.263   4.043
    3TYR    SC3  150   4.214   5.442   4.149
    1TYR     BB  151   5.263   4.878   1.597
    1TYR    SC1  152   5.233   4.745   1.874
    1TYR    SC2  153   5.190   4.497   1.974
    1TYR    SC3  154   5.355   4.668   2.103
    2THR     BB  155   5.567   4.698   1.513
    2THR    SC1  156   5.725   4.833   1.356
    3TYR     BB  157   5.662   4.448   1.696
    3TYR    SC1  158   5.533   4.211   1.853
    3TYR    SC2  159   5.374   4.090   2.035
    3TYR    SC3  160   5.577   3.954   1.921
    1TYR     BB  161   2.044   1.245   4.781
    1TYR    SC1  162   1.979   1.548   4.772
    1TYR    SC2  163   2.041   1.808   4.739
    1TYR    SC3  164   1.814   1.709   4.632
    2THR     BB  165   2.247   1.235   4.493
    2THR    SC1  166   2.490   1.166   4.554
    3TYR     BB  167   2.210   1.532   4.334
    3TYR    SC1  168   2.040   1.497   4.081
    3TYR    SC2  169   1.891   1.603   3.882
    3TYR    SC3  170   2.060   1.399   3.830
    1TYR     BB  171   5.463   7.153   4.841
    1TYR    SC1  172   5.661   7.242   5.063
    1TYR    SC2  173   5.686   7.387   5.289
    1TYR    SC3  174   5.906   7.288   5.167
    2THR     BB  175   5.151   7.237   4.978
    2THR    SC1  176   4.946   7.152   4.842
    3TYR     BB  177   5.189   7.242   5.301
    3TYR    SC1  178   5.390   7.001   5.334
    3TYR    SC2  179   5.641   6.931   5.404
    3TYR    SC3  180   5.504   6.782   5.225
    1TYR     BB  181   1.109   1.205   5.039
    1TYR    SC1  182   0.907   1.089   5.224
    1TYR    SC2  183   0.657   0.986   5.211
    1TYR    SC3  184   0.805   0.954   5.435
    2THR     BB  185   1.437   1.228   5.135
    2THR    SC1  186   1.569   1.371   4.963
    3TYR     BB  187   1.470   1.121   5.411
    3TYR    SC1  188   1.644   0.886   5.487
    3TYR    SC2  189   1.699   0.622   5.464
    3TYR    SC3  190   1.702   0.741   5.707
    1TYR     BB  191   7.055   6.560   5.840
    1TYR    SC1  192   6.786   6.679   5.782
    1TYR    SC2  193   6.587   6.855   5.736
    1TYR    SC3  194   6.630   6.651   5.564
    2THR     BB  195   7.079   6.364   5.540
    2THR    SC1  196   7.296   6.221   5.529
    3TYR     BB  197   7.086   6.623   5.321
    3TYR    SC1  198   6.960   6.522   5.064
    3TYR    SC2  199   6.844   6.620   4.841
    3TYR    SC3  200   7.013   6.411   4.824
    1TYR     BB  201   5.827   0.347   3.520
    1TYR    SC1  202   5.751   0.650   3.574
    1TYR    SC2  203   5.889   0.876   3.627
    1TYR    SC3  204   5.624   0.865   3.677
    2THR     BB  205   5.973   0.406   3.199
    2THR    SC1  206   5.830   0.276   3.024
    3TYR     BB  207   6.121   0.711   3.192
    3TYR    SC1  208   5.901   0.932   3.168
    3TYR    SC2  209   5.822   1.163   3.284
    3TYR    SC3  210   5.782   1.123   3.020
    1TYR     BB  211   3.827   1.181   0.697
    1TYR    SC1  212   3.750   0.953   0.891
    1TYR    SC2  213   3.670   0.696   0.903
    1TYR    SC3  214   3.697   0.840   1.130
    2THR     BB  215   3.731   1.514   0.749
    2THR    SC1  216   3.486   1.542   0.666
    3TYR     BB  217   3.932   1.676   0.942
    3TYR    SC1  218   4.050   1.440   1.114
    3TYR    SC2  219   4.201   1.302   1.289
    3TYR    SC3  220   3.950   1.220   1.234
    1TYR     BB  221   2.170   7.083   5.943
    1TYR    SC1  222   2.077   6.854   5.755
    1TYR    SC2  223   1.988   6.600   5.759
    1TYR    SC3  224   1.943   6.755   5.543
    2THR     BB  225   1.893   7.124   6.137
    2THR    SC1  226   1.883   7.347   6.271
    3TYR     BB  227   1.744   6.844   6.152
    3TYR    SC1  228   1.573   6.770   5.902
    3TYR    SC2  229   1.523   6.622   5.682
    3TYR    SC3  230   1.328   6.664   5.863
    1TYR     BB  231   5.643   2.850   2.676
    1TYR    SC1  232   5.943   2.841   2.647
    1TYR    SC2  233   6.173   2.804   2.510
    1TYR    SC3  234   6.175   2.803   2.780
    2THR     BB  235   5.450   2.630   2.555
    2THR    SC1  236   5.217   2.595   2.665
    3TYR     BB  237   5.548   2.501   2.276
    3TYR    SC1  238   5.843   2.558   2.201
    3TYR    SC2  239   6.097   2.469   2.198
    3TYR    SC3  240   6.029   2.686   2.053
    1TYR     BB  241   2.009   1.147   2.069
    1TYR    SC1  242   1.951   0.979   1.823
    1TYR    SC2  243   1.712   0.892   1.734
    1TYR    SC3  244   1.935   0.843   1.591
    2THR     BB  245   1.826   1.436   1.959
    2THR    SC1  246   1.905   1.638   2.103
    3TYR     BB  247   1.711   1.392   1.663
    3TYR    SC1  248   1.978   1.316   1.506
    3TYR    SC2  249   2.209   1.414   1.407
    3TYR    SC3  250   2.102   1.190   1.302
    1TYR     BB  251   6.434   1.460   1.692
    1TYR    SC1  252   6.409   1.393   1.403
    1TYR    SC2  253   6.421   1.164   1.260
    1TYR    SC3  254   6.216   1.336   1.224
    2THR     BB  255   6.135   1.286   1.801
    2THR    SC1  256   6.161   1.246   2.057
    3TYR     BB  257   5.965   0.960   1.702
    3TYR    SC1  258   6.028   0.943   1.406
    3TYR    SC2  259   6.117   0.843   1.172
    3TYR    SC3  260   5.888   0.986   1.179
    1TYR     BB  261   5.217   1.536   7.715
    1TYR    SC1  262   5.415   1.422   7.497
    1TYR    SC2  263   5.653   1.463   7.376
    1TYR    SC3  264   5.519   1.232   7.335
    2THR     BB  265   5.346   1.891   7.608
    2THR    SC1  266   5.314   2.024   7.828
    3TYR     BB  267   5.520   2.026   7.356
    3TYR    SC1  268   5.774   1.891   7.254
    3TYR    SC2  269   5.883   1.772   7.038
    3TYR    SC3  270   6.028   1.801   7.263
    1TYR     BB  271   6.170   4.045   6.273
    1TYR    SC1  272   5.911   4.112   6.122
    1TYR    SC2  273   5.785   4.189   5.897
    1TYR    SC3  274   5.661   4.025   6.071
    2THR     BB  275   6.382   3.936   6.029
    2THR    SC1  276   6.622   4.033   6.053
    3TYR     BB  277   6.214   3.939   5.746
    3TYR    SC1  278   6.257   3.660   5.627
    3TYR    SC2  279   6.381   3.525   5.429
    3TYR    SC3  280   6.125   3.466   5.493
    1TYR     BB  281   0.157   6.966   6.327
    1TYR    SC1  282   0.159   6.706   6.485
    1TYR    SC2  283   0.018   6.634   6.704
    1TYR    SC3  284   0.192   6.461   6.592
    2THR     BB  285   7.885   7.132   6.542
    2THR    SC1  286   7.951   7.384   6.532
    3TYR     BB  287   7.644   7.028   6.720
    3TYR    SC1  288   7.548   6.760   6.807
    3TYR    SC2  289   7.496   6.600   7.017
    3TYR    SC3  290   7.349   6.579   6.791
    1TYR     BB  291   3.963   4.770   6.638
    1TYR    SC1  292   3.710   4.869   6.784
    1TYR    SC2  293   3.639   5.038   6.981
    1TYR    SC3  294   3.449   4.906   6.842
    2THR     BB  295   3.947   4.879   6.320
    2THR    SC1  296   3.879   4.696   6.148
    3TYR     BB  297   3.999   5.202   6.213
    3TYR    SC1  298   3.827   5.331   6.440
    3TYR    SC2  299   3.753   5.413   6.686
    3TYR    SC3  300   3.601   5.236   6.552
    1TYR     BB  301   4.460   6.611   6.307
    1TYR    SC1  302   4.482   6.332   6.424
    1TYR    SC2  303   4.635   6.150   6.551
    1TYR    SC3  304   4.372   6.104   6.516
    2THR     BB  305   4.217   6.719   6.528
    2THR    SC1  306   3.997   6.788   6.408
    3TYR     BB  307   4.332   6.697   6.819
    3TYR    SC1  308   4.433   6.403   6.885
    3TYR    SC2  309   4.628   6.246   6.985
    3TYR    SC3  310   4.375   6.153   6.969
    1TYR     BB  311   5.401   5.488   3.111
    1TYR    SC1  312   5.706   5.465   3.055
    1TYR    SC2  313   5.926   5.615   3.010
    1TYR    SC3  314   5.946   5.384   3.150
    2THR     BB  315   5.411   5.760   3.334
    2THR    SC1  316   5.272   5.964   3.252
    3TYR     BB  317   5.723   5.769   3.464
    3TYR    SC1  318   5.697   5.697   3.762
    3TYR    SC2  319   5.602   5.791   3.997
    3TYR    SC3  320   5.674   5.532   3.974
    1TYR     BB  321   7.472   6.190   0.377
    1TYR    SC1  322   7.197   6.347   0.353
    1TYR    SC2  323   7.028   6.539   0.441
    1TYR    SC3  324   6.935   6.336   0.289
    2THR     BB  325   7.474   6.102   0.710
    2THR    SC1  326   7.669   5.947   0.785
    3TYR     BB  327   7.284   6.331   0.855
    3TYR    SC1  328   7.382   6.588   0.725
    3TYR    SC2  329   7.329   6.848   0.673
    3TYR    SC3  330   7.476   6.702   0.499
    1TYR     BB  331   4.858   5.362   0.478
    1TYR    SC1  332   5.149   5.328   0.570
    1TYR    SC2  333   5.303   5.318   0.792
    1TYR    SC3  334   5.361   5.161   0.579
    2THR     BB  335   4.752   5.041   0.646
    2THR    SC1  336   4.533   4.967   0.526
    3TYR     BB  337   4.873   5.060   0.940
    3TYR    SC1  338   5.151   4.919   0.974
    3TYR    SC2  339   5.264   4.709   1.101
    3TYR    SC3  340   5.413   4.863   0.937
    1TYR     BB  341   2.447   3.453   5.496
    1TYR    SC1  342   2.297   3.655   5.665
    1TYR    SC2  343   2.063   3.708   5.789
    1TYR    SC3  344   2.285   3.846   5.856
    2THR     BB  345   2.570   3.259   5.768
    2THR    SC1  346   2.827   3.253   5.725
    3TYR     BB  347   2.245   3.236   5.934
    3TYR    SC1  348   2.295   3.457   6.129
    3TYR    SC2  349   2.342   3.569   6.370
    3TYR    SC3  350   2.523   3.595   6.171
    1TYR     BB  351   6.708   5.328   7.703
    1TYR    SC1  352   6.842   5.391   7.436
    1TYR    SC2  353   7.056   5.447   7.281
    1TYR    SC3  354   6.806   5.481   7.184
    2THR     BB  355   6.372   5.314   7.596
    2THR    SC1  356   6.220   5.485   7.719
    3TYR     BB  357   6.337   5.124   7.343
    3TYR    SC1  358   6.443   5.220   7.078
    3TYR    SC2  359   6.616   5.202   6.871
    3TYR    SC3  360   6.389   5.346   6.845
    1TYR     BB  361   3.521   3.719   7.995
    1TYR    SC1  362   3.302   3.800   0.210
    1TYR    SC2  363   3.259   3.823   0.476
    1TYR    SC3  364   3.055   3.861   0.302
    2THR     BB  365   3.626   4.036   7.879
    2THR    SC1  366   3.803   4.022   7.689
    3TYR     BB  367   3.448   4.292   7.993
    3TYR    SC1  368   3.163   4.164   7.949
    3TYR    SC2  369   2.906   4.088   7.920
    3TYR    SC3  370   3.103   3.944   7.804
    1TYR     BB  371   6.892   3.960   2.547
    1TYR    SC1  372   7.181   3.908   2.444
    1TYR    SC2  373   7.397   4.065   2.401
    1TYR    SC3  374   7.416   3.797   2.372
    2THR     BB  375   6.993   4.097   2.861
    2THR    SC1  376   6.839   4.034   3.061
    3TYR     BB  377   7.318   4.112   2.899
    3TYR    SC1  378   7.405   3.817   2.844
    3TYR    SC2  379   7.329   3.568   2.771
    3TYR    SC3  380   7.591   3.627   2.794
    1TYR     BB  381   3.664   1.145   1.722
    1TYR    SC1  382   3.684   1.420   1.832
    1TYR    SC2  383   3.522   1.629   1.888
    1TYR    SC3  384   3.757   1.602   2.018
    2THR     BB  385   3.377   1.074   1.972
    2THR    SC1  386   3.283   0.844   1.894
    3TYR     BB  387   3.248   1.353   2.188
    3TYR    SC1  388   3.407   1.543   2.367
    3TYR    SC2  389   3.504   1.570   2.617
    3TYR    SC3  390   3.610   1.715   2.415
    1TYR     BB  391   1.235   5.452   0.623
    1TYR    SC1  392   1.088   5.626   0.830
    1TYR    SC2  393   0.982   5.873   0.856
    1TYR    SC3  394   0.903   5.674   1.021
    2THR     BB  395   1.071   5.553   0.345
    2THR    SC1  396   1.096   5.408   0.130
    3TYR     BB  397   0.850   5.798   0.348
    3TYR    SC1  398   0.637   5.754   0.565
    3TYR    SC2  399   0.395   5.638   0.589
    3TYR    SC3  400   0.508   5.759   0.802
    1TYR     BB  401   0.319   3.856   7.167
    1TYR    SC1  402   0.539   3.754   7.366
    1TYR    SC2  403   0.633   3.790   7.617
    1TYR    SC3  404   0.628   3.542   7.509
    2THR     BB  405   0.049   3.809   7.397
    2THR    SC1  406   7.840   3.687   7.301
    3TYR     BB  407   0.142   3.649   7.691
    3TYR    SC1  408   0.234   3.878   7.868
    3TYR    SC2  409   0.180   4.051   0.069
    3TYR    SC3  410   0.435   4.016   7.986
    1TYR     BB  411   4.746   4.397   4.348
    1TYR    SC1  412   4.791   4.453   4.648
    1TYR    SC2  413   4.688   4.402   4.892
    1TYR    SC3  414   4.955   4.421   4.859
    2THR     BB  415   4.421   4.291   4.331
    2THR    SC1  416   4.400   4.064   4.206
    3TYR     BB  417   4.270   4.343   4.649
    3TYR    SC1  418   4.249   4.057   4.738
    3TYR    SC2  419   4.326   3.843   4.884
    3TYR    SC3  420   4.235   3.809   4.632
    1TYR     BB  421   4.986   6.198   5.001
    1TYR    SC1  422   5.049   6.510   4.990
    1TYR    SC2  423   5.071   6.743   5.124
    1TYR    SC3  424   5.204   6.708   4.892
    2THR     BB  425   5.303   6.063   4.971
    2THR    SC1  426   5.296   5.820   4.878
    3TYR     BB  427   5.534   6.270   5.057
    3TYR    SC1  428   5.662   6.412   4.826
    3TYR    SC2  429   5.621   6.664   4.741
    3TYR    SC3  430   5.759   6.491   4.588
    1TYR     BB  431   0.542   2.189   3.357
    1TYR    SC1  432   0.821   2.240   3.225
    1TYR    SC2  433   1.071   2.337   3.257
    1TYR    SC3  434   1.010   2.189   3.039
    2THR     BB  435   0.465   1.897   3.174
    2THR    SC1  436   0.230   1.812   3.246
    3TYR     BB  437   0.770   1.761   3.124
    3TYR    SC1  438   0.817   1.822   2.832
    3TYR    SC2  439   0.917   1.738   2.596
    3TYR    SC3  440   0.672   1.851   2.606
    1TYR     BB  441   1.789   7.058   1.611
    1TYR    SC1  442   2.035   6.885   1.530
    1TYR    SC2  443   2.208   6.747   1.376
    1TYR    SC3  444   2.219   6.724   1.645
    2THR     BB  445   1.529   6.821   1.664
    2THR    SC1  446   1.294   6.920   1.712
    3TYR     BB  447   1.586   6.557   1.489
    3TYR    SC1  448   1.737   6.664   1.245
    3TYR    SC2  449   1.913   6.634   1.043
    3TYR    SC3  450   1.837   6.882   1.120
    1TYR     BB  451   1.866   0.331   3.134
    1TYR    SC1  452   2.119   0.357   2.958
    1TYR    SC2  453   2.269   0.541   2.829
    1TYR    SC3  454   2.349   0.283   2.837
    2THR     BB  455   1.695   0.118   2.915
    2THR    SC1  456   1.471   0.208   2.818
    3TYR     BB  457   1.913   7.963   2.711
    3TYR    SC1  458   2.002   0.177   2.507
    3TYR    SC2  459   1.996   0.250   2.247
    3TYR    SC3  460   2.159   0.379   2.420
    1TYR     BB  461   3.523   0.146   1.621
    1TYR    SC1  462   3.538   7.885   1.468
    1TYR    SC2  463   3.626   7.791   1.231
    1TYR    SC3  464   3.540   7.620   1.421
    2THR     BB  465   3.876   0.158   1.715
    2THR    SC1  466   4.023   0.357   1.793
    3TYR     BB  467   4.000   7.861   1.736
    3TYR    SC1  468   4.031   7.741   1.456
    3TYR    SC2  469   4.081   7.751   1.191
    3TYR    SC3  470   4.184   7.551   1.340
    1TYR     BB  471   1.809   3.892   0.769
    1TYR    SC1  472   1.817   3.604   0.858
    1TYR    SC2  473   1.856   3.352   0.769
    1TYR    SC3  474   1.895   3.410   1.030
    2THR     BB  475   2.094   3.909   0.576
    2THR    SC1  476   2.216   4.135   0.540
    3TYR     BB  477   2.186   3.630   0.480
    3TYR    SC1  478   2.300   3.466   0.711
    3TYR    SC2  479   2.297   3.229   0.840
    3TYR    SC3  480   2.511   3.393   0.863
    1TYR     BB  481   6.653   5.071   1.449
    1TYR    SC1  482   6.866   5.157   1.242
    1TYR    SC2  483   6.963   5.219   0.997
    1TYR    SC3  484   7.103   5.285   1.219
    2THR     BB  485   6.631   5.347   1.642
    2THR    SC1  486   6.524   5.300   1.874
    3TYR     BB  487   6.769   5.590   1.525
    3TYR    SC1  488   7.080   5.647   1.529
    3TYR    SC2  489   7.264   5.811   1.640
    3TYR    SC3  490   7.342   5.580   1.524
    1TYR     BB  491   1.450   4.640   4.518
    1TYR    SC1  492   1.483   4.779   4.781
    1TYR    SC2  493   1.411   4.804   5.041
    1TYR    SC3  494   1.672   4.785   4.974
    2THR     BB  495   1.525   4.308   4.695
    2THR    SC1  496   1.779   4.299   4.638
    3TYR     BB  497   1.348   4.304   4.939
    3TYR    SC1  498   1.490   4.391   5.207
    3TYR    SC2  499   1.576   4.305   5.448
    3TYR    SC3  500   1.622   4.560   5.371
    1TYR     BB  501   0.870   4.309   6.374
    1TYR    SC1  502   0.887   4.009   6.347
    1TYR    SC2  503   0.889   3.809   6.166
    1TYR    SC3  504   1.073   3.814   6.364
    2THR     BB  505   0.944   4.331   5.995
    2THR    SC1  506   0.789   4.531   5.936
    3TYR     BB  507   1.188   4.154   5.843
    3TYR    SC1  508   1.270   3.882   5.943
    3TYR    SC2  509   1.308   3.618   5.898
    3TYR    SC3  510   1.428   3.738   6.109
    1TYR     BB  511   4.032   5.668   1.555
    1TYR    SC1  512   4.274   5.500   1.658
    1TYR    SC2  513   4.539   5.449   1.650
    1TYR    SC3  514   4.383   5.328   1.835
    2THR     BB  515   4.057   5.929   1.766
    2THR    SC1  516   3.839   6.042   1.852
    3TYR     BB  517   4.351   6.020   1.789
    3TYR    SC1  518   4.518   5.811   1.930
    3TYR    SC2  519   4.753   5.685   1.971
    3TYR    SC3  520   4.604   5.764   2.182
    1TYR     BB  521   1.725   5.656   5.060
    1TYR    SC1  522   1.792   5.664   4.768
    1TYR    SC2  523   1.809   5.571   4.515
    1TYR    SC3  524   1.893   5.821   4.573
    2THR     BB  525   1.555   5.952   5.088
    2THR    SC1  526   1.435   5.999   5.313
    3TYR     BB  527   1.462   6.040   4.803
    3TYR    SC1  528   1.558   6.283   4.679
    3TYR    SC2  529   1.454   6.492   4.543
    3TYR    SC3  530   1.701   6.510   4.651
    1TYR     BB  531   6.985   3.759   0.926
    1TYR    SC1  532   7.243   3.908   0.963
    1TYR    SC2  533   7.467   3.946   1.109
    1TYR    SC3  534   7.454   4.036   0.855
    2THR     BB  535   6.913   3.600   1.227
    2THR    SC1  536   6.656   3.588   1.259
    3TYR     BB  537   7.176   3.488   1.372
    3TYR    SC1  538   7.397   3.482   1.153
    3TYR    SC2  539   7.652   3.533   1.084
    3TYR    SC3  540   7.462   3.512   0.893
    1TYR     BB  541   2.840   0.994   7.803
    1TYR    SC1  542   2.679   0.730   7.848
    1TYR    SC2  543   2.444   0.600   7.877
    1TYR    SC3  544   2.673   0.484   7.959
    2THR     BB  545   2.926   1.001   7.452
    2THR    SC1  546   3.085   1.196   7.386
    3TYR     BB  547   2.803   0.786   7.225
    3TYR    SC1  548   2.657   0.566   7.399
    3TYR    SC2  549   2.638   0.327   7.523
    3TYR    SC3  550   2.414   0.457   7.446
    1TYR     BB  551   6.549   6.770   7.044
    1TYR    SC1  552   6.398   7.022   7.120
    1TYR    SC2  553   6.170   7.136   7.210
    1TYR    SC3  554   6.345   7.281   7.064
    2THR     BB  555   6.864   6.797   7.165
    2THR    SC1  556   7.056   6.902   7.024
    3TYR     BB  557   6.871   6.853   7.492
    3TYR    SC1  558   6.590   6.974   7.544
    3TYR    SC2  559   6.332   6.988   7.623
    3TYR    SC3  560   6.461   7.212   7.544
    1TYR     BB  561   0.086   2.645   6.737
    1TYR    SC1  562   0.385   2.596   6.677
    1TYR    SC2  563   0.609   2.614   6.826
    1TYR    SC3  564   0.622   2.646   6.558
    2THR     BB  565   7.839   2.468   6.578
    2THR    SC1  566   7.622   2.435   6.718
    3TYR     BB  567   7.913   2.466   6.278
    3TYR    SC1  568   0.217   2.514   6.236
    3TYR    SC2  569   0.463   2.404   6.218
    3TYR    SC3  570   0.420   2.655   6.127
    1TYR     BB  571   1.946   4.876   2.923
    1TYR    SC1  572   2.232   5.016   2.971
    1TYR    SC2  573   2.426   5.201   2.940
    1TYR    SC3  574   2.324   5.152   3.185
    2THR     BB  575   1.788   5.101   3.136
    2THR    SC1  576   1.725   5.022   3.376
    3TYR     BB  577   1.892   5.375   3.028
    3TYR    SC1  578   1.751   5.597   3.159
    3TYR    SC2  579   1.555   5.775   3.102
    3TYR    SC3  580   1.692   5.794   3.334
    1TYR     BB  581   1.349   0.955   3.483
    1TYR    SC1  582   1.650   0.900   3.489
    1TYR    SC2  583   1.878   0.922   3.632
    1TYR    SC3  584   1.813   0.687   3.517
    2THR     BB  585   1.301   0.804   3.827
    2THR    SC1  586   1.045   0.790   3.870
    3TYR     BB  587   1.577   0.713   3.993
    3TYR    SC1  588   1.649   0.730   4.299
    3TYR    SC2  589   1.823   0.790   4.496
    3TYR    SC3  590   1.655   0.580   4.523
    1TYR     BB  591   3.164   0.409   4.246
    1TYR    SC1  592   3.087   0.302   3.958
    1TYR    SC2  593   3.035   0.143   3.747
    1TYR    SC3  594   3.084   0.406   3.709
    2THR     BB  595   3.059   0.744   4.175
    2THR    SC1  596   3.272   0.893   4.160
    3TYR     BB  597   2.836   0.809   3.946
    3TYR    SC1  598   2.728   1.093   4.003
    3TYR    SC2  599   2.498   1.228   4.047
    3TYR    SC3  600   2.735   1.339   4.114
    1TYR     BB  601   2.199   4.186   3.357
    1TYR    SC1  602   2.269   4.320   3.638
    1TYR    SC2  603   2.221   4.385   3.896
    1TYR    SC3  604   2.420   4.507   3.760
    2THR     BB  605   2.521   4.092   3.273
    2THR    SC1  606   2.566   4.102   3.017
    3TYR     BB  607   2.589   3.899   3.542
    3TYR    SC1  608   2.855   3.818   3.680
    3TYR    SC2  609   2.962   3.623   3.833
    3TYR    SC3  610   3.096   3.855   3.797
    1TYR     BB  611   5.694   1.920   0.322
    1TYR    SC1  612   5.502   2.141   0.278
    1TYR    SC2  613   5.362   2.348   0.379
    1TYR    SC3  614   5.503   2.379   0.151
    2THR     BB  615   5.909   2.063   0.542
    2THR    SC1  616   5.865   1.977   0.784
    3TYR     BB  617   5.884   2.394   0.492
    3TYR    SC1  618   5.990   2.417   0.205
    3TYR    SC2  619   5.997   2.510   7.952
    3TYR    SC3  620   6.184   2.335   0.037
    1TYR     BB  621   5.475   5.598   6.625
    1TYR    SC1  622   5.683   5.453   6.444
    1TYR    SC2  623   5.763   5.377   6.197
    1TYR    SC3  624   5.942   5.395   6.398
    2THR     BB  625   5.588   5.899   6.669
    2THR    SC1  626   5.449   6.060   6.818
    3TYR     BB  627   5.835   5.937   6.432
    3TYR    SC1  628   6.089   5.861   6.567
    3TYR    SC2  629   6.298   5.865   6.737
    3TYR    SC3  630   6.289   5.683   6.538
    1TYR     BB  631   2.531   7.620   6.850
    1TYR    SC1  632   2.663   7.517   6.592
    1TYR    SC2  633   2.888   7.525   6.443
    1TYR    SC3  634   2.713   7.322   6.412
    2THR     BB  635   2.234   7.804   6.841
    2THR    SC1  636   2.252   0.003   7.007
    3TYR     BB  637   2.097   7.773   6.563
    3TYR    SC1  638   2.289   7.640   6.366
    3TYR    SC2  639   2.372   7.481   6.164
    3TYR    SC3  640   2.493   7.719   6.207
    1TYR     BB  641   4.793   3.767   1.434
    1TYR    SC1  642   4.634   3.808   1.171
    1TYR    SC2  643   4.434   3.772   0.994
    1TYR    SC3  644   4.646   3.925   0.928
    2THR     BB  645   5.091   3.936   1.334
    2THR    SC1  646   5.298   3.919   1.491
    3TYR     BB  647   5.113   4.105   1.059
    3TYR    SC1  648   4.937   4.335   0.961
    3TYR    SC2  649   4.911   4.565   0.822
    3TYR    SC3  650   4.738   4.362   0.781
    1TYR     BB  651   0.390   5.317   4.875
    1TYR    SC1  652   0.470   5.576   5.015
    1TYR    SC2  653   0.515   5.839   5.054
    1TYR    SC3  654   0.628   5.657   5.219
    2THR     BB  655   0.530   5.107   5.121
    2THR    SC1  656   0.696   4.944   5.006
    3TYR     BB  657   0.405   5.183   5.406
    3TYR    SC1  658   0.622   5.344   5.554
    3TYR    SC2  659   0.642   5.583   5.678
    3TYR    SC3  660   0.865   5.439   5.625
    1TYR     BB  661   0.240   1.256   5.197
    1TYR    SC1  662   7.951   1.319   5.294
    1TYR    SC2  663   7.728   1.279   5.441
    1TYR    SC3  664   7.851   1.519   5.445
    2THR     BB  665   0.374   1.320   5.546
    2THR    SC1  666   0.611   1.422   5.515
    3TYR     BB  667   0.181   1.119   5.724
    3TYR    SC1  668   0.110   1.106   6.032
    3TYR    SC2  669   7.975   0.963   6.217
    3TYR    SC3  670   0.042   1.220   6.268
    1TYR     BB  671   1.039   3.931   2.845
    1TYR    SC1  672   1.162   4.022   2.580
    1TYR    SC2  673   1.126   4.055   2.315
    1TYR    SC3  674   1.278   4.230   2.453
    2THR     BB  675   0.839   4.257   2.870
    2THR    SC1  676   0.758   4.224   3.115
    3TYR     BB  677   0.689   4.446   2.636
    3TYR    SC1  678   0.825   4.419   2.353
    3TYR    SC2  679   0.811   4.313   2.105
    3TYR    SC3  680   1.012   4.482   2.169
    1TYR     BB  681   4.302   1.639   6.722
    1TYR    SC1  682   4.459   1.815   6.526
    1TYR    SC2  683   4.606   2.032   6.461
    1TYR    SC3  684   4.652   1.796   6.338
    2THR     BB  685   4.542   1.636   6.973
    2THR    SC1  686   4.558   1.431   7.133
    3TYR     BB  687   4.709   1.900   6.958
    3TYR    SC1  688   4.926   1.876   6.744
    3TYR    SC2  689   5.116   2.028   6.628
    3TYR    SC3  690   5.077   1.775   6.545
    1TYR     BB  691   3.083   3.109   6.995
    1TYR    SC1  692   3.281   2.972   7.191
    1TYR    SC2  693   3.291   2.923   7.456
    1TYR    SC3  694   3.492   2.841   7.296
    2THR     BB  695   2.913   3.273   7.295
    2THR    SC1  696   2.677   3.339   7.206
    3TYR     BB  697   3.134   3.434   7.487
    3TYR    SC1  698   3.071   3.488   7.793
    3TYR    SC2  699   2.888   3.578   7.969
    3TYR    SC3  700   3.092   3.422   0.054
    1TYR     BB  701   1.737   3.324   7.964
    1TYR    SC1  702   1.535   3.130   7.824
    1TYR    SC2  703   1.289   3.165   7.719
    1TYR    SC3  704   1.451   2.972   7.621
    2THR     BB  705   1.618   3.611   7.808
    2THR    SC1  706   1.525   3.810   7.947
    3TYR     BB  707   1.539   3.563   7.478
    3TYR    SC1  708   1.703   3.310   7.428
    3TYR    SC2  709   1.788   3.076   7.325
    3TYR    SC3  710   1.946   3.214   7.495
    1TYR     BB  711   3.037   7.387   3.335
    1TYR    SC1  712   3.008   7.172   3.116
    1TYR    SC2  713   2.908   7.046   2.899
    1TYR    SC3  714   3.056   6.909   3.078
    2THR     BB  715   3.210   7.649   3.189
    2THR    SC1  716   3.149   7.876   3.302
    3TYR     BB  717   3.211   7.636   2.845
    3TYR    SC1  718   3.325   7.359   2.775
    3TYR    SC2  719   3.338   7.091   2.745
    3TYR    SC3  720   3.548   7.245   2.674
    1TYR     BB  721   5.148   2.759   0.146
    1TYR    SC1  722   4.894   2.931   0.079
    1TYR    SC2  723   4.763   3.074   7.891
    1TYR    SC3  724   4.626   2.910   0.055
    2THR     BB  725   5.063   2.489   7.931
    2THR    SC1  726   4.970   2.288   0.068
    3TYR     BB  727   4.846   2.617   7.684
    3TYR    SC1  728   4.587   2.499   7.797
    3TYR    SC2  729   4.484   2.259   7.866
    3TYR    SC3  730   4.448   2.473   0.027
    1TYR     BB  731   6.847   3.049   5.862
    1TYR    SC1  732   7.130   3.191   5.925
    1TYR    SC2  733   7.209   3.348   6.130
    1TYR    SC3  734   7.393   3.225   5.975
    2THR     BB  735   6.705   3.333   5.737
    2THR    SC1  736   6.664   3.517   5.916
    3TYR     BB  737   6.858   3.388   5.475
    3TYR    SC1  738   7.130   3.241   5.466
    3TYR    SC2  739   7.381   3.160   5.525
    3TYR    SC3  740   7.262   3.077   5.298
    1TYR     BB  741   7.301   4.822   2.037
    1TYR    SC1  742   7.112   4.628   2.197
    1TYR    SC2  743   7.063   4.442   2.385
    1TYR    SC3  744   6.863   4.528   2.226
    2THR     BB  745   7.236   5.142   2.182
    2THR    SC1  746   7.388   5.320   2.068
    3TYR     BB  747   6.903   5.154   2.231
    3TYR    SC1  748   6.797   4.937   2.036
    3TYR    SC2  749   6.582   4.810   1.934
    3TYR    SC3  750   6.825   4.773   1.823
    1TYR     BB  751   2.878   5.395   7.395
    1TYR    SC1  752   2.708   5.366   7.134
    1TYR    SC2  753   2.767   5.465   6.890
    1TYR    SC3  754   2.561   5.293   6.921
    2THR     BB  755   3.181   5.519   7.201
    2THR    SC1  756   3.247   5.745   7.309
    3TYR     BB  757   3.321   5.413   6.938
    3TYR    SC1  758   3.168   5.273   6.718
    3TYR    SC2  759   3.172   5.079   6.530
    3TYR    SC3  760   2.947   5.124   6.672
    1TYR     BB  761   7.936   6.369   4.278
    1TYR    SC1  762   0.115   6.591   4.350
    1TYR    SC2  763   0.175   6.788   4.525
    1TYR    SC3  764   0.372   6.662   4.391
    2THR     BB  765   0.044   6.118   4.508
    2THR    SC1  766   7.823   6.001   4.579
    3TYR     BB  767   0.354   6.076   4.633
    3TYR    SC1  768   0.436   6.355   4.733
    3TYR    SC2  769   0.342   6.552   4.893
    3TYR    SC3  770   0.587   6.574   4.781
    1TYR     BB  771   7.914   1.433   6.742
    1TYR    SC1  772   7.910   1.743   6.772
    1TYR    SC2  773   7.931   1.979   6.902
    1TYR    SC3  774   7.744   1.947   6.710
    2THR     BB  775   7.743   1.350   7.039
    2THR    SC1  776   7.891   1.182   7.173
    3TYR     BB  777   7.699   1.662   7.217
    3TYR    SC1  778   0.003   1.708   7.247
    3TYR    SC2  779   0.247   1.809   7.301
    3TYR    SC3  780   0.219   1.613   7.117
    1TYR     BB  781   7.193   1.395   5.721
    1TYR    SC1  782   7.228   1.588   5.477
    1TYR    SC2  783   7.256   1.847   5.407
    1TYR    SC3  784   7.436   1.664   5.323
    2THR     BB  785   7.516   1.501   5.863
    2THR    SC1  786   7.635   1.284   5.943
    3TYR     BB  787   7.535   1.819   5.856
    3TYR    SC1  788   7.703   1.904   5.617
    3TYR    SC2  789   7.758   1.980   5.364
    3TYR    SC3  790   7.955   1.971   5.548
    1TYR     BB  791   6.472   5.206   4.967
    1TYR    SC1  792   6.751   5.111   4.879
    1TYR    SC2  793   6.864   4.880   4.796
    1TYR    SC3  794   6.958   5.116   4.705
    2THR     BB  795   6.296   4.959   4.758
    2THR    SC1  796   6.085   5.081   4.669
    3TYR     BB  797   6.367   4.657   4.709
    3TYR    SC1  798   6.612   4.567   4.554
    3TYR    SC2  799   6.856   4.459   4.592
    3TYR    SC3  800   6.721   4.410   4.363
    1TYR     BB  801   3.923   2.937   7.032
    1TYR    SC1  802   3.732   3.188   7.081
    1TYR    SC2  803   3.590   3.304   7.279
    1TYR    SC3  804   3.525   3.349   7.021
    2THR     BB  805   4.239   2.962   6.894
    2THR    SC1  806   4.384   2.749   6.927
    3TYR     BB  807   4.261   3.241   6.712
    3TYR    SC1  808   3.970   3.344   6.696
    3TYR    SC2  809   3.753   3.503   6.666
    3TYR    SC3  810   3.737   3.240   6.606
    1TYR     BB  811   6.984   0.237   2.381
    1TYR    SC1  812   6.778   0.147   2.168
    1TYR    SC2  813   6.543   0.185   2.041
    1TYR    SC3  814   6.672   7.949   2.019
    2THR     BB  815   7.032   0.574   2.278
    2THR    SC1  816   7.274   0.592   2.184
    3TYR     BB  817   6.757   0.698   2.115
    3TYR    SC1  818   6.788   0.531   1.861
    3TYR    SC2  819   6.740   0.382   1.641
    3TYR    SC3  820   6.957   0.331   1.794
    1TYR     BB  821   2.647   6.892   6.130
    1TYR    SC1  822   2.912   7.040   6.110
    1TYR    SC2  823   3.122   7.075   5.944
    1TYR    SC3  824   3.135   7.163   6.199
    2THR     BB  825   2.579   6.818   5.809
    2THR    SC1  826   2.500   6.574   5.765
    3TYR     BB  827   2.575   7.110   5.651
    3TYR    SC1  828   2.677   7.339   5.835
    3TYR    SC2  829   2.849   7.474   5.993
    3TYR    SC3  830   2.704   7.606   5.808
    1TYR     BB  831   0.184   2.331   1.381
    1TYR    SC1  832   0.293   2.270   1.105
    1TYR    SC2  833   0.469   2.127   0.958
    1TYR    SC3  834   0.320   2.319   0.840
    2THR     BB  835   0.178   1.975   1.487
    2THR    SC1  836   7.923   1.929   1.503
    3TYR     BB  837   0.350   1.748   1.281
    3TYR    SC1  838   0.220   1.731   1.001
    3TYR    SC2  839   0.259   1.790   0.740
    3TYR    SC3  840   0.080   1.600   0.810
    1TYR     BB  841   7.556   1.430   2.291
    1TYR    SC1  842   7.590   1.256   2.031
    1TYR    SC2  843   7.558   1.073   1.836
    1TYR    SC3  844   7.793   1.203   1.862
    2THR     BB  845   7.887   1.584   2.234
    2THR    SC1  846   0.021   1.531   2.450
    3TYR     BB  847   7.983   1.686   1.931
    3TYR    SC1  848   0.085   1.507   1.701
    3TYR    SC2  849   0.018   1.392   1.466
    3TYR    SC3  850   0.255   1.334   1.582
    1TYR     BB  851   1.345   5.744   7.362
    1TYR    SC1  852   1.443   5.760   7.061
    1TYR    SC2  853   1.632   5.723   6.872
    1TYR    SC3  854   1.375   5.766   6.800
    2THR     BB  855   1.250   5.434   7.511
    2THR    SC1  856   1.409   5.372   7.707
    3TYR     BB  857   0.967   5.287   7.377
    3TYR    SC1  858   0.897   5.518   7.173
    3TYR    SC2  859   0.976   5.686   6.976
    3TYR    SC3  860   0.749   5.736   7.114
    1TYR     BB  861   7.228   6.117   6.568
    1TYR    SC1  862   6.924   6.086   6.522
    1TYR    SC2  863   6.695   6.017   6.397
    1TYR    SC3  864   6.686   6.139   6.638
    2THR     BB  865   7.358   6.082   6.251
    2THR    SC1  866   7.591   5.972   6.216
    3TYR     BB  867   7.119   6.111   6.038
    3TYR    SC1  868   6.966   5.847   6.072
    3TYR    SC2  869   6.990   5.587   6.005
    3TYR    SC3  870   6.755   5.682   6.099
    1TYR     BB  871   3.164   2.751   1.909
    1TYR    SC1  872   3.133   2.535   2.123
    1TYR    SC2  873   3.156   2.390   2.350
    1TYR    SC3  874   2.923   2.513   2.291
    2THR     BB  875   2.925   2.976   2.060
    2THR    SC1  876   2.698   3.012   1.939
    3TYR     BB  877   3.049   3.040   2.324
    3TYR    SC1  878   2.994   2.857   2.555
    3TYR    SC2  879   3.104   2.665   2.710
    3TYR    SC3  880   2.884   2.796   2.794
    1TYR     BB  881   2.307   5.773   3.716
    1TYR    SC1  882   2.549   5.790   3.894
    1TYR    SC2  883   2.711   5.794   4.109
    1TYR    SC3  884   2.812   5.843   3.863
    2THR     BB  885   2.026   5.615   3.693
    2THR    SC1  886   2.022   5.406   3.539
    3TYR     BB  887   1.857   5.677   3.969
    3TYR    SC1  888   2.092   5.683   4.178
    3TYR    SC2  889   2.281   5.852   4.269
    3TYR    SC3  890   2.245   5.612   4.388
    1TYR     BB  891   0.528   5.772   2.942
    1TYR    SC1  892   0.282   5.761   2.764
    1TYR    SC2  893   0.135   5.573   2.638
    1TYR    SC3  894   0.055   5.831   2.637
    2THR     BB  895   0.544   5.457   3.066
    2THR    SC1  896   0.792   5.388   3.104
    3TYR     BB  897   0.232   5.359   3.102
    3TYR    SC1  898   7.990   5.561   3.059
    3TYR    SC2  899   7.752   5.561   2.932
    3TYR    SC3  900   7.844   5.788   3.046
    1TYR     BB  901   2.238   3.065   4.087
    1TYR    SC1  902   1.933   3.015   4.000
    1TYR    SC2  903   1.846   2.988   3.745
    1TYR    SC3  904   1.711   2.871   3.947
    2THR     BB  905   2.335   2.840   3.798
    2THR    SC1  906   2.463   2.946   3.598
    3TYR     BB  907   2.294   2.572   3.946
    3TYR    SC1  908   2.453   2.598   4.204
    3TYR    SC2  909   2.488   2.632   4.470
    3TYR    SC3  910   2.654   2.753   4.295
    1TYR     BB  911   6.372   6.683   2.052
    1TYR    SC1  912   6.432   6.411   2.172
    1TYR    SC2  913   6.340   6.163   2.225
    1TYR    SC3  914   6.602   6.201   2.168
    2THR     BB  915   6.399   6.572   1.704
    2THR    SC1  916   6.227   6.712   1.569
    3TYR     BB  917   6.411   6.245   1.684
    3TYR    SC1  918   6.693   6.160   1.708
    3TYR    SC2  919   6.899   6.065   1.561
    3TYR    SC3  920   6.912   6.061   1.831
    1TYR     BB  921   4.007   4.914   0.587
    1TYR    SC1  922   4.039   4.888   0.276
    1TYR    SC2  923   4.219   4.839   0.081
    1TYR    SC3  924   3.955   4.833   0.025
    2THR     BB  925   4.093   4.592   0.666
    2THR    SC1  926   3.898   4.420   0.678
    3TYR     BB  927   4.352   4.499   0.467
    3TYR    SC1  928   4.179   4.403   0.220
    3TYR    SC2  929   3.928   4.394   0.122
    3TYR    SC3  930   4.138   4.344   7.960
    1TYR     BB  931   2.881   6.411   4.539
    1TYR    SC1  932   3.153   6.541   4.594
    1TYR    SC2  933   3.373   6.670   4.506
    1TYR    SC3  934   3.323   6.652   4.771
    2THR     BB  935   2.765   6.655   4.331
    2THR    SC1  936   2.515   6.700   4.384
    3TYR     BB  937   2.997   6.885   4.212
    3TYR    SC1  938   2.801   7.131   4.242
    3TYR    SC2  939   2.665   7.346   4.150
    3TYR    SC3  940   2.565   7.200   4.355
    1TYR     BB  941   5.180   7.101   1.086
    1TYR    SC1  942   5.317   7.019   1.355
    1TYR    SC2  943   5.361   6.841   1.553
    1TYR    SC3  944   5.564   6.992   1.459
    2THR     BB  945   4.940   6.850   1.065
    2THR    SC1  946   4.732   6.931   0.931
    3TYR     BB  947   4.869   6.767   1.386
    3TYR    SC1  948   5.038   6.522   1.435
    3TYR    SC2  949   5.088   6.284   1.553
    3TYR    SC3  950   5.276   6.400   1.399
    1TYR     BB  951   6.566   3.162   3.065
    1TYR    SC1  952   6.674   3.154   3.365
    1TYR    SC2  953   6.757   3.236   3.608
    1TYR    SC3  954   6.579   3.034   3.587
    2THR     BB  955   6.221   3.131   3.205
    2THR    SC1  956   6.193   2.886   3.290
    3TYR     BB  957   6.169   3.395   3.366
    3TYR    SC1  958   6.333   3.425   3.636
    3TYR    SC2  959   6.444   3.607   3.802
    3TYR    SC3  960   6.400   3.355   3.888
    1TYR     BB  961   4.089   5.442   5.735
    1TYR    SC1  962   4.241   5.643   5.563
    1TYR    SC2  963   4.426   5.699   5.374
    1TYR    SC3  964   4.327   5.897   5.528
    2THR     BB  965   3.780   5.565   5.767
    2THR    SC1  966   3.684   5.556   6.009
    3TYR     BB  967   3.685   5.684   5.494
    3TYR    SC1  968   3.895   5.842   5.326
    3TYR    SC2  969   4.085   5.846   5.134
    3TYR    SC3  970   3.995   6.078   5.239
    1TYR     BB  971   5.259   3.065   2.896
    1TYR    SC1  972   5.012   3.118   3.064
    1TYR    SC2  973   4.744   3.146   3.086
    1TYR    SC3  974   4.890   3.074   3.301
    2THR     BB  975   5.147   3.093   2.588
    2THR    SC1  976   5.235   3.268   2.417
    3TYR     BB  977   4.817   3.000   2.562
    3TYR    SC1  978   4.786   2.795   2.789
    3TYR    SC2  979   4.629   2.607   2.904
    3TYR    SC3  980   4.851   2.695   3.032
    1TYR     BB  981   3.972   6.387   0.989
    1TYR    SC1  982   4.195   6.224   1.115
    1TYR    SC2  983   4.389   6.044   1.059
    1TYR    SC3  984   4.268   6.041   1.300
    2THR     BB  985   3.647   6.430   1.077
    2THR    SC1  986   3.479   6.532   0.906
    3TYR     BB  987   3.597   6.588   1.393
    3TYR    SC1  988   3.876   6.567   1.514
    3TYR    SC2  989   4.099   6.621   1.656
    3TYR    SC3  990   4.072   6.382   1.534
    1TYR     BB  991   7.561   5.232   6.518
    1TYR    SC1  992   7.782   5.426   6.435
    1TYR    SC2  993   0.045   5.484   6.439
    1TYR    SC3  994   7.890   5.573   6.237
    2THR     BB  995   7.753   5.001   6.689
    2THR    SC1  996   7.800   4.780   6.559
    3TYR     BB  997   7.991   5.158   6.850
    3TYR    SC1  998   0.226   5.117   6.649
    3TYR    SC2  999   0.317   4.928   6.480
    3TYR    SC3 1000   0.400   5.183   6.453
    4W        W 1001   0.392   1.770   2.204
    5W        W 1002   4.974   7.153   1.710
    6W        W 1003   3.696   4.060   0.385
    7W        W 1004   2.509   3.070   3.084
    8W        W 1005   2.960   5.679   3.399
    9W        W 1006   3.293   7.021   5.119
   10W        W 1007   3.638   6.659   2.815
   11W        W 1008   3.007   3.470   6.126
   12W        W 1009   3.630   2.755   5.372
   13W        W 1010   6.694   2.681   3.226
   14W        W 1011   2.943   7.006   4.700
   15W        W 1012   7.236   3.317   3.632
   16W        W 1013   5.891   6.259   3.422
   17W        W 1014   7.289   3.192   1.840
   18W        W 1015   4.572   7.080   6.516
   19W        W 1016   3.624   2.162   1.237
   20W        W 1017   4.548   4.244   3.736
   21W        W 1018   4.086   3.400   0.997
   22W        W 1019   3.353   5.717   3.725
   23W        W 1020   5.854   4.581   0.894
   24W        W 1021   0.225   3.211   3.871
   25W        W 1022   2.008   6.161   4.920
   26W        W 1023   5.338   2.376   5.400
   27W        W 1024   3.423   0.494   5.106
   28W        W 1025   1.766   4.239   3.727
   29W        W 1026   0.038   6.289   3.792
   30W        W 1027   2.949   1.039   5.019
   31W        W 1028   1.752   7.227   5.664
   32W        W 1029   7.842   1.678   2.914
   33W        W 1030   0.619   4.771   4.246
   34W        W 1031   7.536   6.436   5.922
   35W        W 1032   3.308   1.931   1.554
   36W        W 1033   4.605   0.557   4.437
   37W        W 1034   3.477   3.372   0.444
   38W        W 1035   1.944   7.801   6.036
   39W        W 1036   7.231   6.802   2.221
   40W        W 1037   7.844   2.856   3.821
   41W        W 1038   4.585   2.086   5.944
   42W        W 1039   4.447   6.298   2.627
   43W        W 1040   5.480   4.264   4.911
   44W        W 1041   5.625   1.627   3.133
   45W        W 1042   4.988   6.024   6.036
   46W        W 1043   4.873   1.352   0.123
   47W        W 1044   1.051   5.429   1.934
   48W        W 1045   2.599   6.966   0.555
   49W        W 1046   1.177   3.610   3.737
   50W        W 1047   6.366   1.579   3.767
   51W        W 1048   1.312   2.641   3.724
   52W        W 1049   3.928   7.085   2.956
   53W        W 1050   1.419   7.124   1.257
   54W        W 1051   2.069   6.139   3.938
   55W        W 1052   5.218   5.815   0.664
   56W        W 1053   4.261   5.345   2.715
   57W        W 1054   2.315   4.203   2.519
   58W        W 1055   6.323   1.708   4.607
   59W        W 1056   1.432   6.784   0.852
   60W        W 1057   2.452   7.204   1.411
   61W        W 1058   3.450   3.717   4.232
   62W        W 1059   3.230   4.327   0.445
   63W        W 1060   4.760   0.378   2.503
   64W        W 1061   3.363   3.654   5.068
   65W        W 1062   6.568   6.499   3.072
   66W        W 1063   7.376   1.110   7.995
   67W        W 1064   6.016   1.312   0.164
   68W        W 1065   5.993   5.040   6.941
   69W        W 1066   2.165   2.250   1.930
   70W        W 1067   6.492   5.346   0.168
   71W        W 1068   0.565   1.124   7.744
   72W        W 1069   5.753   2.049   2.194
   73W        W 1070   5.224   6.065   4.108
   74W        W 1071   1.887   2.196   6.714
   75W        W 1072   5.423   2.657   1.822
   76W        W 1073   6.209   7.060   0.754
   77W        W 1074   1.329   4.335   2.959
   78W        W 1075   7.842   6.488   4.781
   79W        W 1076   1.104   0.584   0.883
   80W        W 1077   0.852   1.835   4.597
   81W        W 1078   1.927   0.852   6.682
   82W        W 1079   3.912   4.130   4.346
   83W        W 1080   2.408   5.065   5.554
   84W        W 1081   0.076   6.641   1.127
   85W        W 1082   5.666   6.880   2.704
   86W        W 1083   5.985   5.636   5.493
   87W        W 1084   5.077   3.947   4.957
   88W        W 1085   7.953   3.734   5.994
   89W        W 1086   5.283   5.212   4.073
   90W        W 1087   1.941   0.245   0.841
   91W        W 1088   6.307   4.009   1.447
   92W        W 1089   2.459   2.339   2.359
   93W        W 1090   6.606   7.873   2.556
   94W        W 1091   0.693   4.288   4.117
   95W        W 1092   2.329   4.574   6.391
   96W        W 1093   2.132   4.862   5.188
   97W        W 1094   0.405   5.456   1.683
   98W        W 1095   3.486   4.649   4.902
   99W        W 1096   0.340   3.524   3.378
  100W        W 1097   2.622   4.224   5.843
  101W        W 1098   7.025   0.558   7.339
  102W        W 1099   2.925   4.585   0.102
  103W        W 1100   3.706   0.802   4.390
  104W        W 1101   3.421   5.156   4.848
  105W        W 1102   7.346   6.715   1.205
  106W        W 1103   4.256   1.025   7.121
  107W        W 1104   0.260   3.381   6.258
  108W        W 1105   0.617   3.121   0.899
  109W        W 1106   1.479   0.653   3.078
  110W        W 1107   0.894   7.078   1.357
  111W        W 1108   2.112   0.455   5.787
  112W        W 1109   4.042   2.428   4.055
  113W        W 1110   5.507   0.233   6.544
  114W        W 1111   1.013   0.848   0.453
  115W        W 1112   2.574   6.672   6.573
  116W        W 1113   2.487   0.162   1.176
  117W        W 1114   3.772   4.699   3.011
  118W        W 1115   3.453   4.743   7.333
  119W        W 1116   2.603   4.754   3.348
  120W        W 1117   3.892   4.935   4.922
  121W        W 1118   5.861   6.798   7.749
  122W        W 1119   4.319   7.537   6.366
  123W        W 1120   4.190   2.956   5.770
  124W        W 1121   6.151   7.532   6.040
  125W        W 1122   2.501   2.337   1.462
  126W        W 1123   6.308   6.339   6.935
  127W        W 1124   0.919   5.406   3.721
  128W        W 1125   4.673   5.632   2.687
  129W        W 1126   3.368   7.087   0.961
  130W        W 1127   3.800   6.820   4.722
  131W        W 1128   3.902   3.625   0.554
  132W        W 1129   4.408   1.872   0.880
  133W        W 1130   1.270   2.246   5.883
  134W        W 1131   5.715   6.923   3.214
  135W        W 1132   3.305   4.171   2.892
  136W        W 1133   1.056   5.239   2.674
  137W        W 1134   2.785   3.918   1.778
  138W        W 1135   3.717   4.334   2.576
  139W        W 1136   4.224   5.088   2.289
  140W        W 1137   2.980   1.123   4.505
  141W        W 1138   4.974   2.838   1.632
  142W        W 1139   3.966   3.068   1.378
  143W        W 1140   2.542   6.881   3.909
  144W        W 1141   5.188   6.906   7.110
  145W        W 1142   3.943   5.817   0.953
  146W        W 1143   6.193   6.104   3.036
  147W        W 1144   0.530   5.066   5.973
  148W        W 1145   1.009   4.310   1.115
  149W        W 1146   7.822   1.171   0.991
  150W        W 1147   0.797   4.781   1.819
  151W        W 1148   4.851   5.041   6.005
  152W        W 1149   3.613   7.672   3.508
  153W        W 1150   6.574   2.535   7.097
  154W        W 1151   4.177   2.929   2.330
  155W        W 1152   5.771   5.434   0.729
  156W        W 1153   0.885   1.273   7.010
  157W        W 1154   0.055   3.504   5.446
  158W        W 1155   6.991   1.847   5.838
  159W        W 1156   2.756   4.543   1.300
  160W        W 1157   0.551   5.581   6.168
  161W        W 1158   6.470   0.913   1.723
  162W        W 1159   1.430   0.968   6.721
  163W        W 1160   7.262   4.983   5.117
  164W        W 1161   0.080   6.239   1.442
  165W        W 1162   3.661   7.324   2.202
  166W        W 1163   6.406   2.797   0.052
  167W        W 1164   1.335   5.286   7.013
  168W        W 1165   5.704   1.136   7.801
  169W        W 1166   2.785   5.868   1.688
  170W        W 1167   2.211   5.589   2.704
  171W        W 1168   6.854   6.619   6.673
  172W        W 1169   3.885   1.502   3.952
  173W        W 1170   3.499   3.223   7.793
  174W        W 1171   0.375   6.556   3.372
  175W        W 1172   3.575   3.570   0.956
  176W        W 1173   7.726   1.374   0.501
  177W        W 1174   1.687   6.428   5.215
  178W        W 1175   2.600   6.668   1.980
  179W        W 1176   6.072   1.485   7.672
  180W        W 1177   7.291   4.821   6.593
  181W        W 1178   2.996   3.936   3.229
  182W        W 1179   3.934   0.243   3.712
  183W        W 1180   7.474   5.237   4.716
  184W        W 1181   4.807   1.830   7.944
  185W        W 1182   4.473   3.705   6.335
  186W        W 1183   3.119   4.738   4.532
  187W        W 1184   2.366   3.701   2.055
  188W        W 1185   3.610   4.621   4.019
  189W        W 1186   3.231   1.391   1.546
  190W        W 1187   1.505   3.748   2.280
  191W        W 1188   6.446   3.841   0.886
  192W        W 1189   7.497   4.064   1.921
  193W        W 1190   4.499   0.910   2.025
  194W        W 1191   1.138   2.744   2.494
  195W        W 1192   0.222   2.645   5.000
  196W        W 1193   2.667   0.314   4.275
  197W        W 1194   2.734   6.455   0.478
  198W        W 1195   0.623   2.224   1.774
  199W        W 1196   5.685   6.058   3.004
  200W        W 1197   1.271   0.730   5.149
  201W        W 1198   6.695   2.940   0.472
  202W        W 1199   6.087   2.386   4.848
  203W        W 1200   3.587   4.120   3.944
  204W        W 1201   2.184   4.602   0.731
  205W        W 1202   5.370   6.905   4.415
  206W        W 1203   2.818   2.759   7.275
  207W        W 1204   0.327   4.362   0.419
  208W        W 1205   3.706   2.427   2.064
  209W        W 1206   1.339   3.548   2.742
  210W        W 1207   3.753   3.596   5.393
  211W        W 1208   2.086   5.116   7.022
  212W        W 1209   7.871   0.946   2.294
  213W        W 1210   5.331   6.560   4.052
  214W        W 1211   6.262   1.321   6.158
  215W        W 1212   5.822   7.506   4.669
  216W        W 1213   7.005   5.972   5.076
  217W        W 1214   5.748   7.903   6.860
  218W        W 1215   0.838   6.645   1.692
  219W        W 1216   0.784   4.176   0.323
  220W        W 1217   2.428   6.447   4.825
  221W        W 1218   1.102   7.183   0.864
  222W        W 1219   0.245   7.076   4.099
  223W        W 1220   1.150   3.539   6.771
  224W        W 1221   3.276   0.528   1.388
  225W        W 1222   7.342   5.174   3.373
  226W        W 1223   6.964   2.819   7.272
  227W        W 1224   3.789   1.777   5.905
  228W        W 1225   1.347   4.836   3.055
  229W        W 1226   3.695   1.015   3.868
  230W        W 1227   1.218   4.522   1.679
  231W        W 1228   0.940   1.332   4.598
  232W        W 1229   6.199   2.772   0.539
  233W        W 1230   1.704   5.222   1.480
  234W        W 1231   3.431   4.029   3.448
  235W        W 1232   2.815   2.028   2.203
  236W        W 1233   3.006   6.126   4.935
  237W        W 1234   7.701   5.534   4.369
  238W        W 1235   6.994   2.114   0.459
  239W        W 1236   3.497   1.869   6.385
  240W        W 1237   5.775   3.215   6.319
  241W        W 1238   1.677   4.541   0.691
  242W        W 1239   4.722   6.033   3.006
  243W        W 1240   1.173   2.920   0.185
  244W        W 1241   1.696   3.622   0.368
  245W        W 1242   2.428   5.319   4.039
  246W        W 1243   2.759   0.239   3.329
  247W        W 1244   7.101   3.467   4.848
  248W        W 1245   1.401   3.151   3.618
  249W        W 1246   1.613   3.819   3.931
  250W        W 1247   1.081   4.983   0.412
  251W        W 1248   5.938   1.359   5.736
  252W        W 1249   6.405   4.256   3.105
  253W        W 1250   7.160   0.596   2.759
  254W        W 1251   1.128   0.258   1.840
  255W        W 1252   3.803   4.376   1.175
  256W        W 1253   4.736   5.906   1.470
  257W        W 1254   1.654   1.592   5.466
  258W        W 1255   3.552   0.528   3.930
  259W        W 1256   2.844   7.138   1.895
  260W        W 1257   1.976   4.262   1.029
  261W        W 1258   2.428   3.294   5.029
  262W        W 1259   1.125   4.709   2.619
  263W        W 1260   2.201   1.741   3.480
  264W        W 1261   5.858   4.606   4.692
  265W        W 1262   5.705   3.325   2.534
  266W        W 1263   3.577   6.545   6.401
  267W        W 1264   5.761   4.977   2.870
  268W        W 1265   4.833   1.117   3.674
  269W        W 1266   6.023   4.529   6.377
  270W        W 1267   1.518   5.126   0.175
  271W        W 1268   0.277   0.975   3.534
  272W        W 1269   0.783   4.289   1.590
  273W        W 1270   7.099   5.011   3.799
  274W        W 1271   7.399   5.806   4.744
  275W        W 1272   4.376   5.979   3.472
  276W        W 1273   5.235   4.507   7.239
  277W        W 1274   1.429   3.532   1.246
  278W        W 1275   1.637   3.705   5.498
  279W        W 1276   6.885   7.335   2.598
  280W        W 1277   1.530   5.409   3.645
  281W        W 1278   5.431   3.176   0.163
  282W        W 1279   6.300   5.822   5.134
  283W        W 1280   2.971   4.504   7.177
  284W        W 1281   4.315   3.458   1.517
  285W        W 1282   5.737   5.938   7.981
  286W        W 1283   2.919   4.435   3.133
  287W        W 1284   4.178   0.600   5.123
  288W        W 1285   3.873   3.649   1.394
  289W        W 1286   2.424   2.587   2.835
  290W        W 1287   5.629   5.976   5.455
  291W        W 1288   7.878   6.428   0.673
  292W        W 1289   1.820   2.091   7.257
  293W        W 1290   0.414   4.641   2.115
  294W        W 1291   6.593   5.391   3.586
  295W        W 1292   3.002   4.122   6.830
  296W        W 1293   0.809   5.205   1.537
  297W        W 1294   0.504   5.362   1.138
  298W        W 1295   2.361   4.472   5.463
  299W        W 1296   4.524   7.119   4.543
  300W        W 1297   7.924   3.904   2.176
  301W        W 1298   4.998   0.894   6.505
  302W        W 1299   2.933   2.213   3.515
  303W        W 1300   0.760   4.205   3.619
  304W        W 1301   2.281   2.061   6.122
  305W        W 1302   3.285   4.147   1.745
  306W        W 1303   4.292   6.713   0.734
  307W        W 1304   4.692   2.892   0.814
  308W        W 1305   2.584   2.349   5.850
  309W        W 1306   5.986   1.058   6.589
  310W        W 1307   1.042   3.779   7.214
  311W        W 1308   1.912   0.726   6.168
  312W        W 1309   6.301   6.494   7.754
  313W        W 1310   4.568   4.130   6.640
  314W        W 1311   2.810   4.384   2.642
  315W        W 1312   5.438   3.738   2.393
  316W        W 1313   6.545   4.599   3.459
  317W        W 1314   5.245   5.327   1.827
  318W        W 1315   1.538   1.549   2.439
  319W        W 1316   3.276   0.736   4.671
  320W        W 1317   2.412   6.435   3.673
  321W        W 1318   6.828   1.872   7.614
  322W        W 1319   1.214   4.176   0.069
  323W        W 1320   5.710   5.025   3.900
  324W        W 1321   2.884   1.209   0.346
  325W        W 1322   6.809   5.080   5.373
  326W        W 1323   6.614   6.823   0.469
  327W        W 1324   4.973   1.380   6.839
  328W        W 1325   6.873   6.198   1.092
  329W        W 1326   1.079   4.994   2.202
  330W        W 1327   5.021   2.249   3.165
  331W        W 1328   3.332   5.536   2.282
  332W        W 1329   6.401   3.491   6.330
  333W        W 1330   2.151   6.180   6.009
  334W        W 1331   1.005   2.412   5.455
  335W        W 1332   6.056   1.567   6.571
  336W        W 1333   1.155   6.226   2.347
  337W        W 1334   0.719   1.609   0.896
  338W        W 1335   2.623   1.117   6.399
  339W        W 1336   3.496   1.938   2.972
  340W        W 1337   7.548   4.486   5.336
  341W        W 1338   5.916   1.113   5.272
  342W        W 1339   3.076   3.630   6.992
  343W        W 1340   5.816   6.306   7.618
  344W        W 1341   1.730   1.101   2.587
  345W        W 1342   0.232   2.841   0.693
  346W        W 1343   2.541   5.009   1.234
  347W        W 1344   5.605   2.985   2.180
  348W        W 1345   5.753   3.202   3.023
  349W        W 1346   7.989   3.519   4.574
  350W        W 1347   4.966   5.481   7.360
  351W        W 1348   4.608   3.009   4.372
  352W        W 1349   0.928   4.758   1.334
  353W        W 1350   4.750   7.155   6.984
  354W        W 1351   2.888   5.860   6.324
  355W        W 1352   6.148   1.767   1.993
  356W        W 1353   5.922   5.265   1.183
  357W        W 1354   5.231   1.823   3.368
  358W        W 1355   4.773   5.363   6.462
  359W        W 1356   5.554   3.827   1.058
  360W        W 1357   4.102   2.873   0.071
  361W        W 1358   0.975   5.290   6.208
  362W        W 1359   4.550   1.289   2.376
  363W        W 1360   0.077   2.378   4.563
  364W        W 1361   7.007   2.976   4.889
  365W        W 1362   4.140   5.183   5.292
  366W        W 1363   5.210   1.742   0.247
  367W        W 1364   4.585   3.758   1.897
  368W        W 1365   2.992   0.267   5.764
  369W        W 1366   6.378   2.355   2.607
  370W        W 1367   2.273   5.675   4.898
  371W        W 1368   2.445   4.301   0.062
  372W        W 1369   2.960   3.491   4.779
  373W        W 1370   7.961   3.774   5.011
  374W        W 1371   5.846   5.795   7.508
  375W        W 1372   5.186   1.456   5.115
  376W        W 1373   7.344   3.634   7.116
  377W        W 1374   4.247   4.629   3.554
  378W        W 1375   6.105   4.906   5.219
  379W        W 1376   4.265   0.482   6.233
  380W        W 1377   0.140   6.106   0.961
  381W        W 1378   1.888   4.914   1.050
  382W        W 1379   2.362   4.194   1.929
  383W        W 1380   0.246   0.629   2.759
  384W        W 1381   7.240   1.481   0.367
  385W        W 1382   5.850   7.624   6.445
  386W        W 1383   0.777   3.054   2.341
  387W        W 1384   1.848   4.728   3.759
  388W        W 1385   6.899   6.690   0.922
  389W        W 1386   4.057   5.127   4.502
  390W        W 1387   6.880   1.715   1.624
  391W        W 1388   6.497   3.982   2.157
  392W        W 1389   3.545   1.350   3.510
  393W        W 1390   0.085   3.617   1.331
  394W        W 1391   5.096   6.405   7.143
  395W        W 1392   1.630   4.518   3.321
  396W        W 1393   5.440   7.185   1.934
  397W        W 1394   1.655   2.798   3.314
  398W        W 1395   7.866   2.834   4.683
  399W        W 1396   2.940   3.993   7.329
  400W        W 1397   0.657   6.938   3.596
  401W        W 1398   6.304   5.943   6.099
  402W        W 1399   1.266   3.777   4.295
  403W        W 1400   3.707   2.245   5.706
  404W        W 1401   0.742   2.234   5.824
  405W        W 1402   2.825   6.490   3.345
  406W        W 1403   7.677   2.447   4.970
  407W        W 1404   6.464   3.493   6.843
  408W        W 1405   4.569   0.981   1.310
  409W        W 1406   3.991   1.747   4.907
  410W        W 1407   5.769   2.455   7.159
  411W        W 1408   0.016   5.341   3.981
  412W        W 1409   2.325   1.031   0.753
  413W        W 1410   3.613   2.043   0.755
  414W        W 1411   6.428   4.825   5.641
  415W        W 1412   0.086   5.968   6.525
  416W        W 1413   1.135   2.016   4.183
  417W        W 1414   7.527   1.882   2.058
  418W        W 1415   2.634   1.896   6.997
  419W        W 1416   2.667   1.449   3.070
  420W        W 1417   0.804   3.805   4.094
  421W        W 1418   3.479   2.446   4.291
  422W        W 1419   2.598   4.893   7.300
  423W        W 1420   5.227   3.170   1.903
  424W        W 1421   0.839   6.447   5.688
  425W        W 1422   3.295   6.457   3.150
  426W        W 1423   7.063   7.776   7.018
  427W        W 1424   0.586   3.690   1.704
  428W        W 1425   7.384   1.568   6.757
  429W        W 1426   0.734   2.395   1.303
  430W        W 1427   7.027   4.559   6.921
  431W        W 1428   4.321   6.931   3.249
  432W        W 1429   1.666   4.523   6.002
  433W        W 1430   5.685   0.458   6.119
  434W        W 1431   5.303   2.957   5.097
  435W        W 1432   2.514   4.711   7.774
  436W        W 1433   6.093   6.110   4.688
  437W        W 1434   0.951   2.175   0.891
  438W        W 1435   7.773   4.740   0.564
  439W        W 1436   6.396   4.426   3.944
  440W        W 1437   4.342   6.278   4.258
  441W        W 1438   4.413   6.501   2.044
  442W        W 1439   4.657   3.958   5.262
  443W        W 1440   6.397   1.904   2.961
  444W        W 1441   1.007   1.152   7.491
  445W        W 1442   1.247   1.108   1.705
  446W        W 1443   3.449   4.785   7.872
  447W        W 1444   1.458   5.264   4.905
  448W        W 1445   2.791   0.435   1.505
  449W        W 1446   7.034   2.621   0.693
  450W        W 1447   1.617   0.553   6.985
  451W        W 1448   1.692   5.639   5.546
  452W        W 1449   3.416   4.415   6.936
  453W        W 1450   4.938   3.483   3.603
  454W        W 1451   2.341   1.886   1.248
  455W        W 1452   5.855   7.407   6.926
  456W        W 1453   0.355   3.289   2.485
  457W        W 1454   5.177   1.375   3.100
  458W        W 1455   7.631   3.458   3.270
  459W        W 1456   0.408   1.127   7.221
  460W        W 1457   6.937   3.735   3.734
  461W        W 1458   6.611   6.181   5.342
  462W        W 1459   4.282   1.588   3.048
  463W        W 1460   6.759   5.322   2.715
  464W        W 1461   0.428   6.517   0.781
  465W        W 1462   2.609   4.699   4.664
  466W        W 1463   7.585   7.709   6.750
  467W        W 1464   1.534   3.073   5.352
  468W        W 1465   2.676   1.761   4.392
  469W        W 1466   2.802   3.476   2.169
  470W        W 1467   6.221   6.845   0.123
  471W        W 1468   7.189   2.721   5.681
  472W        W 1469   2.546   3.751   4.861
  473W        W 1470   6.812   2.838   5.347
  474W        W 1471   1.577   3.134   0.422
  475W        W 1472   1.486   1.138   2.150
  476W        W 1473   7.406   2.024   4.962
  477W        W 1474   7.531   3.730   4.701
  478W        W 1475   0.596   4.391   4.608
  479W        W 1476   7.947   2.792   2.992
  480W        W 1477   4.233   7.110   6.117
  481W        W 1478   4.131   3.926   5.530
  482W        W 1479   7.164   3.085   0.896
  483W        W 1480   1.450   5.341   2.260
  484W        W 1481   4.753   3.297   1.691
  485W        W 1482   3.090   7.334   5.526
  486W        W 1483   6.236   7.148   1.914
  487W        W 1484   4.462   3.762   2.397
  488W        W 1485   6.548   7.401   6.327
  489W        W 1486   5.337   2.576   1.318
  490W        W 1487   2.142   5.343   1.220
  491W        W 1488   0.398   4.018   1.370
  492W        W 1489   6.175   3.893   3.452
  493W        W 1490   2.304   2.935   5.507
  494W        W 1491   2.043   2.174   3.226
  495W        W 1492   2.034   2.438   5.806
  496W        W 1493   5.671   1.874   2.667
  497W        W 1494   6.486   2.506   3.650
  498W        W 1495   2.953   7.144   3.765
  499W        W 1496   4.545   0.885   4.044
  500W        W 1497   3.455   3.375   4.637
  501W        W 1498   3.279   1.461   3.074
  502W        W 1499   5.000   6.710   3.150
  503W        W 1500   0.063   6.080   5.051
  504W        W 1501   5.216   6.325   2.266
  505W        W 1502   7.237   1.919   3.558
  506W        W 1503   3.336   3.324   2.006
  507W        W 1504   5.079   3.489   6.890
  508W        W 1505   3.026   0.674   5.396
  509W        W 1506   1.818   2.227   4.610
  510W        W 1507   1.120   4.738   0.855
  511W        W 1508   2.784   7.078   1.035
  512W        W 1509   7.441   0.708   3.181
  513W        W 1510   0.683   1.764   6.946
  514W        W 1511   5.401   4.652   4.134
  515W        W 1512   4.057   3.839   0.094
  516W        W 1513   4.902   2.841   6.710
  517W        W 1514   1.074   3.212   5.015
  518W        W 1515   6.128   7.200   6.549
  519W        W 1516   4.934   6.492   7.644
  520W        W 1517   5.804   5.841   4.987
  521W        W 1518   1.156   0.635   4.350
  522W        W 1519   6.289   0.197   7.982
  523W        W 1520   6.052   5.607   0.199
  524W        W 1521   4.485   2.940   1.420
  525W        W 1522   2.659   3.609   3.028
  526W        W 1523   3.246   1.398   5.246
  527W        W 1524   4.823   2.598   1.220
  528W        W 1525   7.553   1.182   6.465
  529W        W 1526   0.415   3.528   4.886
  530W        W 1527   4.138   0.951   1.643
  531W        W 1528   5.859   4.233   7.170
  532W        W 1529   1.233   4.706   6.168
  533W        W 1530   1.188   6.429   5.325
  534W        W 1531   4.028   1.276   5.851
  535W        W 1532   4.241   3.994   1.414
  536W        W 1533   4.789   6.577   0.579
  537W        W 1534   1.858   6.504   6.547
  538W        W 1535   7.118   4.128   6.042
  539W        W 1536   0.040   3.312   2.911
  540W        W 1537   0.504   3.623   0.988
  541W        W 1538   1.993   6.119   6.910
  542W        W 1539   0.845   3.472   0.562
  543W        W 1540   6.278   2.401   3.133
  544W        W 1541   4.050   1.517   7.149
  545W        W 1542   3.165   1.095   5.701
  546W        W 1543   5.495   3.339   1.035
  547W        W 1544   7.705   4.160   7.196
  548W        W 1545   3.616   6.950   6.084
  549W        W 1546   7.487   6.114   7.071
  550W        W 1547   5.384   5.225   7.515
  551W        W 1548   7.104   2.447   6.917
  552W        W 1549   4.926   5.696   5.229
  553W        W 1550   0.031   2.236   3.060
  554W        W 1551   3.482   4.100   0.836
  555W        W 1552   3.190   5.253   3.568
  556W        W 1553   0.402   4.135   1.905
  557W        W 1554   2.613   1.813   2.646
  558W        W 1555   6.953   5.587   1.998
  559W        W 1556   5.717   0.956   0.387
  560W        W 1557   7.904   2.402   7.148
  561W        W 1558   5.154   3.424   1.421
  562W        W 1559   1.854   2.918   5.804
  563W        W 1560   2.434   0.761   4.245
  564W        W 1561   4.304   1.037   2.910
  565W        W 1562   3.798   2.659   0.632
  566W        W 1563   5.247   5.183   6.448
  567W        W 1564   0.740   0.983   4.275
  568W        W 1565   4.567   5.839   4.892
  569W        W 1566   2.575   0.503   5.605
  570W        W 1567   7.342   4.523   5.814
  571W        W 1568   3.795   7.364   1.056
  572W        W 1569   2.408   0.841   5.981
  573W        W 1570   2.481   6.759   5.292
  574W        W 1571   6.547   0.936   0.846
  575W        W 1572   2.090   2.966   2.743
  576W        W 1573   4.508   0.897   5.394
  577W        W 1574   4.987   5.262   2.859
  578W        W 1575   7.243   2.996   1.390
  579W        W 1576   2.969   5.861   5.387
  580W        W 1577   1.213   1.380   1.255
  581W        W 1578   1.998   4.396   5.078
  582W        W 1579   3.340   7.309   1.827
  583W        W 1580   4.091   3.896   6.640
  584W        W 1581   1.554   6.970   4.441
  585W        W 1582   3.530   4.691   5.763
  586W        W 1583   5.819   1.519   0.985
  587W        W 1584   3.109   1.093   6.247
  588W        W 1585   6.488   4.142   4.799
  589W        W 1586   3.519   3.431   6.146
  590W        W 1587   4.997   1.010   5.998
  591W        W 1588   5.691   6.986   7.204
  592W        W 1589   1.495   4.898   5.732
  593W        W 1590   1.398   2.509   4.736
  594W        W 1591   5.460   6.278   6.357
  595W        W 1592   3.025   4.623   6.681
  596W        W 1593   6.147   1.331   7.056
  597W        W 1594   5.948   0.595   5.301
  598W        W 1595   5.011   3.136   4.678
  599W        W 1596   5.127   1.845   1.458
  600W        W 1597   6.258   3.200   5.933
  601W        W 1598   3.295   2.587   3.606
  602W        W 1599   7.119   0.890   0.959
  603W        W 1600   6.297   3.276   0.469
  604W        W 1601   0.242   2.315   5.782
  605W        W 1602   2.443   0.965   6.862
  606W        W 1603   4.871   0.550   2.013
  607W        W 1604   3.028   2.750   6.605
  608W        W 1605   4.161   0.751   4.608
  609W        W 1606   4.032   1.217   6.701
  610W        W 1607   0.444   5.305   7.067
  611W        W 1608   6.100   3.725   7.385
  612W        W 1609   4.841   4.939   4.789
  613W        W 1610   3.765   4.313   6.582
  614W        W 1611   1.403   4.919   1.232
  615W        W 1612   5.720   6.257   4.102
  616W        W 1613   6.255   6.622   4.656
  617W        W 1614   1.781   1.634   3.074
  618W        W 1615   6.976   0.760   7.860
  619W        W 1616   7.756   3.592   6.820
  620W        W 1617   4.433   4.773   6.954
  621W        W 1618   2.890   3.704   4.306
  622W        W 1619   2.903   4.750   5.615
  623W        W 1620   7.547   2.926   6.546
  624W        W 1621   3.963   4.964   5.733
  625W        W 1622   7.169   1.032   3.467
  626W        W 1623   0.567   3.241   2.977
  627W        W 1624   1.096   3.020   0.700
  628W        W 1625   0.037   4.237   5.246
  629W        W 1626   3.797   2.033   4.275
  630W        W 1627   5.786   6.906   0.432
  631W        W 1628   5.251   3.046   7.047
  632W        W 1629   6.409   1.742   6.889
  633W        W 1630   4.956   4.848   4.303
  634W        W 1631   7.024   7.393   6.069
  635W        W 1632   6.337   5.291   5.446
  636W        W 1633   2.931   7.970   6.182
  637W        W 1634   2.962   0.941   1.474
  638W        W 1635   2.748   2.511   4.880
  639W        W 1636   4.116   6.518   7.248
  640W        W 1637   6.879   7.100   3.620
  641W        W 1638   5.218   4.751   5.115
  642W        W 1639   3.907   5.722   3.116
  643W        W 1640   1.301   1.070   0.853
  644W        W 1641   3.742   5.872   4.780
  645W        W 1642   2.470   1.580   4.847
  646W        W 1643   7.827   1.696   4.956
  647W        W 1644   1.040   6.837   4.577
  648W        W 1645   7.848   6.265   2.828
  649W        W 1646   2.024   3.953   0.064
  650W        W 1647   3.381   6.567   4.026
  651W        W 1648   1.027   3.929   1.848
  652W        W 1649   0.708   1.219   1.849
  653W        W 1650   7.171   4.431   1.721
  654W        W 1651   6.660   6.187   5.833
  655W        W 1652   5.329   1.653   6.104
  656W        W 1653   1.931   5.180   4.008
  657W        W 1654   1.829   3.414   1.533
  658W        W 1655   1.556   3.925   7.122
  659W        W 1656   1.154   3.330   6.275
  660W        W 1657   5.159   5.109   2.260
  661W        W 1658   4.547   2.591   2.421
  662W        W 1659   6.086   7.669   7.297
  663W        W 1660   1.518   2.690   0.623
  664W        W 1661   0.829   5.276   6.718
  665W        W 1662   7.697   6.098   1.766
  666W        W 1663   6.705   5.653   4.775
  667W        W 1664   4.400   7.184   2.815
  668W        W 1665   4.721   3.970   4.604
  669W        W 1666   3.101   4.824   6.077
  670W        W 1667   7.018   1.227   6.554
  671W        W 1668   4.266   6.659   4.600
  672W        W 1669   2.895   5.117   4.822
  673W        W 1670   3.142   0.645   2.722
  674W        W 1671   6.363   0.914   2.407
  675W        W 1672   2.324   5.791   6.272
  676W        W 1673   3.789   0.838   6.941
  677W        W 1674   5.438   1.075   2.352
  678W        W 1675   1.247   5.749   3.891
  679W        W 1676   4.339   4.600   2.351
  680W        W 1677   3.498   2.660   4.870
  681W        W 1678   3.184   3.248   1.054
  682W        W 1679   3.291   5.461   5.248
  683W        W 1680   3.398   6.145   2.761
  684W        W 1681   7.357   2.689   4.667
  685W        W 1682   5.767   3.630   5.143
  686W        W 1683   3.316   6.442   0.429
  687W        W 1684   4.341   0.262   5.759
  688W        W 1685   3.631   4.270   6.042
  689W        W 1686   4.807   3.368   2.183
  690W        W 1687   1.552   1.423   3.478
  691W        W 1688   7.116   4.118   4.016
  692W        W 1689   0.083   3.520   1.820
  693W        W 1690   4.392   2.390   5.113
  694W        W 1691   6.067   5.295   4.204
  695W        W 1692   3.198   3.709   6.515
  696W        W 1693   3.724   1.183   2.326
  697W        W 1694   4.849   0.948   3.173
  698W        W 1695   6.618   4.111   3.581
  699W        W 1696   5.450   6.470   3.224
  700W        W 1697   7.037   3.156   2.653
  701W        W 1698   4.856   6.400   4.170
  702W        W 1699   5.667   4.554   3.709
  703W        W 1700   6.978   5.974   0.637
  704W        W 1701   7.827   3.254   0.640
  705W        W 1702   7.675   0.952   3.590
  706W        W 1703   3.224   4.278   2.360
  707W        W 1704   7.078   2.826   3.515
  708W        W 1705   6.302   4.878   6.596
  709W        W 1706   0.207   5.538   2.159
  710W        W 1707   5.159   5.784   2.799
  711W        W 1708   4.890   1.850   2.312
  712W        W 1709   0.036   5.596   0.935
  713W        W 1710   6.047   6.284   5.160
  714W        W 1711   0.983   3.387   1.083
  715W        W 1712   3.782   1.504   3.033
  716W        W 1713   1.507   3.737   1.745
  717W        W 1714   1.022   5.192   1.062
  718W        W 1715   6.028   0.807   0.000
  719W        W 1716   7.419   6.308   4.509
  720W        W 1717   5.006   6.663   1.899
  721W        W 1718   4.133   7.636   2.705
  722W        W 1719   2.581   2.577   6.400
  723W        W 1720   0.361   4.114   0.871
  724W        W 1721   5.712   5.476   4.618
  725W        W 1722   3.043   1.576   5.685
  726W        W 1723   5.457   2.244   2.922
  727W        W 1724   4.315   2.045   4.238
  728W        W 1725   0.624   1.151   0.273
  729W        W 1726   5.587   5.531   2.152
  730W        W 1727   0.543   2.673   5.587
  731W        W 1728   3.007   1.705   1.875
  732W        W 1729   7.905   3.242   5.872
  733W        W 1730   0.457   2.270   2.305
  734W        W 1731   5.339   2.573   6.910
  735W        W 1732   2.111   3.858   3.755
  736W        W 1733   3.652   6.888   1.868
  737W        W 1734   6.367   3.037   5.438
  738W        W 1735   3.786   4.195   7.205
  739W        W 1736   5.497   4.050   2.794
  740W        W 1737   2.239   4.981   2.077
  741W        W 1738   5.886   7.273   4.149
  742W        W 1739   3.250   6.225   1.292
  743W        W 1740   3.909   3.694   7.106
  744W        W 1741   5.129   0.507   6.801
  745W        W 1742   2.542   6.257   4.129
  746W        W 1743   3.903   0.535   2.514
  747W        W 1744   5.305   2.666   3.217
  748W        W 1745   5.704   7.105   0.929
  749W        W 1746   4.899   2.145   7.562
  750W        W 1747   3.325   3.661   2.974
  751W        W 1748   1.100   1.496   2.193
  752W        W 1749   3.134   6.233   7.107
  753W        W 1750   1.675   6.408   4.120
  754W        W 1751   1.304   1.665   2.897
  755W        W 1752   7.565   1.582   1.631
  756W        W 1753   2.127   3.921   2.892
  757W        W 1754   2.778   3.016   6.192
  758W        W 1755   4.136   0.252   6.672
  759W        W 1756   7.727   2.334   5.837
  760W        W 1757   7.164   2.527   4.215
  761W        W 1758   2.886   1.201   1.887
  762W        W 1759   6.708   3.754   5.073
  763W        W 1760   2.725   1.758   0.886
  764W        W 1761   6.429   6.420   1.198
  765W        W 1762   3.187   7.787   5.761
  766W        W 1763   5.805   1.519   4.442
  767W        W 1764   1.777   3.883   1.302
  768W        W 1765   4.637   5.559   3.667
  769W        W 1766   4.028   4.434   5.755
  770W        W 1767   4.978   0.910   4.400
  771W        W 1768   3.912   0.102   2.236
  772W        W 1769   3.179   0.542   3.228
  773W        W 1770   2.006   2.521   1.539
  774W        W 1771   3.254   5.712   4.229
  775W        W 1772   1.232   5.453   1.457
  776W        W 1773   1.194   6.221   4.054
  777W        W 1774   6.356   4.228   7.327
  778W        W 1775   2.555   5.875   6.725
  779W        W 1776   3.948   1.692   5.425
  780W        W 1777   4.151   4.867   2.752
  781W        W 1778   4.961   1.005   2.225
  782W        W 1779   0.333   4.912   3.835
  783W        W 1780   6.421   2.373   6.328
  784W        W 1781   4.662   6.694   7.238
  785W        W 1782   6.845   0.967   2.548
  786W        W 1783   6.797   0.249   2.855
  787W        W 1784   1.662   6.675   7.012
  788W        W 1785   2.280   5.674   3.208
  789W        W 1786   5.577   1.903   1.215
  790W        W 1787   1.387   1.252   7.159
  791W        W 1788   6.172   7.618   5.491
  792W        W 1789   3.755   6.241   3.114
  793W        W 1790   3.477   0.755   2.371
  794W        W 1791   7.295   7.328   6.916
  795W        W 1792   5.700   3.788   7.001
  796W        W 1793   4.724   0.639   5.774
  797W        W 1794   1.745   7.007   6.631
  798W        W 1795   6.251   5.650   7.226
  799W        W 1796   3.961   2.491   1.617
  800W        W 1797   4.296   4.815   1.861
  801W        W 1798   3.841   4.593   5.306
  802W        W 1799   4.122   4.129   2.293
  803W        W 1800   6.403   0.804   6.444
  804W        W 1801   3.663   2.167   4.758
  805W        W 1802   5.012   0.101   6.515
  806W        W 1803   6.963   2.042   4.194
  807W        W 1804   1.441   2.223   0.780
  808W        W 1805   6.031   6.801   6.857
  809W        W 1806   3.173   6.647   2.650
  810W        W 1807   1.548   2.306   3.318
  811W        W 1808   6.245   2.165   5.509
  812W        W 1809   6.566   6.167   4.844
  813W        W 1810   0.225   5.143   0.739
  814W        W 1811   0.298   6.696   1.592
  815W        W 1812   3.645   6.319   7.130
  816W        W 1813   1.517   2.353   5.199
  817W        W 1814   3.783   5.338   2.411
  818W        W 1815   2.270   1.748   2.999
  819W        W 1816   1.733   4.014   3.266
  820W        W 1817   3.473   6.407   1.842
  821W        W 1818   6.038   3.711   2.264
  822W        W 1819   4.128   6.589   2.956
  823W        W 1820   2.444   5.391   2.287
  824W        W 1821   1.629   6.882   3.414
  825W        W 1822   1.326   6.183   3.236
  826W        W 1823   5.627   4.528   3.190
  827W        W 1824   6.484   5.922   1.287
  828W        W 1825   5.809   3.996   1.479
  829W        W 1826   7.228   2.470   6.409
  830W        W 1827   4.126   1.256   2.050
  831W        W 1828   3.501   2.830   6.779
  832W        W 1829   2.738   3.148   1.250
  833W        W 1830   7.410   3.928   6.670
  834W        W 1831   3.465   1.289   1.113
  835W        W 1832   4.909   1.756   0.985
  836W        W 1833   5.882   1.753   4.872
  837W        W 1834   4.156   1.986   6.176
  838W        W 1835   6.837   3.564   2.869
  839W        W 1836   2.329   5.260   6.039
  840W        W 1837   0.005   2.756   5.830
  841W        W 1838   4.609   6.759   4.951
  842W        W 1839   0.556   3.058   3.456
  843W        W 1840   0.955   3.015   3.783
  844W        W 1841   3.422   0.163   5.494
  845W        W 1842   4.771   7.179   3.182
  846W        W 1843   2.666   6.340   6.180
  847W        W 1844   2.782   3.348   6.588
  848W        W 1845   6.647   2.431   4.150
  849W        W 1846   1.802   4.247   2.354
  850W        W 1847   1.521   2.199   3.824
  851W        W 1848   3.732   5.433   7.261
  852W        W 1849   6.008   2.702   1.016
  853W        W 1850   6.178   3.130   6.613
  854W        W 1851   6.859   2.239   1.567
  855W        W 1852   4.861   7.546   6.559
  856W        W 1853   6.044   7.120   1.339
  857W        W 1854   1.329   2.811   2.024
  858W        W 1855   5.127   2.190   1.080
  859W        W 1856   2.069   0.913   0.122
  860W        W 1857   7.957   2.557   3.445
  861W        W 1858   4.954   3.581   5.518
  862W        W 1859   7.142   2.717   2.446
  863W        W 1860   7.525   3.210   4.678
  864W        W 1861   0.940   1.206   5.853
  865W        W 1862   3.108   3.774   0.971
  866W        W 1863   0.396   2.651   3.196
  867W        W 1864   1.346   4.930   7.404
  868W        W 1865   4.688   4.117   6.138
  869W        W 1866   5.541   0.748   6.584
  870W        W 1867   6.861   6.571   1.940
  871W        W 1868   3.768   4.699   1.585
  872W        W 1869   3.750   1.339   5.116
  873W        W 1870   0.712   3.477   6.487
  874W        W 1871   2.526   7.462   0.795
  875W        W 1872   0.900   1.731   5.824
  876W        W 1873   7.052   6.387   2.866
  877W        W 1874   3.926   1.976   6.618
  878W        W 1875   5.157   4.723   6.259
  879W        W 1876   1.757   0.398   1.828
  880W        W 1877   6.199   0.111   6.974
  881W        W 1878   4.611   0.383   5.313
  882W        W 1879   5.137   5.246   5.078
  883W        W 1880   3.400   4.599   1.949
  884W        W 1881   5.849   2.657   1.523
  885W        W 1882   0.275   1.093   2.562
  886W        W 1883   6.622   4.380   2.651
  887W        W 1884   3.218   7.378   4.189
  888W        W 1885   1.802   0.474   0.160
  889W        W 1886   0.260   3.587   6.731
  890W        W 1887   3.292   3.503   5.669
  891W        W 1888   4.536   5.280   4.530
  892W        W 1889   6.047   4.435   1.336
  893W        W 1890   3.181   5.257   4.423
  894W        W 1891   6.721   6.467   6.228
  895W        W 1892   4.398   2.827   3.322
  896W        W 1893   3.064   6.178   4.140
  897W        W 1894   2.867   6.683   6.985
  898W        W 1895   3.635   2.887   1.784
  899W        W 1896   1.963   1.236   5.280
  900W        W 1897   4.063   2.464   3.547
  901W        W 1898   1.601   0.658   0.954
  902W        W 1899   6.503   6.918   1.182
  903W        W 1900   5.081   3.017   1.138
  904W        W 1901   6.429   3.288   7.317
  905W        W 1902   7.681   6.732   6.313
  906W        W 1903   4.662   5.008   7.395
  907W        W 1904   4.582   3.258   5.647
  908W        W 1905   2.899   6.545   3.839
  909W        W 1906   6.136   1.822   0.121
  910W        W 1907   1.409   5.532   6.362
  911W        W 1908   0.430   7.050   3.137
  912W        W 1909   2.227   3.428   2.833
  913W        W 1910   6.137   6.703   5.520
  914W        W 1911   5.536   4.410   6.388
  915W        W 1912   3.893   5.866   6.523
  916W        W 1913   0.322   4.395   3.781
  917W        W 1914   6.751   2.299   2.916
  918W        W 1915   1.609   2.579   6.088
  919W        W 1916   4.592   5.283   6.975
  920W        W 1917   6.942   6.255   3.348
  921W        W 1918   6.881   1.318   1.151
  922W        W 1919   0.399   3.873   6.315
  923W        W 1920   6.543   0.471   7.183
  924W        W 1921   0.488   4.471   5.104
  925W        W 1922   0.673   4.768   5.497
  926W        W 1923   4.531   2.379   7.293
  927W        W 1924   4.441   4.656   3.098
  928W        W 1925   2.681   5.183   0.401
  929W        W 1926   3.250   2.818   3.162
  930W        W 1927   3.552   0.403   2.034
  931W        W 1928   6.815   1.781   4.601
  932W        W 1929   2.449   1.712   3.919
  933W        W 1930   4.919   5.559   1.018
  934W        W 1931   6.899   3.367   4.072
  935W        W 1932   0.470   3.218   1.946
  936W        W 1933   5.561   1.961   4.306
  937W        W 1934   6.573   6.241   3.944
  938W        W 1935   5.654   1.544   5.282
  939W        W 1936   6.336   2.827   1.395
  940W        W 1937   1.411   0.590   1.476
  941W        W 1938   7.845   6.744   3.915
  942W        W 1939   1.647   5.149   5.343
  943W        W 1940   7.146   3.982   1.499
  944W        W 1941   2.418   2.336   3.540
  945W        W 1942   2.657   4.778   5.171
  946W        W 1943   6.723   5.872   3.612
  947W        W 1944   0.142   3.215   1.049
  948W        W 1945   1.333   5.868   1.207
  949W        W 1946   3.760   0.845   4.928
  950W        W 1947   4.133   5.676   6.964
  951W        W 1948   3.199   1.760   3.491
  952W        W 1949   7.417   4.949   0.951
  953W        W 1950   6.069   5.765   2.293
  954W        W 1951   3.005   4.465   4.937
  955W        W 1952   3.250   3.191   6.499
  956W        W 1953   0.364   2.772   1.198
  957W        W 1954   5.536   2.856   0.974
  958W        W 1955   6.780   1.858   3.765
  959W        W 1956   6.063   1.138   0.737
  960W        W 1957   3.579   2.554   2.869
  961W        W 1958   1.383   0.982   4.685
  962W        W 1959   2.720   4.940   3.815
  963W        W 1960   6.184   6.335   4.256
  964W        W 1961   2.438   2.796   1.053
  965W        W 1962   2.950   3.890   2.694
  966W        W 1963   5.568   0.431   7.028
  967W        W 1964   0.742   5.284   0.649
  968W        W 1965   4.446   7.301   5.696
  969W        W 1966   3.165   2.799   4.057
  970W        W 1967   4.630   2.911   2.029
  971W        W 1968   2.286   5.861   1.500
  972W        W 1969   0.664   5.746   2.048
  973W        W 1970   4.473   2.852   5.347
  974W        W 1971   1.915   5.396   0.747
  975W        W 1972   0.447   3.825   0.466
  976W        W 1973   2.013   4.870   6.144
  977W        W 1974   6.860   6.576   1.433
  978W        W 1975   4.780   4.250   3.219
  979W        W 1976   6.273   6.881   4.201
  980W        W 1977   3.163   4.909   5.199
  981W        W 1978   7.019   2.015   2.029
  982W        W 1979   3.211   5.471   3.020
  983W        W 1980   4.989   6.341   0.165
  984W        W 1981   4.223   6.101   3.020
  985W        W 1982   6.233   6.000   7.900
  986W        W 1983   1.023   4.583   3.338
  987W        W 1984   2.067   0.512   3.935
  988W        W 1985   4.943   5.968   4.510
  989W        W 1986   5.390   4.387   0.717
  990W        W 1987   5.655   1.747   1.802
  991W        W 1988   3.257   0.497   0.661
  992W        W 1989   6.103   4.662   3.093
  993W        W 1990   7.629   5.812   6.692
  994W        W 1991   6.195   5.576   1.510
  995W        W 1992   0.201   1.535   0.288
  996W        W 1993   0.901   0.370   7.064
  997W        W 1994   7.432   2.127   4.002
  998W        W 1995   2.667   4.942   6.316
  999W        W 1996   4.769   4.680   3.524
 1000W        W 1997   3.409   6.103   5.625
 1001W        W 1998   1.953   3.309   5.514
 1002W        W 1999   1.752   3.264   4.493
 1003W        W 2000   6.529   2.742   0.915
 1004W        W 2001   2.045   4.634   6.801
 1005W        W 2002   4.824   4.743   1.338
 1006W        W 2003   3.416   2.385   0.401
 1007W        W 2004   5.685   5.497   1.605
 1008W        W 2005   7.690   3.260   1.542
 1009W        W 2006   5.260   2.461   3.706
 1010W        W 2007   6.275   0.557   3.644
 1011W        W 2008   0.416   3.467   0.085
 1012W        W 2009   7.128   3.993   4.876
 1013W        W 2010   2.767   4.165   4.561
 1014W        W 2011   0.927   1.560   4.133
 1015W        W 2012   1.043   3.482   1.587
 1016W        W 2013   3.740   4.832   2.462
 1017W        W 2014   3.684   1.840   3.479
 1018W        W 2015   1.779   3.372   2.563
 1019W        W 2016   4.219   7.505   3.178
 1020W        W 2017   6.818   5.342   4.057
 1021W        W 2018   3.585   3.195   5.119
 1022W        W 2019   3.049   0.730   0.225
 1023W        W 2020   5.102   3.644   4.533
 1024W        W 2021   4.769   0.855   6.975
 1025W        W 2022   0.841   4.224   7.736
 1026W        W 2023   5.224   0.610   2.423
 1027W        W 2024   1.164   4.075   6.803
 1028W        W 2025   4.498   0.578   1.638
 1029W        W 2026   2.463   6.811   7.279
 1030W        W 2027   5.536   5.610   0.314
 1031W        W 2028   3.584   4.672   0.358
 1032W        W 2029   3.431   5.100   1.670
 1033W        W 2030   5.189   2.499   6.420
 1034W        W 2031   4.582   1.382   0.976
 1035W        W 2032   1.327   5.830   7.967
 1036W        W 2033   2.884   6.275   6.656
 1037W        W 2034   0.971   2.734   5.867
 1038W        W 2035   1.980   0.685   0.585
 1039W        W 2036   1.438   1.812   1.999
 1040W        W 2037   1.323   1.997   2.479
 1041W        W 2038   5.860   1.545   2.335
 1042W        W 2039   1.779   0.584   2.683
 1043W        W 2040   6.354   7.134   5.389
 1044W        W 2041   4.719   4.424   2.713
 1045W        W 2042   0.824   3.780   3.389
 1046W        W 2043   5.355   6.600   6.731
 1047W        W 2044   5.851   1.794   6.121
 1048W        W 2045   7.573   2.459   3.133
 1049W        W 2046   5.699   1.799   3.605
 1050W        W 2047   1.654   2.651   6.631
 1051W        W 2048   0.364   4.024   4.850
 1052W        W 2049   5.747   3.670   3.237
 1053W        W 2050   0.420   1.849   5.708
 1054W        W 2051   0.491   4.585   3.336
 1055W        W 2052   3.680   3.170   5.687
 1056W        W 2053   0.676   3.443   3.762
 1057W        W 2054   5.213   6.358   5.430
 1058W        W 2055   1.419   1.761   5.883
 1059W        W 2056   5.356   4.977   3.160
 1060W        W 2057   4.843   0.095   5.668
 1061W        W 2058   0.928   4.603   0.112
 1062W        W 2059   4.632   0.760   4.908
 1063W        W 2060   0.444   2.250   5.328
 1064W        W 2061   2.391   7.681   0.333
 1065W        W 2062   5.240   1.998   1.948
 1066W        W 2063   6.696   3.813   1.705
 1067W        W 2064   3.125   2.264   3.985
 1068W        W 2065   1.338   6.665   3.046
 1069W        W 2066   0.192   1.129   0.598
 1070W        W 2067   4.601   2.349   0.844
 1071W        W 2068   7.889   1.207   0.029
 1072W        W 2069   1.319   3.066   1.451
 1073W        W 2070   1.289   5.022   1.734
 1074W        W 2071   0.375   4.940   1.424
 1075W        W 2072   2.457   5.229   5.043
 1076W        W 2073   3.210   7.533   2.305
 1077W        W 2074   6.272   1.006   3.916
 1078W        W 2075   5.977   1.808   4.027
 1079W        W 2076   1.482   3.141   6.595
 1080W        W 2077   2.981   3.422   0.605
 1081W        W 2078   5.877   2.340   2.649
 1082W        W 2079   0.664   7.401   4.145
 1083W        W 2080   0.865   3.781   5.641
 1084W        W 2081   1.362   2.023   4.637
 1085W        W 2082   6.255   1.848   1.043
 1086W        W 2083   2.353   1.479   5.624
 1087W        W 2084   7.553   1.227   3.174
 1088W        W 2085   4.864   6.060   2.487
 1089W        W 2086   7.472   7.028   7.284
 1090W        W 2087   0.300   6.128   0.474
 1091W        W 2088   7.119   3.693   5.794
 1092W        W 2089   6.930   0.612   3.243
 1093W        W 2090   6.844   4.417   7.376
 1094W        W 2091   1.647   2.083   2.860
 1095W        W 2092   3.156   5.371   0.502
 1096W        W 2093   1.172   5.698   3.392
 1097W        W 2094   6.147   4.420   5.086
 1098W        W 2095   3.814   0.530   5.476
 1099W        W 2096   2.410   0.988   7.504
 1100W        W 2097   6.000   3.352   7.040
 1101W        W 2098   7.099   2.502   5.078
 1102W        W 2099   6.838   7.324   7.201
 1103W        W 2100   2.292   0.374   0.304
 1104W        W 2101   0.550   6.210   1.589
 1105W        W 2102   5.909   3.014   4.266
 1106W        W 2103   3.741   1.126   7.371
 1107W        W 2104   3.471   0.238   2.521
 1108W        W 2105   6.342   4.856   4.246
 1109W        W 2106   3.572   6.357   3.586
 1110W        W 2107   0.568   1.716   1.738
 1111W        W 2108   5.508   1.406   2.704
 1112W        W 2109   6.171   2.419   7.470
 1113W        W 2110   2.921   6.236   2.546
 1114W        W 2111   3.624   5.570   0.605
 1115W        W 2112   6.562   2.437   0.416
 1116W        W 2113   3.347   6.638   6.845
 1117W        W 2114   7.107   6.715   4.416
 1118W        W 2115   7.237   2.275   5.925
 1119W        W 2116   4.865   3.472   6.049
 1120W        W 2117   3.397   1.471   6.061
 1121W        W 2118   4.010   7.208   4.467
 1122W        W 2119   4.654   6.341   4.655
 1123W        W 2120   0.438   3.098   6.669
 1124W        W 2121   4.174   2.086   5.655
 1125W        W 2122   3.187   6.817   1.714
 1126W        W 2123   3.099   2.672   4.554
 1127W        W 2124   0.112   4.812   5.156
 1128W        W 2125   7.882   4.213   0.625
 1129W        W 2126   5.917   1.355   3.750
 1130W        W 2127   3.680   5.536   1.904
 1131W        W 2128   3.507   2.735   2.393
 1132W        W 2129   2.694   2.991   4.746
 1133W        W 2130   3.456   4.679   6.396
 1134W        W 2131   2.615   2.173   3.972
 1135W        W 2132   5.321   2.476   7.483
 1136W        W 2133   6.716   5.562   5.264
 1137W        W 2134   3.413   5.896   3.237
 1138W        W 2135   5.070   5.491   6.072
 1139W        W 2136   6.957   5.860   5.579
 1140W        W 2137   6.121   1.599   0.567
 1141W        W 2138   0.399   6.189   4.152
 1142W        W 2139   7.117   3.044   4.393
 1143W        W 2140   4.374   4.731   5.506
 1144W        W 2141   5.371   0.913   3.231
 1145W        W 2142   4.400   5.015   6.494
 1146W        W 2143   3.475   0.944   5.334
 1147W        W 2144   6.580   2.403   5.154
 1148W        W 2145   3.525   3.117   3.633
 1149W        W 2146   6.209   4.104   2.602
 1150W        W 2147   4.062   7.594   5.868
 1151W        W 2148   0.805   0.980   3.456
 1152W        W 2149   0.953   2.414   6.253
 1153W        W 2150   1.336   6.041   6.339
 1154W        W 2151   0.994   5.504   4.246
 1155W        W 2152   2.472   4.154   1.436
 1156W        W 2153   5.983   4.555   5.584
 1157W        W 2154   4.077   7.221   3.958
 1158W        W 2155   4.429   1.853   3.490
 1159W        W 2156   7.449   1.943   3.090
 1160W        W 2157   0.376   3.970   4.339
 1161W        W 2158   3.218   3.059   5.446
 1162W        W 2159   6.239   3.923   5.202
 1163W        W 2160   0.856   4.127   4.971
 1164W        W 2161   0.564   1.932   6.179
 1165W        W 2162   1.698   2.547   1.089
 1166W        W 2163   3.861   2.957   2.766
 1167W        W 2164   7.635   4.710   1.671
 1168W        W 2165   0.689   6.164   3.185
 1169W        W 2166   3.774   6.491   5.454
 1170W        W 2167   6.100   4.674   7.278
 1171W        W 2168   1.630   1.883   5.059
 1172W        W 2169   4.311   2.487   1.250
 1173W        W 2170   1.720   1.261   4.408
 1174W        W 2171   6.873   5.696   1.049
 1175W        W 2172   3.771   0.301   1.218
 1176W        W 2173   7.557   5.146   1.439
 1177W        W 2174   5.611   2.210   4.741
 1178W        W 2175   5.414   6.795   6.252
 1179W        W 2176   4.573   2.407   5.575
 1180W        W 2177   0.478   6.703   2.080
 1181W        W 2178   1.107   5.684   2.383
 1182W        W 2179   2.374   7.384   7.278
 1183W        W 2180   1.112   6.149   7.160
 1184W        W 2181   1.192   4.565   6.672
 1185W        W 2182   6.149   5.077   1.597
 1186W        W 2183   4.274   0.178   1.381
 1187W        W 2184   6.941   4.969   7.195
 1188W        W 2185   4.030   3.865   2.708
 1189W        W 2186   6.794   4.449   5.806
 1190W        W 2187   7.059   6.099   2.401
 1191W        W 2188   3.047   6.249   0.833
 1192W        W 2189   5.731   5.415   7.853
 1193W        W 2190   1.194   2.643   1.037
 1194W        W 2191   6.544   2.955   6.275
 1195W        W 2192   2.143   7.241   0.477
 1196W        W 2193   2.663   6.574   1.013
 1197W        W 2194   4.111   6.980   2.016
 1198W        W 2195   6.038   5.393   1.972
 1199W        W 2196   1.555   2.473   2.486
 1200W        W 2197   2.564   5.876   2.498
 1201W        W 2198   2.728   7.621   1.251
 1202W        W 2199   3.772   2.700   5.883
 1203W        W 2200   6.333   2.838   3.997
 1204W        W 2201   2.207   3.760   1.583
 1205W        W 2202   7.810   1.187   2.748
 1206W        W 2203   1.683   0.020   6.447
 1207W        W 2204   2.127   4.362   7.681
 1208W        W 2205   2.474   4.718   5.911
 1209W        W 2206   3.701   0.666   1.599
 1210W        W 2207   4.287   4.323   5.198
 1211W        W 2208   5.631   5.788   2.594
 1212W        W 2209   1.068   5.781   2.897
 1213W        W 2210   2.667   3.841   0.711
 1214W        W 2211   2.986   0.964   2.343
 1215W        W 2212   3.971   5.905   4.346
 1216W        W 2213   3.742   2.796   3.302
 1217W        W 2214   7.681   6.309   1.148
 1218W        W 2215   0.725   5.027   3.448
 1219W        W 2216   4.469   2.125   2.277
 1220W        W 2217   5.545   2.214   1.604
 1221W        W 2218   3.717   0.662   3.464
 1222W        W 2219   3.484   2.772   6.285
 1223W        W 2220   2.053   6.844   4.508
 1224W        W 2221   4.290   2.633   0.510
 1225W        W 2222   0.385   3.860   3.833
 1226W        W 2223   4.688   1.827   4.483
 1227W        W 2224   6.874   2.295   2.431
 1228W        W 2225   6.254   5.097   2.812
 1229W        W 2226   3.837   5.329   1.013
 1230W        W 2227   5.609   0.739   7.480
 1231W        W 2228   1.070   0.932   3.027
 1232W        W 2229   7.966   5.064   6.147
 1233W        W 2230   2.008   3.642   7.179
 1234W        W 2231   4.818   6.197   1.976
 1235W        W 2232   0.837   3.239   7.925
 1236W        W 2233   6.128   6.050   0.419
 1237W        W 2234   2.089   4.723   4.690
 1238W        W 2235   5.805   2.597   3.088
 1239W        W 2236   1.998   7.361   1.219
 1240W        W 2237   2.122   5.817   1.013
 1241W        W 2238   0.745   0.871   2.637
 1242W        W 2239   3.668   4.153   5.525
 1243W        W 2240   6.710   3.897   5.566
 1244W        W 2241   3.598   1.365   5.607
 1245W        W 2242   6.326   0.636   7.617
 1246W        W 2243   1.449   2.294   6.972
 1247W        W 2244   0.118   6.683   2.940
 1248W        W 2245   6.980   4.087   2.034
 1249W        W 2246   5.922   5.366   2.555
 1250W        W 2247   6.060   3.620   1.229
 1251W        W 2248   4.039   0.963   6.253
 1252W        W 2249   3.338   4.645   2.744
 1253W        W 2250   5.070   5.303   5.586
 1254W        W 2251   3.155   1.929   2.562
 1255W        W 2252   2.206   6.318   2.027
 1256W        W 2253   4.854   2.230   2.663
 1257W        W 2254   5.777   4.599   6.829
 1258W        W 2255   4.888   6.770   4.506
 1259W        W 2256   3.396   2.521   0.893
 1260W        W 2257   1.406   7.703   7.195
 1261W        W 2258   4.569   5.332   5.049
 1262W        W 2259   2.245   0.767   4.759
 1263W        W 2260   0.824   6.245   0.587
 1264W        W 2261   5.791   6.762   4.144
 1265W        W 2262   1.061   3.113   2.840
 1266W        W 2263   3.435   4.156   5.012
 1267W        W 2264   1.397   3.286   1.898
 1268W        W 2265   3.521   1.872   0.282
 1269W        W 2266   0.373   5.358   3.582
 1270W        W 2267   0.167   0.865   1.794
 1271W        W 2268   4.466   7.778   5.462
 1272W        W 2269   5.221   4.824   2.659
 1273W        W 2270   5.761   7.350   2.888
 1274W        W 2271   0.994   5.047   4.046
 1275W        W 2272   7.037   4.934   5.831
 1276W        W 2273   1.492   0.309   2.311
 1277W        W 2274   4.838   5.093   3.885
 1278W        W 2275   4.239   6.803   3.728
 1279W        W 2276   6.483   2.149   2.137
 1280W        W 2277   2.627   2.941   6.839
 1281W        W 2278   6.723   1.088   3.229
 1282W        W 2279   4.861   1.357   6.322
 1283W        W 2280   4.098   7.067   1.465
 1284W        W 2281   4.883   7.189   2.681
 1285W        W 2282   0.068   2.139   5.009
 1286W        W 2283   5.257   0.007   6.960
 1287W        W 2284   2.829   2.766   5.714
 1288W        W 2285   5.173   0.933   0.508
 1289W        W 2286   3.096   1.604   7.037
 1290W        W 2287   1.934   4.948   0.450
 1291W        W 2288   5.782   0.894   7.024
 1292W        W 2289   5.184   3.101   0.640
 1293W        W 2290   5.770   1.083   4.160
 1294W        W 2291   5.148   5.663   3.777
 1295W        W 2292   6.132   4.815   3.755
 1296W        W 2293   5.978   3.611   6.071
 1297W        W 2294   7.458   2.107   7.110
 1298W        W 2295   1.232   5.109   4.488
 1299W        W 2296   7.738   1.635   6.307
 1300W        W 2297   3.847   7.381   1.751
 1301W        W 2298   6.785   7.001   5.162
 1302W        W 2299   1.507   2.612   1.549
 1303W        W 2300   3.782   0.590   6.494
 1304W        W 2301   7.936   4.401   1.976
 1305W        W 2302   2.279   2.273   7.104
 1306W        W 2303   1.219   3.973   5.326
 1307W        W 2304   4.104   2.008   1.296
 1308W        W 2305   2.433   6.385   2.479
 1309W        W 2306   3.038   1.954   6.654
 1310W        W 2307   1.915   3.956   1.950
 1311W        W 2308   1.145   6.614   6.886
 1312W        W 2309   3.662   3.063   0.944
 1313W        W 2310   5.096   5.610   2.332
 1314W        W 2311   5.467   0.912   6.126
 1315W        W 2312   2.265   1.409   2.405
 1316W        W 2313   3.907   6.273   2.621
 1317W        W 2314   3.798   6.376   4.434
 1318W        W 2315   4.969   6.892   3.995
 1319W        W 2316   2.212   6.640   6.200
 1320W        W 2317   7.781   7.179   6.043
 1321W        W 2318   6.166   6.589   0.567
 1322W        W 2319   6.599   4.765   2.979
 1323W        W 2320   2.125   3.510   4.688
 1324W        W 2321   5.982   6.362   1.898
 1325W        W 2322   2.125   4.689   7.298
 1326W        W 2323   6.057   5.340   3.674
 1327W        W 2324   2.798   5.618   4.982
 1328W        W 2325   1.486   6.099   2.730
 1329W        W 2326   5.182   4.312   2.447
 1330W        W 2327   3.693   6.135   0.630
 1331W        W 2328   4.872   2.261   5.181
 1332W        W 2329   6.535   2.214   4.627
 1333W        W 2330   0.724   1.383   1.361
 1334W        W 2331   5.566   2.770   7.850
 1335W        W 2332   1.352   3.467   0.738
 1336W        W 2333   6.298   1.133   2.908
 1337W        W 2334   4.822   4.451   5.365
 1338W        W 2335   7.786   5.832   1.332
 1339W        W 2336   6.830   1.342   3.701
 1340W        W 2337   3.778   2.030   1.729
 1341W        W 2338   6.945   5.489   3.193
 1342W        W 2339   3.949   6.326   6.724
 1343W        W 2340   1.797   5.710   1.387
 1344W        W 2341   7.738   2.739   1.522
 1345W        W 2342   1.308   5.616   4.613
 1346W        W 2343   5.696   4.930   6.448
 1347W        W 2344   7.840   3.149   4.250
 1348W        W 2345   4.368   6.710   1.232
 1349W        W 2346   7.006   6.294   7.021
 1350W        W 2347   2.750   2.997   5.264
 1351W        W 2348   0.219   4.469   4.288
 1352W        W 2349   0.673   5.747   3.466
 1353W        W 2350   1.231   5.007   3.557
 1354W        W 2351   6.738   6.197   7.840
 1355W        W 2352   0.195   5.908   6.003
 1356W        W 2353   1.533   0.870   0.430
 1357W        W 2354   5.995   4.077   0.988
 1358W        W 2355   3.461   3.794   7.377
 1359W        W 2356   0.694   3.881   6.801
 1360W        W 2357   1.285   3.216   2.374
 1361W        W 2358   1.946   1.184   7.641
 1362W        W 2359   2.888   4.317   3.641
 1363W        W 2360   4.498   2.311   3.279
 1364W        W 2361   1.613   0.858   7.391
 1365W        W 2362   5.436   6.147   0.324
 1366W        W 2363   5.837   4.553   2.155
 1367W        W 2364   2.224   2.639   6.760
 1368W        W 2365   5.435   7.261   5.748
 1369W        W 2366   3.917   6.101   5.752
 1370W        W 2367   5.432   7.105   3.951
 1371W        W 2368   2.061   6.486   7.276
 1372W        W 2369   5.904   3.130   1.260
 1373W        W 2370   3.235   3.046   5.953
 1374W        W 2371   6.998   4.534   7.869
 1375W        W 2372   6.354   4.457   2.213
 1376W        W 2373   5.721   1.364   1.461
 1377W        W 2374   0.714   0.743   7.395
 1378W        W 2375   4.146   5.795   6.087
 1379W        W 2376   3.934   2.157   5.204
 1380W        W 2377   0.369   6.637   3.888
 1381W        W 2378   6.170   3.313   2.742
 1382W        W 2379   6.635   3.779   7.235
 1383W        W 2380   4.452   2.851   6.426
 1384W        W 2381   3.314   0.723   6.746
 1385W        W 2382   6.848   0.776   0.436
 1386W        W 2383   3.619   2.244   3.820
 1387W        W 2384   7.993   6.201   6.992
 1388W        W 2385   5.429   1.271   5.778
 1389W        W 2386   3.435   0.166   6.025
 1390W        W 2387   4.925   1.408   4.652
 1391W        W 2388   1.715   4.059   5.854
 1392W        W 2389   4.088   2.552   3.027
 1393W        W 2390   6.736   0.324   3.698
 1394W        W 2391   1.173   3.286   7.238
 1395W        W 2392   2.602   5.578   1.218
 1396W        W 2393   6.087   6.031   3.833
 1397W        W 2394   1.972   4.062   4.206
 1398W        W 2395   0.218   2.132   6.550
 1399W        W 2396   3.794   7.357   4.915
 1400W        W 2397   1.871   2.968   6.303
 1401W        W 2398   6.847   5.008   3.358
 1402W        W 2399   5.168   1.814   2.833
 1403W        W 2400   1.719   1.520   1.136
 1404W        W 2401   3.352   5.151   2.654
 1405W        W 2402   7.042   4.596   6.227
 1406W        W 2403   0.496   6.123   6.882
 1407W        W 2404   2.086   5.881   5.330
 1408W        W 2405   0.661   1.357   2.386
 1409W        W 2406   0.409   3.683   2.169
 1410W        W 2407   0.854   6.520   3.839
 1411W        W 2408   5.908   4.613   4.160
 1412W        W 2409   7.270   2.521   1.565
 1413W        W 2410   1.127   1.089   0.010
 1414W        W 2411   1.064   4.197   4.499
 1415W        W 2412   6.508   7.468   2.264
 1416W        W 2413   3.606   1.003   5.976
 1417W        W 2414   5.868   3.123   0.715
 1418W        W 2415   0.908   2.999   5.443
 1419W        W 2416   3.930   1.080   3.271
 1420W        W 2417   3.346   1.117   2.682
 1421W        W 2418   3.497   0.207   3.454
 1422W        W 2419   5.283   3.933   3.232
 1423W        W 2420   1.569   1.268   5.873
 1424W        W 2421   5.519   2.135   6.320
 1425W        W 2422   7.123   4.169   3.487
 1426W        W 2423   1.938   5.527   2.204
 1427W        W 2424   5.138   0.674   7.303
 1428W        W 2425   2.821   0.861   0.722
 1429W        W 2426   7.309   6.963   6.038
 1430W        W 2427   7.165   7.004   6.536
 1431W        W 2428   4.071   7.624   2.180
 1432W        W 2429   5.874   6.313   6.082
 1433W        W 2430   4.449   5.337   6.073
 1434W        W 2431   7.512   3.158   7.032
 1435W        W 2432   0.900   0.830   4.764
 1436W        W 2433   2.614   4.086   4.023
 1437W        W 2434   3.245   5.912   0.481
 1438W        W 2435   6.567   2.661   2.244
 1439W        W 2436   5.694   6.448   0.634
 1440W        W 2437   1.002   4.989   5.819
 1441W        W 2438   5.060   5.868   6.523
 1442W        W 2439   5.562   5.478   5.744
 1443W        W 2440   6.362   7.039   3.713
 1444W        W 2441   6.985   1.872   7.087
 1445W        W 2442   7.613   1.330   7.583
 1446W        W 2443   4.892   1.386   1.383
 1447W        W 2444   2.941   2.537   0.557
 1448W        W 2445   4.859   0.308   3.328
 1449W        W 2446   7.461   3.769   6.186
 1450W        W 2447   1.151   1.946   6.736
 1451W        W 2448   1.636   5.826   0.801
 1452W        W 2449   4.208   7.059   4.938
 1453W        W 2450   2.126   1.285   2.857
 1454W        W 2451   4.206   0.923   2.438
 1455W        W 2452   4.634   5.737   6.786
 1456W        W 2453   7.270   6.772   1.712
 1457W        W 2454   5.721   5.926   0.675
 1458W        W 2455   7.592   4.006   3.303
 1459W        W 2456   1.485   0.045   1.541
 1460W        W 2457   6.230   5.754   3.430
 1461W        W 2458   2.682   3.697   1.243
 1462W        W 2459   1.724   3.537   3.524
 1463W        W 2460   7.180   0.776   1.662
 1464W        W 2461   4.594   7.250   4.051
 1465W        W 2462   7.219   1.677   1.245
 1466W        W 2463   7.903   2.598   1.013
 1467W        W 2464   7.590   3.743   1.537
 1468W        W 2465   7.088   1.336   4.448
 1469W        W 2466   4.028   1.901   0.487
 1470W        W 2467   4.120   5.599   2.158
 1471W        W 2468   0.715   4.456   0.732
 1472W        W 2469   0.780   1.082   0.884
 1473W        W 2470   7.399   2.319   2.270
 1474W        W 2471   2.802   4.452   6.262
 1475W        W 2472   3.412   1.189   6.976
 1476W        W 2473   5.921   2.043   3.083
 1477W        W 2474   7.506   6.640   3.009
 1478W        W 2475   4.451   5.082   3.582
 1479W        W 2476   6.078   0.619   2.707
 1480W        W 2477   4.693   3.163   7.053
 1481W        W 2478   5.386   0.223   2.741
 1482W        W 2479   0.518   1.430   6.041
 1483W        W 2480   6.548   3.916   6.549
 1484W        W 2481   3.013   3.026   3.560
 1485W        W 2482   2.895   0.443   1.007
 1486W        W 2483   5.390   5.077   5.972
 1487W        W 2484   0.360   6.241   2.794
 1488W        W 2485   3.033   0.169   2.880
 1489W        W 2486   3.573   4.948   4.409
 1490W        W 2487   3.026   4.750   2.356
 1491W        W 2488   6.724   1.867   1.190
 1492W        W 2489   7.621   6.758   4.374
 1493W        W 2490   2.038   2.573   2.437
 1494W        W 2491   6.513   0.433   2.476
 1495W        W 2492   5.209   2.978   3.685
 1496W        W 2493   2.635   5.431   6.415
 1497W        W 2494   3.532   5.087   6.080
 1498W        W 2495   7.444   3.763   3.734
 1499W        W 2496   3.112   2.113   0.774
 1500W        W 2497   2.527   0.104   6.552
 1501W        W 2498   7.076   2.924   6.314
 1502W        W 2499   2.698   1.484   1.526
 1503W        W 2500   0.660   4.931   2.489
 1504W        W 2501   0.662   1.531   7.410
 1505W        W 2502   7.113   5.257   6.795
 1506W        W 2503   2.316   0.546   3.355
 1507W        W 2504   7.527   2.740   6.073
 1508W        W 2505   7.246   5.618   6.428
 1509W        W 2506   0.115   6.373   1.934
 1510W        W 2507   6.336   7.089   4.888
 1511W        W 2508   3.640   4.108   2.116
 1512W        W 2509   7.179   1.532   1.960
 1513W        W 2510   0.749   6.903   4.130
 1514W        W 2511   1.490   5.405   4.170
 1515W        W 2512   3.265   1.754   1.083
 1516W        W 2513   3.455   4.601   0.859
 1517W        W 2514   4.733   2.376   6.793
 1518W        W 2515   0.779   4.249   5.479
 1519W        W 2516   4.966   2.641   4.501
 1520W        W 2517   5.998   2.091   6.511
 1521W        W 2518   4.502   6.246   7.469
 1522W        W 2519   6.591   1.272   4.599
 1523W        W 2520   0.705   6.274   5.190
 1524W        W 2521   1.837   0.357   1.326
 1525W        W 2522   0.333   4.851   4.664
 1526W        W 2523   5.457   3.827   6.519
 1527W        W 2524   0.078   4.439   4.783
 1528W        W 2525   2.505   1.051   2.165
 1529W        W 2526   3.005   3.241   3.042
 1530W        W 2527   5.452   2.104   5.830
 1531W        W 2528   0.792   1.582   6.479
 1532W        W 2529   2.360   2.774   5.994
 1533W        W 2530   4.527   7.502   2.401
 1534W        W 2531   4.222   4.402   6.362
 1535W        W 2532   3.096   2.619   5.231
 1536W        W 2533   5.420   6.224   5.865
 1537W        W 2534   6.707   4.583   1.361
 1538W        W 2535   5.617   4.846   7.253
 1539W        W 2536   6.920   4.727   0.922
 1540W        W 2537   1.880   5.238   5.797
 1541W        W 2538   3.522   1.795   5.068
 1542W        W 2539   4.091   0.005   6.191
 1543W        W 2540   1.339   0.761   2.515
 1544W        W 2541   7.249   1.465   7.237
 1545W        W 2542   5.225   4.391   3.472
 1546W        W 2543   6.654   1.192   2.106
 1547W        W 2544   1.220   4.444   7.180
 1548W        W 2545   1.948   0.307   7.315
 1549W        W 2546   3.072   5.081   0.059
 1550W        W 2547   1.988   4.756   5.657
 1551W        W 2548   5.572   2.359   0.892
 1552W        W 2549   4.384   4.806   4.990
 1553W        W 2550   2.784   2.115   6.254
 1554W        W 2551   2.387   3.835   4.389
 1555W        W 2552   1.109   1.284   3.760
 1556W        W 2553   7.027   7.787   2.839
 1557W        W 2554   3.446   0.979   3.162
 1558W        W 2555   5.517   5.175   6.884
 1559W        W 2556   1.988   2.846   0.773
 1560W        W 2557   2.941   5.371   3.983
 1561W        W 2558   1.255   5.535   5.301
 1562W        W 2559   5.792   2.394   5.595
 1563W        W 2560   0.186   4.605   0.847
 1564W        W 2561   2.329   5.151   4.552
 1565W        W 2562   2.257   0.643   2.004
 1566W        W 2563   1.860   6.837   0.588
 1567W        W 2564   2.092   6.101   3.408
 1568W        W 2565   1.522   6.069   1.623
 1569W        W 2566   6.563   4.866   2.473
 1570W        W 2567   1.955   0.857   3.063
 1571W        W 2568   0.952   6.555   3.355
 1572W        W 2569   6.273   0.131   7.475
 1573W        W 2570   2.790   2.616   3.793
 1574W        W 2571   3.694   7.545   4.025
 1575W        W 2572   3.258   6.781   3.542
 1576W        W 2573   0.495   1.008   6.361
 1577W        W 2574   1.813   2.097   2.280
 1578W        W 2575   3.860   1.467   0.257
 1579W        W 2576   4.258   4.735   7.585
 1580W        W 2577   1.621   6.196   7.272
 1581W        W 2578   4.114   3.453   5.743
 1582W        W 2579   7.348   1.345   0.876
 1583W        W 2580   5.607   1.241   4.865
 1584W        W 2581   6.741   2.253   0.872
 1585W        W 2582   1.106   2.557   6.720
 1586W        W 2583   0.447   1.333   6.756
 1587W        W 2584   4.084   4.412   3.969
 1588W        W 2585   5.991   3.093   3.750
 1589W        W 2586   6.894   4.529   3.829
 1590W        W 2587   6.915   3.329   7.099
 1591W        W 2588   1.345   3.952   0.948
 1592W        W 2589   4.001   2.486   2.527
 1593W        W 2590   4.786   6.112   5.530
 1594W        W 2591   3.522   3.303   1.435
 1595W        W 2592   3.984   1.010   5.417
 1596W        W 2593   2.548   3.847   0.220
 1597W        W 2594   3.130   6.716   1.222
 1598W        W 2595   1.416   2.879   7.031
 1599W        W 2596   5.468   2.808   4.616
 1600W        W 2597   3.570   1.281   4.276
 1601W        W 2598   2.453   6.967   4.823
 1602W        W 2599   7.126   3.222   3.151
 1603W        W 2600   1.372   1.703   3.864
 1604W        W 2601   5.005   1.083   0.994
 1605W        W 2602   4.083   2.551   5.507
 1606W        W 2603   1.202   0.791   5.713
 1607W        W 2604   6.153   6.165   5.641
 1608W        W 2605   5.477   6.436   1.857
 1609W        W 2606   1.904   2.493   3.635
 1610W        W 2607   4.428   2.771   3.846
 1611W        W 2608   2.916   1.612   6.205
 1612W        W 2609   4.538   1.183   6.678
 1613W        W 2610   0.659   0.837   6.862
 1614W        W 2611   2.754   5.028   4.313
 1615W        W 2612   5.245   6.373   4.527
 1616W        W 2613   7.978   3.655   0.297
 1617W        W 2614   3.781   5.629   3.979
 1618W        W 2615   1.678   7.285   0.830
 1619W        W 2616   1.283   1.782   0.970
 1620W        W 2617   3.282   3.885   5.997
 1621W        W 2618   7.690   2.105   2.653
 1622W        W 2619   0.735   2.597   5.067
 1623W        W 2620   2.537   6.050   5.134
 1624W        W 2621   1.729   5.224   6.664
 1625W        W 2622   3.255   2.946   0.631
 1626W        W 2623   5.516   7.802   3.013
 1627W        W 2624   4.238   5.318   7.368
 1628W        W 2625   2.696   3.264   2.632
 1629W        W 2626   2.166   7.156   5.324
 1630W        W 2627   0.713   2.638   0.848
 1631W        W 2628   4.372   4.807   6.019
 1632W        W 2629   6.851   2.860   3.977
 1633W        W 2630   7.709   1.645   1.145
 1634W        W 2631   2.385   2.148   6.611
 1635W        W 2632   0.662   3.964   2.491
 1636W        W 2633   5.324   4.346   5.409
 1637W        W 2634   7.344   0.991   0.494
 1638W        W 2635   3.951   7.971   3.260
 1639W        W 2636   4.272   7.177   0.977
 1640W        W 2637   5.440   6.083   7.338
 1641W        W 2638   4.908   4.791   3.057
 1642W        W 2639   2.261   6.288   1.150
 1643W        W 2640   2.848   5.250   5.368
 1644W        W 2641   0.680   3.002   0.394
 1645W        W 2642   2.889   4.857   2.846
 1646W        W 2643   2.234   3.256   1.821
 1647W        W 2644   5.748   1.320   6.215
 1648W        W 2645   7.209   6.551   6.314
 1649W        W 2646   4.178   6.697   2.470
 1650W        W 2647   3.981   2.018   2.212
 1651W        W 2648   0.967   0.383   1.352
 1652W        W 2649   4.810   4.545   5.899
 1653W        W 2650   5.035   2.326   1.624
 1654W        W 2651   4.569   6.449   3.258
 1655W        W 2652   2.012   3.538   4.156
 1656W        W 2653   1.367   0.232   7.288
 1657W        W 2654   2.247   7.870   7.491
 1658W        W 2655   0.970   3.056   6.712
 1659W        W 2656   2.948   3.969   5.043
 1660W        W 2657   4.320   0.466   2.211
 1661W        W 2658   1.034   6.000   4.467
 1662W        W 2659   6.295   1.965   7.672
 1663W        W 2660   5.827   7.146   2.288
 1664W        W 2661   3.817   6.629   0.552
 1665W        W 2662   4.694   0.700   0.884
 1666W        W 2663   2.473   3.854   7.143
 1667W        W 2664   2.134   4.338   5.936
 1668W        W 2665   4.161   4.016   6.045
 1669W        W 2666   4.671   2.135   1.320
 1670W        W 2667   2.948   1.782   3.932
 1671W        W 2668   1.466   4.195   1.964
 1672W        W 2669   1.351   3.099   5.847
 1673W        W 2670   1.343   0.682   1.988
 1674W        W 2671   0.523   0.834   2.171
 1675W        W 2672   2.258   4.996   3.667
 1676W        W 2673   5.057   3.593   0.948
 1677W        W 2674   3.973   6.345   3.921
 1678W        W 2675   4.192   3.331   4.491
 1679W        W 2676   4.166   2.926   1.815
 1680W        W 2677   3.417   7.167   4.638
 1681W        W 2678   4.291   4.280   1.002
 1682W        W 2679   0.819   6.433   4.342
 1683W        W 2680   4.866   4.948   6.704
 1684W        W 2681   6.033   2.077   4.458
 1685W        W 2682   0.535   2.738   1.690
 1686W        W 2683   4.413   5.033   1.405
 1687W        W 2684   2.260   6.534   0.690
 1688W        W 2685   2.453   5.566   0.716
 1689W        W 2686   1.509   4.253   4.198
 1690W        W 2687   0.855   3.652   5.119
 1691W        W 2688   2.081   5.382   5.348
 1692W        W 2689   5.924   4.141   3.052
 1693W        W 2690   4.716   1.667   0.506
 1694W        W 2691   0.740   5.979   2.543
 1695W        W 2692   4.624   5.774   6.245
 1696W        W 2693   4.346   1.384   6.259
 1697W        W 2694   0.678   6.025   5.909
 1698W        W 2695   6.640   7.262   4.071
 1699W        W 2696   5.953   7.207   5.687
 1700W        W 2697   3.908   4.539   2.064
 1701W        W 2698   5.583   0.697   2.812
 1702W        W 2699   5.822   2.120   5.192
 1703W        W 2700   3.818   0.971   2.783
 1704W        W 2701   7.475   1.443   3.627
 1705W        W 2702   2.317   5.086   0.777
 1706W        W 2703   1.581   7.868   0.701
 1707W        W 2704   4.474   5.800   4.399
 1708W        W 2705   1.453   1.315   7.665
 1709W        W 2706   1.725   7.920   7.549
 1710W        W 2707   5.637   2.894   7.357
 1711W        W 2708   3.902   3.095   6.152
 1712W        W 2709   2.499   6.309   1.612
 1713W        W 2710   4.973   2.110   0.574
 1714W        W 2711   3.685   1.566   6.785
 1715W        W 2712   6.830   6.561   2.449
 1716W        W 2713   3.124   2.324   1.258
 1717W        W 2714   3.111   6.149   3.583
 1718W        W 2715   3.506   3.914   6.863
 1719W        W 2716   3.597   2.919   0.226
 1720W        W 2717   4.831   6.676   6.754
 1721W        W 2718   3.705   6.855   2.369
 1722W        W 2719   7.585   4.260   1.466
 1723W        W 2720   1.756   1.572   7.323
 1724W        W 2721   6.659   4.836   7.601
 1725W        W 2722   1.267   4.544   7.718
 1726W        W 2723   0.966   6.350   6.181
 1727W        W 2724   1.936   1.658   5.904
 1728W        W 2725   2.414   4.570   2.900
 1729W        W 2726   6.336   3.312   1.518
 1730W        W 2727   2.496   3.585   3.967
 1731W        W 2728   5.664   6.480   7.128
 1732W        W 2729   4.177   2.169   4.707
 1733W        W 2730   3.504   3.871   2.545
 1734W        W 2731   7.446   2.302   0.703
 1735W        W 2732   7.308   5.926   1.154
 1736W        W 2733   5.060   3.110   5.717
 1737W        W 2734   6.309   3.214   0.990
 1738W        W 2735   0.781   2.604   3.556
 1739W        W 2736   6.028   1.758   1.474
 1740W        W 2737   2.748   1.534   6.664
 1741W        W 2738   6.715   0.318   7.686
 1742W        W 2739   7.284   4.256   4.475
 1743W        W 2740   3.297   6.484   5.269
 1744W        W 2741   3.152   1.552   4.342
 1745W        W 2742   1.776   6.408   3.139
 1746W        W 2743   4.472   2.274   3.809
 1747W        W 2744   4.716   0.269   6.119
 1748W        W 2745   2.732   2.004   4.840
 1749W        W 2746   3.539   4.968   1.207
 1750W        W 2747   0.322   3.348   0.570
 1751W        W 2748   1.595   0.882   7.908
 1752W        W 2749   6.600   4.949   3.823
 1753W        W 2750   2.290   6.245   6.510
 1754W        W 2751   3.847   5.047   1.972
 1755W        W 2752   6.632   1.836   5.468
 1756W        W 2753   2.089   2.068   3.842
 1757W        W 2754   6.591   4.313   1.772
 1758W        W 2755   4.220   3.316   7.252
 1759W        W 2756   7.932   6.836   7.143
 1760W        W 2757   6.576   2.143   5.898
 1761W        W 2758   5.911   6.514   2.958
 1762W        W 2759   1.265   6.290   0.928
 1763W        W 2760   4.227   4.022   0.561
 1764W        W 2761   3.670   5.465   4.464
 1765W        W 2762   7.977   3.624   4.087
 1766W        W 2763   7.110   1.489   3.266
 1767W        W 2764   5.390   3.708   3.698
 1768W        W 2765   2.178   0.781   5.379
 1769W        W 2766   7.176   3.707   5.289
 1770W        W 2767   1.269   3.359   4.575
 1771W        W 2768   4.672   4.260   1.373
 1772W        W 2769   0.326   6.065   2.279
 1773W        W 2770   4.861   3.181   5.217
 1774W        W 2771   3.065   6.545   2.148
 1775W        W 2772   0.045   1.575   5.892
 1776W        W 2773   3.184   6.257   6.241
 1777W        W 2774   5.338   4.668   4.630
 1778W        W 2775   1.346   4.541   3.739
 1779W        W 2776   4.920   5.523   4.722
 1780W        W 2777   4.260   2.373   6.536
 1781W        W 2778   6.470   3.482   2.034
 1782W        W 2779   0.488   1.447   4.346
 1783W        W 2780   3.251   5.136   5.670
 1784W        W 2781   1.761   3.379   6.014
 1785W        W 2782   5.474   6.675   1.041
 1786W        W 2783   6.324   1.979   5.041
 1787W        W 2784   1.513   4.432   1.163
 1788W        W 2785   7.007   4.199   6.543
 1789W        W 2786   1.131   5.922   1.905
 1790W        W 2787   4.109   5.168   6.899
 1791W        W 2788   2.071   0.738   1.099
 1792W        W 2789   5.640   1.466   0.508
 1793W        W 2790   7.322   4.514   0.665
 1794W        W 2791   5.763   7.915   5.310
 1795W        W 2792   7.555   4.255   3.771
 1796W        W 2793   5.554   4.314   1.197
 1797W        W 2794   4.718   2.470   6.250
 1798W        W 2795   2.656   1.851   5.821
 1799W        W 2796   1.142   2.843   3.290
 1800W        W 2797   3.580   1.082   6.486
 1801W        W 2798   6.730   6.707   7.965
 1802W        W 2799   7.344   4.625   4.061
 1803W        W 2800   1.225   1.124   4.232
 1804W        W 2801   5.693   5.025   1.868
 1805W        W 2802   0.562   6.075   6.388
 1806W        W 2803   0.105   0.961   6.739
 1807W        W 2804   4.951   2.961   6.225
 1808W        W 2805   2.025   5.157   2.519
 1809W        W 2806   5.108   2.173   7.110
 1810W        W 2807   3.964   1.895   2.722
 1811W        W 2808   2.128   5.584   6.723
 1812W        W 2809   0.120   6.517   2.437
 1813W        W 2810   3.368   2.817   1.324
 1814W        W 2811   0.840   2.666   2.924
 1815W        W 2812   7.131   1.068   2.952
 1816W        W 2813   5.333   1.267   6.489
 1817W        W 2814   5.579   0.344   5.589
 1818W        W 2815   2.311   4.825   4.157
 1819W        W 2816   6.657   5.265   5.831
 1820W        W 2817   3.345   2.348   6.528
 1821W        W 2818   7.601   4.086   5.814
 1822W        W 2819   7.734   2.091   3.493
 1823W        W 2820   6.761   2.630   6.595
 1824W        W 2821   5.625   4.521   2.659
 1825W        W 2822   1.290   5.999   0.484
 1826W        W 2823   1.857   2.542   2.914
 1827W        W 2824   6.197   5.454   5.954
 1828W        W 2825   0.428   3.869   5.334
 1829W        W 2826   5.924   2.984   0.175
 1830W        W 2827   6.231   0.939   5.652
 1831W        W 2828   2.252   3.276   2.337
 1832W        W 2829   2.950   6.069   5.847
 1833W        W 2830   1.490   4.679   2.133
 1834W        W 2831   6.061   3.650   1.764
 1835W        W 2832   5.520   0.691   7.996
 1836W        W 2833   2.385   0.016   5.812
 1837W        W 2834   4.632   1.772   3.954
 1838W        W 2835   4.081   1.410   2.593
 1839W        W 2836   6.533   5.288   4.452
 1840W        W 2837   3.107   0.555   7.676
 1841W        W 2838   3.450   5.265   3.995
 1842W        W 2839   3.782   3.258   4.072
 1843W        W 2840   2.292   3.343   1.324
 1844W        W 2841   0.808   5.745   1.527
 1845W        W 2842   0.375   6.016   5.506
 1846W        W 2843   0.862   1.880   1.310
 1847W        W 2844   2.927   5.739   0.842
 1848W        W 2845   2.130   6.630   4.052
 1849W        W 2846   2.144   0.383   4.431
 1850W        W 2847   2.017   0.350   6.721
 1851W        W 2848   4.300   3.266   7.785
 1852W        W 2849   4.897   7.551   5.678
 1853W        W 2850   5.945   5.872   1.829
 1854W        W 2851   3.939   3.924   0.975
 1855W        W 2852   3.749   6.740   3.287
 1856W        W 2853   1.093   5.054   5.326
 1857W        W 2854   0.043   5.658   6.948
 1858W        W 2855   3.332   5.192   7.562
 1859W        W 2856   6.699   2.764   2.726
 1860W        W 2857   7.015   2.292   7.388
 1861W        W 2858   7.572   2.238   4.506
 1862W        W 2859   3.454   7.223   3.720
 1863W        W 2860   2.169   3.347   3.683
 1864W        W 2861   7.184   4.365   1.160
 1865W        W 2862   6.478   1.576   7.378
 1866W        W 2863   5.708   2.244   3.904
 1867W        W 2864   3.487   3.965   1.314
 1868W        W 2865   7.062   5.874   2.872
 1869W        W 2866   3.072   5.772   2.631
 1870W        W 2867   2.671   3.441   1.674
 1871W        W 2868   5.065   4.258   6.475
 1872W        W 2869   3.216   3.928   4.621
 1873W        W 2870   4.243   4.542   1.431
 1874W        W 2871   6.687   1.851   2.549
 1875W        W 2872   1.268   2.932   4.219
 1876W        W 2873   5.806   2.519   4.371
 1877W        W 2874   2.460   6.105   2.938
 1878W        W 2875   2.657   1.343   7.140
 1879W        W 2876   2.986   1.547   4.821
 1880W        W 2877   4.777   2.570   0.421
 1881W        W 2878   5.525   1.108   0.849
 1882W        W 2879   2.092   4.656   2.482
 1883W        W 2880   2.091   3.659   5.176
 1884W        W 2881   7.126   1.054   2.086
 1885W        W 2882   3.176   0.200   0.230
 1886W        W 2883   4.314   4.263   1.846
 1887W        W 2884   2.130   7.138   4.078
 1888W        W 2885   1.514   5.402   1.050
 1889W        W 2886   6.151   6.556   3.815
 1890W        W 2887   3.184   3.818   2.123
 1891W        W 2888   4.959   1.701   7.326
 1892W        W 2889   7.544   6.332   3.977
 1893W        W 2890   5.412   6.641   7.532
 1894W        W 2891   5.252   1.083   3.962
 1895W        W 2892   4.715   6.848   3.568
 1896W        W 2893   1.148   4.104   3.912
 1897W        W 2894   7.941   3.777   3.597
 1898W        W 2895   1.035   1.371   0.527
 1899W        W 2896   5.837   6.366   6.681
 1900W        W 2897   1.603   3.437   6.970
 1901W        W 2898   1.586   1.043   1.285
 1902W        W 2899   1.995   7.031   7.276
 1903W        W 2900   1.787   2.974   1.755
 1904W        W 2901   2.564   7.101   6.871
 1905W        W 2902   3.562   7.780   1.983
 1906W        W 2903   2.031   4.080   5.463
 1907W        W 2904   3.182   3.481   2.510
 1908W        W 2905   0.983   6.171   6.679
 1909W        W 2906   6.295   4.443   5.968
 1910W        W 2907   1.508   0.357   0.556
 1911W        W 2908   1.757   5.060   4.470
 1912W        W 2909   1.535   1.759   6.388
 1913W        W 2910   1.152   0.806   7.115
 1914W        W 2911   0.560   4.835   0.427
 1915W        W 2912   6.614   6.151   2.684
 1916W        W 2913   3.743   6.808   3.770
 1917W        W 2914   6.724   1.041   4.154
 1918W        W 2915   5.425   5.328   2.636
 1919W        W 2916   2.855   3.959   6.230
 1920W        W 2917   0.474   5.647   6.675
 1921W        W 2918   1.307   4.074   1.449
 1922W        W 2919   1.695   1.928   4.206
 1923W        W 2920   0.333   5.805   1.316
 1924W        W 2921   5.511   5.061   5.413
 1925W        W 2922   3.882   3.029   4.735
 1926W        W 2923   5.930   6.620   2.333
 1927W        W 2924   1.552   5.569   1.826
 1928W        W 2925   5.908   0.823   4.838
 1929W        W 2926   7.486   1.798   0.702
 1930W        W 2927   3.446   2.271   5.276
 1931W        W 2928   6.158   4.617   1.773
 1932W        W 2929   4.266   1.000   0.872
 1933W        W 2930   4.057   2.048   3.200
 1934W        W 2931   0.553   3.300   1.391
 1935W        W 2932   6.157   2.853   7.175
 1936W        W 2933   4.754   1.917   1.801
 1937W        W 2934   6.246   2.321   0.819
 1938W        W 2935   7.555   2.109   6.276
 1939W        W 2936   5.738   7.674   5.787
 1940W        W 2937   0.014   2.951   6.309
 1941W        W 2938   7.836   7.347   7.047
 1942W        W 2939   6.964   1.862   2.975
 1943W        W 2940   1.921   5.469   6.259
 1944W        W 2941   1.764   5.079   1.962
 1945W        W 2942   1.052   2.194   5.003
 1946W        W 2943   2.131   0.220   6.246
 1947W        W 2944   6.974   0.089   3.306
 1948W        W 2945   6.612   1.599   3.314
 1949W        W 2946   2.777   0.358   0.496
 1950W        W 2947   2.135   4.008   4.788
 1951W        W 2948   7.069   2.241   4.641
 1952W        W 2949   7.308   6.333   2.015
 1953W        W 2950   5.485   0.791   4.543
 1954W        W 2951   2.207   7.520   5.694
 1955W        W 2952   5.586   2.246   3.404
 1956W        W 2953   4.492   2.119   0.391
 1957W        W 2954   1.053   1.576   1.705
 1958W        W 2955   6.549   3.153   2.441
 1959W        W 2956   1.495   6.244   6.779
 1960W        W 2957   7.813   4.085   2.675
 1961W        W 2958   1.401   0.921   6.205
 1962W        W 2959   7.745   6.592   1.587
 1963W        W 2960   7.692   6.298   6.589
 1964W        W 2961   4.793   4.942   5.294
 1965W        W 2962   3.352   1.369   0.187
 1966W        W 2963   4.172   6.160   4.744
 1967W        W 2964   0.928   3.047   1.823
 1968W        W 2965   1.209   1.422   6.210
 1969W        W 2966   3.039   1.338   0.837
 1970W        W 2967   7.587   3.589   5.657
 1971W        W 2968   7.711   6.622   2.114
 1972W        W 2969   3.426   5.957   5.150
 1973W        W 2970   6.106   4.652   2.597
 1974W        W 2971   2.718   1.253   5.922
 1975W        W 2972   5.918   7.011   4.587
 1976W        W 2973   5.771   2.918   6.867
 1977W        W 2974   4.693   1.132   0.557
 1978W        W 2975   3.163   4.857   4.038
 1979W        W 2976   2.814   2.272   2.710
 1980W        W 2977   1.256   5.053   6.570
 1981W        W 2978   1.992   4.484   0.240
 1982W        W 2979   4.740   1.226   5.085
 1983W        W 2980   6.379   1.439   2.472
 1984W        W 2981   3.959   4.638   4.405
 1985W        W 2982   1.963   5.223   4.891
 1986W        W 2983   0.943   5.719   6.479
 1987W        W 2984   4.368   3.533   5.286
 1988W        W 2985   7.037   7.723   2.307
 1989W        W 2986   3.975   2.642   5.031
 1990W        W 2987   0.039   1.339   3.245
 1991W        W 2988   2.346   0.651   6.458
 1992W        W 2989   0.605   1.260   3.852
 1993W        W 2990   6.565   0.708   2.899
 1994W        W 2991   2.743   4.059   2.256
 1995W        W 2992   1.733   1.886   3.512
 1996W        W 2993   2.186   5.376   0.315
 1997W        W 2994   7.084   5.056   0.550
 1998W        W 2995   3.877   3.532   7.613
 1999W        W 2996   2.949   1.079   6.802
 2000W        W 2997   5.109   7.072   6.618
 2001W        W 2998   7.171   3.707   3.270
 2002W        W 2999   0.245   1.646   6.419
 2003W        W 3000   4.961   3.984   3.624
 2004W        W 3001   0.856   2.907   1.305
 2005W        W 3002   6.816   3.318   1.691
 2006W        W 3003   5.173   2.981   7.576
 2007W        W 3004   6.619   2.363   7.710
 2008W        W 3005   2.326   7.132   1.914
 2009W        W 3006   1.602   6.062   3.738
 2010W        W 3007   0.791   0.711   7.969
 2011W        W 3008   6.661   6.953   4.518
 2012W        W 3009   6.819   3.295   6.546
 2013W        W 3010   2.522   2.841   2.397
 2014W        W 3011   4.313   3.360   2.056
 2015W        W 3012   2.453   4.739   0.324
 2016W        W 3013   5.632   2.551   6.049
 2017W        W 3014   4.394   1.676   2.079
 2018W        W 3015   6.043   2.926   7.672
 2019W        W 3016   5.060   1.554   3.788
 2020W        W 3017   2.752   2.639   3.266
 2021W        W 3018   4.931   4.098   1.814
 2022W        W 3019   6.298   6.538   5.973
 2023W        W 3020   1.681   4.694   1.597
 2024W        W 3021   1.444   4.620   0.234
 2025W        W 3022   5.571   2.122   6.837
 2026W        W 3023   4.043   3.209   3.196
 2027W        W 3024   0.612   2.993   4.165
 2028W        W 3025   0.850   3.947   0.782
 2029W        W 3026   0.917   3.495   2.096
 2030W        W 3027   6.651   1.680   2.081
 2031W        W 3028   1.842   5.961   6.448
 2032W        W 3029   0.781   3.774   4.601
 2033W        W 3030   3.949   2.772   6.524
 2034W        W 3031   4.095   1.095   4.196
 2035W        W 3032   6.081   3.200   2.230
 2036W        W 3033   1.102   4.575   4.175
 2037W        W 3034   7.860   6.494   3.357
 2038W        W 3035   5.411   4.218   6.861
 2039W        W 3036   6.495   0.581   4.106
 2040W        W 3037   6.286   7.658   6.733
 2041W        W 3038   2.850   5.181   3.212
 2042W        W 3039   0.510   6.182   3.659
 2043W        W 3040   6.412   6.783   6.509
 2044W        W 3041   6.000   5.809   4.280
 2045W        W 3042   5.301   4.372   5.922
 2046W        W 3043   0.548   3.055   5.019
 2047W        W 3044   4.657   7.603   2.895
 2048W        W 3045   3.650   7.738   2.525
 2049W        W 3046   3.603   1.669   4.587
 2050W        W 3047   5.901   5.535   6.889
 2051W        W 3048   5.812   2.088   7.774
 2052W        W 3049   0.199   3.763   2.617
 2053W        W 3050   6.893   2.093   6.287
 2054W        W 3051   3.475   2.010   6.913
 2055W        W 3052   7.415   3.423   4.163
 2056W        W 3053   0.814   2.589   2.118
 2057W        W 3054   6.464   5.754   5.651
 2058W        W 3055   3.514   0.025   2.983
 2059W        W 3056   3.992   3.118   0.540
 2060W        W 3057   1.249   4.141   3.424
 2061W        W 3058   3.950   0.107   2.756
 2062W        W 3059   5.980   0.516   6.703
 2063W        W 3060   2.096   5.440   1.735
 2064W        W 3061   5.301   5.631   4.365
 2065W        W 3062   5.619   7.048   6.658
 2066W        W 3063   5.157   4.404   1.490
 2067W        W 3064   7.083   5.530   4.456
 2068W        W 3065   2.319   4.358   4.413
 2069W        W 3066   5.273   1.416   1.702
 2070W        W 3067   1.782   3.580   3.019
 2071W        W 3068   2.080   0.770   7.161
 2072W        W 3069   5.397   4.167   3.942
 2073W        W 3070   6.274   0.144   2.827
 2074W        W 3071   6.062   2.770   6.248
 2075W        W 3072   5.271   6.827   0.603
 2076W        W 3073   6.530   7.031   3.236
 2077W        W 3074   2.754   4.547   4.170
 2078W        W 3075   1.078   0.609   6.629
 2079W        W 3076   6.906   2.602   1.206
 2080W        W 3077   3.927   5.176   1.494
 2081W        W 3078   1.162   6.962   3.684
 2082W        W 3079   7.554   2.943   3.366
 2083W        W 3080   5.679   4.221   4.394
 2084W        W 3081   0.357   4.227   7.519
 2085W        W 3082   2.429   1.130   5.073
 2086W        W 3083   5.415   3.000   6.048
 2087W        W 3084   0.477   1.127   4.746
 2088W        W 3085   1.041   6.208   1.450
 2089W        W 3086   5.335   7.406   6.937
 2090W        W 3087   3.784   5.231   2.913
 2091W        W 3088   6.421   1.112   5.193
 2092W        W 3089   6.908   1.228   0.640
 2093W        W 3090   0.028   3.712   0.805
 2094W        W 3091   7.722   4.486   4.407
 2095W        W 3092   0.886   0.726   1.770
 2096W        W 3093   7.560   1.616   7.998
 2097W        W 3094   3.536   5.064   0.694
 2098W        W 3095   5.562   2.781   0.475
 2099W        W 3096   6.597   6.352   0.694
 2100W        W 3097   1.881   2.407   4.142
 2101W        W 3098   6.441   6.374   0.213
 2102W        W 3099   0.281   7.068   6.838
 2103W        W 3100   1.963   0.005   0.381
 2104W        W 3101   1.211   2.739   5.143
 2105W        W 3102   7.392   6.738   4.857
 2106W        W 3103   1.966   5.986   2.912
 2107W        W 3104   5.856   4.119   6.645
 2108W        W 3105   6.573   7.345   5.805
 2109W        W 3106   4.348   5.241   0.935
 2110W        W 3107   2.181   1.520   0.903
 2111W        W 3108   7.538   1.275   4.973
 2112W        W 3109   5.018   7.260   4.346
 2113W        W 3110   6.100   7.320   3.274
 2114W        W 3111   5.263   1.700   5.566
 2115W        W 3112   5.769   0.076   7.341
 2116W        W 3113   3.293   5.377   1.003
 2117W        W 3114   5.539   3.800   4.711
 2118W        W 3115   4.792   1.327   4.162
 2119W        W 3116   3.777   5.445   5.041
 2120W        W 3117   4.877   2.170   4.150
 2121W        W 3118   7.231   6.005   3.710
 2122W        W 3119   7.267   6.772   3.927
 2123W        W 3120   1.668   0.300   6.005
 2124W        W 3121   0.221   3.350   7.191
 2125W        W 3122   2.501   3.726   2.546
 2126W        W 3123   0.997   6.728   2.171
 2127W        W 3124   1.278   0.533   0.115
 2128W        W 3125   6.735   3.360   0.773
 2129W        W 3126   6.950   3.724   6.300
 2130W        W 3127   2.522   6.076   0.762
 2131W        W 3128   7.840   2.597   2.200
 2132W        W 3129   2.719   4.300   0.484
 2133W        W 3130   4.846   5.495   4.191
 2134W        W 3131   5.235   3.383   6.378
 2135W        W 3132   3.021   2.563   6.135
 2136W        W 3133   1.464   3.220   3.128
 2137W        W 3134   4.998   3.969   2.787
 2138W        W 3135   7.956   3.137   6.780
 2139W        W 3136   6.214   0.931   4.424
 2140W        W 3137   4.429   1.172   3.365
 2141W        W 3138   4.481   4.246   5.680
 2142W        W 3139   1.530   5.936   4.272
 2143W        W 3140   0.409   1.035   3.040
 2144W        W 3141   6.691   5.747   2.389
 2145W        W 3142   4.908   1.001   1.714
 2146W        W 3143   6.650   6.395   7.377
 2147W        W 3144   5.358   5.709   7.679
 2148W        W 3145   1.789   0.723   2.215
 2149W        W 3146   1.031   2.573   1.663
 2150W        W 3147   4.960   3.845   2.298
 2151W        W 3148   4.960   7.641   4.686
 2152W        W 3149   4.501   1.312   1.709
 2153W        W 3150   3.369   6.112   4.550
 2154W        W 3151   6.002   6.163   2.583
 2155W        W 3152   3.566   7.092   1.420
 2156W        W 3153   0.267   5.779   3.835
 2157W        W 3154   1.392   4.225   6.326
 2158W        W 3155   5.554   6.390   2.623
 2159W        W 3156   7.715   2.893   5.202
 2160W        W 3157   6.741   1.608   0.349
 2161W        W 3158   6.234   1.398   4.220
 2162W        W 3159   6.680   4.197   6.937
 2163W        W 3160   4.537   5.761   7.282
 2164W        W 3161   6.205   5.593   4.686
 2165W        W 3162   4.701   1.354   2.893
 2166W        W 3163   1.857   7.300   3.663
 2167W        W 3164   7.619   3.533   1.995
 2168W        W 3165   5.301   0.664   0.955
 2169W        W 3166   5.710   4.686   5.988
 2170W        W 3167   6.392   5.642   3.975
 2171W        W 3168   7.182   4.804   1.388
 2172W        W 3169   7.385   2.633   1.077
 2173W        W 3170   6.983   1.721   0.786
 2174W        W 3171   3.358   1.002   7.782
 2175W        W 3172   0.282   3.106   4.567
 2176W        W 3173   3.434   6.972   0.467
 2177W        W 3174   4.703   0.874   2.638
 2178W        W 3175   4.385   1.343   3.838
 2179W        W 3176   1.022   2.182   3.719
 2180W        W 3177   2.967   2.235   1.755
 2181W        W 3178   7.556   2.811   0.636
 2182W        W 3179   3.674   2.749   3.935
 2183W        W 3180   4.039   3.492   3.648
 2184W        W 3181   4.250   0.757   6.677
 2185W        W 3182   2.984   1.456   2.663
 2186W        W 3183   6.253   7.031   6.074
 2187W        W 3184   4.568   2.510   1.702
 2188W        W 3185   5.651   6.628   3.667
 2189W        W 3186   1.150   1.702   7.188
 2190W        W 3187   6.151   4.948   2.167
 2191W        W 3188   3.238   7.012   2.242
 2192W        W 3189   7.666   3.044   1.088
 2193W        W 3190   6.611   4.832   6.117
 2194W        W 3191   3.918   3.006   7.557
 2195W        W 3192   2.243   2.054   4.328
 2196W        W 3193   4.736   5.948   3.994
 2197W        W 3194   6.123   4.971   6.129
 2198W        W 3195   1.929   3.824   6.237
 2199W        W 3196   6.313   5.723   2.722
 2200W        W 3197   6.487   5.931   4.389
 2201W        W 3198   6.066   0.459   5.783
 2202W        W 3199   2.056   5.986   2.400
 2203W        W 3200   6.167   2.354   4.036
 2204W        W 3201   3.925   7.210   3.474
 2205W        W 3202   3.065   5.004   7.142
 2206W        W 3203   1.344   2.551   2.925
 2207W        W 3204   7.033   5.170   6.282
 2208W        W 3205   6.651   3.648   3.333
 2209W        W 3206   7.319   1.797   4.492
 2210W        W 3207   4.441   7.294   3.577
 2211W        W 3208   4.724   7.344   6.109
 2212W        W 3209   1.823   1.119   0.830
 2213W        W 3210   1.711   2.103   5.601
 2214W        W 3211   6.136   6.966   2.903
 2215W        W 3212   6.793   4.852   6.595
 2216W        W 3213   0.216   5.667   4.343
 2217W        W 3214   6.450   5.399   1.104
 2218W        W 3215   4.098   6.405   3.442
 2219W        W 3216   1.849   3.455   2.054
 2220W        W 3217   4.867   6.041   3.520
 2221W        W 3218   1.814   7.858   1.171
 2222W        W 3219   6.884   7.365   3.113
 2223W        W 3220   6.747   4.096   1.232
 2224W        W 3221   1.507   2.993   4.837
 2225W        W 3222   6.294   7.026   2.428
 2226W        W 3223   3.032   6.583   5.886
 2227W        W 3224   6.165   1.919   2.490
 2228W        W 3225   3.603   6.027   6.131
 2229W        W 3226   6.061   4.138   1.919
 2230W        W 3227   7.170   5.562   2.478
 2231W        W 3228   4.179   3.379   2.552
 2232W        W 3229   1.165   1.693   4.982
 2233W        W 3230   4.027   6.009   7.324
 2234W        W 3231   5.765   6.526   1.455
 2235W        W 3232   4.079   0.586   4.097
 2236W        W 3233   2.732   2.416   6.870
 2237W        W 3234   2.298   6.536   3.194
 2238W        W 3235   5.352   3.557   2.862
 2239W        W 3236   2.504   4.307   4.982
 2240W        W 3237   2.473   4.281   6.806
 2241W        W 3238   5.469   3.031   1.481
 2242W        W 3239   5.728   2.529   6.560
 2243W        W 3240   2.731   5.499   4.496
 2244W        W 3241   4.854   1.631   5.873
 2245W        W 3242   6.999   6.781   3.201
 2246W        W 3243   5.792   4.133   5.329
 2247W        W 3244   1.608   4.618   2.635
 2248W        W 3245   5.103   3.474   4.072
 2249W        W 3246   2.357   0.880   3.726
 2250W        W 3247   0.910   2.574   4.066
 2251W        W 3248   1.999   3.171   3.232
 2252W        W 3249   1.701   3.966   5.057
 2253W        W 3250   5.257   3.466   4.985
 2254W        W 3251   4.903   5.619   3.222
 2255W        W 3252   1.768   2.978   2.261
 2256W        W 3253   6.589   5.800   7.577
 2257W        W 3254   0.585   7.089   4.577
 2258W        W 3255   7.322   4.651   3.526
 2259W        W 3256   6.707   7.134   6.728
 2260W        W 3257   4.538   3.752   5.788
 2261W        W 3258   2.173   2.375   1.077
 2262W        W 3259   6.758   3.097   1.222
 2263W        W 3260   5.539   5.693   1.109
 2264W        W 3261   3.499   7.407   5.888
 2265W        W 3262   3.206   6.033   2.162
 2266W        W 3263   6.884   5.834   4.077
 2267W        W 3264   1.776   0.855   4.997
 2268W        W 3265   2.987   6.346   1.690
 2269W        W 3266   1.253   3.820   4.819
 2270W        W 3267   5.068   5.436   6.862
 2271W        W 3268   3.363   4.998   3.146
 2272W        W 3269   1.959   2.958   1.272
 2273W        W 3270   5.882   0.392   7.736
 2274W        W 3271   5.497   5.539   5.247
 2275W        W 3272   4.002   4.844   1.098
 2276W        W 3273   5.618   6.197   1.081
 2277W        W 3274   5.439   1.337   3.537
 2278W        W 3275   2.760   0.691   4.626
 2279W        W 3276   1.103   3.628   7.697
 2280W        W 3277   3.271   2.018   4.418
 2281W        W 3278   1.565   5.102   6.176
 2282W        W 3279   1.347   1.586   4.412
 2283W        W 3280   3.732   7.569   3.020
 2284W        W 3281   3.818   0.517   5.992
 2285W        W 3282   7.140   5.470   5.028
 2286W        W 3283   0.545   2.191   4.825
 2287W        W 3284   4.620   6.738   2.818
 2288W        W 3285   3.169   5.509   1.790
 2289W        W 3286   5.329   2.421   4.224
 2290W        W 3287   0.407   3.096   5.854
 2291W        W 3288   7.168   2.163   1.126
 2292W        W 3289   4.284   2.087   1.765
 2293W        W 3290   2.379   5.807   2.012
 2294W        W 3291   4.819   2.614   3.521
 2295W        W 3292   3.895   0.784   2.057
 2296W        W 3293   1.919   5.910   1.877
 2297W        W 3294   2.291   0.503   1.515
 2298W        W 3295   5.803   4.963   3.398
 2299W        W 3296   0.951   5.375   4.923
 2300W        W 3297   2.602   1.111   2.670
 2301W        W 3298   6.228   2.635   6.717
 2302W        W 3299   7.728   3.331   3.754
 2303W        W 3300   4.916   6.483   5.864
 2304W        W 3301   2.638   6.950   3.395
 2305W        W 3302   0.259   1.269   2.090
 2306W        W 3303   6.540   1.357   5.654
 2307W        W 3304   5.153   4.783   5.631
 2308W        W 3305   2.517   4.348   7.339
 2309W        W 3306   4.545   3.700   3.872
 2310W        W 3307   0.958   7.021   3.166
 2311W        W 3308   1.317   3.692   3.228
 2312W        W 3309   6.394   5.347   2.358
 2313W        W 3310   6.163   2.067   3.587
 2314W        W 3311   6.590   7.198   0.043
 2315W        W 3312   4.904   2.651   4.007
 2316W        W 3313   4.876   2.078   3.612
 2317W        W 3314   5.116   0.690   3.607
 2318W        W 3315   3.733   3.461   2.757
 2319W        W 3316   3.866   0.060   5.729
 2320W        W 3317   1.507   5.032   0.706
 2321W        W 3318   4.113   7.691   3.660
 2322W        W 3319   7.980   5.603   4.825
 2323W        W 3320   7.511   5.925   2.645
 2324W        W 3321   6.118   1.298   4.818
 2325W        W 3322   1.386   2.442   4.240
 2326W        W 3323   0.185   1.959   2.656
 2327W        W 3324   4.919   2.684   7.195
 2328W        W 3325   2.281   7.071   6.445
 2329W        W 3326   2.904   4.418   1.925
 2330W        W 3327   7.746   3.383   6.349
 2331W        W 3328   6.889   2.012   5.064
 2332W        W 3329   6.316   5.037   3.343
 2333W        W 3330   0.045   3.094   3.396
 2334W        W 3331   7.443   6.428   2.526
 2335W        W 3332   5.912   3.113   1.762
 2336W        W 3333   2.982   4.099   1.345
 2337W        W 3334   1.915   7.600   7.197
 2338W        W 3335   3.403   5.690   6.450
 2339W        W 3336   3.650   3.880   6.360
 2340W        W 3337   2.964   6.074   3.045
 2341W        W 3338   2.577   5.391   3.567
 2342W        W 3339   5.603   6.004   4.528
 2343W        W 3340   7.160   6.883   2.715
 2344W        W 3341   1.810   2.045   1.216
 2345W        W 3342   0.669   5.677   4.586
 2346W        W 3343   7.680   2.303   1.815
 2347W        W 3344   1.679   4.435   7.378
 2348W        W 3345   1.775   2.098   6.107
 2349W        W 3346   7.870   3.074   2.009
 2350W        W 3347   5.410   1.043   5.322
 2351W        W 3348   5.970   5.367   5.075
 2352W        W 3349   2.968   1.861   3.031
 2353W        W 3350   3.829   7.375   6.284
 2354W        W 3351   4.250   2.094   6.981
 2355W        W 3352   2.906   0.742   5.937
 2356W        W 3353   4.206   2.492   2.062
 2357W        W 3354   7.453   3.143   2.340
 2358W        W 3355   4.150   0.892   3.695
 2359W        W 3356   6.030   6.108   1.389
 2360W        W 3357   5.219   2.484   4.914
 2361W        W 3358   3.386   5.054   2.165
 2362W        W 3359   3.009   4.766   7.615
 2363W        W 3360   2.110   4.668   3.326
 2364W        W 3361   7.724   5.557   2.360
 2365W        W 3362   5.466   5.614   7.156
 2366W        W 3363   1.623   4.324   6.831
 2367W        W 3364   3.047   6.768   0.724
 2368W        W 3365   4.638   3.533   4.345
 2369W        W 3366   0.991   3.351   4.156
 2370W        W 3367   2.694   1.782   3.465
 2371W        W 3368   5.808   6.780   5.892
 2372W        W 3369   4.072   2.274   0.848
 2373W        W 3370   2.514   5.612   5.420
 2374W        W 3371   0.158   2.750   4.225
 2375W        W 3372   0.950   0.503   2.282
 2376W        W 3373   1.664   7.562   6.716
 2377W        W 3374   2.282   2.005   0.752
 2378W        W 3375   1.786   1.840   0.743
 2379W        W 3376   5.680   2.613   5.085
 2380W        W 3377   7.104   2.951   6.807
 2381W        W 3378   2.285   2.939   7.206
 2382W        W 3379   0.510   2.291   2.839
 2383W        W 3380   6.487   0.330   3.246
 2384W        W 3381   7.403   5.686   3.302
 2385W        W 3382   2.494   4.657   1.721
 2386W        W 3383   4.657   2.803   5.861
 2387W        W 3384   5.351   1.012   1.374
 2388W        W 3385   1.044   0.901   1.289
 2389W        W 3386   6.448   1.955   4.167
 2390W        W 3387   3.695   5.906   2.307
 2391W        W 3388   6.520   1.473   0.834
 2392W        W 3389   0.725   5.166   4.526
 2393W        W 3390   4.957   0.653   1.344
 2394W        W 3391   5.901   6.017   7.050
 2395W        W 3392   4.984   4.452   3.920
 2396W        W 3393   4.156   0.658   1.237
 2397W        W 3394   6.999   1.433   2.418
 2398W        W 3395   1.327   5.326   3.113
 2399W        W 3396   2.034   6.727   5.014
 2400W        W 3397   6.463   7.707   7.691
 2401W        W 3398   5.776   3.237   5.784
 2402W        W 3399   5.891   0.406   0.273
 2403W        W 3400   5.524   1.533   4.013
 2404W        W 3401   1.608   7.530   1.528
 2405W        W 3402   0.400   6.602   7.039
 2406W        W 3403   2.826   6.356   5.436
 2407W        W 3404   0.800   4.862   2.975
 2408W        W 3405   0.173   2.419   1.870
 2409W        W 3406   5.739   3.741   5.650
 2410W        W 3407   2.234   3.817   1.060
 2411W        W 3408   6.476   3.651   2.525
 2412W        W 3409   7.926   4.022   4.534
 2413W        W 3410   0.450   6.484   6.100
 2414W        W 3411   3.199   0.871   1.035
 2415W        W 3412   4.472   4.744   0.979
 2416W        W 3413   2.202   1.995   5.632
 2417W        W 3414   6.786   6.963   6.197
 2418W        W 3415   0.686   1.505   5.014
 2419W        W 3416   3.559   5.542   1.403
 2420W        W 3417   5.873   3.735   2.744
 2421W        W 3418   4.722   6.627   5.426
 2422W        W 3419   1.613   1.791   6.886
 2423W        W 3420   6.524   0.641   0.072
 2424W        W 3421   3.087   4.770   3.523
 2425W        W 3422   3.865   3.337   1.825
 2426W        W 3423   0.716   2.149   6.610
 2427W        W 3424   6.564   7.773   7.173
 2428W        W 3425   1.451   1.773   1.473
 2429W        W 3426   5.563   3.367   6.764
 2430W        W 3427   1.955   1.734   2.610
 2431W        W 3428   4.408   3.156   4.927
 2432W        W 3429   2.091   0.211   7.836
 2433W        W 3430   2.761   6.856   2.429
 2434W        W 3431   7.867   3.450   2.414
 2435W        W 3432   0.054   4.494   1.430
 2436W        W 3433   5.454   6.775   2.239
 2437W        W 3434   7.455   5.355   6.022
 2438W        W 3435   3.156   3.039   4.924
 2439W        W 3436   4.156   5.572   4.721
 2440W        W 3437   6.780   5.489   0.587
 2441W        W 3438   0.012   5.374   1.388
 2442W        W 3439   2.989   1.284   3.458
 2443W        W 3440   2.013   3.785   2.421
 2444W        W 3441   4.234   5.895   3.928
 2445W        W 3442   3.914   7.128   0.608
 2446W        W 3443   1.731   6.334   0.674
 2447W        W 3444   3.804   2.418   6.856
 2448W        W 3445   7.999   6.735   5.891
 2449W        W 3446   4.100   1.619   1.658
 2450W        W 3447   1.599   0.398   7.703
 2451W        W 3448   3.631   5.065   5.351
 2452W        W 3449   2.040   1.103   5.759
 2453W        W 3450   6.449   2.339   1.280
 2454W        W 3451   6.666   6.426   4.417
 2455W        W 3452   7.469   2.514   3.660
 2456W        W 3453   3.095   4.838   0.541
 2457W        W 3454   5.175   1.005   2.767
 2458W        W 3455   1.740   6.170   1.154
 2459W        W 3456   5.806   5.161   0.297
 2460W        W 3457   3.134   3.638   1.508
 2461W        W 3458   6.047   5.014   0.736
 2462W        W 3459   0.541   0.914   1.432
 2463W        W 3460   5.246   5.905   1.940
 2464W        W 3461   4.970   1.211   5.532
 2465W        W 3462   5.140   1.421   0.639
 2466W        W 3463   6.418   4.393   0.966
 2467W        W 3464   0.741   3.023   6.244
 2468W        W 3465   0.842   1.708   3.635
 2469W        W 3466   5.405   5.235   1.279
 2470W        W 3467   0.613   5.200   2.061
 2471W        W 3468   1.301   0.172   6.777
 2472W        W 3469   5.129   2.101   4.597
 2473W        W 3470   6.294   0.857   6.953
 2474W        W 3471   3.595   0.531   2.934
 2475W        W 3472   1.630   5.600   0.339
 2476W        W 3473   6.794   2.662   4.572
 2477W        W 3474   5.350   3.845   5.359
 2478W        W 3475   2.473   0.464   6.932
 2479W        W 3476   6.888   5.009   0.058
 2480W        W 3477   2.513   3.938   5.340
 2481W        W 3478   4.915   5.235   1.416
 2482W        W 3479   2.218   3.654   3.298
 2483W        W 3480   2.604   0.369   6.110
 2484W        W 3481   2.160   6.771   6.853
 2485W        W 3482   5.569   7.397   3.380
 2486W        W 3483   7.544   5.473   1.038
 2487W        W 3484   7.089   3.755   4.402
 2488W        W 3485   4.199   2.891   0.953
 2489W        W 3486   3.540   7.041   6.570
 2490W        W 3487   2.604   0.646   5.111
 2491W        W 3488   1.740   0.012   6.965
 2492W        W 3489   6.910   2.292   5.529
 2493W        W 3490   6.484   1.282   6.637
 2494W        W 3491   4.057   1.512   3.487
 2495W        W 3492   7.157   3.661   1.875
 2496W        W 3493   2.232   5.107   6.534
 2497W        W 3494   1.580   3.473   5.011
 2498W        W 3495   5.401   7.681   4.983
 2499W        W 3496   3.344   4.280   7.486
 2500W        W 3497   4.795   6.576   2.366
 2501W        W 3498   4.115   6.568   5.074
 2502W        W 3499   6.280   1.744   5.851
 2503W        W 3500   5.618   2.755   3.935
 2504W        W 3501   1.527   3.048   0.991
 2505W        W 3502   3.160   2.328   3.078
 2506W        W 3503   1.163   4.570   5.591
 2507W        W 3504   5.284   7.134   3.015
 2508W        W 3505   5.718   6.448   5.526
 2509W        W 3506   6.054   5.733   1.036
 2510W        W 3507   4.083   3.804   1.853
 2511W        W 3508   3.818   2.621   1.155
 2512W        W 3509   5.675   5.003   4.396
 2513W        W 3510   0.844   3.736   0.106
 2514W        W 3511   0.315   1.738   4.734
 2515W        W 3512   4.601   7.206   1.357
 2516W        W 3513   2.602   1.286   1.086
 2517W        W 3514   1.292   6.515   0.445
 2518W        W 3515   1.551   5.119   2.691
 2519W        W 3516   4.911   3.955   4.124
 2520W        W 3517   0.129   6.961   3.553
 2521W        W 3518   5.324   1.967   5.117
 2522W        W 3519   1.164   7.205   4.171
 2523W        W 3520   2.839   1.930   1.351
 2524W        W 3521   6.566   5.038   0.729
 2525W        W 3522   1.990   6.290   1.568
 2526W        W 3523   3.536   3.235   3.159
 2527W        W 3524   2.670   5.647   5.911
 2528W        W 3525   2.108   3.879   6.720
 2529W        W 3526   1.983   4.275   1.551
 2530W        W 3527   6.094   4.378   3.509
 2531W        W 3528   2.909   3.509   5.289
 2532W        W 3529   0.179   5.421   5.831
 2533W        W 3530   2.679   2.289   0.983
 2534W        W 3531   7.696   0.675   2.714
 2535W        W 3532   2.405   2.529   0.618
 2536W        W 3533   2.437   7.331   3.689
 2537W        W 3534   3.433   6.159   6.668
 2538W        W 3535   5.082   7.588   3.204
 2539W        W 3536   3.793   4.513   7.630
 2540W        W 3537   2.533   4.557   2.230
 2541W        W 3538   6.513   5.276   6.337
 2542W        W 3539   4.124   7.400   5.316
 2543W        W 3540   1.202   1.229   2.623
 2544W        W 3541   4.277   6.407   5.558
 2545W        W 3542   0.967   1.094   6.521
 2546W        W 3543   2.027   1.820   1.647
 2547W        W 3544   7.160   5.383   5.569
 2548W        W 3545   4.962   4.068   5.669
 2549W        W 3546   2.705   5.621   2.945
 2550W        W 3547   5.193   4.167   4.482
 2551W        W 3548   2.087   3.149   0.355
 2552W        W 3549   4.018   6.303   6.217
 2553W        W 3550   5.184   5.669   1.479
 2554W        W 3551   4.636   4.936   2.650
 2555W        W 3552   4.041   3.689   4.145
 2556W        W 3553   2.741   1.472   5.285
 2557W        W 3554   0.949   2.349   4.530
 2558W        W 3555   1.321   4.068   7.551
 2559W        W 3556   5.887   3.624   3.768
 2560W        W 3557   4.097   7.193   6.695
 2561W        W 3558   4.547   1.186   5.822
 2562W        W 3559   5.723   0.852   5.685
 2563W        W 3560   6.024   0.515   7.239
 2564W        W 3561   0.557   3.368   5.420
 2565W        W 3562   3.827   5.024   7.557
 2566W        W 3563   2.858   5.665   2.159
 2567W        W 3564   1.106   2.076   1.702
 2568W        W 3565   3.199   3.497   3.434
 2569W        W 3566   4.028   2.993   3.669
 2570W        W 3567   7.454   6.240   5.030
 2571W        W 3568   6.174   1.578   5.324
 2572W        W 3569   7.093   5.514   3.679
 2573W        W 3570   1.909   4.287   6.413
 2574W        W 3571   1.726   2.773   4.435
 2575W        W 3572   6.672   2.159   6.754
 2576W        W 3573   3.574   5.669   2.739
 2577W        W 3574   5.286   0.996   6.938
 2578W        W 3575   7.550   3.109   2.859
 2579W        W 3576   2.807   3.760   5.744
 2580W        W 3577   6.980   2.509   1.993
 2581W        W 3578   2.743   6.094   1.224
 2582W        W 3579   5.290   1.986   3.876
 2583W        W 3580   6.530   1.574   7.896
 2584W        W 3581   1.241   6.706   4.127
 2585W        W 3582   2.957   2.751   1.017
 2586W        W 3583   4.696   1.890   3.035
 2587W        W 3584   6.639   5.947   7.090
 2588W        W 3585   4.959   7.311   3.659
 2589W        W 3586   2.871   6.620   5.007
 2590W        W 3587   1.569   7.212   7.079
 2591W        W 3588   5.121   6.015   1.126
 2592W        W 3589   6.576   4.693   5.159
 2593W        W 3590   5.278   6.942   3.499
 2594W        W 3591   7.603   3.964   5.313
 2595W        W 3592   4.067   5.027   3.270
 2596W        W 3593   6.940   3.743   6.809
 2597W        W 3594   7.046   5.957   7.408
 2598W        W 3595   7.669   4.742   4.889
 2599W        W 3596   6.266   5.457   0.627
 2600W        W 3597   4.749   6.379   1.060
 2601W        W 3598   5.056   0.502   4.788
 2602W        W 3599   7.870   2.077   0.913
 2603W        W 3600   1.083   5.748   5.990
 2604W        W 3601   3.630   5.824   6.968
 2605W        W 3602   4.251   1.449   0.601
 2606W        W 3603   5.916   6.413   0.126
 2607W        W 3604   2.539   1.927   1.771
 2608W        W 3605   0.805   4.839   6.398
 2609W        W 3606   3.394   4.496   3.255
 2610W        W 3607   6.489   2.601   5.681
 2611W        W 3608   1.484   4.908   4.062
 2612W        W 3609   5.494   2.826   5.576
 2613W        W 3610   1.271   2.321   2.097
 2614W        W 3611   5.130   2.558   5.895
 2615W        W 3612   2.715   6.778   1.495
 2616W        W 3613   0.768   4.204   7.212
 2617W        W 3614   2.157   1.287   7.180
 2618W        W 3615   3.892   2.550   4.534
 2619W        W 3616   3.561   6.083   4.045
 2620W        W 3617   4.851   1.808   4.966
 2621W        W 3618   7.501   4.420   6.814
 2622W        W 3619   2.675   4.723   0.809
 2623W        W 3620   7.555   5.427   7.001
 2624W        W 3621   5.658   1.625   7.934
 2625W        W 3622   5.540   3.394   7.291
 2626W        W 3623   4.650   4.224   2.230
 2627W        W 3624   5.916   1.096   2.542
 2628W        W 3625   7.828   5.123   7.335
 2629W        W 3626   1.913   2.349   0.638
 2630W        W 3627   4.503   3.974   2.876
 2631W        W 3628   3.834   6.785   6.904
 2632W        W 3629   0.024   3.229   4.990
 2633W        W 3630   2.098   7.311   6.835
 2634W        W 3631   3.222   2.478   7.022
 2635W        W 3632   2.880   5.302   2.551
 2636W        W 3633   6.752   7.007   2.211
 2637W        W 3634   4.590   0.689   3.539
 2638W        W 3635   2.501   4.254   0.948
 2639W        W 3636   0.704   3.411   7.007
 2640W        W 3637   0.539   2.667   4.584
 2641W        W 3638   6.417   2.995   1.901
 2642W        W 3639   4.778   2.746   4.955
 2643W        W 3640   3.054   7.104   6.726
 2644W        W 3641   3.581   7.030   4.188
 2645W        W 3642   2.696   2.095   0.474
 2646W        W 3643   1.436   2.645   5.614
 2647W        W 3644   5.747   0.675   2.294
 2648W        W 3645   1.231   2.828   6.300
 2649W        W 3646   4.780   3.125   3.904
 2650W        W 3647   6.524   2.826   7.532
 2651W        W 3648   0.838   4.681   7.477
 2652W        W 3649   0.001   3.794   3.080
 2653W        W 3650   3.438   2.421   1.643
 2654W        W 3651   7.427   4.938   7.067
 2655W        W 3652   5.342   6.213   7.819
 2656W        W 3653   4.901   0.047   2.895
 2657W        W 3654   7.425   2.748   1.989
 2658W        W 3655   3.882   3.353   0.100
 2659W        W 3656   1.041   0.470   2.808
 2660W        W 3657   3.132   4.348   5.859
 2661W        W 3658   0.517   4.478   1.209
 2662W        W 3659   5.250   4.852   3.682
 2663W        W 3660   4.193   6.091   2.247
 2664W        W 3661   4.881   1.455   2.007
 2665W        W 3662   5.661   4.971   2.372
 2666W        W 3663   4.399   5.623   3.129
 2667W        W 3664   0.788   1.323   2.878
 2668W        W 3665   0.617   4.899   0.953
 2669W        W 3666   3.174   2.247   4.856
 2670W        W 3667   4.501   6.260   5.139
 2671W        W 3668   7.338   5.174   4.213
 2672W        W 3669   5.198   5.808   5.638
 2673W        W 3670   4.355   1.667   0.133
 2674W        W 3671   1.002   1.002   2.202
 2675W        W 3672   3.458   1.778   3.971
 2676W        W 3673   4.545   5.153   3.095
 2677W        W 3674   0.184   2.986   5.404
 2678W        W 3675   2.598   5.991   4.619
 2679W        W 3676   4.990   1.192   7.310
 2680W        W 3677   1.362   6.500   3.656
 2681W        W 3678   4.911   7.670   5.191
 2682W        W 3679   1.021   2.840   4.663
 2683W        W 3680   1.594   1.214   3.921
 2684W        W 3681   5.521   3.314   4.504
 2685W        W 3682   3.793   6.943   5.224
 2686W        W 3683   2.709   6.176   2.089
 2687W        W 3684   0.924   2.295   2.542
 2688W        W 3685   4.906   3.617   3.137
 2689W        W 3686   1.020   5.883   4.979
 2690W        W 3687   4.506   6.760   4.156
 2691W        W 3688   2.173   0.890   2.505
 2692W        W 3689   4.041   3.113   5.309
 2693W        W 3690   6.163   6.708   3.348
 2694W        W 3691   0.683   6.570   6.578
 2695W        W 3692   7.307   3.413   6.621
 2696W        W 3693   5.453   6.158   3.673
 2697W        W 3694   1.351   5.374   5.800
 2698W        W 3695   5.108   5.004   7.144
 2699W        W 3696   6.480   5.878   0.780
 2700W        W 3697   4.719   5.665   5.762
 2701W        W 3698   2.030   1.279   3.344
 2702W        W 3699   6.163   2.203   6.971
 2703W        W 3700   0.447   6.912   2.588
 2704W        W 3701   2.190   2.792   2.012
 2705W        W 3702   5.675   4.091   3.507
 2706W        W 3703   7.428   2.335   5.425
 2707W        W 3704   5.448   6.626   0.126
 2708W        W 3705   5.295   2.119   2.440
 2709W        W 3706   0.336   1.516   2.846
 2710W        W 3707   1.749   2.535   2.014
 2711W        W 3708   6.580   2.998   6.901
 2712W        W 3709   7.618   4.220   4.878
 2713W        W 3710   5.866   7.076   3.675
 2714W        W 3711   3.329   4.491   1.357
 2715W        W 3712   1.573   4.817   6.971
 2716W        W 3713   6.823   2.818   1.644
 2717W        W 3714   2.414   0.523   0.795
 2718W        W 3715   2.608   6.037   3.421
 2719W        W 3716   6.423   4.317   5.492
 2720W        W 3717   6.892   1.209   1.650
 2721W        W 3718   5.986   3.518   4.271
 2722W        W 3719   4.367   7.381   1.813
 2723W        W 3720   3.186   7.668   0.295
 2724W        W 3721   0.536   5.349   4.073
 2725W        W 3722   1.990   4.552   1.982
 2726W        W 3723   2.120   1.789   6.968
 2727W        W 3724   7.142   5.777   6.921
 2728W        W 3725   1.706   6.109   0.211
 2729W        W 3726   6.553   4.417   6.419
 2730W        W 3727   2.065   5.871   0.512
 2731W        W 3728   3.076   5.827   6.804
 2732W        W 3729   4.014   3.563   6.239
 2733W        W 3730   6.592   5.873   0.265
 2734W        W 3731   5.123   6.297   2.865
 2735W        W 3732   7.429   5.795   5.774
 2736W        W 3733   2.568   0.795   1.191
 2737W        W 3734   5.856   3.065   5.289
 2738W        W 3735   4.480   1.736   2.600
 2739W        W 3736   1.251   1.868   3.367
 2740W        W 3737   6.681   6.991   1.689
 2741W        W 3738   7.231   1.007   7.471
 2742W        W 3739   4.726   4.551   1.795
 2743W        W 3740   2.715   7.757   3.547
 2744W        W 3741   6.455   5.445   3.105
 2745W        W 3742   4.380   0.019   2.471
 2746W        W 3743   3.738   6.040   1.358
 2747W        W 3744   0.417   2.828   2.704
 2748W        W 3745   2.726   1.518   2.243
 2749W        W 3746   3.080   0.450   2.246
 2750W        W 3747   3.428   5.877   0.973
 2751W        W 3748   6.896   4.605   0.390
 2752W        W 3749   3.436   1.847   5.555
 2753W        W 3750   1.587   7.998   0.046
 2754W        W 3751   4.950   5.986   7.551
 2755W        W 3752   0.644   6.617   1.234
 2756W        W 3753   4.475   1.871   7.432
 2757W        W 3754   0.958   5.939   5.490
 2758W        W 3755   3.102   5.393   6.176
 2759W        W 3756   2.002   2.203   5.178
 2760W        W 3757   2.862   0.665   6.469
 2761W        W 3758   1.311   2.219   1.274
 2762W        W 3759   0.184   5.895   1.802
 2763W        W 3760   7.637   2.272   1.307
 2764W        W 3761   4.673   2.283   4.706
 2765W        W 3762   3.383   0.614   5.735
 2766W        W 3763   7.966   2.102   2.219
 2767W        W 3764   6.834   2.562   6.058
 2768W        W 3765   5.229   7.321   6.201
 2769W        W 3766   7.042   4.636   5.413
 2770W        W 3767   7.017   7.085   5.627
 2771W        W 3768   5.063   6.489   3.629
 2772W        W 3769   2.536   3.343   4.423
 2773W        W 3770   3.064   7.231   1.414
 2774W        W 3771   5.333   6.734   5.751
 2775W        W 3772   1.363   6.589   6.410
 2776W        W 3773   2.347   1.468   1.891
 2777W        W 3774   2.600   2.526   1.916
 2778W        W 3775   1.548   5.901   2.227
 2779W        W 3776   4.517   6.798   5.852
 2780W        W 3777   7.937   4.076   1.146
 2781W        W 3778   5.762   4.120   2.370
 2782W        W 3779   2.642   3.813   6.671
 2783W        W 3780   1.656   2.161   1.708
 2784W        W 3781   1.573   3.826   6.609
 2785W        W 3782   3.747   3.783   5.858
 2786W        W 3783   0.973   4.711   4.651
 2787W        W 3784   6.024   1.548   2.826
 2788W        W 3785   5.614   5.043   4.908
 2789W        W 3786   4.408   3.494   2.992
 2790W        W 3787   1.197   3.443   5.448
 2791W        W 3788   7.344   1.862   7.553
 2792W        W 3789   2.317   1.877   2.238
 2793W        W 3790   3.336   0.635   6.237
 2794W        W 3791   2.751   3.143   3.978
 2795W        W 3792   5.322   1.478   1.131
 2796W        W 3793   6.139   2.618   5.288
 2797W        W 3794   4.019   6.684   5.892
 2798W        W 3795   5.020   7.799   6.107
 2799W        W 3796   2.528   0.820   0.326
 2800W        W 3797   5.034   0.550   2.911
 2801W        W 3798   4.005   6.769   4.197
 2802W        W 3799   3.543   6.485   5.908
 2803W        W 3800   5.359   0.847   1.898
 2804W        W 3801   5.361   3.504   5.900
 2805W        W 3802   0.105   5.605   5.344
 2806W        W 3803   3.018   4.339   0.906
 2807W        W 3804   6.099   1.617   3.326
 2808W        W 3805   1.263   6.419   1.874
 2809W        W 3806   1.204   4.322   0.593
 2810W        W 3807   4.860   4.483   6.890
 2811W        W 3808   4.962   3.988   6.966
 2812W        W 3809   3.085   7.708   1.661
 2813W        W 3810   5.433   0.501   0.475
 2814W        W 3811   6.817   0.882   6.950
 2815W        W 3812   1.185   0.689   7.623
 2816W        W 3813   5.994   0.874   6.115
 2817W        W 3814   3.909   7.138   5.705
 2818W        W 3815   6.637   5.911   3.125
 2819W        W 3816   5.209   1.007   7.726
 2820W        W 3817   3.817   4.192   1.649
 2821W        W 3818   3.858   3.656   2.264
 2822W        W 3819   3.709   3.812   4.670
 2823W        W 3820   5.814   0.661   0.788
 2824W        W 3821   5.217   2.991   4.211
 2825W        W 3822   3.544   1.599   7.281
 2826W        W 3823   4.514   1.107   4.539
 2827W        W 3824   5.578   1.707   6.549
 2828W        W 3825   2.337   3.062   6.445
 2829W        W 3826   2.044   7.652   0.758
 2830W        W 3827   7.298   4.774   4.542
 2831W        W 3828   5.952   2.235   1.245
 2832W        W 3829   7.394   5.843   2.109
 2833W        W 3830   2.375   4.079   6.312
 2834W        W 3831   1.679   5.620   2.638
 2835W        W 3832   5.642   3.462   2.026
 2836W        W 3833   5.393   1.684   4.708
 2837W        W 3834   4.806   5.039   1.869
 2838W        W 3835   4.508   7.477   4.931
 2839W        W 3836   3.505   0.011   3.922
 2840W        W 3837   6.546   4.716   7.046
 2841W        W 3838   1.530   1.176   3.041
 2842W        W 3839   2.786   5.163   5.870
 2843W        W 3840   1.129   1.483   5.460
 2844W        W 3841   0.980   3.312   3.328
 2845W        W 3842   7.193   1.631   4.004
 2846W        W 3843   0.286   1.747   5.240
 2847W        W 3844   1.252   3.426   0.166
 2848W        W 3845   2.711   6.569   2.869
 2849W        W 3846   4.786   1.528   3.374
 2850W        W 3847   3.585   2.201   2.515
 2851W        W 3848   1.935   4.372   2.926
 2852W        W 3849   5.241   5.307   0.036
 2853W        W 3850   4.534   6.884   1.746
 2854W        W 3851   4.821   3.493   2.668
 2855W        W 3852   0.656   6.143   1.090
 2856W        W 3853   5.356   3.348   3.338
 2857W        W 3854   7.057   6.316   4.099
 2858W        W 3855   3.846   5.932   3.574
 2859W        W 3856   2.180   2.997   4.593
 2860W        W 3857   0.756   5.867   3.995
 2861W        W 3858   2.167   2.165   2.726
 2862W        W 3859   2.196   6.363   5.360
 2863W        W 3860   7.108   2.334   3.280
 2864W        W 3861   2.960   6.846   5.463
 2865W        W 3862   0.327   2.790   2.198
 2866W        W 3863   7.167   4.106   7.091
 2867W        W 3864   5.959   0.614   4.057
 2868W        W 3865   2.154   6.892   3.582
 2869W        W 3866   4.243   2.491   6.016
 2870W        W 3867   6.322   6.558   2.635
 2871W        W 3868   7.923   4.945   1.125
 2872W        W 3869   4.316   3.270   4.004
 2873W        W 3870   6.573   3.085   4.370
 2874W        W 3871   6.797   1.387   7.029
 2875W        W 3872   2.569   0.411   3.784
 2876W        W 3873   3.914   6.485   2.084
 2877W        W 3874   7.236   2.293   2.779
 2878W        W 3875   3.168   7.648   3.762
 2879W        W 3876   0.334   2.711   3.755
 2880W        W 3877   5.561   3.277   3.957
 2881W        W 3878   3.117   4.185   4.171
 2882W        W 3879   5.304   4.717   6.749
 2883W        W 3880   3.620   2.309   3.311
 2884W        W 3881   7.165   4.149   5.527
 2885W        W 3882   3.485   4.368   4.477
 2886W        W 3883   3.869   6.869   1.050
 2887W        W 3884   6.395   6.234   3.472
 2888W        W 3885   2.479   6.057   5.655
 2889W        W 3886   7.166   2.753   2.978
 2890W        W 3887   7.230   1.672   6.266
 2891W        W 3888   2.824   2.266   4.418
 2892W        W 3889   7.452   7.380   6.377
 2893W        W 3890   4.670   1.428   7.649
 2894W        W 3891   5.381   1.862   0.741
 2895W        W 3892   7.500   4.338   6.306
 2896W        W 3893   1.641   5.816   6.001
 2897W        W 3894   0.874   3.850   1.289
 2898W        W 3895   7.587   3.444   5.145
 2899W        W 3896   3.902   3.996   5.093
 2900W        W 3897   6.041   1.018   7.447
 2901W        W 3898   6.656   6.641   3.562
 2902W        W 3899   3.909   1.235   4.646
 2903W        W 3900   7.222   1.883   2.484
 2904W        W 3901   7.368   5.896   4.217
 2905W        W 3902   2.110   4.950   1.572
 2906W        W 3903   1.955   3.123   5.041
 2907W        W 3904   5.430   3.332   5.431
 2908W        W 3905   3.523   2.939   4.394
 2909W        W 3906   1.255   1.461   6.716
 2910W        W 3907   3.780   4.456   3.555
 2911W        W 3908   1.162   6.666   1.270
 2912W        W 3909   5.391   0.398   3.248
 2913W        W 3910   3.029   3.155   4.414
 2914W        W 3911   2.437   1.001   3.155
 2915W        W 3912   6.423   1.852   6.345
 2916W        W 3913   0.147   3.055   1.567
 2917W        W 3914   6.910   3.021   2.115
 2918W        W 3915   5.103   5.817   0.115
 2919W        W 3916   0.653   0.607   3.113
 2920W        W 3917   1.087   1.385   3.272
 2921W        W 3918   2.302   2.287   4.786
 2922W        W 3919   3.214   1.321   3.901
 2923W        W 3920   6.295   7.345   4.448
 2924W        W 3921   6.236   6.124   7.403
 2925W        W 3922   4.535   3.650   6.862
 2926W        W 3923   4.682   5.289   2.296
 2927W        W 3924   3.682   6.351   4.939
 2928W        W 3925   1.417   2.257   6.434
 2929W        W 3926   5.554   6.012   1.549
 2930W        W 3927   0.448   4.524   7.941
 2931W        W 3928   0.628   5.475   2.513
 2932W        W 3929   4.500   2.509   4.277
 2933W        W 3930   2.966   1.037   3.017
 2934W        W 3931   6.610   1.559   5.028
 2935W        W 3932   0.249   4.239   2.383
 2936W        W 3933   5.939   4.127   3.948
 2937W        W 3934   4.536   4.693   3.986
 2938W        W 3935   7.198   0.582   3.688
 2939W        W 3936   5.431   5.805   6.165
 2940W        W 3937   2.011   0.684   7.666
 2941W        W 3938   6.747   6.754   4.037
 2942W        W 3939   2.837   4.313   5.394
 2943W        W 3940   3.400   1.225   4.771
 2944W        W 3941   0.999   4.894   7.017
 2945W        W 3942   7.310   6.303   1.499
 2946W        W 3943   6.737   1.418   2.847
 2947W        W 3944   0.341   4.052   3.369
 2948W        W 3945   7.607   5.020   3.806
 2949W        W 3946   7.768   5.582   1.816
 2950W        W 3947   4.557   0.894   6.241
 2951W        W 3948   1.573   0.517   6.481
 2952W        W 3949   7.091   5.178   1.705
 2953W        W 3950   3.237   5.640   5.760
 2954W        W 3951   1.878   2.632   4.884
 2955W        W 3952   3.958   4.690   7.166
 2956W        W 3953   3.262   0.876   3.637
 2957W        W 3954   6.097   6.211   0.892
 2958W        W 3955   1.570   2.943   2.725
 2959W        W 3956   3.354   0.771   7.268
 2960W        W 3957   1.639   4.136   0.369
 2961W        W 3958   4.579   6.392   1.562
 2962W        W 3959   5.149   3.650   1.883
 2963W        W 3960   6.884   4.878   4.254
 2964W        W 3961   7.091   1.838   0.040
 2965W        W 3962   3.243   1.463   6.567
 2966W        W 3963   6.976   6.021   4.535
 2967W        W 3964   6.449   5.781   1.916
 2968W        W 3965   0.833   3.503   2.603
 2969W        W 3966   7.441   6.149   3.119
 2970W        W 3967   6.777   5.603   6.631
 2971W        W 3968   2.054   4.193   7.121
 2972W        W 3969   0.647   6.629   2.962
 2973W        W 3970   7.489   4.967   5.593
 2974W        W 3971   5.929   5.093   5.683
 2975W        W 3972   0.298   4.204   2.885
 2976W        W 3973   7.956   2.474   5.398
 2977W        W 3974   3.856   1.491   6.310
 2978W        W 3975   4.940   7.045   5.708
 2979W        W 3976   5.840   1.862   5.623
 2980W        W 3977   4.275   5.514   6.516
 2981W        W 3978   0.138   1.380   7.595
 2982W        W 3979   1.511   3.351   4.065
 2983W        W 3980   3.067   6.701   6.420
 2984W        W 3981   2.115   6.294   4.437
 2985W        W 3982   5.375   1.612   2.232
 2986W        W 3983   2.279   7.012   0.941
 2987W        W 3984   6.228   0.740   0.474
 2988W        W 3985   5.972   2.557   3.596
 2989W        W 3986   4.984   2.112   5.643
 2990W        W 3987   3.578   5.172   0.197
 2991W        W 3988   5.853   5.844   5.921
 2992W        W 3989   7.212   4.934   7.627
 2993W        W 3990   4.410   3.247   6.127
 2994W        W 3991   1.012   6.822   2.675
 2995W        W 3992   7.487   4.870   6.140
 2996W        W 3993   5.637   3.518   1.515
 2997W        W 3994   5.478   0.608   5.075
 2998W        W 3995   3.309   2.598   5.714
 2999W        W 3996   4.896   2.338   2.120
 3000W        W 3997   7.361   1.501   2.787
 3001W        W 3998   4.342   2.711   4.700
 3002W        W 3999   2.661   3.393   3.487
 3003W        W 4000   1.086   0.538   3.390
 3004W        W 4001   0.330   1.245   1.080
 3005W        W 4002   7.196   4.497   4.953
 3006W        W 4003   4.344   1.656   5.830
 3007W        W 4004   7.124   1.570   4.936
 3008W        W 4005   6.988   7.528   6.566
 3009W        W 4006   1.006   6.108   3.607
 3010W        W 4007   6.261   6.313   6.427
 3011W        W 4008   6.288   1.156   3.442
 3012W        W 4009   3.782   2.330   6.251
 3013W        W 4010   0.785   1.885   5.336
 3014W        W 4011   7.593   2.633   2.650
 3015W        W 4012   3.343   1.021   0.571
 3016W        W 4013   3.450   6.899   5.602
 3017W        W 4014   1.059   6.373   4.822
 3018W        W 4015   3.371   5.943   1.694
 3019W        W 4016   1.683   6.884   3.929
 3020W        W 4017   0.448   3.477   4.255
 3021W        W 4018   4.483   6.177   5.957
 3022W        W 4019   7.975   4.119   4.020
 3023W        W 4020   2.776   0.704   1.927
 3024W        W 4021   7.938   0.851   3.136
 3025W        W 4022   5.970   6.786   5.053
 3026W        W 4023   4.498   1.688   1.369
 3027W        W 4024   5.044   2.083   6.142
 3028W        W 4025   6.216   3.915   6.937
 3029W        W 4026   5.355   7.718   6.520
 3030W        W 4027   5.927   6.745   6.366
 3031W        W 4028   5.978   3.618   0.734
 3032W        W 4029   2.554   2.149   3.108
 3033W        W 4030   4.661   3.319   1.143
 3034W        W 4031   6.442   6.612   5.114
 3035W        W 4032   4.515   3.806   3.388
 3036W        W 4033   5.691   4.626   5.186
 3037W        W 4034   3.013   7.303   0.634
 3038W        W 4035   1.927   3.040   6.845
 3039W        W 4036   6.014   2.802   5.746
 3040W        W 4037   5.207   6.337   0.754
 3041W        W 4038   1.389   6.766   4.966
 3042W        W 4039   7.653   2.663   4.250
 3043W        W 4040   2.871   2.692   1.510
 3044W        W 4041   5.666   6.094   2.194
 3045W        W 4042   3.564   3.730   1.784
 3046W        W 4043   5.364   1.252   0.151
 3047W        W 4044   4.736   3.551   4.891
 3048W        W 4045   4.266   6.899   5.425
 3049W        W 4046   2.510   4.948   2.529
 3050W        W 4047   4.966   2.710   5.427
 3051W        W 4048   6.003   6.688   1.046
 3052W        W 4049   2.702   2.980   0.643
 3053W        W 4050   1.855   2.597   7.113
 3054W        W 4051   1.889   2.677   5.371
 3055W        W 4052   6.109   7.532   3.743
 3056W        W 4053   1.852   3.963   7.544
 3057W        W 4054   7.360   2.946   3.946
 3058W        W 4055   0.990   4.575   5.135
 3059W        W 4056   0.797   4.668   3.782
 3060W        W 4057   7.230   2.032   6.660
 3061W        W 4058   5.452   5.304   3.567
 3062W        W 4059   3.684   1.654   1.382
 3063W        W 4060   3.047   1.703   0.467
 3064W        W 4061   6.200   4.282   4.401
 3065W        W 4062   4.683   4.593   6.395
 3066W        W 4063   5.979   3.625   6.585
 3067W        W 4064   6.547   2.070   7.257
 3068W        W 4065   6.060   2.244   5.997
 3069W        W 4066   5.103   2.784   2.197
 3070W        W 4067   2.388   0.030   0.691
 3071W        W 4068   5.167   6.763   2.660
 3072W        W 4069   5.864   5.310   7.353
 3073W        W 4070   0.912   2.229   7.085
 3074W        W 4071   5.654   2.937   3.438
 3075W        W 4072   5.747   7.206   6.170
 3076W        W 4073   4.689   7.153   5.277
 3077W        W 4074   4.059   7.200   2.466
 3078W        W 4075   2.137   5.689   5.805
 3079W        W 4076   3.309   4.473   5.377
 3080W        W 4077   5.825   6.840   1.869
 3081W        W 4078   4.459   2.882   7.445
 3082W        W 4079   6.313   3.755   2.987
 3083W        W 4080   4.102   2.891   4.244
 3084W        W 4081   3.262   4.219   6.407
 3085W        W 4082   6.977   2.352   3.765
 3086W        W 4083   7.355   4.807   0.189
 3087W        W 4084   6.808   4.242   5.180
 3088W        W 4085   0.537   1.401   3.358
 3089W        W 4086   2.554   4.792   6.807
 3090W        W 4087   4.909   6.879   6.190
 3091W        W 4088   2.322   3.396   6.846
 3092W        W 4089   2.476   6.342   6.982
 3093W        W 4090   3.500   6.398   2.349
 3094W        W 4091   5.027   5.906   7.055
 3095W        W 4092   0.933   6.687   0.810
 3096W        W 4093   7.209   1.106   3.969
 3097W        W 4094   6.468   1.951   0.575
 3098W        W 4095   1.868   6.488   3.636
 3099W        W 4096   2.819   5.235   0.883
 3100W        W 4097   1.900   3.427   6.532
 3101W        W 4098   3.979   3.483   4.947
 3102W        W 4099   7.325   1.061   6.942
 3103W        W 4100   4.052   1.966   3.806
 3104W        W 4101   4.991   6.415   6.362
 3105W        W 4102   1.631   3.977   2.748
 3106W        W 4103   2.621   0.621   2.458
 3107W        W 4104   7.857   4.660   7.098
 3108W        W 4105   4.524   7.805   5.972
 3109W        W 4106   5.165   3.914   6.099
 3110W        W 4107   6.447   1.972   1.640
 3111W        W 4108   1.060   2.519   0.506
 3112W        W 4109   3.084   3.142   1.606
 3113W        W 4110   1.875   4.595   4.240
 3114W        W 4111   2.580   3.341   0.299
 3115W        W 4112   0.759   6.255   2.035
 3116W        W 4113   2.334   2.768   5.028
 3117W        W 4114   0.082   2.461   2.609
 3118W        W 4115   2.185   2.697   3.265
 3119W        W 4116   4.735   3.296   6.538
 3120W        W 4117   7.807   6.118   2.274
 3121W        W 4118   0.557   3.763   2.965
 3122W        W 4119   4.081   5.795   2.639
 3123W        W 4120   7.883   4.623   3.932
 3124W        W 4121   2.499   1.327   3.559
 3125W        W 4122   1.073   5.004   7.836
 3126W        W 4123   4.530   7.007   2.300
 3127W        W 4124   6.446   2.494   1.771
 3128W        W 4125   7.914   2.357   3.929
 3129W        W 4126   4.537   5.220   5.603
 3130W        W 4127   7.965   6.319   6.168
 3131W        W 4128   7.552   3.915   4.209
 3132W        W 4129   1.795   6.154   5.636
 3133W        W 4130   7.312   2.014   1.611
 3134W        W 4131   6.291   4.863   1.158
 3135W        W 4132   5.119   1.706   4.268
 3136W        W 4133   2.394   2.863   1.548
 3137W        W 4134   4.222   0.776   5.806
 3138W        W 4135   6.924   3.506   2.297
 3139W        W 4136   1.682   6.330   6.103
 3140W        W 4137   3.570   3.629   3.751
 3141W        W 4138   3.355   2.045   2.068
 3142W        W 4139   2.444   1.010   1.648
 3143W        W 4140   2.649   1.001   5.505
 3144W        W 4141   1.649   4.714   6.482
 3145W        W 4142   2.119   1.708   5.223
 3146W        W 4143   5.025   1.415   2.524
 3147W        W 4144   5.343   1.693   7.012
 3148W        W 4145   5.958   4.054   4.800
 3149W        W 4146   0.566   7.025   0.939
 3150W        W 4147   5.023   7.048   2.216
 3151W        W 4148   3.260   5.648   4.758
 3152W        W 4149   6.117   6.632   7.318
 3153W        W 4150   6.660   6.912   2.771
 3154W        W 4151   7.347   1.188   1.373
 3155W        W 4152   0.385   2.199   7.020
 3156W        W 4153   0.873   3.319   5.849
 3157W        W 4154   7.985   4.006   1.665
 3158W        W 4155   6.718   1.542   4.164
 3159W        W 4156   3.586   7.387   5.386
 3160W        W 4157   4.670   0.494   6.572
 3161W        W 4158   1.266   1.967   5.430
 3162W        W 4159   6.235   4.404   6.824
 3163W        W 4160   6.714   0.839   3.674
 3164W        W 4161   3.488   7.171   3.219
 3165W        W 4162   1.705   3.785   4.556
 3166W        W 4163   0.028   2.011   6.105
 3167W        W 4164   5.673   1.344   6.865
 3168W        W 4165   4.523   6.375   3.774
 3169W        W 4166   0.427   3.623   5.842
 3170W        W 4167   5.244   5.174   4.581
 3171W        W 4168   1.075   1.929   6.241
 3172W        W 4169   1.023   6.308   2.836
 3173W        W 4170   2.752   5.885   7.199
 3174W        W 4171   7.375   1.017   2.514
 3175W        W 4172   2.257   4.599   1.249
 3176W        W 4173   0.880   1.960   2.140
 3177W        W 4174   2.719   0.603   2.980
 3178W        W 4175   6.745   1.509   6.136
 3179W        W 4176   0.678   6.470   2.481
 3180W        W 4177   5.149   0.999   4.876
 3181W        W 4178   3.381   3.084   2.724
 3182W        W 4179   2.787   0.784   3.454
 3183W        W 4180   7.887   3.928   6.461
 3184W        W 4181   1.353   7.618   1.088
 3185W        W 4182   5.385   2.937   6.549
 3186W        W 4183   1.671   4.298   7.885
 3187W        W 4184   7.949   2.971   2.519
 3188W        W 4185   6.647   2.116   3.366
 3189W        W 4186   4.928   3.773   6.508
 3190W        W 4187   2.063   2.483   6.315
 3191W        W 4188   7.369   6.481   3.510
 3192W        W 4189   4.361   2.203   2.781
 3193W        W 4190   6.777   0.814   1.328
 3194W        W 4191   3.725   3.177   2.309
 3195W        W 4192   6.843   1.694   6.616
 3196W        W 4193   2.024   0.994   4.103
 3197W        W 4194   5.524   3.750   4.200
 3198W        W 4195   6.612   2.036   0.092
 3199W        W 4196   4.474   3.297   3.501
 3200W        W 4197   3.094   5.737   1.320
 3201W        W 4198   6.884   4.232   0.756
 3202W        W 4199   3.204   3.963   5.479
 3203W        W 4200   1.220   3.843   0.443
 3204W        W 4201   1.297   6.164   5.797
 3205W        W 4202   4.348   2.996   2.828
 3206W        W 4203   7.682   4.502   1.029
 3207W        W 4204   0.762   3.267   4.603
 3208W        W 4205   4.447   4.791   4.475
 3209W        W 4206   2.882   3.031   7.745
 3210W        W 4207   4.854   4.697   2.273
 3211W        W 4208   5.196   4.405   2.959
 3212W        W 4209   5.377   7.255   2.518
 3213W        W 4210   4.956   5.168   3.407
 3214W        W 4211   3.268   3.297   4.010
 3215W        W 4212   5.351   1.267   4.421
 3216W        W 4213   1.411   0.197   1.061
 3217W        W 4214   5.130   2.602   0.783
 3218W        W 4215   4.527   7.978   6.481
 3219W        W 4216   6.017   2.215   1.773
 3220W        W 4217   5.664   1.264   1.963
   8.00000   8.00000   8.00000
