Martini system from ../2_Creating_coordinates/TYR-GLU-TYR_aa.pdb
 4207
    1TYR     BB    1   2.967   6.031   3.629 -0.0538  0.0579  0.2230
    1TYR    SC1    2   2.968   5.752   3.545  0.0028 -0.2237 -0.3064
    1TYR    SC2    3   2.917   5.488   3.561 -0.1037 -0.1877  0.0952
    1TYR    SC3    4   3.113   5.578   3.398  0.0039 -0.5208  0.0294
    2GLU     BB    5   3.057   6.216   3.786  0.0246  0.0005 -0.0138
    2GLU    SC1    6   3.458   6.160   3.846 -0.0625 -0.0766  0.2977
    3TYR     BB    7   3.065   6.540   3.721  0.1260  0.1265  0.1067
    3TYR    SC1    8   3.306   6.563   3.550 -0.1989 -0.0553 -0.4357
    3TYR    SC2    9   3.510   6.437   3.426  0.1771  0.0117  0.0722
    3TYR    SC3   10   3.483   6.705   3.405  0.0294 -0.0158 -0.1310
    1TYR     BB   11   7.334   5.072   2.841  0.1837 -0.0498 -0.1959
    1TYR    SC1   12   7.368   5.331   3.049 -0.3106 -0.1316 -0.0221
    1TYR    SC2   13   7.161   5.488   3.122 -0.2253 -0.2081  0.4172
    1TYR    SC3   14   7.404   5.523   3.235  0.0902  0.0538 -0.2729
    2GLU     BB   15   7.619   4.997   2.693  0.1680 -0.1798 -0.2338
    2GLU    SC1   16   7.641   5.231   2.422  0.2648 -0.1143  0.1132
    3TYR     BB   17   7.907   4.814   2.642  0.3743 -0.1794  0.2160
    3TYR    SC1   18   7.914   4.822   2.369  0.1325 -0.0431  0.0763
    3TYR    SC2   19   7.912   4.723   2.118 -0.1548 -0.0106  0.0617
    3TYR    SC3   20   7.972   4.982   2.160 -0.1252 -0.0114  0.0253
    1TYR     BB   21   0.387   6.738   2.142 -0.3858 -0.1070 -0.1921
    1TYR    SC1   22   0.568   6.797   2.371  0.4050  0.2519 -0.2492
    1TYR    SC2   23   0.789   6.923   2.461  0.3030  0.2884 -0.0424
    1TYR    SC3   24   0.643   6.770   2.629  0.1627  0.2766 -0.1727
    2GLU     BB   25   0.055   6.704   2.143  0.1094 -0.1676 -0.1729
    2GLU    SC1   26   0.048   6.655   1.739  0.0942 -0.0791 -0.1248
    3TYR     BB   27  -0.153   6.789   2.319  0.0809 -0.0511  0.1241
    3TYR    SC1   28  -0.378   6.636   2.438 -0.0893  0.1327 -0.0377
    3TYR    SC2   29  -0.415   6.387   2.535 -0.3516  0.1153 -0.1709
    3TYR    SC3   30  -0.627   6.551   2.500 -0.1774  0.3767 -0.0428
    1TYR     BB   31   0.255   7.158   1.773 -0.0183  0.0847 -0.1976
    1TYR    SC1   32  -0.050   7.114   1.839  0.1161  0.1756  0.0707
    1TYR    SC2   33  -0.294   7.047   1.747  0.1376  0.3454 -0.1163
    1TYR    SC3   34  -0.260   7.105   2.008  0.0894 -0.2115  0.0287
    2GLU     BB   35   0.322   7.421   1.729 -0.1347  0.2455 -0.3105
    2GLU    SC1   36   0.279   7.483   1.302 -0.3121 -0.0221 -0.3496
    3TYR     BB   37   0.533   7.672   1.821 -0.1639  0.0066 -0.0182
    3TYR    SC1   38   0.608   7.856   1.599  0.0522 -0.2757 -0.1087
    3TYR    SC2   39   0.769   7.855   1.383  0.1017  0.0534 -0.0795
    3TYR    SC3   40   0.526   7.972   1.369 -0.0527 -0.2540 -0.0611
    1TYR     BB   41   6.140   1.130   2.382  0.0972  0.2332 -0.2027
    1TYR    SC1   42   6.162   1.221   2.117 -0.0088 -0.3232 -0.0580
    1TYR    SC2   43   6.379   1.211   1.958  0.0348 -0.5589  0.0117
    1TYR    SC3   44   6.195   1.406   1.923  0.2795 -0.3256 -0.0157
    2GLU     BB   45   5.971   0.804   2.402  0.3013  0.0819 -0.0501
    2GLU    SC1   46   5.844   0.707   2.767 -0.0218  0.1402  0.1366
    3TYR     BB   47   5.634   0.850   2.332  0.2629  0.3467  0.0455
    3TYR    SC1   48   5.611   0.695   2.061 -0.0972 -0.1275  0.1070
    3TYR    SC2   49   5.592   0.443   1.967  0.0594 -0.1370  0.0974
    3TYR    SC3   50   5.608   0.650   1.795 -0.2461 -0.1029  0.1035
    1TYR     BB   51   5.898   0.308   1.048 -0.1708 -0.1935  0.1209
    1TYR    SC1   52   5.738   0.562   1.153 -0.0358 -0.0598  0.3439
    1TYR    SC2   53   5.546   0.712   1.038 -0.0156 -0.1255  0.2227
    1TYR    SC3   54   5.637   0.775   1.284 -0.3515 -0.2243  0.3792
    2GLU     BB   55   6.215   0.287   1.079 -0.1171  0.2241 -0.0601
    2GLU    SC1   56   6.420  -0.066   1.021  0.0610  0.3564 -0.1662
    3TYR     BB   57   6.476   0.469   1.106  0.0816  0.0103 -0.2356
    3TYR    SC1   58   6.547   0.559   0.798  0.1220  0.0867 -0.0911
    3TYR    SC2   59   6.708   0.640   0.597  0.1615 -0.3211 -0.2358
    3TYR    SC3   60   6.484   0.499   0.542 -0.1355  0.0428 -0.0210
    1TYR     BB   61   7.604   6.175   2.769 -0.1710  0.3761 -0.1045
    1TYR    SC1   62   7.864   6.017   2.823 -0.0806 -0.2240  0.2582
    1TYR    SC2   63   8.068   5.977   2.995 -0.0132 -0.0720  0.2152
    1TYR    SC3   64   8.102   5.927   2.731  0.0059  0.0609  0.1916
    2GLU     BB   65   7.729   6.332   2.475  0.1035  0.2357 -0.1485
    2GLU    SC1   66   7.516   6.236   2.164  0.1323  0.1796  0.1780
    3TYR     BB   67   7.960   6.393   2.490 -0.0835  0.1137 -0.2286
    3TYR    SC1   68   8.214   6.288   2.396 -0.3494 -0.2419 -0.0852
    3TYR    SC2   69   8.365   6.069   2.350 -0.1520 -0.0342 -0.4947
    3TYR    SC3   70   8.405   6.293   2.205 -0.3625  0.2729 -0.1015
    1TYR     BB   71   7.243   0.730   3.815  0.2053 -0.1321  0.0196
    1TYR    SC1   72   7.405   0.860   3.611 -0.2249 -0.1027  0.0252
    1TYR    SC2   73   7.484   0.853   3.353 -0.0607  0.2422  0.0598
    1TYR    SC3   74   7.649   0.954   3.542 -0.1910  0.0219  0.2985
    2GLU     BB   75   7.242   0.341   3.727 -0.1638  0.1955 -0.1321
    2GLU    SC1   76   6.866   0.278   3.758 -0.1573  0.1197 -0.0195
    3TYR     BB   77   7.449   0.343   3.578 -0.0867 -0.0475  0.0012
    3TYR    SC1   78   7.712   0.449   3.490 -0.0882  0.1455  0.1188
    3TYR    SC2   79   7.813   0.604   3.293 -0.1855  0.0601 -0.0005
    3TYR    SC3   80   7.964   0.544   3.509  0.0458 -0.1185 -0.2046
    1TYR     BB   81   7.498   4.463   3.021  0.1373  0.0311  0.1992
    1TYR    SC1   82   7.747   4.413   3.159 -0.2557 -0.0478 -0.0471
    1TYR    SC2   83   7.921   4.396   3.364 -0.1059 -0.1065 -0.1766
    1TYR    SC3   84   7.924   4.209   3.170 -0.3721 -0.1562 -0.1374
    2GLU     BB   85   7.389   4.582   2.798  0.2912 -0.1970  0.4890
    2GLU    SC1   86   7.033   4.565   2.553  0.2854  0.0640 -0.0391
    3TYR     BB   87   7.521   4.563   2.473  0.1968  0.4129  0.1425
    3TYR    SC1   88   7.485   4.419   2.223 -0.2724  0.1264 -0.0343
    3TYR    SC2   89   7.515   4.265   2.003 -0.2572  0.3475 -0.1915
    3TYR    SC3   90   7.284   4.258   2.142 -0.2058  0.0808 -0.1117
    1TYR     BB   91   1.316   6.855   3.411 -0.1875  0.1655 -0.0313
    1TYR    SC1   92   1.060   6.980   3.498  0.0959  0.0872  0.1125
    1TYR    SC2   93   0.917   7.060   3.713 -0.1537 -0.1146  0.0283
    1TYR    SC3   94   0.854   7.152   3.467 -0.0898 -0.1486 -0.0011
    2GLU     BB   95   1.208   6.711   3.132 -0.2012 -0.1164  0.0094
    2GLU    SC1   96   1.205   6.396   3.212 -0.1759  0.1325 -0.0056
    3TYR     BB   97   1.153   6.810   2.806  0.0826 -0.2383  0.2382
    3TYR    SC1   98   1.462   6.904   2.686 -0.2844 -0.2021 -0.0812
    3TYR    SC2   99   1.692   6.802   2.587  0.0450  0.0762  0.3507
    3TYR    SC3  100   1.648   7.068   2.578 -0.2456  0.0309  0.3169
    1TYR     BB  101   3.242   7.414   2.360  0.2956 -0.3062  0.2315
    1TYR    SC1  102   3.524   7.299   2.465  0.0333  0.0731 -0.1423
    1TYR    SC2  103   3.728   7.127   2.422 -0.1191 -0.1343 -0.0577
    1TYR    SC3  104   3.642   7.176   2.674  0.0117  0.1772 -0.0677
    2GLU     BB  105   2.914   7.310   2.431  0.1057 -0.1248  0.0735
    2GLU    SC1  106   2.862   7.252   2.013 -0.2349 -0.0039 -0.0710
    3TYR     BB  107   2.762   7.147   2.481  0.1044  0.2080 -0.0360
    3TYR    SC1  108   2.605   7.179   2.762 -0.3025 -0.4447 -0.0119
    3TYR    SC2  109   2.598   7.010   2.972 -0.0952  0.0707  0.4398
    3TYR    SC3  110   2.635   7.274   3.012 -0.0586  0.1962 -0.2582
    1TYR     BB  111   2.184   6.269   3.330  0.1838  0.2204  0.0895
    1TYR    SC1  112   2.199   5.938   3.371  0.1030  0.1291 -0.1116
    1TYR    SC2  113   2.139   5.723   3.522  0.0495  0.4013  0.2727
    1TYR    SC3  114   2.030   5.750   3.277 -0.4434  0.2889  0.4654
    2GLU     BB  115   1.922   6.323   3.300 -0.0187 -0.3776 -0.0712
    2GLU    SC1  116   1.654   6.029   3.388 -0.2275 -0.1279  0.0818
    3TYR     BB  117   1.711   6.625   3.240 -0.4616  0.2097  0.0158
    3TYR    SC1  118   1.908   6.801   3.102 -0.0620  0.0898  0.1522
    3TYR    SC2  119   2.169   6.844   3.047 -0.0080 -0.0824  0.2630
    3TYR    SC3  120   1.979   6.982   2.914  0.1380  0.0364  0.1726
    1TYR     BB  121   5.996   0.704   0.751 -0.2079  0.1843 -0.1970
    1TYR    SC1  122   6.151   0.809   0.985 -0.2652  0.2003 -0.0186
    1TYR    SC2  123   6.140   0.804   1.255 -0.0840  0.1668 -0.0107
    1TYR    SC3  124   6.338   0.939   1.129 -0.0278 -0.0143 -0.1222
    2GLU     BB  125   5.758   0.861   0.619 -0.0511 -0.0911  0.2923
    2GLU    SC1  126   5.594   0.717   0.288 -0.3826 -0.4405  0.1698
    3TYR     BB  127   5.641   1.070   0.668 -0.1219 -0.0103 -0.5485
    3TYR    SC1  128   5.528   1.315   0.554  0.2840  0.0201  0.0000
    3TYR    SC2  129   5.435   1.480   0.361 -0.1258 -0.1207  0.0646
    3TYR    SC3  130   5.516   1.582   0.597 -0.0116  0.0164 -0.0315
    1TYR     BB  131   0.805   0.652   3.680  0.0106 -0.0190  0.0616
    1TYR    SC1  132   1.086   0.733   3.626 -0.1832  0.0511  0.2970
    1TYR    SC2  133   1.306   0.641   3.753 -0.1771 -0.3804  0.0026
    1TYR    SC3  134   1.331   0.773   3.519 -0.2259 -0.2854  0.0504
    2GLU     BB  135   0.683   0.823   3.829  0.1873 -0.0602  0.1947
    2GLU    SC1  136   0.873   1.170   3.712  0.1384 -0.0701 -0.0689
    3TYR     BB  137   0.401   0.916   3.895  0.0321 -0.0913 -0.3671
    3TYR    SC1  138   0.389   0.816   4.195  0.0263  0.1827 -0.1373
    3TYR    SC2  139   0.422   0.861   4.459  0.1479 -0.1859 -0.0839
    3TYR    SC3  140   0.336   0.620   4.372 -0.3613  0.0729 -0.3583
    1TYR     BB  141   7.121   3.742   2.341 -0.0001  0.0195  0.1773
    1TYR    SC1  142   7.386   3.773   2.200 -0.0517 -0.0559  0.1599
    1TYR    SC2  143   7.611   3.840   2.066 -0.2156  0.0907 -0.0518
    1TYR    SC3  144   7.460   3.634   1.981 -0.1525 -0.0227  0.1041
    2GLU     BB  145   6.895   3.940   2.370 -0.0950  0.1237  0.0665
    2GLU    SC1  146   6.815   4.128   1.978 -0.2887 -0.0125 -0.1245
    3TYR     BB  147   7.002   4.137   2.719 -0.0058 -0.1452  0.0054
    3TYR    SC1  148   7.288   4.113   2.675 -0.0707  0.0695  0.0803
    3TYR    SC2  149   7.530   4.039   2.769 -0.2119 -0.3495  0.1436
    3TYR    SC3  150   7.490   4.065   2.503 -0.1513 -0.4940  0.1197
    1TYR     BB  151   7.450   2.642   1.798 -0.1284 -0.1349 -0.1165
    1TYR    SC1  152   7.229   2.769   1.646  0.1855  0.1693 -0.0780
    1TYR    SC2  153   7.102   2.958   1.502  0.1105  0.1482 -0.0401
    1TYR    SC3  154   7.029   2.699   1.479  0.1248  0.1400  0.0062
    2GLU     BB  155   7.703   2.468   1.726 -0.1739 -0.0322 -0.0582
    2GLU    SC1  156   7.689   2.553   1.336  0.1147 -0.0892  0.3040
    3TYR     BB  157   7.873   2.371   1.901 -0.1876 -0.0587  0.0218
    3TYR    SC1  158   8.099   2.171   1.892 -0.0070 -0.3184 -0.0315
    3TYR    SC2  159   8.332   2.140   1.759 -0.0445  0.0788 -0.2064
    3TYR    SC3  160   8.211   1.926   1.870  0.5223 -0.1065  0.1036
    1TYR     BB  161   6.365   2.565   2.220  0.1413  0.3297 -0.2135
    1TYR    SC1  162   6.295   2.865   2.239 -0.1981  0.0076 -0.1118
    1TYR    SC2  163   6.360   3.095   2.113 -0.1368 -0.1087 -0.2972
    1TYR    SC3  164   6.128   3.077   2.250  0.1200  0.2586  0.2288
    2GLU     BB  165   6.448   2.395   2.377 -0.0447  0.0092  0.0860
    2GLU    SC1  166   6.145   2.159   2.425  0.1151  0.1786 -0.3339
    3TYR     BB  167   6.688   2.295   2.435 -0.1497 -0.5872 -0.0386
    3TYR    SC1  168   6.810   2.337   2.711  0.0077  0.1014  0.2032
    3TYR    SC2  169   6.917   2.184   2.907 -0.0428 -0.1071  0.0725
    3TYR    SC3  170   6.916   2.453   2.931  0.3832 -0.1028  0.1425
    1TYR     BB  171   4.419   0.125   2.587  0.1617  0.2171 -0.0029
    1TYR    SC1  172   4.378   0.205   2.884  0.2560 -0.3139  0.1229
    1TYR    SC2  173   4.453   0.247   3.140  0.0710 -0.1644  0.1557
    1TYR    SC3  174   4.235   0.371   3.041  0.0923 -0.2853 -0.0517
    2GLU     BB  175   4.685   0.056   2.477 -0.1267  0.1218 -0.2137
    2GLU    SC1  176   4.633  -0.342   2.455 -0.2224  0.1648 -0.1615
    3TYR     BB  177   5.025   0.239   2.632  0.2910  0.2875 -0.2168
    3TYR    SC1  178   4.847   0.493   2.662  0.1765  0.0792 -0.0968
    3TYR    SC2  179   4.846   0.763   2.664  0.1641  0.0833 -0.3262
    3TYR    SC3  180   4.618   0.627   2.712  0.2123  0.1065 -0.0024
    1TYR     BB  181   5.727   2.300   3.347 -0.1360 -0.3322  0.1874
    1TYR    SC1  182   5.773   2.556   3.191  0.0963 -0.2662 -0.3427
    1TYR    SC2  183   5.760   2.717   2.975 -0.2191  0.0759 -0.0846
    1TYR    SC3  184   5.989   2.700   3.117 -0.0281 -0.1058 -0.4012
    2GLU     BB  185   5.847   2.056   3.341  0.0251 -0.0822 -0.0515
    2GLU    SC1  186   5.742   1.864   3.604  0.4037  0.0522 -0.0294
    3TYR     BB  187   6.081   1.913   3.240  0.1463  0.1188 -0.2809
    3TYR    SC1  188   6.202   2.070   3.049  0.0869  0.2914  0.2616
    3TYR    SC2  189   6.139   2.318   2.965  0.3301  0.2348 -0.1191
    3TYR    SC3  190   6.377   2.209   2.899  0.3089 -0.0308  0.2075
    1TYR     BB  191   1.244   7.004   2.234 -0.2362  0.0390  0.0925
    1TYR    SC1  192   1.146   7.184   2.467 -0.1916  0.0980  0.2123
    1TYR    SC2  193   1.017   7.348   2.639  0.0448  0.2386  0.2608
    1TYR    SC3  194   1.283   7.306   2.665 -0.0095 -0.1613  0.2526
    2GLU     BB  195   1.172   6.974   1.990  0.2790 -0.0677  0.2063
    2GLU    SC1  196   0.964   6.667   1.996  0.0474 -0.2126  0.1257
    3TYR     BB  197   1.283   6.992   1.662 -0.0074 -0.1252 -0.1145
    3TYR    SC1  198   1.003   7.150   1.566  0.2559  0.0334 -0.0397
    3TYR    SC2  199   0.767   7.133   1.697  0.1934 -0.6795 -0.1914
    3TYR    SC3  200   0.801   7.319   1.504  0.0346 -0.0899  0.3071
    1TYR     BB  201   2.319   6.656   4.057  0.1944 -0.4845  0.0413
    1TYR    SC1  202   2.272   6.841   4.313 -0.3664 -0.0582 -0.1154
    1TYR    SC2  203   2.285   6.953   4.558 -0.3751 -0.2389 -0.0302
    1TYR    SC3  204   2.059   6.975   4.412 -0.2678  0.1309 -0.1546
    2GLU     BB  205   2.167   6.651   3.879 -0.3870 -0.2243 -0.0700
    2GLU    SC1  206   1.799   6.733   3.951 -0.0675  0.1255  0.0647
    3TYR     BB  207   2.159   6.712   3.577 -0.0542 -0.2936 -0.0115
    3TYR    SC1  208   2.008   6.939   3.539  0.0566  0.0695  0.0450
    3TYR    SC2  209   1.972   7.204   3.498  0.1470  0.0763  0.0059
    3TYR    SC3  210   1.758   7.041   3.530  0.0919  0.1583  0.0586
    1TYR     BB  211   0.469   4.830   3.538  0.2070 -0.1497 -0.0873
    1TYR    SC1  212   0.608   4.986   3.329 -0.0214 -0.1297  0.0431
    1TYR    SC2  213   0.647   5.157   3.123 -0.0763 -0.2547 -0.0729
    1TYR    SC3  214   0.838   4.978   3.188  0.0088 -0.1090  0.0906
    2GLU     BB  215   0.211   4.873   3.747  0.3139 -0.0925  0.3505
    2GLU    SC1  216   0.406   4.937   4.035 -0.1036  0.0883 -0.2631
    3TYR     BB  217  -0.073   4.790   3.750  0.0416  0.1397 -0.0004
    3TYR    SC1  218  -0.345   4.726   3.871  0.1090 -0.1808 -0.0904
    3TYR    SC2  219  -0.570   4.580   3.848 -0.1084  0.1133  0.0750
    3TYR    SC3  220  -0.536   4.742   4.061  0.2319  0.1291  0.0154
    1TYR     BB  221   0.086   3.279   2.234 -0.0563  0.0159 -0.2296
    1TYR    SC1  222   0.263   3.449   2.023  0.1654 -0.0285  0.0318
    1TYR    SC2  223   0.344   3.667   1.886  0.0992  0.1044  0.1993
    1TYR    SC3  224   0.225   3.462   1.756  0.2572  0.1199  0.0247
    2GLU     BB  225   0.412   3.204   2.447  0.1326 -0.0243  0.0597
    2GLU    SC1  226   0.656   3.268   2.214 -0.1020  0.2046 -0.2756
    3TYR     BB  227   0.422   3.295   2.715  0.0771  0.0259  0.0292
    3TYR    SC1  228   0.158   3.288   2.884  0.1855  0.1626  0.2884
    3TYR    SC2  229  -0.097   3.251   2.963  0.0819  0.0337 -0.0854
    3TYR    SC3  230   0.101   3.108   3.076 -0.0290  0.0236  0.1007
    1TYR     BB  231   2.034   7.364   2.552  0.0265  0.1163  0.1044
    1TYR    SC1  232   2.172   7.414   2.818  0.1031  0.0250 -0.1595
    1TYR    SC2  233   2.187   7.336   3.076  0.5265 -0.3212 -0.2742
    1TYR    SC3  234   2.282   7.578   3.003 -0.1717  0.0632 -0.0239
    2GLU     BB  235   1.902   7.593   2.459 -0.0339  0.2072 -0.1505
    2GLU    SC1  236   1.949   7.642   2.119  0.0812  0.3262  0.1484
    3TYR     BB  237   1.602   7.732   2.530 -0.3531 -0.0275 -0.2437
    3TYR    SC1  238   1.491   7.828   2.263  0.0898 -0.0975 -0.0296
    3TYR    SC2  239   1.421   8.062   2.148 -0.1574 -0.1339  0.0391
    3TYR    SC3  240   1.526   7.864   1.998 -0.0315 -0.0130 -0.0353
    1TYR     BB  241   7.146   1.044   2.453  0.0348  0.2429  0.1593
    1TYR    SC1  242   7.399   1.148   2.532 -0.0095  0.1765  0.0174
    1TYR    SC2  243   7.436   1.412   2.571 -0.0734  0.1583  0.2132
    1TYR    SC3  244   7.594   1.234   2.698 -0.0209  0.1016  0.0705
    2GLU     BB  245   6.956   0.812   2.625  0.2464 -0.2764  0.1017
    2GLU    SC1  246   6.745   1.048   2.861  0.1176 -0.1604 -0.0277
    3TYR     BB  247   7.039   0.645   2.782 -0.0584 -0.4351  0.0556
    3TYR    SC1  248   7.067   0.711   3.100 -0.0360  0.0762 -0.0869
    3TYR    SC2  249   6.986   0.859   3.311  0.0580 -0.1669  0.1262
    3TYR    SC3  250   7.058   0.601   3.346 -0.1854 -0.2969 -0.2489
    1TYR     BB  251   7.284   3.364   3.327  0.0673 -0.0765 -0.0543
    1TYR    SC1  252   7.154   3.215   3.142  0.0466  0.2439  0.0372
    1TYR    SC2  253   7.136   3.138   2.884 -0.3432 -0.0584  0.1425
    1TYR    SC3  254   6.935   3.082   3.056 -0.0321  0.0120  0.5485
    2GLU     BB  255   7.550   3.360   3.472  0.0373  0.0381  0.1436
    2GLU    SC1  256   7.387   3.319   3.831  0.4235  0.2275 -0.1556
    3TYR     BB  257   7.797   3.444   3.440  0.1343  0.1234 -0.2320
    3TYR    SC1  258   7.975   3.688   3.557  0.0357  0.0549  0.0970
    3TYR    SC2  259   8.052   3.938   3.490 -0.3408  0.1799  0.1035
    3TYR    SC3  260   8.030   3.868   3.750 -0.0057  0.0581  0.1058
    1TYR     BB  261   7.297   1.134   0.690  0.0557 -0.0293 -0.0925
    1TYR    SC1  262   7.035   1.123   0.565  0.0895  0.1089 -0.2031
    1TYR    SC2  263   6.780   1.203   0.606  0.0840  0.0627 -0.1468
    1TYR    SC3  264   6.845   1.073   0.379  0.0356 -0.0172 -0.1156
    2GLU     BB  265   7.528   1.309   0.830 -0.0271  0.0813 -0.0287
    2GLU    SC1  266   7.652   1.640   0.602 -0.1208  0.4557  0.0174
    3TYR     BB  267   7.798   1.267   0.925  0.0844  0.0832  0.0307
    3TYR    SC1  268   7.798   1.351   1.243  0.1019  0.1475 -0.2419
    3TYR    SC2  269   7.944   1.509   1.406  0.1232 -0.1266  0.0155
    3TYR    SC3  270   7.892   1.254   1.476 -0.1020 -0.1707 -0.2844
    1TYR     BB  271   6.003   0.189   2.005 -0.0653 -0.1564  0.2758
    1TYR    SC1  272   6.028   0.391   1.771  0.0255 -0.3242 -0.1579
    1TYR    SC2  273   5.940   0.526   1.554 -0.2641 -0.1950  0.0320
    1TYR    SC3  274   6.204   0.487   1.591 -0.2049 -0.1280 -0.2874
    2GLU     BB  275   5.931   0.285   2.302 -0.0088  0.0115 -0.0070
    2GLU    SC1  276   5.866  -0.089   2.447 -0.1015  0.0141  0.1446
    3TYR     BB  277   5.622   0.357   2.438 -0.0468 -0.2801 -0.0460
    3TYR    SC1  278   5.424   0.142   2.285 -0.0296 -0.1167  0.0963
    3TYR    SC2  279   5.274  -0.079   2.242 -0.3065  0.1119 -0.1771
    3TYR    SC3  280   5.508  -0.046   2.111 -0.1638 -0.1018  0.0134
    1TYR     BB  281   6.295   0.662   2.087  0.0527  0.2207  0.1891
    1TYR    SC1  282   6.076   0.851   1.920 -0.1397  0.1550  0.1345
    1TYR    SC2  283   5.876   1.024   1.867  0.0725  0.3945  0.0893
    1TYR    SC3  284   6.048   0.952   1.672  0.0727  0.2423  0.1436
    2GLU     BB  285   6.537   0.800   2.178  0.3439  0.3477 -0.0104
    2GLU    SC1  286   6.474   0.666   2.525  0.2263  0.3942 -0.1460
    3TYR     BB  287   6.804   0.769   2.115  0.0084 -0.4416  0.1535
    3TYR    SC1  288   6.920   0.508   2.206 -0.0497 -0.0975  0.0144
    3TYR    SC2  289   6.930   0.346   2.422  0.3079  0.2051  0.2413
    3TYR    SC3  290   7.099   0.306   2.214 -0.2203 -0.2588 -0.1365
    1TYR     BB  291   5.948   2.569   0.640 -0.1128  0.3532  0.1206
    1TYR    SC1  292   6.123   2.714   0.425 -0.0045 -0.0619  0.1042
    1TYR    SC2  293   6.325   2.851   0.310  0.2846 -0.3763  0.2179
    1TYR    SC3  294   6.220   2.635   0.185 -0.1953 -0.0492  0.0202
    2GLU     BB  295   5.805   2.349   0.467  0.3325 -0.1114 -0.0674
    2GLU    SC1  296   5.724   2.526   0.129  0.1716  0.2291  0.0890
    3TYR     BB  297   5.734   2.058   0.603  0.2768  0.0028 -0.1259
    3TYR    SC1  298   5.464   1.970   0.758  0.0369  0.0487 -0.0305
    3TYR    SC2  299   5.261   2.072   0.905 -0.0247  0.0493 -0.1152
    3TYR    SC3  300   5.210   1.890   0.712  0.0209  0.2477 -0.3191
    1TYR     BB  301   7.252   2.918   2.200 -0.0488  0.2287  0.1423
    1TYR    SC1  302   7.031   2.728   2.099  0.0893  0.1732  0.0945
    1TYR    SC2  303   6.801   2.728   1.958  0.1655  0.2210 -0.0326
    1TYR    SC3  304   6.934   2.497   1.999  0.0000  0.1623  0.2040
    2GLU     BB  305   7.176   3.208   2.234 -0.1444 -0.1224  0.0572
    2GLU    SC1  306   6.949   3.220   1.890  0.1225 -0.2070 -0.0137
    3TYR     BB  307   6.912   3.312   2.429  0.0285 -0.0169 -0.3411
    3TYR    SC1  308   6.659   3.291   2.577 -0.0157  0.0990 -0.1487
    3TYR    SC2  309   6.545   3.215   2.809  0.0338  0.3081 -0.0537
    3TYR    SC3  310   6.413   3.180   2.577  0.1117 -0.1993 -0.0362
    1TYR     BB  311   3.046   7.411   3.781 -0.0604 -0.1026  0.2959
    1TYR    SC1  312   3.042   7.190   3.589  0.1505  0.1358 -0.1097
    1TYR    SC2  313   3.068   6.940   3.491  0.2431  0.0418  0.1418
    1TYR    SC3  314   2.901   7.115   3.372  0.2263 -0.1169 -0.0769
    2GLU     BB  315   2.843   7.505   3.956  0.0260 -0.0185  0.3081
    2GLU    SC1  316   2.944   7.595   4.290 -0.1123 -0.0808 -0.1166
    3TYR     BB  317   2.509   7.648   3.933 -0.0047 -0.0319  0.0784
    3TYR    SC1  318   2.564   7.903   4.098 -0.0294 -0.1868  0.3196
    3TYR    SC2  319   2.609   8.168   4.124  0.1740 -0.1817 -0.0170
    3TYR    SC3  320   2.622   8.007   4.341  0.1290  0.0690  0.1773
    1TYR     BB  321   0.061   0.811   1.616  0.1076  0.0889  0.2439
    1TYR    SC1  322  -0.022   0.530   1.486 -0.1070  0.0128 -0.0584
    1TYR    SC2  323   0.046   0.281   1.406  0.0596  0.0050  0.0979
    1TYR    SC3  324  -0.175   0.400   1.306  0.1954 -0.0459 -0.2834
    2GLU     BB  325  -0.107   0.958   1.732  0.1003  0.2771  0.0384
    2GLU    SC1  326  -0.344   0.830   2.001 -0.1100  0.1922 -0.2592
    3TYR     BB  327  -0.132   1.248   1.799 -0.3076  0.1424  0.2487
    3TYR    SC1  328   0.135   1.383   1.886  0.0323  0.0656 -0.1199
    3TYR    SC2  329   0.281   1.611   1.876  0.3328 -0.1269 -0.3362
    3TYR    SC3  330   0.248   1.482   2.110  0.0711  0.1850 -0.1905
    1TYR     BB  331   7.083   1.701   1.683  0.3279  0.1100 -0.1516
    1TYR    SC1  332   6.965   1.496   1.909 -0.0041  0.0134 -0.0393
    1TYR    SC2  333   6.789   1.334   2.036  0.0859  0.0841  0.1821
    1TYR    SC3  334   7.034   1.242   1.970 -0.0952 -0.0821 -0.3159
    2GLU     BB  335   6.866   1.772   1.458  0.3791 -0.1248  0.0903
    2GLU    SC1  336   7.056   1.917   1.158 -0.1955 -0.0089  0.0775
    3TYR     BB  337   6.592   1.784   1.563  0.2333  0.0168  0.0444
    3TYR    SC1  338   6.319   1.701   1.442  0.3505 -0.0818 -0.3624
    3TYR    SC2  339   6.055   1.713   1.387  0.2707 -0.0289 -0.0000
    3TYR    SC3  340   6.209   1.526   1.268  0.0665 -0.0810 -0.1919
    1TYR     BB  341   0.381   5.311   2.721 -0.2648 -0.1396 -0.0435
    1TYR    SC1  342   0.543   5.395   2.509  0.1672 -0.0685 -0.0416
    1TYR    SC2  343   0.633   5.643   2.452  0.2773 -0.0580  0.1666
    1TYR    SC3  344   0.794   5.429   2.417  0.1863 -0.1013 -0.0019
    2GLU     BB  345   0.195   5.479   2.857 -0.0926  0.0390 -0.2016
    2GLU    SC1  346   0.392   5.522   3.180 -0.0278  0.1619  0.1336
    3TYR     BB  347  -0.030   5.626   2.714  0.1704  0.0189 -0.1474
    3TYR    SC1  348   0.104   5.782   2.435 -0.1747  0.1469 -0.1261
    3TYR    SC2  349   0.248   5.932   2.262 -0.1802  0.1376 -0.1387
    3TYR    SC3  350   0.249   5.662   2.241  0.0096  0.1228  0.0233
    1TYR     BB  351   0.410   7.201   3.257 -0.0795 -0.1757  0.1461
    1TYR    SC1  352   0.274   7.524   3.211  0.1486  0.0651  0.1199
    1TYR    SC2  353   0.078   7.706   3.249  0.1117  0.0366  0.0666
    1TYR    SC3  354   0.323   7.787   3.171  0.2458  0.1194  0.5336
    2GLU     BB  355   0.326   7.041   3.583 -0.0986  0.0855 -0.1753
    2GLU    SC1  356   0.495   6.722   3.694 -0.1943  0.4229  0.0571
    3TYR     BB  357   0.143   7.143   3.815  0.2989 -0.0628 -0.3459
    3TYR    SC1  358   0.199   7.475   3.821 -0.0085  0.0386  0.0021
    3TYR    SC2  359   0.230   7.691   3.662  0.2860  0.0503  0.0668
    3TYR    SC3  360   0.061   7.702   3.872 -0.1502  0.0163 -0.2634
    1TYR     BB  361   6.512   0.186   2.234  0.0865 -0.1089 -0.2936
    1TYR    SC1  362   6.526   0.159   2.534 -0.0272  0.1181  0.2770
    1TYR    SC2  363   6.692   0.157   2.747  0.0408 -0.4701  0.2391
    1TYR    SC3  364   6.481  -0.011   2.738 -0.2230 -0.1448  0.0258
    2GLU     BB  365   6.553   0.182   1.976 -0.3371  0.1097 -0.0785
    2GLU    SC1  366   6.507  -0.224   1.876 -0.2828  0.2375 -0.3198
    3TYR     BB  367   6.752   0.366   1.807  0.0770  0.2588  0.0304
    3TYR    SC1  368   6.644   0.579   1.687  0.0489 -0.3285 -0.4294
    3TYR    SC2  369   6.583   0.839   1.727  0.7165 -0.1946 -0.1102
    3TYR    SC3  370   6.586   0.738   1.476 -0.3423 -0.1461 -0.1987
    1TYR     BB  371   1.097   7.435   1.938 -0.1588  0.0382 -0.1540
    1TYR    SC1  372   0.890   7.377   2.125  0.0230  0.3403 -0.1156
    1TYR    SC2  373   0.728   7.372   2.341  0.2042 -0.2667  0.0302
    1TYR    SC3  374   0.656   7.242   2.115  0.2593 -0.0948 -0.0887
    2GLU     BB  375   1.067   7.667   1.754  0.3073  0.1324 -0.3603
    2GLU    SC1  376   1.408   7.624   1.583 -0.4125 -0.2695  0.2102
    3TYR     BB  377   0.979   7.912   1.908  0.1958  0.2287 -0.0553
    3TYR    SC1  378   1.016   7.877   2.226 -0.1636 -0.0638  0.0571
    3TYR    SC2  379   1.116   7.711   2.414 -0.3441  0.0475  0.2571
    3TYR    SC3  380   0.908   7.872   2.473 -0.1415  0.3865  0.0859
    1TYR     BB  381   0.273   0.480   2.678 -0.2979 -0.3081  0.0425
    1TYR    SC1  382   0.432   0.527   2.397 -0.0509  0.0041  0.0708
    1TYR    SC2  383   0.547   0.732   2.264 -0.0145  0.0756  0.2092
    1TYR    SC3  384   0.617   0.477   2.208  0.1729  0.1154  0.2539
    2GLU     BB  385  -0.055   0.487   2.583  0.0838  0.2593  0.0541
    2GLU    SC1  386  -0.145   0.504   2.965  0.3666 -0.1749  0.2289
    3TYR     BB  387  -0.185   0.638   2.465 -0.0235 -0.2185  0.1127
    3TYR    SC1  388   0.049   0.865   2.323 -0.1622  0.0911 -0.4525
    3TYR    SC2  389   0.186   0.950   2.106  0.0506  0.4346 -0.1977
    3TYR    SC3  390   0.174   1.104   2.327  0.1996 -0.0791  0.1941
    1TYR     BB  391   4.763   7.535   2.931 -0.1816 -0.6469  0.2313
    1TYR    SC1  392   4.999   7.381   2.760 -0.0357 -0.0221 -0.1620
    1TYR    SC2  393   5.149   7.157   2.768 -0.0309 -0.0172 -0.1066
    1TYR    SC3  394   5.095   7.275   2.531 -0.0353 -0.0779 -0.1362
    2GLU     BB  395   4.489   7.344   2.957 -0.0198  0.1844  0.1436
    2GLU    SC1  396   4.423   7.102   3.244 -0.0804  0.0170 -0.0115
    3TYR     BB  397   4.231   7.290   2.766  0.0686 -0.0065 -0.0035
    3TYR    SC1  398   4.014   7.513   2.735  0.0931 -0.0171 -0.0050
    3TYR    SC2  399   3.937   7.773   2.738 -0.1426 -0.0838  0.0399
    3TYR    SC3  400   3.867   7.613   2.531 -0.1988 -0.1677  0.1228
    1TYR     BB  401   6.813   1.586   3.079 -0.1682 -0.1180  0.1634
    1TYR    SC1  402   7.092   1.657   3.005 -0.0891 -0.3575  0.1538
    1TYR    SC2  403   7.248   1.871   3.059 -0.4204 -0.1523  0.3380
    1TYR    SC3  404   7.360   1.642   2.972 -0.0663  0.1227  0.0252
    2GLU     BB  405   6.593   1.712   3.018  0.4389 -0.0053  0.1489
    2GLU    SC1  406   6.303   1.470   3.142  0.0394 -0.0203 -0.1451
    3TYR     BB  407   6.619   1.871   2.646  0.0144  0.1602 -0.2772
    3TYR    SC1  408   6.823   1.660   2.537  0.0836 -0.0593 -0.1548
    3TYR    SC2  409   6.980   1.508   2.379 -0.1399 -0.3178 -0.1389
    3TYR    SC3  410   6.936   1.436   2.635 -0.1471 -0.1521 -0.0915
    1TYR     BB  411   3.222   6.878   2.243 -0.0655  0.0853 -0.0433
    1TYR    SC1  412   3.085   6.755   2.510 -0.4158 -0.0438  0.1704
    1TYR    SC2  413   2.945   6.782   2.739 -0.1053 -0.0442  0.3676
    1TYR    SC3  414   3.015   6.536   2.652 -0.0745 -0.0348  0.3656
    2GLU     BB  415   3.495   6.709   2.256 -0.0610 -0.1828 -0.0241
    2GLU    SC1  416   3.528   6.676   1.875 -0.0046  0.1591 -0.4542
    3TYR     BB  417   3.718   6.488   2.438  0.0527 -0.2746  0.5647
    3TYR    SC1  418   3.490   6.302   2.517  0.3682 -0.3151  0.1363
    3TYR    SC2  419   3.296   6.126   2.454 -0.0323  0.2261 -0.2631
    3TYR    SC3  420   3.302   6.238   2.699  0.2573 -0.3401  0.0147
    1TYR     BB  421   0.339   0.775   1.129 -0.0369  0.1547 -0.0260
    1TYR    SC1  422   0.539   1.026   1.211 -0.0929 -0.2392  0.1613
    1TYR    SC2  423   0.675   1.258   1.217 -0.2719 -0.1081 -0.3043
    1TYR    SC3  424   0.666   1.102   1.437 -0.0469  0.2597 -0.0173
    2GLU     BB  425   0.076   0.782   1.087  0.1403 -0.1342  0.1156
    2GLU    SC1  426   0.059   0.827   0.674 -0.3059  0.0808 -0.0837
    3TYR     BB  427  -0.193   0.916   1.160  0.0011  0.3478  0.2281
    3TYR    SC1  428  -0.348   1.140   1.215 -0.0072 -0.3828  0.2857
    3TYR    SC2  429  -0.551   1.311   1.166  0.2184 -0.1763  0.0325
    3TYR    SC3  430  -0.356   1.379   1.340  0.0729 -0.3782  0.2826
    1TYR     BB  431   5.194   0.607   2.350 -0.0322  0.3374 -0.4062
    1TYR    SC1  432   5.127   0.426   2.156  0.1849 -0.1301  0.0958
    1TYR    SC2  433   5.126   0.336   1.902  0.4801 -0.3485  0.1644
    1TYR    SC3  434   4.997   0.197   2.095 -0.1507  0.0585  0.0738
    2GLU     BB  435   5.107   0.922   2.266 -0.0650  0.1214  0.0780
    2GLU    SC1  436   5.240   1.113   2.582 -0.1605 -0.1497  0.0239
    3TYR     BB  437   5.146   1.002   2.030 -0.3256 -0.0401 -0.1741
    3TYR    SC1  438   5.307   1.123   1.765  0.1139  0.0029  0.2547
    3TYR    SC2  439   5.275   1.189   1.505  0.1177  0.0011  0.2538
    3TYR    SC3  440   5.516   1.105   1.594  0.1038 -0.0465  0.2472
    1TYR     BB  441   1.209   0.193   4.414  0.0465 -0.2726 -0.1694
    1TYR    SC1  442   1.436   0.240   4.175  0.2417 -0.2518 -0.1314
    1TYR    SC2  443   1.460   0.068   3.969 -0.2065 -0.0395 -0.3772
    1TYR    SC3  444   1.563   0.317   3.950  0.1734 -0.1678 -0.1416
    2GLU     BB  445   1.098  -0.111   4.353 -0.1074  0.0302  0.3162
    2GLU    SC1  446   1.172  -0.282   4.705 -0.1452  0.1533 -0.1051
    3TYR     BB  447   1.074  -0.321   4.148 -0.0985 -0.0307 -0.1130
    3TYR    SC1  448   1.189  -0.275   3.882 -0.1616  0.1345  0.0926
    3TYR    SC2  449   1.352  -0.376   3.692 -0.3674 -0.2073  0.0869
    3TYR    SC3  450   1.169  -0.188   3.627 -0.1326  0.0155  0.0489
    1TYR     BB  451   4.964   1.446   1.836  0.1093 -0.4621 -0.0701
    1TYR    SC1  452   5.192   1.669   1.912 -0.1789 -0.0268  0.1086
    1TYR    SC2  453   5.381   1.862   1.920  0.1276 -0.3083 -0.0729
    1TYR    SC3  454   5.254   1.787   2.146  0.1338 -0.0237  0.0288
    2GLU     BB  455   4.761   1.614   1.787  0.0873 -0.3222 -0.1160
    2GLU    SC1  456   4.692   1.846   2.105 -0.0116 -0.0078 -0.0760
    3TYR     BB  457   4.651   1.750   1.572  0.0001  0.2003 -0.1484
    3TYR    SC1  458   4.768   1.750   1.261 -0.1412  0.3358  0.1503
    3TYR    SC2  459   4.876   1.903   1.067  0.1361 -0.0437 -0.0122
    3TYR    SC3  460   4.869   1.635   1.038  0.1941 -0.1142  0.5087
    1TYR     BB  461   2.686   6.903   3.809  0.2359 -0.0298 -0.1314
    1TYR    SC1  462   2.925   6.941   3.985  0.0234  0.1213 -0.2179
    1TYR    SC2  463   3.099   6.791   4.128 -0.1742  0.1822  0.0977
    1TYR    SC3  464   3.103   7.060   4.150 -0.0161  0.2129 -0.2413
    2GLU     BB  465   2.433   7.112   3.847  0.0210 -0.1360 -0.0875
    2GLU    SC1  466   2.419   7.149   3.438 -0.0167  0.2049 -0.1406
    3TYR     BB  467   2.178   7.149   3.966  0.0576 -0.1601  0.1382
    3TYR    SC1  468   2.051   7.411   3.888 -0.2223 -0.1555 -0.3763
    3TYR    SC2  469   2.006   7.669   3.957  0.1335 -0.1595 -0.0913
    3TYR    SC3  470   1.848   7.548   3.774 -0.1295  0.2124 -0.1231
    1TYR     BB  471   1.257   0.084   2.905 -0.2607  0.1123  0.1525
    1TYR    SC1  472   1.130  -0.132   3.064  0.3937 -0.2587  0.0784
    1TYR    SC2  473   1.185  -0.362   3.195  0.0235 -0.3676  0.0551
    1TYR    SC3  474   0.947  -0.331   3.071  0.0782  0.0200  0.0331
    2GLU     BB  475   1.174   0.324   2.947 -0.3954 -0.1841 -0.1293
    2GLU    SC1  476   1.376   0.524   2.647  0.1066 -0.0320 -0.0213
    3TYR     BB  477   1.086   0.551   3.097  0.1165  0.3263  0.0982
    3TYR    SC1  478   0.776   0.633   3.145 -0.0423 -0.3043  0.4933
    3TYR    SC2  479   0.561   0.785   3.087  0.2455 -0.0536 -0.0087
    3TYR    SC3  480   0.548   0.516   3.062 -0.0358 -0.0538  0.0897
    1TYR     BB  481   1.583   6.597   2.152  0.0900 -0.1323  0.2389
    1TYR    SC1  482   1.910   6.512   2.107  0.2405 -0.4508 -0.0022
    1TYR    SC2  483   2.109   6.600   1.947  0.2578  0.3152  0.3847
    1TYR    SC3  484   2.167   6.454   2.167  0.2990 -0.0958  0.1157
    2GLU     BB  485   1.429   6.445   2.329 -0.2033 -0.3513 -0.0643
    2GLU    SC1  486   1.262   6.139   2.070 -0.0227  0.0223 -0.1722
    3TYR     BB  487   1.102   6.540   2.418 -0.1418  0.0585 -0.4447
    3TYR    SC1  488   0.953   6.332   2.669  0.0683  0.1261  0.1209
    3TYR    SC2  489   0.788   6.417   2.865 -0.1751  0.3047 -0.1510
    3TYR    SC3  490   0.826   6.152   2.825 -0.0992  0.2654  0.1489
    1TYR     BB  491   4.562   0.532   1.291 -0.4377 -0.0624 -0.0277
    1TYR    SC1  492   4.318   0.313   1.256 -0.0314 -0.2012  0.1499
    1TYR    SC2  493   4.076   0.277   1.141  0.0208 -0.1694  0.0285
    1TYR    SC3  494   4.099   0.273   1.409 -0.1144 -0.1730  0.0410
    2GLU     BB  495   4.588   0.738   1.527 -0.1756 -0.0523 -0.0601
    2GLU    SC1  496   4.262   0.643   1.671 -0.0716  0.0632  0.0281
    3TYR     BB  497   4.815   0.831   1.739 -0.0855  0.0056 -0.0703
    3TYR    SC1  498   4.743   0.713   2.005 -0.0848 -0.2759 -0.1334
    3TYR    SC2  499   4.713   0.561   2.226 -0.0634  0.0158  0.0777
    3TYR    SC3  500   4.501   0.690   2.121 -0.0199  0.1071  0.1007
    1TYR     BB  501   7.366   2.082   1.939 -0.3693  0.1722 -0.2186
    1TYR    SC1  502   7.308   2.239   2.173 -0.1519  0.0933 -0.1203
    1TYR    SC2  503   7.441   2.443   2.290  0.1021 -0.0472 -0.1534
    1TYR    SC3  504   7.194   2.376   2.376  0.2279 -0.0643  0.2195
    2GLU     BB  505   7.489   1.853   1.941 -0.0047 -0.0386 -0.0769
    2GLU    SC1  506   7.572   1.748   1.607  0.1374  0.1691  0.1183
    3TYR     BB  507   7.407   1.635   2.162 -0.1099 -0.0473  0.1448
    3TYR    SC1  508   7.352   1.811   2.420 -0.0608 -0.0214  0.0480
    3TYR    SC2  509   7.206   1.949   2.600 -0.1760  0.2097 -0.2130
    3TYR    SC3  510   7.471   1.997   2.574 -0.0687 -0.1114  0.1643
    1TYR     BB  511   1.665   0.129   4.568 -0.1730 -0.2279  0.2648
    1TYR    SC1  512   1.881   0.275   4.459  0.1575 -0.2779  0.0213
    1TYR    SC2  513   1.969   0.373   4.224 -0.0783 -0.3155 -0.0862
    1TYR    SC3  514   2.146   0.304   4.416  0.1320 -0.5036 -0.3388
    2GLU     BB  515   1.635  -0.018   4.757  0.0724 -0.1526 -0.1498
    2GLU    SC1  516   1.362   0.223   4.980  0.0094 -0.4928 -0.1664
    3TYR     BB  517   1.679  -0.319   4.820  0.0860 -0.1624  0.1769
    3TYR    SC1  518   1.609  -0.555   4.620  0.1455 -0.2731  0.0716
    3TYR    SC2  519   1.407  -0.645   4.465  0.1496 -0.1429 -0.0110
    3TYR    SC3  520   1.647  -0.770   4.461  0.1423 -0.1546 -0.0911
    1TYR     BB  521   2.036   7.465   4.470 -0.0864  0.0990  0.2557
    1TYR    SC1  522   1.834   7.346   4.297 -0.1223  0.4288 -0.1365
    1TYR    SC2  523   1.690   7.176   4.145  0.1092  0.1133 -0.0158
    1TYR    SC3  524   1.568   7.383   4.267 -0.1754  0.0550 -0.1888
    2GLU     BB  525   2.286   7.456   4.448  0.0552 -0.0240  0.0341
    2GLU    SC1  526   2.474   7.620   4.711 -0.2955  0.1647 -0.0374
    3TYR     BB  527   2.499   7.314   4.332 -0.1945  0.2370 -0.0280
    3TYR    SC1  528   2.757   7.132   4.409  0.0916 -0.0338  0.0096
    3TYR    SC2  529   2.916   6.961   4.544  0.1523  0.0421  0.0348
    3TYR    SC3  530   2.710   6.866   4.399  0.0259 -0.0350  0.2583
    1TYR     BB  531   0.582   4.615   2.929  0.1528  0.2368 -0.0125
    1TYR    SC1  532   0.768   4.520   3.187  0.3241 -0.0258  0.1847
    1TYR    SC2  533   0.945   4.558   3.387  0.2286  0.0639  0.2538
    1TYR    SC3  534   0.713   4.427   3.434  0.3074 -0.1187  0.1463
    2GLU     BB  535   0.559   4.374   2.780  0.1815  0.3696  0.0984
    2GLU    SC1  536   0.831   4.209   2.562  0.1901 -0.0770  0.1542
    3TYR     BB  537   0.287   4.312   2.597 -0.0426 -0.1498  0.1829
    3TYR    SC1  538   0.387   4.198   2.339  0.1355  0.0080 -0.0407
    3TYR    SC2  539   0.310   4.160   2.083  0.1829  0.0370 -0.0594
    3TYR    SC3  540   0.537   4.297   2.137  0.2202 -0.0454 -0.0047
    1TYR     BB  541   7.605   2.375   3.673  0.0821  0.1841  0.0233
    1TYR    SC1  542   7.672   2.530   3.968  0.1532 -0.1209 -0.1615
    1TYR    SC2  543   7.622   2.758   4.105 -0.0016 -0.1919 -0.0977
    1TYR    SC3  544   7.871   2.652   4.105 -0.0435 -0.3139  0.3243
    2GLU     BB  545   7.580   2.110   3.693 -0.0639 -0.0089 -0.1083
    2GLU    SC1  546   7.862   2.092   3.989 -0.3157  0.1730  0.0501
    3TYR     BB  547   7.336   1.993   3.809 -0.1560  0.2341  0.1974
    3TYR    SC1  548   7.325   2.090   4.109 -0.0476 -0.0943 -0.0104
    3TYR    SC2  549   7.178   2.281   4.231 -0.2932 -0.2835 -0.0003
    3TYR    SC3  550   7.421   2.214   4.330  0.1132  0.4735 -0.3718
    1TYR     BB  551   2.969   7.582   2.946  0.0287 -0.1402 -0.3565
    1TYR    SC1  552   3.074   7.294   2.915 -0.3342 -0.0281 -0.3495
    1TYR    SC2  553   3.152   7.048   2.996  0.0835  0.2238  0.0814
    1TYR    SC3  554   3.214   7.135   2.748  0.1167 -0.0231 -0.0006
    2GLU     BB  555   2.959   7.734   3.291  0.2316 -0.0117  0.2412
    2GLU    SC1  556   3.198   7.870   3.461 -0.0754  0.3410  0.2133
    3TYR     BB  557   2.719   7.617   3.472 -0.2199 -0.0070 -0.1429
    3TYR    SC1  558   2.432   7.691   3.396 -0.0254  0.0412 -0.2481
    3TYR    SC2  559   2.206   7.630   3.531  0.0024 -0.1601 -0.2882
    3TYR    SC3  560   2.207   7.835   3.356  0.0204  0.2414  0.1574
    1TYR     BB  561   7.631   0.622   4.046 -0.3151 -0.2680  0.0533
    1TYR    SC1  562   7.498   0.399   4.181  0.1950  0.3165  0.4336
    1TYR    SC2  563   7.247   0.426   4.276 -0.1405  0.1864 -0.3198
    1TYR    SC3  564   7.389   0.203   4.331 -0.3623  0.0618 -0.2306
    2GLU     BB  565   7.549   0.918   4.147 -0.2461 -0.0789 -0.4084
    2GLU    SC1  566   7.211   0.892   4.301  0.4109 -0.0077 -0.0940
    3TYR     BB  567   7.415   1.236   3.953  0.0192 -0.0002 -0.0828
    3TYR    SC1  568   7.675   1.340   3.819  0.0999  0.1969  0.2536
    3TYR    SC2  569   7.768   1.582   3.746  0.1285  0.1313  0.0658
    3TYR    SC3  570   7.941   1.388   3.821  0.1094  0.1503  0.1607
    1TYR     BB  571   2.366   5.954   2.870  0.1399 -0.0538  0.1321
    1TYR    SC1  572   2.445   5.741   3.048 -0.0778  0.1254 -0.1333
    1TYR    SC2  573   2.540   5.667   3.290 -0.3416  0.2823  0.0248
    1TYR    SC3  574   2.397   5.492   3.142  0.0049  0.1130 -0.1233
    2GLU     BB  575   2.109   5.972   2.810  0.1026  0.1415 -0.2754
    2GLU    SC1  576   2.163   5.967   2.423  0.1828 -0.0860 -0.1000
    3TYR     BB  577   1.795   5.964   2.895 -0.1160 -0.2762 -0.1394
    3TYR    SC1  578   1.643   6.165   2.822 -0.1167 -0.1964  0.1070
    3TYR    SC2  579   1.554   6.418   2.851  0.0208 -0.1016 -0.2357
    3TYR    SC3  580   1.380   6.218   2.799 -0.0751 -0.0614 -0.0790
    1TYR     BB  581   0.990   0.246   3.924 -0.0112 -0.0048  0.3792
    1TYR    SC1  582   0.832  -0.004   3.880  0.0208 -0.0756 -0.3028
    1TYR    SC2  583   0.692  -0.219   3.798 -0.1724 -0.1676  0.2248
    1TYR    SC3  584   0.624  -0.093   4.027  0.1406  0.2627  0.0953
    2GLU     BB  585   0.839   0.415   4.113  0.0775 -0.0245 -0.0376
    2GLU    SC1  586   0.848   0.552   4.470 -0.0103 -0.0413 -0.2573
    3TYR     BB  587   0.454   0.391   3.936 -0.1462  0.1777 -0.4315
    3TYR    SC1  588   0.322   0.207   4.171  0.0260 -0.0376  0.0097
    3TYR    SC2  589   0.192   0.073   4.367 -0.0418  0.0771  0.0443
    3TYR    SC3  590   0.457   0.121   4.389 -0.0121 -0.0708  0.0205
    1TYR     BB  591   2.176   0.465   3.769 -0.0991 -0.1024  0.0670
    1TYR    SC1  592   2.490   0.430   3.670 -0.1710  0.0923 -0.1777
    1TYR    SC2  593   2.753   0.393   3.719 -0.2529 -0.2203  0.0676
    1TYR    SC3  594   2.669   0.456   3.470  0.0508 -0.1108 -0.0121
    2GLU     BB  595   2.200   0.798   3.938 -0.0944  0.1317  0.1073
    2GLU    SC1  596   2.239   1.193   3.804 -0.2893  0.1339 -0.2282
    3TYR     BB  597   2.214   0.874   4.248 -0.0779 -0.1275  0.2397
    3TYR    SC1  598   2.501   0.990   4.299  0.2218  0.0034  0.1482
    3TYR    SC2  599   2.758   0.919   4.340  0.1913 -0.0156  0.3141
    3TYR    SC3  600   2.701   1.150   4.213  0.2896 -0.1018  0.1076
    1TYR     BB  601   0.628   2.440   2.902  0.0414  0.1949  0.0423
    1TYR    SC1  602   0.554   2.144   2.907 -0.3993 -0.1236  0.0101
    1TYR    SC2  603   0.528   1.886   2.831 -0.1513 -0.1970  0.1610
    1TYR    SC3  604   0.496   1.955   3.090 -0.2032 -0.0775  0.1237
    2GLU     BB  605   0.392   2.584   3.080  0.2091  0.1908 -0.0121
    2GLU    SC1  606   0.599   2.915   3.087  0.1598  0.2327 -0.0376
    3TYR     BB  607   0.143   2.515   3.191  0.1658  0.0450  0.1757
    3TYR    SC1  608   0.089   2.207   3.207  0.1194  0.1023 -0.4592
    3TYR    SC2  609   0.063   1.941   3.247  0.0346  0.1478 -0.1845
    3TYR    SC3  610   0.017   2.046   3.002  0.1012 -0.0916 -0.3042
    1TYR     BB  611   3.737   0.255   3.232  0.0237  0.2049  0.0102
    1TYR    SC1  612   3.887  -0.034   3.241  0.0946  0.3258 -0.1709
    1TYR    SC2  613   4.148  -0.102   3.217 -0.0681 -0.3425 -0.3119
    1TYR    SC3  614   3.956  -0.290   3.192 -0.5812  0.1403 -0.2792
    2GLU     BB  615   3.492   0.198   3.015 -0.2475 -0.3391 -0.0476
    2GLU    SC1  616   3.567   0.574   2.841  0.2123 -0.1622  0.0825
    3TYR     BB  617   3.459  -0.055   2.877 -0.1374  0.0529 -0.1737
    3TYR    SC1  618   3.500  -0.297   3.070 -0.1103  0.1823 -0.3648
    3TYR    SC2  619   3.522  -0.492   3.255  0.2413 -0.1663 -0.7480
    3TYR    SC3  620   3.325  -0.309   3.275  0.0144 -0.4391 -0.2708
    1TYR     BB  621   1.369   6.884   5.042  0.2349 -0.0906  0.1692
    1TYR    SC1  622   1.354   6.648   4.838 -0.4595 -0.3425  0.3444
    1TYR    SC2  623   1.227   6.586   4.609  0.1570  0.2292 -0.2085
    1TYR    SC3  624   1.441   6.442   4.687 -0.0641  0.0227  0.0428
    2GLU     BB  625   1.605   6.819   5.254 -0.1496  0.0003 -0.0199
    2GLU    SC1  626   1.369   6.888   5.532 -0.1363 -0.1576 -0.0336
    3TYR     BB  627   1.866   6.961   5.379 -0.2303 -0.0752 -0.0195
    3TYR    SC1  628   2.078   6.719   5.263 -0.1377  0.1424 -0.2417
    3TYR    SC2  629   2.252   6.661   5.066  0.2201  0.0639  0.0824
    3TYR    SC3  630   2.149   6.463   5.217  0.0189  0.1303  0.0352
    1TYR     BB  631   5.643   2.004   1.521  0.1755 -0.1622  0.0883
    1TYR    SC1  632   5.870   1.965   1.695 -0.2235 -0.0252  0.2447
    1TYR    SC2  633   6.058   1.820   1.824  0.2084  0.1106 -0.1942
    1TYR    SC3  634   5.899   1.989   1.962 -0.0115 -0.4347  0.2684
    2GLU     BB  635   5.619   2.128   1.279  0.2995 -0.0884 -0.0120
    2GLU    SC1  636   5.306   2.413   1.340  0.0416  0.0543  0.1760
    3TYR     BB  637   5.782   2.333   1.140 -0.1745  0.2154  0.0748
    3TYR    SC1  638   5.737   2.669   1.223 -0.0470  0.1118  0.2041
    3TYR    SC2  639   5.734   2.880   1.391  0.0088  0.2229  0.0673
    3TYR    SC3  640   5.586   2.885   1.166  0.0781  0.1529  0.0194
    1TYR     BB  641   0.437   2.633   3.611  0.0415  0.0817 -0.3694
    1TYR    SC1  642   0.422   2.357   3.564 -0.1314 -0.0605 -0.0735
    1TYR    SC2  643   0.588   2.236   3.389  0.0286  0.0294  0.0141
    1TYR    SC3  644   0.416   2.088   3.535  0.2546 -0.1028  0.1547
    2GLU     BB  645   0.203   2.885   3.514 -0.0628  0.1429 -0.0398
    2GLU    SC1  646   0.263   3.131   3.808 -0.0083  0.1018  0.3697
    3TYR     BB  647  -0.116   2.869   3.587  0.0565  0.3329  0.2069
    3TYR    SC1  648  -0.288   2.848   3.338  0.4009  0.2570 -0.2108
    3TYR    SC2  649  -0.221   2.761   3.091 -0.0668 -0.1377 -0.2186
    3TYR    SC3  650  -0.476   2.740   3.177  0.1466 -0.3632  0.4367
    1TYR     BB  651   0.294   3.745   2.997  0.2936  0.1128 -0.0513
    1TYR    SC1  652   0.045   3.810   3.092 -0.0071  0.0284  0.2271
    1TYR    SC2  653  -0.100   4.001   3.217 -0.0841  0.1691 -0.0654
    1TYR    SC3  654  -0.215   3.766   3.150 -0.0603  0.1190  0.0642
    2GLU     BB  655   0.416   3.868   2.749 -0.1401  0.1330  0.1109
    2GLU    SC1  656   0.804   3.737   2.700 -0.1466 -0.0129  0.2229
    3TYR     BB  657   0.237   3.711   2.499 -0.0045 -0.0093  0.1389
    3TYR    SC1  658  -0.021   3.591   2.597  0.1687 -0.6219 -0.0366
    3TYR    SC2  659  -0.223   3.413   2.616 -0.2516 -0.1504  0.2207
    3TYR    SC3  660  -0.260   3.668   2.697  0.2292  0.1469 -0.3898
    1TYR     BB  661   5.143   0.360   1.026  0.2062 -0.2508  0.1558
    1TYR    SC1  662   5.161   0.522   0.782  0.3187 -0.2239 -0.3799
    1TYR    SC2  663   4.950   0.645   0.667  0.0267  0.0139  0.3355
    1TYR    SC3  664   5.173   0.786   0.728  0.2706 -0.1594 -0.0976
    2GLU     BB  665   5.374   0.161   1.072  0.0374 -0.4557 -0.0368
    2GLU    SC1  666   5.250  -0.038   0.731  0.0976 -0.1933  0.5591
    3TYR     BB  667   5.574  -0.119   1.092 -0.1839  0.0960 -0.0621
    3TYR    SC1  668   5.814  -0.151   1.263 -0.0872  0.2383 -0.0647
    3TYR    SC2  669   5.846  -0.127   1.530 -0.0756  0.1638 -0.0591
    3TYR    SC3  670   6.055  -0.083   1.364 -0.1295  0.3989 -0.0688
    1TYR     BB  671   6.080   2.652   2.614  0.0287 -0.0805 -0.0524
    1TYR    SC1  672   6.056   2.950   2.733  0.0218  0.0284 -0.1169
    1TYR    SC2  673   5.995   3.167   2.883  0.1730  0.1360 -0.2077
    1TYR    SC3  674   5.837   3.097   2.675  0.0152  0.0418 -0.0592
    2GLU     BB  675   5.832   2.594   2.436 -0.3295  0.1339  0.1259
    2GLU    SC1  676   5.486   2.547   2.629  0.2315  0.2726  0.0340
    3TYR     BB  677   5.697   2.706   2.170 -0.0077  0.2345 -0.1463
    3TYR    SC1  678   5.649   2.989   2.157  0.3335 -0.0186 -0.1673
    3TYR    SC2  679   5.721   3.249   2.147  0.0812  0.0586 -0.0809
    3TYR    SC3  680   5.470   3.176   2.080  0.0614 -0.1244  0.1748
    1TYR     BB  681   6.153   2.532   3.585  0.3399  0.2544 -0.3448
    1TYR    SC1  682   5.876   2.415   3.788  0.0875 -0.2484  0.0833
    1TYR    SC2  683   5.672   2.504   3.941  0.0552  0.1145 -0.1562
    1TYR    SC3  684   5.772   2.256   3.980 -0.1220  0.1002  0.2701
    2GLU     BB  685   6.278   2.339   3.452 -0.1244  0.0199 -0.0685
    2GLU    SC1  686   6.205   2.054   3.693 -0.3377 -0.1515  0.0528
    3TYR     BB  687   6.566   2.231   3.363  0.1254  0.0586 -0.1789
    3TYR    SC1  688   6.732   2.277   3.641  0.0642  0.0173 -0.2226
    3TYR    SC2  689   6.950   2.278   3.801  0.0330  0.0539 -0.1796
    3TYR    SC3  690   6.745   2.110   3.853  0.1563 -0.1613 -0.3663
    1TYR     BB  691   6.890   7.503   2.368 -0.1591  0.0225 -0.3715
    1TYR    SC1  692   6.622   7.356   2.386  0.1385  0.2055  0.1929
    1TYR    SC2  693   6.461   7.144   2.431  0.2376  0.0103 -0.2882
    1TYR    SC3  694   6.354   7.390   2.402  0.0899 -0.0207 -0.0482
    2GLU     BB  695   7.004   7.418   2.116  0.1032  0.0771 -0.1555
    2GLU    SC1  696   6.947   7.036   2.255  0.1493 -0.0778 -0.0260
    3TYR     BB  697   6.978   7.552   1.828 -0.1849  0.1550 -0.0448
    3TYR    SC1  698   7.240   7.562   1.662  0.1330  0.1779  0.1313
    3TYR    SC2  699   7.361   7.424   1.464 -0.0274  0.1777  0.0320
    3TYR    SC3  700   7.507   7.585   1.624  0.0943  0.2347 -0.1324
    1TYR     BB  701   1.272   0.259   3.455 -0.1440 -0.2629 -0.0247
    1TYR    SC1  702   0.912   0.195   3.383 -0.0345  0.0931 -0.0180
    1TYR    SC2  703   0.738  -0.012   3.399  0.0172  0.0612  0.1467
    1TYR    SC3  704   0.651   0.241   3.438  0.0449  0.0270  0.4713
    2GLU     BB  705   1.446   0.142   3.404  0.2395  0.1249  0.0096
    2GLU    SC1  706   1.728   0.395   3.468  0.2154 -0.2384  0.0621
    3TYR     BB  707   1.635  -0.083   3.385  0.2944  0.2074  0.6120
    3TYR    SC1  708   1.643  -0.323   3.193 -0.1081 -0.0110 -0.1829
    3TYR    SC2  709   1.569  -0.535   3.043  0.2261 -0.0539 -0.2987
    3TYR    SC3  710   1.670  -0.314   2.925  0.0515  0.1022 -0.1653
    1TYR     BB  711   2.456   6.483   4.612 -0.1139  0.1814 -0.1555
    1TYR    SC1  712   2.687   6.416   4.372 -0.1301  0.1288  0.2916
    1TYR    SC2  713   2.733   6.462   4.110 -0.0142 -0.2657  0.2352
    1TYR    SC3  714   2.940   6.422   4.278 -0.0776  0.1684  0.4330
    2GLU     BB  715   2.367   6.286   4.733 -0.1547  0.0385  0.0944
    2GLU    SC1  716   2.574   6.222   5.061 -0.1373  0.0167 -0.0054
    3TYR     BB  717   2.205   6.093   4.744  0.0709  0.1768 -0.3813
    3TYR    SC1  718   2.170   5.852   4.587 -0.1454 -0.2644  0.3936
    3TYR    SC2  719   2.275   5.606   4.553 -0.1378 -0.1807 -0.5096
    3TYR    SC3  720   2.036   5.666   4.445 -0.2116  0.1820 -0.1760
    1TYR     BB  721   5.495   2.334   1.842  0.0283 -0.4149  0.0200
    1TYR    SC1  722   5.767   2.418   1.772 -0.1435  0.5743  0.1012
    1TYR    SC2  723   5.965   2.467   1.596  0.0439 -0.3520 -0.0086
    1TYR    SC3  724   6.024   2.424   1.856 -0.0195 -0.5119 -0.0190
    2GLU     BB  725   5.470   2.261   2.173  0.5032 -0.2436 -0.1537
    2GLU    SC1  726   5.030   2.284   2.244  0.2203 -0.3058 -0.0177
    3TYR     BB  727   5.620   2.080   2.344  0.1223 -0.2428  0.4468
    3TYR    SC1  728   5.713   2.072   2.604 -0.1064  0.0791  0.0448
    3TYR    SC2  729   5.720   2.203   2.840 -0.4090 -0.0078  0.1068
    3TYR    SC3  730   5.778   1.939   2.830  0.2750  0.1255 -0.0295
    1TYR     BB  731   7.473   3.833   3.677  0.0026 -0.0076  0.1921
    1TYR    SC1  732   7.218   3.826   3.549 -0.0404  0.3754  0.0763
    1TYR    SC2  733   6.982   3.873   3.428  0.0118  0.0307 -0.1805
    1TYR    SC3  734   7.015   3.650   3.576  0.1815  0.0675 -0.1610
    2GLU     BB  735   7.590   4.126   3.686  0.0268 -0.3520 -0.4164
    2GLU    SC1  736   7.680   4.029   4.087 -0.0903 -0.0953 -0.1252
    3TYR     BB  737   7.423   4.376   3.564  0.1167  0.1304 -0.1684
    3TYR    SC1  738   7.161   4.327   3.369  0.0655  0.2063  0.1140
    3TYR    SC2  739   7.129   4.173   3.149  0.0354 -0.1570  0.3613
    3TYR    SC3  740   7.016   4.418   3.160  0.1111 -0.0935 -0.0563
    1TYR     BB  741   0.337   6.504   2.983 -0.0401  0.2622 -0.1629
    1TYR    SC1  742   0.529   6.706   3.089  0.1113 -0.2140 -0.1103
    1TYR    SC2  743   0.735   6.867   3.026  0.0759 -0.2052 -0.2047
    1TYR    SC3  744   0.743   6.722   3.253 -0.0541  0.2141  0.0837
    2GLU     BB  745   0.083   6.479   3.166  0.1650 -0.1028 -0.1158
    2GLU    SC1  746  -0.005   6.852   3.243 -0.2526 -0.1918  0.0154
    3TYR     BB  747   0.158   6.367   3.504  0.0234  0.0337  0.1000
    3TYR    SC1  748   0.185   6.079   3.413  0.3468 -0.0396 -0.2374
    3TYR    SC2  749   0.157   5.827   3.506 -0.1634  0.1752  0.2617
    3TYR    SC3  750   0.053   5.894   3.266 -0.2049 -0.0397  0.2169
    1TYR     BB  751   2.491   6.286   3.763 -0.0889  0.1762 -0.0148
    1TYR    SC1  752   2.493   5.992   3.780  0.3084 -0.0277 -0.0414
    1TYR    SC2  753   2.373   5.768   3.871  0.1116  0.0839 -0.0177
    1TYR    SC3  754   2.590   5.749   3.712  0.1855 -0.1196  0.1011
    2GLU     BB  755   2.603   6.428   3.562 -0.0507  0.3371 -0.1203
    2GLU    SC1  756   2.695   6.140   3.274  0.2698 -0.1088 -0.3973
    3TYR     BB  757   2.626   6.663   3.369 -0.1172  0.0987 -0.1062
    3TYR    SC1  758   2.567   6.596   3.113  0.1420  0.0822 -0.3563
    3TYR    SC2  759   2.693   6.442   2.931  0.1059 -0.4156  0.0132
    3TYR    SC3  760   2.423   6.450   2.936  0.1078 -0.2363 -0.0785
    1TYR     BB  761   0.624   1.109   2.524 -0.0069  0.0134  0.2526
    1TYR    SC1  762   0.712   0.869   2.656  0.0285  0.0549  0.1926
    1TYR    SC2  763   0.960   0.781   2.713  0.0410  0.0569  0.1420
    1TYR    SC3  764   0.767   0.605   2.642  0.1556  0.0959 -0.2988
    2GLU     BB  765   0.679   1.179   2.178 -0.1268 -0.0875  0.1360
    2GLU    SC1  766   1.056   1.234   2.293  0.0383  0.0083  0.2949
    3TYR     BB  767   0.561   1.137   1.906 -0.1391 -0.0313 -0.0209
    3TYR    SC1  768   0.557   0.858   1.763  0.0839 -0.2582  0.2029
    3TYR    SC2  769   0.458   0.609   1.735  0.2615 -0.3496  0.3581
    3TYR    SC3  770   0.722   0.654   1.701  0.2027 -0.1447  0.1386
    1TYR     BB  771   7.224   1.306   3.451 -0.0134  0.0219 -0.2770
    1TYR    SC1  772   7.252   1.217   3.164  0.0228  0.2344 -0.1286
    1TYR    SC2  773   7.178   1.242   2.906 -0.2034 -0.1852 -0.1152
    1TYR    SC3  774   7.333   1.035   2.982  0.1479  0.1193  0.0387
    2GLU     BB  775   7.191   1.627   3.518 -0.0612 -0.2452 -0.0561
    2GLU    SC1  776   7.038   1.651   3.912 -0.0088 -0.0592 -0.2151
    3TYR     BB  777   7.019   1.894   3.437 -0.0081 -0.3053  0.1777
    3TYR    SC1  778   7.085   2.200   3.385 -0.1186  0.0748  0.0302
    3TYR    SC2  779   7.175   2.437   3.478  0.1041 -0.0724  0.2031
    3TYR    SC3  780   7.290   2.325   3.261 -0.1986  0.1138 -0.0648
    1TYR     BB  781   3.724   6.120   2.929 -0.3707 -0.1081  0.1299
    1TYR    SC1  782   3.486   6.045   3.141  0.2076 -0.1105  0.2335
    1TYR    SC2  783   3.236   5.963   3.204  0.0333 -0.0535 -0.3208
    1TYR    SC3  784   3.435   5.942   3.386 -0.4277  0.1940  0.2537
    2GLU     BB  785   3.724   6.484   2.954 -0.3554  0.0521 -0.0872
    2GLU    SC1  786   3.955   6.492   3.304 -0.0045  0.0956  0.3413
    3TYR     BB  787   3.490   6.729   2.891 -0.0701 -0.0016 -0.0732
    3TYR    SC1  788   3.268   6.581   3.058  0.2541  0.0599  0.0369
    3TYR    SC2  789   3.026   6.626   3.170 -0.0292  0.0423 -0.5235
    3TYR    SC3  790   3.129   6.376   3.165  0.1654  0.0983 -0.0029
    1TYR     BB  791   2.240   6.185   4.160 -0.2490 -0.0613 -0.3990
    1TYR    SC1  792   2.469   6.003   4.250 -0.3723 -0.2169 -0.2489
    1TYR    SC2  793   2.667   5.860   4.366 -0.5472 -0.1453  0.1594
    1TYR    SC3  794   2.715   5.996   4.138 -0.1245 -0.1207  0.2518
    2GLU     BB  795   1.988   6.262   4.304  0.1523 -0.0391  0.0188
    2GLU    SC1  796   1.778   5.957   4.192  0.5698  0.0397 -0.1062
    3TYR     BB  797   1.932   6.476   4.360  0.1114 -0.1433 -0.1538
    3TYR    SC1  798   1.960   6.615   4.645  0.1509  0.1692  0.0599
    3TYR    SC2  799   1.888   6.808   4.819 -0.1786  0.0351  0.0813
    3TYR    SC3  800   1.852   6.548   4.883  0.1254 -0.0335 -0.0061
    1TYR     BB  801   5.512   1.351   2.166  0.0458 -0.2016  0.0812
    1TYR    SC1  802   5.616   1.498   1.872 -0.0398  0.0236 -0.0707
    1TYR    SC2  803   5.779   1.487   1.656 -0.1940 -0.1097 -0.1839
    1TYR    SC3  804   5.513   1.523   1.623 -0.2254 -0.1788 -0.0183
    2GLU     BB  805   5.702   1.375   2.353 -0.0468  0.1837 -0.1475
    2GLU    SC1  806   5.482   1.570   2.631 -0.2062 -0.1472  0.0116
    3TYR     BB  807   5.875   1.636   2.331 -0.0279  0.3726  0.0654
    3TYR    SC1  808   6.036   1.632   2.560 -0.1060 -0.0358 -0.0332
    3TYR    SC2  809   6.044   1.505   2.798 -0.2117  0.1117  0.0510
    3TYR    SC3  810   6.159   1.748   2.771 -0.1086  0.0500 -0.0783
    1TYR     BB  811   7.560   5.283   3.612 -0.0753 -0.0578 -0.2284
    1TYR    SC1  812   7.444   5.584   3.675  0.0879  0.1048 -0.1388
    1TYR    SC2  813   7.338   5.814   3.769 -0.4471 -0.3906  0.6258
    1TYR    SC3  814   7.198   5.661   3.596 -0.1007 -0.1852  0.1329
    2GLU     BB  815   7.256   5.123   3.557 -0.2392 -0.1140  0.0831
    2GLU    SC1  816   7.080   5.246   3.879 -0.2835 -0.0219  0.0515
    3TYR     BB  817   7.319   4.841   3.271  0.2731 -0.0799  0.0257
    3TYR    SC1  818   7.629   4.893   3.248 -0.1055 -0.0930  0.0045
    3TYR    SC2  819   7.865   4.842   3.126  0.0385 -0.1832  0.3071
    3TYR    SC3  820   7.780   5.097   3.156 -0.0061 -0.1595  0.0177
    1TYR     BB  821   6.640   3.446   3.236 -0.1569 -0.0609  0.0610
    1TYR    SC1  822   6.838   3.560   3.079 -0.3932  0.0569 -0.3677
    1TYR    SC2  823   6.945   3.557   2.832 -0.0562  0.3740 -0.2381
    1TYR    SC3  824   7.043   3.725   3.019  0.0343 -0.1926  0.2627
    2GLU     BB  825   6.756   3.209   3.520  0.2558  0.0336  0.2717
    2GLU    SC1  826   6.400   3.352   3.694 -0.3536 -0.2015 -0.3340
    3TYR     BB  827   7.040   3.059   3.591  0.0767 -0.2466 -0.1339
    3TYR    SC1  828   7.056   2.791   3.759 -0.4768 -0.2111  0.0045
    3TYR    SC2  829   7.079   2.829   4.026  0.0159 -0.1115 -0.0400
    3TYR    SC3  830   7.243   2.655   3.899  0.1071  0.1805 -0.3404
    1TYR     BB  831   0.251   2.966   1.733 -0.1366 -0.0011  0.1331
    1TYR    SC1  832   0.478   3.095   1.659  0.0021  0.0628 -0.2839
    1TYR    SC2  833   0.639   3.310   1.686 -0.0206  0.0616 -0.1280
    1TYR    SC3  834   0.740   3.077   1.594  0.1422 -0.0244  0.2451
    2GLU     BB  835   0.263   2.895   2.031  0.1162  0.4239 -0.1496
    2GLU    SC1  836   0.622   2.720   1.999  0.2069  0.0709 -0.2566
    3TYR     BB  837   0.187   2.695   2.215  0.1212 -0.1588 -0.0685
    3TYR    SC1  838   0.117   2.834   2.476 -0.0093 -0.1182  0.0441
    3TYR    SC2  839   0.097   2.835   2.745 -0.0719  0.1868  0.0439
    3TYR    SC3  840  -0.085   2.967   2.596 -0.3043 -0.3478 -0.1790
    1TYR     BB  841   0.215   2.367   2.667  0.2341 -0.1165 -0.0270
    1TYR    SC1  842  -0.075   2.438   2.742 -0.0234 -0.2494  0.0993
    1TYR    SC2  843  -0.287   2.599   2.695  0.0017 -0.3744 -0.5738
    1TYR    SC3  844  -0.326   2.349   2.790 -0.1066 -0.2634 -0.3131
    2GLU     BB  845   0.286   2.251   2.453  0.1726  0.0995 -0.2546
    2GLU    SC1  846   0.653   2.325   2.339  0.0085  0.1208 -0.1158
    3TYR     BB  847   0.300   1.975   2.293  0.2888  0.1204 -0.0221
    3TYR    SC1  848   0.248   1.766   2.471 -0.2455  0.1195 -0.2195
    3TYR    SC2  849   0.109   1.657   2.675 -0.2049  0.2082 -0.1441
    3TYR    SC3  850   0.292   1.509   2.543  0.0668  0.2653  0.1518
    1TYR     BB  851   0.195   7.181   2.305  0.1129 -0.3773 -0.2675
    1TYR    SC1  852   0.299   7.509   2.287 -0.1431  0.1582  0.1846
    1TYR    SC2  853   0.208   7.762   2.271  0.0598  0.2157 -0.2146
    1TYR    SC3  854   0.468   7.716   2.327 -0.0002  0.0887 -0.0316
    2GLU     BB  855   0.269   7.153   2.601 -0.2506  0.1440  0.2977
    2GLU    SC1  856   0.087   6.857   2.730  0.0483 -0.0936  0.1363
    3TYR     BB  857   0.520   7.230   2.783 -0.0554  0.1338  0.0678
    3TYR    SC1  858   0.594   7.536   2.853 -0.3172  0.0450  0.4974
    3TYR    SC2  859   0.591   7.787   2.753 -0.0100 -0.1004  0.0889
    3TYR    SC3  860   0.745   7.728   2.967  0.0403  0.0253  0.0882
    1TYR     BB  861   4.448   1.169   1.827  0.1493  0.3643 -0.0706
    1TYR    SC1  862   4.639   1.128   2.060 -0.0541 -0.0974 -0.1990
    1TYR    SC2  863   4.751   1.286   2.248 -0.2535  0.0433 -0.1945
    1TYR    SC3  864   4.648   1.047   2.317 -0.0558 -0.0402 -0.1807
    2GLU     BB  865   4.472   1.250   1.489 -0.4004  0.3351 -0.1059
    2GLU    SC1  866   4.250   1.576   1.408  0.2310  0.0819 -0.0415
    3TYR     BB  867   4.811   1.262   1.407  0.0275  0.3378 -0.3489
    3TYR    SC1  868   4.855   1.058   1.194  0.2332  0.0006  0.3261
    3TYR    SC2  869   4.907   0.806   1.113  0.0777  0.0545  0.0458
    3TYR    SC3  870   4.773   0.976   0.951 -0.0117  0.2521  0.3175
    1TYR     BB  871   7.261   0.398   1.795 -0.0957  0.3117 -0.0528
    1TYR    SC1  872   7.552   0.342   1.927 -0.0458 -0.4790 -0.1095
    1TYR    SC2  873   7.815   0.320   1.871  0.0205  0.1576 -0.1367
    1TYR    SC3  874   7.727   0.519   2.031 -0.4353 -0.1483  0.0168
    2GLU     BB  875   7.116   0.592   1.603 -0.0283  0.0105 -0.2249
    2GLU    SC1  876   6.959   0.325   1.381  0.2715  0.0331  0.3609
    3TYR     BB  877   7.031   0.904   1.571 -0.0185 -0.2832 -0.4744
    3TYR    SC1  878   6.933   0.873   1.250 -0.1207  0.0573  0.0042
    3TYR    SC2  879   6.776   0.933   1.039 -0.2611 -0.2350  0.0191
    3TYR    SC3  880   6.976   0.754   1.011  0.1307  0.1845 -0.0183
    1TYR     BB  881   0.472   1.384   2.980 -0.0333  0.0387 -0.0316
    1TYR    SC1  882   0.299   1.144   2.944 -0.2552  0.1981 -0.2165
    1TYR    SC2  883   0.260   0.918   2.802 -0.0539  0.1225 -0.1556
    1TYR    SC3  884   0.142   0.949   3.042 -0.0410  0.0592 -0.1410
    2GLU     BB  885   0.760   1.353   3.060 -0.0861  0.1382  0.2288
    2GLU    SC1  886   1.004   1.077   3.209 -0.1744 -0.2268  0.1205
    3TYR     BB  887   0.988   1.449   2.799  0.1230 -0.0046 -0.0292
    3TYR    SC1  888   0.848   1.662   2.583  0.0743 -0.1872 -0.0599
    3TYR    SC2  889   0.880   1.840   2.383 -0.4023 -0.1085 -0.0817
    3TYR    SC3  890   0.737   1.614   2.341  0.2540 -0.5602 -0.0780
    1TYR     BB  891   5.608   1.637   1.174 -0.0832 -0.0445 -0.0968
    1TYR    SC1  892   5.310   1.723   1.228  0.1118 -0.0511 -0.1111
    1TYR    SC2  893   5.147   1.597   1.402  0.1625 -0.0299 -0.0476
    1TYR    SC3  894   5.161   1.866   1.402  0.0718 -0.0241 -0.1670
    2GLU     BB  895   5.581   1.321   1.113 -0.1582  0.1151  0.0158
    2GLU    SC1  896   5.885   1.232   1.269  0.2576  0.1799  0.1574
    3TYR     BB  897   5.321   1.183   1.024 -0.0600 -0.2217  0.2806
    3TYR    SC1  898   5.143   1.319   0.800  0.0265 -0.1224 -0.5261
    3TYR    SC2  899   5.021   1.476   0.618 -0.0364 -0.1421 -0.5015
    3TYR    SC3  900   4.992   1.208   0.605 -0.2118 -0.1332 -0.3414
    1TYR     BB  901   4.948   7.596   1.527  0.0463 -0.0439 -0.1182
    1TYR    SC1  902   4.751   7.804   1.609  0.0876 -0.1964  0.3189
    1TYR    SC2  903   4.482   7.801   1.626  0.0317  0.0650 -0.2544
    1TYR    SC3  904   4.626   7.958   1.792 -0.1470 -0.1658  0.1378
    2GLU     BB  905   5.291   7.616   1.535 -0.2266 -0.3771 -0.0867
    2GLU    SC1  906   5.480   7.275   1.710  0.0146  0.0682  0.0887
    3TYR     BB  907   5.553   7.878   1.533  0.2094  0.3119  0.1391
    3TYR    SC1  908   5.359   8.120   1.476 -0.1709 -0.1521  0.1107
    3TYR    SC2  909   5.090   8.142   1.466 -0.1540  0.0314 -0.0101
    3TYR    SC3  910   5.243   8.364   1.479  0.0000 -0.0610 -0.1919
    1TYR     BB  911   6.382   1.728   2.183 -0.4447 -0.1009 -0.5182
    1TYR    SC1  912   6.444   1.512   2.395 -0.2562 -0.1903 -0.0580
    1TYR    SC2  913   6.577   1.280   2.429 -0.0180 -0.0421  0.0528
    1TYR    SC3  914   6.459   1.400   2.640 -0.2346 -0.1135 -0.0241
    2GLU     BB  915   6.492   1.951   2.116 -0.0502 -0.0774 -0.3325
    2GLU    SC1  916   6.914   1.953   2.144  0.0012 -0.1684  0.0010
    3TYR     BB  917   6.525   2.178   1.932  0.2069 -0.0676  0.1290
    3TYR    SC1  918   6.711   2.234   1.708  0.1227 -0.2438  0.1371
    3TYR    SC2  919   6.976   2.205   1.667  0.0670 -0.3147 -0.2123
    3TYR    SC3  920   6.818   2.297   1.468 -0.1619 -0.1973  0.0169
    1TYR     BB  921   1.943   6.957   2.188 -0.2093 -0.1894 -0.0888
    1TYR    SC1  922   1.729   7.213   2.117  0.0179  0.0829  0.1501
    1TYR    SC2  923   1.621   7.351   1.912  0.0927 -0.0504  0.0190
    1TYR    SC3  924   1.526   7.386   2.162  0.0089  0.1226 -0.0347
    2GLU     BB  925   2.185   6.961   2.308 -0.3016 -0.1475 -0.0476
    2GLU    SC1  926   2.364   6.997   1.977 -0.1064 -0.1954 -0.0841
    3TYR     BB  927   2.324   6.784   2.516  0.1299  0.0144 -0.2673
    3TYR    SC1  928   2.119   6.590   2.600 -0.2443  0.0531 -0.3941
    3TYR    SC2  929   1.980   6.496   2.811 -0.0515  0.0645 -0.2580
    3TYR    SC3  930   1.898   6.440   2.560 -0.4749  0.3239 -0.1914
    1TYR     BB  931   6.481   2.696   2.861 -0.0960 -0.0755 -0.0952
    1TYR    SC1  932   6.640   2.798   2.618 -0.0985 -0.0184 -0.0705
    1TYR    SC2  933   6.906   2.796   2.570  0.0059  0.5171  0.3606
    1TYR    SC3  934   6.734   2.871   2.376  0.1583  0.1849  0.0837
    2GLU     BB  935   6.523   2.702   3.159 -0.1500 -0.1325  0.0833
    2GLU    SC1  936   6.359   3.044   3.228 -0.1151 -0.3357 -0.0046
    3TYR     BB  937   6.711   2.714   3.381 -0.0372  0.0538 -0.2842
    3TYR    SC1  938   6.549   2.774   3.643 -0.1375 -0.0336 -0.0857
    3TYR    SC2  939   6.390   2.908   3.815 -0.0591 -0.3542  0.2525
    3TYR    SC3  940   6.625   2.805   3.900  0.2252 -0.1001 -0.1774
    1TYR     BB  941   6.643   1.424   1.055  0.0608 -0.2397 -0.3511
    1TYR    SC1  942   6.631   1.306   1.342  0.0188  0.3131 -0.0874
    1TYR    SC2  943   6.664   1.284   1.609  0.1497 -0.0275 -0.1249
    1TYR    SC3  944   6.426   1.223   1.497  0.1024  0.0906 -0.0901
    2GLU     BB  945   6.530   1.714   0.975  0.1641  0.2321  0.1653
    2GLU    SC1  946   6.519   1.644   0.644  0.2058 -0.1408 -0.0938
    3TYR     BB  947   6.573   1.959   1.073 -0.1232 -0.0434  0.0655
    3TYR    SC1  948   6.413   2.124   1.261 -0.2925 -0.1581  0.1420
    3TYR    SC2  949   6.280   2.161   1.493  0.0239 -0.0240  0.3082
    3TYR    SC3  950   6.357   2.374   1.346  0.0258 -0.1008  0.1966
    1TYR     BB  951   2.891   5.971   2.869 -0.1574 -0.0695  0.2201
    1TYR    SC1  952   2.872   5.663   2.882  0.1446  0.1270 -0.2932
    1TYR    SC2  953   2.816   5.428   3.002 -0.2205  0.1072 -0.4833
    1TYR    SC3  954   2.972   5.433   2.781  0.2124  0.1121 -0.1935
    2GLU     BB  955   2.798   6.049   2.586  0.0983 -0.3731  0.0925
    2GLU    SC1  956   2.945   5.752   2.378  0.3465  0.0367  0.0963
    3TYR     BB  957   2.542   6.231   2.513  0.0656  0.0023 -0.0081
    3TYR    SC1  958   2.685   6.469   2.339 -0.0890 -0.2205 -0.1451
    3TYR    SC2  959   2.755   6.711   2.242 -0.1299 -0.0329  0.2639
    3TYR    SC3  960   2.601   6.545   2.094 -0.0442  0.1568 -0.0513
    1TYR     BB  961   7.560   7.250   3.018 -0.0758  0.2474 -0.3073
    1TYR    SC1  962   7.421   7.323   3.297  0.0299 -0.0745  0.0920
    1TYR    SC2  963   7.437   7.212   3.543  0.1120  0.1156  0.1742
    1TYR    SC3  964   7.456   7.480   3.513 -0.1249  0.1159 -0.0169
    2GLU     BB  965   7.467   7.360   2.800  0.0414  0.0346  0.1651
    2GLU    SC1  966   7.733   7.623   2.725 -0.0152  0.2018 -0.0712
    3TYR     BB  967   7.324   7.248   2.483 -0.0637  0.0534  0.1099
    3TYR    SC1  968   7.467   7.442   2.305  0.0083 -0.2980 -0.1565
    3TYR    SC2  969   7.537   7.519   2.056 -0.0260 -0.2583 -0.1539
    3TYR    SC3  970   7.450   7.702   2.234  0.1646 -0.2592 -0.0577
    1TYR     BB  971   2.652   1.250   4.703  0.2089 -0.0105  0.0739
    1TYR    SC1  972   2.502   1.431   4.483 -0.2154  0.0823  0.2009
    1TYR    SC2  973   2.359   1.410   4.255  0.0225 -0.2153  0.0700
    1TYR    SC3  974   2.517   1.625   4.295 -0.2648 -0.0025  0.1080
    2GLU     BB  975   2.417   1.093   4.807 -0.2489  0.1128 -0.2297
    2GLU    SC1  976   2.522   1.056   5.186  0.0325  0.0504 -0.1298
    3TYR     BB  977   2.374   0.811   4.760  0.2116 -0.2033  0.1629
    3TYR    SC1  978   2.107   0.619   4.743  0.1543  0.1282 -0.0718
    3TYR    SC2  979   1.871   0.562   4.861  0.2301  0.2395  0.1401
    3TYR    SC3  980   1.876   0.688   4.622  0.0757  0.1921  0.1109
    1TYR     BB  981   6.030   1.342   0.812  0.0152  0.1005  0.1854
    1TYR    SC1  982   6.275   1.186   0.725  0.2495  0.2172  0.0154
    1TYR    SC2  983   6.444   0.975   0.732  0.0189  0.0307  0.1538
    1TYR    SC3  984   6.356   1.070   0.495  0.2026  0.0383  0.0867
    2GLU     BB  985   6.005   1.641   0.821 -0.2920  0.1987  0.3609
    2GLU    SC1  986   6.019   1.697   0.426  0.0375  0.1716  0.1641
    3TYR     BB  987   6.050   1.878   0.958  0.1726 -0.2279 -0.1268
    3TYR    SC1  988   6.204   2.058   0.785 -0.1892  0.2678  0.0569
    3TYR    SC2  989   6.330   2.297   0.784  0.2348  0.0559  0.0442
    3TYR    SC3  990   6.288   2.166   0.552  0.0967  0.0683  0.0610
    1TYR     BB  991   3.508   6.546   4.191  0.0235  0.1693  0.2282
    1TYR    SC1  992   3.464   6.792   4.362 -0.3457  0.1275 -0.4746
    1TYR    SC2  993   3.363   6.997   4.507 -0.1503 -0.0420 -0.0797
    1TYR    SC3  994   3.532   7.046   4.302 -0.1143  0.1927  0.0026
    2GLU     BB  995   3.626   6.735   3.879  0.0972  0.1135  0.1834
    2GLU    SC1  996   3.900   6.999   3.956 -0.1159 -0.1132 -0.0367
    3TYR     BB  997   3.456   7.016   3.805  0.2821 -0.0601  0.0298
    3TYR    SC1  998   3.584   7.287   3.721  0.1152  0.1673  0.0268
    3TYR    SC2  999   3.748   7.439   3.570 -0.3506  0.3565 -0.3181
    3TYR    SC3 1000   3.502   7.528   3.634 -0.3446  0.0720  0.1647
    4W        W 1001   6.879   5.121   5.289 -0.5022 -0.2579 -0.1465
    5W        W 1002   1.355   2.891   1.297 -0.1023 -0.0789 -0.1745
    6W        W 1003   6.799   5.896   7.042  0.2780  0.1999  0.0230
    7W        W 1004   0.495   5.382   1.908  0.1533 -0.2767  0.1409
    8W        W 1005   3.988   0.604   7.089  0.3190  0.2317  0.1847
    9W        W 1006   1.473   1.661   5.375  0.2892 -0.0813  0.1172
   10W        W 1007   2.475   6.713   0.413 -0.4837  0.0610 -0.1312
   11W        W 1008   2.959   6.619   7.535 -0.1415  0.0500  0.2146
   12W        W 1009   3.650   1.031   6.298  0.0283 -0.3055  0.1703
   13W        W 1010   3.215   3.150   2.650 -0.1179 -0.2336  0.1193
   14W        W 1011   4.263   3.771   0.628 -0.1378 -0.2362 -0.3458
   15W        W 1012   0.432   2.740   6.974  0.1102  0.4307  0.0951
   16W        W 1013   3.652   1.573   3.245 -0.2129  0.0823  0.0435
   17W        W 1014   2.647   4.100   5.303  0.0244  0.1327  0.1752
   18W        W 1015   4.374   3.788   5.600 -0.0726 -0.0907  0.1683
   19W        W 1016   1.186   2.945   0.816  0.1521  0.0079  0.0594
   20W        W 1017   6.716   7.501   6.126 -0.1201 -0.0396 -0.2159
   21W        W 1018   4.089   6.837   2.936  0.4908  0.0799 -0.0292
   22W        W 1019   2.098   3.163   1.922 -0.0678 -0.2074  0.1946
   23W        W 1020   2.166   5.190   4.618  0.0385  0.3621 -0.2247
   24W        W 1021   5.726   7.415   7.581  0.3689 -0.0785  0.0284
   25W        W 1022   2.226   0.627   5.470  0.0201 -0.3632 -0.0734
   26W        W 1023   2.395   2.294   2.511 -0.3041 -0.1406 -0.2326
   27W        W 1024   3.951   3.762   1.213  0.1453  0.0248 -0.2164
   28W        W 1025   4.252   6.840   1.240 -0.0012 -0.1811  0.1494
   29W        W 1026   1.786   0.408   5.409  0.4746  0.2722  0.1965
   30W        W 1027   4.181   3.539   2.692  0.1835  0.1046 -0.2380
   31W        W 1028   4.580   0.954   7.623  0.0820  0.0097  0.2803
   32W        W 1029   4.171   2.764   2.410 -0.1334  0.0037 -0.1067
   33W        W 1030   4.943   7.301   5.924 -0.0398  0.4315  0.2498
   34W        W 1031   3.796   5.391   2.623  0.1526 -0.2914 -0.2994
   35W        W 1032   6.521   5.850   5.702 -0.3766  0.0288  0.3764
   36W        W 1033   3.824   5.911   2.516  0.0717  0.0971  0.1445
   37W        W 1034   5.633   1.285   4.444  0.1093 -0.0381 -0.0702
   38W        W 1035   2.304   4.290   3.419  0.2220 -0.1210 -0.1188
   39W        W 1036   3.568   2.031   5.976  0.2333 -0.0187  0.0283
   40W        W 1037   0.344   5.743   4.619 -0.0389  0.1592  0.2947
   41W        W 1038   6.181   5.423   3.287 -0.0429  0.0665 -0.0667
   42W        W 1039   2.154   6.694   0.058 -0.0272  0.2944  0.0170
   43W        W 1040   7.013   6.092   5.652 -0.0535  0.0546 -0.1877
   44W        W 1041   5.887   7.364   5.097  0.1471  0.0047  0.0503
   45W        W 1042   1.430   5.563   3.539 -0.0006  0.2115 -0.0842
   46W        W 1043   5.243   5.843   5.680  0.2114  0.0129  0.1117
   47W        W 1044   0.376   1.695   0.974  0.1079  0.1554 -0.2613
   48W        W 1045   4.370   5.305   3.676  0.1072 -0.2120 -0.2762
   49W        W 1046   1.458   1.672   1.556 -0.2168  0.1224  0.1656
   50W        W 1047   2.815   0.725   6.368 -0.0964 -0.4410  0.4581
   51W        W 1048   1.173   2.907   2.031 -0.0669 -0.1504  0.1675
   52W        W 1049   2.772   1.207   3.359 -0.0369  0.1144  0.1175
   53W        W 1050   3.684   6.391   0.314  0.0083 -0.0241  0.1573
   54W        W 1051   4.136   5.950   4.024  0.0524  0.0291 -0.3191
   55W        W 1052   3.515   3.178   5.000 -0.2386  0.1986  0.0616
   56W        W 1053   3.929   4.366   4.959  0.1226 -0.0676  0.0139
   57W        W 1054   5.854   6.473   2.807  0.1968  0.0955  0.2183
   58W        W 1055   5.418   6.516   6.019  0.1241 -0.2666  0.3942
   59W        W 1056   2.795   1.074   6.910  0.0745  0.2199 -0.0301
   60W        W 1057   5.940   4.432   5.410  0.3348 -0.1318 -0.0385
   61W        W 1058   5.340   4.692   6.175  0.1109  0.2902 -0.1008
   62W        W 1059   6.480   5.527   1.868 -0.0903 -0.0600  0.1513
   63W        W 1060   4.042   2.407   0.276 -0.2775  0.3921 -0.1266
   64W        W 1061   4.360   7.477   6.503 -0.1361 -0.0689  0.0905
   65W        W 1062   6.469   1.122   6.998  0.0058  0.0276 -0.2307
   66W        W 1063   1.495   2.462   2.820 -0.2465 -0.1162  0.0048
   67W        W 1064   3.281   4.225   5.837 -0.0301  0.0921 -0.1325
   68W        W 1065   5.915   1.186   0.219  0.3068  0.1505  0.0581
   69W        W 1066   1.846   6.380   1.309  0.0254  0.1170 -0.1525
   70W        W 1067   3.153   2.383   7.253 -0.2258 -0.0510  0.1520
   71W        W 1068   4.561   4.936   5.736  0.1292  0.2914  0.0104
   72W        W 1069   2.287   1.188   1.417 -0.1224  0.0634 -0.1688
   73W        W 1070   3.799   3.825   2.395 -0.0650 -0.1602  0.1433
   74W        W 1071   5.427   6.691   2.771  0.1546  0.1351 -0.0106
   75W        W 1072   4.444   1.512   2.553 -0.1158  0.3460  0.1368
   76W        W 1073   2.468   1.593   7.415 -0.0781 -0.0300 -0.1707
   77W        W 1074   6.890   6.015   0.272 -0.3046 -0.3726  0.2872
   78W        W 1075   1.825   4.784   4.451  0.0703 -0.3442  0.1512
   79W        W 1076   7.298   4.978   7.174 -0.2140 -0.3328  0.0429
   80W        W 1077   6.930   1.145   3.896 -0.0059  0.2569 -0.0342
   81W        W 1078   4.111   4.592   0.617  0.1216  0.1903 -0.3221
   82W        W 1079   4.548   2.479   5.727 -0.2025  0.0816 -0.2127
   83W        W 1080   0.979   1.888   5.084 -0.2622  0.2057 -0.0116
   84W        W 1081   5.576   0.064   6.960  0.1785 -0.1032 -0.0564
   85W        W 1082   3.332   0.451   0.679  0.3190 -0.0928 -0.2564
   86W        W 1083   6.195   4.242   0.153 -0.0975  0.0148  0.4032
   87W        W 1084   4.901   0.189   5.874  0.0523  0.0450 -0.2104
   88W        W 1085   5.089   3.223   3.368 -0.0806 -0.0152  0.2602
   89W        W 1086   2.332   3.122   6.249 -0.1147 -0.0747  0.0963
   90W        W 1087   7.165   3.220   7.206  0.3354  0.5024 -0.1505
   91W        W 1088   3.126   5.367   1.974 -0.2458  0.4198 -0.1048
   92W        W 1089   0.976   3.690   4.331 -0.0374  0.2844  0.0176
   93W        W 1090   4.615   0.698   4.995  0.1392  0.0783  0.1918
   94W        W 1091   1.118   3.476   0.678  0.0967 -0.0437 -0.1088
   95W        W 1092   2.056   2.702   7.256  0.1454  0.0075  0.0182
   96W        W 1093   3.525   6.712   1.341  0.0590 -0.3307 -0.1167
   97W        W 1094   0.287   5.461   5.512  0.0624 -0.1137  0.1925
   98W        W 1095   1.363   0.926   0.483 -0.1657 -0.2301  0.1926
   99W        W 1096   5.147   6.830   0.930 -0.0476 -0.0956  0.4910
  100W        W 1097   4.245   4.523   5.851 -0.0813  0.0529  0.2393
  101W        W 1098   2.133   2.356   6.855 -0.5159  0.2115  0.0255
  102W        W 1099   0.688   3.459   3.096  0.1307  0.1588 -0.1808
  103W        W 1100   0.067   0.462   6.168  0.2567 -0.1482 -0.0436
  104W        W 1101   5.458   7.035   1.242 -0.3083  0.3293  0.0668
  105W        W 1102   1.744   3.168   4.089  0.2958  0.2188 -0.1891
  106W        W 1103   0.020   6.747   0.722 -0.0208 -0.0764  0.1894
  107W        W 1104   4.491   3.973   7.044  0.0802  0.1420  0.1754
  108W        W 1105   1.132   3.379   2.190  0.0437 -0.0907 -0.2982
  109W        W 1106   0.702   5.734   5.716 -0.0573  0.0062  0.0545
  110W        W 1107   5.066   2.174   7.533 -0.1514 -0.1858 -0.2468
  111W        W 1108   6.128   2.058   4.404  0.1756 -0.1293  0.1243
  112W        W 1109   6.692   6.183   5.222 -0.3140  0.0883  0.4472
  113W        W 1110   0.019   5.581   6.616  0.1295 -0.0243  0.0546
  114W        W 1111   4.738   5.434   6.445 -0.1696  0.2345  0.0234
  115W        W 1112   5.565   3.477   5.832  0.2781 -0.0978  0.1895
  116W        W 1113   2.707   2.818   6.429  0.0996 -0.1166  0.3257
  117W        W 1114   3.003   5.506   0.571  0.1419 -0.1184 -0.2323
  118W        W 1115   2.346   6.378   1.218  0.0786 -0.1670  0.0096
  119W        W 1116   4.585   1.258   4.214 -0.0714 -0.1801  0.0112
  120W        W 1117   1.878   0.525   2.338  0.2827 -0.0978  0.2596
  121W        W 1118   2.649   1.174   1.773 -0.0000  0.1239  0.2636
  122W        W 1119   1.198   4.921   2.442  0.0229 -0.0525 -0.1307
  123W        W 1120   5.382   0.517   4.062  0.1744  0.0870 -0.1948
  124W        W 1121   5.948   5.155   2.935  0.2410  0.2181  0.0138
  125W        W 1122   1.066   4.107   6.649  0.1493 -0.0595  0.0104
  126W        W 1123   3.672   1.955   0.371  0.0123 -0.2594  0.2639
  127W        W 1124   3.708   5.132   7.252 -0.4226 -0.0245 -0.0152
  128W        W 1125   7.337   2.732   4.515  0.0937 -0.0872 -0.4251
  129W        W 1126   1.959   0.764   1.397  0.1455 -0.0269  0.2650
  130W        W 1127   0.470   2.495   0.380 -0.4453  0.1205 -0.3004
  131W        W 1128   4.808   2.997   0.288  0.0715 -0.2563  0.2326
  132W        W 1129   5.154   3.156   1.362  0.2476  0.2793  0.0423
  133W        W 1130   3.002   4.094   0.278  0.2304 -0.1491  0.1167
  134W        W 1131   4.367   6.069   6.719 -0.0348  0.0313  0.1971
  135W        W 1132   6.455   5.059   3.143 -0.1460  0.1072  0.2939
  136W        W 1133   3.010   7.556   1.665 -0.0699 -0.1283  0.0876
  137W        W 1134   5.691   2.060   6.825 -0.1877 -0.1675 -0.0513
  138W        W 1135   1.226   7.574   7.129  0.0250 -0.0363  0.1863
  139W        W 1136   0.091   5.692   0.717 -0.0524  0.2090  0.3016
  140W        W 1137   4.404   6.371   1.115  0.2008 -0.1962  0.1358
  141W        W 1138   3.201   3.369   0.727 -0.1855 -0.0492  0.1085
  142W        W 1139   1.692   6.277   5.315  0.0565  0.3145 -0.1394
  143W        W 1140   3.589   4.044   6.192 -0.5370 -0.1819 -0.0663
  144W        W 1141   1.142   2.067   1.583  0.0331  0.0734  0.0063
  145W        W 1142   4.425   6.315   7.233  0.0694 -0.2169  0.1416
  146W        W 1143   6.757   1.310   3.470 -0.1535 -0.0049  0.0015
  147W        W 1144   0.608   6.265   3.374  0.3309  0.0044  0.4959
  148W        W 1145   2.192   5.377   6.649  0.1480 -0.0451 -0.1064
  149W        W 1146   2.657   2.686   2.625  0.2338 -0.0864  0.1276
  150W        W 1147   2.517   5.576   0.512 -0.1976 -0.2055 -0.1312
  151W        W 1148   6.722   5.671   6.144  0.0553  0.1014 -0.0405
  152W        W 1149   1.948   1.034   6.082  0.0325  0.2184 -0.1599
  153W        W 1150   5.257   3.724   1.548 -0.0306  0.1199  0.0272
  154W        W 1151   7.396   1.205   6.690  0.1466 -0.1521 -0.0586
  155W        W 1152   2.423   3.917   6.078 -0.1177 -0.0901 -0.2641
  156W        W 1153   4.687   6.074   2.986  0.2120  0.1295 -0.0153
  157W        W 1154   3.860   1.059   3.505 -0.0242 -0.0066  0.0566
  158W        W 1155   6.073   2.459   7.385 -0.0311  0.0385 -0.2616
  159W        W 1156   4.656   5.314   1.042 -0.0644  0.0731 -0.1375
  160W        W 1157   1.690   1.696   6.733  0.2132  0.1498  0.0657
  161W        W 1158   1.857   7.475   5.366  0.0154  0.0401 -0.1148
  162W        W 1159   6.990   1.541   4.894 -0.1159  0.0559 -0.0694
  163W        W 1160   5.493   4.557   5.623  0.1000 -0.0828 -0.1602
  164W        W 1161   3.164   0.142   7.109  0.0543 -0.1507  0.0915
  165W        W 1162   1.603   6.066   0.070  0.1733  0.1264  0.0948
  166W        W 1163   2.727   5.098   3.827 -0.1191  0.0391  0.0347
  167W        W 1164   0.398   5.758   3.934 -0.3066 -0.0307 -0.1224
  168W        W 1165   7.095   6.496   4.021 -0.0537 -0.1298  0.3525
  169W        W 1166   5.549   3.169   3.059 -0.1893  0.2372  0.1143
  170W        W 1167   2.525   3.755   1.620  0.1405  0.1654 -0.0509
  171W        W 1168   5.559   4.648   2.638  0.0418  0.0461 -0.0118
  172W        W 1169   5.981   0.121   5.433  0.2481 -0.1473 -0.2870
  173W        W 1170   1.703   2.141   0.822 -0.2961 -0.2714 -0.2578
  174W        W 1171   4.916   3.991   1.339  0.0215  0.1682 -0.4553
  175W        W 1172   0.215   3.409   5.298 -0.3134 -0.1337  0.2133
  176W        W 1173   4.566   7.310   1.577 -0.2358 -0.0437 -0.1739
  177W        W 1174   4.545   4.578   3.818 -0.1649 -0.1958  0.1297
  178W        W 1175   4.148   6.168   4.606 -0.0154 -0.0477 -0.3705
  179W        W 1176   6.418   5.885   3.196 -0.0531 -0.4367 -0.0533
  180W        W 1177   7.294   4.065   1.227  0.0132 -0.0331 -0.1129
  181W        W 1178   6.675   1.116   7.521 -0.0707 -0.1853 -0.0523
  182W        W 1179   3.638   1.463   4.381  0.0718 -0.1511 -0.1295
  183W        W 1180   0.445   0.383   4.820  0.0931  0.2183  0.2415
  184W        W 1181   5.142   3.354   2.882 -0.1429  0.1353  0.1469
  185W        W 1182   1.128   5.506   5.572 -0.3305  0.2631  0.1907
  186W        W 1183   5.749   6.087   6.883 -0.1853 -0.1450 -0.1181
  187W        W 1184   0.294   6.066   0.274  0.2719  0.3050 -0.1710
  188W        W 1185   6.183   0.856   3.726  0.1311  0.1123  0.1945
  189W        W 1186   4.192   5.077   7.573  0.2497  0.1124 -0.1353
  190W        W 1187   2.230   4.198   7.634 -0.0735 -0.0733 -0.1394
  191W        W 1188   6.213   6.604   1.291  0.1920 -0.0333  0.0952
  192W        W 1189   5.772   0.324   6.536 -0.2268 -0.0677 -0.3332
  193W        W 1190   5.277   1.730   6.774  0.1172 -0.0800  0.1412
  194W        W 1191   6.462   2.853   0.783  0.0267  0.1643  0.0042
  195W        W 1192   2.676   1.779   3.401 -0.0637  0.3054 -0.1835
  196W        W 1193   2.130   5.171   7.516  0.0882  0.1362  0.0742
  197W        W 1194   0.380   6.411   6.426 -0.0744  0.1173  0.1300
  198W        W 1195   6.138   7.242   3.482  0.1069 -0.0396 -0.1112
  199W        W 1196   5.735   3.486   5.245 -0.0199 -0.2351  0.0512
  200W        W 1197   1.531   2.428   7.158 -0.2457 -0.0733  0.1127
  201W        W 1198   4.181   6.026   0.858  0.0175  0.1321  0.0446
  202W        W 1199   4.085   6.951   5.824 -0.0114  0.0664 -0.2138
  203W        W 1200   5.122   6.522   6.472  0.2351 -0.1288  0.2691
  204W        W 1201   3.560   1.109   3.034 -0.0921  0.0273  0.0695
  205W        W 1202   1.740   3.648   1.937  0.2521  0.0572  0.0747
  206W        W 1203   3.868   7.428   6.724  0.1347  0.0990 -0.0781
  207W        W 1204   5.275   5.694   2.439 -0.3088 -0.1822  0.0611
  208W        W 1205   3.273   3.793   3.776  0.1829  0.2226 -0.1527
  209W        W 1206   6.096   4.747   7.183 -0.1849  0.0787  0.2439
  210W        W 1207   2.178   3.254   5.718  0.3017 -0.1900  0.0080
  211W        W 1208   5.946   7.038   1.022  0.2990 -0.1566  0.1213
  212W        W 1209   3.110   0.942   7.390  0.2147 -0.0788  0.1467
  213W        W 1210   1.614   0.486   0.472 -0.1223 -0.1291 -0.1512
  214W        W 1211   3.954   4.527   5.440 -0.0104 -0.4413 -0.0691
  215W        W 1212   1.343   3.391   1.145 -0.0746 -0.3788 -0.0579
  216W        W 1213   0.916   2.528   0.621  0.0006  0.1540 -0.3072
  217W        W 1214   2.445   5.731   6.490  0.0868  0.0473  0.1163
  218W        W 1215   6.061   0.247   0.562 -0.2694 -0.1499 -0.0011
  219W        W 1216   6.418   2.012   7.390 -0.2184  0.0534 -0.0087
  220W        W 1217   7.108   1.589   6.822 -0.2581  0.1019 -0.0583
  221W        W 1218   3.914   4.658   1.073  0.1852  0.0115  0.1887
  222W        W 1219   6.051   3.673   6.536  0.0549  0.0757  0.3876
  223W        W 1220   1.921   2.830   6.108  0.1767 -0.2022 -0.1769
  224W        W 1221   5.599   6.772   7.213 -0.1126  0.1691  0.2005
  225W        W 1222   5.192   3.624   0.606 -0.0639  0.0957  0.1170
  226W        W 1223   5.954   0.614   4.160 -0.0692 -0.0805  0.3555
  227W        W 1224   5.895   6.091   2.437  0.0905  0.0375  0.1218
  228W        W 1225   6.334   4.162   6.728 -0.1404  0.1326  0.1479
  229W        W 1226   2.899   3.810   3.348 -0.0611  0.0659 -0.1898
  230W        W 1227   3.717   5.855   0.236 -0.3104 -0.2099 -0.0153
  231W        W 1228   2.237   0.079   5.651 -0.0983 -0.1684 -0.1079
  232W        W 1229   3.294   2.823   7.605  0.0691 -0.1606 -0.1781
  233W        W 1230   6.033   3.919   3.269  0.0312  0.2576  0.0097
  234W        W 1231   4.820   7.614   4.433  0.1636  0.2215 -0.0102
  235W        W 1232   0.948   3.662   1.322 -0.0126 -0.0272 -0.1086
  236W        W 1233   0.801   5.694   4.334 -0.1118 -0.1523 -0.0656
  237W        W 1234   3.484   3.647   5.028 -0.5133 -0.1285 -0.0411
  238W        W 1235   3.920   5.146   3.773  0.2096  0.1243 -0.1842
  239W        W 1236   6.066   2.237   4.869 -0.0516  0.2609 -0.0382
  240W        W 1237   4.478   5.062   0.573 -0.1704 -0.0427  0.0096
  241W        W 1238   5.289   2.129   5.324 -0.2246 -0.1268  0.0838
  242W        W 1239   5.047   1.238   7.577  0.5972 -0.1360  0.0694
  243W        W 1240   1.681   0.765   4.117 -0.0673  0.1686  0.0694
  244W        W 1241   4.829   4.728   1.806 -0.1047  0.0538  0.0173
  245W        W 1242   2.001   7.542   0.156 -0.3859  0.0151 -0.1958
  246W        W 1243   4.128   6.812   2.311  0.0739  0.0030 -0.1982
  247W        W 1244   0.733   4.002   3.131 -0.3299  0.2267 -0.0060
  248W        W 1245   6.698   0.205   4.789  0.0238 -0.5680  0.3159
  249W        W 1246   3.347   0.377   5.458 -0.2163  0.0931 -0.2311
  250W        W 1247   3.499   6.583   5.611 -0.2320 -0.1119 -0.4421
  251W        W 1248   2.483   3.410   2.998  0.0126  0.2353  0.1129
  252W        W 1249   0.010   6.123   5.271 -0.3228 -0.0155 -0.1215
  253W        W 1250   5.377   4.824   2.204 -0.0936 -0.0248 -0.0506
  254W        W 1251   6.929   5.222   4.350 -0.0309  0.2437 -0.2529
  255W        W 1252   4.875   3.683   1.833 -0.3164 -0.3367  0.1490
  256W        W 1253   2.815   0.611   7.159  0.1592 -0.1958  0.0659
  257W        W 1254   6.951   4.640   6.166 -0.2612 -0.0402 -0.0161
  258W        W 1255   1.673   2.722   3.903  0.0289  0.0239 -0.2565
  259W        W 1256   2.114   4.670   0.190  0.0523  0.3138 -0.1543
  260W        W 1257   3.835   6.861   6.762 -0.0448 -0.2412  0.0196
  261W        W 1258   3.791   1.622   1.687 -0.1719 -0.4958  0.3671
  262W        W 1259   4.902   6.520   1.864  0.4033  0.1598 -0.0070
  263W        W 1260   3.039   0.200   6.200  0.0301 -0.0794 -0.0186
  264W        W 1261   6.812   4.038   4.553 -0.2478  0.0892  0.0776
  265W        W 1262   1.214   6.016   4.900  0.0882 -0.1477  0.1836
  266W        W 1263   2.095   0.232   6.298  0.4255  0.2933 -0.3154
  267W        W 1264   1.165   6.959   0.655 -0.0313 -0.0169  0.1912
  268W        W 1265   6.397   2.728   6.573 -0.2318 -0.0740  0.0077
  269W        W 1266   6.556   2.199   6.593 -0.0036  0.1150 -0.2443
  270W        W 1267   1.114   3.306   3.770  0.0192 -0.1803 -0.0757
  271W        W 1268   1.348   2.505   0.867  0.1917 -0.1531 -0.1175
  272W        W 1269   2.824   4.385   0.771  0.3771 -0.0078 -0.1905
  273W        W 1270   1.158   1.783   1.968  0.2027  0.0556 -0.0437
  274W        W 1271   5.229   6.148   1.721 -0.3014  0.2442 -0.2967
  275W        W 1272   2.935   1.787   0.101  0.4413 -0.1161 -0.2726
  276W        W 1273   2.507   2.029   2.096  0.1906 -0.0100 -0.2536
  277W        W 1274   5.437   6.631   4.018 -0.1248  0.0686 -0.0028
  278W        W 1275   0.325   3.053   6.288  0.0062  0.0625  0.3339
  279W        W 1276   5.545   3.347   3.701 -0.0270  0.1840  0.1938
  280W        W 1277   4.788   2.353   6.195 -0.2651 -0.0247  0.0314
  281W        W 1278   6.684   2.474   0.467  0.2717 -0.3657 -0.1886
  282W        W 1279   5.654   0.830   4.948 -0.0743  0.4795  0.0046
  283W        W 1280   4.235   0.510   6.606  0.2321  0.0034  0.2048
  284W        W 1281   7.277   2.907   6.814 -0.0020 -0.0559  0.0588
  285W        W 1282   2.901   0.833   0.906 -0.0505 -0.0929  0.0677
  286W        W 1283   1.600   3.110   2.146 -0.1470 -0.0525 -0.1465
  287W        W 1284   1.832   4.158   2.209 -0.1127  0.3576 -0.0610
  288W        W 1285   5.070   3.238   1.826 -0.0146 -0.3217 -0.2599
  289W        W 1286   4.674   2.809   6.093  0.0734  0.2129  0.0691
  290W        W 1287   1.524   3.962   0.510 -0.0287  0.1706  0.3908
  291W        W 1288   3.568   4.035   4.707  0.2074 -0.0198 -0.2036
  292W        W 1289   1.061   2.647   2.424 -0.0167  0.3314 -0.0352
  293W        W 1290   1.806   2.051   4.683 -0.1538 -0.0267 -0.0955
  294W        W 1291   6.436   7.133   0.434 -0.1930 -0.3883  0.1651
  295W        W 1292   1.325   5.594   2.057 -0.0839 -0.1633  0.2844
  296W        W 1293   5.768   5.723   7.211  0.1429  0.0325 -0.1349
  297W        W 1294   6.165   4.213   1.932  0.3089 -0.1063  0.2526
  298W        W 1295   5.223   4.219   5.337  0.2841  0.4508 -0.0395
  299W        W 1296   4.780   4.532   5.492 -0.2090 -0.0656  0.0924
  300W        W 1297   5.639   4.151   2.826  0.1878  0.1594 -0.0628
  301W        W 1298   4.770   5.629   3.255 -0.2225  0.0004  0.1102
  302W        W 1299   0.856   0.886   6.313 -0.1269  0.0667 -0.1091
  303W        W 1300   3.484   7.480   5.450 -0.3546  0.0700 -0.2652
  304W        W 1301   0.606   4.431   6.809  0.2054  0.3479 -0.1996
  305W        W 1302   2.095   5.502   2.728  0.1013 -0.0652  0.2027
  306W        W 1303   0.527   5.834   1.072  0.0368 -0.0540  0.3606
  307W        W 1304   1.396   1.344   1.935 -0.0012  0.1070 -0.0622
  308W        W 1305   6.423   5.149   3.621  0.0413 -0.1663 -0.1806
  309W        W 1306   6.782   0.600   4.444  0.0629  0.0152 -0.1701
  310W        W 1307   7.564   0.671   6.662  0.4769 -0.2937  0.1275
  311W        W 1308   4.223   1.610   0.445 -0.0489 -0.2083 -0.0679
  312W        W 1309   2.257   3.371   2.468 -0.0286  0.0846  0.0622
  313W        W 1310   1.789   1.643   0.941 -0.0210  0.1130 -0.2735
  314W        W 1311   3.159   4.078   7.051  0.0182  0.0609  0.0948
  315W        W 1312   1.770   7.234   1.342  0.4425  0.1661 -0.0324
  316W        W 1313   2.403   5.891   6.000 -0.2730 -0.0241  0.0045
  317W        W 1314   3.555   5.620   6.476 -0.0605  0.2665  0.1444
  318W        W 1315   2.299   2.057   6.066  0.0514  0.0085 -0.1802
  319W        W 1316   0.883   6.367   5.029 -0.0500  0.1431 -0.1792
  320W        W 1317   4.684   4.471   7.020 -0.1865 -0.2061 -0.2343
  321W        W 1318   1.286   7.445   6.576 -0.1551 -0.1883 -0.2712
  322W        W 1319   2.405   1.586   1.820  0.0789 -0.0014  0.1231
  323W        W 1320   3.871   4.516   2.975 -0.1038  0.1764 -0.3073
  324W        W 1321   3.165   3.026   0.392 -0.0476 -0.1337  0.3203
  325W        W 1322   2.881   1.898   1.843  0.2010  0.0420 -0.1933
  326W        W 1323   2.407   1.404   6.824  0.1647 -0.2391  0.3339
  327W        W 1324   6.765   5.684   2.294  0.1201  0.3243  0.0757
  328W        W 1325   1.813   5.690   7.344  0.2072 -0.1999 -0.1572
  329W        W 1326   5.964   6.648   6.830  0.0080  0.0625  0.4752
  330W        W 1327   3.172   4.391   7.594 -0.1254 -0.0054 -0.1359
  331W        W 1328   6.036   4.285   4.881  0.0143  0.4568  0.0732
  332W        W 1329   1.040   5.985   0.737 -0.1540  0.2402 -0.0617
  333W        W 1330   4.185   4.234   0.890 -0.1516  0.1222  0.1240
  334W        W 1331   5.134   3.755   5.919 -0.0585 -0.0599 -0.0108
  335W        W 1332   4.339   3.466   1.042 -0.1693 -0.3588  0.1779
  336W        W 1333   6.834   4.843   3.477 -0.0294  0.3416  0.3156
  337W        W 1334   2.714   6.459   1.559 -0.1018 -0.1708 -0.1373
  338W        W 1335   5.576   5.748   4.657  0.0482 -0.3575  0.0146
  339W        W 1336   0.488   3.144   4.900 -0.0984  0.0625  0.0491
  340W        W 1337   6.358   5.106   0.813  0.2252 -0.0940  0.1304
  341W        W 1338   6.556   2.388   4.866 -0.2331  0.0387 -0.2100
  342W        W 1339   3.175   6.901   7.090  0.2591 -0.1727 -0.0874
  343W        W 1340   0.748   3.911   6.292  0.1562  0.1980 -0.1878
  344W        W 1341   4.986   4.684   2.501 -0.1174 -0.0404  0.0475
  345W        W 1342   2.264   0.919   0.038  0.0064 -0.1577  0.0684
  346W        W 1343   4.798   2.316   0.330  0.2359  0.3709 -0.0963
  347W        W 1344   7.544   4.556   7.534  0.0490 -0.0918 -0.3228
  348W        W 1345   6.737   6.050   6.532 -0.0816 -0.2146  0.1078
  349W        W 1346   4.400   6.093   3.521  0.2766  0.1101 -0.0863
  350W        W 1347   3.991   3.443   4.885 -0.1666 -0.1877  0.0758
  351W        W 1348   2.202   5.801   0.891 -0.3707 -0.0553 -0.2108
  352W        W 1349   3.618   2.659   5.063  0.1746  0.0970  0.0746
  353W        W 1350   7.087   4.544   0.638  0.1098  0.0136  0.0688
  354W        W 1351   2.386   3.995   4.256 -0.0419 -0.3720 -0.2441
  355W        W 1352   1.340   0.224   5.516 -0.0208 -0.0194  0.1846
  356W        W 1353   6.638   3.285   7.279  0.1035  0.0490  0.1394
  357W        W 1354   6.521   5.305   4.593 -0.3656  0.0622 -0.1683
  358W        W 1355   0.885   4.737   5.931  0.1204  0.3286 -0.0578
  359W        W 1356   7.195   6.270   1.119 -0.0914 -0.0993  0.2005
  360W        W 1357   1.095   5.991   3.487 -0.1646  0.2979  0.2115
  361W        W 1358   3.486   7.224   5.015 -0.3464 -0.4213 -0.1491
  362W        W 1359   1.055   5.151   4.996 -0.1462  0.2386  0.0178
  363W        W 1360   4.021   1.756   5.999  0.1421  0.2189  0.0717
  364W        W 1361   1.802   5.990   0.912  0.1588 -0.0503  0.1340
  365W        W 1362   5.259   2.722   3.508  0.2534  0.1841  0.0106
  366W        W 1363   1.178   6.552   0.370  0.1895 -0.2241 -0.0279
  367W        W 1364   5.927   5.350   6.546 -0.1401  0.1683 -0.2207
  368W        W 1365   5.312   4.173   6.346 -0.3093 -0.0167 -0.0284
  369W        W 1366   3.760   0.785   1.444 -0.0668 -0.1637  0.2148
  370W        W 1367   4.440   0.186   4.915 -0.5347 -0.1020  0.2823
  371W        W 1368   6.431   7.014   0.904  0.1649 -0.3914 -0.1585
  372W        W 1369   0.825   2.523   6.533  0.0953 -0.1742 -0.0082
  373W        W 1370   3.466   2.434   0.681 -0.1214 -0.2325  0.1066
  374W        W 1371   4.420   2.872   3.476 -0.2070 -0.2372 -0.3080
  375W        W 1372   5.310   2.432   3.131 -0.1334  0.3408 -0.2965
  376W        W 1373   4.376   3.111   6.845 -0.2630 -0.1105  0.2308
  377W        W 1374   5.738   0.462   4.635  0.1633 -0.0360  0.0448
  378W        W 1375   3.670   2.875   1.726 -0.3366  0.1808  0.0771
  379W        W 1376   6.112   6.411   3.252 -0.1857 -0.0533 -0.3401
  380W        W 1377   3.633   5.284   0.171 -0.1847 -0.0659  0.0240
  381W        W 1378   1.414   4.473   0.511 -0.1916 -0.0673 -0.0394
  382W        W 1379   6.008   4.440   2.351  0.2122  0.2263 -0.0101
  383W        W 1380   2.735   4.038   2.193 -0.0802 -0.0183 -0.2815
  384W        W 1381   2.124   1.681   2.247  0.1758 -0.3600  0.0677
  385W        W 1382   1.179   7.461   0.661  0.1381  0.0892  0.1607
  386W        W 1383   0.263   7.411   4.855 -0.2845 -0.3398  0.1883
  387W        W 1384   6.334   6.954   1.924 -0.0256 -0.0757  0.1868
  388W        W 1385   5.602   4.968   5.054 -0.3742  0.0311  0.3313
  389W        W 1386   7.123   5.001   0.291 -0.1503  0.2303  0.0075
  390W        W 1387   1.899   6.416   6.169  0.2043  0.1874  0.0397
  391W        W 1388   6.208   7.609   4.175  0.2804 -0.1394 -0.1206
  392W        W 1389   7.113   6.743   0.844  0.3300 -0.1068 -0.1495
  393W        W 1390   1.009   2.463   7.275 -0.3319  0.0382 -0.0276
  394W        W 1391   7.522   5.096   4.156 -0.1042  0.1317  0.0971
  395W        W 1392   3.481   0.066   0.189 -0.0237  0.1419 -0.0859
  396W        W 1393   7.096   3.891   0.217 -0.0223  0.0299 -0.2393
  397W        W 1394   1.458   4.810   5.709  0.4219  0.2162 -0.0391
  398W        W 1395   4.878   7.508   6.372  0.2120  0.2542  0.2743
  399W        W 1396   4.115   6.956   0.257  0.0862 -0.0110 -0.0825
  400W        W 1397   1.420   5.639   0.354 -0.1094  0.4036 -0.1679
  401W        W 1398   3.841   1.966   1.283  0.0669  0.1381 -0.3240
  402W        W 1399   1.412   7.420   5.694 -0.1834 -0.2645  0.0114
  403W        W 1400   5.049   1.974   4.074 -0.0185 -0.0570 -0.1478
  404W        W 1401   1.505   1.935   3.454 -0.2636 -0.1048 -0.0526
  405W        W 1402   0.376   3.645   6.100 -0.0987  0.3674  0.0183
  406W        W 1403   5.440   2.979   3.995 -0.0394  0.3261  0.1542
  407W        W 1404   4.094   1.235   2.259  0.3719 -0.0567  0.0496
  408W        W 1405   1.333   5.206   0.607 -0.1201  0.1117 -0.2259
  409W        W 1406   6.442   3.285   1.031 -0.0942  0.3997  0.3202
  410W        W 1407   4.955   2.916   4.250  0.2775 -0.3094 -0.2062
  411W        W 1408   7.459   6.714   3.805  0.4027 -0.0223  0.4473
  412W        W 1409   2.549   3.848   0.214 -0.0542 -0.1237  0.0693
  413W        W 1410   3.949   5.057   1.414  0.3973 -0.1925 -0.0635
  414W        W 1411   0.326   3.603   4.703  0.1026  0.0175 -0.2591
  415W        W 1412   1.931   2.487   4.895  0.0623 -0.0714 -0.0907
  416W        W 1413   2.149   3.929   1.262 -0.0323  0.0990  0.4026
  417W        W 1414   2.759   4.270   6.004 -0.0570 -0.3826 -0.2316
  418W        W 1415   2.704   4.169   7.431 -0.0223  0.0248  0.2387
  419W        W 1416   0.412   7.241   6.586  0.1614  0.0495 -0.1016
  420W        W 1417   0.040   3.465   6.397  0.1773  0.0847 -0.0861
  421W        W 1418   5.951   3.816   7.043  0.0496  0.2327 -0.1390
  422W        W 1419   5.629   4.987   5.913 -0.2797  0.0533 -0.0011
  423W        W 1420   0.452   4.423   4.954  0.3061 -0.0053 -0.1587
  424W        W 1421   7.199   0.409   6.214 -0.1208  0.1424 -0.0684
  425W        W 1422   2.029   5.534   5.719  0.4559 -0.0423 -0.3759
  426W        W 1423   7.295   7.480   4.053 -0.0860 -0.1412 -0.0363
  427W        W 1424   5.181   0.219   6.627  0.0216 -0.1048  0.4386
  428W        W 1425   5.896   0.288   0.063 -0.1075  0.2999  0.1811
  429W        W 1426   6.258   5.091   6.776  0.3206  0.0710 -0.1189
  430W        W 1427   0.729   2.188   6.982 -0.1706  0.3415 -0.1501
  431W        W 1428   3.369   4.484   4.333 -0.1022 -0.2039 -0.1642
  432W        W 1429   2.396   5.215   5.502 -0.2102  0.2289 -0.2161
  433W        W 1430   6.067   0.892   4.571  0.0028 -0.1648 -0.0439
  434W        W 1431   3.779   0.409   1.793 -0.0540 -0.0290 -0.2722
  435W        W 1432   3.267   2.293   3.479 -0.1716 -0.1289  0.2498
  436W        W 1433   5.063   6.825   0.373  0.1816 -0.0411 -0.0298
  437W        W 1434   3.062   0.473   6.717 -0.1791 -0.0379 -0.0919
  438W        W 1435   0.541   1.332   4.680 -0.1297 -0.0094  0.4685
  439W        W 1436   3.409   7.035   6.487 -0.4204 -0.0594  0.1391
  440W        W 1437   0.874   2.236   0.185  0.0812 -0.0067 -0.1583
  441W        W 1438   3.686   4.486   1.660  0.0472  0.1261 -0.0527
  442W        W 1439   7.021   0.100   7.420 -0.2472  0.2918  0.0223
  443W        W 1440   3.329   5.281   2.521 -0.0087 -0.1278  0.0316
  444W        W 1441   5.648   0.677   6.990  0.0933  0.0719 -0.1175
  445W        W 1442   5.731   6.365   5.573  0.2064  0.0651 -0.1036
  446W        W 1443   3.542   1.546   6.123 -0.1413 -0.3276 -0.0778
  447W        W 1444   4.919   4.239   3.772 -0.2196  0.0270 -0.0926
  448W        W 1445   4.764   4.514   3.377 -0.1399  0.0732  0.2769
  449W        W 1446   3.019   6.709   1.262 -0.2577 -0.0674 -0.0171
  450W        W 1447   0.280   1.763   5.880 -0.0425 -0.0956 -0.1985
  451W        W 1448   2.972   3.839   4.940 -0.1276  0.1786 -0.1547
  452W        W 1449   1.729   5.271   6.598 -0.0910 -0.0349 -0.2262
  453W        W 1450   4.155   5.816   7.146  0.0631 -0.1235 -0.0635
  454W        W 1451   0.967   7.080   6.513  0.1551  0.0080  0.0231
  455W        W 1452   5.775   4.147   4.086 -0.0413 -0.1664  0.1034
  456W        W 1453   6.065   0.711   5.556 -0.2373  0.6163 -0.1110
  457W        W 1454   3.021   2.512   3.905  0.1958 -0.2914  0.0582
  458W        W 1455   3.836   3.218   2.434 -0.1694  0.1357  0.2355
  459W        W 1456   3.023   4.658   0.381  0.0192  0.0954  0.0351
  460W        W 1457   3.180   1.479   3.083  0.0860 -0.1285  0.0648
  461W        W 1458   1.953   1.188   0.861 -0.0215  0.0285  0.1416
  462W        W 1459   6.916   5.323   1.462 -0.0608  0.0273 -0.0337
  463W        W 1460   4.711   5.348   4.468  0.1664 -0.1839  0.1794
  464W        W 1461   0.931   1.089   5.758  0.3221 -0.1253 -0.2171
  465W        W 1462   4.806   3.046   2.589  0.2471  0.0987 -0.0200
  466W        W 1463   4.593   6.236   0.631 -0.1147  0.1743 -0.4819
  467W        W 1464   0.671   5.768   0.013  0.0162 -0.0342 -0.2542
  468W        W 1465   6.769   6.708   7.086  0.0992  0.0256 -0.0286
  469W        W 1466   3.656   1.263   2.032  0.1465  0.1364  0.0008
  470W        W 1467   4.633   1.830   7.513 -0.1171 -0.1685  0.0981
  471W        W 1468   4.676   4.261   2.388 -0.3474  0.1916  0.1106
  472W        W 1469   1.735   5.152   2.563 -0.0081 -0.0935 -0.1691
  473W        W 1470   4.549   5.443   2.420 -0.1893  0.0834  0.1125
  474W        W 1471   0.311   1.687   0.105  0.0840 -0.1763  0.2323
  475W        W 1472   1.867   1.413   1.781  0.1007  0.4122  0.4277
  476W        W 1473   0.962   3.733   1.851 -0.2714  0.0123  0.0762
  477W        W 1474   4.680   1.846   0.594 -0.0022  0.0212 -0.1258
  478W        W 1475   3.205   2.872   1.406 -0.1704 -0.1951 -0.0537
  479W        W 1476   4.000   1.161   7.374  0.0662 -0.3455  0.1055
  480W        W 1477   5.153   5.876   2.899  0.0196 -0.0469  0.1339
  481W        W 1478   5.151   0.690   5.671 -0.2139 -0.1428 -0.1155
  482W        W 1479   6.528   1.547   7.326 -0.2286  0.0036 -0.1657
  483W        W 1480   5.513   4.564   6.651 -0.0882 -0.1532  0.3655
  484W        W 1481   3.642   1.965   3.533  0.1768 -0.1781 -0.0605
  485W        W 1482   2.700   0.914   3.793 -0.0328  0.0521  0.4674
  486W        W 1483   7.312   6.241   3.526  0.1792  0.1669  0.2244
  487W        W 1484   7.312   5.206   6.721 -0.0678  0.0810 -0.0494
  488W        W 1485   4.270   7.197   6.941 -0.0218 -0.1901  0.0040
  489W        W 1486   4.252   5.777   2.657 -0.2640  0.1987 -0.4316
  490W        W 1487   6.454   6.577   6.376 -0.2568  0.0224  0.0919
  491W        W 1488   5.863   3.321   6.131  0.1492  0.1865 -0.1524
  492W        W 1489   6.808   5.302   2.766  0.1400  0.1205 -0.1991
  493W        W 1490   7.411   5.840   0.318 -0.3698 -0.1894 -0.2182
  494W        W 1491   0.557   1.564   0.498  0.1231 -0.1934  0.0458
  495W        W 1492   2.611   7.478   5.827 -0.0995  0.0035 -0.1284
  496W        W 1493   0.626   1.251   0.071 -0.0793 -0.1646  0.0764
  497W        W 1494   2.812   2.708   3.401 -0.0028  0.0047 -0.0349
  498W        W 1495   1.631   2.897   0.655 -0.3701 -0.3538  0.4527
  499W        W 1496   4.806   0.438   5.372  0.0713 -0.0596 -0.3080
  500W        W 1497   5.263   4.421   7.098  0.1669 -0.0703 -0.0000
  501W        W 1498   5.446   3.990   6.819 -0.0048 -0.0234 -0.3270
  502W        W 1499   2.670   3.389   0.700 -0.0230 -0.1784  0.0024
  503W        W 1500   4.597   7.018   5.623 -0.1401 -0.0502  0.2421
  504W        W 1501   4.854   1.180   5.693 -0.1395  0.2941 -0.0591
  505W        W 1502   5.540   6.968   0.247 -0.2263  0.0259  0.0370
  506W        W 1503   2.871   4.572   7.156 -0.1955 -0.2968  0.1877
  507W        W 1504   5.959   5.440   1.413 -0.2493 -0.2995  0.2186
  508W        W 1505   4.736   4.785   4.537  0.1540 -0.1279  0.0195
  509W        W 1506   5.558   1.925   4.338 -0.0836 -0.0828 -0.1391
  510W        W 1507   3.215   1.380   0.218  0.2839 -0.2219  0.3509
  511W        W 1508   3.470   5.552   6.984 -0.0064 -0.1903 -0.2025
  512W        W 1509   6.523   4.537   3.171 -0.0380  0.3553 -0.2487
  513W        W 1510   4.268   6.856   6.552 -0.1807 -0.1282  0.0206
  514W        W 1511   1.380   5.062   7.322 -0.1390 -0.1573  0.0770
  515W        W 1512   6.825   3.309   4.025  0.0841  0.2038  0.1536
  516W        W 1513   1.867   5.592   3.878 -0.1984 -0.2220  0.1442
  517W        W 1514   0.123   0.642   5.054  0.1809  0.0306 -0.3482
  518W        W 1515   5.491   5.169   1.389 -0.1280  0.0309 -0.0484
  519W        W 1516   1.495   0.382   5.974 -0.0598  0.1330  0.2006
  520W        W 1517   4.861   5.869   6.560  0.0371 -0.1724 -0.3605
  521W        W 1518   1.302   7.186   6.130  0.0322  0.2133 -0.0105
  522W        W 1519   4.229   2.098   1.543 -0.1838  0.0926  0.2224
  523W        W 1520   7.112   4.247   6.809 -0.0707  0.3643  0.2724
  524W        W 1521   5.168   7.003   7.499 -0.1913 -0.1973 -0.1126
  525W        W 1522   0.233   1.395   6.704 -0.1733 -0.2036 -0.2225
  526W        W 1523   6.311   7.026   4.417 -0.2649  0.0848  0.1873
  527W        W 1524   7.270   6.356   4.822  0.3095 -0.0213 -0.1941
  528W        W 1525   6.325   2.416   4.032  0.3932 -0.1883 -0.0569
  529W        W 1526   3.386   3.962   4.210 -0.0166 -0.1320 -0.1289
  530W        W 1527   2.578   2.942   5.821 -0.3196 -0.1603  0.0010
  531W        W 1528   2.143   2.961   1.423 -0.1036  0.3133 -0.0662
  532W        W 1529   4.709   0.197   6.693  0.0533  0.0355  0.0269
  533W        W 1530   1.570   0.802   1.705  0.0912 -0.1240  0.2372
  534W        W 1531   3.666   4.219   2.575 -0.2401 -0.1573 -0.4458
  535W        W 1532   0.410   5.996   6.111 -0.2881 -0.1930  0.0793
  536W        W 1533   1.417   5.149   1.933 -0.0116 -0.2689  0.0905
  537W        W 1534   2.862   6.131   1.165  0.0852 -0.3157  0.1188
  538W        W 1535   3.816   3.160   7.048 -0.1630 -0.3592  0.1561
  539W        W 1536   4.987   7.345   5.479  0.1424 -0.1633 -0.1492
  540W        W 1537   1.061   2.748   4.632  0.3595 -0.0837  0.0832
  541W        W 1538   2.449   4.203   6.967 -0.1044 -0.1422  0.0227
  542W        W 1539   6.609   7.145   3.611 -0.0431  0.1104  0.1388
  543W        W 1540   0.634   5.393   4.798 -0.0615 -0.1864  0.2205
  544W        W 1541   2.222   5.438   5.074 -0.0349  0.2094 -0.0140
  545W        W 1542   0.850   2.924   7.188  0.1762  0.1593  0.0295
  546W        W 1543   6.709   4.352   6.455  0.2945 -0.0748  0.0873
  547W        W 1544   5.139   4.095   0.879 -0.2038  0.0349  0.0242
  548W        W 1545   7.631   2.428   0.431 -0.1315 -0.4522 -0.1110
  549W        W 1546   2.948   5.114   6.277 -0.2626 -0.0910  0.1067
  550W        W 1547   0.232   0.249   0.991  0.1416  0.2943  0.1074
  551W        W 1548   1.137   1.534   3.527 -0.1013  0.0023  0.0049
  552W        W 1549   0.088   0.325   6.999 -0.2491  0.0587  0.2484
  553W        W 1550   1.926   2.359   5.848 -0.3246  0.2206  0.3959
  554W        W 1551   2.775   5.625   0.997  0.0499  0.1563 -0.1827
  555W        W 1552   0.197   2.891   5.807 -0.0265 -0.0361  0.3018
  556W        W 1553   5.305   6.048   1.258 -0.1912 -0.2413  0.2783
  557W        W 1554   1.629   2.300   4.177  0.0391  0.1740  0.0290
  558W        W 1555   4.912   6.341   0.980  0.1775  0.0112  0.0678
  559W        W 1556   2.453   2.317   5.607 -0.1467 -0.1719 -0.0553
  560W        W 1557   3.148   4.257   3.510 -0.1921 -0.1534  0.0338
  561W        W 1558   5.008   5.053   1.321  0.3110  0.0513 -0.1605
  562W        W 1559   3.130   0.571   5.867  0.0146 -0.1983 -0.0897
  563W        W 1560   6.074   3.546   2.521  0.2203 -0.0838  0.0085
  564W        W 1561   0.009   5.967   1.142 -0.0604  0.2279 -0.6756
  565W        W 1562   4.727   3.587   2.720  0.2286 -0.0610 -0.1408
  566W        W 1563   1.693   1.773   5.768 -0.1909 -0.1037 -0.0281
  567W        W 1564   3.955   2.331   4.848  0.0432 -0.0091  0.3720
  568W        W 1565   3.574   5.261   4.211  0.3285  0.0692  0.2994
  569W        W 1566   7.105   7.317   5.467 -0.2120  0.0807 -0.1046
  570W        W 1567   4.497   0.955   5.382 -0.0522  0.2569  0.2573
  571W        W 1568   7.416   5.809   5.526 -0.0185  0.2895  0.1156
  572W        W 1569   5.921   3.648   4.334 -0.0481 -0.2252 -0.0763
  573W        W 1570   0.895   1.729   0.169  0.0846  0.3671  0.0599
  574W        W 1571   1.901   3.959   0.817  0.0340 -0.2109 -0.2249
  575W        W 1572   6.250   2.616   5.156 -0.0029 -0.0332  0.0648
  576W        W 1573   4.272   1.293   5.051  0.1114  0.1766 -0.2079
  577W        W 1574   3.533   3.293   1.233 -0.0112 -0.0158 -0.1003
  578W        W 1575   3.167   4.734   6.732  0.0142 -0.2404  0.0226
  579W        W 1576   0.217   1.786   6.390 -0.2363 -0.1506  0.1467
  580W        W 1577   0.679   1.757   1.385 -0.6405  0.2355  0.0098
  581W        W 1578   6.952   3.806   5.214 -0.0029  0.0137  0.1072
  582W        W 1579   6.218   6.168   2.846  0.1662 -0.1436  0.0721
  583W        W 1580   4.134   2.838   5.739  0.2455  0.2962  0.0891
  584W        W 1581   1.388   6.204   5.729  0.3110  0.0539 -0.1932
  585W        W 1582   1.151   1.302   6.917 -0.0811 -0.3410 -0.2244
  586W        W 1583   0.396   2.936   1.140  0.4994 -0.0231 -0.0387
  587W        W 1584   0.651   5.757   0.540  0.2187 -0.3134 -0.1102
  588W        W 1585   5.899   7.168   7.095  0.0646  0.0115 -0.3127
  589W        W 1586   5.985   5.968   5.698 -0.2371  0.0267 -0.0557
  590W        W 1587   0.488   5.800   7.174  0.1167 -0.2901  0.0024
  591W        W 1588   0.234   0.328   7.528 -0.1558  0.2602  0.0465
  592W        W 1589   3.694   0.170   6.931  0.2048  0.2240  0.3211
  593W        W 1590   7.130   3.332   5.457  0.2269 -0.1917  0.3104
  594W        W 1591   1.988   2.585   2.529  0.2563  0.1487  0.3506
  595W        W 1592   2.738   3.233   2.589 -0.3763 -0.3507 -0.0435
  596W        W 1593   2.442   5.742   5.513 -0.0315  0.2615  0.0781
  597W        W 1594   4.493   3.756   2.271 -0.1992  0.0377 -0.2433
  598W        W 1595   3.916   1.656   5.083  0.0826 -0.2078 -0.0103
  599W        W 1596   6.516   0.548   3.017 -0.0435  0.2500 -0.0308
  600W        W 1597   4.179   5.068   2.396 -0.0182 -0.0005 -0.1001
  601W        W 1598   6.869   5.134   6.957  0.0960 -0.2752 -0.1595
  602W        W 1599   2.513   5.109   2.788 -0.0718 -0.1702 -0.1538
  603W        W 1600   1.667   4.160   1.289  0.0947 -0.0362  0.0971
  604W        W 1601   0.909   4.860   4.511 -0.0965  0.1404 -0.1492
  605W        W 1602   1.239   4.412   4.731  0.0595 -0.1080  0.2812
  606W        W 1603   4.725   1.725   3.848  0.0292 -0.0960  0.0152
  607W        W 1604   6.378   6.719   5.813 -0.0334  0.0632 -0.0973
  608W        W 1605   5.445   3.551   2.515 -0.3081  0.1002 -0.0854
  609W        W 1606   2.559   1.318   0.977  0.0768 -0.1183  0.0289
  610W        W 1607   6.917   0.276   5.248  0.1363 -0.0189  0.0016
  611W        W 1608   1.229   1.804   6.016 -0.1282 -0.2929  0.0125
  612W        W 1609   5.645   2.992   7.576 -0.3663  0.0199 -0.1884
  613W        W 1610   3.802   2.988   7.585  0.1269 -0.1249  0.1216
  614W        W 1611   3.086   1.132   2.098 -0.0431  0.1374  0.1198
  615W        W 1612   2.188   2.770   6.579 -0.2033 -0.0300 -0.0599
  616W        W 1613   5.152   4.282   5.887 -0.1583 -0.2951  0.0380
  617W        W 1614   5.835   6.357   4.212 -0.0178 -0.1344  0.0694
  618W        W 1615   2.952   6.572   4.855  0.2364 -0.0778  0.0726
  619W        W 1616   0.145   4.163   4.624 -0.1194  0.1388 -0.0461
  620W        W 1617   0.189   4.792   5.331 -0.0547  0.2721  0.2267
  621W        W 1618   5.394   6.547   0.574 -0.0548  0.1844 -0.0817
  622W        W 1619   4.338   3.798   4.328 -0.0236 -0.1074 -0.0224
  623W        W 1620   4.770   7.629   0.100  0.1042 -0.3235  0.3845
  624W        W 1621   6.877   6.556   6.604 -0.0330 -0.4837 -0.0003
  625W        W 1622   2.000   0.530   6.825  0.2243  0.1200  0.0122
  626W        W 1623   4.804   5.363   7.259 -0.1015 -0.0521  0.1313
  627W        W 1624   5.861   6.400   0.393  0.1098 -0.1455 -0.0628
  628W        W 1625   0.057   0.096   5.728  0.0441  0.1711 -0.4672
  629W        W 1626   1.198   4.124   0.117  0.2218  0.2140 -0.1350
  630W        W 1627   4.069   4.695   3.484 -0.0395 -0.0573  0.0430
  631W        W 1628   6.387   3.613   6.940 -0.2889  0.2220  0.1919
  632W        W 1629   6.290   3.007   6.067 -0.2869 -0.2411 -0.1160
  633W        W 1630   5.446   6.278   3.632  0.0293  0.2253 -0.0940
  634W        W 1631   3.213   0.491   7.583  0.4053 -0.0488  0.0796
  635W        W 1632   4.149   1.335   6.248  0.1315  0.0485 -0.0331
  636W        W 1633   4.157   7.359   4.928 -0.2903  0.1938  0.1946
  637W        W 1634   1.336   1.820   4.535  0.0108 -0.0708  0.1287
  638W        W 1635   3.000   3.533   2.937 -0.0852  0.0784 -0.1872
  639W        W 1636   1.727   1.926   6.280  0.1115 -0.2331 -0.0026
  640W        W 1637   5.086   3.249   7.510 -0.3621 -0.1587  0.1457
  641W        W 1638   1.202   0.101   7.633  0.1551  0.0733  0.0037
  642W        W 1639   2.064   4.485   6.921  0.0008 -0.3269  0.0602
  643W        W 1640   2.375   4.676   3.046 -0.2064 -0.3510 -0.0852
  644W        W 1641   5.536   5.183   0.381 -0.1055 -0.0275 -0.1240
  645W        W 1642   5.462   7.030   4.799 -0.1567  0.2634 -0.1764
  646W        W 1643   5.859   6.782   1.959  0.1311  0.0772  0.0690
  647W        W 1644   7.425   3.552   0.433  0.1240  0.1821  0.0797
  648W        W 1645   1.107   5.972   0.104 -0.1921  0.0936  0.2080
  649W        W 1646   6.694   6.927   7.541  0.1496  0.0028  0.2940
  650W        W 1647   5.500   7.457   6.543  0.1889  0.1345  0.0977
  651W        W 1648   7.150   0.678   0.373 -0.1296 -0.0723  0.0457
  652W        W 1649   5.638   0.276   5.845 -0.1375 -0.3515 -0.1329
  653W        W 1650   5.868   2.851   6.988  0.2723  0.0121  0.1512
  654W        W 1651   2.884   5.589   7.290 -0.3248 -0.0979 -0.2737
  655W        W 1652   0.511   4.986   6.261 -0.4033 -0.1935 -0.0174
  656W        W 1653   2.294   2.890   5.164  0.2406  0.0927  0.0007
  657W        W 1654   5.430   6.071   0.290  0.0284  0.1479 -0.3646
  658W        W 1655   2.519   0.452   1.258 -0.3020 -0.2446 -0.1039
  659W        W 1656   0.189   4.808   4.622  0.1209 -0.1691  0.0353
  660W        W 1657   2.142   5.961   5.208 -0.2703 -0.1214  0.1282
  661W        W 1658   6.128   3.471   1.937  0.0760  0.2523  0.1354
  662W        W 1659   5.223   7.519   4.054 -0.1103  0.2277  0.1019
  663W        W 1660   6.064   3.599   5.690 -0.1272 -0.1487  0.1105
  664W        W 1661   4.213   1.459   6.977  0.1833  0.1306  0.0895
  665W        W 1662   7.202   7.227   6.034  0.0089 -0.2279  0.2009
  666W        W 1663   5.271   2.426   6.053 -0.1244 -0.1654  0.1693
  667W        W 1664   2.945   2.348   1.665  0.0864  0.2498  0.3528
  668W        W 1665   6.235   5.830   5.283 -0.0783  0.1012  0.1651
  669W        W 1666   5.987   3.721   4.858  0.1211 -0.1449  0.2718
  670W        W 1667   7.141   7.268   7.484  0.0748  0.1517 -0.0245
  671W        W 1668   1.136   2.167   6.359 -0.1623 -0.0035  0.1874
  672W        W 1669   6.418   4.043   2.279  0.0812  0.3018  0.1413
  673W        W 1670   5.796   4.325   6.999  0.2574 -0.1165 -0.1324
  674W        W 1671   3.469   1.208   1.539  0.0165  0.1105 -0.3979
  675W        W 1672   2.553   4.105   4.752  0.1591  0.0436  0.1993
  676W        W 1673   7.335   6.415   6.414  0.0320 -0.2399 -0.1362
  677W        W 1674   3.913   3.728   3.393 -0.0670  0.0179 -0.2684
  678W        W 1675   7.284   0.766   5.138  0.1063  0.1736 -0.1370
  679W        W 1676   3.949   4.202   4.288  0.0503 -0.1899 -0.0076
  680W        W 1677   5.006   2.450   6.735 -0.0193  0.0640 -0.0738
  681W        W 1678   3.538   5.896   1.559 -0.0399 -0.1593  0.0570
  682W        W 1679   6.092   6.921   5.373 -0.5772 -0.0098  0.0384
  683W        W 1680   3.721   2.594   6.145  0.0082  0.0078 -0.2169
  684W        W 1681   0.668   2.696   4.413  0.1639 -0.0022  0.3457
  685W        W 1682   0.912   6.093   3.937 -0.0480 -0.0355 -0.2346
  686W        W 1683   0.624   4.385   0.890 -0.3083 -0.2945 -0.1025
  687W        W 1684   4.926   1.287   3.899  0.0697  0.0200  0.2624
  688W        W 1685   4.905   0.911   7.223  0.3868 -0.0204 -0.0380
  689W        W 1686   0.345   5.787   5.132 -0.3317  0.0548 -0.0060
  690W        W 1687   4.639   1.755   4.360  0.2702 -0.0280 -0.0078
  691W        W 1688   3.384   7.211   0.379  0.3044 -0.2045 -0.0193
  692W        W 1689   1.457   2.770   6.041  0.1319  0.1502  0.3802
  693W        W 1690   1.206   3.575   6.387 -0.1985 -0.0024  0.2352
  694W        W 1691   3.325   5.253   2.998 -0.0073  0.0032 -0.3588
  695W        W 1692   0.522   1.334   5.666 -0.0609  0.0402  0.2962
  696W        W 1693   5.933   3.367   7.223 -0.0347  0.0210 -0.2179
  697W        W 1694   3.404   2.175   3.957  0.1558 -0.0767 -0.0723
  698W        W 1695   5.479   2.508   0.817  0.1378  0.0518  0.1131
  699W        W 1696   7.341   2.914   5.835 -0.0745 -0.0269  0.3035
  700W        W 1697   3.380   1.603   3.905  0.0789  0.0495 -0.1999
  701W        W 1698   5.285   4.755   4.691 -0.3951 -0.3136 -0.0584
  702W        W 1699   6.889   5.023   7.482  0.1713 -0.4793 -0.0674
  703W        W 1700   2.851   4.515   2.087  0.3182 -0.0098  0.3778
  704W        W 1701   5.970   3.023   6.481  0.1521  0.0045 -0.0851
  705W        W 1702   0.864   3.676   3.549 -0.1630  0.5069  0.2522
  706W        W 1703   4.481   2.757   4.104 -0.1072  0.1209 -0.2021
  707W        W 1704   7.105   4.966   1.155  0.1697  0.1255 -0.1882
  708W        W 1705   6.572   1.701   4.128  0.4301  0.2911 -0.0551
  709W        W 1706   1.055   2.226   2.706  0.0695  0.0784 -0.1529
  710W        W 1707   3.088   3.057   6.700 -0.3313  0.1465 -0.2129
  711W        W 1708   1.413   3.753   6.854 -0.1184 -0.0837  0.1571
  712W        W 1709   2.774   5.150   5.798 -0.0870  0.2401  0.0057
  713W        W 1710   0.564   1.095   0.692 -0.1450  0.0926 -0.6067
  714W        W 1711   3.159   2.067   6.822  0.3432 -0.2744 -0.0490
  715W        W 1712   3.746   6.364   1.581 -0.2134 -0.1989 -0.2259
  716W        W 1713   4.523   1.714   5.234  0.1863  0.0687  0.3334
  717W        W 1714   1.965   2.308   7.603 -0.0539  0.0082  0.1915
  718W        W 1715   4.519   6.994   4.642  0.1275  0.0355 -0.1711
  719W        W 1716   1.906   3.023   4.840  0.0084 -0.0606 -0.2863
  720W        W 1717   6.759   4.250   0.430  0.0963  0.1140 -0.5221
  721W        W 1718   4.375   7.173   0.702 -0.1022 -0.0616  0.0230
  722W        W 1719   2.643   7.172   4.897  0.2420 -0.0974 -0.0142
  723W        W 1720   1.686   2.709   7.617 -0.1702  0.2986 -0.0241
  724W        W 1721   5.865   1.509   6.647  0.0331 -0.0985  0.2922
  725W        W 1722   5.666   7.382   3.944  0.0543 -0.0879  0.0319
  726W        W 1723   4.367   0.214   7.490  0.1211 -0.0005  0.0635
  727W        W 1724   4.473   5.569   6.871  0.1535  0.1235  0.1913
  728W        W 1725   2.649   4.733   6.204 -0.1321  0.1089 -0.1684
  729W        W 1726   4.954   4.475   1.273 -0.1795 -0.3768  0.0521
  730W        W 1727   6.671   2.483   6.209 -0.2480  0.1660 -0.0403
  731W        W 1728   1.397   3.091   6.458  0.1850  0.0717 -0.0857
  732W        W 1729   7.515   2.063   6.056 -0.0001 -0.2312 -0.1997
  733W        W 1730   3.776   1.740   5.564 -0.0620 -0.2461  0.0249
  734W        W 1731   4.059   5.377   5.079 -0.1101  0.2455 -0.2050
  735W        W 1732   5.190   4.597   0.781  0.3799  0.2454  0.2453
  736W        W 1733   3.727   5.594   1.027 -0.2808 -0.1786 -0.0961
  737W        W 1734   1.581   4.329   6.984  0.0364 -0.0846  0.2051
  738W        W 1735   2.523   1.883   6.860  0.2379  0.1158  0.1269
  739W        W 1736   6.147   3.137   5.168  0.1519  0.0709  0.2507
  740W        W 1737   1.795   0.920   3.626 -0.0063  0.0154  0.2306
  741W        W 1738   6.414   3.337   6.436 -0.1023 -0.1037 -0.0167
  742W        W 1739   5.237   0.496   4.934 -0.0407 -0.1252 -0.0450
  743W        W 1740   6.819   1.938   5.141  0.0075  0.0559 -0.1383
  744W        W 1741   4.051   2.552   5.320 -0.3212  0.1059 -0.0127
  745W        W 1742   2.191   4.418   1.431  0.1390 -0.0914  0.0871
  746W        W 1743   7.317   6.745   6.935  0.0566  0.3206 -0.0370
  747W        W 1744   6.142   5.018   5.964  0.0807  0.0996 -0.0294
  748W        W 1745   3.090   5.152   7.084  0.1924 -0.0472 -0.1318
  749W        W 1746   4.329   3.192   3.924  0.3502 -0.0243 -0.1444
  750W        W 1747   1.613   3.113   3.560  0.1765 -0.2176  0.1733
  751W        W 1748   7.374   7.135   0.662 -0.1090 -0.0668 -0.1874
  752W        W 1749   4.066   5.613   0.597  0.0741 -0.0976  0.1522
  753W        W 1750   6.670   2.960   5.169  0.2040 -0.3080 -0.1575
  754W        W 1751   5.424   5.113   5.469  0.1055 -0.0134 -0.0303
  755W        W 1752   3.864   2.426   3.524  0.2592  0.1676  0.1935
  756W        W 1753   2.705   6.191   5.623 -0.2358 -0.2425  0.1443
  757W        W 1754   1.696   3.280   1.589  0.2156 -0.0612 -0.3141
  758W        W 1755   5.328   4.608   1.619  0.0267  0.0345 -0.1081
  759W        W 1756   4.969   3.072   6.779 -0.1041  0.2457  0.1666
  760W        W 1757   2.808   2.490   2.175  0.0219 -0.4313 -0.2405
  761W        W 1758   5.251   5.332   3.817 -0.3043  0.0986  0.1588
  762W        W 1759   1.951   1.132   3.092  0.1789 -0.1296  0.2270
  763W        W 1760   6.941   3.258   5.922 -0.1510 -0.0995 -0.1615
  764W        W 1761   5.685   0.151   4.245 -0.0233  0.0568  0.0398
  765W        W 1762   2.507   5.935   7.407 -0.2356  0.3540  0.1621
  766W        W 1763   1.515   3.131   3.041 -0.1105 -0.2810 -0.2418
  767W        W 1764   4.750   4.063   2.949  0.5063  0.2272  0.3652
  768W        W 1765   4.395   2.539   4.570 -0.2758  0.0058 -0.0974
  769W        W 1766   4.348   2.770   0.212 -0.1967  0.2270 -0.2481
  770W        W 1767   4.662   7.616   7.128 -0.1896  0.0482 -0.0377
  771W        W 1768   6.979   4.771   6.646  0.0468 -0.0138  0.1211
  772W        W 1769   3.204   5.319   0.969 -0.3199 -0.2373 -0.1910
  773W        W 1770   2.105   3.252   3.715  0.0567  0.0356 -0.2848
  774W        W 1771   4.403   0.223   4.129 -0.1607  0.0097  0.0701
  775W        W 1772   2.893   5.457   4.119  0.1353  0.0456 -0.1236
  776W        W 1773   2.238   4.422   3.934  0.1586  0.2623 -0.0807
  777W        W 1774   4.178   6.083   0.365 -0.2155 -0.4891  0.1282
  778W        W 1775   5.900   2.707   4.813  0.0176 -0.0092 -0.0830
  779W        W 1776   0.259   4.884   1.602  0.3978  0.0920  0.0415
  780W        W 1777   7.632   2.063   5.456 -0.2416  0.1878 -0.2041
  781W        W 1778   2.335   1.219   5.648 -0.1092  0.4976  0.0126
  782W        W 1779   2.504   7.218   0.673 -0.2024 -0.1336  0.4754
  783W        W 1780   1.810   5.716   6.813 -0.0853 -0.1394 -0.0378
  784W        W 1781   3.694   2.432   3.011 -0.1034  0.1310 -0.2423
  785W        W 1782   5.890   3.167   4.689  0.1190  0.2646  0.0906
  786W        W 1783   2.446   1.197   6.113 -0.0542  0.2530 -0.1063
  787W        W 1784   3.716   5.090   0.951  0.2659 -0.2585 -0.4779
  788W        W 1785   5.926   4.945   5.482  0.2614 -0.0124  0.1582
  789W        W 1786   5.810   5.450   6.104  0.1081  0.2167 -0.0065
  790W        W 1787   1.678   7.457   6.970  0.0270 -0.1935  0.0120
  791W        W 1788   1.258   0.733   5.515  0.4028  0.1039 -0.1025
  792W        W 1789   3.757   4.479   6.001  0.0872 -0.0472  0.0005
  793W        W 1790   3.883   1.845   4.608 -0.1129 -0.0806 -0.0966
  794W        W 1791   2.094   5.910   1.435 -0.0403 -0.1958  0.0098
  795W        W 1792   4.134   2.024   5.317 -0.0001  0.1839 -0.0841
  796W        W 1793   1.794   6.963   6.847  0.3558  0.0751  0.0347
  797W        W 1794   5.812   2.545   6.599  0.2545  0.1380 -0.1901
  798W        W 1795   4.780   3.952   5.064 -0.1032  0.1020 -0.0144
  799W        W 1796   3.864   0.733   3.923  0.1938 -0.3710 -0.1290
  800W        W 1797   1.774   1.624   4.461 -0.0632  0.0019 -0.0633
  801W        W 1798   2.940   3.577   0.328  0.1419 -0.0305  0.2254
  802W        W 1799   6.944   4.652   2.049 -0.2204 -0.0256 -0.0481
  803W        W 1800   7.235   5.511   6.386 -0.0863 -0.0323 -0.2326
  804W        W 1801   3.043   1.266   1.195 -0.0472  0.1541 -0.3056
  805W        W 1802   4.579   6.675   6.908 -0.0028  0.1720  0.1962
  806W        W 1803   3.868   0.619   6.210  0.1016  0.0639 -0.1379
  807W        W 1804   6.902   5.155   6.306  0.0787  0.2197  0.0601
  808W        W 1805   1.578   5.391   3.077  0.2593  0.2386  0.1232
  809W        W 1806   7.503   6.267   0.601  0.1224  0.5510  0.0721
  810W        W 1807   6.212   6.789   3.579  0.0758  0.1421 -0.6996
  811W        W 1808   4.006   1.045   6.614 -0.0203  0.1188 -0.0519
  812W        W 1809   4.662   3.087   7.235 -0.0701  0.2065  0.0269
  813W        W 1810   4.074   2.439   4.035 -0.1942  0.1335  0.1766
  814W        W 1811   4.321   1.441   5.614  0.1802  0.1128 -0.0496
  815W        W 1812   4.011   0.214   4.695 -0.1266 -0.1328  0.0016
  816W        W 1813   6.742   3.884   6.625  0.3319 -0.0151  0.1100
  817W        W 1814   3.275   6.351   0.721  0.2061 -0.0227  0.2049
  818W        W 1815   6.448   0.941   4.242  0.2433 -0.0123  0.1700
  819W        W 1816   5.451   3.255   4.406 -0.0769  0.1482  0.0337
  820W        W 1817   5.880   1.690   4.657 -0.2246  0.0195  0.0225
  821W        W 1818   0.006   3.162   4.714  0.2822  0.2276 -0.0168
  822W        W 1819   0.524   3.879   4.265  0.0253  0.0450 -0.1465
  823W        W 1820   6.097   7.629   6.821  0.1786 -0.0737 -0.0938
  824W        W 1821   6.027   4.999   3.924  0.0426 -0.0988  0.0652
  825W        W 1822   7.241   6.652   1.490  0.1217  0.0523 -0.0529
  826W        W 1823   5.527   4.714   1.160 -0.0866  0.1224 -0.2266
  827W        W 1824   4.577   2.177   4.036  0.0025 -0.1584 -0.2932
  828W        W 1825   1.848   2.570   1.107 -0.0269 -0.0824 -0.0264
  829W        W 1826   4.115   3.022   2.835  0.1378 -0.0174  0.0935
  830W        W 1827   6.058   0.168   3.274  0.0017  0.0716 -0.0772
  831W        W 1828   4.965   5.367   0.617 -0.0489  0.1309 -0.1052
  832W        W 1829   1.753   2.029   1.298 -0.1763 -0.1719  0.1658
  833W        W 1830   6.659   2.445   7.618 -0.3469 -0.0827 -0.1584
  834W        W 1831   7.606   6.086   4.620 -0.2489  0.4147 -0.0364
  835W        W 1832   2.329   0.342   2.117 -0.1423 -0.3823 -0.0173
  836W        W 1833   5.749   2.842   3.577 -0.0929 -0.3930  0.1043
  837W        W 1834   4.015   2.856   4.342 -0.1131  0.1418 -0.0111
  838W        W 1835   3.524   4.441   2.143  0.3284 -0.2147  0.1143
  839W        W 1836   3.509   0.645   3.423 -0.1953 -0.1832  0.4439
  840W        W 1837   1.372   4.590   6.546 -0.1496 -0.0371 -0.0486
  841W        W 1838   0.816   6.982   1.058  0.0157 -0.1629 -0.1046
  842W        W 1839   3.034   4.255   3.999  0.2346 -0.0827 -0.1328
  843W        W 1840   4.502   0.817   3.176  0.1139  0.1152 -0.1960
  844W        W 1841   5.626   3.793   0.816 -0.0424  0.0082 -0.0676
  845W        W 1842   2.940   1.902   2.865  0.1495  0.2119 -0.2144
  846W        W 1843   2.448   1.990   5.045 -0.1275 -0.1087  0.0777
  847W        W 1844   0.976   5.730   7.271  0.2983 -0.0557  0.1328
  848W        W 1845   7.159   5.864   7.483 -0.0592 -0.2238 -0.0290
  849W        W 1846   0.421   1.814   6.922  0.0362 -0.1436 -0.0886
  850W        W 1847   7.172   5.490   5.881  0.0421 -0.2006  0.1341
  851W        W 1848   5.398   5.202   6.373 -0.1412 -0.0852  0.2747
  852W        W 1849   5.898   3.102   5.733  0.0552  0.0653 -0.0055
  853W        W 1850   3.491   3.625   2.042 -0.0049  0.0720 -0.1624
  854W        W 1851   2.435   6.367   7.020  0.1189 -0.1507 -0.2455
  855W        W 1852   3.600   4.880   3.458 -0.0430  0.1411  0.0033
  856W        W 1853   6.782   0.347   5.935 -0.0235  0.1770 -0.1292
  857W        W 1854   7.133   6.441   3.043  0.2784  0.1542 -0.1936
  858W        W 1855   4.054   0.653   0.487 -0.3166 -0.1411 -0.0245
  859W        W 1856   6.169   1.205   7.459 -0.0202  0.0356 -0.1733
  860W        W 1857   0.092   3.831   5.695  0.5488 -0.0884  0.2368
  861W        W 1858   2.947   2.853   7.228 -0.0422  0.2283 -0.0974
  862W        W 1859   5.645   6.542   3.232 -0.3697  0.3447 -0.4116
  863W        W 1860   5.731   3.331   6.749 -0.2342  0.1230 -0.1455
  864W        W 1861   1.602   3.286   6.897  0.0356 -0.0712 -0.0206
  865W        W 1862   5.470   3.122   7.113  0.3048  0.0085 -0.1427
  866W        W 1863   7.497   6.496   4.410  0.0012 -0.1733  0.0744
  867W        W 1864   7.221   0.113   3.204  0.1499  0.0508 -0.1708
  868W        W 1865   2.837   3.805   4.370  0.1427  0.2174 -0.1344
  869W        W 1866   3.252   6.111   5.642  0.1271 -0.0578  0.1067
  870W        W 1867   3.635   3.251   0.388  0.2096 -0.1199  0.1714
  871W        W 1868   4.283   4.764   1.739  0.0686  0.1119  0.0102
  872W        W 1869   5.583   4.318   0.867 -0.0113  0.0563 -0.0201
  873W        W 1870   1.827   1.299   0.389 -0.1859  0.2434  0.1517
  874W        W 1871   6.105   3.309   1.370  0.1986  0.3969 -0.4407
  875W        W 1872   4.415   3.249   2.359  0.0903  0.0020  0.0381
  876W        W 1873   3.689   0.040   5.026  0.1699  0.2524 -0.4493
  877W        W 1874   7.017   2.077   6.180  0.0143  0.2248  0.2855
  878W        W 1875   1.845   2.748   3.034  0.1980 -0.1865  0.0901
  879W        W 1876   2.569   4.126   1.202  0.0292  0.1781 -0.2080
  880W        W 1877   7.183   5.783   4.657  0.1088  0.2375 -0.2509
  881W        W 1878   4.953   6.047   3.472 -0.1148 -0.1063  0.1538
  882W        W 1879   2.873   2.631   0.293  0.0701  0.1039 -0.0649
  883W        W 1880   5.407   6.582   0.019 -0.1117  0.1263  0.0350
  884W        W 1881   1.748   0.824   0.137 -0.1659  0.2339 -0.0240
  885W        W 1882   3.434   5.153   5.776 -0.2678  0.1572 -0.4069
  886W        W 1883   1.439   3.758   1.570  0.0842  0.1377  0.2133
  887W        W 1884   5.796   2.138   6.270  0.0586  0.0174  0.2986
  888W        W 1885   5.245   4.023   4.779 -0.3649 -0.0845 -0.0052
  889W        W 1886   3.029   1.215   5.069 -0.1688  0.0670  0.1340
  890W        W 1887   1.304   5.039   3.279 -0.0111 -0.2268 -0.2802
  891W        W 1888   3.268   6.688   0.382  0.0390  0.0388  0.2148
  892W        W 1889   4.978   0.789   0.239 -0.2253 -0.3028  0.2233
  893W        W 1890   4.442   3.953   1.236  0.1246 -0.1438  0.2920
  894W        W 1891   5.225   1.143   3.520  0.0234  0.0909 -0.1148
  895W        W 1892   2.293   1.355   3.353 -0.2756  0.0227  0.2892
  896W        W 1893   6.171   7.549   0.252 -0.0171 -0.1156  0.1756
  897W        W 1894   5.028   3.250   6.108 -0.2216 -0.0539 -0.1217
  898W        W 1895   3.928   5.540   7.529  0.1036 -0.1929  0.0862
  899W        W 1896   2.707   6.702   5.233  0.0474 -0.3043 -0.0385
  900W        W 1897   6.046   6.322   7.182 -0.0510 -0.0139  0.1684
  901W        W 1898   3.352   7.184   0.869  0.2737  0.0437 -0.1632
  902W        W 1899   5.008   0.909   3.130 -0.0106 -0.2688  0.0468
  903W        W 1900   3.533   5.051   6.789 -0.1974  0.0514  0.3843
  904W        W 1901   1.957   7.116   7.538  0.0722  0.1103 -0.0861
  905W        W 1902   7.070   6.090   2.059  0.1448  0.1494  0.2901
  906W        W 1903   0.839   0.080   4.773  0.1918 -0.4486 -0.0627
  907W        W 1904   4.534   5.922   4.335 -0.2000 -0.1680 -0.0515
  908W        W 1905   5.688   4.965   1.789 -0.4271 -0.0396 -0.1432
  909W        W 1906   5.670   7.444   3.341 -0.3373 -0.1165 -0.2258
  910W        W 1907   4.178   4.167   0.303  0.0343  0.1412  0.2319
  911W        W 1908   3.836   5.480   5.979  0.3219  0.0376 -0.0702
  912W        W 1909   3.267   2.789   6.262 -0.3920 -0.1855 -0.1624
  913W        W 1910   3.063   3.569   2.339 -0.4450 -0.1402 -0.2610
  914W        W 1911   4.311   5.137   7.063  0.1028  0.0330 -0.2467
  915W        W 1912   5.619   0.183   5.059 -0.1154  0.0134  0.1021
  916W        W 1913   4.181   1.313   3.139  0.1866  0.2481 -0.1589
  917W        W 1914   0.385   2.186   6.200  0.0992 -0.1955  0.0782
  918W        W 1915   2.469   4.312   0.402 -0.1151 -0.3159 -0.3232
  919W        W 1916   4.681   7.165   0.193  0.1124  0.0527 -0.1294
  920W        W 1917   0.845   6.628   5.707 -0.0229  0.0198 -0.0373
  921W        W 1918   0.441   6.634   7.471 -0.2975  0.2733  0.0242
  922W        W 1919   5.204   3.565   6.816 -0.3204 -0.1137  0.2066
  923W        W 1920   7.434   3.830   6.132  0.0350 -0.3954  0.3142
  924W        W 1921   3.610   0.535   0.253 -0.0050 -0.1261  0.0158
  925W        W 1922   2.138   7.220   7.062  0.0182  0.0984 -0.2085
  926W        W 1923   0.854   6.187   4.564  0.1317 -0.3309  0.2641
  927W        W 1924   7.349   7.599   1.006  0.0473 -0.1894  0.4388
  928W        W 1925   3.589   1.507   0.617  0.0948  0.0760  0.1193
  929W        W 1926   6.036   2.087   5.707  0.0640 -0.0395 -0.2610
  930W        W 1927   7.469   3.161   1.831  0.1305  0.0288  0.0808
  931W        W 1928   5.684   5.339   3.304  0.1865  0.0756 -0.2564
  932W        W 1929   3.322   4.120   1.766  0.0184  0.0900 -0.1517
  933W        W 1930   3.812   6.370   5.931 -0.3137  0.0324 -0.4115
  934W        W 1931   6.178   6.506   0.811  0.1934  0.0220 -0.2259
  935W        W 1932   6.996   2.649   4.942 -0.0221 -0.2522  0.2212
  936W        W 1933   3.302   0.428   1.582  0.1411 -0.0384  0.0346
  937W        W 1934   1.814   3.643   7.165 -0.1202 -0.0734 -0.1414
  938W        W 1935   6.263   1.017   5.240 -0.0205 -0.0433 -0.0811
  939W        W 1936   0.949   6.544   4.195  0.1922 -0.2378 -0.1155
  940W        W 1937   4.315   1.776   2.954  0.0569  0.1630  0.1495
  941W        W 1938   5.558   6.128   0.819  0.0794 -0.3120 -0.0092
  942W        W 1939   5.430   2.645   5.042  0.2411 -0.0334 -0.0453
  943W        W 1940   4.392   1.955   4.787 -0.1414  0.0660  0.1240
  944W        W 1941   1.955   2.354   6.342 -0.0638 -0.1597 -0.2684
  945W        W 1942   0.051   3.279   7.171 -0.0754 -0.2483 -0.0398
  946W        W 1943   4.041   4.564   2.474  0.0350 -0.1929 -0.0949
  947W        W 1944   3.795   3.812   3.894 -0.0893 -0.0477  0.2850
  948W        W 1945   2.539   5.777   4.929  0.1843  0.0035  0.1370
  949W        W 1946   5.214   6.323   5.582 -0.1126  0.1784  0.2983
  950W        W 1947   4.184   5.616   6.411  0.1634 -0.0097 -0.1002
  951W        W 1948   2.274   5.486   7.185  0.1544  0.0330 -0.0761
  952W        W 1949   5.782   4.832   4.601  0.2169  0.0534 -0.3177
  953W        W 1950   6.934   7.074   0.301 -0.2216 -0.0591 -0.3421
  954W        W 1951   7.240   3.450   1.440  0.0161  0.1352 -0.1293
  955W        W 1952   1.274   3.875   4.832  0.0799  0.0384 -0.0581
  956W        W 1953   4.964   0.031   5.011  0.0324  0.3332  0.0774
  957W        W 1954   0.954   1.096   5.229 -0.0414 -0.0095  0.0741
  958W        W 1955   2.253   0.691   6.223 -0.2756  0.0810  0.1322
  959W        W 1956   6.106   4.734   5.030  0.2093  0.2298  0.0550
  960W        W 1957   5.274   2.258   4.749  0.2853  0.0393 -0.2363
  961W        W 1958   5.060   4.282   0.416 -0.1614 -0.1898 -0.1059
  962W        W 1959   5.945   7.423   0.684 -0.0841  0.3763 -0.0455
  963W        W 1960   4.655   1.975   2.617 -0.1248  0.0582 -0.0472
  964W        W 1961   1.793   7.443   6.409  0.2432  0.3181  0.1294
  965W        W 1962   1.765   5.374   0.171 -0.1461  0.1877 -0.0021
  966W        W 1963   1.195   2.056   6.834 -0.4120  0.0486  0.0627
  967W        W 1964   3.161   0.578   4.310  0.2813 -0.0390 -0.2406
  968W        W 1965   5.486   0.396   3.251  0.2396  0.0455  0.1521
  969W        W 1966   6.449   3.987   4.951  0.0100 -0.1997  0.2317
  970W        W 1967   4.338   0.997   7.090 -0.2159 -0.0516  0.0345
  971W        W 1968   4.701   6.721   7.488  0.2231  0.0997 -0.2161
  972W        W 1969   3.372   3.810   0.474  0.2518 -0.0765 -0.2028
  973W        W 1970   7.188   2.296   5.204  0.2271 -0.1924 -0.1481
  974W        W 1971   0.653   3.448   6.442  0.0174  0.2057 -0.0497
  975W        W 1972   6.170   5.526   7.464 -0.0451 -0.1390 -0.1565
  976W        W 1973   3.448   5.722   7.467  0.0042 -0.0373 -0.1431
  977W        W 1974   5.139   0.437   7.096  0.0379  0.1793  0.0339
  978W        W 1975   4.790   2.182   4.512 -0.0104  0.0180 -0.1911
  979W        W 1976   0.717   7.345   5.087 -0.2018 -0.1862 -0.0183
  980W        W 1977   2.159   6.856   6.060  0.1258 -0.0428 -0.2165
  981W        W 1978   2.363   0.725   1.687 -0.0878  0.1029 -0.0805
  982W        W 1979   2.222   1.788   4.692 -0.1651 -0.0345 -0.2025
  983W        W 1980   2.196   4.843   6.450  0.2075 -0.1220  0.0053
  984W        W 1981   4.537   0.891   0.499  0.1057 -0.4873  0.1733
  985W        W 1982   0.317   4.069   6.547 -0.0581 -0.0850 -0.0758
  986W        W 1983   1.172   4.109   3.410 -0.0218  0.3734  0.0181
  987W        W 1984   7.318   4.780   5.372 -0.1187 -0.0676  0.1897
  988W        W 1985   5.054   4.823   5.766 -0.0750  0.1292  0.1920
  989W        W 1986   7.467   4.742   1.880  0.2647  0.1293  0.0078
  990W        W 1987   2.342   2.735   4.659  0.0926  0.0280 -0.1978
  991W        W 1988   1.332   5.643   6.469 -0.0016  0.1135  0.0190
  992W        W 1989   5.168   5.295   3.231 -0.0025  0.1395 -0.0095
  993W        W 1990   6.258   6.786   7.229 -0.1225 -0.1008  0.0645
  994W        W 1991   0.070   5.686   1.721  0.0787  0.1361  0.0579
  995W        W 1992   4.462   4.666   2.259 -0.0287 -0.2023  0.1044
  996W        W 1993   2.288   4.884   4.142  0.2512 -0.1885 -0.1040
  997W        W 1994   7.248   3.671   4.115  0.0745 -0.0879  0.0355
  998W        W 1995   5.500   2.007   5.772  0.0632 -0.3429 -0.1276
  999W        W 1996   5.142   5.172   4.327  0.1065 -0.0562 -0.1694
 1000W        W 1997   4.383   7.515   5.971  0.1152 -0.1154  0.0447
 1001W        W 1998   2.143   7.195   4.979 -0.1137 -0.0300  0.1429
 1002W        W 1999   6.667   2.926   1.282  0.2921 -0.2077 -0.0477
 1003W        W 2000   1.754   3.194   5.443  0.1542  0.2099 -0.0111
 1004W        W 2001   1.082   1.992   7.335 -0.1090  0.1284  0.0546
 1005W        W 2002   0.757   6.315   0.348  0.2707 -0.1982  0.2716
 1006W        W 2003   4.445   2.870   5.077  0.0929  0.0842  0.2118
 1007W        W 2004   2.927   7.414   0.452  0.0427  0.1332 -0.2581
 1008W        W 2005   5.828   5.836   6.407 -0.1245 -0.0576 -0.0358
 1009W        W 2006   1.004   2.003   3.601  0.3393  0.0697 -0.0510
 1010W        W 2007   6.372   5.729   0.295  0.0719  0.1894 -0.0424
 1011W        W 2008   6.912   3.934   6.173  0.1172  0.0815 -0.1806
 1012W        W 2009   1.593   7.411   7.486 -0.0346  0.2192 -0.1746
 1013W        W 2010   2.149   2.744   5.635  0.4420 -0.2033  0.1908
 1014W        W 2011   1.316   6.267   6.255  0.5089  0.0269 -0.0031
 1015W        W 2012   7.304   1.790   5.238 -0.1803 -0.3033 -0.0718
 1016W        W 2013   1.024   1.347   6.165 -0.2982  0.0237 -0.2549
 1017W        W 2014   6.659   0.683   0.103 -0.0013  0.0802  0.0062
 1018W        W 2015   2.200   7.402   6.083 -0.1276 -0.1952 -0.0149
 1019W        W 2016   2.239   1.394   0.199  0.0044 -0.1925 -0.2353
 1020W        W 2017   4.811   4.853   0.923 -0.1483  0.2136 -0.1462
 1021W        W 2018   3.026   0.054   5.643  0.0672 -0.0797 -0.1918
 1022W        W 2019   2.932   1.976   4.050  0.1970  0.0116  0.3113
 1023W        W 2020   4.810   2.605   3.341 -0.1582  0.2002  0.1045
 1024W        W 2021   3.992   4.613   0.130 -0.1387  0.0054  0.2346
 1025W        W 2022   7.328   6.288   7.143 -0.2137  0.1773  0.1521
 1026W        W 2023   5.349   1.193   7.058 -0.2432 -0.0974 -0.0089
 1027W        W 2024   1.377   4.677   5.183 -0.0986 -0.0058  0.4415
 1028W        W 2025   1.111   2.056   5.576 -0.2141  0.2839 -0.2691
 1029W        W 2026   4.100   1.159   0.759 -0.1187 -0.1148  0.0589
 1030W        W 2027   3.339   6.301   4.624 -0.0896 -0.2715 -0.1408
 1031W        W 2028   5.243   0.360   0.294  0.1360 -0.1380  0.0913
 1032W        W 2029   5.435   1.622   5.457  0.3074  0.2275 -0.0581
 1033W        W 2030   5.275   1.268   6.522  0.2812 -0.1720 -0.2785
 1034W        W 2031   0.460   5.380   4.290  0.1998  0.0222  0.2178
 1035W        W 2032   6.111   6.410   2.137  0.1655 -0.3407 -0.1267
 1036W        W 2033   5.916   5.976   3.402 -0.0319 -0.1177  0.1816
 1037W        W 2034   6.161   5.500   5.706  0.0211  0.3222  0.2911
 1038W        W 2035   3.365   5.757   2.790 -0.0157  0.4873  0.0336
 1039W        W 2036   6.554   1.919   0.259 -0.0107  0.0516  0.2409
 1040W        W 2037   1.414   1.797   0.030 -0.0414  0.1181 -0.0462
 1041W        W 2038   1.275   1.070   6.520  0.0701  0.0374  0.0175
 1042W        W 2039   5.059   6.432   7.292 -0.0695 -0.0249 -0.1263
 1043W        W 2040   6.890   4.838   2.901  0.0685  0.0547  0.1726
 1044W        W 2041   2.742   3.884   6.482 -0.2287 -0.3054  0.1726
 1045W        W 2042   1.097   0.240   0.450 -0.2348 -0.2857 -0.2101
 1046W        W 2043   1.286   2.583   5.454  0.2892 -0.2763 -0.1827
 1047W        W 2044   6.420   6.377   7.497  0.0121 -0.2509  0.0722
 1048W        W 2045   3.646   0.971   4.338  0.0541  0.1905 -0.0224
 1049W        W 2046   4.903   0.373   3.125  0.2862 -0.1460  0.0421
 1050W        W 2047   3.918   3.395   5.692  0.1353 -0.0006 -0.0471
 1051W        W 2048   2.586   3.713   2.585  0.2519  0.4158 -0.0677
 1052W        W 2049   4.104   0.337   5.870  0.0060  0.0895 -0.0265
 1053W        W 2050   5.490   1.864   0.091  0.0315  0.1655  0.1645
 1054W        W 2051   4.935   4.844   7.329  0.0688  0.1612 -0.0607
 1055W        W 2052   2.795   2.321   3.054  0.2007 -0.1401  0.0538
 1056W        W 2053   5.503   4.086   7.380 -0.1593  0.2671 -0.1115
 1057W        W 2054   2.111   2.669   0.688  0.0155 -0.1369 -0.3112
 1058W        W 2055   4.875   5.976   5.256 -0.1820  0.0796  0.1407
 1059W        W 2056   2.569   5.265   1.331 -0.0720  0.1173  0.0600
 1060W        W 2057   7.413   3.173   4.271 -0.0514  0.0336 -0.2128
 1061W        W 2058   4.505   0.715   4.018  0.0351 -0.0081 -0.2038
 1062W        W 2059   7.291   1.358   4.398 -0.1101 -0.1383  0.1726
 1063W        W 2060   2.692   0.708   0.063  0.1150 -0.0719  0.0517
 1064W        W 2061   3.086   6.401   5.304 -0.0640  0.2925  0.1925
 1065W        W 2062   4.275   7.408   1.186  0.0501 -0.2553 -0.1443
 1066W        W 2063   6.500   6.361   3.577 -0.5184 -0.1400  0.1590
 1067W        W 2064   2.565   5.046   4.990 -0.1422 -0.0864  0.2835
 1068W        W 2065   3.393   0.647   7.113  0.3253  0.0606 -0.0426
 1069W        W 2066   6.008   5.991   0.675 -0.0829  0.0249  0.1573
 1070W        W 2067   4.493   4.629   5.014  0.1066 -0.0505 -0.1596
 1071W        W 2068   3.236   2.357   5.268 -0.1716 -0.1305 -0.3364
 1072W        W 2069   6.407   7.151   1.417  0.0904  0.0010  0.1268
 1073W        W 2070   7.478   6.194   1.598  0.0240  0.1089 -0.0615
 1074W        W 2071   5.789   3.603   2.910  0.1324 -0.2281 -0.2269
 1075W        W 2072   0.235   7.060   0.354  0.2318  0.0785 -0.1380
 1076W        W 2073   4.821   6.536   4.866 -0.0150 -0.1460 -0.1767
 1077W        W 2074   6.611   6.339   4.293 -0.1964 -0.3498 -0.0611
 1078W        W 2075   1.936   4.100   6.070  0.0003 -0.2027 -0.1645
 1079W        W 2076   5.408   5.760   3.348  0.0934 -0.0351 -0.3654
 1080W        W 2077   1.063   4.763   1.422  0.3584 -0.0095  0.0419
 1081W        W 2078   5.440   3.149   5.009 -0.3306  0.0094  0.1537
 1082W        W 2079   6.197   7.182   6.044 -0.1999  0.3319 -0.0330
 1083W        W 2080   7.503   1.311   7.187 -0.1338 -0.0494 -0.1306
 1084W        W 2081   2.819   2.698   5.437  0.0291 -0.1278 -0.0431
 1085W        W 2082   3.117   0.261   2.543 -0.1820  0.3357  0.0649
 1086W        W 2083   0.990   1.373   7.464 -0.0796 -0.0865  0.1605
 1087W        W 2084   5.356   6.434   5.090 -0.2668  0.3021  0.0836
 1088W        W 2085   4.336   2.278   6.674  0.1643 -0.0286  0.0049
 1089W        W 2086   6.193   4.255   7.251 -0.1171  0.0770  0.0423
 1090W        W 2087   6.671   4.047   3.093 -0.1158  0.1070  0.0693
 1091W        W 2088   7.558   3.374   5.867 -0.0184 -0.1112 -0.1327
 1092W        W 2089   4.440   5.558   7.467  0.1860  0.1102 -0.2432
 1093W        W 2090   4.709   7.521   3.895  0.1918 -0.1209 -0.2486
 1094W        W 2091   2.755   3.304   1.621 -0.1076  0.0874  0.3495
 1095W        W 2092   2.933   3.068   2.125 -0.1240 -0.3127  0.1681
 1096W        W 2093   5.528   5.556   6.752 -0.4873 -0.0009  0.1203
 1097W        W 2094   4.281   5.400   0.249 -0.0545 -0.0651 -0.1281
 1098W        W 2095   4.739   1.426   4.790 -0.0971 -0.0199 -0.2396
 1099W        W 2096   4.634   1.374   0.285 -0.0322  0.0418  0.3814
 1100W        W 2097   1.410   1.190   3.827 -0.2436  0.1022  0.2024
 1101W        W 2098   0.019   3.852   1.583 -0.0470  0.0321  0.0532
 1102W        W 2099   2.852   1.193   5.555  0.0847  0.3099 -0.2117
 1103W        W 2100   4.793   0.857   3.619 -0.0443  0.1225 -0.3673
 1104W        W 2101   4.726   6.159   5.752  0.0616  0.1000  0.2154
 1105W        W 2102   1.011   1.263   0.344 -0.1058  0.1535  0.0851
 1106W        W 2103   1.199   7.290   1.176 -0.1510  0.1918 -0.0352
 1107W        W 2104   3.381   2.348   1.245 -0.1739 -0.2827 -0.0822
 1108W        W 2105   4.707   2.937   1.558 -0.3547 -0.3823 -0.0484
 1109W        W 2106   1.181   6.404   7.504 -0.3339 -0.0869 -0.0303
 1110W        W 2107   2.159   1.652   0.651 -0.0045 -0.0938 -0.0085
 1111W        W 2108   3.425   5.622   3.855  0.0013  0.0106  0.1990
 1112W        W 2109   2.555   2.955   0.551  0.1899  0.1577  0.0567
 1113W        W 2110   3.257   1.757   5.167  0.1850  0.2930  0.2049
 1114W        W 2111   1.702   2.007   7.284  0.0538 -0.1158 -0.0565
 1115W        W 2112   5.773   1.277   6.202 -0.0285  0.0049 -0.1403
 1116W        W 2113   3.471   3.602   2.685  0.0674 -0.2107 -0.2752
 1117W        W 2114   1.063   1.544   4.047 -0.3555  0.0423  0.0298
 1118W        W 2115   1.564   4.473   6.064 -0.2773 -0.2923 -0.1750
 1119W        W 2116   5.890   1.683   4.068  0.1543  0.1141  0.0483
 1120W        W 2117   7.487   6.985   4.232  0.1130 -0.2052  0.1562
 1121W        W 2118   1.103   1.396   1.268 -0.2130 -0.1819 -0.0241
 1122W        W 2119   2.414   2.978   3.366 -0.0968  0.1928 -0.1525
 1123W        W 2120   4.652   4.548   2.811 -0.1704  0.1464 -0.0897
 1124W        W 2121   0.152   5.069   7.609  0.0597  0.2454 -0.1592
 1125W        W 2122   1.436   0.674   6.871  0.3697  0.1755  0.2586
 1126W        W 2123   3.845   1.269   1.174  0.1746  0.3087  0.1120
 1127W        W 2124   6.426   1.534   5.127  0.0568  0.1753 -0.0777
 1128W        W 2125   1.372   2.627   0.330 -0.0767 -0.2456 -0.1659
 1129W        W 2126   0.239   0.073   6.593 -0.1403  0.4386 -0.2401
 1130W        W 2127   3.447   4.792   1.302 -0.3277 -0.0628 -0.0232
 1131W        W 2128   3.836   3.862   7.312  0.1502 -0.2394  0.0973
 1132W        W 2129   2.606   0.797   5.803  0.1627  0.0570  0.0999
 1133W        W 2130   3.883   6.156   7.446 -0.5314  0.0060  0.1017
 1134W        W 2131   3.923   4.058   5.672 -0.3234 -0.0419  0.1527
 1135W        W 2132   7.546   7.218   5.647 -0.0861  0.0187  0.0107
 1136W        W 2133   4.097   5.151   3.332  0.0458  0.1493  0.2710
 1137W        W 2134   3.202   1.857   0.502  0.3118 -0.2120  0.2203
 1138W        W 2135   3.894   2.014   1.928  0.0263 -0.3940  0.1977
 1139W        W 2136   4.194   2.902   7.341 -0.2266  0.1985 -0.0437
 1140W        W 2137   6.328   5.560   0.969  0.0123  0.0188 -0.0675
 1141W        W 2138   1.758   3.639   1.173  0.2007 -0.0155  0.0754
 1142W        W 2139   2.259   5.174   0.410  0.0260  0.1111 -0.1037
 1143W        W 2140   5.870   4.366   0.467 -0.1081  0.1347  0.0554
 1144W        W 2141   4.186   2.560   3.137 -0.0599 -0.0650  0.1694
 1145W        W 2142   7.468   4.789   6.221 -0.0853 -0.1691  0.1550
 1146W        W 2143   4.588   1.457   6.075 -0.0809  0.0398 -0.0295
 1147W        W 2144   7.397   6.847   4.736  0.1670  0.1746  0.1331
 1148W        W 2145   2.259   1.277   2.772 -0.0099 -0.3048 -0.1078
 1149W        W 2146   5.032   1.296   4.387 -0.0487 -0.0473 -0.1982
 1150W        W 2147   7.579   0.198   4.841  0.3147  0.1232 -0.0322
 1151W        W 2148   2.125   2.883   0.107  0.0830  0.1809  0.2096
 1152W        W 2149   6.175   2.849   1.244  0.4243  0.0590  0.2723
 1153W        W 2150   7.573   5.233   1.921 -0.2766  0.3179  0.0536
 1154W        W 2151   0.986   1.026   0.884  0.0647 -0.0595  0.1877
 1155W        W 2152   7.402   3.843   6.603  0.1337  0.2287 -0.1073
 1156W        W 2153   5.112   2.699   0.599  0.4406  0.2139  0.0080
 1157W        W 2154   6.774   5.360   0.963 -0.0543 -0.2597 -0.3193
 1158W        W 2155   0.473   6.415   6.991  0.1028 -0.1240  0.1310
 1159W        W 2156   0.038   7.576   0.660  0.1690  0.0814  0.0259
 1160W        W 2157   2.262   5.020   6.986 -0.0731 -0.3047 -0.0803
 1161W        W 2158   0.407   6.214   0.773 -0.0407  0.0862  0.1201
 1162W        W 2159   3.609   0.730   5.767 -0.2776  0.0020 -0.0829
 1163W        W 2160   6.523   6.764   3.254 -0.1998  0.0699 -0.0821
 1164W        W 2161   3.253   2.018   5.630 -0.0416  0.0210 -0.1349
 1165W        W 2162   3.505   0.807   1.988 -0.0279 -0.0164 -0.2194
 1166W        W 2163   5.078   2.877   2.962 -0.0410  0.0995  0.0159
 1167W        W 2164   3.458   4.900   6.253 -0.0046  0.4128 -0.0139
 1168W        W 2165   0.232   1.243   0.378  0.1460 -0.2578 -0.0957
 1169W        W 2166   6.617   7.319   4.094 -0.0367 -0.0535 -0.0388
 1170W        W 2167   3.145   6.037   6.501 -0.1619 -0.1020  0.0183
 1171W        W 2168   2.073   0.130   4.986 -0.0008 -0.0781  0.4547
 1172W        W 2169   4.338   3.266   0.534  0.0984  0.1412 -0.1179
 1173W        W 2170   3.949   3.715   6.090 -0.2162 -0.0645 -0.3272
 1174W        W 2171   3.008   1.690   0.947 -0.0407 -0.0575  0.1906
 1175W        W 2172   5.042   4.394   2.098  0.0747  0.3183 -0.0773
 1176W        W 2173   5.606   2.571   7.297  0.2146 -0.0454  0.0102
 1177W        W 2174   1.330   0.912   1.218  0.1251  0.4369 -0.0170
 1178W        W 2175   4.573   6.469   5.389 -0.1598 -0.1048  0.0815
 1179W        W 2176   0.920   5.271   7.094  0.3013 -0.3035  0.4133
 1180W        W 2177   0.749   7.590   0.210 -0.1484  0.2155  0.0206
 1181W        W 2178   1.880   3.683   5.631  0.1939  0.2104  0.1615
 1182W        W 2179   0.061   3.750   0.781  0.0165 -0.2692 -0.3147
 1183W        W 2180   1.577   1.757   3.939 -0.1159  0.1245 -0.0463
 1184W        W 2181   2.629   6.410   0.755  0.1462  0.1340 -0.0169
 1185W        W 2182   6.365   3.535   4.607 -0.1943  0.3323 -0.4302
 1186W        W 2183   0.545   4.548   4.359  0.2057  0.0594 -0.0929
 1187W        W 2184   1.797   4.014   3.785  0.1924 -0.0083  0.1244
 1188W        W 2185   3.091   0.601   2.101  0.3718 -0.1938 -0.2042
 1189W        W 2186   0.669   7.274   4.525 -0.2030 -0.1023  0.2774
 1190W        W 2187   4.822   2.042   6.591 -0.1810  0.3639 -0.0714
 1191W        W 2188   0.835   6.206   1.234  0.0970  0.0359  0.0878
 1192W        W 2189   0.907   5.132   2.036 -0.1347  0.2406 -0.0655
 1193W        W 2190   5.000   0.970   4.841 -0.3486 -0.1762  0.0103
 1194W        W 2191   3.510   5.682   5.648 -0.1113 -0.1592 -0.0119
 1195W        W 2192   2.408   4.706   4.627  0.0331 -0.1499 -0.0199
 1196W        W 2193   4.010   2.827   3.759 -0.0646  0.0913  0.0781
 1197W        W 2194   6.814   4.077   1.415 -0.2546  0.0935 -0.0734
 1198W        W 2195   5.511   5.240   4.656 -0.0373 -0.2659 -0.0224
 1199W        W 2196   4.073   3.115   6.436  0.3302 -0.2395 -0.0246
 1200W        W 2197   2.533   2.650   7.412  0.1458  0.2154 -0.0407
 1201W        W 2198   1.883   5.567   6.220 -0.0018 -0.3614 -0.2770
 1202W        W 2199   6.522   4.334   2.698  0.2097  0.2232  0.0811
 1203W        W 2200   2.936   0.207   4.729  0.2667  0.0030 -0.0896
 1204W        W 2201   6.747   4.333   4.159  0.0186 -0.1806  0.1916
 1205W        W 2202   6.852   3.102   4.562  0.2828  0.0449  0.2569
 1206W        W 2203   5.207   4.764   5.242  0.1535 -0.1349  0.1467
 1207W        W 2204   4.125   0.546   2.504 -0.0840 -0.2497  0.1876
 1208W        W 2205   5.455   6.587   4.549  0.2341 -0.1678 -0.0425
 1209W        W 2206   1.769   6.950   6.323 -0.0192 -0.1612  0.0705
 1210W        W 2207   4.346   2.478   1.139 -0.0097 -0.1120  0.2090
 1211W        W 2208   6.986   6.609   6.103  0.0400  0.3339  0.0116
 1212W        W 2209   6.059   2.084   0.104 -0.0084  0.0932  0.0091
 1213W        W 2210   5.502   4.938   3.051  0.0040  0.2019 -0.0794
 1214W        W 2211   2.554   4.731   5.649  0.0020  0.2653 -0.3575
 1215W        W 2212   0.016   2.778   0.813  0.1255  0.2806  0.1268
 1216W        W 2213   3.239   7.140   1.461  0.1839 -0.0478 -0.3034
 1217W        W 2214   3.733   3.285   2.942 -0.0014 -0.2048 -0.2016
 1218W        W 2215   5.216   2.715   0.094 -0.0093 -0.3271  0.2203
 1219W        W 2216   6.794   4.917   0.722 -0.1149  0.1908  0.2906
 1220W        W 2217   1.635   3.454   0.704 -0.0938 -0.2493 -0.2708
 1221W        W 2218   1.620   5.696   5.475 -0.0408 -0.1992  0.1609
 1222W        W 2219   6.057   4.818   0.255  0.0502  0.1093 -0.2214
 1223W        W 2220   6.785   6.069   3.919  0.2264 -0.0237  0.1181
 1224W        W 2221   1.792   4.413   4.098 -0.2177  0.1605  0.3468
 1225W        W 2222   7.005   3.560   4.577  0.0001 -0.0147 -0.3084
 1226W        W 2223   5.136   7.064   6.360 -0.1444 -0.2132  0.2720
 1227W        W 2224   5.026   7.017   1.522  0.0741  0.0203 -0.0924
 1228W        W 2225   2.323   2.127   7.325 -0.3714 -0.0929 -0.1834
 1229W        W 2226   3.329   5.210   5.311  0.3660  0.0320  0.0456
 1230W        W 2227   2.446   2.076   3.983 -0.1746  0.1925  0.1689
 1231W        W 2228   4.532   4.520   0.354 -0.2130  0.0116  0.0703
 1232W        W 2229   5.630   4.004   5.107  0.1937 -0.0395 -0.2346
 1233W        W 2230   6.671   7.610   5.650 -0.1405  0.1856  0.2251
 1234W        W 2231   1.621   1.425   6.250 -0.0096 -0.0295  0.3551
 1235W        W 2232   7.077   5.675   4.144 -0.0396 -0.1987 -0.2678
 1236W        W 2233   4.354   5.489   4.124 -0.2093  0.5173 -0.0021
 1237W        W 2234   0.035   2.593   6.168  0.2034  0.0535  0.0818
 1238W        W 2235   0.217   4.631   6.426 -0.2923 -0.0090 -0.2841
 1239W        W 2236   3.254   3.598   4.585 -0.3980  0.2962  0.1466
 1240W        W 2237   4.440   2.998   1.095  0.0070  0.2493  0.4681
 1241W        W 2238   3.097   7.361   4.733  0.3587 -0.4318  0.0822
 1242W        W 2239   5.971   1.105   4.119  0.0129 -0.2016  0.1816
 1243W        W 2240   7.178   5.211   4.832 -0.1526 -0.1124 -0.2635
 1244W        W 2241   2.127   3.427   1.454 -0.0589  0.2837 -0.2794
 1245W        W 2242   6.247   4.013   4.459 -0.0585  0.1724 -0.2270
 1246W        W 2243   1.932   5.077   2.013 -0.1131  0.3705  0.1370
 1247W        W 2244   0.627   3.591   0.809  0.0831  0.1655 -0.0283
 1248W        W 2245   3.131   0.874   1.633  0.3717  0.3146  0.2074
 1249W        W 2246   7.586   5.248   6.186  0.2721 -0.0358 -0.0102
 1250W        W 2247   5.179   7.318   0.273  0.2388 -0.2743  0.1167
 1251W        W 2248   6.206   2.318   6.926 -0.0466  0.0677  0.0176
 1252W        W 2249   4.506   2.365   5.103 -0.0058 -0.1249 -0.1747
 1253W        W 2250   5.215   2.003   2.680 -0.1132 -0.0473 -0.0058
 1254W        W 2251   6.785   4.757   4.476  0.0678  0.0859  0.1056
 1255W        W 2252   3.970   5.115   0.489 -0.0150 -0.0194  0.1057
 1256W        W 2253   2.181   3.648   7.540  0.0860  0.1824 -0.0192
 1257W        W 2254   6.838   1.524   5.406 -0.2763 -0.1928 -0.1655
 1258W        W 2255   6.511   0.253   6.960 -0.3199  0.2708  0.0415
 1259W        W 2256   5.397   7.394   5.781  0.0817 -0.2744  0.2425
 1260W        W 2257   3.747   4.760   4.442  0.2457 -0.1112 -0.1095
 1261W        W 2258   6.787   2.447   1.012  0.0434 -0.0505 -0.1882
 1262W        W 2259   3.521   3.775   1.488  0.2023 -0.2287  0.4289
 1263W        W 2260   5.137   3.799   0.056  0.0889  0.0360 -0.0812
 1264W        W 2261   7.026   1.092   7.087  0.0264  0.0913 -0.0952
 1265W        W 2262   4.102   7.532   1.643 -0.0175 -0.1056 -0.1493
 1266W        W 2263   3.309   7.066   7.510 -0.2069  0.0668  0.1119
 1267W        W 2264   3.809   4.001   0.705  0.1446 -0.2048 -0.0401
 1268W        W 2265   6.135   1.778   7.068 -0.3294  0.2376  0.2635
 1269W        W 2266   4.898   3.175   0.809 -0.1929 -0.1484 -0.1267
 1270W        W 2267   6.421   4.317   5.282  0.3416 -0.1654 -0.3124
 1271W        W 2268   4.426   2.358   3.575  0.3880  0.3420 -0.1363
 1272W        W 2269   6.082   4.800   2.058 -0.2428  0.0237 -0.1144
 1273W        W 2270   5.907   5.398   1.926  0.0297  0.1140  0.0532
 1274W        W 2271   4.400   1.921   1.075  0.0310 -0.3979 -0.0713
 1275W        W 2272   3.772   3.502   0.794 -0.1242  0.1231 -0.1686
 1276W        W 2273   3.498   5.857   4.713  0.0955 -0.1227  0.2911
 1277W        W 2274   3.825   2.414   1.517  0.2047  0.2598  0.2242
 1278W        W 2275   4.196   0.258   2.032  0.2222 -0.0227 -0.1344
 1279W        W 2276   1.420   1.590   7.205 -0.0777 -0.0204  0.2834
 1280W        W 2277   4.962   4.877   2.991 -0.1073  0.1077  0.2425
 1281W        W 2278   2.466   6.431   6.065  0.0419 -0.1075 -0.1556
 1282W        W 2279   0.115   4.394   1.584 -0.2265  0.2337  0.1026
 1283W        W 2280   4.407   5.205   1.457  0.5338 -0.1586 -0.2680
 1284W        W 2281   2.622   4.976   7.317  0.0739  0.2640  0.0050
 1285W        W 2282   6.767   6.520   5.591  0.1653 -0.2909  0.0139
 1286W        W 2283   7.468   7.376   5.132 -0.2151  0.0852  0.0355
 1287W        W 2284   4.789   2.599   7.578  0.2453 -0.3852 -0.0678
 1288W        W 2285   2.246   7.270   1.102 -0.1854 -0.1949 -0.2188
 1289W        W 2286   1.301   2.148   0.469 -0.0760 -0.2219  0.0951
 1290W        W 2287   6.651   5.002   4.044  0.0625 -0.0778  0.2420
 1291W        W 2288   3.675   2.452   7.551  0.0314 -0.1932 -0.0064
 1292W        W 2289   7.467   2.686   5.051 -0.0299  0.0708 -0.1083
 1293W        W 2290   4.855   1.823   3.045  0.2898  0.1505  0.0953
 1294W        W 2291   4.400   5.704   5.822 -0.0993  0.0743  0.1114
 1295W        W 2292   7.414   3.518   5.058 -0.0605  0.0434 -0.0824
 1296W        W 2293   3.104   4.824   3.313  0.0845  0.1213 -0.0692
 1297W        W 2294   2.407   4.196   2.843 -0.1134  0.1397 -0.3374
 1298W        W 2295   3.868   7.058   0.972 -0.0609  0.0452  0.3344
 1299W        W 2296   3.795   1.467   6.589  0.1988 -0.5563 -0.1125
 1300W        W 2297   5.437   3.688   2.043  0.0134  0.1493  0.0192
 1301W        W 2298   3.288   3.346   0.055 -0.2588  0.1096  0.1046
 1302W        W 2299   2.873   6.984   0.171 -0.0913 -0.0561 -0.0627
 1303W        W 2300   0.088   2.199   0.960  0.1784  0.3124  0.3189
 1304W        W 2301   5.389   2.607   5.511 -0.0396 -0.0703  0.0298
 1305W        W 2302   3.730   3.257   3.565  0.0117  0.0614  0.0196
 1306W        W 2303   2.739   5.512   6.138 -0.1266 -0.0687  0.2523
 1307W        W 2304   6.459   6.224   0.429  0.1270 -0.1224  0.1112
 1308W        W 2305   0.033   6.281   6.774  0.0734  0.2969 -0.0539
 1309W        W 2306   6.524   0.566   5.458 -0.1431  0.0648  0.0573
 1310W        W 2307   7.290   2.441   1.048 -0.1564  0.0784  0.0694
 1311W        W 2308   3.696   3.133   6.076 -0.0554 -0.0525  0.1244
 1312W        W 2309   3.837   3.891   2.934  0.1536 -0.1286  0.1493
 1313W        W 2310   3.221   7.591   1.196  0.0750 -0.1547  0.1814
 1314W        W 2311   5.992   4.524   1.102  0.0847  0.4046 -0.0693
 1315W        W 2312   1.481   2.757   4.990  0.0826 -0.0405  0.0750
 1316W        W 2313   5.047   5.599   0.199  0.1262  0.0182  0.2304
 1317W        W 2314   4.033   5.554   2.181 -0.3405 -0.2012  0.1071
 1318W        W 2315   4.497   0.322   6.192 -0.1176 -0.0804  0.0684
 1319W        W 2316   4.409   2.015   0.237  0.2532  0.1213  0.0957
 1320W        W 2317   2.361   6.734   5.609 -0.2310  0.0024  0.3318
 1321W        W 2318   0.150   4.825   7.035  0.1863  0.1562  0.2095
 1322W        W 2319   3.039   4.392   1.248  0.2251 -0.2493  0.3591
 1323W        W 2320   6.021   0.656   3.215  0.3852  0.0508  0.1409
 1324W        W 2321   4.055   4.351   6.359 -0.0139  0.0487  0.1113
 1325W        W 2322   0.470   5.456   6.803 -0.0348 -0.1188 -0.0607
 1326W        W 2323   4.450   4.239   4.094  0.0349  0.1684 -0.0596
 1327W        W 2324   0.791   6.874   0.157 -0.2279  0.3512 -0.3168
 1328W        W 2325   1.395   4.470   3.101  0.1289  0.2612 -0.1810
 1329W        W 2326   4.947   2.059   3.517  0.1520 -0.1832 -0.2932
 1330W        W 2327   6.324   6.306   5.561 -0.1341 -0.0536  0.3501
 1331W        W 2328   7.307   5.383   0.958 -0.1544  0.0289  0.1289
 1332W        W 2329   2.998   2.492   6.673 -0.1846 -0.3929  0.1840
 1333W        W 2330   3.437   2.103   1.693  0.0034  0.1195  0.2689
 1334W        W 2331   4.127   6.690   5.409  0.0927  0.0373  0.5014
 1335W        W 2332   3.893   2.325   0.969  0.0059  0.0118 -0.1837
 1336W        W 2333   7.227   5.853   0.832  0.2280 -0.2905  0.1128
 1337W        W 2334   1.881   4.491   6.426 -0.1088  0.1385 -0.3454
 1338W        W 2335   0.306   3.571   1.255  0.2175 -0.0244  0.2365
 1339W        W 2336   6.604   5.847   4.335 -0.1662  0.0803  0.0885
 1340W        W 2337   1.066   4.153   7.094  0.1414  0.0405  0.2896
 1341W        W 2338   1.346   3.044   5.660  0.0811  0.0732  0.0621
 1342W        W 2339   6.599   0.761   6.342 -0.0338  0.1944  0.1117
 1343W        W 2340   4.990   4.910   3.564  0.0011 -0.1458  0.0464
 1344W        W 2341   0.833   5.780   6.256 -0.3289  0.0269  0.2783
 1345W        W 2342   1.521   4.881   2.901  0.1720 -0.2173 -0.0436
 1346W        W 2343   0.803   7.379   6.884 -0.2822  0.0018 -0.4301
 1347W        W 2344   5.937   3.027   0.835 -0.2003 -0.0203  0.4013
 1348W        W 2345   2.662   3.116   3.882  0.1952 -0.0414 -0.2662
 1349W        W 2346   3.265   2.609   3.113 -0.3180  0.1653 -0.0873
 1350W        W 2347   1.959   4.056   1.688  0.3547  0.1069 -0.2095
 1351W        W 2348   0.246   3.699   6.883  0.0330 -0.0242 -0.1881
 1352W        W 2349   5.287   2.480   4.221  0.1418 -0.3744  0.2552
 1353W        W 2350   1.140   4.735   0.117  0.0675 -0.1412 -0.0152
 1354W        W 2351   3.585   0.004   1.551  0.2027  0.0696  0.0789
 1355W        W 2352   0.057   3.251   0.040 -0.0768 -0.1878 -0.0382
 1356W        W 2353   0.590   2.493   7.468  0.0255 -0.0583  0.1371
 1357W        W 2354   1.759   2.702   5.340  0.0402  0.2328 -0.3359
 1358W        W 2355   2.423   6.821   1.001  0.1142  0.0655  0.2048
 1359W        W 2356   5.821   3.972   2.271  0.1994  0.0286 -0.2263
 1360W        W 2357   6.445   3.835   1.762 -0.5534 -0.1202 -0.1409
 1361W        W 2358   1.444   1.243   0.904  0.1072 -0.2495  0.3228
 1362W        W 2359   5.288   5.497   5.104 -0.2828  0.1711  0.2348
 1363W        W 2360   5.312   0.794   7.431 -0.0060 -0.1046 -0.0382
 1364W        W 2361   6.278   4.083   0.804 -0.3437 -0.2003 -0.3585
 1365W        W 2362   3.173   1.809   3.524  0.0891  0.2835  0.1715
 1366W        W 2363   4.606   7.386   5.124 -0.1314  0.0094  0.1011
 1367W        W 2364   1.699   3.196   0.228  0.3260  0.3225  0.2694
 1368W        W 2365   1.168   6.637   6.675  0.2630  0.1053 -0.1827
 1369W        W 2366   0.314   4.664   5.921 -0.1304 -0.2076  0.0207
 1370W        W 2367   7.534   3.096   5.406 -0.0419  0.2178 -0.0832
 1371W        W 2368   0.668   5.753   3.507  0.1071 -0.1497 -0.4391
 1372W        W 2369   2.926   5.938   5.260  0.0325  0.0862  0.1214
 1373W        W 2370   1.398   3.615   5.558  0.2690 -0.2016  0.0595
 1374W        W 2371   2.315   2.565   3.053  0.2575 -0.3107 -0.2869
 1375W        W 2372   2.048   6.211   7.518 -0.0080  0.0906 -0.1631
 1376W        W 2373   4.764   5.055   6.774  0.1270  0.1174  0.1602
 1377W        W 2374   2.866   0.751   4.785 -0.1381  0.1090 -0.0226
 1378W        W 2375   6.720   5.699   4.953 -0.0854  0.3397  0.0168
 1379W        W 2376   1.755   0.719   6.424  0.0249  0.0095 -0.0897
 1380W        W 2377   5.661   1.588   7.062 -0.0562  0.0754 -0.3332
 1381W        W 2378   3.547   4.770   2.538 -0.0706  0.1011 -0.1183
 1382W        W 2379   0.916   6.912   4.771 -0.4798  0.0931 -0.3416
 1383W        W 2380   2.866   1.885   7.199  0.2268  0.0471 -0.1939
 1384W        W 2381   4.633   3.437   3.586  0.0277  0.1404  0.2207
 1385W        W 2382   1.653   6.484   6.602  0.1094 -0.3989 -0.1650
 1386W        W 2383   1.895   6.845   1.020  0.0525 -0.0659 -0.1897
 1387W        W 2384   3.706   0.328   7.407 -0.1577  0.2165 -0.3581
 1388W        W 2385   2.453   2.545   3.712 -0.1267 -0.0239  0.0015
 1389W        W 2386   1.443   2.391   4.646 -0.2801  0.4878  0.0926
 1390W        W 2387   0.130   4.211   6.052 -0.1238  0.2984 -0.1284
 1391W        W 2388   6.145   6.236   1.640  0.4026 -0.1115 -0.1485
 1392W        W 2389   0.413   3.007   7.433 -0.1761  0.0619  0.0578
 1393W        W 2390   3.603   4.556   6.567 -0.3695  0.1342 -0.0219
 1394W        W 2391   3.452   7.203   1.921 -0.2028 -0.0844  0.0764
 1395W        W 2392   2.604   4.072   3.811 -0.0902  0.0219  0.1001
 1396W        W 2393   0.287   1.746   4.606  0.1239  0.2815 -0.0531
 1397W        W 2394   1.797   6.442   0.349  0.1343  0.0282 -0.1349
 1398W        W 2395   7.127   3.723   5.724  0.3069 -0.0489 -0.1737
 1399W        W 2396   0.144   2.320   7.184  0.0327 -0.0411  0.0507
 1400W        W 2397   4.825   5.540   5.549 -0.2575  0.0316  0.1454
 1401W        W 2398   4.765   6.132   1.397  0.1510  0.1149  0.3002
 1402W        W 2399   2.225   3.776   4.679  0.0763 -0.1355  0.3160
 1403W        W 2400   3.068   1.941   1.355 -0.0523  0.0599 -0.0323
 1404W        W 2401   3.389   0.139   4.531 -0.2498  0.0450  0.3031
 1405W        W 2402   2.179   3.517   0.971  0.2319  0.1256  0.1946
 1406W        W 2403   6.150   1.926   6.580  0.0405 -0.0386  0.1440
 1407W        W 2404   7.166   0.159   5.686 -0.1631 -0.2993 -0.1755
 1408W        W 2405   4.996   4.695   4.096 -0.1517 -0.1743  0.3280
 1409W        W 2406   3.725   2.743   2.195 -0.1910  0.2589 -0.1179
 1410W        W 2407   4.995   6.353   0.200 -0.3471  0.2197  0.1636
 1411W        W 2408   5.735   5.335   7.597 -0.0192  0.1916  0.1463
 1412W        W 2409   1.404   1.171   5.285 -0.2548  0.0098  0.0341
 1413W        W 2410   5.519   0.195   3.671  0.4074 -0.1233  0.0896
 1414W        W 2411   5.984   3.749   3.783 -0.1999 -0.0258 -0.0464
 1415W        W 2412   7.494   1.742   1.089 -0.0068  0.2024  0.1666
 1416W        W 2413   4.629   5.732   0.465  0.0203 -0.2065 -0.1576
 1417W        W 2414   1.254   5.992   4.364  0.2297  0.0419 -0.0178
 1418W        W 2415   2.156   0.146   1.324 -0.5834 -0.0253  0.1376
 1419W        W 2416   3.761   4.978   2.981 -0.1487  0.2315  0.1185
 1420W        W 2417   0.102   6.792   6.666  0.1609  0.0754 -0.1131
 1421W        W 2418   3.618   5.266   4.843 -0.1541 -0.2830  0.2706
 1422W        W 2419   3.714   2.188   2.395  0.0550  0.0920  0.1426
 1423W        W 2420   4.214   0.110   3.605 -0.1981  0.0209 -0.0141
 1424W        W 2421   2.382   3.226   4.764 -0.0512 -0.2913 -0.3554
 1425W        W 2422   0.733   4.990   2.643  0.2814  0.1114 -0.1955
 1426W        W 2423   6.472   1.850   4.690 -0.5845 -0.0647  0.2150
 1427W        W 2424   5.040   3.152   4.697 -0.1605 -0.2328  0.4793
 1428W        W 2425   4.522   3.345   4.937  0.0035  0.0417  0.1266
 1429W        W 2426   5.284   1.102   5.385 -0.0963 -0.1134  0.0384
 1430W        W 2427   0.859   6.921   5.317 -0.1354 -0.3644  0.1802
 1431W        W 2428   4.135   1.106   4.268  0.2011  0.0216  0.1982
 1432W        W 2429   0.032   1.408   3.322  0.2024  0.4382 -0.0706
 1433W        W 2430   3.441   0.013   6.470  0.3887  0.0940  0.0316
 1434W        W 2431   6.537   4.640   6.863 -0.4056  0.0558 -0.0455
 1435W        W 2432   7.311   2.426   6.925  0.1461 -0.1690  0.1660
 1436W        W 2433   3.575   2.747   0.339  0.0133 -0.2186 -0.1353
 1437W        W 2434   6.710   7.067   6.316 -0.2162  0.2860 -0.2218
 1438W        W 2435   3.101   4.702   5.889  0.6236  0.1790 -0.0668
 1439W        W 2436   1.281   7.076   6.939 -0.1159 -0.1690  0.1170
 1440W        W 2437   4.583   4.020   3.485 -0.1342 -0.0871 -0.1711
 1441W        W 2438   4.563   3.002   4.561 -0.1127  0.1581 -0.1856
 1442W        W 2439   3.145   4.480   2.492  0.0515  0.3547 -0.0307
 1443W        W 2440   6.129   2.546   6.233  0.2791  0.0049  0.0843
 1444W        W 2441   0.762   1.704   4.452 -0.0817 -0.0075 -0.3199
 1445W        W 2442   3.756   0.314   3.733  0.0245 -0.0284  0.1130
 1446W        W 2443   1.660   2.794   1.774  0.0709  0.2184  0.3980
 1447W        W 2444   3.405   3.453   4.105 -0.0132  0.0653 -0.0654
 1448W        W 2445   5.742   6.568   1.502  0.0175 -0.0487  0.1438
 1449W        W 2446   4.527   2.423   2.385  0.2551 -0.2054  0.1113
 1450W        W 2447   4.425   4.969   4.145 -0.1957  0.1645 -0.1971
 1451W        W 2448   4.482   0.462   0.280  0.2750 -0.3576  0.1336
 1452W        W 2449   0.183   3.159   6.742 -0.0991 -0.0523  0.2468
 1453W        W 2450   0.893   5.349   6.489 -0.0557  0.0070  0.1286
 1454W        W 2451   6.189   0.696   0.221  0.2957 -0.0232 -0.5941
 1455W        W 2452   0.671   2.969   0.692  0.1537  0.1763 -0.0355
 1456W        W 2453   7.028   6.601   4.528  0.2543 -0.0930 -0.2439
 1457W        W 2454   4.301   5.320   2.858  0.0171 -0.0644 -0.0571
 1458W        W 2455   2.221   7.220   5.590 -0.0948  0.2982  0.1755
 1459W        W 2456   3.264   4.016   2.329  0.2095  0.1722 -0.0380
 1460W        W 2457   6.748   1.731   6.429  0.1397 -0.1842 -0.3146
 1461W        W 2458   2.786   3.330   7.120  0.0870  0.0587  0.0326
 1462W        W 2459   5.408   2.705   6.802 -0.0934 -0.0685  0.1649
 1463W        W 2460   3.613   2.865   5.651  0.1484  0.2847 -0.3167
 1464W        W 2461   3.419   1.585   1.206 -0.1072 -0.0345  0.0297
 1465W        W 2462   1.446   5.623   0.894 -0.5138  0.0083 -0.0864
 1466W        W 2463   7.258   4.219   7.394 -0.1309  0.1195 -0.1074
 1467W        W 2464   1.916   5.976   0.413 -0.1935  0.2296  0.1837
 1468W        W 2465   6.586   1.127   5.610  0.0559  0.2776  0.0235
 1469W        W 2466   6.802   5.981   1.237  0.0258  0.1747 -0.1115
 1470W        W 2467   0.453   6.228   3.869  0.0058 -0.1634 -0.1101
 1471W        W 2468   2.043   7.408   0.668 -0.1669 -0.1557 -0.0034
 1472W        W 2469   0.203   1.001   6.425  0.0661  0.3308 -0.2538
 1473W        W 2470   7.133   1.336   6.180  0.0459 -0.0815  0.0488
 1474W        W 2471   5.502   4.938   3.577 -0.1591  0.2106 -0.1004
 1475W        W 2472   0.793   4.655   2.317 -0.1740 -0.1587  0.1915
 1476W        W 2473   3.883   2.031   6.809 -0.1321  0.0403 -0.2482
 1477W        W 2474   7.295   7.070   1.171  0.0567  0.2877 -0.2064
 1478W        W 2475   3.558   0.447   1.132 -0.2290 -0.0183 -0.2163
 1479W        W 2476   1.974   4.220   0.394 -0.1539  0.0484 -0.2326
 1480W        W 2477   4.858   7.287   0.701 -0.0468  0.1559 -0.1333
 1481W        W 2478   6.001   5.017   1.156  0.1764  0.1050 -0.0229
 1482W        W 2479   2.397   2.446   1.748  0.2114 -0.1307  0.2172
 1483W        W 2480   4.314   3.810   1.672 -0.3223 -0.1356  0.0912
 1484W        W 2481   3.908   1.997   7.584 -0.1239  0.0202  0.1824
 1485W        W 2482   1.288   4.163   3.923 -0.0108 -0.2995 -0.0651
 1486W        W 2483   1.940   1.877   5.216  0.2822 -0.3131  0.1898
 1487W        W 2484   1.683   4.695   1.597 -0.1205  0.0089 -0.1595
 1488W        W 2485   5.469   2.945   6.012 -0.0423  0.0478 -0.0247
 1489W        W 2486   6.817   4.607   5.550  0.1794 -0.0482  0.0654
 1490W        W 2487   5.063   6.789   5.321 -0.1780 -0.0412 -0.0060
 1491W        W 2488   5.677   7.206   2.727 -0.0175 -0.1526  0.0917
 1492W        W 2489   4.599   0.438   3.537  0.0659  0.0092  0.0769
 1493W        W 2490   3.957   5.432   6.830  0.1056  0.0361 -0.4720
 1494W        W 2491   1.856   1.307   4.071  0.0315 -0.1551 -0.1226
 1495W        W 2492   5.182   5.085   1.788 -0.1353  0.2210  0.0016
 1496W        W 2493   3.767   7.594   1.084  0.2589  0.0620 -0.0429
 1497W        W 2494   5.389   6.084   4.280 -0.2039 -0.0914 -0.2252
 1498W        W 2495   1.831   5.032   4.973 -0.1481 -0.0311 -0.1635
 1499W        W 2496   2.376   0.066   0.861 -0.1248 -0.0420  0.0639
 1500W        W 2497   0.790   5.839   4.968 -0.2219  0.0441  0.0681
 1501W        W 2498   0.790   3.268   4.443  0.0650  0.1146 -0.1001
 1502W        W 2499   3.223   1.505   5.652  0.0801  0.1158 -0.0841
 1503W        W 2500   3.263   5.130   3.734  0.1407  0.0988  0.0139
 1504W        W 2501   6.174   6.156   4.914  0.0020  0.1562 -0.0263
 1505W        W 2502   1.860   4.830   3.810  0.1489 -0.0218  0.3463
 1506W        W 2503   6.445   3.851   3.482 -0.0222 -0.0605  0.2762
 1507W        W 2504   3.787   7.168   1.480 -0.1241  0.0194  0.0677
 1508W        W 2505   7.219   5.995   6.701 -0.1039 -0.2275  0.0662
 1509W        W 2506   1.496   3.576   4.520  0.0922 -0.2769 -0.2399
 1510W        W 2507   1.965   0.453   5.879  0.1285  0.0625  0.1247
 1511W        W 2508   3.632   2.676   7.072  0.0513 -0.2789 -0.2691
 1512W        W 2509   4.572   6.467   2.213  0.3644 -0.1845 -0.2027
 1513W        W 2510   1.226   5.750   5.977  0.0445 -0.2887  0.0490
 1514W        W 2511   5.980   2.970   1.795  0.0033  0.1625 -0.1262
 1515W        W 2512   3.033   5.539   6.540 -0.1128  0.0828 -0.0170
 1516W        W 2513   6.564   6.251   6.034  0.1865  0.1766  0.0444
 1517W        W 2514   2.298   0.600   7.184 -0.0997  0.0519  0.0289
 1518W        W 2515   0.193   2.679   4.607  0.0406 -0.0709  0.1969
 1519W        W 2516   6.833   7.040   1.750  0.0931  0.0710  0.1878
 1520W        W 2517   3.815   0.521   5.254  0.3135  0.2792  0.1848
 1521W        W 2518   0.560   0.568   7.205 -0.0878  0.1710 -0.1014
 1522W        W 2519   4.944   3.060   5.189  0.3103 -0.3311 -0.0407
 1523W        W 2520   2.575   0.368   6.031  0.3502  0.0453  0.0447
 1524W        W 2521   5.402   5.725   7.574  0.0536  0.1585  0.0436
 1525W        W 2522   2.712   3.514   6.135 -0.0087 -0.0430  0.3871
 1526W        W 2523   3.727   6.901   0.519 -0.1072 -0.0992 -0.0469
 1527W        W 2524   3.891   6.476   0.992 -0.1699 -0.0547 -0.0207
 1528W        W 2525   7.349   4.940   0.756 -0.2522 -0.1952 -0.0340
 1529W        W 2526   2.060   3.704   0.401 -0.2994 -0.2591 -0.1586
 1530W        W 2527   1.330   7.353   5.205 -0.1073  0.0471  0.0884
 1531W        W 2528   4.313   3.785   0.003 -0.1025  0.1237  0.0867
 1532W        W 2529   3.159   4.754   0.919 -0.1118 -0.3908 -0.2547
 1533W        W 2530   5.845   6.517   5.088 -0.1229 -0.1938  0.0061
 1534W        W 2531   3.122   6.913   6.066 -0.0081  0.2573  0.2558
 1535W        W 2532   0.637   3.427   3.961  0.1054 -0.0520 -0.4301
 1536W        W 2533   3.191   6.291   1.594 -0.1943  0.0780  0.1392
 1537W        W 2534   6.672   3.905   5.625 -0.0513 -0.0621  0.0990
 1538W        W 2535   2.086   0.158   7.280  0.1192 -0.0398  0.0309
 1539W        W 2536   6.258   6.093   4.030  0.0958  0.0357 -0.3768
 1540W        W 2537   1.695   6.012   6.406  0.0896 -0.0516 -0.1039
 1541W        W 2538   6.435   0.676   5.895  0.0852 -0.0581 -0.1484
 1542W        W 2539   5.994   6.889   0.554  0.1374  0.1077  0.2095
 1543W        W 2540   4.007   0.798   2.088  0.1503  0.0993 -0.3836
 1544W        W 2541   4.223   1.577   7.545  0.0333 -0.0700  0.1772
 1545W        W 2542   1.504   2.220   1.878 -0.1532  0.2458 -0.0375
 1546W        W 2543   7.063   7.470   6.469 -0.0344 -0.1873 -0.1367
 1547W        W 2544   3.050   0.402   1.156  0.0666  0.0761 -0.1839
 1548W        W 2545   7.026   0.664   5.514 -0.1440  0.3171  0.0801
 1549W        W 2546   2.034   3.776   3.324 -0.1119 -0.1471  0.1209
 1550W        W 2547   6.218   4.319   3.528  0.4206 -0.0185 -0.3289
 1551W        W 2548   4.865   2.992   3.702  0.0293  0.3974  0.0987
 1552W        W 2549   5.098   6.128   6.110  0.3174 -0.0563  0.0559
 1553W        W 2550   0.628   5.010   6.777 -0.0635  0.1089 -0.2531
 1554W        W 2551   7.589   2.781   7.190  0.2197  0.0074  0.1378
 1555W        W 2552   0.354   2.339   5.722  0.0129  0.0305 -0.2444
 1556W        W 2553   2.199   4.767   5.256 -0.1893  0.1162 -0.1196
 1557W        W 2554   6.722   4.264   0.932  0.0784 -0.1008  0.1191
 1558W        W 2555   4.906   3.671   3.226 -0.0128  0.2530  0.0455
 1559W        W 2556   4.396   4.290   5.431 -0.0609 -0.2042 -0.1295
 1560W        W 2557   3.782   3.450   7.512  0.2781 -0.0075 -0.0326
 1561W        W 2558   2.365   4.297   6.443 -0.1088 -0.1021 -0.1872
 1562W        W 2559   5.636   0.715   3.636 -0.0829  0.0296  0.1810
 1563W        W 2560   6.894   1.066   5.179 -0.0461  0.1780 -0.0368
 1564W        W 2561   3.164   5.615   4.996 -0.2434  0.2758 -0.1035
 1565W        W 2562   2.816   3.296   3.421  0.1348  0.1306  0.4738
 1566W        W 2563   2.230   4.380   2.447  0.3167  0.1108 -0.2536
 1567W        W 2564   6.885   3.580   6.975 -0.0264  0.0884  0.3017
 1568W        W 2565   4.796   3.492   0.371  0.2840 -0.4007 -0.0581
 1569W        W 2566   6.177   4.751   1.546  0.0487 -0.0420  0.1278
 1570W        W 2567   2.014   2.705   3.520 -0.1033 -0.0740 -0.0042
 1571W        W 2568   6.581   4.774   0.230 -0.1413  0.0755  0.1065
 1572W        W 2569   6.486   4.544   2.199 -0.0003  0.0567  0.0149
 1573W        W 2570   1.594   4.106   5.676 -0.3799  0.1619  0.1668
 1574W        W 2571   7.287   1.741   6.397  0.1113 -0.0362  0.3670
 1575W        W 2572   1.721   1.871   0.419 -0.1725 -0.0235 -0.0099
 1576W        W 2573   5.219   5.186   7.632  0.1034  0.0082  0.0667
 1577W        W 2574   3.052   5.837   1.832 -0.1749 -0.2870  0.1657
 1578W        W 2575   6.372   3.600   4.130  0.2164 -0.0290 -0.2417
 1579W        W 2576   4.621   3.100   5.670  0.2656 -0.0270  0.0052
 1580W        W 2577   0.001   6.018   6.341  0.0392  0.1531  0.2805
 1581W        W 2578   7.474   4.561   0.376  0.0610 -0.1054 -0.0454
 1582W        W 2579   6.103   5.671   4.802 -0.0685 -0.0660 -0.1772
 1583W        W 2580   3.203   7.086   5.584  0.1381  0.0594  0.0593
 1584W        W 2581   6.726   5.436   3.343 -0.1943  0.1657 -0.2766
 1585W        W 2582   4.449   1.295   6.613  0.2145 -0.0950  0.0505
 1586W        W 2583   0.075   6.687   7.173  0.0996  0.4065 -0.0885
 1587W        W 2584   6.092   4.491   2.929  0.2754 -0.0945 -0.1424
 1588W        W 2585   0.183   1.290   4.320 -0.1308 -0.1524 -0.1609
 1589W        W 2586   1.661   4.866   0.091  0.0735  0.2991  0.0037
 1590W        W 2587   5.875   7.366   4.478 -0.3281  0.0047  0.0843
 1591W        W 2588   4.467   1.425   0.910 -0.0999  0.1501 -0.3014
 1592W        W 2589   3.782   1.915   2.809 -0.0052  0.2209 -0.1177
 1593W        W 2590   1.501   1.324   5.788 -0.2779  0.0675 -0.0382
 1594W        W 2591   0.390   7.428   5.491  0.1258 -0.1492 -0.0592
 1595W        W 2592   5.239   1.643   3.643  0.0425 -0.4514 -0.3217
 1596W        W 2593   4.241   4.093   2.644  0.1121  0.1882 -0.0735
 1597W        W 2594   4.093   6.446   6.867  0.1051  0.0876 -0.2907
 1598W        W 2595   7.019   2.167   4.714 -0.1096 -0.0442  0.0729
 1599W        W 2596   5.789   4.343   3.259  0.0129  0.0652  0.0303
 1600W        W 2597   2.535   0.169   7.036 -0.1772  0.0763  0.0095
 1601W        W 2598   4.563   2.823   2.068 -0.0883 -0.1826  0.0752
 1602W        W 2599   5.013   4.631   6.563  0.0568 -0.1427  0.2362
 1603W        W 2600   4.706   1.342   3.379 -0.2090 -0.1444  0.1969
 1604W        W 2601   0.009   5.019   5.717 -0.0616 -0.1466 -0.2461
 1605W        W 2602   1.927   3.150   6.507  0.0538 -0.1540  0.1096
 1606W        W 2603   2.956   0.022   6.663  0.0205  0.1112 -0.0722
 1607W        W 2604   4.186   6.369   2.639 -0.0515  0.5260  0.1072
 1608W        W 2605   2.174   7.622   6.725 -0.0519 -0.0314  0.3005
 1609W        W 2606   4.955   6.156   4.566 -0.0107 -0.0480  0.0554
 1610W        W 2607   5.225   6.548   1.410  0.2012 -0.1334  0.1318
 1611W        W 2608   0.543   6.610   4.546 -0.1124  0.0252  0.1077
 1612W        W 2609   4.859   5.483   1.570  0.0622  0.1068  0.2867
 1613W        W 2610   6.377   0.752   7.296  0.4081  0.1378 -0.0226
 1614W        W 2611   7.420   7.361   0.245 -0.1603 -0.1909 -0.0787
 1615W        W 2612   7.333   0.205   0.181  0.0534  0.3547  0.0307
 1616W        W 2613   6.490   7.266   3.162 -0.0803 -0.1258 -0.2230
 1617W        W 2614   7.488   7.398   4.608  0.0973 -0.2066  0.1727
 1618W        W 2615   2.962   3.345   4.219 -0.1416  0.1585 -0.0390
 1619W        W 2616   0.416   0.575   6.509  0.0229  0.1992  0.1009
 1620W        W 2617   4.543   2.724   2.865  0.1945 -0.1537  0.0589
 1621W        W 2618   1.660   3.753   0.082 -0.2043 -0.3140  0.4200
 1622W        W 2619   2.392   3.160   7.398 -0.0920  0.3578 -0.1618
 1623W        W 2620   1.611   0.355   1.317 -0.0396 -0.0427 -0.3830
 1624W        W 2621   1.705   2.188   6.742 -0.1827 -0.1074  0.2358
 1625W        W 2622   2.700   7.108   1.521 -0.0649  0.0979  0.0230
 1626W        W 2623   4.654   3.980   0.336  0.0977 -0.0747 -0.4817
 1627W        W 2624   4.576   2.741   0.670 -0.0491  0.0695  0.0279
 1628W        W 2625   7.466   2.267   6.487  0.2942  0.0282 -0.2133
 1629W        W 2626   5.785   4.430   7.564 -0.1062  0.0418 -0.1290
 1630W        W 2627   5.139   0.527   3.633  0.1549  0.0143  0.3629
 1631W        W 2628   3.649   4.230   1.168  0.2387  0.1467  0.0071
 1632W        W 2629   2.929   7.587   5.166  0.0047 -0.2198  0.0370
 1633W        W 2630   3.876   3.949   6.590  0.0239 -0.0615 -0.2539
 1634W        W 2631   4.440   5.100   4.830  0.3557 -0.1614 -0.0928
 1635W        W 2632   3.525   1.959   0.839 -0.1317 -0.2167 -0.1317
 1636W        W 2633   3.702   0.317   4.207  0.2328 -0.1125 -0.0900
 1637W        W 2634   7.166   5.925   6.135  0.0648  0.0351  0.0594
 1638W        W 2635   4.881   2.568   3.892  0.1484  0.1132 -0.0857
 1639W        W 2636   3.371   4.007   3.071 -0.1042 -0.0283  0.2399
 1640W        W 2637   5.244   4.075   4.076 -0.0462  0.0244  0.0091
 1641W        W 2638   3.300   2.271   6.317 -0.3178  0.1624 -0.0425
 1642W        W 2639   3.961   1.420   2.708  0.1968  0.0693 -0.1788
 1643W        W 2640   1.044   2.745   2.900 -0.1420  0.1219 -0.0442
 1644W        W 2641   0.661   3.630   5.104 -0.0904 -0.0740 -0.0212
 1645W        W 2642   4.904   1.576   6.487  0.0377 -0.0672  0.0190
 1646W        W 2643   6.354   5.813   1.417 -0.1420 -0.0204 -0.1494
 1647W        W 2644   0.904   6.817   7.109  0.2443  0.0015 -0.0844
 1648W        W 2645   5.990   6.766   6.324 -0.0988  0.1083 -0.3071
 1649W        W 2646   5.262   5.835   3.788 -0.0790  0.2739 -0.1749
 1650W        W 2647   3.395   4.722   5.500 -0.3992  0.1751  0.3429
 1651W        W 2648   1.386   2.318   7.619  0.0788 -0.1157  0.1205
 1652W        W 2649   5.625   3.313   1.640 -0.3944  0.1962 -0.1466
 1653W        W 2650   5.682   5.609   5.660 -0.2804 -0.3671  0.1105
 1654W        W 2651   1.825   5.306   3.472 -0.0836  0.1025  0.0739
 1655W        W 2652   1.761   2.346   3.314  0.0952 -0.2668  0.3156
 1656W        W 2653   3.687   6.050   0.714 -0.2615 -0.1632 -0.1228
 1657W        W 2654   2.978   6.063   7.460 -0.0697  0.0383  0.3203
 1658W        W 2655   2.830   3.167   0.006  0.0027 -0.2886  0.1104
 1659W        W 2656   4.760   5.025   5.291 -0.0543  0.0577  0.2240
 1660W        W 2657   2.245   2.249   4.479  0.2675 -0.2655  0.0451
 1661W        W 2658   3.522   5.528   0.559  0.1774 -0.1472 -0.0439
 1662W        W 2659   7.528   7.596   6.201 -0.0288  0.2363 -0.0320
 1663W        W 2660   0.576   0.577   0.734  0.2075  0.1426 -0.1093
 1664W        W 2661   5.955   5.289   7.130  0.2271  0.0458  0.0423
 1665W        W 2662   5.762   5.970   3.893  0.2269  0.0920  0.2265
 1666W        W 2663   0.584   5.237   1.367 -0.1714 -0.1267  0.3853
 1667W        W 2664   1.115   5.249   2.850 -0.2538 -0.2974 -0.0418
 1668W        W 2665   4.218   1.465   4.541 -0.0542 -0.0322  0.1405
 1669W        W 2666   5.603   6.076   3.055 -0.0790  0.2213 -0.0085
 1670W        W 2667   6.316   3.363   0.526 -0.1188  0.0720  0.1261
 1671W        W 2668   2.568   3.627   5.033  0.1405 -0.0798  0.1561
 1672W        W 2669   6.319   2.117   6.119 -0.0753  0.0745  0.0480
 1673W        W 2670   2.618   4.674   1.086 -0.1375 -0.0826 -0.1883
 1674W        W 2671   7.358   4.763   4.609 -0.0321  0.3353  0.0458
 1675W        W 2672   0.611   4.861   5.057  0.2700 -0.0388 -0.0945
 1676W        W 2673   3.651   0.399   2.376 -0.2560 -0.0645  0.1004
 1677W        W 2674   2.938   3.840   0.801 -0.0001 -0.1720 -0.2295
 1678W        W 2675   1.169   0.115   1.186 -0.0996 -0.5162  0.0726
 1679W        W 2676   7.027   4.495   1.198 -0.0346 -0.0673 -0.1856
 1680W        W 2677   1.665   5.268   4.597 -0.3350 -0.1354  0.0512
 1681W        W 2678   2.420   2.981   2.215 -0.1990  0.2175  0.2332
 1682W        W 2679   7.598   2.264   4.791 -0.0164 -0.2641 -0.3343
 1683W        W 2680   3.458   0.916   4.979 -0.2230  0.1547 -0.5765
 1684W        W 2681   4.724   7.089   6.653  0.2672  0.1390  0.0621
 1685W        W 2682   3.841   3.233   4.046  0.0308  0.1803  0.0707
 1686W        W 2683   5.484   0.920   3.159  0.1141  0.1424 -0.1352
 1687W        W 2684   4.219   6.474   0.017  0.1822  0.0422 -0.1943
 1688W        W 2685   7.502   4.537   5.762  0.0606  0.1472 -0.2382
 1689W        W 2686   0.941   6.186   5.912  0.0514 -0.1193 -0.0601
 1690W        W 2687   7.424   3.000   6.358 -0.0181  0.2141  0.3017
 1691W        W 2688   6.941   1.608   0.309  0.0304 -0.3029 -0.0999
 1692W        W 2689   1.711   6.561   7.512  0.0926 -0.1322  0.0450
 1693W        W 2690   4.697   0.486   4.438 -0.0815 -0.0196 -0.0659
 1694W        W 2691   2.581   0.813   2.130  0.2199  0.0663  0.1078
 1695W        W 2692   4.976   6.381   2.651  0.4435  0.3216  0.3216
 1696W        W 2693   5.081   1.694   7.274 -0.1758  0.2106  0.0682
 1697W        W 2694   4.870   4.022   6.708  0.1449  0.0390 -0.1193
 1698W        W 2695   0.842   2.053   0.760  0.1005 -0.2563  0.2447
 1699W        W 2696   4.287   2.205   0.693 -0.0476 -0.0519 -0.3914
 1700W        W 2697   3.542   2.682   4.550  0.1569 -0.0104  0.0285
 1701W        W 2698   0.790   0.350   6.340  0.3409 -0.0341  0.0524
 1702W        W 2699   4.264   6.220   5.761 -0.0741 -0.2290 -0.0837
 1703W        W 2700   2.106   1.590   6.023 -0.0504 -0.0845 -0.1383
 1704W        W 2701   1.324   6.952   7.372  0.1467 -0.2863 -0.3493
 1705W        W 2702   4.556   7.089   6.156  0.1458  0.0592 -0.0763
 1706W        W 2703   2.362   2.419   0.235 -0.0750 -0.1039  0.0080
 1707W        W 2704   5.126   6.840   6.942  0.0837 -0.1086 -0.0122
 1708W        W 2705   0.549   4.049   7.198 -0.1958  0.2631  0.1005
 1709W        W 2706   0.494   5.295   3.693  0.2242 -0.1705  0.1130
 1710W        W 2707   3.552   6.186   5.100 -0.1301 -0.1265  0.3367
 1711W        W 2708   7.301   6.785   5.755  0.0785  0.0279 -0.0456
 1712W        W 2709   3.030   3.796   1.392 -0.1676  0.1092  0.0763
 1713W        W 2710   1.364   5.066   4.197  0.2368  0.1096  0.1491
 1714W        W 2711   4.567   6.861   2.565  0.3873  0.1370 -0.0161
 1715W        W 2712   2.685   0.511   2.489  0.1867 -0.2173  0.5858
 1716W        W 2713   0.414   6.195   4.880 -0.1591 -0.1532 -0.3943
 1717W        W 2714   7.115   2.757   5.437 -0.0403 -0.2503  0.3287
 1718W        W 2715   2.915   4.070   2.687 -0.1620 -0.0790  0.0241
 1719W        W 2716   4.284   0.507   5.338 -0.1256  0.3470  0.1075
 1720W        W 2717   2.984   7.097   6.628  0.0219  0.3410  0.0926
 1721W        W 2718   3.083   4.927   7.550  0.1708  0.0858 -0.0487
 1722W        W 2719   4.914   1.706   5.641 -0.2429 -0.1032  0.0990
 1723W        W 2720   3.763   0.825   0.877 -0.0702  0.0217  0.2350
 1724W        W 2721   4.684   0.807   6.586 -0.3036 -0.1567  0.0519
 1725W        W 2722   6.876   7.181   0.774 -0.2038 -0.0604  0.0711
 1726W        W 2723   0.630   4.054   1.642 -0.1896  0.3120 -0.0331
 1727W        W 2724   5.389   4.280   2.409  0.1868 -0.1236 -0.1152
 1728W        W 2725   6.614   6.808   4.701  0.1051 -0.1484 -0.2646
 1729W        W 2726   1.852   1.375   5.442 -0.4889  0.2204 -0.1646
 1730W        W 2727   3.635   4.219   6.978  0.2566  0.0848 -0.3761
 1731W        W 2728   5.420   6.452   6.903 -0.0932 -0.0269 -0.2927
 1732W        W 2729   7.189   6.752   7.478  0.3654 -0.0746  0.0070
 1733W        W 2730   5.614   6.190   7.390 -0.0699 -0.1422 -0.0389
 1734W        W 2731   2.456   3.389   0.275 -0.0898 -0.0939  0.0995
 1735W        W 2732   3.829   5.947   6.756 -0.2022 -0.0554 -0.0389
 1736W        W 2733   4.065   6.369   6.350 -0.3963 -0.1063 -0.0617
 1737W        W 2734   0.905   0.888   7.610  0.0683 -0.1640  0.0257
 1738W        W 2735   4.222   7.181   5.392 -0.0714  0.2663 -0.0914
 1739W        W 2736   3.935   7.544   4.037 -0.0860  0.1579  0.0979
 1740W        W 2737   7.339   1.261   5.237  0.0805 -0.1143 -0.1995
 1741W        W 2738   4.633   5.013   2.583 -0.1690  0.0635 -0.2828
 1742W        W 2739   2.527   6.434   7.527 -0.1868 -0.0970 -0.0784
 1743W        W 2740   4.691   4.371   0.788 -0.2352  0.2947  0.0927
 1744W        W 2741   4.492   0.077   5.523 -0.3316  0.3277  0.1220
 1745W        W 2742   2.971   1.556   4.354  0.0868 -0.3138  0.0782
 1746W        W 2743   2.180   1.411   5.091 -0.2531 -0.2562 -0.0845
 1747W        W 2744   5.477   5.585   4.204 -0.0332  0.0456  0.2118
 1748W        W 2745   2.004   3.274   3.224  0.1423 -0.0284 -0.0204
 1749W        W 2746   6.140   0.057   4.704  0.2249 -0.0607 -0.0135
 1750W        W 2747   4.630   6.555   6.408  0.2616 -0.2578 -0.1782
 1751W        W 2748   6.718   6.456   1.082 -0.0560  0.0630 -0.0759
 1752W        W 2749   4.100   5.173   1.888  0.0791  0.0151 -0.0789
 1753W        W 2750   6.385   4.852   2.683  0.4180  0.1650 -0.3693
 1754W        W 2751   3.202   0.282   3.926  0.0394 -0.1640 -0.2790
 1755W        W 2752   0.932   4.700   7.010 -0.1616 -0.0670  0.1429
 1756W        W 2753   0.555   1.887   5.482 -0.2169 -0.1189  0.0959
 1757W        W 2754   7.441   4.666   6.690 -0.1066  0.1741 -0.0402
 1758W        W 2755   4.107   2.495   2.008 -0.2828 -0.0201 -0.0392
 1759W        W 2756   4.426   6.527   3.056 -0.0060 -0.2307 -0.0446
 1760W        W 2757   7.454   0.268   5.343 -0.0380 -0.1404  0.2689
 1761W        W 2758   3.544   2.071   7.178  0.1170 -0.2838  0.1657
 1762W        W 2759   0.537   6.742   5.024  0.0712  0.0337  0.1193
 1763W        W 2760   6.918   6.636   5.048 -0.0183 -0.1081  0.0013
 1764W        W 2761   5.085   3.587   4.949 -0.1064 -0.4095 -0.1026
 1765W        W 2762   6.236   3.141   6.927 -0.0748  0.0208  0.0635
 1766W        W 2763   1.758   4.428   3.550  0.2083 -0.1545 -0.1138
 1767W        W 2764   3.808   3.728   0.273  0.0686  0.2536  0.0314
 1768W        W 2765   5.398   2.837   1.716  0.1695 -0.1040  0.2198
 1769W        W 2766   2.315   3.004   2.791 -0.1881  0.2247 -0.1098
 1770W        W 2767   2.151   5.742   1.955  0.0439 -0.0736 -0.1640
 1771W        W 2768   2.121   2.519   4.057  0.1246 -0.0193  0.2653
 1772W        W 2769   1.302   0.991   7.255  0.1049 -0.2511 -0.1046
 1773W        W 2770   5.545   1.253   7.521  0.0909 -0.2469  0.1786
 1774W        W 2771   3.283   0.941   6.727 -0.3345 -0.0163 -0.2399
 1775W        W 2772   1.087   5.607   3.905 -0.0214 -0.0276 -0.1497
 1776W        W 2773   4.729   7.118   7.133 -0.0054  0.0844 -0.0810
 1777W        W 2774   6.410   4.915   5.434  0.1553  0.0072  0.4675
 1778W        W 2775   2.447   0.827   0.953  0.1496 -0.0713  0.0181
 1779W        W 2776   6.731   5.055   2.327 -0.1458  0.1539 -0.1871
 1780W        W 2777   2.093   1.314   6.423  0.1501  0.1127  0.5583
 1781W        W 2778   1.824   5.499   2.256 -0.0728  0.1457  0.0324
 1782W        W 2779   2.240   4.867   1.604 -0.3310 -0.4840  0.2000
 1783W        W 2780   2.288   3.645   6.614  0.2976  0.0436  0.3424
 1784W        W 2781   0.426   6.857   6.254 -0.0874 -0.1452  0.0229
 1785W        W 2782   6.401   0.130   5.157  0.1042 -0.0041  0.2107
 1786W        W 2783   2.259   5.893   6.920  0.0184  0.1747 -0.1310
 1787W        W 2784   4.163   5.372   1.004 -0.1241  0.1653 -0.1157
 1788W        W 2785   3.213   2.940   5.284  0.2789  0.0630 -0.0586
 1789W        W 2786   4.695   7.037   3.687 -0.1047  0.0378  0.1457
 1790W        W 2787   3.269   1.269   3.596 -0.1387  0.2496 -0.0717
 1791W        W 2788   4.355   7.249   7.439 -0.3557 -0.2154 -0.1469
 1792W        W 2789   6.744   2.792   5.816 -0.0896  0.0651 -0.1573
 1793W        W 2790   4.052   2.083   3.198  0.1684 -0.0302  0.0116
 1794W        W 2791   3.811   1.244   3.938  0.1920 -0.0083 -0.0538
 1795W        W 2792   0.803   1.078   7.144  0.1665 -0.0232  0.1985
 1796W        W 2793   7.500   6.201   5.820 -0.2036  0.1048 -0.0252
 1797W        W 2794   6.606   4.922   5.916 -0.0408 -0.1425  0.0122
 1798W        W 2795   1.155   2.776   3.726 -0.0409  0.0178  0.0887
 1799W        W 2796   4.060   2.718   6.834  0.1151  0.2337  0.0757
 1800W        W 2797   2.693   4.559   5.078  0.2137  0.0107  0.0677
 1801W        W 2798   4.390   5.233   6.082  0.2460 -0.1829  0.1505
 1802W        W 2799   6.700   6.639   2.128 -0.0216 -0.0035 -0.3698
 1803W        W 2800   0.737   0.418   0.095 -0.0174 -0.1021  0.2627
 1804W        W 2801   4.076   5.001   5.789 -0.2145 -0.0912 -0.0047
 1805W        W 2802   3.084   4.904   2.821  0.1675  0.3517  0.1004
 1806W        W 2803   4.141   6.529   0.565 -0.0917  0.0883 -0.4085
 1807W        W 2804   1.517   1.164   3.300  0.4402  0.3256  0.0455
 1808W        W 2805   1.062   2.648   1.588 -0.0338  0.0550 -0.1725
 1809W        W 2806   5.758   4.043   4.568  0.2293 -0.1083 -0.1122
 1810W        W 2807   1.958   1.191   4.588 -0.0218 -0.1045  0.1551
 1811W        W 2808   3.415   3.808   0.992  0.2236 -0.2370 -0.1832
 1812W        W 2809   0.297   4.427   0.222 -0.0540  0.4384 -0.2195
 1813W        W 2810   3.950   1.028   5.353 -0.3105  0.1736  0.2619
 1814W        W 2811   6.971   6.257   1.614  0.1385 -0.3848 -0.1090
 1815W        W 2812   6.676   6.743   0.611 -0.0243  0.5244 -0.2296
 1816W        W 2813   1.092   2.017   4.112  0.3748  0.0936  0.0571
 1817W        W 2814   7.113   7.059   3.867 -0.0668  0.2451  0.4800
 1818W        W 2815   0.924   0.712   0.461 -0.2668  0.1012  0.1450
 1819W        W 2816   5.829   4.547   3.806  0.1437  0.0939  0.0311
 1820W        W 2817   6.576   7.410   4.601 -0.3224 -0.0675  0.0551
 1821W        W 2818   5.948   6.170   1.151 -0.1430 -0.0724 -0.1358
 1822W        W 2819   4.633   1.379   7.325  0.0054 -0.0740 -0.1832
 1823W        W 2820   1.073   2.369   5.013 -0.2577 -0.1988 -0.1776
 1824W        W 2821   1.254   5.022   6.790  0.1980  0.4583 -0.0470
 1825W        W 2822   6.154   1.074   6.503  0.1357 -0.0762 -0.1186
 1826W        W 2823   3.761   3.364   1.719  0.1305  0.3012  0.0266
 1827W        W 2824   0.140   4.253   5.497  0.1850 -0.1517  0.0263
 1828W        W 2825   3.568   4.977   1.762 -0.2367  0.0208 -0.1783
 1829W        W 2826   1.833   0.164   2.993 -0.1990  0.3144  0.2200
 1830W        W 2827   3.623   3.534   6.391  0.1454 -0.0927  0.2987
 1831W        W 2828   1.092   0.035   6.072 -0.0786 -0.1599 -0.1313
 1832W        W 2829   3.889   3.763   5.249 -0.3755 -0.0974  0.0123
 1833W        W 2830   0.634   0.225   6.843 -0.1413 -0.1947 -0.0130
 1834W        W 2831   3.446   1.754   7.627  0.1118 -0.0860  0.1855
 1835W        W 2832   3.835   1.219   4.815  0.0810  0.0458 -0.1952
 1836W        W 2833   3.095   1.478   1.684 -0.0353 -0.4422 -0.1017
 1837W        W 2834   1.475   5.129   3.751  0.2400  0.1930 -0.0278
 1838W        W 2835   1.637   2.194   5.471  0.0846  0.0398  0.2681
 1839W        W 2836   1.568   5.932   1.361 -0.0260 -0.2676  0.0801
 1840W        W 2837   4.614   3.536   6.789 -0.1124  0.2969  0.0661
 1841W        W 2838   1.441   1.305   0.014  0.2182  0.1097  0.1610
 1842W        W 2839   1.090   3.307   6.887  0.0785  0.0485 -0.2160
 1843W        W 2840   5.582   7.119   2.279  0.2822  0.2449 -0.1271
 1844W        W 2841   5.761   5.685   1.022  0.2629  0.1310  0.2408
 1845W        W 2842   1.669   4.142   2.678  0.1795 -0.2581  0.1264
 1846W        W 2843   1.247   4.418   0.962  0.1806  0.0044 -0.0825
 1847W        W 2844   6.042   4.487   4.349  0.1691  0.3306 -0.0264
 1848W        W 2845   3.995   5.617   5.532  0.1964  0.0310  0.2581
 1849W        W 2846   4.664   3.214   3.110  0.0427 -0.1635  0.1492
 1850W        W 2847   3.557   0.214   5.960 -0.0036 -0.0465 -0.1792
 1851W        W 2848   4.314   2.652   1.599 -0.1181 -0.1028  0.1573
 1852W        W 2849   2.129   4.868   2.589  0.0301  0.1399 -0.1166
 1853W        W 2850   5.239   0.273   4.444 -0.1000 -0.0354 -0.0802
 1854W        W 2851   3.971   1.152   1.717  0.0375 -0.5052  0.0395
 1855W        W 2852   1.530   2.002   2.918  0.1965  0.1143  0.1802
 1856W        W 2853   4.312   4.883   0.957  0.1656  0.0274 -0.2409
 1857W        W 2854   4.105   0.679   7.621  0.0650  0.1925  0.0117
 1858W        W 2855   7.564   1.794   6.825 -0.0473  0.0119 -0.1231
 1859W        W 2856   4.206   2.263   2.724 -0.0147  0.1144 -0.1524
 1860W        W 2857   0.854   1.658   7.031  0.0728 -0.2605 -0.3564
 1861W        W 2858   0.171   5.077   6.591  0.1986 -0.1614 -0.0950
 1862W        W 2859   4.042   2.203   5.787 -0.1181 -0.2481 -0.0884
 1863W        W 2860   4.563   6.026   4.871 -0.0344  0.0672 -0.0848
 1864W        W 2861   0.731   2.384   5.369 -0.1686 -0.1352  0.2144
 1865W        W 2862   6.791   2.293   7.145 -0.0094 -0.1148  0.1199
 1866W        W 2863   0.716   4.840   1.054  0.4247  0.1094 -0.0921
 1867W        W 2864   3.303   3.141   3.207  0.1084  0.2431  0.1787
 1868W        W 2865   5.058   5.492   6.826 -0.0486  0.0045  0.0987
 1869W        W 2866   0.027   5.274   4.634 -0.2226  0.1263 -0.1543
 1870W        W 2867   1.591   0.218   6.594  0.1690 -0.0809  0.2893
 1871W        W 2868   2.655   4.571   3.643  0.1995  0.1977 -0.0926
 1872W        W 2869   3.307   0.413   4.977  0.0251  0.0962  0.1934
 1873W        W 2870   4.403   6.628   1.737  0.0509 -0.1352 -0.0216
 1874W        W 2871   2.951   7.319   7.140  0.1545 -0.1925 -0.0191
 1875W        W 2872   4.984   4.448   4.902  0.0143  0.0647 -0.0631
 1876W        W 2873   6.256   2.580   5.770  0.2744  0.0538 -0.1628
 1877W        W 2874   4.716   6.513   3.444  0.3527  0.0617 -0.0285
 1878W        W 2875   6.583   4.798   1.166  0.1269  0.1139  0.0439
 1879W        W 2876   0.150   5.697   7.567  0.1031 -0.0309 -0.0979
 1880W        W 2877   3.389   4.677   7.216  0.3087  0.0023 -0.0134
 1881W        W 2878   7.227   4.239   5.374 -0.0132  0.2942  0.1084
 1882W        W 2879   1.709   6.038   1.857  0.2700 -0.0324  0.1675
 1883W        W 2880   4.767   3.845   4.013 -0.1101  0.0131 -0.0395
 1884W        W 2881   2.281   2.173   3.432 -0.1324 -0.1732 -0.3089
 1885W        W 2882   2.574   0.359   2.999  0.1827  0.2725 -0.0376
 1886W        W 2883   0.546   0.190   5.862 -0.2297  0.0680 -0.1605
 1887W        W 2884   1.048   3.910   5.354 -0.1110  0.1009 -0.0748
 1888W        W 2885   1.350   6.115   6.739 -0.1557 -0.0701 -0.0096
 1889W        W 2886   5.317   3.125   5.529 -0.1257 -0.1269  0.0833
 1890W        W 2887   7.016   4.838   1.599  0.2185  0.2469  0.4956
 1891W        W 2888   4.006   2.343   7.222 -0.0206  0.0464 -0.2957
 1892W        W 2889   6.118   3.619   0.892  0.1162 -0.2456  0.1174
 1893W        W 2890   5.390   7.495   4.696 -0.2120 -0.0226 -0.1035
 1894W        W 2891   2.811   5.409   5.245  0.1017 -0.0014  0.0409
 1895W        W 2892   2.879   2.471   6.122 -0.0363  0.5585  0.1875
 1896W        W 2893   4.990   0.834   4.139 -0.2525  0.0494 -0.0276
 1897W        W 2894   6.420   1.275   3.861  0.1008  0.0973  0.1005
 1898W        W 2895   1.424   6.477   1.637 -0.0021 -0.0629  0.4265
 1899W        W 2896   2.956   4.613   4.635  0.0900  0.0645 -0.4561
 1900W        W 2897   4.494   4.678   7.428 -0.1954 -0.0483 -0.1114
 1901W        W 2898   3.808   6.759   7.594  0.1459 -0.2355  0.0227
 1902W        W 2899   7.095   7.624   4.721 -0.3050 -0.2136 -0.0813
 1903W        W 2900   0.988   3.406   5.910 -0.0609 -0.0253 -0.2130
 1904W        W 2901   3.465   3.353   5.425  0.1799  0.0897 -0.1214
 1905W        W 2902   1.562   5.389   5.865  0.2294 -0.0081 -0.1206
 1906W        W 2903   0.546   5.063   5.659 -0.0060  0.3496  0.2046
 1907W        W 2904   2.147   6.619   6.610  0.0899 -0.0764 -0.1623
 1908W        W 2905   0.468   6.651   1.134  0.0456  0.2249 -0.2750
 1909W        W 2906   4.131   0.618   3.510  0.1016  0.0731 -0.2065
 1910W        W 2907   5.009   2.589   1.780 -0.0149 -0.1993 -0.1171
 1911W        W 2908   2.047   2.719   2.057  0.0125  0.4671 -0.2479
 1912W        W 2909   2.030   0.902   1.944 -0.3491  0.2044 -0.0557
 1913W        W 2910   4.239   1.613   4.073 -0.0778 -0.1720  0.2065
 1914W        W 2911   0.550   1.331   6.161  0.0760  0.0184 -0.4848
 1915W        W 2912   0.246   6.930   4.680 -0.0966 -0.0688  0.0653
 1916W        W 2913   3.616   4.705   0.630 -0.1075  0.0398 -0.2793
 1917W        W 2914   0.667   4.919   7.351 -0.0041  0.0431  0.1001
 1918W        W 2915   2.295   5.341   0.944  0.2012  0.0506 -0.0034
 1919W        W 2916   6.181   4.090   5.766 -0.0956 -0.0391 -0.2180
 1920W        W 2917   0.840   6.585   6.216  0.0486 -0.0230 -0.4294
 1921W        W 2918   6.670   1.706   5.887 -0.1240 -0.0498  0.3218
 1922W        W 2919   6.311   5.738   6.647 -0.1634  0.2433  0.1605
 1923W        W 2920   6.516   6.322   6.933 -0.1264 -0.0522  0.0879
 1924W        W 2921   2.901   3.010   3.014  0.6921  0.0311 -0.0510
 1925W        W 2922   0.818   4.111   3.835  0.1193  0.0486 -0.0551
 1926W        W 2923   4.134   4.181   3.644 -0.0486 -0.0067  0.1014
 1927W        W 2924   3.592   4.220   5.312 -0.2164 -0.1866 -0.1993
 1928W        W 2925   3.277   0.941   5.475 -0.3078 -0.3571 -0.0645
 1929W        W 2926   6.058   4.597   6.693 -0.0726 -0.0215  0.1763
 1930W        W 2927   5.239   7.588   3.109  0.0663  0.2858  0.1285
 1931W        W 2928   4.070   5.145   4.475 -0.0753  0.2567  0.0952
 1932W        W 2929   6.386   3.595   5.283  0.0707 -0.0410 -0.3103
 1933W        W 2930   2.899   1.572   6.842  0.0270  0.0347 -0.1130
 1934W        W 2931   1.446   2.401   1.360  0.1407 -0.0898 -0.3842
 1935W        W 2932   5.072   2.759   7.170 -0.2715  0.1265 -0.0083
 1936W        W 2933   2.049   1.707   7.073 -0.0066  0.0424  0.2404
 1937W        W 2934   0.121   5.480   1.285  0.0084  0.2798  0.2437
 1938W        W 2935   4.393   0.829   6.212  0.0619 -0.2808 -0.0247
 1939W        W 2936   1.473   2.041   5.060  0.4530 -0.2701  0.1711
 1940W        W 2937   6.683   7.444   0.080 -0.1784  0.1987  0.4267
 1941W        W 2938   3.570   4.333   3.917 -0.0160 -0.1066  0.1064
 1942W        W 2939   7.183   2.540   0.602  0.0922 -0.0319  0.2335
 1943W        W 2940   6.754   2.647   4.363  0.0265 -0.0458  0.0315
 1944W        W 2941   6.295   7.339   5.482 -0.3268  0.0461  0.1238
 1945W        W 2942   6.059   3.981   5.297 -0.0716  0.0680  0.0799
 1946W        W 2943   1.417   4.256   1.754 -0.2073 -0.2367 -0.0986
 1947W        W 2944   5.332   4.545   3.329 -0.1806 -0.3620  0.3300
 1948W        W 2945   6.715   6.156   2.456 -0.0003  0.1277 -0.2674
 1949W        W 2946   2.825   1.676   4.853  0.1783  0.0840  0.0652
 1950W        W 2947   3.439   3.132   2.133 -0.1609  0.4087 -0.0685
 1951W        W 2948   6.760   7.432   5.164  0.3761 -0.1069  0.2376
 1952W        W 2949   1.316   1.078   2.815  0.1290 -0.1740 -0.3828
 1953W        W 2950   1.719   3.559   6.472 -0.1116  0.1802  0.1942
 1954W        W 2951   2.525   1.765   2.554  0.1639  0.0551 -0.1023
 1955W        W 2952   3.356   0.918   1.153  0.2485  0.3137  0.2177
 1956W        W 2953   5.422   3.631   7.246 -0.0770 -0.0885  0.1778
 1957W        W 2954   7.143   4.904   5.816 -0.1450  0.2583 -0.0483
 1958W        W 2955   4.169   1.138   0.250 -0.0037  0.1924 -0.1237
 1959W        W 2956   6.855   5.983   3.402  0.1405  0.0269 -0.1765
 1960W        W 2957   5.355   7.388   5.178 -0.1287 -0.2223  0.1674
 1961W        W 2958   7.295   6.734   0.352 -0.2266 -0.0936  0.1682
 1962W        W 2959   6.805   3.602   0.611  0.2726  0.1583  0.0127
 1963W        W 2960   6.447   7.602   3.668 -0.0844  0.0020  0.0862
 1964W        W 2961   0.839   5.784   2.023  0.0535  0.1649  0.3041
 1965W        W 2962   5.022   1.883   6.100 -0.0433 -0.0591 -0.1820
 1966W        W 2963   2.242   4.800   3.526 -0.1557 -0.1329  0.0695
 1967W        W 2964   6.715   4.355   3.608 -0.0692  0.0490  0.1157
 1968W        W 2965   5.559   1.852   4.979 -0.1153 -0.1048  0.2814
 1969W        W 2966   1.080   0.725   2.075  0.0694 -0.1502  0.1359
 1970W        W 2967   4.319   1.010   2.678 -0.0733 -0.2773 -0.1254
 1971W        W 2968   4.927   5.234   2.282 -0.3295 -0.2781 -0.3099
 1972W        W 2969   2.150   1.638   1.247 -0.0435  0.0183  0.0055
 1973W        W 2970   2.412   1.998   2.989  0.0766  0.1103  0.0828
 1974W        W 2971   2.087   0.598   3.102  0.2317  0.0207  0.1302
 1975W        W 2972   2.364   7.178   0.191 -0.2851  0.2961  0.0045
 1976W        W 2973   4.837   0.142   0.562  0.1795  0.1757 -0.1744
 1977W        W 2974   6.399   3.157   5.602  0.2533  0.1466  0.4645
 1978W        W 2975   7.365   5.736   2.112  0.3404 -0.2530 -0.1547
 1979W        W 2976   0.809   7.121   5.994  0.0279  0.0539 -0.1152
 1980W        W 2977   6.910   6.281   7.323 -0.0175 -0.3243 -0.1405
 1981W        W 2978   0.061   1.114   4.816 -0.1878  0.2443  0.1073
 1982W        W 2979   7.215   5.970   3.043 -0.3627  0.0262 -0.0290
 1983W        W 2980   3.184   4.652   1.711 -0.2828 -0.0776 -0.2574
 1984W        W 2981   1.251   6.474   5.318 -0.0254  0.2875  0.0873
 1985W        W 2982   2.947   1.432   7.327  0.1376  0.2988 -0.0137
 1986W        W 2983   2.137   1.868   6.505 -0.2153 -0.2834 -0.0856
 1987W        W 2984   5.132   3.348   3.965  0.1671 -0.2120  0.0003
 1988W        W 2985   1.195   3.543   0.183  0.0392 -0.0379 -0.0873
 1989W        W 2986   3.968   0.222   0.220 -0.3718 -0.1333 -0.2061
 1990W        W 2987   3.701   1.107   6.978  0.1645 -0.0740 -0.0266
 1991W        W 2988   0.947   3.348   5.381  0.0553  0.2401  0.2239
 1992W        W 2989   1.620   0.092   0.817 -0.1252 -0.2722 -0.1107
 1993W        W 2990   2.805   2.210   7.547 -0.0344  0.1845 -0.1804
 1994W        W 2991   2.796   6.001   7.016  0.0153  0.4094  0.1150
 1995W        W 2992   1.797   0.771   7.254 -0.2067 -0.1819 -0.0665
 1996W        W 2993   2.592   5.996   2.031  0.0154 -0.2324 -0.1603
 1997W        W 2994   0.055   6.563   5.002 -0.0249 -0.0611  0.0728
 1998W        W 2995   3.000   6.443   7.067  0.1596  0.2405 -0.2454
 1999W        W 2996   1.821   3.131   1.088  0.1121 -0.0191 -0.0752
 2000W        W 2997   3.946   5.849   4.913 -0.2320 -0.4560 -0.1533
 2001W        W 2998   4.670   7.172   1.151 -0.0619  0.1565  0.2249
 2002W        W 2999   3.904   5.084   6.261 -0.0648  0.2611  0.2448
 2003W        W 3000   1.513   6.614   0.751 -0.0479 -0.2705  0.0208
 2004W        W 3001   3.569   6.586   7.083  0.0543 -0.2676  0.2147
 2005W        W 3002   4.356   3.784   5.081  0.0956  0.1451 -0.0543
 2006W        W 3003   5.149   6.280   2.211 -0.0745  0.0786 -0.1457
 2007W        W 3004   5.085   5.993   0.571  0.6742 -0.2169 -0.2541
 2008W        W 3005   6.898   1.932   7.532  0.0102  0.0039  0.4831
 2009W        W 3006   2.761   0.992   2.538  0.0266 -0.1861 -0.0703
 2010W        W 3007   2.474   2.347   6.480 -0.1700 -0.0213 -0.1232
 2011W        W 3008   4.990   7.139   4.820 -0.0222 -0.3850 -0.0240
 2012W        W 3009   5.992   0.208   3.804 -0.0621 -0.2424 -0.2784
 2013W        W 3010   5.698   6.595   1.005  0.1484 -0.3054 -0.2210
 2014W        W 3011   1.415   3.635   4.054  0.0486  0.1467 -0.4496
 2015W        W 3012   7.420   3.674   7.543 -0.2298  0.0877 -0.4027
 2016W        W 3013   5.308   1.338   5.890  0.2053 -0.2192 -0.2835
 2017W        W 3014   4.696   5.923   7.148  0.2212  0.0743  0.0829
 2018W        W 3015   6.412   6.081   0.938  0.1728  0.2427 -0.1207
 2019W        W 3016   0.750   2.350   3.898 -0.0946 -0.0811  0.0864
 2020W        W 3017   5.209   0.794   6.739 -0.1477 -0.0027 -0.1518
 2021W        W 3018   6.154   7.127   3.990 -0.2742 -0.0555  0.1907
 2022W        W 3019   2.632   1.576   5.329 -0.3254 -0.0642  0.0170
 2023W        W 3020   5.393   3.170   6.470 -0.2714  0.1870 -0.0315
 2024W        W 3021   5.876   3.850   6.059  0.2951 -0.2755 -0.1410
 2025W        W 3022   3.649   4.251   7.527  0.2410 -0.5188 -0.2323
 2026W        W 3023   2.569   2.922   6.926 -0.0259  0.0287 -0.2454
 2027W        W 3024   3.496   1.330   2.499 -0.0284  0.1604  0.3206
 2028W        W 3025   2.577   0.421   5.006  0.2431 -0.0611 -0.1127
 2029W        W 3026   0.494   6.374   5.350  0.0117 -0.0680 -0.1812
 2030W        W 3027   2.910   0.142   0.761  0.1594  0.0236  0.0798
 2031W        W 3028   2.746   5.789   0.151  0.1149  0.1572  0.2278
 2032W        W 3029   4.108   3.018   1.940  0.1357  0.1495 -0.1162
 2033W        W 3030   5.832   2.773   5.323 -0.1454  0.0125  0.0297
 2034W        W 3031   3.042   3.413   5.667  0.1676  0.0309 -0.1362
 2035W        W 3032   0.126   1.589   5.364 -0.0557  0.0950 -0.1939
 2036W        W 3033   4.654   6.061   1.959 -0.3888  0.0426  0.5688
 2037W        W 3034   2.324   0.851   3.485 -0.1353 -0.1126 -0.1511
 2038W        W 3035   4.750   3.795   0.883  0.2029 -0.0797 -0.2240
 2039W        W 3036   1.511   5.608   2.675  0.1098  0.2803  0.2265
 2040W        W 3037   0.558   2.601   1.517  0.3210  0.2129  0.0010
 2041W        W 3038   1.980   3.387   4.525  0.1132  0.2758 -0.1906
 2042W        W 3039   3.280   1.546   4.739 -0.1829 -0.1753  0.0155
 2043W        W 3040   0.842   2.731   1.123 -0.1305  0.0718 -0.2463
 2044W        W 3041   4.892   6.278   6.849  0.0694  0.0145 -0.0821
 2045W        W 3042   6.752   0.087   3.288 -0.0844 -0.2706  0.3113
 2046W        W 3043   5.520   7.178   0.712  0.0517 -0.0309 -0.1756
 2047W        W 3044   2.981   0.286   0.319 -0.3486  0.0794  0.1380
 2048W        W 3045   3.824   4.057   1.873 -0.0331 -0.0435  0.1175
 2049W        W 3046   6.596   6.568   1.601 -0.1124  0.1555  0.1516
 2050W        W 3047   5.778   1.599   5.815 -0.1153 -0.1020 -0.0436
 2051W        W 3048   4.222   1.923   2.344  0.0349 -0.0462  0.0153
 2052W        W 3049   4.562   2.254   3.053  0.0390  0.0978  0.0329
 2053W        W 3050   3.801   1.678   2.279  0.0630  0.1054  0.0976
 2054W        W 3051   7.501   1.411   0.066  0.5070 -0.0180 -0.1138
 2055W        W 3052   0.476   4.017   0.573  0.4202  0.2394  0.0932
 2056W        W 3053   7.322   1.861   0.158 -0.2248  0.1581 -0.1561
 2057W        W 3054   2.424   4.307   1.867 -0.1927  0.2483 -0.3788
 2058W        W 3055   2.918   0.635   5.272  0.2858 -0.0728  0.3294
 2059W        W 3056   0.737   1.752   6.541 -0.0911  0.1869  0.2017
 2060W        W 3057   4.104   3.506   2.072  0.1762  0.1672 -0.3344
 2061W        W 3058   4.272   6.045   2.259 -0.1119 -0.3591 -0.0182
 2062W        W 3059   4.403   6.927   4.109 -0.4723 -0.0419 -0.0310
 2063W        W 3060   2.692   5.053   1.833  0.1826  0.0328  0.3415
 2064W        W 3061   6.672   4.109   7.118  0.0132 -0.3505  0.1051
 2065W        W 3062   3.323   6.019   7.001  0.1267 -0.1981  0.0192
 2066W        W 3063   3.797   5.638   3.072  0.1401 -0.2549  0.1028
 2067W        W 3064   0.301   7.187   0.911 -0.2056  0.0454  0.0624
 2068W        W 3065   3.162   2.630   4.863  0.1395  0.1319  0.2063
 2069W        W 3066   2.239   4.215   5.634 -0.1179  0.0038  0.0488
 2070W        W 3067   6.799   5.557   6.658 -0.1003  0.1708 -0.1618
 2071W        W 3068   2.461   3.641   5.556 -0.0402  0.0291  0.0909
 2072W        W 3069   4.246   0.156   6.887 -0.0671  0.1616  0.1266
 2073W        W 3070   3.487   5.354   1.401  0.0465 -0.2115 -0.0090
 2074W        W 3071   2.439   7.394   7.369  0.0637  0.0691 -0.0245
 2075W        W 3072   5.843   6.857   4.294  0.1540  0.1057 -0.0323
 2076W        W 3073   1.005   5.435   3.326 -0.1181 -0.0998  0.2342
 2077W        W 3074   5.177   4.412   2.861 -0.3891 -0.3606 -0.1611
 2078W        W 3075   3.431   5.695   2.264  0.0455 -0.1160  0.1842
 2079W        W 3076   4.041   3.940   4.710  0.1896  0.1614  0.1380
 2080W        W 3077   5.689   2.374   4.475 -0.1818 -0.1187  0.2794
 2081W        W 3078   2.704   7.181   5.411 -0.0480  0.0274  0.0212
 2082W        W 3079   5.423   7.272   7.057  0.0851  0.2089  0.2318
 2083W        W 3080   2.254   4.356   0.870 -0.0097 -0.3728 -0.0673
 2084W        W 3081   7.224   1.984   7.161  0.1216  0.1645 -0.2088
 2085W        W 3082   0.690   4.878   0.193  0.0614  0.0117 -0.1282
 2086W        W 3083   4.511   6.528   4.419 -0.0930 -0.2354  0.3510
 2087W        W 3084   6.268   5.787   2.489 -0.2071 -0.2498  0.2708
 2088W        W 3085   7.003   4.592   7.210 -0.1874  0.1216 -0.0308
 2089W        W 3086   5.957   3.428   3.415 -0.0515  0.1131 -0.1925
 2090W        W 3087   0.733   4.062   4.780 -0.2691 -0.1483  0.0724
 2091W        W 3088   0.166   1.088   5.317 -0.0980 -0.2352  0.3199
 2092W        W 3089   1.791   4.062   4.829  0.0904  0.2327  0.0516
 2093W        W 3090   0.280   3.674   0.250 -0.0840  0.0394 -0.0277
 2094W        W 3091   5.774   2.298   5.357 -0.0955 -0.0643  0.1580
 2095W        W 3092   7.153   2.436   5.812  0.1786 -0.1617  0.3906
 2096W        W 3093   4.300   1.073   3.734 -0.1785 -0.0816  0.4054
 2097W        W 3094   7.098   0.508   4.767 -0.1623  0.3327 -0.1197
 2098W        W 3095   3.340   3.896   0.010 -0.1895 -0.1486 -0.1252
 2099W        W 3096   7.512   7.127   7.117  0.1440  0.0312 -0.1174
 2100W        W 3097   0.102   6.967   1.322 -0.0460  0.0376 -0.1125
 2101W        W 3098   2.054   0.454   0.980 -0.2089 -0.1190  0.0475
 2102W        W 3099   0.998   6.219   7.053  0.0644  0.2053  0.0254
 2103W        W 3100   5.336   5.621   1.762  0.1470 -0.0302 -0.2902
 2104W        W 3101   5.242   7.155   3.747 -0.1149 -0.0332  0.2489
 2105W        W 3102   1.899   1.086   6.843 -0.1094  0.0160 -0.2520
 2106W        W 3103   6.815   6.478   0.174  0.0003 -0.2399 -0.0558
 2107W        W 3104   6.176   5.680   3.690 -0.2553 -0.0940 -0.0828
 2108W        W 3105   4.193   3.341   4.455 -0.0092 -0.1502 -0.0384
 2109W        W 3106   5.098   7.538   7.368 -0.1145 -0.1152 -0.1417
 2110W        W 3107   0.912   2.174   4.595 -0.0265  0.0658  0.2545
 2111W        W 3108   0.890   7.229   7.388  0.2509  0.0210 -0.0458
 2112W        W 3109   4.503   1.880   3.422 -0.0840  0.2981  0.1353
 2113W        W 3110   7.631   6.521   1.185  0.1907 -0.0709 -0.0073
 2114W        W 3111   3.927   4.645   7.244 -0.1275 -0.0842  0.0708
 2115W        W 3112   1.633   3.277   6.050 -0.1149  0.1883 -0.0097
 2116W        W 3113   2.214   5.348   1.695  0.0490  0.0734  0.1624
 2117W        W 3114   2.542   0.287   6.530  0.1917  0.3245 -0.1830
 2118W        W 3115   2.262   5.260   3.637  0.0420  0.0445  0.0005
 2119W        W 3116   0.270   4.608   1.124 -0.1508 -0.0707 -0.3754
 2120W        W 3117   1.957   4.026   6.706  0.2431  0.0177  0.1471
 2121W        W 3118   6.011   6.838   2.457  0.0237  0.1849 -0.0027
 2122W        W 3119   5.351   2.252   3.688 -0.2614 -0.2953  0.0876
 2123W        W 3120   6.409   1.468   0.174 -0.1502  0.1888  0.0241
 2124W        W 3121   4.469   1.923   5.702  0.1151  0.0551  0.1266
 2125W        W 3122   3.309   0.848   2.506  0.1538 -0.2336  0.0073
 2126W        W 3123   3.317   7.381   5.968 -0.1536  0.2040  0.0600
 2127W        W 3124   0.634   4.027   0.077  0.1139 -0.0289 -0.3713
 2128W        W 3125   1.387   0.648   4.536 -0.3681  0.1522  0.2163
 2129W        W 3126   2.114   3.180   6.978  0.2049  0.2940  0.2899
 2130W        W 3127   4.535   2.751   6.593  0.0386  0.0421  0.1488
 2131W        W 3128   2.572   2.507   0.838 -0.1921  0.0083 -0.2724
 2132W        W 3129   6.174   6.504   4.574 -0.1672 -0.2189 -0.0916
 2133W        W 3130   0.620   1.508   5.147  0.0179  0.1883  0.1037
 2134W        W 3131   1.031   5.991   5.419 -0.0494 -0.2314  0.1143
 2135W        W 3132   7.187   7.556   6.956  0.2226  0.2575 -0.2330
 2136W        W 3133   3.975   0.824   2.973  0.2561  0.1762  0.1819
 2137W        W 3134   0.357   2.242   4.448 -0.1687 -0.2655  0.0125
 2138W        W 3135   3.240   3.599   7.200 -0.2188 -0.0293 -0.1027
 2139W        W 3136   2.559   1.664   6.364  0.1344 -0.0827  0.0127
 2140W        W 3137   7.558   4.422   0.817 -0.0718 -0.0080 -0.0530
 2141W        W 3138   0.080   1.152   5.820  0.2026 -0.1351 -0.0145
 2142W        W 3139   1.593   7.197   0.847  0.1110 -0.0459 -0.3478
 2143W        W 3140   5.416   5.640   0.655  0.1420  0.1655  0.1869
 2144W        W 3141   3.068   6.972   5.112  0.3429  0.0575 -0.3977
 2145W        W 3142   2.459   1.968   1.491 -0.1799  0.1488 -0.1757
 2146W        W 3143   1.301   0.644   0.046 -0.0458  0.0416 -0.2065
 2147W        W 3144   4.992   5.664   4.220 -0.1228  0.2331  0.1475
 2148W        W 3145   4.705   1.244   2.863  0.1612 -0.0941  0.1900
 2149W        W 3146   1.098   0.287   6.716  0.0847  0.1085  0.0277
 2150W        W 3147   4.857   2.072   4.996  0.4312 -0.1424 -0.0868
 2151W        W 3148   3.488   1.891   6.537 -0.0467 -0.2015 -0.0629
 2152W        W 3149   4.616   7.514   3.426  0.1165  0.1009  0.0148
 2153W        W 3150   4.547   6.062   6.217 -0.2403 -0.0385 -0.1034
 2154W        W 3151   2.423   1.083   7.250 -0.2952 -0.0594  0.0273
 2155W        W 3152   0.709   3.765   6.809 -0.1004  0.2583 -0.0093
 2156W        W 3153   3.383   4.483   2.988 -0.3871 -0.0710  0.1766
 2157W        W 3154   4.734   5.776   3.782  0.1219  0.0635 -0.1270
 2158W        W 3155   4.278   3.497   7.217  0.5125 -0.0027 -0.1067
 2159W        W 3156   5.448   1.016   4.037 -0.4293  0.2712  0.0349
 2160W        W 3157   1.455   0.910   5.987 -0.2704  0.0555  0.0147
 2161W        W 3158   1.379   6.841   1.196  0.2581 -0.2647  0.1069
 2162W        W 3159   0.012   7.105   6.158  0.0088 -0.0898  0.1514
 2163W        W 3160   0.303   3.112   4.302 -0.4675  0.0226 -0.1262
 2164W        W 3161   4.503   1.981   6.169  0.2645 -0.2738 -0.0710
 2165W        W 3162   2.228   1.695   3.737 -0.0275  0.0897 -0.0545
 2166W        W 3163   7.576   7.591   7.422  0.0743 -0.2975 -0.0897
 2167W        W 3164   2.300   6.254   0.317  0.0928 -0.0698 -0.0854
 2168W        W 3165   2.980   7.527   7.620  0.0690 -0.1916  0.0006
 2169W        W 3166   3.671   3.201   4.489  0.4661  0.1683  0.0891
 2170W        W 3167   7.545   7.350   6.643  0.0184  0.0153 -0.3414
 2171W        W 3168   1.767   4.434   0.874  0.1223 -0.1958  0.2766
 2172W        W 3169   3.667   5.490   1.862  0.0625 -0.0847  0.0948
 2173W        W 3170   7.325   6.875   5.263 -0.1553 -0.2811  0.1489
 2174W        W 3171   3.046   1.039   2.919 -0.0217  0.0901  0.1381
 2175W        W 3172   0.780   1.936   6.036 -0.1169  0.3999  0.1569
 2176W        W 3173   2.926   6.654   5.730 -0.0269 -0.1214  0.1356
 2177W        W 3174   4.678   3.700   4.620 -0.0366 -0.2571 -0.0661
 2178W        W 3175   5.421   6.204   2.619 -0.2322  0.0373  0.1295
 2179W        W 3176   4.919   4.840   0.408  0.2189 -0.0163  0.0539
 2180W        W 3177   5.368   7.049   4.299  0.0751  0.0102 -0.1056
 2181W        W 3178   0.181   0.984   7.449 -0.0005 -0.0978  0.3188
 2182W        W 3179   5.542   4.088   3.617  0.0452  0.0265  0.1595
 2183W        W 3180   1.950   1.710   2.691  0.0362  0.2584  0.0534
 2184W        W 3181   0.777   6.258   1.744  0.0463 -0.0878  0.0743
 2185W        W 3182   0.340   2.258   6.692  0.2347 -0.0228 -0.2173
 2186W        W 3183   0.714   6.238   7.486 -0.1061  0.0979 -0.0761
 2187W        W 3184   5.692   6.370   6.433 -0.1110  0.1846 -0.0055
 2188W        W 3185   3.884   5.995   1.252 -0.1089  0.1253  0.1062
 2189W        W 3186   1.358   1.274   4.330  0.0047 -0.1668 -0.1439
 2190W        W 3187   1.938   5.002   5.586  0.2589 -0.1151 -0.0445
 2191W        W 3188   5.168   3.638   4.399  0.1047 -0.0851  0.1965
 2192W        W 3189   0.949   4.822   6.422  0.0492 -0.0200 -0.0134
 2193W        W 3190   4.260   5.618   3.267 -0.1776 -0.0843 -0.1018
 2194W        W 3191   4.360   4.064   6.032 -0.0912  0.1951 -0.0103
 2195W        W 3192   0.801   2.787   0.142 -0.3143  0.1314  0.0240
 2196W        W 3193   4.366   3.862   6.503  0.0823 -0.2227 -0.0800
 2197W        W 3194   3.669   1.255   5.728 -0.1692 -0.0021  0.0151
 2198W        W 3195   2.925   5.952   6.051  0.1360 -0.3361 -0.1622
 2199W        W 3196   2.142   6.214   5.688  0.1606 -0.0032  0.3283
 2200W        W 3197   1.089   4.089   1.360 -0.0206 -0.1955  0.4861
 2201W        W 3198   0.938   5.297   5.964 -0.3057  0.1463  0.1939
 2202W        W 3199   2.886   7.200   1.059 -0.0484 -0.0781 -0.0246
 2203W        W 3200   6.847   2.641   6.728  0.1204 -0.3011 -0.1879
 2204W        W 3201   1.768   2.789   6.834 -0.0139 -0.0054 -0.4275
 2205W        W 3202   5.136   1.382   3.056  0.1333 -0.0873 -0.0051
 2206W        W 3203   2.667   2.040   4.498  0.1703  0.0185  0.1679
 2207W        W 3204   3.218   3.228   3.724  0.1474  0.4171  0.0787
 2208W        W 3205   3.901   5.698   4.416 -0.0300  0.2395 -0.0231
 2209W        W 3206   7.247   5.695   1.337 -0.1068  0.1011  0.0770
 2210W        W 3207   7.571   0.654   4.619 -0.0284 -0.1644  0.2047
 2211W        W 3208   6.295   5.310   2.332 -0.0076  0.1025  0.0107
 2212W        W 3209   6.382   5.278   6.357 -0.0425 -0.1167 -0.1351
 2213W        W 3210   7.055   2.245   0.222  0.0530 -0.1684 -0.1158
 2214W        W 3211   6.601   5.888   7.525  0.0640 -0.2784 -0.0607
 2215W        W 3212   2.486   1.875   0.932  0.0631  0.0154  0.2999
 2216W        W 3213   2.652   2.521   1.347  0.1660  0.2347  0.2511
 2217W        W 3214   2.581   3.458   2.068  0.0514  0.1241 -0.1873
 2218W        W 3215   3.788   5.046   5.367 -0.0430 -0.2171 -0.2204
 2219W        W 3216   5.855   4.157   6.509  0.2024  0.2149  0.1711
 2220W        W 3217   3.090   3.808   6.157 -0.1676 -0.0381  0.1463
 2221W        W 3218   6.076   6.341   6.040  0.3315 -0.3353  0.1467
 2222W        W 3219   4.195   3.268   3.313  0.3344 -0.1198 -0.2147
 2223W        W 3220   1.919   2.225   2.838  0.1499  0.1009  0.0855
 2224W        W 3221   4.526   3.343   1.861  0.1579 -0.7093  0.0678
 2225W        W 3222   1.742   4.363   7.638  0.0027  0.0985  0.0591
 2226W        W 3223   3.874   4.714   2.049 -0.0245 -0.0830  0.1789
 2227W        W 3224   5.527   6.580   2.319  0.0855 -0.1948  0.0496
 2228W        W 3225   1.244   5.618   5.129  0.2378 -0.1313  0.4068
 2229W        W 3226   7.351   3.391   6.791  0.0344  0.1127  0.0521
 2230W        W 3227   6.301   1.532   5.637  0.0552  0.1053 -0.1038
 2231W        W 3228   0.025   2.672   6.678  0.0542 -0.1343  0.2499
 2232W        W 3229   5.921   1.148   3.313  0.2076  0.0632  0.0556
 2233W        W 3230   6.565   3.517   2.149  0.2632  0.0029  0.1681
 2234W        W 3231   4.375   5.787   1.326  0.3998  0.0586  0.0751
 2235W        W 3232   3.194   4.913   2.184 -0.4083 -0.0114 -0.2433
 2236W        W 3233   7.531   5.599   4.998  0.4246  0.2993  0.0397
 2237W        W 3234   5.256   3.640   5.457 -0.0263 -0.2373  0.1496
 2238W        W 3235   5.531   3.581   4.748  0.0132 -0.0061  0.0089
 2239W        W 3236   2.823   3.604   3.823  0.3754  0.1986  0.0135
 2240W        W 3237   1.051   5.168   1.098  0.0906 -0.4043  0.1056
 2241W        W 3238   2.214   6.799   1.522 -0.1079 -0.0428 -0.1520
 2242W        W 3239   6.411   0.993   3.317 -0.0161 -0.1493  0.0023
 2243W        W 3240   7.167   4.025   0.714 -0.0204 -0.0139  0.2264
 2244W        W 3241   4.125   1.560   3.584  0.0860  0.1734 -0.0609
 2245W        W 3242   6.377   4.262   1.317 -0.1893 -0.0499  0.1351
 2246W        W 3243   0.985   4.140   2.067  0.0322 -0.2940 -0.1171
 2247W        W 3244   4.190   6.808   7.209  0.2066  0.0040  0.1254
 2248W        W 3245   5.205   6.725   3.452  0.0673  0.0697 -0.0203
 2249W        W 3246   3.354   7.602   0.696 -0.0140 -0.2469 -0.0222
 2250W        W 3247   2.061   3.594   6.102  0.3535  0.1745 -0.0800
 2251W        W 3248   6.250   7.103   7.610 -0.2930  0.2587 -0.0969
 2252W        W 3249   4.639   6.756   0.847  0.0950 -0.2662 -0.2203
 2253W        W 3250   5.311   6.052   6.612 -0.2940  0.2043 -0.0043
 2254W        W 3251   7.344   3.350   0.922  0.1100  0.0106 -0.0530
 2255W        W 3252   3.562   4.267   0.337  0.0097  0.0213 -0.0998
 2256W        W 3253   5.063   1.624   5.141  0.4727  0.0419 -0.2938
 2257W        W 3254   5.665   1.336   3.745 -0.0169 -0.0440  0.0925
 2258W        W 3255   5.355   4.527   3.830 -0.0300  0.2227 -0.0486
 2259W        W 3256   4.080   0.812   4.920 -0.1945 -0.0847 -0.3982
 2260W        W 3257   4.682   0.047   1.100  0.0810  0.0186  0.1127
 2261W        W 3258   5.294   0.592   2.838  0.0950 -0.0157  0.2473
 2262W        W 3259   7.575   2.562   5.537  0.0611  0.1875 -0.3787
 2263W        W 3260   6.420   6.546   2.574 -0.2490  0.3083  0.1097
 2264W        W 3261   3.060   3.347   1.193  0.1400 -0.0420 -0.0623
 2265W        W 3262   6.730   6.903   2.821  0.0707  0.0567 -0.2157
 2266W        W 3263   0.094   6.590   0.206  0.1505 -0.1135 -0.0115
 2267W        W 3264   7.289   6.391   5.368 -0.0430 -0.2234  0.1137
 2268W        W 3265   2.857   2.023   5.353  0.4403  0.4365  0.0522
 2269W        W 3266   2.979   4.941   1.345  0.3004 -0.4795 -0.1832
 2270W        W 3267   6.938   0.862   6.002 -0.0867  0.0559  0.0519
 2271W        W 3268   3.559   2.089   4.918  0.0568 -0.0540 -0.0266
 2272W        W 3269   3.834   2.881   3.318  0.2126 -0.1199  0.2355
 2273W        W 3270   0.818   4.390   0.352  0.0044  0.2126  0.1690
 2274W        W 3271   0.532   2.017   4.937 -0.1930  0.0976  0.1181
 2275W        W 3272   1.969   1.238   7.363  0.0775 -0.0571 -0.0665
 2276W        W 3273   0.898   7.449   5.597 -0.0334  0.1075  0.1523
 2277W        W 3274   3.715   7.065   7.172 -0.0789 -0.1159 -0.3054
 2278W        W 3275   1.357   5.499   7.477 -0.2077  0.1239  0.2579
 2279W        W 3276   0.628   3.950   1.147  0.3801  0.0093 -0.2104
 2280W        W 3277   0.610   7.044   4.057 -0.1827  0.2192  0.1776
 2281W        W 3278   0.393   6.139   4.357 -0.2323  0.0550 -0.0861
 2282W        W 3279   4.714   4.532   5.997 -0.0407 -0.0958 -0.1037
 2283W        W 3280   1.460   6.545   7.047  0.1219  0.0274 -0.0149
 2284W        W 3281   6.909   7.100   6.850 -0.3659 -0.0048 -0.0308
 2285W        W 3282   3.727   2.265   4.372 -0.1346 -0.2787 -0.2069
 2286W        W 3283   2.784   1.477   3.846  0.2741  0.2125 -0.0241
 2287W        W 3284   2.651   5.459   6.884 -0.1783 -0.2343  0.2478
 2288W        W 3285   5.277   0.070   6.151 -0.1723 -0.0511  0.1424
 2289W        W 3286   2.166   6.115   6.466  0.1389 -0.0464  0.0971
 2290W        W 3287   3.664   0.601   4.682  0.0256 -0.0174  0.0474
 2291W        W 3288   3.398   0.725   3.873 -0.0871  0.1710 -0.0781
 2292W        W 3289   2.042   0.765   0.529 -0.0480 -0.1987 -0.1212
 2293W        W 3290   6.600   4.985   1.838 -0.0132 -0.0078 -0.2614
 2294W        W 3291   6.453   3.810   0.349  0.2155  0.0535 -0.2525
 2295W        W 3292   2.445   7.541   5.195 -0.0029 -0.0987  0.1339
 2296W        W 3293   0.270   2.390   5.141 -0.2074 -0.2255 -0.1868
 2297W        W 3294   2.537   0.552   0.563 -0.2607  0.0207 -0.0323
 2298W        W 3295   0.533   0.882   4.955  0.0120 -0.0729 -0.1859
 2299W        W 3296   6.433   3.748   7.410  0.0980 -0.2623 -0.0000
 2300W        W 3297   5.138   3.781   3.703 -0.0898  0.0814  0.1691
 2301W        W 3298   2.103   5.107   3.082  0.0040  0.1080  0.1186
 2302W        W 3299   5.035   7.349   1.927  0.3064 -0.0198 -0.2161
 2303W        W 3300   2.023   1.923   1.702 -0.3597 -0.0821 -0.2172
 2304W        W 3301   1.205   0.528   1.595 -0.1741  0.2531  0.0044
 2305W        W 3302   2.472   6.911   7.329 -0.0422 -0.3266 -0.1437
 2306W        W 3303   4.564   6.647   0.344 -0.0641  0.0537 -0.0492
 2307W        W 3304   1.160   3.644   3.174 -0.2045  0.1345 -0.0886
 2308W        W 3305   0.269   5.229   5.053  0.2856  0.0653  0.2484
 2309W        W 3306   5.731   2.069   7.312  0.1338  0.0861  0.0028
 2310W        W 3307   2.826   4.435   3.067 -0.0275  0.1232 -0.3089
 2311W        W 3308   0.110   2.652   7.635  0.3303 -0.0898 -0.2893
 2312W        W 3309   4.581   3.200   6.390 -0.4925 -0.3351 -0.1189
 2313W        W 3310   1.478   4.096   4.385 -0.3746 -0.1038  0.0015
 2314W        W 3311   3.063   1.703   6.176 -0.1653 -0.1497 -0.1011
 2315W        W 3312   7.634   1.377   6.245 -0.2390 -0.2476  0.0210
 2316W        W 3313   3.493   3.656   5.878  0.2233 -0.3012  0.1888
 2317W        W 3314   2.686   3.309   6.615 -0.0845 -0.1058  0.0039
 2318W        W 3315   3.989   7.571   7.242  0.1453 -0.2243  0.0605
 2319W        W 3316   3.795   0.949   2.504 -0.0799  0.3257 -0.1104
 2320W        W 3317   7.421   0.677   5.764  0.1062 -0.1523  0.3053
 2321W        W 3318   5.017   3.390   2.319 -0.1290  0.0912  0.0323
 2322W        W 3319   7.556   6.235   3.969 -0.1214  0.1760  0.1223
 2323W        W 3320   0.851   3.237   1.091  0.0731  0.0702 -0.1096
 2324W        W 3321   6.611   4.336   5.970 -0.1960  0.0549  0.1771
 2325W        W 3322   7.552   5.273   0.483 -0.0049 -0.1332  0.1022
 2326W        W 3323   2.628   5.869   1.515  0.1937 -0.2133 -0.0423
 2327W        W 3324   0.643   1.831   3.932 -0.0564  0.2647 -0.2627
 2328W        W 3325   5.915   6.682   7.608  0.3535 -0.0949 -0.0066
 2329W        W 3326   6.206   6.167   6.548  0.2443 -0.3191 -0.0107
 2330W        W 3327   4.058   2.771   0.673  0.3615  0.2702  0.0006
 2331W        W 3328   4.556   2.335   1.896  0.0385  0.3031  0.0732
 2332W        W 3329   5.811   5.019   2.393  0.3195  0.0837 -0.2057
 2333W        W 3330   2.384   1.890   0.183 -0.3140 -0.0179 -0.2893
 2334W        W 3331   1.863   4.729   7.297  0.1729  0.1713 -0.1325
 2335W        W 3332   7.001   7.117   4.346  0.0328  0.0030 -0.1558
 2336W        W 3333   4.352   4.764   6.297  0.2122  0.1689  0.0202
 2337W        W 3334   1.483   4.163   5.202  0.0285  0.0281  0.1220
 2338W        W 3335   4.844   0.426   7.559 -0.1850  0.1669  0.1648
 2339W        W 3336   0.244   7.616   0.190 -0.1032  0.0285  0.2850
 2340W        W 3337   4.064   7.008   4.495 -0.0196 -0.2554 -0.0469
 2341W        W 3338   4.286   7.468   0.314 -0.0988  0.0578  0.1847
 2342W        W 3339   6.103   4.045   2.751  0.0233  0.1703  0.2722
 2343W        W 3340   1.183   2.985   4.198  0.0790  0.3064 -0.1321
 2344W        W 3341   2.999   2.131   4.847  0.0596  0.0504 -0.0052
 2345W        W 3342   3.513   6.200   2.040 -0.1071  0.3076 -0.2758
 2346W        W 3343   0.433   1.401   7.231 -0.1268  0.3204 -0.3904
 2347W        W 3344   0.141   4.104   1.150  0.0384 -0.2664 -0.1251
 2348W        W 3345   1.430   6.008   3.840  0.2759  0.0766 -0.1197
 2349W        W 3346   3.204   5.497   4.499  0.0818  0.3792 -0.1533
 2350W        W 3347   3.941   2.878   1.255 -0.3492  0.0520  0.1501
 2351W        W 3348   5.615   6.056   5.979 -0.0209 -0.0548  0.1030
 2352W        W 3349   6.933   3.736   7.417  0.0486 -0.4717 -0.2096
 2353W        W 3350   3.694   2.837   2.737 -0.0513  0.2078  0.0690
 2354W        W 3351   6.718   4.142   7.607 -0.1906  0.0294  0.1091
 2355W        W 3352   1.025   4.996   5.523 -0.0445 -0.0266  0.1772
 2356W        W 3353   2.122   3.789   2.836 -0.0249  0.0838 -0.0728
 2357W        W 3354   6.257   2.571   4.465 -0.2328 -0.1416 -0.1185
 2358W        W 3355   3.814   0.298   0.678 -0.0923 -0.3717 -0.0256
 2359W        W 3356   1.163   1.504   4.889  0.2094  0.0981 -0.1579
 2360W        W 3357   6.324   6.664   0.244  0.3000  0.1731  0.2322
 2361W        W 3358   5.236   4.457   7.599  0.3161  0.0508 -0.2705
 2362W        W 3359   0.928   5.310   7.641  0.2270  0.0514  0.1454
 2363W        W 3360   5.709   0.904   6.531  0.5035  0.2495  0.3153
 2364W        W 3361   5.522   4.055   0.235  0.1480  0.0002 -0.1518
 2365W        W 3362   4.722   3.636   7.349  0.1039  0.2610 -0.0835
 2366W        W 3363   0.504   2.830   5.349  0.2031  0.1891 -0.4392
 2367W        W 3364   2.619   0.336   5.505 -0.1752  0.0330  0.0749
 2368W        W 3365   3.949   6.961   5.011 -0.1477 -0.0067 -0.1035
 2369W        W 3366   0.900   0.629   1.187 -0.1055 -0.3287 -0.0974
 2370W        W 3367   0.862   4.424   7.435  0.0148  0.3258  0.0694
 2371W        W 3368   6.797   6.909   1.216 -0.0718  0.1451  0.1658
 2372W        W 3369   4.698   5.137   0.084 -0.1517 -0.0704  0.1237
 2373W        W 3370   3.940   0.067   5.460 -0.3894 -0.1912 -0.3955
 2374W        W 3371   6.710   6.801   4.008 -0.0696 -0.0647  0.0057
 2375W        W 3372   4.932   0.482   6.288 -0.2222 -0.0574 -0.0699
 2376W        W 3373   4.273   3.262   6.000  0.2762 -0.0136  0.0317
 2377W        W 3374   0.658   1.225   4.191  0.0700  0.1089  0.1673
 2378W        W 3375   7.405   3.852   7.115  0.1226  0.1783 -0.0395
 2379W        W 3376   1.784   4.994   6.090  0.2191  0.1353 -0.0838
 2380W        W 3377   2.699   1.250   0.093 -0.2282  0.1373 -0.0218
 2381W        W 3378   7.245   2.736   0.113  0.0350 -0.0315  0.0294
 2382W        W 3379   7.164   3.105   4.992 -0.0695  0.1117  0.2883
 2383W        W 3380   4.841   5.961   2.431  0.1608 -0.1337 -0.2175
 2384W        W 3381   2.424   3.442   4.315  0.0612  0.1418 -0.0149
 2385W        W 3382   3.405   6.407   7.520  0.3119  0.0616  0.0793
 2386W        W 3383   4.241   2.594   6.201 -0.1919  0.3105 -0.0149
 2387W        W 3384   1.358   4.913   4.667 -0.0029  0.2478 -0.3407
 2388W        W 3385   1.543   3.621   3.589  0.0577  0.1030  0.2814
 2389W        W 3386   1.824   3.112   2.641 -0.0685 -0.0732  0.2680
 2390W        W 3387   5.497   0.275   7.425  0.0200  0.0771 -0.3434
 2391W        W 3388   6.911   3.008   0.502 -0.1533 -0.1630 -0.0376
 2392W        W 3389   1.862   5.448   0.660  0.0755  0.2625 -0.1164
 2393W        W 3390   3.973   5.896   1.822  0.1040 -0.1338  0.2149
 2394W        W 3391   5.038   7.426   6.856 -0.0861 -0.0037 -0.1972
 2395W        W 3392   6.258   5.883   7.110  0.0108  0.3266 -0.0457
 2396W        W 3393   7.164   0.898   7.538 -0.1101  0.1152  0.0504
 2397W        W 3394   0.575   1.939   7.402 -0.1938  0.1754  0.1189
 2398W        W 3395   7.169   5.957   5.131  0.1664  0.1116  0.1127
 2399W        W 3396   1.522   4.067   6.467  0.1651  0.1342  0.1052
 2400W        W 3397   3.035   5.124   4.914  0.0597 -0.0656  0.1064
 2401W        W 3398   1.057   4.603   2.793  0.2084 -0.2765 -0.3647
 2402W        W 3399   3.765   6.626   4.673 -0.2261 -0.1359  0.3201
 2403W        W 3400   4.247   3.701   3.814 -0.3235 -0.1193  0.1929
 2404W        W 3401   6.349   5.464   2.817  0.1247  0.1589  0.1534
 2405W        W 3402   3.127   0.827   0.390  0.1486  0.1993  0.1834
 2406W        W 3403   5.052   3.922   2.270 -0.0116 -0.0247  0.0850
 2407W        W 3404   1.596   0.310   7.183  0.1283  0.4628  0.1796
 2408W        W 3405   6.685   0.779   3.674  0.1916  0.0106 -0.5798
 2409W        W 3406   0.469   1.089   3.398  0.0282 -0.1520  0.0259
 2410W        W 3407   0.730   2.907   3.973  0.1551  0.1285  0.1540
 2411W        W 3408   1.011   5.436   1.603  0.0274  0.2932 -0.0447
 2412W        W 3409   3.199   1.097   4.612  0.1288 -0.2217  0.1158
 2413W        W 3410   5.383   0.549   6.198  0.0259  0.2430 -0.1232
 2414W        W 3411   5.289   2.196   7.078 -0.1226 -0.1097  0.0468
 2415W        W 3412   1.869   6.190   6.953  0.0174 -0.2101 -0.1640
 2416W        W 3413   4.182   4.303   2.073 -0.0184  0.0546 -0.0499
 2417W        W 3414   1.802   7.621   5.937  0.0039 -0.1376  0.1466
 2418W        W 3415   0.453   5.938   6.619 -0.1186 -0.1786  0.3103
 2419W        W 3416   4.758   2.217   7.095  0.1879  0.3971  0.0582
 2420W        W 3417   1.512   1.050   4.787 -0.1729  0.0260  0.2003
 2421W        W 3418   3.474   5.996   6.088  0.0179  0.0459 -0.1273
 2422W        W 3419   7.604   1.706   4.183 -0.1193  0.3559  0.0081
 2423W        W 3420   2.591   3.100   1.197 -0.0627  0.0631  0.1718
 2424W        W 3421   7.409   5.184   1.499 -0.1944  0.2833 -0.1205
 2425W        W 3422   7.402   0.435   0.769  0.0116  0.0769  0.1850
 2426W        W 3423   5.261   5.983   4.950  0.1388  0.1844 -0.0777
 2427W        W 3424   4.615   7.017   1.978  0.0614 -0.1879 -0.0793
 2428W        W 3425   4.706   5.873   0.964 -0.1396  0.0533  0.0923
 2429W        W 3426   0.292   7.468   7.012 -0.0111  0.0126 -0.0012
 2430W        W 3427   7.299   3.968   4.845  0.1253 -0.4158  0.1047
 2431W        W 3428   0.175   0.378   0.437  0.0353 -0.2453 -0.0254
 2432W        W 3429   2.608   2.490   4.990  0.1911  0.0715 -0.2474
 2433W        W 3430   3.541   1.298   5.261  0.0519  0.0707  0.0237
 2434W        W 3431   1.928   6.937   0.560 -0.1018  0.1410  0.1347
 2435W        W 3432   0.960   3.712   7.366 -0.0600 -0.0540 -0.0681
 2436W        W 3433   4.436   2.272   7.492  0.1584 -0.0612 -0.0668
 2437W        W 3434   1.390   3.851   2.256 -0.2080 -0.2599 -0.0130
 2438W        W 3435   3.678   4.302   3.411 -0.0729 -0.0251  0.1839
 2439W        W 3436   1.209   2.259   3.208 -0.1515  0.2938 -0.2284
 2440W        W 3437   0.241   6.674   4.143 -0.1347 -0.1660  0.2649
 2441W        W 3438   7.048   5.258   1.923  0.0150  0.0263  0.1806
 2442W        W 3439   6.968   3.699   1.064  0.0854 -0.2081  0.0149
 2443W        W 3440   4.479   0.994   4.640 -0.0716  0.0392 -0.0980
 2444W        W 3441   5.299   5.113   2.636  0.0095 -0.1005  0.0904
 2445W        W 3442   0.457   4.428   3.872  0.0435  0.1125  0.1647
 2446W        W 3443   2.636   6.973   5.960  0.0496 -0.2661  0.0874
 2447W        W 3444   5.042   2.794   5.783  0.0617  0.0673 -0.0652
 2448W        W 3445   6.035   4.792   3.379 -0.1103 -0.1208  0.2313
 2449W        W 3446   2.398   1.252   2.280  0.0210 -0.0509 -0.0135
 2450W        W 3447   5.978   1.096   7.011 -0.2680 -0.1273  0.0055
 2451W        W 3448   6.993   4.525   0.116  0.2717 -0.1512  0.0362
 2452W        W 3449   4.383   6.650   5.990 -0.0242  0.4382  0.1175
 2453W        W 3450   2.021   1.860   4.137 -0.1208  0.1487 -0.1550
 2454W        W 3451   6.580   5.282   0.350 -0.3790  0.3425 -0.1675
 2455W        W 3452   2.868   6.889   0.712 -0.2175  0.2998  0.0145
 2456W        W 3453   0.534   0.074   0.607 -0.0235 -0.3143  0.2147
 2457W        W 3454   4.904   0.302   4.017  0.2879 -0.0403  0.1756
 2458W        W 3455   2.786   2.814   1.722 -0.3684  0.2306  0.3534
 2459W        W 3456   4.894   4.167   4.412  0.0107 -0.1592  0.1559
 2460W        W 3457   3.071   3.391   5.147  0.3136  0.1278 -0.3726
 2461W        W 3458   1.937   4.115   7.255  0.1844 -0.2472  0.1444
 2462W        W 3459   5.935   5.869   4.345 -0.3581 -0.2905 -0.0503
 2463W        W 3460   2.989   5.638   5.654 -0.4325  0.3260  0.0782
 2464W        W 3461   6.400   3.951   6.224 -0.0520 -0.0197  0.0006
 2465W        W 3462   2.075   6.671   7.152  0.0224  0.2294 -0.0478
 2466W        W 3463   3.094   6.404   2.124  0.0542  0.2517 -0.4332
 2467W        W 3464   2.562   0.864   3.014 -0.2552 -0.0565 -0.0067
 2468W        W 3465   1.431   4.874   0.980 -0.0346 -0.2688  0.1119
 2469W        W 3466   6.459   5.217   1.389 -0.2435 -0.1283  0.2128
 2470W        W 3467   1.329   4.669   3.648  0.0376 -0.1983  0.0777
 2471W        W 3468   5.143   2.839   2.235  0.1342 -0.2852  0.0214
 2472W        W 3469   0.458   5.467   6.099  0.2998  0.4512  0.3762
 2473W        W 3470   5.948   3.848   0.448 -0.2176 -0.1361  0.0399
 2474W        W 3471   6.861   0.276   0.242  0.0044  0.0120  0.0746
 2475W        W 3472   4.011   4.873   4.895  0.0390 -0.0065 -0.0695
 2476W        W 3473   4.545   7.544   2.018  0.0584  0.5465  0.1814
 2477W        W 3474   6.331   5.058   7.523  0.1680 -0.0611  0.0068
 2478W        W 3475   1.810   0.876   2.697  0.3900  0.4716 -0.0139
 2479W        W 3476   1.807   0.879   5.648 -0.0657  0.0851  0.2600
 2480W        W 3477   4.658   1.716   6.913 -0.1591  0.0757  0.3458
 2481W        W 3478   5.279   6.947   5.880 -0.1910 -0.1267  0.0315
 2482W        W 3479   6.983   7.050   3.347 -0.2704  0.0362 -0.0636
 2483W        W 3480   5.623   2.887   0.428  0.2577 -0.1015 -0.0849
 2484W        W 3481   5.401   5.347   7.199 -0.3234 -0.0586  0.1428
 2485W        W 3482   5.079   6.819   2.364 -0.3076 -0.2652  0.1811
 2486W        W 3483   4.155   7.310   2.238  0.0582 -0.2711 -0.0849
 2487W        W 3484   1.409   2.721   3.305  0.4031  0.1818  0.2178
 2488W        W 3485   2.664   3.233   5.384  0.0620  0.0244  0.3312
 2489W        W 3486   5.918   6.364   3.695  0.0052 -0.4633  0.1491
 2490W        W 3487   5.629   5.788   2.076  0.0186  0.1460 -0.2358
 2491W        W 3488   5.787   5.432   3.780  0.2995  0.3038 -0.3261
 2492W        W 3489   2.020   4.561   1.971 -0.1106 -0.3205  0.3148
 2493W        W 3490   3.107   3.594   6.660  0.0218  0.0679  0.2151
 2494W        W 3491   3.333   5.085   0.508  0.1177  0.1389  0.1725
 2495W        W 3492   0.571   4.201   5.833  0.0784 -0.1208  0.0563
 2496W        W 3493   5.374   0.824   4.481 -0.1327  0.0077  0.1096
 2497W        W 3494   7.506   3.613   4.536  0.0678 -0.1978 -0.2947
 2498W        W 3495   0.707   1.229   6.635 -0.1185 -0.0695 -0.0396
 2499W        W 3496   7.560   5.858   7.095 -0.0583  0.0189 -0.0674
 2500W        W 3497   1.570   2.565   2.268  0.1519 -0.2600  0.0495
 2501W        W 3498   4.185   0.634   4.424  0.2452  0.2057  0.0389
 2502W        W 3499   6.744   0.713   6.855 -0.0097 -0.1986  0.2985
 2503W        W 3500   6.311   4.549   0.649  0.3487 -0.1799 -0.3546
 2504W        W 3501   1.427   6.056   7.254 -0.0322  0.2350 -0.0319
 2505W        W 3502   5.695   4.959   6.890 -0.0132  0.1084 -0.2563
 2506W        W 3503   5.925   3.900   7.600 -0.0139 -0.5783  0.1568
 2507W        W 3504   3.377   7.343   6.909  0.1866  0.1121  0.3732
 2508W        W 3505   6.327   4.579   3.950  0.0438 -0.0925 -0.0105
 2509W        W 3506   6.832   0.567   7.317  0.1560 -0.0339  0.0495
 2510W        W 3507   0.940   4.604   3.982  0.0609  0.0187  0.1855
 2511W        W 3508   1.310   6.221   1.059  0.1971  0.2280 -0.0249
 2512W        W 3509   7.106   1.445   7.441  0.0781  0.1050  0.1292
 2513W        W 3510   3.791   7.574   2.019  0.3552 -0.0556  0.1561
 2514W        W 3511   2.974   1.450   2.623  0.3371 -0.1379 -0.0895
 2515W        W 3512   7.456   0.848   7.067  0.1717 -0.3824 -0.3283
 2516W        W 3513   7.065   7.170   4.924 -0.0459 -0.0451  0.3058
 2517W        W 3514   1.838   4.954   0.588 -0.0592 -0.1925 -0.3628
 2518W        W 3515   1.137   4.671   2.014 -0.1681  0.0579 -0.1581
 2519W        W 3516   6.996   1.731   4.442  0.3680  0.1346  0.3681
 2520W        W 3517   2.180   0.315   2.675  0.0085 -0.2074  0.4433
 2521W        W 3518   4.844   1.221   6.842  0.1611  0.0155  0.1794
 2522W        W 3519   6.851   2.020   0.660  0.0537  0.0238 -0.0625
 2523W        W 3520   2.843   4.174   1.687 -0.1072 -0.1457 -0.0100
 2524W        W 3521   6.296   4.878   4.402 -0.1288 -0.1372 -0.0246
 2525W        W 3522   0.715   3.376   0.346 -0.1856 -0.1963  0.0844
 2526W        W 3523   2.685   5.010   4.353 -0.0351 -0.1166 -0.1481
 2527W        W 3524   5.931   1.685   5.335 -0.1108  0.1077 -0.3034
 2528W        W 3525   3.176   1.139   4.066 -0.1126  0.2030 -0.0532
 2529W        W 3526   3.990   4.832   6.707 -0.0836  0.1195 -0.0237
 2530W        W 3527   4.705   3.365   4.231  0.2408 -0.0910  0.0561
 2531W        W 3528   7.401   3.060   0.523  0.0616  0.2633 -0.0440
 2532W        W 3529   4.681   4.162   7.507  0.1651 -0.1142 -0.0702
 2533W        W 3530   6.981   7.477   3.619 -0.1298  0.4649  0.0507
 2534W        W 3531   3.358   3.132   7.151  0.1423  0.3442 -0.0551
 2535W        W 3532   6.560   7.225   7.155 -0.1114 -0.1083 -0.1334
 2536W        W 3533   7.406   2.293   7.529 -0.1550 -0.0353 -0.1048
 2537W        W 3534   3.965   1.643   0.855 -0.2407 -0.4016 -0.0617
 2538W        W 3535   0.976   1.594   5.611  0.0938 -0.1532 -0.0359
 2539W        W 3536   5.369   3.139   0.812 -0.0992  0.0576  0.2721
 2540W        W 3537   5.458   7.009   3.146  0.3184 -0.0603 -0.1546
 2541W        W 3538   2.651   2.504   4.195  0.0696  0.2949  0.2117
 2542W        W 3539   4.293   0.060   0.754  0.2951 -0.0786 -0.0953
 2543W        W 3540   7.624   6.631   6.091 -0.2795  0.2409  0.0500
 2544W        W 3541   5.792   3.819   1.633  0.1218 -0.0421 -0.0579
 2545W        W 3542   7.003   4.698   4.998 -0.0776 -0.0512  0.2139
 2546W        W 3543   2.128   3.321   5.186 -0.0691  0.3177 -0.2396
 2547W        W 3544   5.630   7.110   6.200  0.0527 -0.6403  0.2563
 2548W        W 3545   0.972   0.512   5.874 -0.1014  0.2118 -0.3527
 2549W        W 3546   5.819   0.763   7.477  0.2810  0.0089 -0.0112
 2550W        W 3547   0.988   4.385   5.145 -0.0744  0.0942 -0.0009
 2551W        W 3548   2.790   2.023   5.878  0.0883 -0.0820  0.0293
 2552W        W 3549   6.193   3.003   7.490 -0.1179 -0.1348 -0.2255
 2553W        W 3550   3.430   6.627   5.011 -0.2049 -0.3241 -0.0818
 2554W        W 3551   6.039   7.238   6.536  0.1123  0.3593  0.1579
 2555W        W 3552   6.919   5.647   5.400 -0.2910  0.0260  0.3974
 2556W        W 3553   0.759   0.712   5.458 -0.0242  0.1016  0.0780
 2557W        W 3554   2.154   4.566   6.013  0.1415 -0.0503  0.0616
 2558W        W 3555   2.160   3.779   2.146  0.1128 -0.0259  0.1300
 2559W        W 3556   4.251   6.211   1.543 -0.2331  0.0349  0.2655
 2560W        W 3557   4.244   4.798   2.928 -0.0193  0.2001 -0.1579
 2561W        W 3558   3.608   6.933   5.930  0.0620  0.1430 -0.2424
 2562W        W 3559   3.357   2.028   3.072 -0.1057 -0.3177  0.2327
 2563W        W 3560   5.744   5.976   5.199 -0.1640 -0.0943 -0.1386
 2564W        W 3561   4.720   2.227   1.354 -0.0943 -0.3896 -0.2126
 2565W        W 3562   6.229   5.756   6.120  0.1534 -0.0018  0.0137
 2566W        W 3563   5.907   7.547   6.128  0.1888  0.2099 -0.1501
 2567W        W 3564   3.782   1.857   4.095  0.3030  0.2065 -0.1301
 2568W        W 3565   7.063   0.826   6.512 -0.0232 -0.0654  0.0776
 2569W        W 3566   3.144   4.446   6.285  0.0629 -0.2166 -0.1185
 2570W        W 3567   0.223   7.248   4.312 -0.1207 -0.2458  0.2958
 2571W        W 3568   3.350   1.908   4.459  0.0912 -0.0182 -0.0650
 2572W        W 3569   4.896   6.707   6.028  0.0685 -0.0253 -0.3181
 2573W        W 3570   6.417   0.282   0.038 -0.0127  0.1939 -0.2458
 2574W        W 3571   5.790   4.342   1.564  0.0321  0.0382  0.2205
 2575W        W 3572   6.715   7.113   5.813 -0.0791 -0.0917 -0.3537
 2576W        W 3573   7.119   0.412   6.976 -0.2078 -0.0551 -0.2348
 2577W        W 3574   1.244   1.644   0.492  0.3170  0.0826  0.1300
 2578W        W 3575   4.245   1.726   6.543 -0.2591  0.0975  0.2343
 2579W        W 3576   0.596   2.685   6.110 -0.1729 -0.2096 -0.0326
 2580W        W 3577   1.728   4.811   6.839  0.1651  0.3171 -0.1703
 2581W        W 3578   3.965   5.526   1.474  0.1316  0.2312  0.2826
 2582W        W 3579   6.388   6.582   5.124  0.1569  0.4733 -0.0281
 2583W        W 3580   0.342   0.945   6.960  0.0441 -0.1809  0.0983
 2584W        W 3581   1.149   3.313   1.653  0.1464  0.0453  0.2942
 2585W        W 3582   2.652   0.247   7.520  0.1060 -0.1224  0.0737
 2586W        W 3583   4.498   4.540   1.238  0.1213 -0.3082  0.0361
 2587W        W 3584   0.129   6.226   7.400  0.2679 -0.2541 -0.1611
 2588W        W 3585   3.800   1.455   0.156  0.0422 -0.0687  0.1306
 2589W        W 3586   2.873   4.291   6.733 -0.0246 -0.0605  0.3423
 2590W        W 3587   6.639   6.355   3.041 -0.0348  0.0522 -0.0206
 2591W        W 3588   5.439   4.395   4.417  0.1914 -0.2755  0.4472
 2592W        W 3589   5.115   5.579   1.159  0.0903 -0.0398 -0.2807
 2593W        W 3590   6.852   5.480   7.634 -0.2203  0.1714 -0.0439
 2594W        W 3591   6.858   0.090   4.220  0.1823  0.1572  0.3723
 2595W        W 3592   3.816   7.433   0.598  0.0285  0.0768  0.2410
 2596W        W 3593   3.481   1.357   7.372 -0.1469  0.0921  0.0191
 2597W        W 3594   4.973   6.720   4.405 -0.1077  0.1116  0.0896
 2598W        W 3595   2.434   4.832   2.212  0.1594 -0.0835  0.0743
 2599W        W 3596   1.429   2.039   2.379  0.3012 -0.0973  0.2495
 2600W        W 3597   5.708   1.555   3.218 -0.1370  0.1489  0.0389
 2601W        W 3598   6.199   4.574   5.807  0.1317 -0.2217 -0.0821
 2602W        W 3599   0.179   3.248   0.749  0.0456 -0.2377  0.1042
 2603W        W 3600   2.085   7.328   1.712 -0.1794  0.0372  0.0064
 2604W        W 3601   7.609   5.372   7.244  0.1129  0.0318  0.1390
 2605W        W 3602   1.489   5.179   5.322 -0.3831 -0.0364  0.1234
 2606W        W 3603   2.225   2.972   4.188 -0.0728 -0.2575  0.1581
 2607W        W 3604   3.278   2.687   1.919  0.1805 -0.2994 -0.1131
 2608W        W 3605   3.035   0.801   3.377 -0.0681  0.0788  0.1114
 2609W        W 3606   0.600   3.295   7.035  0.0747 -0.0125 -0.1133
 2610W        W 3607   2.811   3.400   4.676 -0.1742 -0.0772 -0.0506
 2611W        W 3608   0.886   2.647   3.345 -0.2240  0.0660 -0.2230
 2612W        W 3609   3.629   3.004   0.842 -0.0666  0.1470  0.2010
 2613W        W 3610   2.644   1.535   1.392 -0.0758 -0.5734 -0.1675
 2614W        W 3611   0.798   5.615   2.913  0.1511 -0.3888  0.2438
 2615W        W 3612   7.336   2.007   0.654 -0.1594 -0.1393  0.1651
 2616W        W 3613   1.940   2.227   2.124 -0.2138 -0.2082 -0.3775
 2617W        W 3614   5.463   5.309   2.127 -0.0309 -0.0405 -0.1013
 2618W        W 3615   3.814   7.422   5.876 -0.0672  0.2103 -0.1395
 2619W        W 3616   5.837   7.233   5.637 -0.0632 -0.0332 -0.1961
 2620W        W 3617   6.476   4.471   4.719 -0.1045 -0.0343  0.2387
 2621W        W 3618   1.386   5.500   6.941 -0.0536  0.1031 -0.0462
 2622W        W 3619   7.093   2.914   1.017 -0.2725 -0.0280 -0.0791
 2623W        W 3620   3.726   7.011   5.443  0.1835  0.2921 -0.2967
 2624W        W 3621   1.961   2.430   1.585  0.1239  0.0242  0.0084
 2625W        W 3622   1.740   5.891   5.921 -0.0553  0.3571 -0.0804
 2626W        W 3623   0.700   7.211   0.549 -0.0075  0.0233  0.1046
 2627W        W 3624   1.553   7.544   0.360 -0.1648 -0.0132  0.2627
 2628W        W 3625   4.268   7.220   3.675 -0.0717  0.0348  0.0481
 2629W        W 3626   6.705   5.787   0.677  0.2401 -0.0867  0.1971
 2630W        W 3627   4.825   5.709   6.012  0.0264 -0.1474  0.1773
 2631W        W 3628   7.116   4.258   5.864  0.0578  0.0875 -0.1416
 2632W        W 3629   3.226   2.203   2.120 -0.0411  0.2822  0.2544
 2633W        W 3630   6.749   3.407   4.979  0.3964  0.1241 -0.3514
 2634W        W 3631   4.268   1.945   7.118 -0.2962  0.1822  0.0900
 2635W        W 3632   5.021   5.984   7.505 -0.1633  0.0305 -0.0180
 2636W        W 3633   6.071   3.409   0.097  0.1681 -0.1553  0.2312
 2637W        W 3634   6.066   7.400   2.967 -0.0506 -0.1110 -0.0240
 2638W        W 3635   4.011   6.464   2.018 -0.0138 -0.1241 -0.1363
 2639W        W 3636   5.383   1.519   4.131  0.2056  0.1064 -0.0521
 2640W        W 3637   7.539   4.070   0.389 -0.2959  0.1794  0.1199
 2641W        W 3638   0.479   0.796   5.944  0.5021  0.2112 -0.4540
 2642W        W 3639   0.840   1.512   0.866  0.1611  0.2525  0.3275
 2643W        W 3640   5.668   0.091   2.849 -0.1884 -0.0540 -0.2140
 2644W        W 3641   5.579   3.519   0.048  0.0917 -0.0402  0.0575
 2645W        W 3642   2.779   2.228   3.589 -0.3158 -0.0364 -0.0204
 2646W        W 3643   2.607   3.597   1.130 -0.5224  0.1806  0.1751
 2647W        W 3644   2.128   2.336   5.297  0.0851 -0.1527 -0.3842
 2648W        W 3645   1.795   2.372   0.389  0.1780  0.1399 -0.4692
 2649W        W 3646   2.215   2.280   1.168  0.2902  0.0352 -0.0070
 2650W        W 3647   2.706   4.966   6.736  0.0031 -0.0673  0.2059
 2651W        W 3648   7.341   5.392   0.052 -0.3195  0.0838  0.0126
 2652W        W 3649   0.436   6.423   5.843 -0.0458  0.1633  0.0409
 2653W        W 3650   0.300   5.920   5.613 -0.1835 -0.0186 -0.0304
 2654W        W 3651   3.254   5.534   6.057 -0.0959 -0.3250  0.2914
 2655W        W 3652   3.278   1.628   2.137 -0.0462 -0.1561  0.2692
 2656W        W 3653   2.832   0.099   2.112  0.5049  0.0783  0.0809
 2657W        W 3654   6.382   0.262   6.348 -0.0413 -0.1793 -0.1840
 2658W        W 3655   3.070   0.542   2.977  0.1039 -0.0575  0.1539
 2659W        W 3656   1.200   2.502   4.155  0.0284 -0.1023  0.0800
 2660W        W 3657   6.752   2.966   6.295 -0.2763 -0.0098  0.0403
 2661W        W 3658   4.473   0.537   0.819  0.0812 -0.2558  0.0681
 2662W        W 3659   7.344   5.310   5.410 -0.2209 -0.1922 -0.0722
 2663W        W 3660   3.719   0.644   6.696 -0.0865 -0.1508  0.0881
 2664W        W 3661   5.538   3.676   4.035  0.1505  0.0691 -0.1649
 2665W        W 3662   5.726   1.194   2.841  0.0967 -0.2411 -0.3443
 2666W        W 3663   5.955   1.302   4.963 -0.2131  0.1748 -0.1748
 2667W        W 3664   1.479   3.778   6.037  0.1162  0.2695 -0.0323
 2668W        W 3665   3.358   2.493   5.822 -0.0808 -0.0045 -0.2146
 2669W        W 3666   5.267   3.225   0.336  0.2786  0.0192  0.0165
 2670W        W 3667   3.474   4.793   4.990  0.3196 -0.0716  0.2070
 2671W        W 3668   4.864   7.149   4.193 -0.2363 -0.0720  0.2527
 2672W        W 3669   2.834   6.322   0.287  0.2362  0.2299  0.0971
 2673W        W 3670   3.953   6.975   1.887  0.2869  0.1939  0.0968
 2674W        W 3671   0.875   1.455   1.742 -0.0646  0.0127  0.1616
 2675W        W 3672   7.113   3.279   0.063  0.0488 -0.0797 -0.2038
 2676W        W 3673   5.724   4.384   6.058  0.0766  0.2877  0.2466
 2677W        W 3674   0.804   2.233   1.204 -0.2559 -0.0102 -0.3275
 2678W        W 3675   7.390   0.413   7.400 -0.1065 -0.1295 -0.0272
 2679W        W 3676   6.819   1.252   6.609  0.1916 -0.2644  0.3283
 2680W        W 3677   7.117   3.419   6.346  0.0630 -0.1861  0.3184
 2681W        W 3678   6.305   2.015   5.320 -0.0435  0.2792  0.1756
 2682W        W 3679   4.274   4.902   5.333  0.1039 -0.1914 -0.2465
 2683W        W 3680   4.497   4.284   4.675 -0.1781  0.3150  0.0154
 2684W        W 3681   2.616   5.512   1.895  0.0613 -0.1032  0.3798
 2685W        W 3682   6.553   5.454   7.114 -0.1825 -0.2583  0.1309
 2686W        W 3683   0.411   6.996   7.019  0.2106  0.2519  0.0362
 2687W        W 3684   3.171   3.327   6.231  0.2062  0.1398  0.0479
 2688W        W 3685   6.896   7.396   1.243  0.1432  0.2027 -0.0235
 2689W        W 3686   5.191   5.339   5.878 -0.0200  0.0509  0.0779
 2690W        W 3687   5.927   5.293   0.746  0.2267 -0.1441  0.4019
 2691W        W 3688   2.653   5.052   3.285  0.1794  0.0639 -0.1449
 2692W        W 3689   6.406   3.760   1.249  0.2113  0.0814  0.1165
 2693W        W 3690   1.449   6.477   3.661  0.0254 -0.0173  0.2196
 2694W        W 3691   1.180   5.415   4.596  0.1940  0.2086 -0.0554
 2695W        W 3692   1.842   2.686   4.441  0.1587 -0.0968  0.1550
 2696W        W 3693   5.580   4.480   4.974  0.2754 -0.1387 -0.1726
 2697W        W 3694   0.933   2.378   5.946  0.0986 -0.2102  0.1474
 2698W        W 3695   3.975   2.134   6.284 -0.3546 -0.3442 -0.0895
 2699W        W 3696   7.617   5.784   4.240 -0.3620 -0.2520  0.1775
 2700W        W 3697   1.055   3.398   4.836  0.1576 -0.1018  0.1944
 2701W        W 3698   1.042   2.308   2.021  0.1984 -0.1946  0.0466
 2702W        W 3699   2.119   4.854   0.958  0.2776  0.0421  0.5293
 2703W        W 3700   4.589   6.920   5.123  0.1054  0.0788 -0.1911
 2704W        W 3701   1.522   0.708   5.118 -0.0041  0.3026  0.0070
 2705W        W 3702   1.036   5.664   1.177 -0.0757 -0.1936 -0.0002
 2706W        W 3703   1.582   1.497   2.942  0.0411 -0.0293 -0.1434
 2707W        W 3704   3.405   3.567   3.353  0.2857 -0.0702 -0.0533
 2708W        W 3705   2.691   7.438   6.336 -0.1691 -0.0654  0.1393
 2709W        W 3706   5.651   4.482   2.026 -0.0653 -0.0855  0.1742
 2710W        W 3707   1.368   3.203   5.153 -0.0730 -0.3292  0.2046
 2711W        W 3708   4.180   4.258   7.407  0.0740 -0.2082 -0.1598
 2712W        W 3709   6.838   0.243   6.588 -0.1205 -0.2590  0.0939
 2713W        W 3710   1.768   5.504   1.687 -0.0682  0.1978 -0.3509
 2714W        W 3711   7.119   1.956   5.668 -0.0581 -0.1569 -0.1126
 2715W        W 3712   0.402   0.207   5.291  0.1367  0.1136 -0.1269
 2716W        W 3713   5.517   4.812   7.391  0.0182 -0.0945  0.2486
 2717W        W 3714   3.780   7.443   4.539 -0.3246 -0.0019  0.1566
 2718W        W 3715   6.819   6.148   4.697  0.1437  0.2187 -0.2473
 2719W        W 3716   2.266   5.261   6.092 -0.2825 -0.1632  0.1821
 2720W        W 3717   4.544   6.085   0.033 -0.0157  0.1931 -0.3035
 2721W        W 3718   0.990   3.008   6.204  0.1771 -0.0680  0.0484
 2722W        W 3719   3.483   4.766   0.136 -0.0036  0.1676 -0.1261
 2723W        W 3720   0.337   6.252   1.395  0.0399  0.0026  0.0784
 2724W        W 3721   2.693   1.603   0.510  0.0597 -0.0527 -0.0208
 2725W        W 3722   1.061   3.122   3.236 -0.2237 -0.0766  0.1302
 2726W        W 3723   6.413   0.406   3.484  0.0341 -0.3270 -0.1263
 2727W        W 3724   7.590   7.015   7.560 -0.0129 -0.0434 -0.2405
 2728W        W 3725   2.669   4.585   2.598 -0.0660 -0.1161  0.0008
 2729W        W 3726   3.942   5.964   3.385 -0.1995 -0.0868  0.2260
 2730W        W 3727   1.547   0.876   2.224 -0.2391  0.0290  0.2181
 2731W        W 3728   7.205   4.287   1.646  0.1938 -0.0505  0.0112
 2732W        W 3729   2.693   2.966   4.438  0.1224 -0.1238  0.2163
 2733W        W 3730   1.175   7.218   0.176 -0.0610 -0.1399 -0.0810
 2734W        W 3731   5.644   0.894   5.875 -0.1842 -0.0627  0.2875
 2735W        W 3732   6.346   7.152   4.956  0.0546  0.2252  0.0703
 2736W        W 3733   7.186   2.622   6.322  0.1115  0.2854 -0.2169
 2737W        W 3734   0.392   5.327   0.290  0.2157  0.0201 -0.0187
 2738W        W 3735   7.077   7.573   0.571  0.0906  0.2466  0.1943
 2739W        W 3736   4.929   2.737   1.163 -0.1066  0.0336 -0.0706
 2740W        W 3737   2.174   5.698   0.078 -0.1340 -0.0921 -0.0183
 2741W        W 3738   1.933   4.446   3.009  0.0305  0.0764 -0.1080
 2742W        W 3739   4.687   6.704   1.345 -0.3550 -0.0359 -0.2311
 2743W        W 3740   7.227   4.314   4.421  0.3452 -0.1457 -0.0927
 2744W        W 3741   0.042   5.660   5.952  0.0023  0.1342 -0.1623
 2745W        W 3742   4.360   5.329   5.538 -0.4080 -0.0141 -0.1365
 2746W        W 3743   1.878   1.713   7.620 -0.0889 -0.1537  0.0428
 2747W        W 3744   1.484   5.551   4.173  0.1119  0.1498 -0.4295
 2748W        W 3745   2.901   1.995   2.408 -0.0656 -0.0003  0.2925
 2749W        W 3746   5.864   5.307   4.333  0.1714  0.1786 -0.3346
 2750W        W 3747   0.603   4.129   5.322  0.3184  0.1853 -0.1961
 2751W        W 3748   7.565   4.400   4.987 -0.0147  0.1962 -0.3098
 2752W        W 3749   5.027   0.040   3.532  0.0967  0.1114 -0.2834
 2753W        W 3750   3.520   4.807   3.987  0.1403 -0.0390  0.2856
 2754W        W 3751   2.648   6.735   6.414 -0.0780 -0.1464 -0.2380
 2755W        W 3752   1.785   5.601   4.981  0.2240  0.0452  0.0157
 2756W        W 3753   4.323   4.350   3.160  0.2705 -0.0103  0.0894
 2757W        W 3754   6.945   7.371   2.865 -0.2288  0.1396 -0.1509
 2758W        W 3755   4.485   6.327   3.943  0.1107  0.0954 -0.2714
 2759W        W 3756   1.421   2.281   5.889 -0.2283 -0.1707 -0.0986
 2760W        W 3757   7.059   5.483   0.462 -0.0727 -0.2948 -0.3831
 2761W        W 3758   7.187   6.977   6.444  0.2499  0.0244  0.0433
 2762W        W 3759   6.525   7.413   6.616 -0.1095  0.1058 -0.1417
 2763W        W 3760   4.229   4.618   4.487  0.0918  0.1258  0.0349
 2764W        W 3761   5.461   1.654   6.259 -0.1952 -0.2724  0.0451
 2765W        W 3762   2.323   5.378   4.138  0.1386  0.2322 -0.0831
 2766W        W 3763   0.383   7.260   7.496 -0.0153  0.2748 -0.0823
 2767W        W 3764   5.173   3.603   1.095  0.0043 -0.1852 -0.0275
 2768W        W 3765   3.703   5.133   2.215  0.1356  0.0243 -0.0115
 2769W        W 3766   1.841   5.535   1.163 -0.0873 -0.0332 -0.2448
 2770W        W 3767   5.512   4.883   4.125 -0.0583  0.4301 -0.1285
 2771W        W 3768   2.289   3.759   7.081  0.1187 -0.1746 -0.2002
 2772W        W 3769   7.138   5.486   7.166  0.0796  0.3761  0.0494
 2773W        W 3770   2.204   4.318   5.023  0.0036 -0.1349  0.1024
 2774W        W 3771   1.696   0.740   0.904 -0.2065 -0.1377 -0.1998
 2775W        W 3772   5.861   5.500   2.491  0.1391  0.1800 -0.0564
 2776W        W 3773   4.116   4.311   6.905  0.0002 -0.1860 -0.1256
 2777W        W 3774   1.285   0.465   0.838  0.0293 -0.0123  0.0446
 2778W        W 3775   2.255   1.858   5.557 -0.1434  0.0089 -0.0827
 2779W        W 3776   5.596   7.634   0.356 -0.1370  0.1842  0.2775
 2780W        W 3777   4.433   5.844   5.370  0.4449 -0.0903  0.1517
 2781W        W 3778   3.335   0.132   2.025 -0.0366 -0.1884 -0.4127
 2782W        W 3779   2.470   0.066   1.712 -0.0952 -0.2276  0.2392
 2783W        W 3780   4.256   6.611   4.853 -0.0304 -0.1000 -0.2487
 2784W        W 3781   2.947   2.869   0.841  0.2389 -0.3329 -0.1669
 2785W        W 3782   4.927   5.698   4.742 -0.2331  0.1189  0.0400
 2786W        W 3783   0.925   6.495   0.791  0.0174 -0.0497 -0.2375
 2787W        W 3784   1.369   4.529   7.368  0.1420  0.0646  0.1655
 2788W        W 3785   7.377   0.193   6.610 -0.0149 -0.2771  0.0067
 2789W        W 3786   0.431   3.578   7.459 -0.0538  0.2045  0.3127
 2790W        W 3787   2.614   1.571   5.830 -0.0702  0.1821  0.1971
 2791W        W 3788   7.220   5.919   2.536 -0.0259 -0.0985 -0.2724
 2792W        W 3789   1.241   1.927   1.067 -0.0689  0.1933  0.1967
 2793W        W 3790   4.007   2.919   4.842  0.0041 -0.3303  0.0718
 2794W        W 3791   0.636   2.540   4.880  0.1357 -0.1640  0.2825
 2795W        W 3792   1.749   4.553   4.866  0.1065 -0.2211 -0.1045
 2796W        W 3793   4.938   5.428   2.780  0.0593 -0.5638 -0.0353
 2797W        W 3794   5.584   6.877   5.334  0.2965  0.2572  0.2644
 2798W        W 3795   5.908   2.834   4.200 -0.0907  0.0105 -0.0343
 2799W        W 3796   3.329   4.242   0.792 -0.0718 -0.3153 -0.2819
 2800W        W 3797   4.360   5.568   4.700 -0.2964 -0.3458 -0.0994
 2801W        W 3798   3.450   6.229   1.155 -0.1699  0.2681 -0.3041
 2802W        W 3799   1.669   4.072   3.195 -0.2456  0.0341  0.1792
 2803W        W 3800   3.666   1.044   0.427 -0.2766  0.1009  0.2480
 2804W        W 3801   2.525   5.378   0.008  0.0286 -0.0957  0.1008
 2805W        W 3802   0.344   6.986   5.790 -0.3220  0.1874  0.0839
 2806W        W 3803   0.886   5.201   4.151  0.0629  0.3688  0.1124
 2807W        W 3804   3.572   3.626   6.897  0.1169  0.4894  0.0907
 2808W        W 3805   3.267   2.292   0.260  0.1688 -0.0077  0.2360
 2809W        W 3806   5.044   5.177   4.862 -0.1297  0.1897  0.0283
 2810W        W 3807   7.370   1.553   5.702 -0.0977  0.1330 -0.1312
 2811W        W 3808   5.921   5.725   2.942  0.0864 -0.0702 -0.1360
 2812W        W 3809   3.621   2.660   4.021  0.0070  0.1108  0.1751
 2813W        W 3810   3.254   3.355   1.733 -0.1061  0.0882  0.0403
 2814W        W 3811   4.933   6.152   4.060 -0.1582  0.2764  0.5200
 2815W        W 3812   3.599   0.825   7.503  0.1799 -0.1293 -0.1957
 2816W        W 3813   0.894   5.786   6.780  0.1295 -0.1159  0.1587
 2817W        W 3814   5.340   5.693   6.212 -0.0773  0.1532  0.2506
 2818W        W 3815   6.549   3.773   2.659 -0.2541 -0.0038 -0.1890
 2819W        W 3816   3.472   7.489   7.369 -0.3147  0.2347 -0.0644
 2820W        W 3817   1.760   6.893   1.738 -0.2011  0.0068 -0.0485
 2821W        W 3818   5.494   5.508   2.903 -0.0583 -0.2946 -0.2694
 2822W        W 3819   0.973   2.887   5.133 -0.1775 -0.1710  0.2253
 2823W        W 3820   2.653   6.259   6.502 -0.1659  0.4398  0.1282
 2824W        W 3821   3.372   1.814   2.602 -0.0418  0.4245 -0.2238
 2825W        W 3822   1.382   1.590   2.483 -0.0599  0.2194  0.3044
 2826W        W 3823   2.555   4.779   0.596 -0.1026 -0.1022  0.0098
 2827W        W 3824   4.005   4.633   4.013  0.2164  0.1974  0.1409
 2828W        W 3825   0.719   2.993   6.652 -0.2561  0.1539  0.0701
 2829W        W 3826   6.490   1.080   4.802 -0.0505  0.3088  0.3309
 2830W        W 3827   6.766   3.171   6.799 -0.1188 -0.1079  0.4653
 2831W        W 3828   0.213   7.029   5.225 -0.2251  0.1205 -0.1127
 2832W        W 3829   3.907   7.108   6.272 -0.1578  0.1167  0.0650
 2833W        W 3830   3.151   1.156   5.987 -0.0821 -0.0990 -0.1823
 2834W        W 3831   5.650   3.363   1.149 -0.1633 -0.1917  0.0204
 2835W        W 3832   6.520   4.552   7.364 -0.0865 -0.3218 -0.2609
 2836W        W 3833   5.796   1.132   5.433 -0.2611 -0.2808 -0.1450
 2837W        W 3834   1.448   3.075   4.609  0.2230  0.2118  0.1313
 2838W        W 3835   5.553   3.973   5.689  0.1195  0.2158  0.0198
 2839W        W 3836   3.630   5.607   5.186  0.0981  0.3251  0.0287
 2840W        W 3837   4.678   5.459   5.117 -0.0560  0.0245 -0.1470
 2841W        W 3838   1.684   3.644   5.142  0.1588 -0.1269 -0.2316
 2842W        W 3839   2.361   4.588   7.284  0.0253 -0.1004 -0.0723
 2843W        W 3840   1.019   4.760   0.613 -0.1539  0.0412 -0.2011
 2844W        W 3841   7.108   1.010   4.760 -0.1398 -0.2199  0.2102
 2845W        W 3842   4.326   3.264   0.033  0.1108 -0.1278  0.1150
 2846W        W 3843   2.246   0.367   0.058 -0.3687 -0.1815 -0.1937
 2847W        W 3844   3.673   6.101   4.336  0.0468  0.1915  0.2381
 2848W        W 3845   0.987   1.834   3.077  0.0858  0.2284 -0.0012
 2849W        W 3846   4.603   3.642   6.010 -0.0133  0.0693  0.0100
 2850W        W 3847   7.147   4.143   3.952  0.0011 -0.1173  0.2597
 2851W        W 3848   5.476   1.278   4.987  0.0233  0.0064  0.0197
 2852W        W 3849   0.803   5.196   0.536 -0.0986  0.0572  0.1263
 2853W        W 3850   1.180   4.391   5.612 -0.2589 -0.0771  0.3530
 2854W        W 3851   6.132   1.628   6.220  0.2758  0.1721 -0.0735
 2855W        W 3852   4.955   5.651   2.049 -0.2810 -0.0891 -0.0977
 2856W        W 3853   5.716   6.239   4.733  0.1479  0.0361 -0.0640
 2857W        W 3854   1.158   2.740   6.866 -0.2751  0.2866  0.2233
 2858W        W 3855   7.421   0.908   6.209  0.0535  0.1288  0.2350
 2859W        W 3856   6.479   3.531   5.912 -0.1962 -0.1021 -0.1303
 2860W        W 3857   6.630   5.377   5.700  0.2547 -0.2108  0.2415
 2861W        W 3858   6.120   0.529   5.122  0.0060 -0.2960  0.0590
 2862W        W 3859   6.211   7.543   7.383  0.1942 -0.0596  0.1257
 2863W        W 3860   6.695   2.254   5.765 -0.0370  0.2280 -0.1014
 2864W        W 3861   2.764   3.848   7.010  0.2252 -0.1419  0.0191
 2865W        W 3862   6.524   4.942   4.929 -0.2032 -0.1598  0.0172
 2866W        W 3863   6.394   1.507   6.708  0.4048  0.2333  0.0320
 2867W        W 3864   1.524   6.889   0.222 -0.0922 -0.3054  0.0110
 2868W        W 3865   1.029   3.949   5.805  0.0291  0.0725 -0.1161
 2869W        W 3866   5.955   6.888   3.042  0.0257  0.2382 -0.2414
 2870W        W 3867   3.011   4.774   4.087 -0.1144  0.1525  0.2341
 2871W        W 3868   5.928   7.022   1.528  0.0848  0.2126 -0.0003
 2872W        W 3869   5.741   2.541   5.831 -0.0630  0.0483  0.2421
 2873W        W 3870   1.909   2.166   3.752 -0.2363 -0.0678 -0.1224
 2874W        W 3871   4.733   3.548   5.338 -0.1502  0.3975  0.0816
 2875W        W 3872   4.209   3.273   1.477 -0.0640 -0.1597 -0.1771
 2876W        W 3873   7.010   3.725   1.792  0.0116 -0.2813  0.0259
 2877W        W 3874   1.266   2.987   7.552 -0.0814  0.0415  0.0316
 2878W        W 3875   3.030   2.214   0.911 -0.0816  0.4386 -0.0077
 2879W        W 3876   1.107   4.280   6.148 -0.0426  0.1560 -0.3540
 2880W        W 3877   1.265   3.512   2.662  0.1244  0.2336  0.0054
 2881W        W 3878   6.938   0.261   0.892 -0.0231  0.0625 -0.0503
 2882W        W 3879   1.761   4.835   3.302  0.1137 -0.0825  0.1980
 2883W        W 3880   5.357   5.107   0.897  0.2853 -0.0401  0.3955
 2884W        W 3881   1.759   7.129   5.881  0.1463  0.1426  0.2840
 2885W        W 3882   4.157   6.212   5.162  0.0546  0.1375 -0.1650
 2886W        W 3883   6.234   6.584   4.050 -0.4955  0.2141 -0.0350
 2887W        W 3884   6.787   1.277   4.358  0.2264 -0.0743  0.0289
 2888W        W 3885   3.815   6.115   5.510 -0.2417 -0.0230  0.0439
 2889W        W 3886   1.869   1.225   2.325 -0.0475  0.2010  0.0669
 2890W        W 3887   4.833   2.338   0.835  0.0018 -0.1897  0.0796
 2891W        W 3888   3.876   7.351   0.096  0.1547 -0.0633  0.3276
 2892W        W 3889   6.093   1.533   3.547  0.0677 -0.1104 -0.5186
 2893W        W 3890   1.797   4.503   5.482 -0.1851 -0.0036  0.0125
 2894W        W 3891   1.902   3.731   4.192 -0.0397  0.2207 -0.3359
 2895W        W 3892   0.858   2.832   5.682  0.6259  0.0523  0.0827
 2896W        W 3893   2.112   3.166   0.609 -0.2342 -0.0426  0.3489
 2897W        W 3894   3.127   6.412   6.103 -0.1057  0.1184  0.0832
 2898W        W 3895   6.271   3.603   2.989  0.0620 -0.1700 -0.1443
 2899W        W 3896   2.223   7.119   6.528  0.0513  0.0366  0.0318
 2900W        W 3897   6.768   5.817   2.851 -0.1137  0.3345 -0.0200
 2901W        W 3898   6.152   0.586   6.716  0.0677 -0.1202 -0.0792
 2902W        W 3899   1.376   2.340   3.721 -0.0477 -0.0642  0.0533
 2903W        W 3900   3.094   4.139   4.565 -0.1431  0.3510 -0.2045
 2904W        W 3901   2.837   1.249   6.447  0.2526 -0.1071  0.1028
 2905W        W 3902   1.256   1.642   6.522 -0.2101 -0.2196 -0.0025
 2906W        W 3903   2.352   5.277   2.262  0.3461 -0.0181  0.2823
 2907W        W 3904   5.132   1.794   4.582  0.1383  0.1964  0.3654
 2908W        W 3905   3.936   5.631   3.745  0.0275 -0.0657  0.1264
 2909W        W 3906   6.452   4.824   6.431  0.0326  0.0955  0.1755
 2910W        W 3907   1.824   3.129   7.370  0.1612  0.0094  0.2123
 2911W        W 3908   0.617   4.422   6.284 -0.0510  0.0325  0.3227
 2912W        W 3909   2.077   4.344   4.501 -0.1467  0.3495  0.2416
 2913W        W 3910   5.967   0.592   6.182 -0.2014  0.2675  0.0832
 2914W        W 3911   5.689   6.944   3.607 -0.1629  0.2230  0.0618
 2915W        W 3912   4.882   3.997   5.569 -0.1086 -0.1536  0.4258
 2916W        W 3913   0.492   6.752   0.634 -0.2547  0.0608 -0.1817
 2917W        W 3914   6.687   6.979   5.334 -0.4232 -0.1103  0.1266
 2918W        W 3915   1.990   0.348   1.772 -0.1289 -0.0162  0.4050
 2919W        W 3916   5.829   4.880   6.345 -0.1963 -0.0340  0.1627
 2920W        W 3917   3.104   5.417   0.061 -0.0164  0.1733 -0.0876
 2921W        W 3918   3.143   2.391   4.373 -0.0493 -0.1549 -0.0105
 2922W        W 3919   1.446   3.981   7.334 -0.0407  0.1732  0.2134
 2923W        W 3920   6.625   3.441   0.118 -0.1527  0.0134  0.0947
 2924W        W 3921   4.557   0.509   7.110 -0.0975 -0.2561  0.0106
 2925W        W 3922   3.194   4.397   5.089 -0.1199  0.2468  0.2601
 2926W        W 3923   1.288   0.583   6.395 -0.0899  0.0247 -0.0797
 2927W        W 3924   4.158   2.013   3.792 -0.0786  0.0106  0.1312
 2928W        W 3925   4.840   5.008   6.193  0.1114  0.0368  0.0834
 2929W        W 3926   6.312   0.480   4.510  0.2324 -0.0487  0.1271
 2930W        W 3927   3.171   3.058   4.664 -0.0618 -0.0581  0.2104
 2931W        W 3928   5.201   6.358   3.082 -0.2663  0.1433  0.1085
 2932W        W 3929   0.156   4.070   7.519 -0.1298 -0.2776 -0.1570
 2933W        W 3930   1.683   3.626   2.978  0.0023 -0.1005 -0.0335
 2934W        W 3931   4.820   4.082   6.211 -0.2348 -0.0473 -0.2469
 2935W        W 3932   6.312   5.361   4.167 -0.1210 -0.0688 -0.0109
 2936W        W 3933   2.400   3.908   0.715 -0.3489  0.1418  0.1594
 2937W        W 3934   0.987   6.628   1.391 -0.1055  0.2043 -0.2951
 2938W        W 3935   7.146   1.141   5.681 -0.0693  0.0190 -0.6214
 2939W        W 3936   6.264   1.374   4.437 -0.3620 -0.0708 -0.0631
 2940W        W 3937   0.471   5.366   0.850 -0.0137  0.4318  0.2146
 2941W        W 3938   0.965   5.049   3.682 -0.1979 -0.1200  0.0392
 2942W        W 3939   7.431   1.792   4.644 -0.7424 -0.1282  0.2670
 2943W        W 3940   2.223   2.178   0.665 -0.1323  0.0351  0.4273
 2944W        W 3941   6.374   3.135   4.315  0.2297  0.1660 -0.0543
 2945W        W 3942   4.012   6.494   4.251  0.1616  0.0473  0.1671
 2946W        W 3943   0.670   4.742   1.819  0.0803 -0.0110  0.1762
 2947W        W 3944   5.159   4.071   3.291 -0.1911  0.0924  0.0264
 2948W        W 3945   0.490   2.469   0.906 -0.1117 -0.0209 -0.1670
 2949W        W 3946   5.187   3.867   2.821 -0.1390 -0.0433  0.1919
 2950W        W 3947   5.827   6.805   5.847 -0.1884  0.2633  0.3786
 2951W        W 3948   4.604   5.130   3.286 -0.1025  0.0880 -0.1615
 2952W        W 3949   3.228   2.307   2.671  0.3110 -0.1375  0.2244
 2953W        W 3950   1.444   6.724   6.038 -0.1032 -0.3945  0.1915
 2954W        W 3951   6.356   2.930   4.769 -0.1992  0.0071  0.0071
 2955W        W 3952   2.971   4.896   5.353 -0.3389 -0.1361  0.0905
 2956W        W 3953   0.544   3.227   5.857  0.1664 -0.0600 -0.0908
 2957W        W 3954   5.433   4.110   1.271  0.0640 -0.0627  0.0806
 2958W        W 3955   0.610   3.694   5.648  0.0357 -0.0726 -0.4554
 2959W        W 3956   0.275   2.964   0.363 -0.0864 -0.0818  0.0285
 2960W        W 3957   0.855   6.280   6.574  0.1285  0.2148  0.1024
 2961W        W 3958   3.213   2.909   4.201 -0.0734 -0.2167  0.2479
 2962W        W 3959   0.379   4.893   0.687 -0.1512 -0.1096 -0.0839
 2963W        W 3960   4.571   4.366   6.531  0.2488  0.4863  0.0943
 2964W        W 3961   3.240   5.909   0.212 -0.0544  0.3128 -0.2890
 2965W        W 3962   3.352   4.099   6.607 -0.0735  0.3594  0.0059
 2966W        W 3963   5.518   6.953   6.682 -0.1400 -0.1008 -0.0686
 2967W        W 3964   4.193   2.077   4.340  0.1014  0.1323 -0.2093
 2968W        W 3965   4.949   2.570   5.322 -0.1393 -0.2643 -0.0140
 2969W        W 3966   0.160   3.898   5.085  0.1521  0.2566  0.0505
 2970W        W 3967   1.676   1.525   4.935 -0.0016  0.0437 -0.1456
 2971W        W 3968   6.096   5.844   1.944 -0.2093 -0.0180 -0.1821
 2972W        W 3969   4.880   6.787   2.998 -0.1877 -0.0359 -0.1970
 2973W        W 3970   6.374   5.352   5.198  0.0218  0.0203 -0.2841
 2974W        W 3971   3.682   2.447   6.604 -0.0749 -0.0651  0.1141
 2975W        W 3972   0.028   4.307   6.991  0.1183  0.2079 -0.0942
 2976W        W 3973   6.841   5.786   1.722  0.1842  0.2043 -0.2323
 2977W        W 3974   1.495   6.418   4.157  0.1693 -0.1405 -0.1282
 2978W        W 3975   4.081   4.200   1.482 -0.3393  0.1316  0.2393
 2979W        W 3976   3.256   5.768   1.157 -0.1595  0.0276  0.1621
 2980W        W 3977   7.565   0.907   0.227  0.1826  0.1084  0.3964
 2981W        W 3978   4.284   6.698   3.659  0.0217  0.1528 -0.5235
 2982W        W 3979   2.779   2.146   0.443  0.1071  0.0392 -0.5176
 2983W        W 3980   3.091   2.944   5.833 -0.0121  0.2007 -0.1991
 2984W        W 3981   0.905   0.181   5.269  0.0911 -0.2157  0.0559
 2985W        W 3982   6.095   5.321   0.293  0.2667  0.4197 -0.0368
 2986W        W 3983   3.557   6.351   6.561 -0.2100  0.0227 -0.0264
 2987W        W 3984   7.457   4.661   1.342  0.3802 -0.2483  0.0240
 2988W        W 3985   0.657   6.736   6.682 -0.2622 -0.2449  0.1612
 2989W        W 3986   0.935   4.035   0.723  0.1213 -0.0183  0.2082
 2990W        W 3987   4.208   6.115   3.031  0.1110  0.0935 -0.3228
 2991W        W 3988   0.346   4.486   7.355 -0.1931  0.1343 -0.0652
 2992W        W 3989   4.329   5.195   6.577 -0.0347 -0.2841 -0.0333
 2993W        W 3990   1.661   1.740   2.084  0.1743  0.2839  0.0850
 2994W        W 3991   2.762   0.480   1.745  0.0124  0.0849 -0.1291
 2995W        W 3992   2.728   5.427   4.628 -0.0486  0.2346  0.0248
 2996W        W 3993   5.386   4.147   1.795  0.0618 -0.0706 -0.1423
 2997W        W 3994   1.289   4.358   2.447 -0.1612  0.1563  0.0377
 2998W        W 3995   3.870   3.037   5.305  0.0142  0.0034  0.0940
 2999W        W 3996   1.122   5.848   2.493 -0.1458  0.0712 -0.0655
 3000W        W 3997   5.987   0.326   7.150 -0.2390 -0.0623  0.3216
 3001W        W 3998   6.387   6.943   6.770  0.0535  0.1577  0.1699
 3002W        W 3999   6.501   1.260   6.152  0.0981 -0.3898  0.1984
 3003W        W 4000   2.972   6.051   4.775  0.1294 -0.2020  0.1403
 3004W        W 4001   5.761   3.389   0.513  0.0304  0.1013 -0.0186
 3005W        W 4002   6.311   4.062   3.928  0.0436 -0.1031 -0.0429
 3006W        W 4003   2.648   1.496   3.006  0.2211  0.1775  0.0533
 3007W        W 4004   2.490   0.002   0.298 -0.0614 -0.0555  0.1694
 3008W        W 4005   2.707   7.638   1.232 -0.1859 -0.1481  0.0172
 3009W        W 4006   1.290   5.146   6.241  0.0134  0.2529  0.1663
 3010W        W 4007   1.706   4.686   2.355  0.3029  0.1174  0.1007
 3011W        W 4008   3.934   0.127   6.362 -0.1493 -0.2252 -0.4161
 3012W        W 4009   2.118   6.364   0.747  0.4020  0.5962 -0.2010
 3013W        W 4010   4.870   2.658   4.857  0.2128 -0.1108  0.0265
 3014W        W 4011   2.766   1.541   2.153 -0.0880  0.2366  0.2354
 3015W        W 4012   6.942   6.596   3.499  0.2485  0.3064  0.0127
 3016W        W 4013   2.369   2.582   6.077 -0.6055  0.0380  0.0914
 3017W        W 4014   0.054   5.038   1.092  0.1471  0.1278 -0.2857
 3018W        W 4015   1.016   1.034   4.665 -0.1391  0.2269  0.1406
 3019W        W 4016   4.761   5.279   3.952  0.0177 -0.0573 -0.2967
 3020W        W 4017   5.592   0.639   5.416  0.2980  0.0436  0.0973
 3021W        W 4018   2.730   4.626   1.589  0.2441  0.1989 -0.2027
 3022W        W 4019   1.733   6.074   4.809  0.3316  0.0525  0.1021
 3023W        W 4020   2.639   0.040   2.615 -0.2065 -0.2540 -0.0009
 3024W        W 4021   5.817   5.443   5.191  0.0587 -0.2411  0.1930
 3025W        W 4022   6.760   2.963   0.043 -0.1097  0.2257 -0.0909
 3026W        W 4023   6.141   1.072   5.846  0.4255 -0.1190 -0.0546
 3027W        W 4024   4.585   0.558   5.764 -0.2069 -0.0277  0.3348
 3028W        W 4025   2.993   5.507   1.446 -0.0462 -0.0181 -0.0915
 3029W        W 4026   3.281   4.961   4.484  0.0285 -0.0386  0.1304
 3030W        W 4027   1.453   6.115   0.498  0.0976 -0.3177 -0.1638
 3031W        W 4028   3.820   1.645   7.181 -0.3042  0.0390 -0.2824
 3032W        W 4029   5.684   6.262   1.942  0.0075  0.0365 -0.2631
 3033W        W 4030   6.649   5.598   3.831  0.0822  0.0397 -0.1959
 3034W        W 4031   4.898   3.600   6.408 -0.1155 -0.0037  0.0240
 3035W        W 4032   0.828   3.266   7.526 -0.2003  0.1676  0.0880
 3036W        W 4033   1.778   1.509   3.563 -0.0411  0.2726  0.0649
 3037W        W 4034   0.575   5.865   1.587  0.1103 -0.0047 -0.1710
 3038W        W 4035   1.827   5.253   7.126 -0.3723 -0.2134 -0.1394
 3039W        W 4036   4.980   2.209   5.709  0.3760  0.0800  0.3710
 3040W        W 4037   6.542   6.199   1.984  0.1086 -0.0933  0.2034
 3041W        W 4038   7.009   2.114   6.672  0.2990 -0.0209 -0.1287
 3042W        W 4039   1.091   0.542   7.220  0.0273 -0.1370 -0.0600
 3043W        W 4040   2.276   6.217   1.718 -0.0147 -0.3747 -0.0675
 3044W        W 4041   5.363   2.196   6.503  0.0928  0.1612  0.3603
 3045W        W 4042   0.489   5.357   7.326 -0.0155 -0.2624 -0.0831
 3046W        W 4043   3.389   1.583   6.949 -0.1412 -0.1292  0.0585
 3047W        W 4044   3.776   3.656   4.372  0.0519 -0.2856  0.0412
 3048W        W 4045   2.687   2.347   7.010  0.1509 -0.0542 -0.0806
 3049W        W 4046   4.963   7.184   3.291  0.1587 -0.0169 -0.1344
 3050W        W 4047   0.110   6.606   5.536  0.0033  0.3114 -0.2244
 3051W        W 4048   0.723   5.416   5.295  0.0202  0.1378 -0.0179
 3052W        W 4049   5.035   1.692   0.178  0.0439  0.0242  0.0513
 3053W        W 4050   2.142   3.852   5.172  0.1902 -0.0078 -0.0206
 3054W        W 4051   5.727   5.861   1.577 -0.0566 -0.0935  0.2349
 3055W        W 4052   1.803   3.575   2.455 -0.1733 -0.0672 -0.1849
 3056W        W 4053   4.103   3.493   6.760  0.3631  0.2085  0.1957
 3057W        W 4054   2.850   5.095   0.342  0.2350  0.0188  0.1457
 3058W        W 4055   3.044   1.253   0.674  0.3043 -0.2438 -0.2475
 3059W        W 4056   0.835   0.723   6.769 -0.0969 -0.0858 -0.2521
 3060W        W 4057   4.604   4.277   1.675  0.0836  0.3992 -0.4466
 3061W        W 4058   7.013   2.725   7.278  0.1328  0.1531 -0.0386
 3062W        W 4059   2.813   3.661   7.451 -0.0978 -0.2503  0.0986
 3063W        W 4060   2.650   4.596   0.045  0.4429  0.0508 -0.1576
 3064W        W 4061   4.979   1.004   6.181  0.1350  0.0212 -0.1956
 3065W        W 4062   0.431   0.801   0.271 -0.6297 -0.2357 -0.3365
 3066W        W 4063   2.295   3.657   3.855  0.0132  0.0074  0.4127
 3067W        W 4064   3.579   5.409   3.427 -0.0919  0.1422 -0.0087
 3068W        W 4065   1.357   4.588   4.271  0.0728 -0.0170 -0.4113
 3069W        W 4066   4.396   5.590   1.767 -0.0536 -0.2422 -0.2418
 3070W        W 4067   5.049   3.944   7.181 -0.0230  0.1377  0.4137
 3071W        W 4068   5.424   3.642   3.272 -0.1526 -0.3040 -0.0748
 3072W        W 4069   5.821   5.720   0.264  0.2091  0.2749 -0.0203
 3073W        W 4070   4.275   3.331   5.336  0.1629 -0.1166 -0.2051
 3074W        W 4071   1.417   5.371   1.361 -0.0795  0.2162  0.2345
 3075W        W 4072   0.242   2.189   0.004  0.3517  0.2200 -0.0564
 3076W        W 4073   5.124   2.778   6.366 -0.0351  0.1890  0.2015
 3077W        W 4074   6.241   0.213   5.827 -0.0859 -0.1474 -0.2193
 3078W        W 4075   0.752   7.505   6.372 -0.2838 -0.0612  0.0519
 3079W        W 4076   6.424   2.752   1.699  0.0854  0.1866 -0.0675
 3080W        W 4077   2.711   0.909   1.357 -0.0068 -0.2261 -0.1475
 3081W        W 4078   7.144   6.116   4.338  0.1769 -0.3199 -0.2120
 3082W        W 4079   6.617   2.169   4.313  0.2674 -0.0034  0.1560
 3083W        W 4080   5.303   5.930   7.093  0.3415  0.1556 -0.1327
 3084W        W 4081   1.169   3.068   0.352  0.1371 -0.0106 -0.2892
 3085W        W 4082   3.291   3.839   5.433  0.2286  0.4287 -0.0955
 3086W        W 4083   5.773   4.823   0.718  0.1530  0.1203 -0.1354
 3087W        W 4084   4.009   5.925   6.094 -0.0863 -0.0624  0.1568
 3088W        W 4085   5.217   0.192   5.425 -0.3005  0.0232  0.2762
 3089W        W 4086   3.668   2.262   5.467 -0.0526  0.2160  0.2284
 3090W        W 4087   1.013   4.193   4.362 -0.0363  0.0454  0.2207
 3091W        W 4088   6.204   4.411   6.239 -0.2862 -0.0226  0.0220
 3092W        W 4089   2.041   0.946   5.113 -0.1102 -0.4053 -0.3200
 3093W        W 4090   2.777   5.152   0.833 -0.0483  0.2074 -0.2756
 3094W        W 4091   2.655   6.818   6.895  0.3111 -0.0031  0.1868
 3095W        W 4092   5.925   6.921   4.771  0.0697 -0.0571  0.1088
 3096W        W 4093   6.980   6.295   0.655 -0.1370  0.1630 -0.0411
 3097W        W 4094   3.384   2.794   3.619 -0.0379  0.0755  0.1452
 3098W        W 4095   1.931   1.860   3.193  0.0060 -0.1286  0.0342
 3099W        W 4096   2.934   4.415   5.530 -0.0781  0.2612 -0.0003
 3100W        W 4097   6.673   0.632   4.992  0.0810  0.1474 -0.1521
 3101W        W 4098   1.468   2.527   6.475  0.0298 -0.2218 -0.0009
 3102W        W 4099   5.511   4.654   0.332  0.5036  0.0078  0.3710
 3103W        W 4100   5.373   3.039   2.576  0.1985  0.0075  0.2869
 3104W        W 4101   6.712   1.820   6.977 -0.1245 -0.2150 -0.2562
 3105W        W 4102   4.565   5.157   1.976 -0.2283 -0.0766  0.1083
 3106W        W 4103   1.356   3.008   2.542  0.2923  0.0878  0.0642
 3107W        W 4104   5.417   2.833   4.581 -0.3124  0.0731 -0.1073
 3108W        W 4105   4.513   2.647   7.084  0.2433 -0.0340 -0.0750
 3109W        W 4106   1.731   0.281   0.034 -0.3248 -0.1195 -0.1410
 3110W        W 4107   2.849   3.867   5.750 -0.1232 -0.5271  0.0661
 3111ION    NA+ 4108   5.309   2.272   0.331  0.1521  0.1644  0.1477
 3112ION    NA+ 4109   1.377   3.415   7.379 -0.0175 -0.1626  0.2679
 3113ION    NA+ 4110   0.108   3.529   4.072  0.0514 -0.2619  0.0244
 3114ION    NA+ 4111   0.518   6.754   1.634  0.1229  0.1597  0.0408
 3115ION    NA+ 4112   1.847   5.212   4.143 -0.0780 -0.0943  0.1000
 3116ION    NA+ 4113   4.362   7.409   4.371 -0.0142  0.0828  0.0959
 3117ION    NA+ 4114   7.073   1.595   0.788 -0.1297 -0.1043 -0.0284
 3118ION    NA+ 4115   0.561   1.610   3.467  0.1545 -0.0085  0.0688
 3119ION    NA+ 4116   6.468   2.698   7.218 -0.2727 -0.0808  0.0346
 3120ION    NA+ 4117   7.293   4.287   6.296 -0.2311 -0.0322 -0.3727
 3121ION    NA+ 4118   1.008   0.576   4.978  0.1132 -0.0482 -0.0223
 3122ION    NA+ 4119   4.999   2.110   1.783  0.0422  0.0437  0.0646
 3123ION    NA+ 4120   6.589   4.502   1.680 -0.0033 -0.5246  0.1085
 3124ION    NA+ 4121   5.494   3.686   6.424  0.0205 -0.0526 -0.2030
 3125ION    NA+ 4122   1.714   1.279   1.344  0.1075 -0.3324  0.1914
 3126ION    NA+ 4123   0.328   6.278   1.955  0.1540 -0.0337 -0.1804
 3127ION    NA+ 4124   5.937   7.297   1.990  0.0810 -0.0980  0.0771
 3128ION    NA+ 4125   7.546   3.077   1.281  0.3920 -0.1938  0.0710
 3129ION    NA+ 4126   7.633   1.835   7.395  0.1042 -0.0203  0.0214
 3130ION    NA+ 4127   1.139   5.979   1.621  0.0543 -0.0531 -0.0291
 3131ION    NA+ 4128   1.928   6.208   3.791  0.0989  0.0418 -0.0686
 3132ION    NA+ 4129   0.596   2.785   2.530  0.0450 -0.1320 -0.1966
 3133ION    NA+ 4130   5.974   3.270   3.990 -0.2930 -0.2692 -0.0555
 3134ION    NA+ 4131   3.899   6.963   3.469  0.1618  0.1484  0.1515
 3135ION    NA+ 4132   1.860   5.078   1.336 -0.0044  0.0785  0.1279
 3136ION    NA+ 4133   4.346   3.749   3.134  0.2186  0.0573 -0.2382
 3137ION    NA+ 4134   4.742   3.427   1.374  0.1234  0.0107  0.0750
 3138ION    NA+ 4135   6.472   0.431   4.034  0.0173 -0.1456  0.2838
 3139ION    NA+ 4136   7.239   0.145   2.719  0.2335 -0.1288 -0.0646
 3140ION    NA+ 4137   2.539   7.337   6.858 -0.1536  0.2699 -0.1957
 3141ION    NA+ 4138   2.850   2.048   6.452 -0.0688  0.0039  0.0618
 3142ION    NA+ 4139   5.573   0.376   0.643 -0.3000  0.0854  0.1665
 3143ION    NA+ 4140   1.300   6.862   3.975  0.0073  0.3976 -0.0423
 3144ION    NA+ 4141   6.232   1.015   2.867 -0.2075 -0.0204  0.0681
 3145ION    NA+ 4142   0.360   7.426   6.084  0.1807 -0.3132 -0.1020
 3146ION    NA+ 4143   5.928   3.998   1.169 -0.1903 -0.1650 -0.0395
 3147ION    NA+ 4144   1.177   4.037   2.885  0.0078  0.1955  0.0366
 3148ION    NA+ 4145   1.059   0.870   4.134 -0.0273  0.2580 -0.1573
 3149ION    NA+ 4146   0.675   0.028   7.351  0.2961  0.2362  0.2459
 3150ION    NA+ 4147   2.493   1.066   0.546  0.1389 -0.0024 -0.1467
 3151ION    NA+ 4148   1.291   5.801   3.090  0.1408 -0.1335 -0.3304
 3152ION    NA+ 4149   4.978   1.551   2.548  0.1349  0.3531  0.0705
 3153ION    NA+ 4150   4.266   1.653   1.873 -0.0550  0.0795  0.0592
 3154ION    NA+ 4151   3.584   2.990   6.598 -0.1207 -0.1094  0.1371
 3155ION    NA+ 4152   0.353   2.059   0.513  0.0210 -0.0235 -0.3785
 3156ION    NA+ 4153   6.127   0.316   2.816 -0.2738  0.2827  0.0028
 3157ION    NA+ 4154   1.367   3.893   1.021  0.0134 -0.0794  0.1005
 3158ION    NA+ 4155   1.556   0.708   3.081 -0.0063 -0.0377  0.0301
 3159ION    NA+ 4156   3.363   0.583   6.353 -0.1802  0.0867 -0.0917
 3160ION    NA+ 4157   6.725   3.812   3.933  0.2688  0.0114 -0.0832
 3161ION    NA+ 4158   0.637   4.583   5.506  0.1825  0.1212  0.0284
 3162ION    NA+ 4159   7.249   4.944   2.301 -0.1453  0.0258 -0.0617
 3163ION    NA+ 4160   2.751   2.978   4.941 -0.4418  0.1742  0.2280
 3164ION    NA+ 4161   5.365   1.884   3.225  0.0585  0.2525 -0.2696
 3165ION    NA+ 4162   6.698   2.476   5.329 -0.0757 -0.1090  0.0815
 3166ION    NA+ 4163   4.937   6.662   3.874  0.0976  0.0241 -0.2643
 3167ION    NA+ 4164   2.361   0.865   6.672 -0.1987  0.2369 -0.1029
 3168ION    NA+ 4165   2.503   5.664   2.519  0.1945  0.3668 -0.2690
 3169ION    NA+ 4166   0.220   0.572   5.540 -0.1679 -0.2692  0.0921
 3170ION    NA+ 4167   6.045   5.197   4.838 -0.0932 -0.0309 -0.0157
 3171ION    NA+ 4168   0.639   4.450   1.405  0.1909 -0.1263 -0.1252
 3172ION    NA+ 4169   3.130   6.626   6.547 -0.2984 -0.4130  0.0048
 3173ION    NA+ 4170   2.413   7.438   2.201 -0.2463  0.0323  0.3247
 3174ION    NA+ 4171   0.625   3.166   3.484 -0.2573  0.0605  0.0259
 3175ION    NA+ 4172   3.402   7.503   4.132  0.0244  0.0566 -0.1188
 3176ION    NA+ 4173   3.197   5.959   4.260 -0.0763 -0.0410  0.0070
 3177ION    NA+ 4174   0.756   7.500   0.991  0.3000  0.1148  0.1189
 3178ION    NA+ 4175   2.292   0.819   2.588  0.1326  0.1143 -0.2968
 3179ION    NA+ 4176   6.063   6.019   7.593  0.3471 -0.0740  0.1249
 3180ION    NA+ 4177   5.130   7.331   1.112 -0.4717  0.3570  0.0980
 3181ION    NA+ 4178   6.560   3.309   1.592 -0.1977  0.0178 -0.0932
 3182ION    NA+ 4179   2.843   5.959   0.648 -0.1429 -0.1265  0.0886
 3183ION    NA+ 4180   6.542   0.076   1.473 -0.1585 -0.1382  0.0751
 3184ION    NA+ 4181   6.587   0.019   0.554 -0.1261  0.0275 -0.0276
 3185ION    NA+ 4182   4.223   0.848   1.182  0.2455  0.3304  0.0479
 3186ION    NA+ 4183   0.672   3.786   2.252 -0.2325 -0.0879  0.0731
 3187ION    NA+ 4184   7.193   6.564   1.969  0.1302 -0.2706  0.0132
 3188ION    NA+ 4185   4.108   0.915   5.816 -0.4581 -0.1378  0.0972
 3189ION    NA+ 4186   2.840   5.188   2.369  0.3597  0.2510 -0.1091
 3190ION    NA+ 4187   1.624   5.972   2.372 -0.1898 -0.2197 -0.2658
 3191ION    NA+ 4188   7.247   6.876   2.836 -0.3673 -0.2751 -0.0784
 3192ION    NA+ 4189   7.329   6.258   0.092  0.1131 -0.1469  0.1153
 3193ION    NA+ 4190   5.959   1.625   7.563  0.2062 -0.1464  0.0008
 3194ION    NA+ 4191   0.070   4.558   4.132  0.0149 -0.3633 -0.1369
 3195ION    NA+ 4192   1.834   6.631   5.706  0.0636 -0.2239 -0.1724
 3196ION    NA+ 4193   3.023   3.739   1.865  0.2367 -0.1416 -0.4014
 3197ION    NA+ 4194   1.111   1.007   1.683  0.1034 -0.1905  0.3507
 3198ION    NA+ 4195   0.908   3.171   2.712 -0.0377 -0.1191  0.1041
 3199ION    NA+ 4196   6.531   1.730   3.518  0.1010  0.2978 -0.0140
 3200ION    NA+ 4197   7.171   5.404   2.404  0.0328  0.1859  0.1444
 3201ION    NA+ 4198   4.951   2.431   2.773 -0.2294 -0.1589  0.1170
 3202ION    NA+ 4199   3.029   6.799   1.783  0.2391 -0.0529 -0.1411
 3203ION    NA+ 4200   7.354   2.159   1.443 -0.1388 -0.2750 -0.2517
 3204ION    NA+ 4201   3.207   2.694   2.407  0.2336  0.0790 -0.0671
 3205ION    NA+ 4202   5.338   6.731   1.887  0.0591  0.0220 -0.2674
 3206ION    NA+ 4203   0.960   6.482   3.644  0.0399 -0.3269  0.1697
 3207ION    NA+ 4204   2.666   4.414   4.260  0.4165 -0.2273  0.0831
 3208ION    NA+ 4205   2.045   0.250   0.527 -0.2180 -0.1327  0.0441
 3209ION    NA+ 4206   3.900   6.341   3.776  0.1183 -0.0916  0.3609
 3210ION    NA+ 4207   0.322   2.100   1.369  0.0504 -0.0664  0.1704
   7.64293   7.64293   7.64293
