Martini system from ../2_Creating_coordinates/TYR-ASP-TYR_aa.pdb
 4240
    1TYR     BB    1   6.765   6.832   3.256
    1TYR    SC1    2   6.824   7.134   3.218
    1TYR    SC2    3   6.964   7.363   3.246
    1TYR    SC3    4   6.710   7.370   3.155
    2ASP     BB    5   6.937   6.655   2.995
    2ASP    SC1    6   6.905   6.365   3.132
    3TYR     BB    7   7.197   6.630   2.757
    3TYR    SC1    8   7.043   6.679   2.493
    3TYR    SC2    9   6.985   6.614   2.237
    3TYR    SC3   10   6.798   6.731   2.393
    1TYR     BB   11   4.063   2.663   6.472
    1TYR    SC1   12   3.879   2.440   6.384
    1TYR    SC2   13   3.908   2.178   6.326
    1TYR    SC3   14   3.676   2.304   6.269
    2ASP     BB   15   4.349   2.464   6.504
    2ASP    SC1   16   4.555   2.536   6.281
    3TYR     BB   17   4.291   2.188   6.650
    3TYR    SC1   18   4.021   2.218   6.791
    3TYR    SC2   19   3.872   2.183   7.013
    3TYR    SC3   20   3.808   2.377   6.837
    1TYR     BB   21   2.926   5.849   5.472
    1TYR    SC1   22   2.867   6.111   5.318
    1TYR    SC2   23   2.903   6.227   5.076
    1TYR    SC3   24   2.743   6.344   5.259
    2ASP     BB   25   3.224   5.771   5.307
    2ASP    SC1   26   3.505   5.830   5.458
    3TYR     BB   27   3.248   5.831   5.021
    3TYR    SC1   28   3.087   5.872   4.780
    3TYR    SC2   29   2.877   6.003   4.671
    3TYR    SC3   30   3.004   5.811   4.531
    1TYR     BB   31   4.084   4.144   5.419
    1TYR    SC1   32   3.869   4.330   5.289
    1TYR    SC2   33   3.685   4.344   5.092
    1TYR    SC3   34   3.715   4.550   5.264
    2ASP     BB   35   4.319   4.130   5.174
    2ASP    SC1   36   4.583   4.266   5.291
    3TYR     BB   37   4.254   4.296   4.892
    3TYR    SC1   38   4.191   4.140   4.640
    3TYR    SC2   39   4.317   4.022   4.432
    3TYR    SC3   40   4.054   3.977   4.474
    1TYR     BB   41   7.546   2.770   5.492
    1TYR    SC1   42   7.704   2.806   5.248
    1TYR    SC2   43   7.762   2.746   4.991
    1TYR    SC3   44   7.864   2.969   5.104
    2ASP     BB   45   7.228   2.778   5.430
    2ASP    SC1   46   7.112   2.861   5.716
    3TYR     BB   47   7.049   2.580   5.268
    3TYR    SC1   48   6.923   2.716   5.019
    3TYR    SC2   49   6.838   2.691   4.764
    3TYR    SC3   50   6.839   2.933   4.883
    1TYR     BB   51   0.232   5.666   7.872
    1TYR    SC1   52   0.366   5.898   0.032
    1TYR    SC2   53   0.499   6.000   0.244
    1TYR    SC3   54   0.367   6.165   0.075
    2ASP     BB   55   0.339   5.733   7.549
    2ASP    SC1   56   0.072   5.711   7.369
    3TYR     BB   57   0.411   6.082   7.558
    3TYR    SC1   58   0.134   6.162   7.672
    3TYR    SC2   59   7.962   6.272   7.848
    3TYR    SC3   60   7.897   6.043   7.721
    1TYR     BB   61   3.905   6.858   6.042
    1TYR    SC1   62   4.019   6.844   5.748
    1TYR    SC2   63   4.211   6.928   5.579
    1TYR    SC3   64   4.061   6.713   5.516
    2ASP     BB   65   4.173   6.742   6.237
    2ASP    SC1   66   4.432   6.795   6.051
    3TYR     BB   67   4.172   6.472   6.390
    3TYR    SC1   68   3.990   6.350   6.609
    3TYR    SC2   69   3.814   6.154   6.668
    3TYR    SC3   70   3.809   6.386   6.806
    1TYR     BB   71   2.912   5.240   0.897
    1TYR    SC1   72   3.071   5.449   1.058
    1TYR    SC2   73   3.315   5.498   1.163
    1TYR    SC3   74   3.179   5.696   1.040
    2ASP     BB   75   3.083   5.261   0.608
    2ASP    SC1   76   3.171   4.959   0.572
    3TYR     BB   77   3.140   5.564   0.546
    3TYR    SC1   78   2.964   5.761   0.381
    3TYR    SC2   79   2.965   5.997   0.250
    3TYR    SC3   80   2.731   5.890   0.334
    1TYR     BB   81   1.291   5.413   6.612
    1TYR    SC1   82   1.041   5.413   6.412
    1TYR    SC2   83   0.827   5.530   6.296
    1TYR    SC3   84   0.955   5.329   6.170
    2ASP     BB   85   1.541   5.359   6.422
    2ASP    SC1   86   1.814   5.345   6.576
    3TYR     BB   87   1.483   5.403   6.129
    3TYR    SC1   88   1.368   5.165   5.988
    3TYR    SC2   89   1.372   5.044   5.746
    3TYR    SC3   90   1.175   4.989   5.922
    1TYR     BB   91   3.923   6.453   7.791
    1TYR    SC1   92   4.119   6.679   7.880
    1TYR    SC2   93   4.316   6.730   0.058
    1TYR    SC3   94   4.300   6.872   7.829
    2ASP     BB   95   4.010   6.245   0.077
    2ASP    SC1   96   3.992   6.457   0.322
    3TYR     BB   97   4.333   6.152   0.049
    3TYR    SC1   98   4.440   6.345   7.831
    3TYR    SC2   99   4.620   6.531   7.755
    3TYR    SC3  100   4.413   6.470   7.593
    1TYR     BB  101   5.872   5.921   2.337
    1TYR    SC1  102   5.595   5.915   2.482
    1TYR    SC2  103   5.416   6.034   2.646
    1TYR    SC3  104   5.428   5.764   2.632
    2ASP     BB  105   5.839   5.874   2.027
    2ASP    SC1  106   6.110   5.908   1.858
    3TYR     BB  107   5.617   6.040   1.852
    3TYR    SC1  108   5.354   6.035   1.999
    3TYR    SC2  109   5.221   6.049   2.234
    3TYR    SC3  110   5.098   5.950   2.014
    1TYR     BB  111   6.621   0.018   7.478
    1TYR    SC1  112   6.363   0.136   7.607
    1TYR    SC2  113   6.154   0.130   7.778
    1TYR    SC3  114   6.183   0.337   7.607
    2ASP     BB  115   6.499   7.816   7.228
    2ASP    SC1  116   6.641   7.531   7.270
    3TYR     BB  117   6.170   7.724   7.320
    3TYR    SC1  118   6.239   7.674   7.621
    3TYR    SC2  119   6.243   7.686   7.891
    3TYR    SC3  120   6.459   7.595   7.757
    1TYR     BB  121   0.361   6.439   4.781
    1TYR    SC1  122   0.593   6.305   4.641
    1TYR    SC2  123   0.807   6.247   4.487
    1TYR    SC3  124   0.824   6.226   4.756
    2ASP     BB  125   0.505   6.720   4.874
    2ASP    SC1  126   0.458   6.741   5.188
    3TYR     BB  127   0.787   6.829   4.774
    3TYR    SC1  128   0.996   6.637   4.670
    3TYR    SC2  129   1.160   6.561   4.469
    3TYR    SC3  130   1.205   6.472   4.720
    1TYR     BB  131   7.886   0.803   2.517
    1TYR    SC1  132   7.744   1.073   2.508
    1TYR    SC2  133   7.748   1.343   2.517
    1TYR    SC3  134   7.513   1.212   2.501
    2ASP     BB  135   0.190   0.827   2.706
    2ASP    SC1  136   0.255   0.515   2.728
    3TYR     BB  137   0.492   1.012   2.587
    3TYR    SC1  138   0.315   1.200   2.415
    3TYR    SC2  139   0.167   1.399   2.308
    3TYR    SC3  140   0.125   1.143   2.232
    1TYR     BB  141   0.836   5.088   2.455
    1TYR    SC1  142   1.027   5.100   2.691
    1TYR    SC2  143   1.128   5.263   2.881
    1TYR    SC3  144   1.196   5.002   2.877
    2ASP     BB  145   0.644   5.331   2.462
    2ASP    SC1  146   0.383   5.245   2.302
    3TYR     BB  147   0.707   5.546   2.704
    3TYR    SC1  148   0.681   5.353   2.954
    3TYR    SC2  149   0.525   5.256   3.152
    3TYR    SC3  150   0.755   5.130   3.088
    1TYR     BB  151   3.857   1.534   1.449
    1TYR    SC1  152   3.697   1.754   1.565
    1TYR    SC2  153   3.523   1.795   1.767
    1TYR    SC3  154   3.760   1.924   1.765
    2ASP     BB  155   4.145   1.596   1.666
    2ASP    SC1  156   4.381   1.510   1.495
    3TYR     BB  157   4.166   1.621   1.970
    3TYR    SC1  158   4.121   1.907   2.074
    3TYR    SC2  159   4.093   2.056   2.298
    3TYR    SC3  160   4.014   2.155   2.059
    1TYR     BB  161   1.723   6.710   0.327
    1TYR    SC1  162   1.677   7.012   0.410
    1TYR    SC2  163   1.520   7.223   0.469
    1TYR    SC3  164   1.757   7.193   0.594
    2ASP     BB  165   1.721   6.578   0.661
    2ASP    SC1  166   1.514   6.340   0.624
    3TYR     BB  167   1.602   6.784   0.886
    3TYR    SC1  168   1.743   6.767   1.162
    3TYR    SC2  169   1.701   6.694   1.418
    3TYR    SC3  170   1.904   6.860   1.357
    1TYR     BB  171   6.367   0.536   4.821
    1TYR    SC1  172   6.462   0.778   4.635
    1TYR    SC2  173   6.635   0.981   4.597
    1TYR    SC3  174   6.380   1.003   4.510
    2ASP     BB  175   6.607   0.321   4.824
    2ASP    SC1  176   6.517   0.018   4.781
    3TYR     BB  177   6.848   0.365   4.628
    3TYR    SC1  178   6.948   0.652   4.663
    3TYR    SC2  179   7.035   0.872   4.793
    3TYR    SC3  180   7.067   0.852   4.526
    1TYR     BB  181   1.685   2.688   1.709
    1TYR    SC1  182   1.717   2.416   1.866
    1TYR    SC2  183   1.874   2.201   1.913
    1TYR    SC3  184   1.743   2.320   2.117
    2ASP     BB  185   1.943   2.866   1.816
    2ASP    SC1  186   1.987   3.178   1.748
    3TYR     BB  187   2.166   2.614   1.950
    3TYR    SC1  188   2.050   2.649   2.234
    3TYR    SC2  189   2.055   2.633   2.504
    3TYR    SC3  190   1.824   2.690   2.376
    1TYR     BB  191   1.138   0.266   2.424
    1TYR    SC1  192   1.087   7.960   2.349
    1TYR    SC2  193   1.194   7.714   2.312
    1TYR    SC3  194   0.927   7.743   2.336
    2ASP     BB  195   1.203   0.241   2.731
    2ASP    SC1  196   1.034   0.441   2.906
    3TYR     BB  197   1.328   7.975   2.824
    3TYR    SC1  198   1.132   7.735   2.781
    3TYR    SC2  199   0.922   7.622   2.908
    3TYR    SC3  200   1.042   7.492   2.704
    1TYR     BB  201   4.553   1.388   7.806
    1TYR    SC1  202   4.385   1.549   7.601
    1TYR    SC2  203   4.405   1.750   7.422
    1TYR    SC3  204   4.211   1.564   7.395
    2ASP     BB  205   4.825   1.316   7.624
    2ASP    SC1  206   5.045   1.257   7.836
    3TYR     BB  207   4.848   1.506   7.377
    3TYR    SC1  208   4.821   1.397   7.100
    3TYR    SC2  209   4.884   1.439   6.841
    3TYR    SC3  210   4.633   1.366   6.909
    1TYR     BB  211   3.223   2.506   5.159
    1TYR    SC1  212   3.493   2.608   5.310
    1TYR    SC2  213   3.611   2.734   5.518
    1TYR    SC3  214   3.762   2.599   5.339
    2ASP     BB  215   3.160   2.218   5.277
    2ASP    SC1  216   3.108   1.954   5.113
    3TYR     BB  217   3.057   2.065   5.609
    3TYR    SC1  218   3.320   1.913   5.610
    3TYR    SC2  219   3.562   1.826   5.694
    3TYR    SC3  220   3.517   1.870   5.431
    1TYR     BB  221   6.912   7.499   5.387
    1TYR    SC1  222   6.915   7.487   5.076
    1TYR    SC2  223   7.057   7.420   4.857
    1TYR    SC3  224   6.838   7.576   4.833
    2ASP     BB  225   6.923   7.862   5.402
    2ASP    SC1  226   6.726   7.914   5.643
    3TYR     BB  227   6.914   0.000   5.109
    3TYR    SC1  228   7.049   0.276   5.083
    3TYR    SC2  229   7.021   0.543   5.118
    3TYR    SC3  230   7.229   0.447   4.974
    1TYR     BB  231   0.787   2.934   6.532
    1TYR    SC1  232   0.543   2.759   6.599
    1TYR    SC2  233   0.406   2.623   6.788
    1TYR    SC3  234   0.327   2.612   6.530
    2ASP     BB  235   0.843   3.093   6.801
    2ASP    SC1  236   1.158   3.084   6.855
    3TYR     BB  237   0.577   3.102   6.993
    3TYR    SC1  238   0.296   3.062   6.844
    3TYR    SC2  239   0.055   2.941   6.844
    3TYR    SC3  240   0.155   3.041   6.614
    1TYR     BB  241   3.060   3.509   1.677
    1TYR    SC1  242   2.882   3.758   1.719
    1TYR    SC2  243   2.632   3.851   1.754
    1TYR    SC3  244   2.843   3.995   1.842
    2ASP     BB  245   3.018   3.361   1.967
    2ASP    SC1  246   3.303   3.257   2.055
    3TYR     BB  247   2.750   3.448   2.107
    3TYR    SC1  248   2.705   3.738   2.188
    3TYR    SC2  249   2.525   3.939   2.202
    3TYR    SC3  250   2.746   3.944   2.357
    1TYR     BB  251   4.470   5.849   4.404
    1TYR    SC1  252   4.446   5.775   4.705
    1TYR    SC2  253   4.567   5.628   4.895
    1TYR    SC3  254   4.309   5.699   4.924
    2ASP     BB  255   4.817   5.773   4.400
    2ASP    SC1  256   4.858   5.468   4.422
    3TYR     BB  257   4.933   5.929   4.692
    3TYR    SC1  258   4.766   6.188   4.644
    3TYR    SC2  259   4.660   6.433   4.684
    3TYR    SC3  260   4.655   6.322   4.438
    1TYR     BB  261   7.524   4.164   1.880
    1TYR    SC1  262   7.378   4.294   2.124
    1TYR    SC2  263   7.187   4.271   2.313
    1TYR    SC3  264   7.293   4.513   2.257
    2ASP     BB  265   7.786   4.002   1.938
    2ASP    SC1  266   7.988   3.974   1.692
    3TYR     BB  267   7.884   3.974   2.222
    3TYR    SC1  268   7.694   4.101   2.417
    3TYR    SC2  269   7.501   4.082   2.606
    3TYR    SC3  270   7.604   4.323   2.541
    1TYR     BB  271   2.363   5.319   3.270
    1TYR    SC1  272   2.569   5.442   3.085
    1TYR    SC2  273   2.646   5.644   2.924
    1TYR    SC3  274   2.823   5.531   3.094
    2ASP     BB  275   2.140   5.224   3.029
    2ASP    SC1  276   2.228   4.938   2.954
    3TYR     BB  277   1.996   5.432   2.929
    3TYR    SC1  278   2.153   5.697   2.880
    3TYR    SC2  279   2.306   5.862   2.732
    3TYR    SC3  280   2.113   5.964   2.891
    1TYR     BB  281   5.696   4.957   5.530
    1TYR    SC1  282   5.495   4.846   5.321
    1TYR    SC2  283   5.266   4.849   5.180
    1TYR    SC3  284   5.503   4.829   5.052
    2ASP     BB  285   5.950   5.054   5.285
    2ASP    SC1  286   6.119   5.311   5.353
    3TYR     BB  287   5.885   5.195   4.943
    3TYR    SC1  288   5.927   4.942   4.800
    3TYR    SC2  289   5.840   4.700   4.718
    3TYR    SC3  290   6.105   4.747   4.743
    1TYR     BB  291   2.446   7.720   6.127
    1TYR    SC1  292   2.247   7.502   6.224
    1TYR    SC2  293   2.125   7.267   6.170
    1TYR    SC3  294   2.181   7.335   6.426
    2ASP     BB  295   2.718   7.597   6.287
    2ASP    SC1  296   2.895   7.837   6.370
    3TYR     BB  297   2.725   7.347   6.467
    3TYR    SC1  298   2.532   7.322   6.705
    3TYR    SC2  299   2.435   7.124   6.862
    3TYR    SC3  300   2.319   7.368   6.864
    1TYR     BB  301   1.970   5.137   5.255
    1TYR    SC1  302   2.210   5.014   5.397
    1TYR    SC2  303   2.449   5.006   5.522
    1TYR    SC3  304   2.275   4.801   5.550
    2ASP     BB  305   1.756   5.227   5.486
    2ASP    SC1  306   1.501   5.369   5.380
    3TYR     BB  307   1.834   5.263   5.753
    3TYR    SC1  308   2.117   5.182   5.819
    3TYR    SC2  309   2.353   5.303   5.874
    3TYR    SC3  310   2.306   5.051   5.960
    1TYR     BB  311   0.416   6.873   1.693
    1TYR    SC1  312   0.210   6.702   1.857
    1TYR    SC2  313   0.122   6.558   2.067
    1TYR    SC3  314   7.946   6.657   1.888
    2ASP     BB  315   0.680   6.905   1.892
    2ASP    SC1  316   0.915   6.772   1.739
    3TYR     BB  317   0.611   6.754   2.168
    3TYR    SC1  318   0.354   6.907   2.252
    3TYR    SC2  319   0.098   6.929   2.336
    3TYR    SC3  320   0.257   7.147   2.329
    1TYR     BB  321   1.300   6.083   4.419
    1TYR    SC1  322   1.327   5.907   4.172
    1TYR    SC2  323   1.422   5.682   4.057
    1TYR    SC3  324   1.177   5.774   3.991
    2ASP     BB  325   1.158   5.898   4.633
    2ASP    SC1  326   1.341   5.698   4.776
    3TYR     BB  327   0.903   5.755   4.498
    3TYR    SC1  328   1.022   5.516   4.355
    3TYR    SC2  329   1.123   5.352   4.166
    3TYR    SC3  330   1.019   5.249   4.393
    1TYR     BB  331   0.516   1.120   4.764
    1TYR    SC1  332   0.678   0.933   4.574
    1TYR    SC2  333   0.719   0.736   4.394
    1TYR    SC3  334   0.914   0.915   4.444
    2ASP     BB  335   0.215   1.045   4.753
    2ASP    SC1  336   0.126   0.884   5.013
    3TYR     BB  337   0.131   0.889   4.472
    3TYR    SC1  338   0.332   1.033   4.279
    3TYR    SC2  339   0.399   1.295   4.272
    3TYR    SC3  340   0.564   1.110   4.163
    1TYR     BB  341   1.225   1.781   1.375
    1TYR    SC1  342   1.473   1.937   1.476
    1TYR    SC2  343   1.711   1.922   1.601
    1TYR    SC3  344   1.632   2.154   1.490
    2ASP     BB  345   1.351   1.558   1.164
    2ASP    SC1  346   1.190   1.409   0.937
    3TYR     BB  347   1.645   1.492   1.225
    3TYR    SC1  348   1.793   1.764   1.165
    3TYR    SC2  349   1.959   1.970   1.216
    3TYR    SC3  350   1.739   2.008   1.064
    1TYR     BB  351   0.820   4.120   3.769
    1TYR    SC1  352   1.130   4.035   3.767
    1TYR    SC2  353   1.373   4.114   3.855
    1TYR    SC3  354   1.321   3.851   3.820
    2ASP     BB  355   0.823   4.372   3.974
    2ASP    SC1  356   0.684   4.608   3.820
    3TYR     BB  357   1.100   4.453   4.089
    3TYR    SC1  358   1.157   4.327   4.358
    3TYR    SC2  359   1.247   4.210   4.584
    3TYR    SC3  360   1.084   4.424   4.599
    1TYR     BB  361   2.196   0.255   6.719
    1TYR    SC1  362   2.385   0.328   6.484
    1TYR    SC2  363   2.615   0.438   6.396
    1TYR    SC3  364   2.541   0.193   6.309
    2ASP     BB  365   2.410   0.255   6.973
    2ASP    SC1  366   2.254   0.445   7.177
    3TYR     BB  367   2.695   0.249   6.865
    3TYR    SC1  368   2.838   7.974   6.872
    3TYR    SC2  369   3.082   7.857   6.868
    3TYR    SC3  370   2.859   7.705   6.865
    1TYR     BB  371   0.979   3.065   2.780
    1TYR    SC1  372   0.759   3.119   2.991
    1TYR    SC2  373   0.490   3.108   2.986
    1TYR    SC3  374   0.620   3.112   3.223
    2ASP     BB  375   0.897   2.727   2.742
    2ASP    SC1  376   0.995   2.663   2.454
    3TYR     BB  377   0.600   2.617   2.792
    3TYR    SC1  378   0.526   2.661   3.087
    3TYR    SC2  379   0.325   2.664   3.267
    3TYR    SC3  380   0.581   2.681   3.351
    1TYR     BB  381   4.995   7.339   2.275
    1TYR    SC1  382   4.867   7.053   2.242
    1TYR    SC2  383   4.820   6.803   2.333
    1TYR    SC3  384   4.618   6.950   2.230
    2ASP     BB  385   4.691   7.514   2.215
    2ASP    SC1  386   4.666   7.714   1.969
    3TYR     BB  387   4.461   7.411   2.404
    3TYR    SC1  388   4.250   7.252   2.251
    3TYR    SC2  389   4.053   7.068   2.245
    3TYR    SC3  390   4.052   7.272   2.068
    1TYR     BB  391   5.245   2.276   4.464
    1TYR    SC1  392   5.502   2.427   4.533
    1TYR    SC2  393   5.739   2.523   4.446
    1TYR    SC3  394   5.644   2.597   4.688
    2ASP     BB  395   5.139   2.391   4.165
    2ASP    SC1  396   5.155   2.184   3.935
    3TYR     BB  397   5.323   2.655   4.054
    3TYR    SC1  398   5.354   2.794   4.331
    3TYR    SC2  399   5.451   2.972   4.509
    3TYR    SC3  400   5.233   2.825   4.571
    1TYR     BB  401   6.926   1.011   2.402
    1TYR    SC1  402   7.109   0.806   2.549
    1TYR    SC2  403   7.348   0.788   2.674
    1TYR    SC3  404   7.165   0.592   2.704
    2ASP     BB  405   7.012   1.306   2.544
    2ASP    SC1  406   7.007   1.580   2.378
    3TYR     BB  407   7.111   1.236   2.835
    3TYR    SC1  408   6.939   0.999   2.941
    3TYR    SC2  409   6.883   0.867   3.170
    3TYR    SC3  410   6.793   0.771   2.934
    1TYR     BB  411   5.420   4.885   7.968
    1TYR    SC1  412   5.188   4.776   0.136
    1TYR    SC2  413   5.011   4.583   0.203
    1TYR    SC3  414   5.178   4.684   0.390
    2ASP     BB  415   5.654   4.670   0.129
    2ASP    SC1  416   5.943   4.634   0.012
    3TYR     BB  417   5.522   4.364   0.182
    3TYR    SC1  418   5.420   4.311   0.478
    3TYR    SC2  419   5.211   4.310   0.648
    3TYR    SC3  420   5.462   4.277   0.742
    1TYR     BB  421   7.221   7.636   2.876
    1TYR    SC1  422   7.355   7.845   2.685
    1TYR    SC2  423   7.308   0.060   2.529
    1TYR    SC3  424   7.537   7.920   2.499
    2ASP     BB  425   6.997   7.830   3.030
    2ASP    SC1  426   6.890   0.035   2.809
    3TYR     BB  427   7.061   7.884   3.329
    3TYR    SC1  428   6.829   7.780   3.497
    3TYR    SC2  429   6.676   7.568   3.562
    3TYR    SC3  430   6.600   7.816   3.636
    1TYR     BB  431   3.668   6.949   3.163
    1TYR    SC1  432   3.828   6.934   2.908
    1TYR    SC2  433   3.869   6.990   2.647
    1TYR    SC3  434   3.876   6.734   2.733
    2ASP     BB  435   3.527   6.676   3.210
    2ASP    SC1  436   3.307   6.695   3.433
    3TYR     BB  437   3.690   6.399   3.217
    3TYR    SC1  438   3.691   6.307   2.915
    3TYR    SC2  439   3.557   6.131   2.760
    3TYR    SC3  440   3.720   6.314   2.647
    1TYR     BB  441   7.869   4.125   3.440
    1TYR    SC1  442   0.126   4.212   3.592
    1TYR    SC2  443   0.358   4.348   3.565
    1TYR    SC3  444   0.294   4.235   3.802
    2ASP     BB  445   7.634   4.322   3.645
    2ASP    SC1  446   7.368   4.298   3.476
    3TYR     BB  447   7.800   4.389   3.935
    3TYR    SC1  448   7.629   4.403   4.192
    3TYR    SC2  449   7.540   4.629   4.310
    3TYR    SC3  450   7.491   4.389   4.424
    1TYR     BB  451   4.183   4.265   6.497
    1TYR    SC1  452   4.239   4.459   6.736
    1TYR    SC2  453   4.160   4.676   6.876
    1TYR    SC3  454   4.403   4.566   6.922
    2ASP     BB  455   3.966   4.034   6.549
    2ASP    SC1  456   3.992   3.826   6.308
    3TYR     BB  457   3.871   3.918   6.849
    3TYR    SC1  458   4.075   4.067   7.031
    3TYR    SC2  459   4.121   4.292   7.174
    3TYR    SC3  460   4.328   4.140   7.090
    1TYR     BB  461   5.362   7.069   4.169
    1TYR    SC1  462   5.119   7.247   4.239
    1TYR    SC2  463   4.978   7.450   4.346
    1TYR    SC3  464   4.928   7.197   4.423
    2ASP     BB  465   5.545   7.178   4.459
    2ASP    SC1  466   5.835   7.061   4.423
    3TYR     BB  467   5.359   7.358   4.688
    3TYR    SC1  468   5.379   7.645   4.821
    3TYR    SC2  469   5.309   7.800   5.030
    3TYR    SC3  470   5.546   7.839   4.907
    1TYR     BB  471   5.837   7.918   5.699
    1TYR    SC1  472   5.732   7.802   5.950
    1TYR    SC2  473   5.496   7.750   6.070
    1TYR    SC3  474   5.714   7.606   6.135
    2ASP     BB  475   5.593   7.898   5.468
    2ASP    SC1  476   5.665   0.156   5.295
    3TYR     BB  477   5.382   7.686   5.578
    3TYR    SC1  478   5.571   7.453   5.698
    3TYR    SC2  479   5.675   7.260   5.855
    3TYR    SC3  480   5.835   7.401   5.690
    1TYR     BB  481   4.424   5.413   1.822
    1TYR    SC1  482   4.700   5.361   1.969
    1TYR    SC2  483   4.921   5.497   2.042
    1TYR    SC3  484   4.756   5.397   2.231
    2ASP     BB  485   4.359   5.687   2.022
    2ASP    SC1  486   4.046   5.692   2.031
    3TYR     BB  487   4.603   5.897   2.103
    3TYR    SC1  488   4.790   5.838   2.351
    3TYR    SC2  489   5.006   5.707   2.445
    3TYR    SC3  490   4.935   5.943   2.553
    1TYR     BB  491   6.334   0.816   7.693
    1TYR    SC1  492   6.421   1.114   7.741
    1TYR    SC2  493   6.494   1.354   7.642
    1TYR    SC3  494   6.397   1.336   7.894
    2ASP     BB  495   6.473   0.626   7.925
    2ASP    SC1  496   6.727   0.479   7.801
    3TYR     BB  497   6.357   0.421   0.140
    3TYR    SC1  498   6.366   0.550   0.419
    3TYR    SC2  499   6.331   0.539   0.686
    3TYR    SC3  500   6.463   0.747   0.575
    1TYR     BB  501   6.918   6.131   6.350
    1TYR    SC1  502   7.053   6.128   6.626
    1TYR    SC2  503   7.129   6.285   6.832
    1TYR    SC3  504   7.245   6.044   6.796
    2ASP     BB  505   6.602   6.154   6.446
    2ASP    SC1  506   6.458   6.303   6.220
    3TYR     BB  507   6.553   6.245   6.727
    3TYR    SC1  508   6.724   6.123   6.953
    3TYR    SC2  509   6.838   6.180   7.191
    3TYR    SC3  510   6.884   5.942   7.074
    1TYR     BB  511   7.906   2.284   4.894
    1TYR    SC1  512   0.006   2.391   5.171
    1TYR    SC2  513   7.978   2.450   5.434
    1TYR    SC3  514   0.119   2.615   5.273
    2ASP     BB  515   0.082   2.484   4.682
    2ASP    SC1  516   0.096   2.330   4.403
    3TYR     BB  517   0.209   2.764   4.754
    3TYR    SC1  518   7.998   2.971   4.660
    3TYR    SC2  519   7.935   3.201   4.534
    3TYR    SC3  520   7.743   3.060   4.661
    1TYR     BB  521   2.860   3.344   6.764
    1TYR    SC1  522   2.698   3.568   6.614
    1TYR    SC2  523   2.634   3.684   6.379
    1TYR    SC3  524   2.484   3.732   6.598
    2ASP     BB  525   2.962   3.148   6.513
    2ASP    SC1  526   3.043   2.856   6.598
    3TYR     BB  527   2.800   3.213   6.255
    3TYR    SC1  528   2.511   3.241   6.340
    3TYR    SC2  529   2.276   3.367   6.381
    3TYR    SC3  530   2.300   3.104   6.437
    1TYR     BB  531   5.805   4.973   2.811
    1TYR    SC1  532   6.107   5.016   2.720
    1TYR    SC2  533   6.340   4.928   2.618
    1TYR    SC3  534   6.202   5.122   2.491
    2ASP     BB  535   5.724   4.935   2.444
    2ASP    SC1  536   5.465   4.769   2.463
    3TYR     BB  537   5.949   4.732   2.269
    3TYR    SC1  538   6.223   4.824   2.149
    3TYR    SC2  539   6.454   4.819   2.009
    3TYR    SC3  540   6.329   5.054   2.056
    1TYR     BB  541   2.867   7.551   3.379
    1TYR    SC1  542   3.097   7.757   3.448
    1TYR    SC2  543   3.240   7.882   3.640
    1TYR    SC3  544   3.236   7.980   3.388
    2ASP     BB  545   2.953   7.230   3.385
    2ASP    SC1  546   3.250   7.198   3.293
    3TYR     BB  547   2.862   6.938   3.519
    3TYR    SC1  548   2.855   7.021   3.818
    3TYR    SC2  549   2.916   7.049   4.080
    3TYR    SC3  550   2.804   7.254   3.944
    1TYR     BB  551   4.194   1.052   3.786
    1TYR    SC1  552   4.334   0.835   3.606
    1TYR    SC2  553   4.375   0.637   3.427
    1TYR    SC3  554   4.525   0.861   3.416
    2ASP     BB  555   4.084   1.229   3.505
    2ASP    SC1  556   3.995   1.504   3.603
    3TYR     BB  557   4.009   1.104   3.252
    3TYR    SC1  558   4.173   0.879   3.117
    3TYR    SC2  559   4.189   0.662   2.957
    3TYR    SC3  560   4.392   0.841   2.962
    1TYR     BB  561   6.166   6.978   4.836
    1TYR    SC1  562   6.460   7.020   4.941
    1TYR    SC2  563   6.701   7.126   4.882
    1TYR    SC3  564   6.595   7.162   5.127
    2ASP     BB  565   6.118   7.327   4.800
    2ASP    SC1  566   5.842   7.446   4.783
    3TYR     BB  567   6.344   7.514   4.813
    3TYR    SC1  568   6.439   7.593   5.092
    3TYR    SC2  569   6.459   7.823   5.231
    3TYR    SC3  570   6.424   7.589   5.361
    1TYR     BB  571   5.150   1.706   5.051
    1TYR    SC1  572   5.203   1.703   4.754
    1TYR    SC2  573   5.198   1.572   4.518
    1TYR    SC3  574   5.362   1.784   4.552
    2ASP     BB  575   4.822   1.658   5.070
    2ASP    SC1  576   4.741   1.612   5.369
    3TYR     BB  577   4.661   1.669   4.822
    3TYR    SC1  578   4.786   1.736   4.545
    3TYR    SC2  579   4.802   1.685   4.280
    3TYR    SC3  580   4.913   1.909   4.382
    1TYR     BB  581   3.430   6.345   7.158
    1TYR    SC1  582   3.175   6.363   7.337
    1TYR    SC2  583   2.953   6.239   7.428
    1TYR    SC3  584   2.977   6.506   7.453
    2ASP     BB  585   3.703   6.251   7.342
    2ASP    SC1  586   3.838   6.025   7.162
    3TYR     BB  587   3.606   6.082   7.625
    3TYR    SC1  588   3.345   6.209   7.724
    3TYR    SC2  589   3.109   6.204   7.854
    3TYR    SC3  590   3.237   6.438   7.816
    1TYR     BB  591   2.437   1.500   5.770
    1TYR    SC1  592   2.643   1.675   5.918
    1TYR    SC2  593   2.783   1.634   6.145
    1TYR    SC3  594   2.804   1.869   6.014
    2ASP     BB  595   2.361   1.287   5.998
    2ASP    SC1  596   2.224   1.030   5.888
    3TYR     BB  597   2.332   1.378   6.284
    3TYR    SC1  598   2.587   1.362   6.444
    3TYR    SC2  599   2.726   1.191   6.600
    3TYR    SC3  600   2.751   1.457   6.636
    1TYR     BB  601   4.141   4.234   1.266
    1TYR    SC1  602   4.447   4.210   1.315
    1TYR    SC2  603   4.633   4.311   1.484
    1TYR    SC3  604   4.651   4.055   1.400
    2ASP     BB  605   4.036   4.215   1.574
    2ASP    SC1  606   3.736   4.139   1.579
    3TYR     BB  607   4.237   4.300   1.790
    3TYR    SC1  608   4.438   4.065   1.817
    3TYR    SC2  609   4.688   3.977   1.868
    3TYR    SC3  610   4.507   3.811   1.756
    1TYR     BB  611   5.948   5.426   1.074
    1TYR    SC1  612   5.660   5.547   1.114
    1TYR    SC2  613   5.444   5.655   0.992
    1TYR    SC3  614   5.412   5.502   1.213
    2ASP     BB  615   5.947   5.428   0.734
    2ASP    SC1  616   6.229   5.394   0.620
    3TYR     BB  617   5.705   5.520   0.595
    3TYR    SC1  618   5.548   5.302   0.448
    3TYR    SC2  619   5.324   5.248   0.307
    3TYR    SC3  620   5.453   5.049   0.437
    1TYR     BB  621   1.687   4.236   2.342
    1TYR    SC1  622   1.864   4.011   2.451
    1TYR    SC2  623   1.855   3.865   2.679
    1TYR    SC3  624   1.986   3.770   2.463
    2ASP     BB  625   1.534   4.320   2.641
    2ASP    SC1  626   1.334   4.550   2.586
    3TYR     BB  627   1.709   4.386   2.921
    3TYR    SC1  628   1.883   4.150   3.043
    3TYR    SC2  629   1.991   4.115   3.288
    3TYR    SC3  630   2.031   3.931   3.095
    1TYR     BB  631   4.674   2.504   1.617
    1TYR    SC1  632   4.948   2.670   1.643
    1TYR    SC2  633   5.207   2.681   1.569
    1TYR    SC3  634   5.138   2.720   1.827
    2ASP     BB  635   4.831   2.207   1.654
    2ASP    SC1  636   4.989   2.257   1.927
    3TYR     BB  637   5.061   2.199   1.426
    3TYR    SC1  638   5.016   2.439   1.231
    3TYR    SC2  639   4.985   2.701   1.174
    3TYR    SC3  640   4.959   2.516   0.979
    1TYR     BB  641   5.620   3.784   6.009
    1TYR    SC1  642   5.447   3.553   5.922
    1TYR    SC2  643   5.272   3.360   5.992
    1TYR    SC3  644   5.394   3.351   5.751
    2ASP     BB  645   5.727   3.947   5.756
    2ASP    SC1  646   5.915   4.180   5.857
    3TYR     BB  647   5.763   3.809   5.503
    3TYR    SC1  648   5.514   3.655   5.392
    3TYR    SC2  649   5.294   3.661   5.234
    3TYR    SC3  650   5.405   3.425   5.303
    1TYR     BB  651   4.396   4.649   3.375
    1TYR    SC1  652   4.277   4.895   3.218
    1TYR    SC2  653   4.152   5.126   3.278
    1TYR    SC3  654   4.390   5.131   3.151
    2ASP     BB  655   4.594   4.879   3.571
    2ASP    SC1  656   4.361   5.021   3.735
    3TYR     BB  657   4.909   4.903   3.542
    3TYR    SC1  658   4.966   5.105   3.322
    3TYR    SC2  659   4.826   5.253   3.144
    3TYR    SC3  660   5.072   5.161   3.080
    1TYR     BB  661   5.351   1.110   2.114
    1TYR    SC1  662   5.310   1.069   2.413
    1TYR    SC2  663   5.419   1.128   2.653
    1TYR    SC3  664   5.156   1.168   2.612
    2ASP     BB  665   5.277   1.474   2.153
    2ASP    SC1  666   4.975   1.451   2.098
    3TYR     BB  667   5.342   1.624   2.407
    3TYR    SC1  668   5.135   1.619   2.630
    3TYR    SC2  669   5.004   1.769   2.812
    3TYR    SC3  670   4.897   1.536   2.727
    1TYR     BB  671   6.944   2.491   2.338
    1TYR    SC1  672   6.789   2.249   2.221
    1TYR    SC2  673   6.576   2.162   2.080
    1TYR    SC3  674   6.805   2.018   2.083
    2ASP     BB  675   6.944   2.699   2.094
    2ASP    SC1  676   6.855   2.984   2.196
    3TYR     BB  677   6.765   2.605   1.847
    3TYR    SC1  678   6.812   2.333   1.734
    3TYR    SC2  679   6.689   2.121   1.621
    3TYR    SC3  680   6.955   2.114   1.667
    1TYR     BB  681   1.736   2.101   5.425
    1TYR    SC1  682   1.953   2.037   5.209
    1TYR    SC2  683   2.195   2.079   5.097
    1TYR    SC3  684   2.078   1.837   5.077
    2ASP     BB  685   1.630   1.786   5.531
    2ASP    SC1  686   1.623   1.834   5.847
    3TYR     BB  687   1.696   1.545   5.383
    3TYR    SC1  688   1.979   1.459   5.317
    3TYR    SC2  689   2.246   1.480   5.277
    3TYR    SC3  690   2.145   1.267   5.408
    1TYR     BB  691   1.809   7.720   0.600
    1TYR    SC1  692   2.034   7.740   0.378
    1TYR    SC2  693   2.295   7.750   0.309
    1TYR    SC3  694   2.105   7.760   0.118
    2ASP     BB  695   1.967   7.577   0.849
    2ASP    SC1  696   1.989   7.787   1.087
    3TYR     BB  697   2.231   7.426   0.753
    3TYR    SC1  698   2.185   7.292   0.473
    3TYR    SC2  699   2.249   7.306   0.212
    3TYR    SC3  700   2.119   7.089   0.307
    1TYR     BB  701   1.638   3.396   0.565
    1TYR    SC1  702   1.821   3.180   0.425
    1TYR    SC2  703   2.054   3.121   0.302
    1TYR    SC3  704   1.923   2.930   0.441
    2ASP     BB  705   1.846   3.647   0.622
    2ASP    SC1  706   1.721   3.920   0.680
    3TYR     BB  707   2.156   3.574   0.548
    3TYR    SC1  708   2.165   3.302   0.716
    3TYR    SC2  709   2.242   3.046   0.753
    3TYR    SC3  710   2.004   3.131   0.848
    1TYR     BB  711   1.593   7.936   0.173
    1TYR    SC1  712   1.654   7.631   0.122
    1TYR    SC2  713   1.603   7.407   7.980
    1TYR    SC3  714   1.801   7.408   0.163
    2ASP     BB  715   1.462   0.010   7.849
    2ASP    SC1  716   1.370   0.312   7.865
    3TYR     BB  717   1.377   7.748   7.651
    3TYR    SC1  718   1.489   7.762   7.358
    3TYR    SC2  719   1.520   7.902   7.129
    3TYR    SC3  720   1.578   7.638   7.135
    1TYR     BB  721   0.389   5.886   4.477
    1TYR    SC1  722   0.427   5.589   4.506
    1TYR    SC2  723   0.301   5.372   4.407
    1TYR    SC3  724   0.558   5.354   4.488
    2ASP     BB  725   0.123   5.847   4.226
    2ASP    SC1  726   0.267   5.860   3.945
    3TYR     BB  727   7.887   5.601   4.201
    3TYR    SC1  728   0.033   5.409   4.005
    3TYR    SC2  729   0.179   5.385   3.779
    3TYR    SC3  730   0.217   5.212   3.982
    1TYR     BB  731   1.768   2.277   2.660
    1TYR    SC1  732   1.590   2.490   2.795
    1TYR    SC2  733   1.331   2.539   2.854
    1TYR    SC3  734   1.525   2.690   2.965
    2ASP     BB  735   1.836   2.056   2.862
    2ASP    SC1  736   1.976   1.833   2.682
    3TYR     BB  737   1.861   2.143   3.154
    3TYR    SC1  738   1.635   2.330   3.246
    3TYR    SC2  739   1.372   2.372   3.292
    3TYR    SC3  740   1.556   2.543   3.391
    1TYR     BB  741   6.438   4.981   1.511
    1TYR    SC1  742   6.358   5.173   1.286
    1TYR    SC2  743   6.426   5.434   1.274
    1TYR    SC3  744   6.449   5.278   1.055
    2ASP     BB  745   6.760   4.967   1.454
    2ASP    SC1  746   6.892   4.825   1.696
    3TYR     BB  747   6.883   5.251   1.367
    3TYR    SC1  748   6.917   5.228   1.064
    3TYR    SC2  749   7.068   5.283   0.847
    3TYR    SC3  750   6.837   5.145   0.820
    1TYR     BB  751   6.034   1.651   6.050
    1TYR    SC1  752   6.025   1.930   6.181
    1TYR    SC2  753   5.970   2.079   6.400
    1TYR    SC3  754   6.017   2.199   6.163
    2ASP     BB  755   6.190   1.412   6.124
    2ASP    SC1  756   6.215   1.128   5.986
    3TYR     BB  757   6.067   1.284   6.440
    3TYR    SC1  758   6.155   1.538   6.588
    3TYR    SC2  759   6.107   1.758   6.737
    3TYR    SC3  760   6.278   1.771   6.528
    1TYR     BB  761   3.279   0.365   6.028
    1TYR    SC1  762   2.995   0.230   6.021
    1TYR    SC2  763   2.766   0.354   5.952
    1TYR    SC3  764   2.784   0.085   5.936
    2ASP     BB  765   3.194   0.642   5.804
    2ASP    SC1  766   3.359   0.897   5.883
    3TYR     BB  767   3.105   0.552   5.532
    3TYR    SC1  768   3.030   0.252   5.550
    3TYR    SC2  769   2.920   0.011   5.499
    3TYR    SC3  770   3.151   0.027   5.638
    1TYR     BB  771   3.120   5.819   3.852
    1TYR    SC1  772   3.091   5.554   4.009
    1TYR    SC2  773   3.148   5.483   4.264
    1TYR    SC3  774   2.960   5.348   4.125
    2ASP     BB  775   3.243   6.015   4.119
    2ASP    SC1  776   3.007   6.202   4.213
    3TYR     BB  777   3.500   5.974   4.331
    3TYR    SC1  778   3.474   5.704   4.482
    3TYR    SC2  779   3.576   5.454   4.492
    3TYR    SC3  780   3.363   5.519   4.645
    1TYR     BB  781   1.355   1.684   7.764
    1TYR    SC1  782   1.382   1.594   7.464
    1TYR    SC2  783   1.519   1.520   7.243
    1TYR    SC3  784   1.252   1.554   7.231
    2ASP     BB  785   1.543   1.551   7.997
    2ASP    SC1  786   1.453   1.656   0.286
    3TYR     BB  787   1.657   1.240   7.966
    3TYR    SC1  788   1.502   1.160   7.708
    3TYR    SC2  789   1.454   1.129   7.444
    3TYR    SC3  790   1.250   1.181   7.613
    1TYR     BB  791   5.273   0.643   1.108
    1TYR    SC1  792   5.208   0.401   0.937
    1TYR    SC2  793   5.144   0.144   0.882
    1TYR    SC3  794   5.256   0.299   0.691
    2ASP     BB  795   5.007   0.770   1.229
    2ASP    SC1  796   5.059   1.076   1.278
    3TYR     BB  797   4.738   0.676   1.117
    3TYR    SC1  798   4.793   0.562   0.829
    3TYR    SC2  799   4.782   0.366   0.645
    3TYR    SC3  800   4.920   0.591   0.593
    1TYR     BB  801   3.976   3.612   0.454
    1TYR    SC1  802   4.039   3.831   0.669
    1TYR    SC2  803   3.962   3.932   0.908
    1TYR    SC3  804   4.216   3.966   0.823
    2ASP     BB  805   3.936   3.332   0.638
    2ASP    SC1  806   3.957   3.099   0.420
    3TYR     BB  807   4.021   3.425   0.960
    3TYR    SC1  808   4.324   3.393   0.925
    3TYR    SC2  809   4.545   3.246   0.973
    3TYR    SC3  810   4.495   3.335   0.724
    1TYR     BB  811   6.261   5.217   4.539
    1TYR    SC1  812   6.474   5.277   4.320
    1TYR    SC2  813   6.609   5.150   4.124
    1TYR    SC3  814   6.541   5.410   4.094
    2ASP     BB  815   5.993   5.144   4.329
    2ASP    SC1  816   5.995   4.829   4.256
    3TYR     BB  817   6.058   5.282   4.035
    3TYR    SC1  818   6.066   5.589   4.037
    3TYR    SC2  819   5.957   5.774   3.873
    3TYR    SC3  820   5.978   5.823   4.138
    1TYR     BB  821   0.739   3.702   0.822
    1TYR    SC1  822   0.572   3.897   1.001
    1TYR    SC2  823   0.335   3.991   1.090
    1TYR    SC3  824   0.554   4.149   1.094
    2ASP     BB  825   0.899   3.464   0.990
    2ASP    SC1  826   1.010   3.252   0.777
    3TYR     BB  827   0.926   3.496   1.279
    3TYR    SC1  828   0.743   3.727   1.390
    3TYR    SC2  829   0.509   3.832   1.475
    3TYR    SC3  830   0.734   3.982   1.478
    1TYR     BB  831   4.285   3.626   2.969
    1TYR    SC1  832   4.468   3.844   2.838
    1TYR    SC2  833   4.668   3.873   2.659
    1TYR    SC3  834   4.521   4.087   2.733
    2ASP     BB  835   4.036   3.605   2.743
    2ASP    SC1  836   3.967   3.307   2.688
    3TYR     BB  837   4.002   3.841   2.569
    3TYR    SC1  838   4.261   3.910   2.411
    3TYR    SC2  839   4.446   3.834   2.228
    3TYR    SC3  840   4.397   4.096   2.271
    1TYR     BB  841   0.199   2.328   1.019
    1TYR    SC1  842   0.307   2.042   1.023
    1TYR    SC2  843   0.424   1.824   1.133
    1TYR    SC3  844   0.436   1.865   0.866
    2ASP     BB  845   7.958   2.331   0.796
    2ASP    SC1  846   7.711   2.451   0.963
    3TYR     BB  847   7.985   2.020   0.623
    3TYR    SC1  848   0.272   2.072   0.507
    3TYR    SC2  849   0.528   2.020   0.438
    3TYR    SC3  850   0.465   2.251   0.562
    1TYR     BB  851   2.278   6.697   7.984
    1TYR    SC1  852   2.054   6.511   7.866
    1TYR    SC2  853   1.971   6.390   7.639
    1TYR    SC3  854   1.795   6.438   7.837
    2ASP     BB  855   2.541   6.616   7.743
    2ASP    SC1  856   2.803   6.695   7.898
    3TYR     BB  857   2.474   6.391   7.532
    3TYR    SC1  858   2.279   6.437   7.287
    3TYR    SC2  859   2.087   6.556   7.138
    3TYR    SC3  860   2.296   6.434   7.017
    1TYR     BB  861   1.895   3.946   5.930
    1TYR    SC1  862   1.952   3.909   5.631
    1TYR    SC2  863   1.885   3.917   5.370
    1TYR    SC3  864   2.145   3.927   5.443
    2ASP     BB  865   1.901   4.304   5.995
    2ASP    SC1  866   1.846   4.295   6.303
    3TYR     BB  867   2.159   4.568   6.016
    3TYR    SC1  868   2.343   4.414   5.825
    3TYR    SC2  869   2.454   4.380   5.581
    3TYR    SC3  870   2.407   4.166   5.739
    1TYR     BB  871   2.102   6.827   6.682
    1TYR    SC1  872   2.054   6.523   6.645
    1TYR    SC2  873   2.098   6.285   6.526
    1TYR    SC3  874   1.944   6.298   6.748
    2ASP     BB  875   1.754   6.916   6.676
    2ASP    SC1  876   1.754   7.235   6.684
    3TYR     BB  877   1.644   6.717   6.899
    3TYR    SC1  878   1.507   6.463   6.795
    3TYR    SC2  879   1.269   6.337   6.782
    3TYR    SC3  880   1.497   6.200   6.736
    1TYR     BB  881   4.516   6.746   4.187
    1TYR    SC1  882   4.420   6.777   3.886
    1TYR    SC2  883   4.244   6.962   3.798
    1TYR    SC3  884   4.329   6.767   3.632
    2ASP     BB  885   4.462   7.042   4.287
    2ASP    SC1  886   4.157   7.097   4.358
    3TYR     BB  887   4.553   7.286   4.084
    3TYR    SC1  888   4.296   7.396   3.951
    3TYR    SC2  889   4.087   7.567   3.950
    3TYR    SC3  890   4.151   7.432   3.726
    1TYR     BB  891   3.030   1.631   0.759
    1TYR    SC1  892   3.175   1.887   0.692
    1TYR    SC2  893   3.129   2.151   0.661
    1TYR    SC3  894   3.359   2.067   0.774
    2ASP     BB  895   3.160   1.549   1.079
    2ASP    SC1  896   2.897   1.496   1.249
    3TYR     BB  897   3.356   1.757   1.196
    3TYR    SC1  898   3.266   1.957   1.417
    3TYR    SC2  899   3.107   2.154   1.510
    3TYR    SC3  900   3.372   2.160   1.560
    1TYR     BB  901   5.412   1.129   3.737
    1TYR    SC1  902   5.240   0.907   3.860
    1TYR    SC2  903   5.200   0.643   3.897
    1TYR    SC3  904   5.155   0.815   4.099
    2ASP     BB  905   5.528   1.292   4.021
    2ASP    SC1  906   5.699   1.519   3.871
    3TYR     BB  907   5.408   1.195   4.297
    3TYR    SC1  908   5.522   1.257   4.586
    3TYR    SC2  909   5.731   1.260   4.756
    3TYR    SC3  910   5.497   1.375   4.827
    1TYR     BB  911   4.486   0.067   1.592
    1TYR    SC1  912   4.659   0.154   1.346
    1TYR    SC2  913   4.726   0.170   1.085
    1TYR    SC3  914   4.912   0.218   1.275
    2ASP     BB  915   4.281   0.353   1.681
    2ASP    SC1  916   4.086   0.191   1.876
    3TYR     BB  917   4.270   0.589   1.452
    3TYR    SC1  918   4.139   0.855   1.543
    3TYR    SC2  919   4.082   1.095   1.433
    3TYR    SC3  920   4.123   1.074   1.699
    1TYR     BB  921   7.314   5.902   2.030
    1TYR    SC1  922   7.132   5.837   1.796
    1TYR    SC2  923   7.009   5.661   1.633
    1TYR    SC3  924   6.934   5.920   1.633
    2ASP     BB  925   7.130   6.017   2.286
    2ASP    SC1  926   7.300   6.269   2.379
    3TYR     BB  927   6.855   6.128   2.157
    3TYR    SC1  928   6.959   6.276   1.914
    3TYR    SC2  929   6.959   6.474   1.731
    3TYR    SC3  930   7.168   6.304   1.746
    1TYR     BB  931   5.131   2.962   3.670
    1TYR    SC1  932   4.920   3.190   3.706
    1TYR    SC2  933   4.862   3.428   3.594
    1TYR    SC3  934   4.676   3.299   3.741
    2ASP     BB  935   5.077   2.876   3.374
    2ASP    SC1  936   5.330   2.841   3.189
    3TYR     BB  937   4.829   2.960   3.172
    3TYR    SC1  938   4.619   3.106   3.331
    3TYR    SC2  939   4.477   3.336   3.331
    3TYR    SC3  940   4.367   3.109   3.426
    1TYR     BB  941   5.099   1.660   0.128
    1TYR    SC1  942   5.166   1.858   0.339
    1TYR    SC2  943   5.183   2.127   0.347
    1TYR    SC3  944   5.259   1.981   0.561
    2ASP     BB  945   4.786   1.568   0.224
    2ASP    SC1  946   4.822   1.269   0.320
    3TYR     BB  947   4.644   1.745   0.435
    3TYR    SC1  948   4.799   1.957   0.603
    3TYR    SC2  949   4.884   2.030   0.849
    3TYR    SC3  950   4.853   2.216   0.656
    1TYR     BB  951   1.508   0.585   6.142
    1TYR    SC1  952   1.472   0.289   6.242
    1TYR    SC2  953   1.317   0.108   6.369
    1TYR    SC3  954   1.533   0.026   6.229
    2ASP     BB  955   1.279   0.625   5.944
    2ASP    SC1  956   1.295   0.876   5.761
    3TYR     BB  957   1.015   0.531   6.095
    3TYR    SC1  958   1.012   0.225   6.046
    3TYR    SC2  959   0.919   7.972   6.064
    3TYR    SC3  960   1.157   0.020   5.946
    1TYR     BB  961   0.760   2.313   6.613
    1TYR    SC1  962   1.009   2.469   6.528
    1TYR    SC2  963   1.137   2.590   6.323
    1TYR    SC3  964   1.201   2.652   6.578
    2ASP     BB  965   0.791   2.013   6.720
    2ASP    SC1  966   0.677   1.826   6.496
    3TYR     BB  967   1.016   1.958   6.946
    3TYR    SC1  968   1.215   2.183   6.907
    3TYR    SC2  969   1.374   2.399   6.939
    3TYR    SC3  970   1.379   2.261   6.707
    1TYR     BB  971   5.734   2.146   0.745
    1TYR    SC1  972   6.037   2.199   0.667
    1TYR    SC2  973   6.225   2.391   0.686
    1TYR    SC3  974   6.293   2.144   0.600
    2ASP     BB  975   5.733   2.354   1.033
    2ASP    SC1  976   5.481   2.543   1.052
    3TYR     BB  977   5.984   2.534   1.092
    3TYR    SC1  978   6.225   2.361   1.143
    3TYR    SC2  979   6.360   2.206   1.318
    3TYR    SC3  980   6.367   2.149   1.054
    1TYR     BB  981   2.946   3.392   5.302
    1TYR    SC1  982   2.722   3.616   5.347
    1TYR    SC2  983   2.503   3.736   5.246
    1TYR    SC3  984   2.600   3.813   5.486
    2ASP     BB  985   2.759   3.143   5.447
    2ASP    SC1  986   2.822   2.865   5.323
    3TYR     BB  987   2.495   3.231   5.543
    3TYR    SC1  988   2.457   3.470   5.730
    3TYR    SC2  989   2.317   3.685   5.815
    3TYR    SC3  990   2.456   3.535   5.992
    1TYR     BB  991   1.231   0.691   0.631
    1TYR    SC1  992   1.464   0.648   0.437
    1TYR    SC2  993   1.704   0.718   0.335
    1TYR    SC3  994   1.604   0.471   0.289
    2ASP     BB  995   1.323   0.885   0.898
    2ASP    SC1  996   1.297   0.669   1.138
    3TYR     BB  997   1.582   1.070   0.929
    3TYR    SC1  998   1.716   0.985   1.190
    3TYR    SC2  999   1.724   1.010   1.459
    3TYR    SC3 1000   1.754   0.767   1.345
    4W        W 1001   0.593   1.569   2.087
    5W        W 1002   4.102   5.684   1.513
    6W        W 1003   4.983   7.270   1.784
    7W        W 1004   3.789   4.693   0.016
    8W        W 1005   5.669   0.745   4.088
    9W        W 1006   3.586   7.249   2.275
   10W        W 1007   2.525   3.534   3.086
   11W        W 1008   3.241   7.103   5.281
   12W        W 1009   3.134   3.579   6.278
   13W        W 1010   4.159   2.472   5.947
   14W        W 1011   6.408   2.503   3.358
   15W        W 1012   1.393   6.687   5.991
   16W        W 1013   2.818   6.870   5.071
   17W        W 1014   7.008   3.463   3.688
   18W        W 1015   5.951   6.235   3.180
   19W        W 1016   7.363   2.979   2.035
   20W        W 1017   3.656   2.178   1.161
   21W        W 1018   4.589   4.219   4.080
   22W        W 1019   2.976   5.935   3.375
   23W        W 1020   4.192   5.168   1.425
   24W        W 1021   0.214   3.247   4.093
   25W        W 1022   2.030   5.873   4.893
   26W        W 1023   5.312   2.227   5.375
   27W        W 1024   0.626   6.411   3.799
   28W        W 1025   2.927   1.171   5.004
   29W        W 1026   1.362   7.330   5.702
   30W        W 1027   0.218   4.701   4.010
   31W        W 1028   6.778   4.599   2.345
   32W        W 1029   7.486   6.834   5.556
   33W        W 1030   4.469   0.838   4.353
   34W        W 1031   3.992   6.201   1.360
   35W        W 1032   3.286   3.877   2.640
   36W        W 1033   3.555   3.613   0.838
   37W        W 1034   2.690   6.956   2.623
   38W        W 1035   1.746   7.218   5.318
   39W        W 1036   7.232   7.038   2.195
   40W        W 1037   2.349   0.960   3.911
   41W        W 1038   3.751   4.404   6.838
   42W        W 1039   7.633   2.642   3.906
   43W        W 1040   4.384   2.052   6.166
   44W        W 1041   4.675   6.380   2.586
   45W        W 1042   5.666   1.549   2.803
   46W        W 1043   4.943   5.607   6.213
   47W        W 1044   0.911   2.149   6.169
   48W        W 1045   4.639   0.929   7.995
   49W        W 1046   0.798   5.504   2.011
   50W        W 1047   2.611   6.897   0.354
   51W        W 1048   1.161   3.347   3.919
   52W        W 1049   3.791   0.461   1.556
   53W        W 1050   6.402   1.057   3.653
   54W        W 1051   1.618   0.834   3.396
   55W        W 1052   1.687   2.587   3.867
   56W        W 1053   1.516   7.121   1.605
   57W        W 1054   1.832   5.921   3.860
   58W        W 1055   5.117   5.749   0.601
   59W        W 1056   4.015   5.288   2.833
   60W        W 1057   2.232   4.442   2.834
   61W        W 1058   6.182   1.470   4.626
   62W        W 1059   1.085   1.957   0.105
   63W        W 1060   2.167   7.286   1.257
   64W        W 1061   6.351   3.562   3.752
   65W        W 1062   3.245   3.493   4.369
   66W        W 1063   3.393   4.473   0.453
   67W        W 1064   4.967   0.544   2.057
   68W        W 1065   3.392   3.526   5.065
   69W        W 1066   6.789   6.272   2.632
   70W        W 1067   3.173   0.862   7.165
   71W        W 1068   5.813   1.238   0.651
   72W        W 1069   7.219   3.302   1.303
   73W        W 1070   5.669   4.729   7.060
   74W        W 1071   5.850   5.111   7.858
   75W        W 1072   5.862   5.435   6.478
   76W        W 1073   0.661   1.661   0.080
   77W        W 1074   5.837   1.875   2.426
   78W        W 1075   5.497   5.968   4.035
   79W        W 1076   1.866   2.245   6.810
   80W        W 1077   6.330   7.152   0.520
   81W        W 1078   1.210   4.516   3.075
   82W        W 1079   7.950   6.681   4.971
   83W        W 1080   0.836   1.899   4.646
   84W        W 1081   1.925   0.654   6.849
   85W        W 1082   4.091   4.113   3.990
   86W        W 1083   0.197   6.496   1.409
   87W        W 1084   5.649   6.772   2.627
   88W        W 1085   6.198   5.818   5.399
   89W        W 1086   5.312   3.950   4.751
   90W        W 1087   7.883   3.367   5.426
   91W        W 1088   5.210   5.155   4.235
   92W        W 1089   5.724   4.290   1.452
   93W        W 1090   6.305   0.231   2.191
   94W        W 1091   2.177   4.581   6.571
   95W        W 1092   7.884   5.441   1.537
   96W        W 1093   7.107   3.891   1.758
   97W        W 1094   3.381   4.614   4.792
   98W        W 1095   3.970   5.449   5.445
   99W        W 1096   7.965   3.612   3.476
  100W        W 1097   6.104   6.699   1.276
  101W        W 1098   2.932   4.291   5.684
  102W        W 1099   7.259   0.312   6.862
  103W        W 1100   2.948   4.635   0.253
  104W        W 1101   4.050   1.112   4.324
  105W        W 1102   3.555   5.094   4.874
  106W        W 1103   7.762   6.912   1.483
  107W        W 1104   4.203   1.055   7.753
  108W        W 1105   0.262   3.352   5.792
  109W        W 1106   0.467   2.559   1.381
  110W        W 1107   5.323   6.882   5.910
  111W        W 1108   1.700   0.260   2.581
  112W        W 1109   1.226   6.815   1.294
  113W        W 1110   1.866   0.651   5.797
  114W        W 1111   3.764   2.385   4.069
  115W        W 1112   5.704   0.258   6.129
  116W        W 1113   2.349   7.943   0.766
  117W        W 1114   3.785   4.628   2.967
  118W        W 1115   3.343   4.622   7.067
  119W        W 1116   2.389   4.868   3.476
  120W        W 1117   2.967   4.472   1.757
  121W        W 1118   1.149   6.105   5.108
  122W        W 1119   6.406   3.163   5.114
  123W        W 1120   3.939   5.013   5.182
  124W        W 1121   5.576   6.710   7.566
  125W        W 1122   3.533   0.923   2.126
  126W        W 1123   5.867   3.663   3.952
  127W        W 1124   2.549   2.599   2.310
  128W        W 1125   4.852   2.512   7.789
  129W        W 1126   7.409   5.752   3.663
  130W        W 1127   4.113   2.893   5.601
  131W        W 1128   7.058   5.501   2.166
  132W        W 1129   6.254   7.684   5.863
  133W        W 1130   2.533   2.278   1.330
  134W        W 1131   1.043   5.402   3.682
  135W        W 1132   4.666   5.464   2.736
  136W        W 1133   3.530   6.536   0.570
  137W        W 1134   3.779   6.396   4.505
  138W        W 1135   1.247   2.088   5.568
  139W        W 1136   5.950   6.708   3.017
  140W        W 1137   3.224   4.339   2.846
  141W        W 1138   3.551   4.539   2.493
  142W        W 1139   4.274   5.171   2.233
  143W        W 1140   3.070   1.305   4.313
  144W        W 1141   4.238   3.241   1.384
  145W        W 1142   2.477   6.678   3.733
  146W        W 1143   5.128   6.855   7.361
  147W        W 1144   3.607   5.654   0.763
  148W        W 1145   6.346   6.052   2.784
  149W        W 1146   0.325   4.714   5.972
  150W        W 1147   0.919   4.436   1.328
  151W        W 1148   0.263   1.117   0.746
  152W        W 1149   0.666   4.477   1.900
  153W        W 1150   4.781   4.809   6.156
  154W        W 1151   3.253   7.401   3.773
  155W        W 1152   6.767   2.922   7.047
  156W        W 1153   4.304   3.001   2.311
  157W        W 1154   0.942   1.131   7.211
  158W        W 1155   7.971   3.852   5.150
  159W        W 1156   6.893   1.749   5.651
  160W        W 1157   2.629   4.647   1.439
  161W        W 1158   0.409   5.828   6.162
  162W        W 1159   6.939   0.973   1.388
  163W        W 1160   1.242   0.573   6.588
  164W        W 1161   7.159   5.315   4.841
  165W        W 1162   0.594   6.371   1.713
  166W        W 1163   5.828   3.074   7.690
  167W        W 1164   2.770   5.898   1.826
  168W        W 1165   7.125   6.809   6.802
  169W        W 1166   3.993   1.542   4.094
  170W        W 1167   0.568   6.942   2.695
  171W        W 1168   3.751   3.701   1.320
  172W        W 1169   7.842   1.327   0.501
  173W        W 1170   1.513   6.333   5.429
  174W        W 1171   2.870   6.741   1.829
  175W        W 1172   6.237   2.612   2.841
  176W        W 1173   5.995   1.600   7.702
  177W        W 1174   7.289   5.198   6.554
  178W        W 1175   2.987   4.270   3.282
  179W        W 1176   3.817   0.766   3.555
  180W        W 1177   7.494   5.518   4.517
  181W        W 1178   5.176   2.114   7.848
  182W        W 1179   4.498   3.871   6.243
  183W        W 1180   2.911   4.810   4.842
  184W        W 1181   6.102   3.419   4.781
  185W        W 1182   2.243   3.513   2.080
  186W        W 1183   1.295   1.256   5.283
  187W        W 1184   3.088   7.276   2.409
  188W        W 1185   1.393   6.674   1.803
  189W        W 1186   1.069   1.991   3.389
  190W        W 1187   3.718   4.420   3.827
  191W        W 1188   5.952   4.223   0.993
  192W        W 1189   4.454   0.761   1.959
  193W        W 1190   2.617   3.470   0.819
  194W        W 1191   1.412   2.954   2.523
  195W        W 1192   2.478   0.526   4.141
  196W        W 1193   2.596   6.382   0.240
  197W        W 1194   0.531   2.116   1.888
  198W        W 1195   5.889   5.831   2.878
  199W        W 1196   1.584   0.233   5.754
  200W        W 1197   5.143   7.029   5.250
  201W        W 1198   6.111   2.501   0.221
  202W        W 1199   5.973   2.280   4.897
  203W        W 1200   3.582   4.033   4.128
  204W        W 1201   2.378   4.915   1.065
  205W        W 1202   5.519   6.643   4.394
  206W        W 1203   3.057   2.231   7.686
  207W        W 1204   0.457   5.098   0.658
  208W        W 1205   3.654   2.802   1.826
  209W        W 1206   1.136   3.562   2.838
  210W        W 1207   7.271   1.011   6.788
  211W        W 1208   3.896   3.551   5.425
  212W        W 1209   2.065   4.949   6.916
  213W        W 1210   4.549   6.153   6.422
  214W        W 1211   5.360   6.467   3.924
  215W        W 1212   5.619   7.678   4.372
  216W        W 1213   7.247   6.146   5.020
  217W        W 1214   6.118   7.766   6.370
  218W        W 1215   1.094   4.541   0.860
  219W        W 1216   2.429   6.194   4.873
  220W        W 1217   2.178   2.690   3.955
  221W        W 1218   1.604   0.252   1.208
  222W        W 1219   0.325   0.512   4.189
  223W        W 1220   1.432   3.533   6.149
  224W        W 1221   3.869   0.766   1.122
  225W        W 1222   7.305   5.237   2.968
  226W        W 1223   6.606   2.650   7.482
  227W        W 1224   6.102   7.197   7.512
  228W        W 1225   1.123   4.987   3.396
  229W        W 1226   1.445   4.581   2.031
  230W        W 1227   0.829   1.415   4.503
  231W        W 1228   6.611   7.122   7.614
  232W        W 1229   5.750   3.271   0.501
  233W        W 1230   1.865   5.276   1.743
  234W        W 1231   3.756   3.952   3.631
  235W        W 1232   3.002   2.372   2.185
  236W        W 1233   7.950   5.669   4.706
  237W        W 1234   6.859   1.988   0.619
  238W        W 1235   6.900   6.911   1.057
  239W        W 1236   3.156   1.777   6.438
  240W        W 1237   7.930   2.178   6.273
  241W        W 1238   1.548   4.362   5.196
  242W        W 1239   1.948   4.660   0.951
  243W        W 1240   4.501   5.948   2.813
  244W        W 1241   2.352   1.370   4.204
  245W        W 1242   1.752   2.018   0.053
  246W        W 1243   2.449   5.361   4.234
  247W        W 1244   6.606   3.535   4.840
  248W        W 1245   5.125   0.870   5.697
  249W        W 1246   2.575   7.257   5.916
  250W        W 1247   1.850   2.756   4.330
  251W        W 1248   1.366   5.158   0.218
  252W        W 1249   5.950   1.417   5.621
  253W        W 1250   6.495   4.237   3.107
  254W        W 1251   1.839   4.283   3.755
  255W        W 1252   7.105   7.150   2.712
  256W        W 1253   1.050   7.799   1.839
  257W        W 1254   3.758   4.544   1.263
  258W        W 1255   2.714   4.152   4.279
  259W        W 1256   4.770   6.229   1.689
  260W        W 1257   3.712   1.118   3.924
  261W        W 1258   2.771   7.087   1.469
  262W        W 1259   1.984   4.174   1.049
  263W        W 1260   2.517   3.279   5.033
  264W        W 1261   0.832   4.642   2.733
  265W        W 1262   2.307   1.359   3.598
  266W        W 1263   5.234   6.851   1.679
  267W        W 1264   5.607   3.402   2.677
  268W        W 1265   7.676   5.560   2.841
  269W        W 1266   5.819   4.565   6.585
  270W        W 1267   1.742   5.395   0.500
  271W        W 1268   1.064   4.217   1.770
  272W        W 1269   7.245   5.252   3.509
  273W        W 1270   3.976   5.366   4.176
  274W        W 1271   0.010   4.960   5.179
  275W        W 1272   7.522   6.012   4.586
  276W        W 1273   4.327   5.861   3.637
  277W        W 1274   5.132   4.593   7.647
  278W        W 1275   1.619   3.827   1.166
  279W        W 1276   1.973   4.391   5.486
  280W        W 1277   6.777   7.230   2.301
  281W        W 1278   1.459   5.681   3.545
  282W        W 1279   5.497   3.318   0.045
  283W        W 1280   6.586   5.934   5.038
  284W        W 1281   2.840   4.418   7.039
  285W        W 1282   5.792   5.816   7.773
  286W        W 1283   2.646   4.626   3.117
  287W        W 1284   4.189   0.972   5.297
  288W        W 1285   4.069   3.574   1.717
  289W        W 1286   1.482   5.794   0.933
  290W        W 1287   0.576   2.180   3.460
  291W        W 1288   2.536   2.662   2.845
  292W        W 1289   3.785   7.048   7.772
  293W        W 1290   7.876   6.665   1.051
  294W        W 1291   1.853   1.754   7.613
  295W        W 1292   0.007   5.179   1.967
  296W        W 1293   6.817   5.462   3.320
  297W        W 1294   2.541   4.238   6.640
  298W        W 1295   0.883   5.220   1.586
  299W        W 1296   0.489   5.210   1.221
  300W        W 1297   4.668   6.912   4.733
  301W        W 1298   4.837   0.866   7.092
  302W        W 1299   2.789   2.142   3.622
  303W        W 1300   6.191   0.966   0.935
  304W        W 1301   2.110   2.217   6.370
  305W        W 1302   4.336   6.855   1.105
  306W        W 1303   4.878   2.959   0.714
  307W        W 1304   6.767   4.080   1.439
  308W        W 1305   2.638   2.729   6.328
  309W        W 1306   5.974   0.756   6.744
  310W        W 1307   0.964   3.598   6.887
  311W        W 1308   1.719   1.043   6.076
  312W        W 1309   6.328   6.719   7.466
  313W        W 1310   7.146   6.924   4.716
  314W        W 1311   2.724   4.365   2.684
  315W        W 1312   5.272   3.783   2.584
  316W        W 1313   6.546   4.717   3.381
  317W        W 1314   5.243   5.316   1.709
  318W        W 1315   1.717   1.388   2.524
  319W        W 1316   3.108   0.892   4.617
  320W        W 1317   2.174   6.817   3.337
  321W        W 1318   6.774   1.745   7.367
  322W        W 1319   1.195   4.428   7.674
  323W        W 1320   5.635   4.995   3.956
  324W        W 1321   3.246   1.575   0.250
  325W        W 1322   7.019   5.494   5.603
  326W        W 1323   2.471   6.012   6.791
  327W        W 1324   7.181   3.814   1.250
  328W        W 1325   6.665   6.747   0.537
  329W        W 1326   6.416   3.769   1.197
  330W        W 1327   6.765   6.244   1.271
  331W        W 1328   5.103   2.042   3.399
  332W        W 1329   3.273   5.774   2.420
  333W        W 1330   6.375   3.981   6.255
  334W        W 1331   0.953   2.395   5.310
  335W        W 1332   2.406   1.826   4.680
  336W        W 1333   1.598   6.367   2.145
  337W        W 1334   0.908   1.843   0.998
  338W        W 1335   3.273   1.796   2.994
  339W        W 1336   7.512   4.807   5.260
  340W        W 1337   5.719   1.091   5.235
  341W        W 1338   2.826   3.924   6.928
  342W        W 1339   7.202   3.404   1.813
  343W        W 1340   6.402   7.078   7.109
  344W        W 1341   5.926   6.343   7.512
  345W        W 1342   1.878   0.768   1.874
  346W        W 1343   0.153   2.834   1.025
  347W        W 1344   2.714   5.158   1.342
  348W        W 1345   5.616   2.677   2.036
  349W        W 1346   5.683   3.221   3.184
  350W        W 1347   7.899   3.727   4.665
  351W        W 1348   5.291   5.882   7.760
  352W        W 1349   4.439   3.089   4.297
  353W        W 1350   1.073   4.737   1.705
  354W        W 1351   4.573   6.729   7.168
  355W        W 1352   6.594   1.643   1.813
  356W        W 1353   5.272   1.586   3.564
  357W        W 1354   5.975   3.210   3.771
  358W        W 1355   4.700   4.973   6.972
  359W        W 1356   5.139   3.845   0.808
  360W        W 1357   4.434   2.933   0.421
  361W        W 1358   4.550   1.611   2.324
  362W        W 1359   0.504   2.024   4.260
  363W        W 1360   7.335   3.012   4.990
  364W        W 1361   4.237   4.971   5.620
  365W        W 1362   2.503   0.325   5.529
  366W        W 1363   6.619   2.313   2.693
  367W        W 1364   2.275   5.444   5.002
  368W        W 1365   2.482   4.715   0.059
  369W        W 1366   7.942   4.344   5.329
  370W        W 1367   6.146   5.886   7.408
  371W        W 1368   7.243   5.211   1.738
  372W        W 1369   7.857   3.446   6.692
  373W        W 1370   4.944   0.115   1.784
  374W        W 1371   6.416   5.050   5.001
  375W        W 1372   4.432   0.888   6.778
  376W        W 1373   1.914   5.094   1.223
  377W        W 1374   2.249   4.331   2.323
  378W        W 1375   0.660   0.161   2.180
  379W        W 1376   6.687   1.027   0.198
  380W        W 1377   5.759   7.285   6.521
  381W        W 1378   1.505   4.674   3.884
  382W        W 1379   6.994   6.462   0.839
  383W        W 1380   3.805   4.985   4.448
  384W        W 1381   6.882   1.498   1.385
  385W        W 1382   6.281   3.912   2.261
  386W        W 1383   3.566   1.226   3.454
  387W        W 1384   0.032   3.478   1.538
  388W        W 1385   0.348   1.304   1.236
  389W        W 1386   1.077   0.797   5.313
  390W        W 1387   4.909   6.390   7.361
  391W        W 1388   5.130   4.582   2.144
  392W        W 1389   1.127   4.502   3.580
  393W        W 1390   5.465   7.284   2.014
  394W        W 1391   1.814   2.986   3.307
  395W        W 1392   2.680   4.089   7.402
  396W        W 1393   6.227   5.821   6.385
  397W        W 1394   1.002   3.841   4.211
  398W        W 1395   3.596   2.312   5.756
  399W        W 1396   0.795   5.818   7.349
  400W        W 1397   0.764   2.045   5.700
  401W        W 1398   2.997   6.836   3.035
  402W        W 1399   6.415   3.443   6.533
  403W        W 1400   4.591   1.023   1.475
  404W        W 1401   3.848   1.765   5.075
  405W        W 1402   6.082   2.158   7.006
  406W        W 1403   2.165   0.825   0.946
  407W        W 1404   3.625   1.873   0.408
  408W        W 1405   6.474   5.013   5.529
  409W        W 1406   0.237   6.163   6.617
  410W        W 1407   0.873   2.042   3.856
  411W        W 1408   7.492   1.648   2.204
  412W        W 1409   2.682   2.109   7.239
  413W        W 1410   2.498   1.304   3.129
  414W        W 1411   0.532   4.034   4.203
  415W        W 1412   6.013   0.993   3.307
  416W        W 1413   3.526   2.308   4.519
  417W        W 1414   4.517   3.037   7.136
  418W        W 1415   2.579   4.808   6.825
  419W        W 1416   5.353   3.417   2.165
  420W        W 1417   0.307   6.020   5.681
  421W        W 1418   6.923   0.098   6.512
  422W        W 1419   7.033   1.437   6.643
  423W        W 1420   0.195   2.135   1.501
  424W        W 1421   6.437   4.903   6.628
  425W        W 1422   4.118   6.636   3.193
  426W        W 1423   1.775   4.771   5.705
  427W        W 1424   6.047   0.282   6.557
  428W        W 1425   5.237   2.933   5.267
  429W        W 1426   2.078   4.729   7.398
  430W        W 1427   6.341   6.504   4.914
  431W        W 1428   0.996   2.184   0.589
  432W        W 1429   7.606   4.581   1.180
  433W        W 1430   6.268   4.417   3.980
  434W        W 1431   4.534   6.431   2.099
  435W        W 1432   5.242   4.034   5.614
  436W        W 1433   6.636   1.502   2.813
  437W        W 1434   2.947   4.817   7.768
  438W        W 1435   5.596   5.094   0.910
  439W        W 1436   3.575   0.301   3.660
  440W        W 1437   2.940   0.588   1.523
  441W        W 1438   7.019   2.406   0.373
  442W        W 1439   1.501   0.431   7.060
  443W        W 1440   4.890   6.755   0.824
  444W        W 1441   1.623   5.710   5.756
  445W        W 1442   3.277   4.194   6.810
  446W        W 1443   5.913   3.409   5.765
  447W        W 1444   4.926   3.534   4.087
  448W        W 1445   2.890   1.991   1.097
  449W        W 1446   5.940   7.308   7.011
  450W        W 1447   0.174   3.328   2.418
  451W        W 1448   5.260   1.388   3.077
  452W        W 1449   7.602   3.285   3.273
  453W        W 1450   0.806   1.025   7.784
  454W        W 1451   3.217   1.961   2.435
  455W        W 1452   1.932   2.287   7.653
  456W        W 1453   6.732   3.873   3.907
  457W        W 1454   6.623   6.323   5.378
  458W        W 1455   7.978   1.329   6.535
  459W        W 1456   4.425   1.664   2.833
  460W        W 1457   0.325   6.457   0.922
  461W        W 1458   3.027   3.835   4.028
  462W        W 1459   2.543   4.527   4.569
  463W        W 1460   0.665   7.436   6.718
  464W        W 1461   1.340   7.250   2.381
  465W        W 1462   1.661   3.207   5.613
  466W        W 1463   4.742   2.141   0.137
  467W        W 1464   2.920   2.144   4.124
  468W        W 1465   0.248   1.308   1.769
  469W        W 1466   6.506   7.833   3.110
  470W        W 1467   2.397   3.037   2.063
  471W        W 1468   6.273   7.170   0.011
  472W        W 1469   2.854   2.973   3.779
  473W        W 1470   6.555   2.695   5.336
  474W        W 1471   1.452   3.370   1.042
  475W        W 1472   6.954   2.203   4.914
  476W        W 1473   7.470   3.880   4.857
  477W        W 1474   0.564   4.507   4.386
  478W        W 1475   0.104   3.128   3.286
  479W        W 1476   4.023   2.472   7.737
  480W        W 1477   6.965   2.890   1.085
  481W        W 1478   1.156   5.493   2.393
  482W        W 1479   4.953   3.134   2.047
  483W        W 1480   2.760   7.293   5.431
  484W        W 1481   3.906   4.649   4.796
  485W        W 1482   6.500   7.356   1.884
  486W        W 1483   6.736   7.465   5.879
  487W        W 1484   2.181   5.512   1.417
  488W        W 1485   6.839   6.643   7.524
  489W        W 1486   6.359   3.781   3.279
  490W        W 1487   2.442   2.742   5.635
  491W        W 1488   2.451   5.089   7.233
  492W        W 1489   2.209   2.322   5.532
  493W        W 1490   5.433   2.009   2.705
  494W        W 1491   6.466   2.088   3.683
  495W        W 1492   4.708   0.936   3.902
  496W        W 1493   3.514   3.189   4.696
  497W        W 1494   3.004   1.364   3.005
  498W        W 1495   4.988   6.709   2.963
  499W        W 1496   0.113   6.378   5.355
  500W        W 1497   0.736   5.509   7.841
  501W        W 1498   5.174   6.480   2.551
  502W        W 1499   6.931   1.868   3.582
  503W        W 1500   3.597   3.555   2.376
  504W        W 1501   4.822   3.413   7.331
  505W        W 1502   2.732   0.724   5.225
  506W        W 1503   1.869   2.026   4.655
  507W        W 1504   1.483   4.780   1.130
  508W        W 1505   3.032   6.775   0.708
  509W        W 1506   0.526   3.431   6.583
  510W        W 1507   7.158   4.466   2.765
  511W        W 1508   0.638   1.742   7.205
  512W        W 1509   5.192   4.735   3.926
  513W        W 1510   3.827   4.412   0.764
  514W        W 1511   5.009   3.053   7.008
  515W        W 1512   1.171   3.213   4.823
  516W        W 1513   6.534   7.462   6.367
  517W        W 1514   4.667   3.762   0.972
  518W        W 1515   5.125   6.481   7.838
  519W        W 1516   7.869   6.397   0.604
  520W        W 1517   7.375   0.288   6.365
  521W        W 1518   6.087   6.072   4.985
  522W        W 1519   5.871   6.013   0.337
  523W        W 1520   4.556   2.983   1.703
  524W        W 1521   2.485   3.510   2.551
  525W        W 1522   2.956   1.569   5.516
  526W        W 1523   4.496   2.793   1.228
  527W        W 1524   7.062   0.066   6.023
  528W        W 1525   6.008   0.975   1.443
  529W        W 1526   0.473   5.689   0.957
  530W        W 1527   0.136   3.369   4.947
  531W        W 1528   5.940   3.815   7.212
  532W        W 1529   1.473   4.594   6.071
  533W        W 1530   1.211   5.940   5.579
  534W        W 1531   4.012   1.522   6.020
  535W        W 1532   4.408   6.698   0.591
  536W        W 1533   7.000   4.347   6.006
  537W        W 1534   7.418   5.285   2.462
  538W        W 1535   0.262   3.576   3.057
  539W        W 1536   1.679   6.267   7.217
  540W        W 1537   6.064   1.945   3.360
  541W        W 1538   3.098   1.052   5.464
  542W        W 1539   5.393   3.468   1.430
  543W        W 1540   0.210   3.846   6.639
  544W        W 1541   3.635   6.444   6.283
  545W        W 1542   7.957   6.213   7.175
  546W        W 1543   5.640   4.637   1.106
  547W        W 1544   4.977   5.503   7.609
  548W        W 1545   7.542   2.246   6.649
  549W        W 1546   4.948   5.298   5.302
  550W        W 1547   0.482   2.130   2.935
  551W        W 1548   3.526   4.110   1.063
  552W        W 1549   3.138   5.198   3.674
  553W        W 1550   0.249   4.249   2.040
  554W        W 1551   0.545   4.303   5.758
  555W        W 1552   2.181   2.172   2.319
  556W        W 1553   5.382   0.813   0.634
  557W        W 1554   7.960   2.423   6.891
  558W        W 1555   5.024   3.596   1.777
  559W        W 1556   2.718   6.984   4.547
  560W        W 1557   1.911   2.744   5.689
  561W        W 1558   2.255   0.968   4.507
  562W        W 1559   4.038   2.591   0.482
  563W        W 1560   5.119   5.009   6.661
  564W        W 1561   4.914   5.779   5.188
  565W        W 1562   2.686   0.778   5.734
  566W        W 1563   7.340   4.537   5.657
  567W        W 1564   0.164   5.474   6.433
  568W        W 1565   2.235   6.896   5.803
  569W        W 1566   6.624   0.754   1.066
  570W        W 1567   2.291   3.052   3.069
  571W        W 1568   1.901   5.397   7.099
  572W        W 1569   4.384   1.350   5.601
  573W        W 1570   7.024   2.963   1.627
  574W        W 1571   1.958   4.672   5.069
  575W        W 1572   3.680   7.419   1.748
  576W        W 1573   1.375   6.980   4.705
  577W        W 1574   3.571   4.711   6.037
  578W        W 1575   5.672   1.357   1.264
  579W        W 1576   3.118   1.266   6.319
  580W        W 1577   6.674   4.569   4.819
  581W        W 1578   3.601   3.532   6.096
  582W        W 1579   5.242   1.122   6.143
  583W        W 1580   4.910   6.601   1.334
  584W        W 1581   2.434   3.108   4.035
  585W        W 1582   5.429   7.076   6.876
  586W        W 1583   1.418   2.300   5.089
  587W        W 1584   5.322   5.959   6.394
  588W        W 1585   2.946   4.525   6.566
  589W        W 1586   6.128   0.172   5.075
  590W        W 1587   4.894   3.209   4.491
  591W        W 1588   7.824   6.495   4.166
  592W        W 1589   5.184   1.589   1.221
  593W        W 1590   6.199   3.127   6.066
  594W        W 1591   6.992   4.623   4.390
  595W        W 1592   3.104   2.547   3.647
  596W        W 1593   6.949   0.916   0.636
  597W        W 1594   6.150   2.946   0.496
  598W        W 1595   5.363   4.664   1.534
  599W        W 1596   0.743   7.013   6.431
  600W        W 1597   0.417   2.152   6.116
  601W        W 1598   7.225   4.035   3.040
  602W        W 1599   2.270   1.280   6.815
  603W        W 1600   5.410   0.182   1.995
  604W        W 1601   3.377   2.649   6.964
  605W        W 1602   4.487   0.779   4.880
  606W        W 1603   4.142   1.266   6.944
  607W        W 1604   0.925   5.578   6.922
  608W        W 1605   6.322   3.484   7.037
  609W        W 1606   5.623   1.371   7.445
  610W        W 1607   1.759   7.035   5.796
  611W        W 1608   5.938   3.869   5.041
  612W        W 1609   5.853   6.329   4.076
  613W        W 1610   6.672   6.725   4.559
  614W        W 1611   2.039   1.692   3.297
  615W        W 1612   7.557   3.484   6.243
  616W        W 1613   4.739   3.834   7.063
  617W        W 1614   5.486   5.438   3.171
  618W        W 1615   2.782   3.689   4.471
  619W        W 1616   3.202   4.716   5.701
  620W        W 1617   7.830   2.636   6.446
  621W        W 1618   3.915   5.075   6.017
  622W        W 1619   6.953   0.216   3.739
  623W        W 1620   1.065   3.269   3.403
  624W        W 1621   7.846   4.755   5.660
  625W        W 1622   3.716   1.914   4.262
  626W        W 1623   2.514   6.183   4.381
  627W        W 1624   5.754   6.505   0.423
  628W        W 1625   5.496   3.135   6.862
  629W        W 1626   6.591   1.552   6.884
  630W        W 1627   4.745   4.967   4.424
  631W        W 1628   6.608   5.445   5.271
  632W        W 1629   3.071   0.283   6.521
  633W        W 1630   2.989   1.135   0.806
  634W        W 1631   4.036   6.785   7.387
  635W        W 1632   6.956   7.193   3.777
  636W        W 1633   5.554   4.863   1.951
  637W        W 1634   3.964   5.857   2.878
  638W        W 1635   3.673   6.020   4.831
  639W        W 1636   2.738   1.698   4.303
  640W        W 1637   7.731   6.004   3.101
  641W        W 1638   1.916   3.989   0.202
  642W        W 1639   4.896   7.696   1.494
  643W        W 1640   3.518   6.444   4.045
  644W        W 1641   5.356   5.457   6.479
  645W        W 1642   1.142   4.215   2.254
  646W        W 1643   0.985   1.277   1.819
  647W        W 1644   6.807   6.228   5.863
  648W        W 1645   5.298   1.616   6.045
  649W        W 1646   1.514   5.184   3.754
  650W        W 1647   1.544   3.141   1.491
  651W        W 1648   1.407   3.840   7.043
  652W        W 1649   1.137   3.656   5.737
  653W        W 1650   5.841   7.033   0.356
  654W        W 1651   1.845   2.445   0.368
  655W        W 1652   7.655   6.402   1.484
  656W        W 1653   4.538   6.919   3.131
  657W        W 1654   1.794   5.018   4.745
  658W        W 1655   4.720   4.111   4.728
  659W        W 1656   3.088   4.848   6.214
  660W        W 1657   1.869   6.072   3.363
  661W        W 1658   6.526   0.412   6.362
  662W        W 1659   4.220   6.657   4.588
  663W        W 1660   2.661   5.149   5.108
  664W        W 1661   2.994   2.661   2.626
  665W        W 1662   3.220   0.557   2.324
  666W        W 1663   6.553   0.834   2.112
  667W        W 1664   3.658   1.104   6.927
  668W        W 1665   4.234   4.659   2.147
  669W        W 1666   5.481   5.691   3.629
  670W        W 1667   3.668   2.717   4.856
  671W        W 1668   3.335   3.419   1.260
  672W        W 1669   3.128   5.330   5.045
  673W        W 1670   7.345   2.534   4.846
  674W        W 1671   5.618   3.545   4.835
  675W        W 1672   4.179   0.683   5.750
  676W        W 1673   3.791   4.285   6.148
  677W        W 1674   4.703   2.683   2.113
  678W        W 1675   1.668   1.361   3.411
  679W        W 1676   7.025   4.121   4.277
  680W        W 1677   0.186   3.628   2.003
  681W        W 1678   4.359   2.427   5.465
  682W        W 1679   6.477   0.757   1.586
  683W        W 1680   3.685   1.295   2.423
  684W        W 1681   4.864   1.043   3.000
  685W        W 1682   6.588   4.255   3.607
  686W        W 1683   4.544   4.828   0.148
  687W        W 1684   0.863   5.296   7.356
  688W        W 1685   1.279   4.613   5.546
  689W        W 1686   7.217   2.889   2.557
  690W        W 1687   5.108   6.167   4.265
  691W        W 1688   5.656   4.571   3.709
  692W        W 1689   7.137   5.968   0.798
  693W        W 1690   6.568   2.645   0.459
  694W        W 1691   7.342   0.699   3.177
  695W        W 1692   3.129   4.273   2.348
  696W        W 1693   6.897   2.891   3.520
  697W        W 1694   6.040   4.963   6.313
  698W        W 1695   7.908   5.450   2.385
  699W        W 1696   5.063   5.675   2.965
  700W        W 1697   4.940   1.927   2.297
  701W        W 1698   2.892   7.233   7.040
  702W        W 1699   0.891   1.790   2.949
  703W        W 1700   0.270   5.563   0.417
  704W        W 1701   3.437   1.389   7.790
  705W        W 1702   6.129   6.320   5.504
  706W        W 1703   1.138   3.029   1.210
  707W        W 1704   3.569   1.310   2.957
  708W        W 1705   1.137   3.751   2.007
  709W        W 1706   1.158   5.451   1.234
  710W        W 1707   0.103   1.967   7.103
  711W        W 1708   5.914   0.587   0.003
  712W        W 1709   7.581   6.525   4.631
  713W        W 1710   5.345   6.845   2.214
  714W        W 1711   4.254   7.248   2.851
  715W        W 1712   2.842   2.481   6.874
  716W        W 1713   5.838   5.687   4.611
  717W        W 1714   2.870   1.210   5.894
  718W        W 1715   6.536   6.511   2.030
  719W        W 1716   5.388   2.343   3.071
  720W        W 1717   4.175   2.126   4.212
  721W        W 1718   0.588   1.181   0.252
  722W        W 1719   5.437   5.562   2.150
  723W        W 1720   0.506   2.456   5.562
  724W        W 1721   3.091   1.915   1.941
  725W        W 1722   1.782   3.795   3.600
  726W        W 1723   3.711   6.926   1.819
  727W        W 1724   6.157   2.945   5.509
  728W        W 1725   5.436   4.216   2.980
  729W        W 1726   2.259   5.223   2.124
  730W        W 1727   5.730   7.343   3.959
  731W        W 1728   3.222   5.882   1.504
  732W        W 1729   5.306   0.630   7.294
  733W        W 1730   2.706   6.143   3.781
  734W        W 1731   5.337   2.468   3.560
  735W        W 1732   5.797   7.091   1.142
  736W        W 1733   4.897   2.151   7.417
  737W        W 1734   3.322   3.910   3.128
  738W        W 1735   0.981   1.796   1.827
  739W        W 1736   1.639   6.324   4.130
  740W        W 1737   1.618   1.621   2.977
  741W        W 1738   7.318   1.288   1.562
  742W        W 1739   2.368   3.974   2.710
  743W        W 1740   2.205   4.100   0.613
  744W        W 1741   3.927   0.748   6.674
  745W        W 1742   7.503   2.313   5.271
  746W        W 1743   7.154   2.419   4.381
  747W        W 1744   3.121   1.034   1.294
  748W        W 1745   6.654   4.045   4.890
  749W        W 1746   2.625   1.942   0.672
  750W        W 1747   6.603   6.741   1.452
  751W        W 1748   5.785   1.609   4.352
  752W        W 1749   3.982   4.548   5.727
  753W        W 1750   3.687   7.949   1.664
  754W        W 1751   3.158   0.071   2.863
  755W        W 1752   2.238   2.216   0.892
  756W        W 1753   1.257   5.542   1.747
  757W        W 1754   1.090   6.349   4.025
  758W        W 1755   4.026   4.848   2.566
  759W        W 1756   3.193   4.349   3.943
  760W        W 1757   3.248   1.470   2.579
  761W        W 1758   0.634   4.977   4.169
  762W        W 1759   6.524   2.217   6.310
  763W        W 1760   2.393   5.836   3.302
  764W        W 1761   5.562   1.838   1.459
  765W        W 1762   5.960   7.703   5.206
  766W        W 1763   0.829   6.126   6.907
  767W        W 1764   3.875   0.775   2.501
  768W        W 1765   7.500   7.821   6.169
  769W        W 1766   5.630   3.626   6.853
  770W        W 1767   4.912   1.332   5.774
  771W        W 1768   4.009   2.814   1.438
  772W        W 1769   4.461   4.907   1.768
  773W        W 1770   6.159   0.534   1.190
  774W        W 1771   6.451   7.997   6.674
  775W        W 1772   3.608   2.208   5.016
  776W        W 1773   5.568   0.479   6.565
  777W        W 1774   6.965   1.932   4.481
  778W        W 1775   1.489   2.373   0.733
  779W        W 1776   6.223   7.116   6.613
  780W        W 1777   5.812   6.503   4.781
  781W        W 1778   3.595   6.736   2.289
  782W        W 1779   6.475   2.377   4.950
  783W        W 1780   6.144   1.994   5.685
  784W        W 1781   6.828   6.657   5.049
  785W        W 1782   1.613   5.730   6.847
  786W        W 1783   0.839   5.336   0.874
  787W        W 1784   7.062   6.562   5.502
  788W        W 1785   3.814   5.327   2.371
  789W        W 1786   2.410   1.766   2.971
  790W        W 1787   2.651   6.786   5.550
  791W        W 1788   1.495   4.200   3.387
  792W        W 1789   3.494   6.341   1.457
  793W        W 1790   5.724   3.744   2.252
  794W        W 1791   2.401   5.339   2.609
  795W        W 1792   1.705   6.969   3.447
  796W        W 1793   1.291   6.053   3.219
  797W        W 1794   5.618   4.120   3.480
  798W        W 1795   6.465   5.858   1.475
  799W        W 1796   3.278   6.728   4.901
  800W        W 1797   5.548   3.915   1.103
  801W        W 1798   7.434   2.207   6.145
  802W        W 1799   4.139   1.137   2.224
  803W        W 1800   3.818   2.604   7.292
  804W        W 1801   2.868   3.206   1.291
  805W        W 1802   7.346   3.983   6.127
  806W        W 1803   3.748   1.707   0.898
  807W        W 1804   5.827   1.778   4.837
  808W        W 1805   4.437   1.821   0.903
  809W        W 1806   3.618   1.794   6.181
  810W        W 1807   6.893   3.283   2.758
  811W        W 1808   2.284   5.806   5.809
  812W        W 1809   5.540   4.343   1.934
  813W        W 1810   8.000   2.917   5.668
  814W        W 1811   4.882   6.612   5.091
  815W        W 1812   2.722   0.619   7.228
  816W        W 1813   0.794   2.986   3.721
  817W        W 1814   4.830   6.707   3.481
  818W        W 1815   2.309   6.472   6.078
  819W        W 1816   5.770   6.020   6.197
  820W        W 1817   6.646   2.329   4.440
  821W        W 1818   1.857   2.134   3.691
  822W        W 1819   3.391   5.123   7.195
  823W        W 1820   5.858   2.990   0.947
  824W        W 1821   6.369   2.968   6.699
  825W        W 1822   5.334   7.276   6.236
  826W        W 1823   6.196   7.185   1.495
  827W        W 1824   1.355   2.650   2.105
  828W        W 1825   5.331   2.054   1.049
  829W        W 1826   5.769   2.631   0.605
  830W        W 1827   4.114   1.707   0.514
  831W        W 1828   1.956   1.111   0.575
  832W        W 1829   4.975   3.595   5.637
  833W        W 1830   7.417   3.425   4.529
  834W        W 1831   3.821   2.902   6.864
  835W        W 1832   1.450   0.682   2.722
  836W        W 1833   1.979   1.625   7.122
  837W        W 1834   1.878   1.109   3.786
  838W        W 1835   3.083   3.796   1.022
  839W        W 1836   5.272   2.538   0.077
  840W        W 1837   1.559   4.807   7.349
  841W        W 1838   4.602   4.358   6.226
  842W        W 1839   5.302   0.857   6.835
  843W        W 1840   6.629   3.617   2.485
  844W        W 1841   6.805   6.929   1.885
  845W        W 1842   3.781   1.275   5.185
  846W        W 1843   0.612   5.221   6.622
  847W        W 1844   4.063   0.096   1.310
  848W        W 1845   0.673   3.511   6.079
  849W        W 1846   0.932   1.263   5.856
  850W        W 1847   3.598   1.968   6.645
  851W        W 1848   5.253   4.677   6.276
  852W        W 1849   1.490   7.972   1.624
  853W        W 1850   5.503   6.774   0.063
  854W        W 1851   4.624   0.905   5.604
  855W        W 1852   5.461   5.314   5.192
  856W        W 1853   3.218   4.730   2.122
  857W        W 1854   5.707   2.708   1.504
  858W        W 1855   5.277   2.521   0.589
  859W        W 1856   3.967   1.611   5.529
  860W        W 1857   7.130   0.644   1.038
  861W        W 1858   6.307   4.416   2.542
  862W        W 1859   3.147   6.687   4.342
  863W        W 1860   2.447   7.777   7.150
  864W        W 1861   1.933   0.238   7.964
  865W        W 1862   0.129   3.510   6.255
  866W        W 1863   3.404   3.521   5.583
  867W        W 1864   5.745   4.673   0.620
  868W        W 1865   3.223   5.031   4.505
  869W        W 1866   4.438   2.610   3.375
  870W        W 1867   2.903   7.031   7.512
  871W        W 1868   1.094   0.362   5.564
  872W        W 1869   3.528   2.646   1.368
  873W        W 1870   3.706   2.351   3.543
  874W        W 1871   6.411   7.076   1.035
  875W        W 1872   5.005   3.142   1.519
  876W        W 1873   6.813   3.406   6.835
  877W        W 1874   7.493   6.817   6.066
  878W        W 1875   4.920   5.114   7.915
  879W        W 1876   4.517   3.264   5.727
  880W        W 1877   3.036   6.546   3.848
  881W        W 1878   6.432   1.849   7.768
  882W        W 1879   0.525   7.535   2.596
  883W        W 1880   2.084   3.458   2.844
  884W        W 1881   6.380   6.774   5.359
  885W        W 1882   5.329   4.513   6.746
  886W        W 1883   3.917   5.646   6.799
  887W        W 1884   4.763   5.724   1.622
  888W        W 1885   0.585   5.536   5.803
  889W        W 1886   6.667   2.101   3.174
  890W        W 1887   1.869   2.268   5.912
  891W        W 1888   4.572   5.356   7.346
  892W        W 1889   6.735   1.249   0.943
  893W        W 1890   0.153   3.971   5.631
  894W        W 1891   4.126   3.294   6.805
  895W        W 1892   6.235   0.228   7.095
  896W        W 1893   5.192   6.895   4.758
  897W        W 1894   0.672   4.451   4.895
  898W        W 1895   0.321   4.661   5.458
  899W        W 1896   4.295   4.524   2.893
  900W        W 1897   3.164   2.969   2.991
  901W        W 1898   6.663   1.483   4.450
  902W        W 1899   2.458   1.765   3.876
  903W        W 1900   5.920   5.772   3.387
  904W        W 1901   4.917   5.575   1.140
  905W        W 1902   6.658   3.295   4.066
  906W        W 1903   0.527   3.405   1.706
  907W        W 1904   6.631   6.333   3.695
  908W        W 1905   5.599   1.577   5.270
  909W        W 1906   7.653   5.326   6.971
  910W        W 1907   3.963   3.327   3.235
  911W        W 1908   6.188   2.874   1.396
  912W        W 1909   7.656   4.875   6.709
  913W        W 1910   6.943   4.359   1.870
  914W        W 1911   2.569   2.601   3.514
  915W        W 1912   2.832   4.697   5.353
  916W        W 1913   6.876   5.939   3.448
  917W        W 1914   0.439   3.348   1.199
  918W        W 1915   1.312   5.913   1.389
  919W        W 1916   3.994   0.984   4.814
  920W        W 1917   4.185   5.664   7.251
  921W        W 1918   5.395   7.426   1.519
  922W        W 1919   3.205   1.574   3.430
  923W        W 1920   6.363   6.074   2.281
  924W        W 1921   2.965   4.294   4.816
  925W        W 1922   7.940   2.574   1.409
  926W        W 1923   5.395   3.006   1.230
  927W        W 1924   6.576   1.572   3.795
  928W        W 1925   0.234   5.163   5.610
  929W        W 1926   5.712   0.878   1.035
  930W        W 1927   3.505   2.652   2.694
  931W        W 1928   1.428   0.860   4.960
  932W        W 1929   2.670   5.057   3.846
  933W        W 1930   5.480   2.917   2.491
  934W        W 1931   6.369   6.153   4.101
  935W        W 1932   2.363   2.695   1.089
  936W        W 1933   2.846   3.894   2.880
  937W        W 1934   6.815   1.266   5.388
  938W        W 1935   5.751   0.412   7.050
  939W        W 1936   1.234   5.509   0.601
  940W        W 1937   3.192   2.559   4.154
  941W        W 1938   4.397   4.132   3.595
  942W        W 1939   2.349   5.970   1.552
  943W        W 1940   0.394   5.380   1.710
  944W        W 1941   4.546   2.896   5.311
  945W        W 1942   6.798   3.564   1.513
  946W        W 1943   7.435   6.052   6.309
  947W        W 1944   7.162   7.012   1.512
  948W        W 1945   4.678   4.267   3.174
  949W        W 1946   4.044   3.061   7.308
  950W        W 1947   6.246   6.610   3.908
  951W        W 1948   3.435   0.916   7.591
  952W        W 1949   3.294   4.875   5.233
  953W        W 1950   2.190   1.292   2.366
  954W        W 1951   6.845   7.664   6.788
  955W        W 1952   3.128   5.855   2.885
  956W        W 1953   6.514   3.519   6.065
  957W        W 1954   4.735   7.091   1.364
  958W        W 1955   1.749   5.466   4.949
  959W        W 1956   4.165   6.128   3.242
  960W        W 1957   6.103   6.308   0.002
  961W        W 1958   1.146   5.674   0.131
  962W        W 1959   6.267   7.463   2.861
  963W        W 1960   0.736   4.648   3.282
  964W        W 1961   1.966   0.722   4.128
  965W        W 1962   5.663   2.398   2.477
  966W        W 1963   5.674   1.719   1.943
  967W        W 1964   2.820   3.804   3.391
  968W        W 1965   3.634   0.655   7.188
  969W        W 1966   6.192   4.625   3.006
  970W        W 1967   5.588   5.470   4.088
  971W        W 1968   0.027   5.720   6.847
  972W        W 1969   4.804   4.260   0.954
  973W        W 1970   6.215   5.429   1.722
  974W        W 1971   0.317   1.561   0.477
  975W        W 1972   0.696   7.937   6.906
  976W        W 1973   7.647   2.186   4.155
  977W        W 1974   4.062   5.872   5.747
  978W        W 1975   2.575   4.776   6.312
  979W        W 1976   4.814   4.413   3.642
  980W        W 1977   1.631   3.113   4.632
  981W        W 1978   6.406   2.811   0.936
  982W        W 1979   1.682   4.701   6.550
  983W        W 1980   4.878   4.668   1.288
  984W        W 1981   3.547   2.394   0.412
  985W        W 1982   5.698   5.542   1.670
  986W        W 1983   7.622   3.152   1.616
  987W        W 1984   5.570   1.992   3.680
  988W        W 1985   5.963   0.319   4.047
  989W        W 1986   6.721   2.629   7.978
  990W        W 1987   6.988   4.473   5.231
  991W        W 1988   1.975   6.619   2.380
  992W        W 1989   2.224   5.085   6.460
  993W        W 1990   2.521   4.029   4.743
  994W        W 1991   0.378   1.601   4.679
  995W        W 1992   1.106   3.339   1.715
  996W        W 1993   3.571   5.003   2.687
  997W        W 1994   3.652   1.810   3.378
  998W        W 1995   1.607   3.426   2.628
  999W        W 1996   4.116   7.125   3.328
 1000W        W 1997   6.959   5.550   3.826
 1001W        W 1998   3.668   3.133   5.246
 1002W        W 1999   5.314   5.711   6.906
 1003W        W 2000   3.427   0.867   0.845
 1004W        W 2001   5.262   3.555   4.461
 1005W        W 2002   4.458   0.661   7.551
 1006W        W 2003   1.007   4.018   7.354
 1007W        W 2004   1.199   3.864   6.507
 1008W        W 2005   4.739   0.557   1.611
 1009W        W 2006   2.533   7.130   7.851
 1010W        W 2007   5.476   5.751   0.219
 1011W        W 2008   3.346   4.929   0.095
 1012W        W 2009   3.390   5.123   1.834
 1013W        W 2010   5.233   2.363   6.510
 1014W        W 2011   1.405   6.241   0.123
 1015W        W 2012   2.841   6.393   6.953
 1016W        W 2013   5.151   6.206   5.219
 1017W        W 2014   1.007   2.530   5.793
 1018W        W 2015   1.171   7.283   6.563
 1019W        W 2016   1.419   1.960   2.009
 1020W        W 2017   1.503   1.829   2.504
 1021W        W 2018   2.530   3.037   7.306
 1022W        W 2019   6.153   1.612   2.095
 1023W        W 2020   2.878   4.974   1.791
 1024W        W 2021   2.191   0.458   2.609
 1025W        W 2022   6.036   7.188   5.274
 1026W        W 2023   4.595   4.522   2.488
 1027W        W 2024   0.440   3.866   3.444
 1028W        W 2025   5.203   6.205   6.941
 1029W        W 2026   7.316   2.592   3.349
 1030W        W 2027   5.683   1.376   3.372
 1031W        W 2028   1.673   2.493   6.370
 1032W        W 2029   0.301   4.147   4.666
 1033W        W 2030   5.973   3.608   2.988
 1034W        W 2031   0.512   1.610   5.533
 1035W        W 2032   3.715   3.170   5.758
 1036W        W 2033   5.264   6.324   1.576
 1037W        W 2034   0.243   3.732   3.911
 1038W        W 2035   0.763   3.602   3.167
 1039W        W 2036   5.125   6.598   5.544
 1040W        W 2037   1.565   4.563   4.738
 1041W        W 2038   1.138   1.759   5.964
 1042W        W 2039   5.482   4.959   3.384
 1043W        W 2040   5.178   0.284   5.233
 1044W        W 2041   1.528   4.762   7.900
 1045W        W 2042   4.951   0.741   4.633
 1046W        W 2043   0.590   2.028   5.227
 1047W        W 2044   6.471   3.849   1.791
 1048W        W 2045   3.370   2.121   3.876
 1049W        W 2046   1.167   6.462   2.930
 1050W        W 2047   6.852   0.533   0.290
 1051W        W 2048   1.204   2.834   1.675
 1052W        W 2049   1.167   5.125   2.022
 1053W        W 2050   0.601   4.795   1.499
 1054W        W 2051   3.432   7.671   2.543
 1055W        W 2052   6.237   0.779   4.090
 1056W        W 2053   5.620   2.063   4.206
 1057W        W 2054   1.869   2.927   6.235
 1058W        W 2055   2.601   3.830   0.414
 1059W        W 2056   6.299   1.913   2.885
 1060W        W 2057   0.402   0.535   4.726
 1061W        W 2058   0.863   3.756   5.230
 1062W        W 2059   1.345   2.056   4.621
 1063W        W 2060   5.947   1.892   1.131
 1064W        W 2061   4.688   1.382   1.113
 1065W        W 2062   7.092   0.590   6.041
 1066W        W 2063   6.902   0.360   3.244
 1067W        W 2064   7.992   6.885   6.256
 1068W        W 2065   0.855   6.011   7.843
 1069W        W 2066   6.859   3.622   5.454
 1070W        W 2067   1.198   1.488   3.241
 1071W        W 2068   5.638   4.689   7.572
 1072W        W 2069   3.298   1.443   2.070
 1073W        W 2070   5.669   6.188   5.237
 1074W        W 2071   1.026   5.604   3.225
 1075W        W 2072   6.223   4.293   4.908
 1076W        W 2073   6.221   7.489   3.389
 1077W        W 2074   2.711   1.096   7.068
 1078W        W 2075   5.969   3.281   6.703
 1079W        W 2076   5.182   3.346   3.215
 1080W        W 2077   7.335   7.824   6.655
 1081W        W 2078   2.475   0.460   0.753
 1082W        W 2079   0.480   5.876   1.849
 1083W        W 2080   5.952   2.992   4.560
 1084W        W 2081   3.956   1.495   7.845
 1085W        W 2082   3.558   0.408   2.692
 1086W        W 2083   3.327   2.761   2.218
 1087W        W 2084   6.724   4.646   3.921
 1088W        W 2085   2.050   5.925   7.078
 1089W        W 2086   3.697   4.873   0.511
 1090W        W 2087   0.521   1.699   1.599
 1091W        W 2088   5.748   1.374   2.332
 1092W        W 2089   6.395   2.572   7.036
 1093W        W 2090   3.262   6.294   2.413
 1094W        W 2091   4.264   5.686   0.540
 1095W        W 2092   6.578   2.180   0.191
 1096W        W 2093   6.917   7.259   4.355
 1097W        W 2094   4.792   3.491   6.095
 1098W        W 2095   3.217   1.591   5.954
 1099W        W 2096   7.725   1.246   1.966
 1100W        W 2097   5.966   5.517   0.165
 1101W        W 2098   2.846   2.913   5.878
 1102W        W 2099   0.438   3.076   6.208
 1103W        W 2100   3.956   2.132   5.401
 1104W        W 2101   4.244   2.639   6.983
 1105W        W 2102   3.274   6.823   1.518
 1106W        W 2103   3.185   2.671   4.670
 1107W        W 2104   0.189   4.555   4.948
 1108W        W 2105   7.248   4.253   0.959
 1109W        W 2106   6.213   1.441   4.106
 1110W        W 2107   3.926   5.232   1.852
 1111W        W 2108   3.831   2.585   2.237
 1112W        W 2109   2.716   2.857   4.822
 1113W        W 2110   3.436   4.586   6.506
 1114W        W 2111   2.329   2.244   3.808
 1115W        W 2112   5.228   2.527   7.424
 1116W        W 2113   7.032   5.700   5.141
 1117W        W 2114   3.513   5.929   3.197
 1118W        W 2115   5.132   5.154   6.150
 1119W        W 2116   7.129   6.061   5.496
 1120W        W 2117   6.071   1.985   0.130
 1121W        W 2118   0.326   6.311   4.206
 1122W        W 2119   7.251   2.911   4.505
 1123W        W 2120   4.570   4.556   5.712
 1124W        W 2121   5.544   0.959   3.110
 1125W        W 2122   3.308   1.500   5.154
 1126W        W 2123   6.697   2.197   5.401
 1127W        W 2124   3.729   3.214   3.720
 1128W        W 2125   5.808   4.474   2.712
 1129W        W 2126   0.641   0.760   3.004
 1130W        W 2127   1.376   2.255   6.026
 1131W        W 2128   3.406   4.768   3.626
 1132W        W 2129   1.588   5.873   6.350
 1133W        W 2130   0.650   5.491   4.016
 1134W        W 2131   2.045   3.955   1.985
 1135W        W 2132   4.371   1.742   3.366
 1136W        W 2133   6.781   2.820   4.291
 1137W        W 2134   7.338   2.211   3.723
 1138W        W 2135   0.006   4.047   4.268
 1139W        W 2136   4.660   3.761   5.284
 1140W        W 2137   3.242   3.050   5.580
 1141W        W 2138   2.711   0.964   4.274
 1142W        W 2139   6.440   4.577   5.275
 1143W        W 2140   2.808   6.502   4.685
 1144W        W 2141   1.075   4.192   5.066
 1145W        W 2142   0.640   1.673   6.022
 1146W        W 2143   1.910   2.609   0.877
 1147W        W 2144   3.661   3.015   3.009
 1148W        W 2145   6.844   3.115   5.357
 1149W        W 2146   7.573   5.479   1.999
 1150W        W 2147   0.798   6.072   3.128
 1151W        W 2148   3.740   6.264   5.525
 1152W        W 2149   5.791   5.140   7.354
 1153W        W 2150   1.567   1.821   5.006
 1154W        W 2151   4.547   2.264   1.176
 1155W        W 2152   1.356   1.172   4.513
 1156W        W 2153   6.830   5.731   1.142
 1157W        W 2154   3.934   1.139   0.708
 1158W        W 2155   7.725   4.957   1.598
 1159W        W 2156   5.469   2.118   4.912
 1160W        W 2157   5.750   6.863   6.175
 1161W        W 2158   0.874   5.913   2.307
 1162W        W 2159   2.083   7.338   7.742
 1163W        W 2160   1.347   6.158   7.604
 1164W        W 2161   1.283   4.630   6.856
 1165W        W 2162   5.993   4.947   1.708
 1166W        W 2163   4.302   0.450   0.968
 1167W        W 2164   6.750   5.249   6.914
 1168W        W 2165   6.455   4.297   5.849
 1169W        W 2166   5.954   3.391   5.262
 1170W        W 2167   2.870   6.273   0.682
 1171W        W 2168   5.445   5.404   7.863
 1172W        W 2169   1.085   2.659   0.844
 1173W        W 2170   6.395   2.697   6.227
 1174W        W 2171   2.551   6.630   0.817
 1175W        W 2172   4.244   6.811   1.875
 1176W        W 2173   3.871   4.901   3.939
 1177W        W 2174   6.234   5.561   2.235
 1178W        W 2175   2.421   6.108   2.190
 1179W        W 2176   2.604   7.110   0.968
 1180W        W 2177   6.285   2.924   4.143
 1181W        W 2178   2.183   3.658   1.580
 1182W        W 2179   7.339   0.206   3.029
 1183W        W 2180   1.274   7.571   6.149
 1184W        W 2181   6.211   5.920   6.883
 1185W        W 2182   1.981   3.845   7.693
 1186W        W 2183   2.720   4.745   5.840
 1187W        W 2184   4.247   4.636   5.252
 1188W        W 2185   1.562   5.832   2.511
 1189W        W 2186   2.627   3.984   0.898
 1190W        W 2187   6.580   0.515   7.335
 1191W        W 2188   3.068   1.064   2.322
 1192W        W 2189   3.976   5.748   4.535
 1193W        W 2190   4.415   2.209   7.178
 1194W        W 2191   3.430   2.601   3.214
 1195W        W 2192   7.936   6.144   1.127
 1196W        W 2193   0.637   5.084   3.640
 1197W        W 2194   4.526   2.204   2.079
 1198W        W 2195   5.453   2.282   1.727
 1199W        W 2196   3.523   2.763   6.483
 1200W        W 2197   1.702   6.595   4.577
 1201W        W 2198   6.306   1.202   1.812
 1202W        W 2199   0.292   5.340   4.941
 1203W        W 2200   4.496   2.569   0.763
 1204W        W 2201   7.757   3.891   3.863
 1205W        W 2202   2.619   1.327   4.632
 1206W        W 2203   6.181   3.308   3.322
 1207W        W 2204   4.472   2.178   4.626
 1208W        W 2205   6.919   1.925   2.760
 1209W        W 2206   3.888   5.427   1.124
 1210W        W 2207   5.436   0.968   7.712
 1211W        W 2208   4.782   1.878   7.021
 1212W        W 2209   1.006   0.915   2.675
 1213W        W 2210   0.423   5.190   6.119
 1214W        W 2211   1.494   3.941   7.555
 1215W        W 2212   5.066   6.473   2.031
 1216W        W 2213   0.939   3.824   0.354
 1217W        W 2214   6.183   6.308   0.639
 1218W        W 2215   2.051   4.626   4.564
 1219W        W 2216   5.813   2.397   3.378
 1220W        W 2217   1.985   7.200   1.766
 1221W        W 2218   2.294   5.890   1.056
 1222W        W 2219   3.004   2.977   7.085
 1223W        W 2220   1.016   0.764   2.151
 1224W        W 2221   3.523   4.325   5.693
 1225W        W 2222   6.668   4.116   5.424
 1226W        W 2223   3.475   1.353   5.599
 1227W        W 2224   6.638   0.014   0.011
 1228W        W 2225   3.205   2.267   2.845
 1229W        W 2226   6.177   2.254   2.455
 1230W        W 2227   6.823   3.954   2.170
 1231W        W 2228   5.822   5.444   2.556
 1232W        W 2229   2.751   0.115   7.364
 1233W        W 2230   3.699   3.532   6.599
 1234W        W 2231   5.911   3.731   1.388
 1235W        W 2232   3.955   1.210   6.453
 1236W        W 2233   3.184   4.742   3.151
 1237W        W 2234   5.244   4.814   5.775
 1238W        W 2235   5.191   5.112   2.194
 1239W        W 2236   2.849   1.747   2.729
 1240W        W 2237   4.391   5.274   5.221
 1241W        W 2238   2.488   6.404   1.763
 1242W        W 2239   5.182   2.533   2.309
 1243W        W 2240   5.374   4.346   7.247
 1244W        W 2241   5.005   6.687   4.346
 1245W        W 2242   3.644   2.607   0.867
 1246W        W 2243   0.975   4.513   5.926
 1247W        W 2244   4.007   5.308   4.791
 1248W        W 2245   2.285   0.526   5.034
 1249W        W 2246   4.106   6.019   7.612
 1250W        W 2247   1.127   6.027   0.528
 1251W        W 2248   5.745   6.813   3.955
 1252W        W 2249   3.376   4.007   4.928
 1253W        W 2250   1.494   3.128   2.003
 1254W        W 2251   3.550   2.379   7.898
 1255W        W 2252   0.635   1.016   1.540
 1256W        W 2253   4.622   7.049   5.246
 1257W        W 2254   1.939   7.478   2.204
 1258W        W 2255   4.998   4.373   2.767
 1259W        W 2256   3.596   6.678   0.086
 1260W        W 2257   5.732   7.280   2.460
 1261W        W 2258   6.741   5.223   5.908
 1262W        W 2259   2.748   2.411   5.918
 1263W        W 2260   1.530   0.051   2.133
 1264W        W 2261   4.442   5.527   4.028
 1265W        W 2262   6.231   1.983   1.760
 1266W        W 2263   6.302   3.929   2.763
 1267W        W 2264   4.909   1.459   6.315
 1268W        W 2265   4.162   7.680   1.764
 1269W        W 2266   0.120   1.858   5.123
 1270W        W 2267   4.128   0.350   2.356
 1271W        W 2268   4.948   0.812   7.608
 1272W        W 2269   3.153   2.560   5.664
 1273W        W 2270   3.210   1.783   7.489
 1274W        W 2271   0.566   4.916   5.086
 1275W        W 2272   2.148   5.132   0.672
 1276W        W 2273   5.689   0.949   7.158
 1277W        W 2274   2.565   3.419   3.619
 1278W        W 2275   5.244   3.421   0.534
 1279W        W 2276   6.658   0.349   5.877
 1280W        W 2277   7.173   4.759   0.860
 1281W        W 2278   5.092   5.637   3.985
 1282W        W 2279   6.276   4.892   3.811
 1283W        W 2280   7.842   1.825   6.657
 1284W        W 2281   7.463   0.796   6.358
 1285W        W 2282   4.884   5.086   0.418
 1286W        W 2283   3.489   0.968   6.462
 1287W        W 2284   1.386   3.864   5.310
 1288W        W 2285   4.082   1.930   1.236
 1289W        W 2286   3.061   6.763   2.312
 1290W        W 2287   2.876   1.965   6.798
 1291W        W 2288   1.852   6.517   5.832
 1292W        W 2289   0.854   6.580   6.673
 1293W        W 2290   4.605   1.788   6.544
 1294W        W 2291   2.896   5.348   6.980
 1295W        W 2292   5.626   0.980   6.465
 1296W        W 2293   2.415   1.741   2.462
 1297W        W 2294   3.769   5.821   2.430
 1298W        W 2295   2.335   6.309   3.430
 1299W        W 2296   4.845   6.449   3.932
 1300W        W 2297   0.491   7.852   6.418
 1301W        W 2298   6.214   6.698   0.310
 1302W        W 2299   6.675   4.646   2.853
 1303W        W 2300   2.066   3.295   4.824
 1304W        W 2301   5.888   6.303   1.527
 1305W        W 2302   1.817   4.516   6.997
 1306W        W 2303   3.337   2.598   7.475
 1307W        W 2304   6.296   5.352   3.575
 1308W        W 2305   2.732   5.682   5.047
 1309W        W 2306   1.629   6.244   2.821
 1310W        W 2307   4.899   4.149   2.315
 1311W        W 2308   4.822   2.098   5.368
 1312W        W 2309   6.493   1.902   4.714
 1313W        W 2310   5.550   6.361   6.603
 1314W        W 2311   1.759   7.573   6.283
 1315W        W 2312   0.855   1.443   1.333
 1316W        W 2313   5.337   2.915   7.752
 1317W        W 2314   4.700   5.467   0.664
 1318W        W 2315   1.265   3.706   0.731
 1319W        W 2316   6.488   1.047   2.638
 1320W        W 2317   5.042   4.487   5.427
 1321W        W 2318   6.821   0.745   3.722
 1322W        W 2319   3.875   2.362   1.597
 1323W        W 2320   7.182   5.676   2.657
 1324W        W 2321   1.869   5.940   1.316
 1325W        W 2322   7.278   2.546   1.754
 1326W        W 2323   5.574   4.993   6.486
 1327W        W 2324   7.618   3.073   4.169
 1328W        W 2325   3.977   5.918   5.231
 1329W        W 2326   6.921   7.097   7.188
 1330W        W 2327   3.877   6.695   1.327
 1331W        W 2328   6.667   4.794   7.120
 1332W        W 2329   7.537   6.536   6.966
 1333W        W 2330   0.035   4.532   4.446
 1334W        W 2331   0.588   5.586   3.523
 1335W        W 2332   1.071   4.933   3.910
 1336W        W 2333   6.492   6.252   7.670
 1337W        W 2334   7.935   5.911   6.311
 1338W        W 2335   1.455   1.160   0.431
 1339W        W 2336   1.021   4.169   2.753
 1340W        W 2337   5.916   4.201   0.470
 1341W        W 2338   3.744   3.465   7.108
 1342W        W 2339   0.702   3.915   6.522
 1343W        W 2340   1.165   3.379   2.361
 1344W        W 2341   1.966   1.577   0.288
 1345W        W 2342   2.657   4.577   4.023
 1346W        W 2343   4.652   2.045   3.059
 1347W        W 2344   5.588   6.268   7.959
 1348W        W 2345   2.373   2.559   7.144
 1349W        W 2346   2.178   6.878   7.526
 1350W        W 2347   5.829   3.223   1.388
 1351W        W 2348   3.308   3.102   6.113
 1352W        W 2349   6.140   4.793   7.520
 1353W        W 2350   5.488   0.929   1.493
 1354W        W 2351   1.187   0.175   7.384
 1355W        W 2352   4.108   5.517   6.130
 1356W        W 2353   4.109   2.419   4.998
 1357W        W 2354   7.554   3.698   1.583
 1358W        W 2355   1.245   6.879   3.222
 1359W        W 2356   1.542   7.127   6.235
 1360W        W 2357   6.025   3.101   2.801
 1361W        W 2358   6.579   3.872   6.755
 1362W        W 2359   3.425   0.572   6.739
 1363W        W 2360   6.790   0.366   0.765
 1364W        W 2361   7.985   6.609   6.723
 1365W        W 2362   5.724   1.248   6.064
 1366W        W 2363   3.687   0.501   5.749
 1367W        W 2364   0.645   4.267   2.405
 1368W        W 2365   3.952   2.594   3.114
 1369W        W 2366   3.613   0.889   4.421
 1370W        W 2367   6.297   7.901   4.045
 1371W        W 2368   1.446   3.478   6.690
 1372W        W 2369   2.725   5.706   1.334
 1373W        W 2370   6.131   6.181   3.653
 1374W        W 2371   6.429   3.354   5.597
 1375W        W 2372   2.399   1.600   1.966
 1376W        W 2373   1.981   3.910   4.080
 1377W        W 2374   0.201   1.727   6.291
 1378W        W 2375   3.875   7.142   5.260
 1379W        W 2376   6.916   4.980   3.157
 1380W        W 2377   4.988   2.272   2.715
 1381W        W 2378   1.687   1.512   0.729
 1382W        W 2379   3.172   5.200   2.921
 1383W        W 2380   6.963   4.838   6.139
 1384W        W 2381   5.196   2.181   6.997
 1385W        W 2382   0.436   6.483   6.964
 1386W        W 2383   2.023   5.623   5.401
 1387W        W 2384   0.910   1.266   2.340
 1388W        W 2385   0.343   3.850   2.423
 1389W        W 2386   0.680   6.659   4.271
 1390W        W 2387   1.084   1.347   0.088
 1391W        W 2388   5.492   0.665   5.409
 1392W        W 2389   2.495   4.146   3.176
 1393W        W 2390   5.943   7.841   2.367
 1394W        W 2391   3.590   1.286   6.091
 1395W        W 2392   5.561   3.423   0.955
 1396W        W 2393   0.775   2.866   5.306
 1397W        W 2394   3.408   0.929   2.648
 1398W        W 2395   3.384   0.435   3.208
 1399W        W 2396   5.233   3.788   3.491
 1400W        W 2397   1.405   1.372   5.762
 1401W        W 2398   5.504   2.033   6.242
 1402W        W 2399   6.935   3.916   3.438
 1403W        W 2400   2.021   5.617   2.398
 1404W        W 2401   4.867   0.472   0.087
 1405W        W 2402   2.932   0.651   1.000
 1406W        W 2403   7.166   7.151   5.848
 1407W        W 2404   7.477   7.310   6.240
 1408W        W 2405   5.991   6.413   5.993
 1409W        W 2406   4.558   5.271   6.187
 1410W        W 2407   5.156   5.281   0.796
 1411W        W 2408   4.292   1.767   6.937
 1412W        W 2409   7.321   2.646   6.899
 1413W        W 2410   0.996   0.594   4.833
 1414W        W 2411   5.360   5.757   5.414
 1415W        W 2412   2.211   4.368   4.135
 1416W        W 2413   5.786   6.415   0.946
 1417W        W 2414   0.711   4.966   5.718
 1418W        W 2415   4.906   5.887   6.637
 1419W        W 2416   5.731   5.470   5.601
 1420W        W 2417   6.484   7.067   3.613
 1421W        W 2418   7.013   1.870   6.917
 1422W        W 2419   6.967   0.694   7.067
 1423W        W 2420   1.344   5.414   7.174
 1424W        W 2421   5.019   0.965   1.772
 1425W        W 2422   3.129   2.602   0.081
 1426W        W 2423   6.710   7.738   2.195
 1427W        W 2424   5.157   0.713   3.354
 1428W        W 2425   7.283   3.606   5.809
 1429W        W 2426   7.735   6.140   6.717
 1430W        W 2427   1.891   6.037   0.786
 1431W        W 2428   4.364   6.627   5.087
 1432W        W 2429   2.040   1.799   6.657
 1433W        W 2430   1.501   0.384   3.134
 1434W        W 2431   2.075   1.384   2.871
 1435W        W 2432   4.405   0.751   2.463
 1436W        W 2433   1.843   3.060   3.834
 1437W        W 2434   4.651   5.703   7.007
 1438W        W 2435   2.448   7.671   7.681
 1439W        W 2436   7.424   6.723   1.839
 1440W        W 2437   5.457   6.127   0.635
 1441W        W 2438   7.526   4.815   2.631
 1442W        W 2439   1.105   7.235   1.896
 1443W        W 2440   6.382   5.682   3.202
 1444W        W 2441   2.651   3.661   1.292
 1445W        W 2442   1.540   3.355   3.553
 1446W        W 2443   7.846   1.195   1.470
 1447W        W 2444   7.099   1.628   0.920
 1448W        W 2445   7.672   3.479   2.022
 1449W        W 2446   1.770   1.245   2.047
 1450W        W 2447   3.450   5.328   5.432
 1451W        W 2448   1.171   5.007   0.685
 1452W        W 2449   0.975   1.124   0.569
 1453W        W 2450   2.701   4.331   6.149
 1454W        W 2451   3.367   1.329   7.276
 1455W        W 2452   6.087   1.479   3.085
 1456W        W 2453   6.189   0.650   2.449
 1457W        W 2454   5.011   3.312   7.826
 1458W        W 2455   5.807   0.354   2.287
 1459W        W 2456   0.979   1.428   6.335
 1460W        W 2457   6.241   4.285   6.645
 1461W        W 2458   3.297   3.028   3.474
 1462W        W 2459   3.391   0.602   1.282
 1463W        W 2460   5.621   5.226   6.045
 1464W        W 2461   0.220   6.249   3.044
 1465W        W 2462   0.396   5.759   3.078
 1466W        W 2463   3.083   0.572   2.821
 1467W        W 2464   3.508   4.632   4.249
 1468W        W 2465   3.089   4.771   2.607
 1469W        W 2466   6.513   1.699   0.838
 1470W        W 2467   7.618   6.943   4.351
 1471W        W 2468   4.760   0.525   3.094
 1472W        W 2469   5.910   0.221   1.808
 1473W        W 2470   2.420   5.519   6.307
 1474W        W 2471   3.530   5.090   6.367
 1475W        W 2472   7.250   3.967   3.855
 1476W        W 2473   3.139   2.650   0.626
 1477W        W 2474   7.221   3.084   6.158
 1478W        W 2475   2.447   1.416   1.481
 1479W        W 2476   0.450   4.715   2.310
 1480W        W 2477   0.883   1.528   7.617
 1481W        W 2478   7.171   5.550   6.912
 1482W        W 2479   7.599   2.686   5.981
 1483W        W 2480   7.590   5.629   6.076
 1484W        W 2481   3.352   4.189   1.899
 1485W        W 2482   7.101   1.654   1.861
 1486W        W 2483   0.942   6.820   3.855
 1487W        W 2484   3.410   4.676   0.921
 1488W        W 2485   1.460   1.468   1.689
 1489W        W 2486   4.793   2.583   7.123
 1490W        W 2487   0.474   4.135   5.254
 1491W        W 2488   4.829   2.529   4.550
 1492W        W 2489   0.607   6.257   5.205
 1493W        W 2490   1.970   0.331   1.575
 1494W        W 2491   0.318   4.920   4.617
 1495W        W 2492   1.626   3.230   7.105
 1496W        W 2493   5.146   3.534   6.937
 1497W        W 2494   5.831   7.214   3.006
 1498W        W 2495   1.704   4.909   2.926
 1499W        W 2496   7.707   4.731   4.785
 1500W        W 2497   2.632   1.152   2.128
 1501W        W 2498   3.057   3.458   3.092
 1502W        W 2499   5.401   5.902   4.903
 1503W        W 2500   5.218   2.188   5.860
 1504W        W 2501   0.328   1.622   6.805
 1505W        W 2502   2.232   2.594   6.070
 1506W        W 2503   5.285   6.141   5.716
 1507W        W 2504   6.112   4.634   1.301
 1508W        W 2505   2.960   3.424   5.817
 1509W        W 2506   5.477   3.906   1.635
 1510W        W 2507   6.542   4.791   1.024
 1511W        W 2508   1.902   5.072   3.422
 1512W        W 2509   4.321   0.697   6.314
 1513W        W 2510   1.505   0.568   2.197
 1514W        W 2511   6.148   4.166   5.408
 1515W        W 2512   6.748   1.038   6.763
 1516W        W 2513   5.260   4.233   3.853
 1517W        W 2514   1.022   4.178   6.859
 1518W        W 2515   2.867   5.135   0.167
 1519W        W 2516   4.332   4.899   4.797
 1520W        W 2517   2.794   2.247   6.386
 1521W        W 2518   1.951   6.664   1.860
 1522W        W 2519   2.269   3.676   4.446
 1523W        W 2520   1.062   1.241   4.085
 1524W        W 2521   7.694   7.232   2.304
 1525W        W 2522   4.032   4.276   3.272
 1526W        W 2523   3.253   0.945   3.139
 1527W        W 2524   5.494   5.222   6.945
 1528W        W 2525   2.332   2.596   0.560
 1529W        W 2526   1.079   5.456   5.688
 1530W        W 2527   5.718   2.310   5.705
 1531W        W 2528   0.597   4.679   0.984
 1532W        W 2529   2.355   5.035   4.691
 1533W        W 2530   2.823   0.681   2.018
 1534W        W 2531   2.044   6.437   3.033
 1535W        W 2532   1.593   6.249   1.641
 1536W        W 2533   1.856   0.881   2.486
 1537W        W 2534   2.723   2.384   5.419
 1538W        W 2535   1.969   1.500   1.616
 1539W        W 2536   2.670   2.570   4.021
 1540W        W 2537   2.357   5.433   6.819
 1541W        W 2538   2.884   2.936   4.333
 1542W        W 2539   7.936   5.827   3.555
 1543W        W 2540   3.613   6.871   4.373
 1544W        W 2541   0.830   0.263   6.509
 1545W        W 2542   1.905   1.741   2.154
 1546W        W 2543   4.020   1.973   7.666
 1547W        W 2544   4.494   4.507   7.442
 1548W        W 2545   1.679   6.751   7.414
 1549W        W 2546   4.084   3.439   5.961
 1550W        W 2547   7.326   1.307   0.559
 1551W        W 2548   4.061   5.122   0.171
 1552W        W 2549   5.007   5.582   0.110
 1553W        W 2550   5.103   3.269   2.596
 1554W        W 2551   6.754   2.424   0.883
 1555W        W 2552   0.511   1.138   6.900
 1556W        W 2553   5.773   2.892   4.097
 1557W        W 2554   7.097   4.756   3.570
 1558W        W 2555   7.317   3.467   6.698
 1559W        W 2556   1.510   4.293   0.979
 1560W        W 2557   3.989   2.804   2.664
 1561W        W 2558   4.787   6.145   5.572
 1562W        W 2559   3.700   3.076   1.108
 1563W        W 2560   2.698   3.522   7.224
 1564W        W 2561   3.902   1.119   5.697
 1565W        W 2562   2.065   0.657   3.590
 1566W        W 2563   7.378   6.630   5.083
 1567W        W 2564   2.648   4.367   0.548
 1568W        W 2565   3.145   6.206   1.103
 1569W        W 2566   1.647   2.792   6.787
 1570W        W 2567   5.672   3.044   4.982
 1571W        W 2568   3.566   1.403   4.314
 1572W        W 2569   1.964   6.908   4.906
 1573W        W 2570   0.750   0.945   6.219
 1574W        W 2571   1.622   0.907   6.554
 1575W        W 2572   2.686   5.788   4.136
 1576W        W 2573   1.027   4.140   5.573
 1577W        W 2574   7.146   3.009   3.099
 1578W        W 2575   1.175   1.648   3.743
 1579W        W 2576   6.091   0.611   3.647
 1580W        W 2577   6.277   5.990   5.878
 1581W        W 2578   1.275   1.140   3.635
 1582W        W 2579   6.080   0.715   1.932
 1583W        W 2580   5.590   6.378   2.297
 1584W        W 2581   2.053   2.553   3.490
 1585W        W 2582   4.209   2.399   3.790
 1586W        W 2583   1.287   0.669   7.487
 1587W        W 2584   5.592   6.139   4.494
 1588W        W 2585   5.979   5.369   3.079
 1589W        W 2586   6.815   3.969   0.930
 1590W        W 2587   3.586   5.634   3.967
 1591W        W 2588   1.485   7.761   1.065
 1592W        W 2589   1.346   1.871   0.765
 1593W        W 2590   2.479   1.858   6.432
 1594W        W 2591   6.465   4.304   1.094
 1595W        W 2592   3.310   3.906   5.896
 1596W        W 2593   0.124   2.832   2.806
 1597W        W 2594   0.981   2.375   4.802
 1598W        W 2595   2.381   5.972   5.324
 1599W        W 2596   3.496   3.043   0.637
 1600W        W 2597   7.068   4.974   2.146
 1601W        W 2598   5.251   7.071   2.671
 1602W        W 2599   4.400   5.132   7.762
 1603W        W 2600   2.739   3.143   2.803
 1604W        W 2601   2.103   7.426   5.707
 1605W        W 2602   1.858   5.445   4.056
 1606W        W 2603   6.160   7.081   4.028
 1607W        W 2604   0.714   2.324   0.988
 1608W        W 2605   4.287   4.738   6.085
 1609W        W 2606   6.598   2.606   3.866
 1610W        W 2607   6.943   4.419   3.230
 1611W        W 2608   0.032   1.563   0.915
 1612W        W 2609   2.409   2.225   6.775
 1613W        W 2610   0.871   3.812   2.438
 1614W        W 2611   5.522   4.147   5.209
 1615W        W 2612   7.462   0.825   0.683
 1616W        W 2613   3.639   0.012   3.029
 1617W        W 2614   5.681   5.949   7.199
 1618W        W 2615   4.763   4.747   3.045
 1619W        W 2616   2.099   6.448   0.972
 1620W        W 2617   2.965   5.178   5.527
 1621W        W 2618   7.511   2.223   0.523
 1622W        W 2619   5.976   0.689   6.204
 1623W        W 2620   7.066   7.034   6.340
 1624W        W 2621   0.616   0.781   5.118
 1625W        W 2622   4.193   6.341   2.777
 1626W        W 2623   4.299   2.500   2.404
 1627W        W 2624   1.115   0.239   1.403
 1628W        W 2625   5.013   4.391   5.926
 1629W        W 2626   4.708   5.936   3.290
 1630W        W 2627   2.024   3.229   4.308
 1631W        W 2628   1.722   0.271   7.489
 1632W        W 2629   2.038   7.531   7.269
 1633W        W 2630   4.095   6.433   0.909
 1634W        W 2631   1.406   3.065   6.392
 1635W        W 2632   2.929   3.786   4.942
 1636W        W 2633   6.478   2.169   7.332
 1637W        W 2634   5.994   7.309   1.990
 1638W        W 2635   3.519   6.176   0.184
 1639W        W 2636   2.336   3.860   7.085
 1640W        W 2637   4.737   1.832   1.332
 1641W        W 2638   2.997   1.731   3.846
 1642W        W 2639   1.763   0.845   4.589
 1643W        W 2640   1.531   4.057   1.906
 1644W        W 2641   1.183   2.974   5.589
 1645W        W 2642   1.495   0.488   1.673
 1646W        W 2643   0.745   5.851   5.450
 1647W        W 2644   0.638   0.555   1.852
 1648W        W 2645   2.002   4.755   3.794
 1649W        W 2646   6.453   3.058   3.659
 1650W        W 2647   5.044   3.364   1.031
 1651W        W 2648   4.330   6.284   4.068
 1652W        W 2649   4.148   3.486   4.444
 1653W        W 2650   5.075   3.831   1.312
 1654W        W 2651   3.345   1.400   1.553
 1655W        W 2652   2.169   5.817   4.241
 1656W        W 2653   4.087   3.087   1.868
 1657W        W 2654   6.276   1.709   7.261
 1658W        W 2655   3.792   6.827   4.842
 1659W        W 2656   4.861   4.394   7.097
 1660W        W 2657   6.068   2.036   4.456
 1661W        W 2658   0.242   2.544   1.840
 1662W        W 2659   4.355   4.707   1.310
 1663W        W 2660   2.192   6.617   0.475
 1664W        W 2661   2.192   5.695   0.545
 1665W        W 2662   1.511   3.936   4.291
 1666W        W 2663   1.204   3.740   4.835
 1667W        W 2664   6.353   1.272   0.568
 1668W        W 2665   0.560   6.072   2.684
 1669W        W 2666   4.795   5.373   6.645
 1670W        W 2667   0.040   5.600   5.827
 1671W        W 2668   6.959   7.678   3.997
 1672W        W 2669   3.799   4.413   2.027
 1673W        W 2670   5.711   0.626   2.753
 1674W        W 2671   5.876   2.190   2.904
 1675W        W 2672   5.790   2.033   5.300
 1676W        W 2673   4.046   1.181   2.757
 1677W        W 2674   7.331   6.346   5.907
 1678W        W 2675   2.220   1.140   1.869
 1679W        W 2676   7.164   0.430   4.205
 1680W        W 2677   4.326   4.473   0.865
 1681W        W 2678   1.210   6.652   7.166
 1682W        W 2679   2.442   5.413   0.990
 1683W        W 2680   1.768   7.566   1.487
 1684W        W 2681   1.985   0.021   7.136
 1685W        W 2682   5.933   2.809   6.935
 1686W        W 2683   3.846   3.133   6.348
 1687W        W 2684   2.399   6.744   1.289
 1688W        W 2685   7.279   6.041   1.296
 1689W        W 2686   3.809   1.633   6.958
 1690W        W 2687   4.479   4.519   4.475
 1691W        W 2688   3.188   2.407   1.095
 1692W        W 2689   3.361   6.211   3.603
 1693W        W 2690   3.244   3.684   6.767
 1694W        W 2691   4.688   6.281   6.908
 1695W        W 2692   4.074   6.567   2.293
 1696W        W 2693   1.934   1.257   7.487
 1697W        W 2694   6.191   5.406   7.612
 1698W        W 2695   1.051   4.789   7.309
 1699W        W 2696   3.392   3.177   6.789
 1700W        W 2697   0.803   4.660   6.702
 1701W        W 2698   1.178   6.299   6.288
 1702W        W 2699   2.020   4.597   3.272
 1703W        W 2700   6.273   3.417   1.558
 1704W        W 2701   2.516   3.770   4.013
 1705W        W 2702   5.479   6.609   7.068
 1706W        W 2703   3.977   2.033   4.681
 1707W        W 2704   3.194   3.783   2.153
 1708W        W 2705   7.313   2.095   0.973
 1709W        W 2706   7.657   5.939   0.721
 1710W        W 2707   4.987   3.048   5.710
 1711W        W 2708   6.249   3.296   1.057
 1712W        W 2709   4.450   5.783   5.406
 1713W        W 2710   0.979   2.492   3.603
 1714W        W 2711   6.008   1.552   1.580
 1715W        W 2712   2.447   1.745   6.946
 1716W        W 2713   7.034   3.782   4.646
 1717W        W 2714   3.120   6.626   5.442
 1718W        W 2715   3.241   1.787   4.276
 1719W        W 2716   1.715   6.814   2.957
 1720W        W 2717   4.594   2.153   3.547
 1721W        W 2718   4.757   0.964   6.104
 1722W        W 2719   2.674   2.165   4.955
 1723W        W 2720   5.611   6.572   1.845
 1724W        W 2721   3.694   5.028   1.383
 1725W        W 2722   6.734   5.103   3.653
 1726W        W 2723   3.715   4.886   2.154
 1727W        W 2724   6.420   1.597   5.516
 1728W        W 2725   2.339   2.140   3.320
 1729W        W 2726   3.159   4.969   6.731
 1730W        W 2727   6.463   4.320   2.054
 1731W        W 2728   4.317   3.538   7.208
 1732W        W 2729   0.382   6.981   6.797
 1733W        W 2730   6.513   1.798   6.011
 1734W        W 2731   5.547   7.392   5.205
 1735W        W 2732   5.919   6.306   2.670
 1736W        W 2733   0.971   5.838   0.982
 1737W        W 2734   3.475   5.160   4.097
 1738W        W 2735   7.834   3.542   4.204
 1739W        W 2736   5.924   1.096   2.758
 1740W        W 2737   5.826   3.653   3.456
 1741W        W 2738   1.714   1.049   5.524
 1742W        W 2739   7.069   3.941   5.139
 1743W        W 2740   1.310   3.475   4.407
 1744W        W 2741   0.378   5.747   2.334
 1745W        W 2742   3.335   6.517   1.920
 1746W        W 2743   0.235   0.912   6.302
 1747W        W 2744   2.834   6.862   6.692
 1748W        W 2745   0.757   5.681   0.511
 1749W        W 2746   5.489   4.747   4.379
 1750W        W 2747   5.143   5.467   4.842
 1751W        W 2748   7.345   6.341   0.470
 1752W        W 2749   0.984   4.685   2.231
 1753W        W 2750   1.424   3.967   2.957
 1754W        W 2751   3.977   2.002   5.881
 1755W        W 2752   6.218   3.454   2.044
 1756W        W 2753   0.292   1.360   5.152
 1757W        W 2754   3.339   5.153   5.903
 1758W        W 2755   5.230   6.995   1.179
 1759W        W 2756   6.274   1.952   5.173
 1760W        W 2757   1.440   4.384   1.482
 1761W        W 2758   6.622   4.478   6.336
 1762W        W 2759   0.953   5.952   1.751
 1763W        W 2760   0.057   5.885   2.711
 1764W        W 2761   4.283   4.947   7.282
 1765W        W 2762   2.208   0.949   1.424
 1766W        W 2763   6.047   1.704   0.631
 1767W        W 2764   3.657   1.774   2.233
 1768W        W 2765   6.911   4.532   1.243
 1769W        W 2766   4.914   2.753   6.603
 1770W        W 2767   2.370   2.101   5.960
 1771W        W 2768   1.085   2.806   3.220
 1772W        W 2769   3.166   1.229   6.823
 1773W        W 2770   6.762   7.088   0.163
 1774W        W 2771   0.208   5.398   2.773
 1775W        W 2772   5.853   5.264   2.079
 1776W        W 2773   0.698   6.176   6.402
 1777W        W 2774   1.452   3.013   4.162
 1778W        W 2775   0.975   0.569   7.028
 1779W        W 2776   4.742   3.014   6.200
 1780W        W 2777   1.954   5.134   2.527
 1781W        W 2778   5.444   2.056   7.419
 1782W        W 2779   5.641   5.095   1.409
 1783W        W 2780   4.096   2.059   2.812
 1784W        W 2781   2.057   5.797   6.570
 1785W        W 2782   0.275   6.500   2.576
 1786W        W 2783   5.194   4.755   0.881
 1787W        W 2784   3.222   2.913   1.067
 1788W        W 2785   5.310   1.340   6.634
 1789W        W 2786   5.861   0.420   5.681
 1790W        W 2787   1.783   4.952   4.225
 1791W        W 2788   6.672   5.733   6.116
 1792W        W 2789   1.591   6.158   4.828
 1793W        W 2790   7.805   2.750   3.430
 1794W        W 2791   2.550   6.467   6.542
 1795W        W 2792   6.761   0.770   5.583
 1796W        W 2793   3.104   3.331   0.806
 1797W        W 2794   5.727   4.560   3.203
 1798W        W 2795   1.586   5.858   0.413
 1799W        W 2796   2.034   2.602   3.001
 1800W        W 2797   6.377   5.503   5.741
 1801W        W 2798   0.463   3.743   4.899
 1802W        W 2799   5.595   3.803   0.574
 1803W        W 2800   6.286   0.657   5.797
 1804W        W 2801   1.311   4.837   4.381
 1805W        W 2802   2.506   0.330   2.219
 1806W        W 2803   1.918   3.177   2.282
 1807W        W 2804   1.841   4.913   2.086
 1808W        W 2805   4.772   2.277   6.718
 1809W        W 2806   5.951   3.958   1.856
 1810W        W 2807   5.653   0.988   0.203
 1811W        W 2808   3.922   4.713   6.423
 1812W        W 2809   2.142   0.059   5.836
 1813W        W 2810   4.081   1.598   2.477
 1814W        W 2811   3.140   0.343   7.087
 1815W        W 2812   3.718   3.269   4.235
 1816W        W 2813   2.369   3.221   1.207
 1817W        W 2814   0.721   5.661   1.409
 1818W        W 2815   2.762   5.079   2.275
 1819W        W 2816   6.692   5.217   7.455
 1820W        W 2817   7.886   5.923   5.387
 1821W        W 2818   2.739   5.804   0.832
 1822W        W 2819   2.237   6.247   3.959
 1823W        W 2820   2.141   0.473   4.548
 1824W        W 2821   1.933   0.475   6.344
 1825W        W 2822   4.315   3.362   0.141
 1826W        W 2823   1.532   4.201   5.668
 1827W        W 2824   7.233   7.317   6.725
 1828W        W 2825   4.954   7.466   5.416
 1829W        W 2826   4.464   1.336   4.134
 1830W        W 2827   1.078   5.060   5.345
 1831W        W 2828   0.390   5.978   7.074
 1832W        W 2829   7.176   2.091   7.349
 1833W        W 2830   0.915   2.355   3.103
 1834W        W 2831   3.372   6.921   3.890
 1835W        W 2832   2.126   3.477   3.865
 1836W        W 2833   6.521   4.501   1.586
 1837W        W 2834   6.996   1.326   7.134
 1838W        W 2835   6.033   1.905   3.919
 1839W        W 2836   7.273   6.127   2.861
 1840W        W 2837   2.801   5.988   2.515
 1841W        W 2838   2.550   3.331   1.674
 1842W        W 2839   5.063   4.227   6.415
 1843W        W 2840   3.195   4.020   4.459
 1844W        W 2841   4.793   3.317   0.317
 1845W        W 2842   6.227   0.734   2.933
 1846W        W 2843   2.315   5.759   3.778
 1847W        W 2844   3.994   5.221   6.524
 1848W        W 2845   6.419   7.923   2.594
 1849W        W 2846   3.633   5.241   3.633
 1850W        W 2847   0.975   3.104   4.353
 1851W        W 2848   2.677   6.131   3.004
 1852W        W 2849   2.877   1.566   7.152
 1853W        W 2850   3.040   1.599   4.723
 1854W        W 2851   4.830   2.605   0.339
 1855W        W 2852   1.557   5.377   2.705
 1856W        W 2853   5.356   1.216   0.910
 1857W        W 2854   1.886   4.649   2.516
 1858W        W 2855   2.876   7.594   7.394
 1859W        W 2856   2.019   6.664   4.159
 1860W        W 2857   1.637   5.507   1.362
 1861W        W 2858   6.273   6.621   3.412
 1862W        W 2859   7.510   6.464   3.762
 1863W        W 2860   5.585   7.175   7.359
 1864W        W 2861   4.520   6.312   3.582
 1865W        W 2862   7.469   3.787   3.450
 1866W        W 2863   0.960   1.647   0.507
 1867W        W 2864   5.810   6.789   6.676
 1868W        W 2865   1.871   3.225   6.648
 1869W        W 2866   1.647   7.271   7.489
 1870W        W 2867   3.278   7.590   2.028
 1871W        W 2868   4.510   5.811   6.021
 1872W        W 2869   3.001   3.488   2.541
 1873W        W 2870   5.705   4.716   6.020
 1874W        W 2871   1.530   5.344   4.445
 1875W        W 2872   1.561   1.791   6.826
 1876W        W 2873   0.864   5.226   0.319
 1877W        W 2874   3.798   6.790   3.624
 1878W        W 2875   7.571   6.903   6.568
 1879W        W 2876   4.541   6.037   7.361
 1880W        W 2877   6.701   0.635   4.218
 1881W        W 2878   5.334   4.739   2.947
 1882W        W 2879   3.205   3.434   7.209
 1883W        W 2880   0.542   5.748   6.649
 1884W        W 2881   1.241   3.828   1.505
 1885W        W 2882   1.609   1.929   4.109
 1886W        W 2883   0.182   6.003   0.684
 1887W        W 2884   3.998   3.019   4.579
 1888W        W 2885   5.869   6.849   2.184
 1889W        W 2886   1.709   5.773   1.781
 1890W        W 2887   6.773   6.978   5.597
 1891W        W 2888   5.789   0.575   4.993
 1892W        W 2889   4.378   1.989   5.109
 1893W        W 2890   3.919   0.367   3.262
 1894W        W 2891   7.574   1.732   0.714
 1895W        W 2892   1.988   0.330   5.415
 1896W        W 2893   6.036   4.467   1.825
 1897W        W 2894   5.655   2.266   0.256
 1898W        W 2895   5.579   6.658   1.335
 1899W        W 2896   4.351   0.971   1.013
 1900W        W 2897   4.123   2.166   3.320
 1901W        W 2898   0.742   3.001   1.524
 1902W        W 2899   6.285   3.022   7.261
 1903W        W 2900   4.647   1.777   1.856
 1904W        W 2901   7.698   1.728   6.157
 1905W        W 2902   6.034   7.905   4.641
 1906W        W 2903   0.662   2.600   6.147
 1907W        W 2904   7.811   7.568   6.532
 1908W        W 2905   7.016   1.617   3.148
 1909W        W 2906   1.607   5.420   2.161
 1910W        W 2907   1.074   1.946   5.096
 1911W        W 2908   2.045   7.978   6.326
 1912W        W 2909   6.848   1.261   3.491
 1913W        W 2910   1.991   0.228   0.524
 1914W        W 2911   2.196   4.242   5.054
 1915W        W 2912   7.631   6.277   1.994
 1916W        W 2913   1.684   7.733   5.813
 1917W        W 2914   5.556   1.857   3.192
 1918W        W 2915   4.360   2.164   0.487
 1919W        W 2916   6.707   2.817   2.663
 1920W        W 2917   7.575   4.964   2.112
 1921W        W 2918   1.247   1.024   6.248
 1922W        W 2919   0.021   7.166   1.873
 1923W        W 2920   7.764   6.427   6.287
 1924W        W 2921   4.694   4.860   5.310
 1925W        W 2922   3.575   1.867   7.900
 1926W        W 2923   4.199   6.180   4.731
 1927W        W 2924   0.969   3.005   2.087
 1928W        W 2925   1.366   1.340   6.708
 1929W        W 2926   7.513   3.764   5.373
 1930W        W 2927   6.197   2.457   6.608
 1931W        W 2928   4.495   0.870   0.500
 1932W        W 2929   3.098   4.846   4.022
 1933W        W 2930   2.744   2.209   2.587
 1934W        W 2931   3.417   7.187   2.783
 1935W        W 2932   1.248   4.931   6.432
 1936W        W 2933   2.209   4.625   0.511
 1937W        W 2934   4.642   1.167   5.164
 1938W        W 2935   6.584   1.365   2.244
 1939W        W 2936   3.997   4.500   4.302
 1940W        W 2937   3.891   5.249   7.142
 1941W        W 2938   2.044   5.415   4.537
 1942W        W 2939   1.120   5.885   6.573
 1943W        W 2940   2.332   4.385   3.620
 1944W        W 2941   4.313   3.748   5.644
 1945W        W 2942   7.513   7.238   1.815
 1946W        W 2943   4.096   2.930   5.079
 1947W        W 2944   2.122   0.934   6.402
 1948W        W 2945   6.678   0.501   2.511
 1949W        W 2946   2.728   4.545   2.205
 1950W        W 2947   1.931   1.638   3.798
 1951W        W 2948   2.607   5.410   0.510
 1952W        W 2949   3.947   3.341   7.729
 1953W        W 2950   5.014   6.697   6.877
 1954W        W 2951   7.153   3.525   3.159
 1955W        W 2952   0.500   1.335   6.425
 1956W        W 2953   4.851   3.920   3.775
 1957W        W 2954   0.965   2.578   1.333
 1958W        W 2955   6.735   3.453   2.014
 1959W        W 2956   4.893   2.931   7.494
 1960W        W 2957   6.313   2.343   7.787
 1961W        W 2958   2.192   7.040   2.222
 1962W        W 2959   1.422   6.160   3.693
 1963W        W 2960   1.257   0.852   0.029
 1964W        W 2961   6.432   7.157   4.446
 1965W        W 2962   6.996   3.537   6.286
 1966W        W 2963   2.319   3.033   2.556
 1967W        W 2964   4.513   3.382   1.998
 1968W        W 2965   7.017   7.397   1.867
 1969W        W 2966   2.638   4.902   0.587
 1970W        W 2967   5.585   2.517   6.141
 1971W        W 2968   5.844   3.299   7.207
 1972W        W 2969   5.283   1.726   4.061
 1973W        W 2970   7.029   4.952   2.645
 1974W        W 2971   2.758   3.060   3.299
 1975W        W 2972   6.461   6.614   5.825
 1976W        W 2973   2.245   2.352   4.672
 1977W        W 2974   1.747   4.781   1.602
 1978W        W 2975   1.679   4.901   0.601
 1979W        W 2976   5.612   1.984   6.765
 1980W        W 2977   0.564   2.898   4.168
 1981W        W 2978   1.068   4.028   1.062
 1982W        W 2979   0.662   3.427   2.184
 1983W        W 2980   3.907   0.668   7.621
 1984W        W 2981   0.794   4.023   4.648
 1985W        W 2982   4.437   1.250   4.666
 1986W        W 2983   5.993   2.771   2.401
 1987W        W 2984   2.753   5.198   6.517
 1988W        W 2985   0.661   6.551   3.030
 1989W        W 2986   5.172   4.042   6.878
 1990W        W 2987   6.338   0.303   4.382
 1991W        W 2988   7.809   1.975   1.118
 1992W        W 2989   6.599   7.914   6.162
 1993W        W 2990   6.726   7.134   6.712
 1994W        W 2991   5.467   4.256   6.095
 1995W        W 2992   0.536   2.501   5.030
 1996W        W 2993   4.608   7.200   3.561
 1997W        W 2994   3.765   7.742   2.126
 1998W        W 2995   3.501   1.792   4.719
 1999W        W 2996   5.918   5.524   7.042
 2000W        W 2997   5.589   2.860   7.304
 2001W        W 2998   5.879   2.229   2.030
 2002W        W 2999   0.120   4.386   2.514
 2003W        W 3000   6.949   2.067   6.059
 2004W        W 3001   3.307   1.730   6.967
 2005W        W 3002   7.092   3.612   4.172
 2006W        W 3003   0.772   2.576   1.812
 2007W        W 3004   6.677   5.856   5.560
 2008W        W 3005   3.326   7.620   3.040
 2009W        W 3006   5.258   4.447   4.832
 2010W        W 3007   3.838   7.995   2.563
 2011W        W 3008   2.177   5.678   1.918
 2012W        W 3009   5.325   5.706   4.439
 2013W        W 3010   5.321   6.800   6.453
 2014W        W 3011   5.243   4.306   1.203
 2015W        W 3012   7.282   5.813   4.169
 2016W        W 3013   2.032   4.119   4.553
 2017W        W 3014   4.896   2.456   3.197
 2018W        W 3015   6.809   7.237   0.668
 2019W        W 3016   5.374   1.379   1.670
 2020W        W 3017   1.674   3.577   3.119
 2021W        W 3018   2.237   0.950   7.203
 2022W        W 3019   5.783   4.167   3.992
 2023W        W 3020   3.691   5.516   5.853
 2024W        W 3021   6.042   0.237   2.732
 2025W        W 3022   5.929   2.857   6.411
 2026W        W 3023   5.535   6.833   0.772
 2027W        W 3024   2.282   4.888   4.186
 2028W        W 3025   1.179   0.107   6.850
 2029W        W 3026   6.622   2.612   1.364
 2030W        W 3027   3.992   4.740   1.685
 2031W        W 3028   1.409   6.661   3.732
 2032W        W 3029   7.382   3.012   3.636
 2033W        W 3030   6.049   4.332   4.413
 2034W        W 3031   6.711   6.647   7.031
 2035W        W 3032   0.712   4.431   7.171
 2036W        W 3033   3.488   2.256   2.046
 2037W        W 3034   2.823   0.801   3.803
 2038W        W 3035   2.401   1.061   5.002
 2039W        W 3036   5.393   2.868   6.438
 2040W        W 3037   1.092   6.362   1.494
 2041W        W 3038   5.525   7.585   6.876
 2042W        W 3039   3.600   5.059   3.178
 2043W        W 3040   6.175   0.624   5.312
 2044W        W 3041   7.701   4.076   1.271
 2045W        W 3042   7.211   4.464   3.952
 2046W        W 3043   1.043   0.717   1.598
 2047W        W 3044   3.518   5.162   0.890
 2048W        W 3045   5.696   2.832   0.142
 2049W        W 3046   6.504   6.579   0.973
 2050W        W 3047   1.969   2.281   4.203
 2051W        W 3048   6.524   6.701   7.928
 2052W        W 3049   0.913   7.025   6.925
 2053W        W 3050   1.225   2.773   5.089
 2054W        W 3051   1.928   0.916   5.082
 2055W        W 3052   2.368   6.358   2.639
 2056W        W 3053   5.695   4.143   6.861
 2057W        W 3054   4.404   5.483   1.088
 2058W        W 3055   2.104   1.331   1.086
 2059W        W 3056   6.695   5.504   4.758
 2060W        W 3057   6.305   7.044   3.139
 2061W        W 3058   5.215   1.739   5.538
 2062W        W 3059   5.316   0.490   7.806
 2063W        W 3060   5.758   3.854   4.426
 2064W        W 3061   4.999   1.344   3.936
 2065W        W 3062   3.667   5.561   5.044
 2066W        W 3063   4.659   2.185   4.055
 2067W        W 3064   7.096   6.144   3.836
 2068W        W 3065   7.135   6.797   4.218
 2069W        W 3066   1.120   6.819   2.214
 2070W        W 3067   1.511   0.146   0.694
 2071W        W 3068   6.793   3.448   1.011
 2072W        W 3069   6.794   3.887   5.898
 2073W        W 3070   2.376   6.162   0.640
 2074W        W 3071   0.105   2.781   2.295
 2075W        W 3072   2.429   4.430   0.997
 2076W        W 3073   5.078   3.262   6.503
 2077W        W 3074   3.153   2.615   6.168
 2078W        W 3075   1.406   3.166   3.035
 2079W        W 3076   5.021   3.907   3.015
 2080W        W 3077   2.665   6.610   4.190
 2081W        W 3078   7.933   3.056   6.157
 2082W        W 3079   4.277   1.297   0.212
 2083W        W 3080   4.459   1.295   3.154
 2084W        W 3081   4.242   4.174   5.928
 2085W        W 3082   5.229   0.486   1.591
 2086W        W 3083   6.274   6.656   6.809
 2087W        W 3084   5.138   6.117   0.208
 2088W        W 3085   1.981   0.345   2.132
 2089W        W 3086   4.888   3.622   2.273
 2090W        W 3087   4.504   7.427   4.603
 2091W        W 3088   6.451   3.083   4.599
 2092W        W 3089   4.533   1.267   1.930
 2093W        W 3090   3.286   6.298   4.645
 2094W        W 3091   3.618   7.134   1.296
 2095W        W 3092   0.340   4.795   6.495
 2096W        W 3093   1.431   4.068   6.128
 2097W        W 3094   6.028   6.367   2.051
 2098W        W 3095   6.447   1.696   0.294
 2099W        W 3096   6.332   4.137   7.121
 2100W        W 3097   4.482   5.671   7.749
 2101W        W 3098   6.357   5.744   4.460
 2102W        W 3099   4.535   1.207   2.627
 2103W        W 3100   2.382   7.026   4.118
 2104W        W 3101   0.765   0.786   5.724
 2105W        W 3102   3.646   6.247   0.957
 2106W        W 3103   7.719   3.606   2.505
 2107W        W 3104   6.477   5.800   3.739
 2108W        W 3105   7.365   4.657   1.776
 2109W        W 3106   7.082   2.422   1.289
 2110W        W 3107   6.841   1.449   0.492
 2111W        W 3108   3.754   1.018   7.977
 2112W        W 3109   0.452   3.176   4.576
 2113W        W 3110   4.561   1.369   3.645
 2114W        W 3111   7.070   0.327   5.579
 2115W        W 3112   1.353   2.203   3.776
 2116W        W 3113   7.244   2.576   0.809
 2117W        W 3114   3.546   2.747   3.816
 2118W        W 3115   4.177   3.667   3.552
 2119W        W 3116   4.116   0.800   7.167
 2120W        W 3117   2.650   1.284   2.623
 2121W        W 3118   6.342   7.211   5.678
 2122W        W 3119   5.745   6.622   3.476
 2123W        W 3120   1.653   1.316   4.923
 2124W        W 3121   3.239   7.071   1.958
 2125W        W 3122   0.260   6.762   3.977
 2126W        W 3123   7.449   2.773   1.310
 2127W        W 3124   6.448   4.833   6.018
 2128W        W 3125   3.691   2.872   7.732
 2129W        W 3126   2.069   1.767   4.275
 2130W        W 3127   6.064   5.118   5.830
 2131W        W 3128   6.322   5.538   2.731
 2132W        W 3129   6.603   6.187   4.588
 2133W        W 3130   1.962   6.121   2.427
 2134W        W 3131   6.221   2.353   4.089
 2135W        W 3132   6.230   2.580   4.547
 2136W        W 3133   3.683   7.286   3.535
 2137W        W 3134   2.938   4.889   7.225
 2138W        W 3135   7.118   5.664   6.413
 2139W        W 3136   6.689   3.390   3.321
 2140W        W 3137   7.478   2.097   4.638
 2141W        W 3138   1.951   5.576   3.434
 2142W        W 3139   7.001   5.419   4.341
 2143W        W 3140   4.610   6.664   6.545
 2144W        W 3141   6.125   7.005   2.634
 2145W        W 3142   6.799   5.260   6.412
 2146W        W 3143   7.985   6.202   4.556
 2147W        W 3144   6.174   6.677   4.410
 2148W        W 3145   6.330   5.767   0.952
 2149W        W 3146   4.008   6.344   3.680
 2150W        W 3147   1.649   3.596   2.141
 2151W        W 3148   5.792   5.317   3.601
 2152W        W 3149   5.115   6.064   3.670
 2153W        W 3150   1.939   7.880   1.865
 2154W        W 3151   6.201   4.136   1.468
 2155W        W 3152   1.670   3.009   5.133
 2156W        W 3153   6.310   7.452   2.365
 2157W        W 3154   3.219   6.187   5.693
 2158W        W 3155   6.518   1.835   2.439
 2159W        W 3156   3.926   3.661   4.024
 2160W        W 3157   3.147   5.970   6.190
 2161W        W 3158   4.461   1.349   0.673
 2162W        W 3159   5.899   4.236   2.276
 2163W        W 3160   4.372   3.386   6.368
 2164W        W 3161   7.612   5.858   2.427
 2165W        W 3162   1.204   1.561   4.798
 2166W        W 3163   4.065   5.705   0.068
 2167W        W 3164   6.377   3.723   5.247
 2168W        W 3165   3.184   2.206   7.145
 2169W        W 3166   2.539   6.617   3.047
 2170W        W 3167   5.496   3.721   3.065
 2171W        W 3168   2.451   4.678   5.049
 2172W        W 3169   2.054   4.105   6.730
 2173W        W 3170   5.462   3.091   1.769
 2174W        W 3171   5.701   2.463   6.635
 2175W        W 3172   2.816   5.355   4.646
 2176W        W 3173   4.856   1.825   5.850
 2177W        W 3174   1.454   4.991   2.410
 2178W        W 3175   2.531   0.414   3.614
 2179W        W 3176   1.056   2.687   4.069
 2180W        W 3177   2.091   3.440   3.361
 2181W        W 3178   2.100   3.772   4.935
 2182W        W 3179   5.861   4.080   6.359
 2183W        W 3180   5.222   3.243   4.869
 2184W        W 3181   5.037   5.595   3.456
 2185W        W 3182   7.080   3.439   5.004
 2186W        W 3183   3.818   5.519   3.243
 2187W        W 3184   2.948   1.192   7.522
 2188W        W 3185   0.492   7.096   4.452
 2189W        W 3186   7.373   4.737   3.139
 2190W        W 3187   7.031   7.593   6.290
 2191W        W 3188   4.714   4.034   5.747
 2192W        W 3189   2.242   2.108   0.363
 2193W        W 3190   6.624   3.119   1.361
 2194W        W 3191   5.537   6.074   1.226
 2195W        W 3192   2.960   7.593   5.844
 2196W        W 3193   3.260   6.012   1.978
 2197W        W 3194   6.777   5.874   4.183
 2198W        W 3195   1.771   0.451   4.940
 2199W        W 3196   1.489   0.923   4.084
 2200W        W 3197   2.976   6.315   1.583
 2201W        W 3198   1.636   4.012   4.849
 2202W        W 3199   5.030   5.336   7.120
 2203W        W 3200   6.183   4.640   7.009
 2204W        W 3201   5.585   6.972   5.470
 2205W        W 3202   4.262   1.483   5.104
 2206W        W 3203   3.290   5.502   3.311
 2207W        W 3204   1.946   2.901   1.299
 2208W        W 3205   5.954   0.250   0.416
 2209W        W 3206   5.790   5.683   5.138
 2210W        W 3207   3.998   4.897   0.960
 2211W        W 3208   5.267   6.451   0.993
 2212W        W 3209   5.616   0.713   3.562
 2213W        W 3210   0.841   5.306   4.880
 2214W        W 3211   2.639   0.701   4.707
 2215W        W 3212   1.107   3.940   7.878
 2216W        W 3213   3.081   2.108   4.634
 2217W        W 3214   3.800   7.443   3.049
 2218W        W 3215   6.500   5.614   7.167
 2219W        W 3216   3.840   0.825   6.124
 2220W        W 3217   7.538   5.715   5.029
 2221W        W 3218   0.392   2.102   4.763
 2222W        W 3219   4.585   6.411   3.093
 2223W        W 3220   3.017   5.512   2.058
 2224W        W 3221   0.534   2.910   5.754
 2225W        W 3222   6.831   1.987   1.159
 2226W        W 3223   4.322   2.101   1.632
 2227W        W 3224   2.562   5.627   2.239
 2228W        W 3225   3.952   0.682   1.988
 2229W        W 3226   2.013   6.163   1.913
 2230W        W 3227   2.365   0.598   1.777
 2231W        W 3228   6.025   4.949   3.358
 2232W        W 3229   1.317   5.175   4.875
 2233W        W 3230   2.290   0.940   2.769
 2234W        W 3231   6.722   2.626   6.612
 2235W        W 3232   7.470   1.328   6.400
 2236W        W 3233   7.476   3.471   3.858
 2237W        W 3234   3.515   4.348   3.328
 2238W        W 3235   4.939   6.079   6.071
 2239W        W 3236   2.203   6.851   2.762
 2240W        W 3237   0.588   1.028   2.043
 2241W        W 3238   6.326   1.090   5.469
 2242W        W 3239   3.029   4.126   0.307
 2243W        W 3240   2.241   4.281   7.625
 2244W        W 3241   4.437   3.718   3.996
 2245W        W 3242   1.237   3.734   3.347
 2246W        W 3243   6.707   5.750   2.468
 2247W        W 3244   6.125   1.490   3.593
 2248W        W 3245   6.556   7.557   0.278
 2249W        W 3246   4.859   1.793   3.772
 2250W        W 3247   4.797   0.491   3.647
 2251W        W 3248   3.536   3.502   2.886
 2252W        W 3249   1.519   5.253   0.943
 2253W        W 3250   0.216   6.002   4.984
 2254W        W 3251   7.745   6.309   2.663
 2255W        W 3252   6.127   0.988   4.947
 2256W        W 3253   6.250   3.812   5.757
 2257W        W 3254   1.459   2.397   4.261
 2258W        W 3255   0.507   2.003   2.385
 2259W        W 3256   4.427   2.693   7.514
 2260W        W 3257   1.620   1.614   4.508
 2261W        W 3258   2.429   4.296   1.817
 2262W        W 3259   7.586   3.179   5.820
 2263W        W 3260   6.759   1.755   5.138
 2264W        W 3261   6.435   5.140   3.096
 2265W        W 3262   7.868   3.172   3.735
 2266W        W 3263   7.619   6.691   2.317
 2267W        W 3264   5.980   2.996   1.840
 2268W        W 3265   2.842   4.153   1.340
 2269W        W 3266   3.654   5.647   6.349
 2270W        W 3267   3.190   6.325   3.059
 2271W        W 3268   2.736   5.523   3.612
 2272W        W 3269   6.091   6.179   4.506
 2273W        W 3270   4.825   0.991   2.260
 2274W        W 3271   0.667   5.776   4.946
 2275W        W 3272   7.400   2.080   1.908
 2276W        W 3273   1.735   4.387   7.608
 2277W        W 3274   0.017   3.140   1.955
 2278W        W 3275   5.157   4.948   4.706
 2279W        W 3276   5.450   1.278   5.667
 2280W        W 3277   6.232   5.566   4.927
 2281W        W 3278   2.801   2.074   3.105
 2282W        W 3279   6.291   5.837   7.917
 2283W        W 3280   3.063   0.747   6.275
 2284W        W 3281   4.234   2.596   1.885
 2285W        W 3282   7.696   3.089   2.407
 2286W        W 3283   6.206   3.427   4.270
 2287W        W 3284   5.976   5.829   1.367
 2288W        W 3285   5.185   2.529   4.973
 2289W        W 3286   3.293   5.205   2.337
 2290W        W 3287   2.588   4.612   7.464
 2291W        W 3288   1.551   4.720   3.385
 2292W        W 3289   0.028   6.119   2.269
 2293W        W 3290   5.452   5.542   7.374
 2294W        W 3291   1.536   4.200   6.698
 2295W        W 3292   3.103   6.499   0.287
 2296W        W 3293   4.628   3.646   4.461
 2297W        W 3294   0.677   3.435   4.098
 2298W        W 3295   2.696   1.669   3.418
 2299W        W 3296   6.005   6.851   5.728
 2300W        W 3297   3.909   2.155   0.719
 2301W        W 3298   2.544   5.500   5.477
 2302W        W 3299   0.058   2.787   4.201
 2303W        W 3300   1.103   0.301   1.927
 2304W        W 3301   1.456   7.700   6.651
 2305W        W 3302   2.229   2.549   0.046
 2306W        W 3303   2.150   1.725   0.756
 2307W        W 3304   1.799   1.164   6.983
 2308W        W 3305   5.658   2.571   5.221
 2309W        W 3306   7.302   2.635   6.390
 2310W        W 3307   2.447   2.349   7.621
 2311W        W 3308   6.493   0.315   2.951
 2312W        W 3309   7.326   6.185   3.373
 2313W        W 3310   2.327   4.751   1.983
 2314W        W 3311   4.578   2.761   5.797
 2315W        W 3312   1.251   1.121   1.376
 2316W        W 3313   6.489   1.895   4.186
 2317W        W 3314   6.049   2.599   7.422
 2318W        W 3315   2.373   4.212   0.139
 2319W        W 3316   5.187   7.707   1.947
 2320W        W 3317   0.518   0.485   6.141
 2321W        W 3318   3.534   5.578   2.037
 2322W        W 3319   6.119   1.434   1.049
 2323W        W 3320   5.893   6.342   6.982
 2324W        W 3321   4.995   4.512   4.389
 2325W        W 3322   1.972   6.322   5.120
 2326W        W 3323   7.172   6.860   0.579
 2327W        W 3324   5.665   3.016   6.009
 2328W        W 3325   1.071   6.431   5.677
 2329W        W 3326   5.724   0.390   0.885
 2330W        W 3327   0.408   6.620   6.433
 2331W        W 3328   1.639   5.761   3.027
 2332W        W 3329   0.418   4.939   2.754
 2333W        W 3330   7.757   2.703   1.870
 2334W        W 3331   5.887   4.543   5.199
 2335W        W 3332   2.203   3.721   1.023
 2336W        W 3333   6.094   3.530   2.521
 2337W        W 3334   7.816   4.230   4.805
 2338W        W 3335   6.895   3.298   5.835
 2339W        W 3336   0.227   6.300   6.092
 2340W        W 3337   3.444   1.364   0.683
 2341W        W 3338   4.725   5.053   0.979
 2342W        W 3339   2.105   1.834   5.633
 2343W        W 3340   6.600   7.029   6.109
 2344W        W 3341   3.604   5.490   1.557
 2345W        W 3342   5.773   3.959   2.692
 2346W        W 3343   4.608   6.624   5.555
 2347W        W 3344   1.605   2.048   7.261
 2348W        W 3345   6.452   0.055   0.493
 2349W        W 3346   2.823   5.078   3.312
 2350W        W 3347   3.707   3.251   1.581
 2351W        W 3348   1.231   2.213   1.132
 2352W        W 3349   0.161   2.599   6.030
 2353W        W 3350   1.817   7.131   2.567
 2354W        W 3351   5.580   3.366   6.388
 2355W        W 3352   1.014   3.389   6.422
 2356W        W 3353   4.473   3.245   4.794
 2357W        W 3354   2.258   0.123   7.561
 2358W        W 3355   2.701   7.122   2.121
 2359W        W 3356   0.029   3.986   2.811
 2360W        W 3357   0.213   4.736   1.842
 2361W        W 3358   5.637   1.920   7.867
 2362W        W 3359   3.898   7.595   1.320
 2363W        W 3360   7.634   5.226   5.752
 2364W        W 3361   6.676   5.235   2.365
 2365W        W 3362   3.226   2.999   5.066
 2366W        W 3363   0.119   6.744   4.482
 2367W        W 3364   6.714   5.605   0.653
 2368W        W 3365   7.029   1.060   6.320
 2369W        W 3366   6.613   0.353   5.323
 2370W        W 3367   7.914   5.955   0.251
 2371W        W 3368   2.910   1.154   3.445
 2372W        W 3369   0.993   1.782   2.387
 2373W        W 3370   4.035   5.874   4.054
 2374W        W 3371   3.518   3.033   7.273
 2375W        W 3372   4.094   5.893   0.973
 2376W        W 3373   4.964   0.772   5.196
 2377W        W 3374   4.361   6.194   0.557
 2378W        W 3375   0.760   7.466   6.186
 2379W        W 3376   3.678   4.923   5.596
 2380W        W 3377   1.905   1.417   5.825
 2381W        W 3378   6.814   6.403   4.173
 2382W        W 3379   7.119   2.638   3.917
 2383W        W 3380   5.786   1.761   7.179
 2384W        W 3381   1.573   6.299   1.127
 2385W        W 3382   2.928   7.346   2.887
 2386W        W 3383   5.973   5.037   0.360
 2387W        W 3384   0.858   0.991   1.069
 2388W        W 3385   5.135   1.257   5.298
 2389W        W 3386   4.894   1.052   0.784
 2390W        W 3387   6.778   4.451   0.719
 2391W        W 3388   6.245   4.528   0.684
 2392W        W 3389   0.961   3.023   6.054
 2393W        W 3390   0.707   1.600   4.021
 2394W        W 3391   5.669   6.993   4.918
 2395W        W 3392   0.985   7.773   6.516
 2396W        W 3393   4.199   6.373   7.155
 2397W        W 3394   6.148   0.734   7.219
 2398W        W 3395   3.709   0.781   3.019
 2399W        W 3396   2.785   4.326   7.866
 2400W        W 3397   1.616   7.650   2.560
 2401W        W 3398   3.203   3.957   7.263
 2402W        W 3399   2.423   0.750   6.770
 2403W        W 3400   6.489   5.430   0.186
 2404W        W 3401   5.161   5.078   1.268
 2405W        W 3402   2.316   7.333   2.633
 2406W        W 3403   2.311   3.866   3.563
 2407W        W 3404   2.308   0.529   5.991
 2408W        W 3405   5.536   7.307   3.432
 2409W        W 3406   4.401   5.421   5.729
 2410W        W 3407   6.630   3.709   4.369
 2411W        W 3408   4.134   2.920   0.882
 2412W        W 3409   3.307   6.524   6.694
 2413W        W 3410   2.252   0.778   5.461
 2414W        W 3411   4.733   4.659   0.637
 2415W        W 3412   6.365   0.892   6.451
 2416W        W 3413   3.993   1.580   3.082
 2417W        W 3414   7.344   3.808   2.191
 2418W        W 3415   3.756   1.346   1.910
 2419W        W 3416   1.956   5.561   6.129
 2420W        W 3417   1.639   3.511   5.028
 2421W        W 3418   3.095   4.423   7.470
 2422W        W 3419   4.310   1.709   4.450
 2423W        W 3420   3.911   6.402   5.076
 2424W        W 3421   0.065   6.314   3.752
 2425W        W 3422   5.733   2.423   3.892
 2426W        W 3423   5.412   3.855   6.465
 2427W        W 3424   2.925   2.560   3.162
 2428W        W 3425   0.807   4.561   5.385
 2429W        W 3426   5.458   6.882   3.127
 2430W        W 3427   5.917   6.678   5.231
 2431W        W 3428   5.874   5.927   0.850
 2432W        W 3429   3.972   3.944   2.019
 2433W        W 3430   4.088   2.450   1.095
 2434W        W 3431   0.774   4.217   0.643
 2435W        W 3432   7.951   1.876   4.590
 2436W        W 3433   4.084   7.145   1.520
 2437W        W 3434   7.489   0.846   1.349
 2438W        W 3435   2.423   1.805   1.170
 2439W        W 3436   1.541   4.879   5.215
 2440W        W 3437   6.620   0.849   5.107
 2441W        W 3438   5.721   2.693   2.888
 2442W        W 3439   4.998   3.990   4.301
 2443W        W 3440   0.722   0.057   2.698
 2444W        W 3441   0.120   5.148   6.819
 2445W        W 3442   1.013   7.038   4.335
 2446W        W 3443   6.468   4.960   0.516
 2447W        W 3444   2.076   6.380   1.458
 2448W        W 3445   0.819   6.606   6.109
 2449W        W 3446   4.390   2.504   0.101
 2450W        W 3447   3.501   3.522   3.397
 2451W        W 3448   2.748   5.714   5.970
 2452W        W 3449   1.888   3.654   6.920
 2453W        W 3450   1.869   4.090   1.529
 2454W        W 3451   6.123   4.476   3.497
 2455W        W 3452   0.296   5.646   5.347
 2456W        W 3453   6.029   2.843   3.255
 2457W        W 3454   2.730   2.421   0.865
 2458W        W 3455   1.882   7.798   7.667
 2459W        W 3456   7.404   3.315   2.776
 2460W        W 3457   2.718   7.935   3.716
 2461W        W 3458   0.731   1.624   3.464
 2462W        W 3459   5.458   5.948   3.167
 2463W        W 3460   5.025   7.133   3.248
 2464W        W 3461   3.892   5.073   7.645
 2465W        W 3462   6.344   5.341   6.220
 2466W        W 3463   1.387   1.038   2.370
 2467W        W 3464   4.263   6.259   5.476
 2468W        W 3465   2.759   4.158   3.743
 2469W        W 3466   0.972   1.009   6.684
 2470W        W 3467   3.614   1.234   1.144
 2471W        W 3468   2.223   1.970   1.649
 2472W        W 3469   7.485   5.704   5.580
 2473W        W 3470   6.160   6.763   1.770
 2474W        W 3471   3.313   6.046   0.633
 2475W        W 3472   5.435   4.246   4.347
 2476W        W 3473   1.519   2.932   0.791
 2477W        W 3474   4.071   5.993   6.264
 2478W        W 3475   5.254   5.810   1.559
 2479W        W 3476   4.492   4.994   2.674
 2480W        W 3477   2.570   1.916   5.474
 2481W        W 3478   4.025   4.345   2.497
 2482W        W 3479   0.979   2.244   4.301
 2483W        W 3480   1.402   4.319   7.219
 2484W        W 3481   2.585   5.413   1.763
 2485W        W 3482   5.469   3.357   3.651
 2486W        W 3483   4.168   6.770   6.827
 2487W        W 3484   4.445   1.293   6.464
 2488W        W 3485   5.863   0.922   5.682
 2489W        W 3486   5.764   0.619   7.532
 2490W        W 3487   7.749   5.210   6.317
 2491W        W 3488   0.698   3.305   5.041
 2492W        W 3489   3.437   4.798   7.592
 2493W        W 3490   2.914   5.459   2.573
 2494W        W 3491   0.795   2.105   1.442
 2495W        W 3492   3.257   3.972   3.613
 2496W        W 3493   3.990   2.807   3.568
 2497W        W 3494   7.749   6.210   4.999
 2498W        W 3495   6.087   1.462   5.138
 2499W        W 3496   7.259   5.706   3.170
 2500W        W 3497   1.259   2.746   4.571
 2501W        W 3498   6.774   1.811   6.460
 2502W        W 3499   3.543   5.533   2.802
 2503W        W 3500   7.609   2.858   2.934
 2504W        W 3501   3.099   3.898   5.417
 2505W        W 3502   2.615   6.249   1.188
 2506W        W 3503   6.585   1.024   7.258
 2507W        W 3504   2.869   3.023   2.322
 2508W        W 3505   2.742   2.947   0.860
 2509W        W 3506   4.897   6.957   3.918
 2510W        W 3507   2.364   6.651   5.104
 2511W        W 3508   1.405   7.148   7.039
 2512W        W 3509   4.973   6.085   1.211
 2513W        W 3510   6.894   5.008   5.206
 2514W        W 3511   5.324   6.895   3.644
 2515W        W 3512   7.459   4.276   5.199
 2516W        W 3513   6.885   4.033   6.390
 2517W        W 3514   7.681   5.227   4.884
 2518W        W 3515   6.329   5.857   0.437
 2519W        W 3516   4.581   6.390   1.012
 2520W        W 3517   4.782   0.480   4.174
 2521W        W 3518   7.580   1.523   1.179
 2522W        W 3519   1.174   5.800   6.067
 2523W        W 3520   3.547   5.623   7.240
 2524W        W 3521   5.988   6.780   7.849
 2525W        W 3522   2.714   1.872   1.590
 2526W        W 3523   0.784   4.863   6.238
 2527W        W 3524   2.892   4.658   3.587
 2528W        W 3525   6.467   2.380   5.822
 2529W        W 3526   4.389   5.337   4.495
 2530W        W 3527   5.368   2.678   5.699
 2531W        W 3528   1.339   2.281   2.428
 2532W        W 3529   5.038   2.613   6.091
 2533W        W 3530   2.905   6.664   1.200
 2534W        W 3531   0.591   3.921   7.028
 2535W        W 3532   2.410   1.421   7.339
 2536W        W 3533   1.541   0.594   5.390
 2537W        W 3534   3.994   2.513   4.507
 2538W        W 3535   1.499   5.295   3.217
 2539W        W 3536   1.950   6.821   6.219
 2540W        W 3537   4.939   2.111   4.850
 2541W        W 3538   6.940   4.813   6.653
 2542W        W 3539   2.729   1.312   3.889
 2543W        W 3540   2.884   4.729   0.998
 2544W        W 3541   7.596   5.828   7.111
 2545W        W 3542   1.659   5.773   7.387
 2546W        W 3543   5.642   1.748   0.342
 2547W        W 3544   5.325   3.289   7.369
 2548W        W 3545   4.680   4.472   1.957
 2549W        W 3546   6.159   1.115   2.270
 2550W        W 3547   0.445   5.467   7.080
 2551W        W 3548   7.115   7.046   5.233
 2552W        W 3549   1.781   1.988   0.557
 2553W        W 3550   3.661   6.809   7.033
 2554W        W 3551   1.970   7.063   7.114
 2555W        W 3552   2.054   1.758   6.144
 2556W        W 3553   3.594   2.157   7.442
 2557W        W 3554   6.367   6.970   2.185
 2558W        W 3555   4.977   1.158   3.472
 2559W        W 3556   3.366   6.682   2.734
 2560W        W 3557   2.358   4.076   1.367
 2561W        W 3558   0.901   4.124   3.264
 2562W        W 3559   0.576   2.501   4.487
 2563W        W 3560   6.484   3.022   1.848
 2564W        W 3561   5.517   0.714   5.986
 2565W        W 3562   4.849   2.904   4.906
 2566W        W 3563   3.055   7.037   5.776
 2567W        W 3564   3.154   6.805   7.099
 2568W        W 3565   2.751   2.342   0.351
 2569W        W 3566   1.466   2.547   5.523
 2570W        W 3567   5.746   0.867   2.320
 2571W        W 3568   7.184   7.532   2.349
 2572W        W 3569   1.455   2.771   5.976
 2573W        W 3570   4.469   2.842   3.828
 2574W        W 3571   6.255   2.844   7.852
 2575W        W 3572   0.569   4.947   7.065
 2576W        W 3573   1.122   5.838   2.780
 2577W        W 3574   7.655   4.314   3.035
 2578W        W 3575   3.691   4.148   2.832
 2579W        W 3576   6.263   2.512   1.764
 2580W        W 3577   7.206   5.037   7.040
 2581W        W 3578   5.390   6.263   7.447
 2582W        W 3579   5.349   0.563   2.371
 2583W        W 3580   7.443   2.517   2.256
 2584W        W 3581   3.213   4.351   6.117
 2585W        W 3582   0.344   4.330   1.526
 2586W        W 3583   4.802   5.193   3.952
 2587W        W 3584   0.378   3.943   6.114
 2588W        W 3585   4.203   6.085   2.341
 2589W        W 3586   4.314   5.624   3.159
 2590W        W 3587   1.224   1.420   2.713
 2591W        W 3588   0.999   4.944   1.181
 2592W        W 3589   4.582   6.156   5.091
 2593W        W 3590   7.459   5.352   4.021
 2594W        W 3591   4.250   6.118   1.800
 2595W        W 3592   5.271   5.301   5.677
 2596W        W 3593   1.397   0.969   1.857
 2597W        W 3594   3.537   1.629   3.848
 2598W        W 3595   7.239   1.212   2.076
 2599W        W 3596   0.322   3.078   5.315
 2600W        W 3597   2.466   5.726   4.622
 2601W        W 3598   1.029   6.447   3.448
 2602W        W 3599   4.913   7.340   4.914
 2603W        W 3600   0.796   2.863   4.782
 2604W        W 3601   1.524   1.432   4.017
 2605W        W 3602   3.597   6.723   5.318
 2606W        W 3603   2.874   6.315   2.106
 2607W        W 3604   0.893   2.206   2.638
 2608W        W 3605   1.098   5.597   5.197
 2609W        W 3606   2.277   0.794   2.233
 2610W        W 3607   3.608   4.063   2.326
 2611W        W 3608   4.332   3.363   5.264
 2612W        W 3609   6.444   6.565   2.935
 2613W        W 3610   6.525   7.410   3.996
 2614W        W 3611   1.276   6.783   6.491
 2615W        W 3612   7.575   3.052   6.519
 2616W        W 3613   5.632   6.162   3.596
 2617W        W 3614   4.792   4.923   7.465
 2618W        W 3615   6.638   6.115   0.772
 2619W        W 3616   4.899   5.656   5.700
 2620W        W 3617   2.051   1.068   3.259
 2621W        W 3618   6.551   2.103   6.816
 2622W        W 3619   0.811   7.212   2.320
 2623W        W 3620   6.121   4.011   3.649
 2624W        W 3621   7.189   2.352   5.708
 2625W        W 3622   4.727   6.430   0.247
 2626W        W 3623   5.406   2.074   2.186
 2627W        W 3624   0.586   1.555   2.618
 2628W        W 3625   7.588   5.650   6.594
 2629W        W 3626   7.070   3.014   6.642
 2630W        W 3627   7.122   4.277   4.762
 2631W        W 3628   5.974   7.060   3.542
 2632W        W 3629   3.241   4.440   1.325
 2633W        W 3630   1.555   5.053   6.892
 2634W        W 3631   0.922   4.008   6.071
 2635W        W 3632   2.487   0.554   1.273
 2636W        W 3633   2.107   1.421   4.732
 2637W        W 3634   2.844   6.443   3.398
 2638W        W 3635   6.093   4.634   5.667
 2639W        W 3636   6.812   1.189   1.818
 2640W        W 3637   1.734   0.588   0.838
 2641W        W 3638   5.707   3.360   4.325
 2642W        W 3639   0.991   1.116   4.912
 2643W        W 3640   4.489   7.256   1.809
 2644W        W 3641   3.534   6.691   7.517
 2645W        W 3642   5.024   4.077   5.138
 2646W        W 3643   1.926   4.433   1.920
 2647W        W 3644   2.149   2.098   7.221
 2648W        W 3645   1.809   6.951   7.894
 2649W        W 3646   6.131   4.481   6.191
 2650W        W 3647   1.932   6.223   0.300
 2651W        W 3648   2.820   5.725   6.543
 2652W        W 3649   6.553   6.297   0.268
 2653W        W 3650   5.037   6.194   2.980
 2654W        W 3651   7.771   6.069   5.863
 2655W        W 3652   2.526   7.121   3.098
 2656W        W 3653   2.614   1.044   1.140
 2657W        W 3654   1.488   1.504   6.232
 2658W        W 3655   5.675   3.023   5.495
 2659W        W 3656   4.538   2.073   2.563
 2660W        W 3657   1.545   1.850   3.428
 2661W        W 3658   6.716   7.242   1.433
 2662W        W 3659   6.781   0.186   7.003
 2663W        W 3660   5.083   4.246   1.701
 2664W        W 3661   2.424   7.196   3.598
 2665W        W 3662   6.807   5.376   2.828
 2666W        W 3663   4.243   7.841   2.250
 2667W        W 3664   3.647   5.857   1.237
 2668W        W 3665   2.852   1.594   2.254
 2669W        W 3666   3.362   0.544   1.819
 2670W        W 3667   6.331   4.994   7.973
 2671W        W 3668   1.458   7.265   2.908
 2672W        W 3669   4.823   6.045   7.803
 2673W        W 3670   1.082   6.346   0.978
 2674W        W 3671   4.783   1.812   7.769
 2675W        W 3672   0.780   6.082   5.908
 2676W        W 3673   3.171   5.442   6.303
 2677W        W 3674   2.594   0.899   6.226
 2678W        W 3675   3.182   2.575   1.757
 2679W        W 3676   2.060   2.431   1.454
 2680W        W 3677   0.223   5.813   1.409
 2681W        W 3678   7.545   2.255   1.438
 2682W        W 3679   4.639   2.455   5.046
 2683W        W 3680   0.545   2.513   2.276
 2684W        W 3681   6.884   2.584   6.104
 2685W        W 3682   4.886   7.007   6.256
 2686W        W 3683   7.154   5.002   5.658
 2687W        W 3684   5.256   6.455   3.383
 2688W        W 3685   2.516   3.247   4.523
 2689W        W 3686   3.213   7.360   1.541
 2690W        W 3687   5.633   6.500   5.641
 2691W        W 3688   1.667   6.429   6.325
 2692W        W 3689   2.879   1.439   1.770
 2693W        W 3690   2.651   2.448   1.795
 2694W        W 3691   0.797   4.724   0.477
 2695W        W 3692   1.334   5.930   2.075
 2696W        W 3693   4.480   6.305   5.947
 2697W        W 3694   7.838   4.454   1.616
 2698W        W 3695   5.408   4.261   2.452
 2699W        W 3696   3.684   4.921   6.818
 2700W        W 3697   7.707   6.028   3.992
 2701W        W 3698   1.786   3.790   6.426
 2702W        W 3699   3.830   3.892   5.816
 2703W        W 3700   4.144   1.435   1.057
 2704W        W 3701   0.832   4.863   4.634
 2705W        W 3702   6.173   1.504   2.592
 2706W        W 3703   4.270   6.001   6.842
 2707W        W 3704   2.221   5.256   3.770
 2708W        W 3705   1.213   3.379   5.294
 2709W        W 3706   7.461   1.542   6.891
 2710W        W 3707   2.619   2.041   2.095
 2711W        W 3708   2.840   3.377   4.086
 2712W        W 3709   3.304   4.433   7.943
 2713W        W 3710   5.010   1.546   0.736
 2714W        W 3711   6.133   2.419   5.397
 2715W        W 3712   3.994   6.373   5.926
 2716W        W 3713   2.566   1.444   0.839
 2717W        W 3714   5.194   0.696   2.834
 2718W        W 3715   0.671   5.336   5.352
 2719W        W 3716   3.956   5.303   0.641
 2720W        W 3717   3.990   6.660   4.106
 2721W        W 3718   3.618   6.014   5.969
 2722W        W 3719   5.574   0.659   1.906
 2723W        W 3720   7.854   5.417   5.332
 2724W        W 3721   2.313   6.640   4.587
 2725W        W 3722   3.071   4.279   0.838
 2726W        W 3723   6.472   1.145   3.145
 2727W        W 3724   1.011   6.361   2.039
 2728W        W 3725   1.315   4.645   0.362
 2729W        W 3726   4.642   4.154   6.689
 2730W        W 3727   5.419   3.819   7.279
 2731W        W 3728   3.130   7.115   1.090
 2732W        W 3729   5.501   0.483   0.281
 2733W        W 3730   4.614   5.900   0.874
 2734W        W 3731   7.487   6.362   0.961
 2735W        W 3732   6.486   0.596   6.841
 2736W        W 3733   1.707   0.704   7.822
 2737W        W 3734   1.724   5.812   4.463
 2738W        W 3735   6.185   0.189   6.057
 2739W        W 3736   6.804   5.875   2.957
 2740W        W 3737   5.150   0.886   0.173
 2741W        W 3738   4.716   5.227   1.460
 2742W        W 3739   3.284   3.919   1.472
 2743W        W 3740   4.068   3.478   2.214
 2744W        W 3741   3.652   3.696   4.571
 2745W        W 3742   5.542   1.417   7.955
 2746W        W 3743   3.702   1.663   7.438
 2747W        W 3744   4.871   1.161   4.366
 2748W        W 3745   5.683   1.608   6.424
 2749W        W 3746   2.569   2.908   6.810
 2750W        W 3747   1.654   7.256   1.101
 2751W        W 3748   7.340   5.041   4.459
 2752W        W 3749   7.646   5.896   1.637
 2753W        W 3750   2.292   4.033   6.228
 2754W        W 3751   6.284   0.173   3.418
 2755W        W 3752   5.810   3.216   2.250
 2756W        W 3753   3.863   6.021   0.533
 2757W        W 3754   4.972   4.887   1.759
 2758W        W 3755   4.227   7.093   4.887
 2759W        W 3756   3.964   0.679   4.050
 2760W        W 3757   5.956   5.049   6.804
 2761W        W 3758   1.625   1.110   2.942
 2762W        W 3759   2.814   5.217   6.009
 2763W        W 3760   7.422   6.902   1.046
 2764W        W 3761   0.765   1.193   5.381
 2765W        W 3762   0.839   3.639   3.669
 2766W        W 3763   3.850   3.813   3.160
 2767W        W 3764   6.589   2.896   5.799
 2768W        W 3765   6.991   1.650   4.060
 2769W        W 3766   6.377   6.318   1.615
 2770W        W 3767   0.426   1.222   5.914
 2771W        W 3768   1.453   3.770   0.250
 2772W        W 3769   2.867   6.474   2.675
 2773W        W 3770   4.846   1.612   3.266
 2774W        W 3771   3.669   2.206   2.527
 2775W        W 3772   0.044   1.657   1.425
 2776W        W 3773   4.685   5.894   0.324
 2777W        W 3774   4.741   6.782   1.776
 2778W        W 3775   4.472   3.426   2.526
 2779W        W 3776   0.618   6.140   1.246
 2780W        W 3777   7.009   6.666   3.721
 2781W        W 3778   3.812   5.890   3.591
 2782W        W 3779   2.053   2.809   4.802
 2783W        W 3780   5.919   1.112   4.324
 2784W        W 3781   0.729   5.990   4.082
 2785W        W 3782   7.250   6.525   6.398
 2786W        W 3783   2.287   6.426   5.555
 2787W        W 3784   6.889   2.373   3.537
 2788W        W 3785   2.280   7.105   5.332
 2789W        W 3786   0.484   2.969   1.977
 2790W        W 3787   6.710   4.373   6.827
 2791W        W 3788   5.970   0.644   4.516
 2792W        W 3789   1.900   6.497   3.669
 2793W        W 3790   6.299   6.552   2.464
 2794W        W 3791   0.127   4.771   1.310
 2795W        W 3792   2.512   7.741   5.628
 2796W        W 3793   4.197   3.268   3.887
 2797W        W 3794   6.914   3.286   4.520
 2798W        W 3795   6.304   5.409   6.721
 2799W        W 3796   7.636   3.727   2.988
 2800W        W 3797   6.267   1.147   6.880
 2801W        W 3798   3.052   0.341   3.730
 2802W        W 3799   3.888   6.466   1.779
 2803W        W 3800   7.179   2.117   3.185
 2804W        W 3801   0.277   2.857   3.732
 2805W        W 3802   5.287   3.196   4.087
 2806W        W 3803   3.038   4.533   4.399
 2807W        W 3804   5.164   4.808   7.124
 2808W        W 3805   3.660   2.177   3.041
 2809W        W 3806   5.363   7.982   1.511
 2810W        W 3807   2.372   2.774   4.412
 2811W        W 3808   4.078   5.439   3.680
 2812W        W 3809   7.160   4.069   5.607
 2813W        W 3810   3.654   4.246   4.586
 2814W        W 3811   3.849   6.872   0.839
 2815W        W 3812   6.455   6.167   3.259
 2816W        W 3813   4.156   2.920   7.950
 2817W        W 3814   6.107   2.767   5.011
 2818W        W 3815   2.676   6.191   5.787
 2819W        W 3816   6.861   2.572   3.080
 2820W        W 3817   6.661   0.849   6.066
 2821W        W 3818   2.745   2.453   4.515
 2822W        W 3819   0.288   7.308   6.387
 2823W        W 3820   5.573   1.661   0.844
 2824W        W 3821   7.472   4.846   6.066
 2825W        W 3822   5.652   2.453   7.731
 2826W        W 3823   7.625   3.425   4.999
 2827W        W 3824   3.890   3.909   4.975
 2828W        W 3825   5.917   1.088   7.783
 2829W        W 3826   4.061   1.726   6.486
 2830W        W 3827   3.924   1.474   4.672
 2831W        W 3828   7.370   1.671   2.730
 2832W        W 3829   7.342   6.326   4.228
 2833W        W 3830   2.278   5.024   1.572
 2834W        W 3831   2.156   2.966   5.281
 2835W        W 3832   3.579   2.800   4.353
 2836W        W 3833   0.883   1.491   6.830
 2837W        W 3834   3.889   4.734   3.465
 2838W        W 3835   5.898   0.463   3.201
 2839W        W 3836   2.975   3.304   4.760
 2840W        W 3837   2.422   0.530   3.086
 2841W        W 3838   5.171   2.986   0.260
 2842W        W 3839   0.224   2.990   1.521
 2843W        W 3840   6.399   3.137   2.407
 2844W        W 3841   4.930   6.228   0.675
 2845W        W 3842   0.717   0.545   2.509
 2846W        W 3843   1.181   0.935   3.146
 2847W        W 3844   2.445   2.121   4.273
 2848W        W 3845   3.222   1.240   3.836
 2849W        W 3846   6.095   7.507   4.315
 2850W        W 3847   6.342   6.308   7.190
 2851W        W 3848   1.249   5.945   7.130
 2852W        W 3849   4.340   3.755   6.724
 2853W        W 3850   3.385   6.281   5.171
 2854W        W 3851   5.422   6.617   5.131
 2855W        W 3852   1.013   4.833   7.987
 2856W        W 3853   6.363   7.527   6.841
 2857W        W 3854   4.423   2.576   4.245
 2858W        W 3855   2.760   0.919   2.974
 2859W        W 3856   6.760   4.162   2.636
 2860W        W 3857   6.542   1.329   4.951
 2861W        W 3858   7.821   4.523   2.119
 2862W        W 3859   6.249   3.934   4.128
 2863W        W 3860   4.688   4.704   4.021
 2864W        W 3861   5.412   5.699   5.963
 2865W        W 3862   1.779   0.767   7.324
 2866W        W 3863   6.649   6.885   4.066
 2867W        W 3864   2.701   4.209   5.212
 2868W        W 3865   3.461   1.233   4.771
 2869W        W 3866   1.036   5.083   6.889
 2870W        W 3867   7.178   6.551   1.308
 2871W        W 3868   0.023   5.702   1.957
 2872W        W 3869   4.887   1.025   6.589
 2873W        W 3870   1.704   0.153   6.697
 2874W        W 3871   6.722   5.282   1.847
 2875W        W 3872   3.206   5.623   5.811
 2876W        W 3873   1.678   2.488   4.715
 2877W        W 3874   3.824   4.714   7.263
 2878W        W 3875   3.313   0.781   3.615
 2879W        W 3876   3.679   1.747   2.729
 2880W        W 3877   6.221   6.210   1.145
 2881W        W 3878   1.854   3.016   2.781
 2882W        W 3879   3.458   5.401   6.767
 2883W        W 3880   0.965   4.336   0.162
 2884W        W 3881   3.852   1.175   7.407
 2885W        W 3882   1.753   4.395   0.520
 2886W        W 3883   4.385   6.513   1.485
 2887W        W 3884   5.276   3.923   2.085
 2888W        W 3885   7.079   5.005   4.024
 2889W        W 3886   7.067   6.415   4.639
 2890W        W 3887   6.601   5.750   1.959
 2891W        W 3888   0.606   3.477   2.687
 2892W        W 3889   6.186   0.960   0.196
 2893W        W 3890   6.688   5.715   6.661
 2894W        W 3891   1.882   4.070   7.228
 2895W        W 3892   1.081   6.947   2.720
 2896W        W 3893   7.362   5.292   5.294
 2897W        W 3894   7.993   4.922   2.427
 2898W        W 3895   0.230   2.034   5.633
 2899W        W 3896   3.536   1.467   6.568
 2900W        W 3897   4.913   6.573   6.004
 2901W        W 3898   1.903   3.402   1.252
 2902W        W 3899   0.581   0.688   6.637
 2903W        W 3900   5.660   1.815   5.763
 2904W        W 3901   4.331   5.314   6.890
 2905W        W 3902   1.074   1.998   7.446
 2906W        W 3903   1.651   3.502   4.038
 2907W        W 3904   2.024   6.223   4.509
 2908W        W 3905   4.461   6.007   1.337
 2909W        W 3906   6.978   6.591   0.161
 2910W        W 3907   1.904   0.665   2.980
 2911W        W 3908   2.110   6.945   0.864
 2912W        W 3909   5.900   0.741   0.560
 2913W        W 3910   6.108   2.696   3.725
 2914W        W 3911   4.690   2.289   5.829
 2915W        W 3912   0.399   4.439   2.943
 2916W        W 3913   3.542   5.333   0.348
 2917W        W 3914   5.962   5.603   6.011
 2918W        W 3915   4.241   2.959   6.104
 2919W        W 3916   1.488   6.693   2.531
 2920W        W 3917   7.211   5.307   6.061
 2921W        W 3918   5.377   0.882   4.915
 2922W        W 3919   3.725   2.745   6.013
 2923W        W 3920   4.401   2.747   4.715
 2924W        W 3921   6.459   1.202   1.345
 2925W        W 3922   3.062   3.440   3.635
 2926W        W 3923   0.663   1.417   0.849
 2927W        W 3924   1.386   6.835   5.500
 2928W        W 3925   7.190   4.773   4.858
 2929W        W 3926   4.497   1.568   6.048
 2930W        W 3927   7.207   7.652   5.778
 2931W        W 3928   0.934   5.965   3.606
 2932W        W 3929   4.334   1.812   0.044
 2933W        W 3930   5.924   1.073   3.802
 2934W        W 3931   6.485   0.645   3.352
 2935W        W 3932   7.142   5.848   5.947
 2936W        W 3933   3.214   0.819   4.120
 2937W        W 3934   0.745   1.561   5.032
 2938W        W 3935   7.219   2.412   2.759
 2939W        W 3936   3.760   1.407   0.294
 2940W        W 3937   3.505   6.605   5.814
 2941W        W 3938   1.006   6.595   5.185
 2942W        W 3939   3.721   5.963   1.733
 2943W        W 3940   1.479   6.838   4.196
 2944W        W 3941   0.321   3.636   4.419
 2945W        W 3942   4.408   5.658   6.509
 2946W        W 3943   3.148   1.008   1.810
 2947W        W 3944   7.687   0.386   2.707
 2948W        W 3945   4.881   1.424   1.595
 2949W        W 3946   5.746   5.889   6.689
 2950W        W 3947   3.492   4.649   1.698
 2951W        W 3948   4.888   2.112   6.256
 2952W        W 3949   6.082   3.801   6.712
 2953W        W 3950   5.628   7.949   6.517
 2954W        W 3951   6.227   6.742   6.291
 2955W        W 3952   5.987   3.706   0.885
 2956W        W 3953   2.298   2.223   2.808
 2957W        W 3954   4.391   5.059   0.595
 2958W        W 3955   4.679   3.496   1.406
 2959W        W 3956   4.644   3.785   3.324
 2960W        W 3957   3.250   6.961   7.864
 2961W        W 3958   2.072   2.962   7.052
 2962W        W 3959   6.022   2.658   5.897
 2963W        W 3960   5.229   6.566   0.446
 2964W        W 3961   1.541   6.646   5.051
 2965W        W 3962   7.651   2.604   4.447
 2966W        W 3963   2.844   2.691   1.351
 2967W        W 3964   3.568   3.678   1.834
 2968W        W 3965   5.336   1.321   0.417
 2969W        W 3966   4.915   3.639   4.865
 2970W        W 3967   2.715   5.027   2.819
 2971W        W 3968   4.926   2.581   5.462
 2972W        W 3969   6.059   6.801   0.778
 2973W        W 3970   1.828   2.537   7.213
 2974W        W 3971   1.876   2.535   5.197
 2975W        W 3972   6.586   7.674   4.410
 2976W        W 3973   1.494   4.256   0.062
 2977W        W 3974   7.129   3.123   4.059
 2978W        W 3975   1.129   4.694   5.010
 2979W        W 3976   7.862   5.097   4.402
 2980W        W 3977   7.309   1.825   6.474
 2981W        W 3978   5.260   5.236   3.728
 2982W        W 3979   3.197   2.090   0.175
 2983W        W 3980   4.823   4.615   6.628
 2984W        W 3981   6.023   3.592   6.237
 2985W        W 3982   6.884   2.401   7.059
 2986W        W 3983   2.828   2.926   1.824
 2987W        W 3984   2.089   0.301   1.059
 2988W        W 3985   5.288   5.080   7.517
 2989W        W 3986   0.895   2.625   6.994
 2990W        W 3987   5.636   2.869   3.598
 2991W        W 3988   1.073   7.076   6.054
 2992W        W 3989   6.108   7.252   6.130
 2993W        W 3990   4.868   7.030   5.719
 2994W        W 3991   3.933   7.496   2.548
 2995W        W 3992   1.970   6.079   6.093
 2996W        W 3993   3.220   4.370   5.264
 2997W        W 3994   5.700   7.739   1.881
 2998W        W 3995   4.443   3.215   7.619
 2999W        W 3996   6.423   3.403   2.887
 3000W        W 3997   4.009   2.839   4.082
 3001W        W 3998   3.388   7.165   7.386
 3002W        W 3999   2.975   4.025   6.443
 3003W        W 4000   6.884   2.172   4.008
 3004W        W 4001   4.357   3.731   4.876
 3005W        W 4002   7.259   4.908   1.336
 3006W        W 4003   1.868   1.358   6.504
 3007W        W 4004   6.788   4.644   5.663
 3008W        W 4005   0.799   1.269   2.989
 3009W        W 4006   2.316   4.391   7.082
 3010W        W 4007   5.975   2.089   7.513
 3011W        W 4008   5.426   6.415   6.115
 3012W        W 4009   2.108   3.428   7.340
 3013W        W 4010   2.611   6.792   7.188
 3014W        W 4011   3.699   6.228   2.161
 3015W        W 4012   5.038   5.891   7.303
 3016W        W 4013   0.699   6.653   1.283
 3017W        W 4014   6.762   0.103   4.202
 3018W        W 4015   1.560   6.472   3.286
 3019W        W 4016   2.336   3.358   6.891
 3020W        W 4017   3.943   3.407   4.912
 3021W        W 4018   6.225   7.783   1.945
 3022W        W 4019   6.961   0.611   6.551
 3023W        W 4020   3.914   1.972   3.789
 3024W        W 4021   2.701   0.747   2.506
 3025W        W 4022   0.424   4.318   6.745
 3026W        W 4023   5.225   0.163   6.240
 3027W        W 4024   5.098   3.880   6.064
 3028W        W 4025   6.424   1.721   1.342
 3029W        W 4026   0.669   2.902   1.028
 3030W        W 4027   3.254   3.036   1.579
 3031W        W 4028   1.914   6.744   5.394
 3032W        W 4029   1.693   4.406   4.262
 3033W        W 4030   4.770   4.604   4.887
 3034W        W 4031   0.514   6.254   2.196
 3035W        W 4032   2.396   2.572   5.103
 3036W        W 4033   0.567   3.004   2.474
 3037W        W 4034   2.277   3.010   3.567
 3038W        W 4035   4.667   3.380   6.802
 3039W        W 4036   0.074   6.168   1.756
 3040W        W 4037   0.567   3.965   2.869
 3041W        W 4038   4.244   5.607   2.508
 3042W        W 4039   2.489   0.893   3.427
 3043W        W 4040   1.268   5.140   7.646
 3044W        W 4041   7.569   3.110   7.016
 3045W        W 4042   4.376   6.798   2.648
 3046W        W 4043   0.077   2.382   3.876
 3047W        W 4044   4.793   5.100   5.748
 3048W        W 4045   7.881   6.570   5.800
 3049W        W 4046   7.495   3.898   4.330
 3050W        W 4047   1.919   6.081   5.576
 3051W        W 4048   4.450   2.948   6.621
 3052W        W 4049   7.260   1.833   1.399
 3053W        W 4050   6.079   4.960   0.893
 3054W        W 4051   2.392   2.850   1.567
 3055W        W 4052   4.279   1.100   6.027
 3056W        W 4053   0.535   6.484   5.670
 3057W        W 4054   3.450   3.591   3.911
 3058W        W 4055   4.521   5.390   0.189
 3059W        W 4056   2.669   0.993   1.639
 3060W        W 4057   2.626   1.187   5.435
 3061W        W 4058   1.812   4.991   6.171
 3062W        W 4059   6.960   6.687   5.994
 3063W        W 4060   5.284   1.652   7.091
 3064W        W 4061   6.232   3.877   4.629
 3065W        W 4062   0.271   6.963   1.216
 3066W        W 4063   5.140   1.835   6.606
 3067W        W 4064   5.930   6.820   7.181
 3068W        W 4065   6.616   7.035   2.750
 3069W        W 4066   7.780   1.107   0.969
 3070W        W 4067   0.545   2.243   7.088
 3071W        W 4068   0.764   3.325   5.569
 3072W        W 4069   6.658   1.131   4.081
 3073W        W 4070   6.756   3.785   2.974
 3074W        W 4071   7.126   3.746   2.638
 3075W        W 4072   3.576   7.095   5.684
 3076W        W 4073   4.467   1.127   7.329
 3077W        W 4074   1.024   1.631   5.488
 3078W        W 4075   2.462   6.922   6.313
 3079W        W 4076   5.893   4.331   7.310
 3080W        W 4077   6.473   0.358   3.857
 3081W        W 4078   3.716   7.789   3.480
 3082W        W 4079   2.225   3.087   5.931
 3083W        W 4080   1.782   3.614   4.547
 3084W        W 4081   7.104   1.080   5.817
 3085W        W 4082   5.774   1.352   6.872
 3086W        W 4083   4.706   5.963   3.951
 3087W        W 4084   0.358   3.583   5.354
 3088W        W 4085   5.556   5.251   4.581
 3089W        W 4086   1.193   1.852   6.476
 3090W        W 4087   1.243   6.235   2.480
 3091W        W 4088   1.134   4.395   6.405
 3092W        W 4089   0.954   2.225   2.130
 3093W        W 4090   5.698   0.477   1.404
 3094W        W 4091   2.681   0.272   2.719
 3095W        W 4092   6.660   1.323   5.871
 3096W        W 4093   2.391   6.903   1.768
 3097W        W 4094   0.823   6.505   2.540
 3098W        W 4095   3.413   6.680   1.056
 3099W        W 4096   6.469   4.735   4.366
 3100W        W 4097   3.073   5.413   1.577
 3101W        W 4098   5.000   1.237   4.826
 3102W        W 4099   3.358   3.134   2.565
 3103W        W 4100   2.913   0.609   3.326
 3104W        W 4101   7.813   3.652   5.840
 3105W        W 4102   0.834   7.164   1.435
 3106W        W 4103   5.309   2.664   6.917
 3107W        W 4104   1.965   4.508   0.055
 3108W        W 4105   7.905   3.289   2.851
 3109W        W 4106   6.520   1.641   3.300
 3110W        W 4107   4.901   3.747   6.535
 3111W        W 4108   2.136   2.661   6.628
 3112W        W 4109   1.999   7.229   3.058
 3113W        W 4110   4.422   2.480   2.893
 3114W        W 4111   7.244   1.159   1.034
 3115W        W 4112   3.759   3.078   2.263
 3116W        W 4113   6.598   1.344   6.383
 3117W        W 4114   3.234   2.128   6.079
 3118W        W 4115   1.880   1.233   4.293
 3119W        W 4116   5.379   3.762   4.005
 3120W        W 4117   4.142   4.648   0.417
 3121W        W 4118   6.815   2.194   7.713
 3122W        W 4119   6.352   4.013   0.698
 3123W        W 4120   3.587   3.942   5.378
 3124W        W 4121   1.281   4.171   0.539
 3125W        W 4122   1.495   6.175   5.917
 3126W        W 4123   4.367   3.065   2.900
 3127W        W 4124   7.274   4.276   1.467
 3128W        W 4125   0.816   3.525   4.586
 3129W        W 4126   4.276   4.927   4.235
 3130W        W 4127   3.081   3.033   7.583
 3131W        W 4128   4.711   4.908   2.200
 3132W        W 4129   5.237   4.492   3.385
 3133W        W 4130   5.359   5.253   2.670
 3134W        W 4131   7.051   1.541   6.121
 3135W        W 4132   3.277   3.110   4.025
 3136W        W 4133   7.628   1.672   1.701
 3137W        W 4134   3.196   4.972   1.329
 3138W        W 4135   1.246   7.519   1.457
 3139W        W 4136   1.195   5.655   7.611
 3140W        W 4137   5.394   2.979   0.731
 3141W        W 4138   5.147   0.666   6.342
 3142W        W 4139   5.892   2.237   1.502
 3143W        W 4140   5.795   1.163   1.871
 3144ION    NA+ 4141   4.255   3.749   1.289
 3145ION    NA+ 4142   6.000   1.429   0.195
 3146ION    NA+ 4143   1.379   3.848   2.477
 3147ION    NA+ 4144   0.298   0.648   2.235
 3148ION    NA+ 4145   1.326   2.903   3.670
 3149ION    NA+ 4146   5.782   5.976   5.685
 3150ION    NA+ 4147   4.767   3.442   2.943
 3151ION    NA+ 4148   1.329   2.047   2.927
 3152ION    NA+ 4149   0.669   6.148   0.716
 3153ION    NA+ 4150   0.639   3.922   1.978
 3154ION    NA+ 4151   1.333   1.487   2.167
 3155ION    NA+ 4152   6.283   5.143   7.165
 3156ION    NA+ 4153   6.102   1.235   7.340
 3157ION    NA+ 4154   2.429   7.818   6.632
 3158ION    NA+ 4155   4.737   5.176   4.867
 3159ION    NA+ 4156   1.381   5.101   1.525
 3160ION    NA+ 4157   3.620   0.955   1.592
 3161ION    NA+ 4158   4.992   4.886   2.611
 3162ION    NA+ 4159   7.034   5.866   4.637
 3163ION    NA+ 4160   2.460   6.023   6.268
 3164ION    NA+ 4161   4.681   2.945   7.978
 3165ION    NA+ 4162   5.513   6.409   2.954
 3166ION    NA+ 4163   7.322   3.279   5.419
 3167ION    NA+ 4164   5.669   2.391   7.142
 3168ION    NA+ 4165   1.677   3.610   1.650
 3169ION    NA+ 4166   4.581   5.419   3.543
 3170ION    NA+ 4167   7.567   6.325   5.455
 3171ION    NA+ 4168   0.417   3.354   3.620
 3172ION    NA+ 4169   6.730   6.658   6.477
 3173ION    NA+ 4170   4.465   2.198   7.692
 3174ION    NA+ 4171   3.658   0.274   2.151
 3175ION    NA+ 4172   1.939   5.541   0.956
 3176ION    NA+ 4173   1.584   5.849   5.234
 3177ION    NA+ 4174   5.160   1.819   1.785
 3178ION    NA+ 4175   3.561   0.860   5.408
 3179ION    NA+ 4176   4.425   4.930   6.539
 3180ION    NA+ 4177   4.400   1.895   5.621
 3181ION    NA+ 4178   6.711   3.085   6.282
 3182ION    NA+ 4179   1.088   7.580   6.995
 3183ION    NA+ 4180   0.619   4.380   6.279
 3184ION    NA+ 4181   2.837   2.594   7.376
 3185ION    NA+ 4182   4.754   7.142   2.726
 3186ION    NA+ 4183   5.371   0.265   5.732
 3187ION    NA+ 4184   2.140   2.776   7.556
 3188ION    NA+ 4185   3.245   2.135   3.372
 3189ION    NA+ 4186   6.454   2.643   2.245
 3190ION    NA+ 4187   3.961   2.167   0.160
 3191ION    NA+ 4188   7.225   2.049   2.382
 3192ION    NA+ 4189   2.776   0.129   3.226
 3193ION    NA+ 4190   6.522   2.955   3.126
 3194ION    NA+ 4191   4.237   4.558   3.842
 3195ION    NA+ 4192   2.743   4.950   4.365
 3196ION    NA+ 4193   4.554   0.228   2.089
 3197ION    NA+ 4194   5.986   4.121   3.128
 3198ION    NA+ 4195   4.863   3.291   5.247
 3199ION    NA+ 4196   3.251   2.327   6.589
 3200ION    NA+ 4197   7.660   4.135   5.708
 3201ION    NA+ 4198   7.026   2.240   6.551
 3202ION    NA+ 4199   2.465   7.266   7.352
 3203ION    NA+ 4200   1.363   0.911   7.006
 3204ION    NA+ 4201   2.806   3.884   5.954
 3205ION    NA+ 4202   1.655   6.980   2.108
 3206ION    NA+ 4203   2.066   3.446   5.343
 3207ION    NA+ 4204   2.922   0.722   6.754
 3208ION    NA+ 4205   0.423   6.061   3.495
 3209ION    NA+ 4206   5.977   7.851   6.868
 3210ION    NA+ 4207   0.644   3.817   5.683
 3211ION    NA+ 4208   1.210   2.316   1.701
 3212ION    NA+ 4209   6.263   0.119   5.568
 3213ION    NA+ 4210   6.751   7.550   2.685
 3214ION    NA+ 4211   5.726   7.029   1.654
 3215ION    NA+ 4212   5.727   4.239   4.771
 3216ION    NA+ 4213   4.874   2.855   4.136
 3217ION    NA+ 4214   1.156   1.735   4.261
 3218ION    NA+ 4215   4.862   2.538   3.718
 3219ION    NA+ 4216   3.487   3.961   6.390
 3220ION    NA+ 4217   1.658   1.982   6.350
 3221ION    NA+ 4218   0.583   2.451   3.944
 3222ION    NA+ 4219   1.508   7.550   1.940
 3223ION    NA+ 4220   2.680   1.625   5.076
 3224ION    NA+ 4221   0.287   2.113   6.635
 3225ION    NA+ 4222   0.661   5.001   1.968
 3226ION    NA+ 4223   1.950   7.694   6.756
 3227ION    NA+ 4224   1.496   2.645   1.230
 3228ION    NA+ 4225   2.375   4.816   2.490
 3229ION    NA+ 4226   5.565   4.443   5.613
 3230ION    NA+ 4227   5.206   1.148   7.286
 3231ION    NA+ 4228   3.817   7.145   3.998
 3232ION    NA+ 4229   0.313   0.961   5.487
 3233ION    NA+ 4230   5.246   1.657   7.627
 3234ION    NA+ 4231   4.373   1.787   3.881
 3235ION    NA+ 4232   5.757   3.492   1.814
 3236ION    NA+ 4233   6.556   4.237   4.419
 3237ION    NA+ 4234   5.028   6.374   6.478
 3238ION    NA+ 4235   2.512   6.643   2.236
 3239ION    NA+ 4236   7.172   3.352   2.321
 3240ION    NA+ 4237   2.137   4.533   1.421
 3241ION    NA+ 4238   5.210   6.380   4.731
 3242ION    NA+ 4239   6.794   5.029   4.626
 3243ION    NA+ 4240   6.060   6.295   6.513
   8.00000   8.00000   8.00000
