Martini system from ../2_Creating_coordinates/TYR-ASP-TYR_aa.pdb
 4240
    1TYR     BB    1   1.370   6.574   4.347 -0.2599  0.2737 -0.0747
    1TYR    SC1    2   1.216   6.369   4.213 -0.2199 -0.3277  0.1469
    1TYR    SC2    3   1.061   6.255   4.023  0.1231 -0.3230 -0.1483
    1TYR    SC3    4   1.153   6.107   4.229  0.0659 -0.4281 -0.1973
    2ASP     BB    5   1.553   6.808   4.382 -0.1238  0.0247  0.0812
    2ASP    SC1    6   1.557   6.905   4.688  0.1025  0.5580 -0.0944
    3TYR     BB    7   1.801   6.940   4.230  0.1110  0.0291  0.2144
    3TYR    SC1    8   1.876   7.171   4.402 -0.2022 -0.0797 -0.2137
    3TYR    SC2    9   1.787   7.304   4.619 -0.1611 -0.3481 -0.0250
    3TYR    SC3   10   2.050   7.303   4.561 -0.2052  0.0012 -0.2767
    1TYR     BB   11   2.088   0.387   1.230  0.0456 -0.2981  0.1435
    1TYR    SC1   12   2.053   0.651   1.129 -0.3897  0.0617 -0.0045
    1TYR    SC2   13   1.994   0.849   0.955 -0.1259  0.0464 -0.1176
    1TYR    SC3   14   2.249   0.765   0.982 -0.1921 -0.0852  0.1387
    2ASP     BB   15   2.321   0.209   1.138  0.3552  0.3081 -0.1530
    2ASP    SC1   16   2.341  -0.096   1.194  0.0623  0.1067 -0.1549
    3TYR     BB   17   2.546   0.373   1.061  0.2721  0.3115 -0.1087
    3TYR    SC1   18   2.764   0.278   0.927  0.1490  0.1121  0.2244
    3TYR    SC2   19   3.000   0.207   0.817 -0.0637  0.1073 -0.2576
    3TYR    SC3   20   2.817   0.018   0.880 -0.0623  0.1318 -0.1792
    1TYR     BB   21   2.682   1.624   6.303 -0.1051  0.0620  0.4866
    1TYR    SC1   22   2.828   1.601   6.579  0.1127  0.1540  0.1383
    1TYR    SC2   23   2.764   1.599   6.841 -0.1030 -0.1860  0.0902
    1TYR    SC3   24   3.009   1.681   6.763 -0.1188  0.1587  0.3708
    2ASP     BB   25   2.764   1.274   6.138 -0.0802 -0.1745 -0.0546
    2ASP    SC1   26   3.066   1.382   6.197 -0.5212 -0.0319 -0.1347
    3TYR     BB   27   2.719   0.991   6.066 -0.1249 -0.2477 -0.2611
    3TYR    SC1   28   2.929   0.816   5.997  0.2852 -0.1836  0.1254
    3TYR    SC2   29   3.073   0.588   6.004  0.2378 -0.2104  0.2809
    3TYR    SC3   30   3.199   0.826   5.990  0.2851 -0.2478  0.0089
    1TYR     BB   31   1.579   4.580   2.714  0.0439  0.0734 -0.0319
    1TYR    SC1   32   1.436   4.719   2.473  0.0277 -0.0799 -0.1838
    1TYR    SC2   33   1.209   4.786   2.342 -0.0447  0.3537  0.1370
    1TYR    SC3   34   1.431   4.720   2.203 -0.3941 -0.2506 -0.1876
    2ASP     BB   35   1.315   4.510   2.926  0.0500  0.0997 -0.1132
    2ASP    SC1   36   1.097   4.394   2.769  0.2269 -0.0117 -0.0414
    3TYR     BB   37   1.354   4.562   3.191  0.3513  0.1559 -0.1090
    3TYR    SC1   38   1.078   4.522   3.409 -0.0572  0.1674 -0.1192
    3TYR    SC2   39   0.895   4.327   3.438  0.2604 -0.1034  0.1762
    3TYR    SC3   40   0.961   4.483   3.649  0.4680 -0.1048  0.1148
    1TYR     BB   41   1.705   2.180   3.793  0.2559  0.0248 -0.4370
    1TYR    SC1   42   1.891   1.936   3.747 -0.0200  0.3379 -0.1644
    1TYR    SC2   43   2.044   1.747   3.864 -0.4417 -0.0200 -0.1564
    1TYR    SC3   44   2.160   1.963   3.749  0.0307 -0.0609  0.2022
    2ASP     BB   45   1.678   2.069   4.157 -0.2123 -0.0592 -0.1883
    2ASP    SC1   46   1.834   2.249   4.312 -0.0730  0.0794 -0.0081
    3TYR     BB   47   1.689   1.760   4.228  0.3404 -0.0031  0.3257
    3TYR    SC1   48   1.783   1.685   4.482 -0.1817  0.1562  0.1765
    3TYR    SC2   49   1.810   1.504   4.681  0.5058  0.0555  0.0246
    3TYR    SC3   50   1.976   1.716   4.669  0.1004  0.3802 -0.1379
    1TYR     BB   51   1.237   0.623   0.298 -0.0455  0.1474  0.3572
    1TYR    SC1   52   1.234   0.618   0.582  0.4312  0.1891 -0.0223
    1TYR    SC2   53   1.217   0.514   0.830 -0.1222 -0.1208 -0.1686
    1TYR    SC3   54   1.155   0.773   0.788 -0.0976 -0.0853  0.0042
    2ASP     BB   55   1.481   0.513   0.073 -0.2234  0.1551 -0.2690
    2ASP    SC1   56   1.587   0.756  -0.100 -0.0180  0.1318 -0.0946
    3TYR     BB   57   1.596   0.230   0.027  0.0862 -0.0405 -0.5521
    3TYR    SC1   58   1.859   0.171   0.128  0.0758 -0.0234 -0.0329
    3TYR    SC2   59   2.128   0.196   0.141  0.0894 -0.1751  0.0079
    3TYR    SC3   60   1.992   0.095   0.351 -0.0214  0.0690  0.0577
    1TYR     BB   61   1.894   1.042   7.222  0.0299 -0.2809  0.3994
    1TYR    SC1   62   1.732   1.199   6.987  0.0564 -0.0775 -0.1059
    1TYR    SC2   63   1.643   1.437   6.896  0.0594 -0.1165 -0.2118
    1TYR    SC3   64   1.488   1.217   6.873  0.2563 -0.2280 -0.5903
    2ASP     BB   65   2.027   0.808   6.978  0.0025 -0.0869  0.1106
    2ASP    SC1   66   1.868   0.615   6.852 -0.5354 -0.1869 -0.4726
    3TYR     BB   67   2.355   0.845   6.989 -0.0523  0.0408  0.0009
    3TYR    SC1   68   2.465   1.008   6.727 -0.0865 -0.0074  0.2300
    3TYR    SC2   69   2.539   1.214   6.569  0.1781 -0.1909  0.1056
    3TYR    SC3   70   2.437   0.989   6.459 -0.0353 -0.1604  0.2341
    1TYR     BB   71   1.957   1.338   0.079 -0.1228  0.1217 -0.0091
    1TYR    SC1   72   2.016   1.051   0.042  0.1237  0.2060  0.2891
    1TYR    SC2   73   2.202   0.915  -0.098  0.1764  0.1793  0.3837
    1TYR    SC3   74   2.060   0.790   0.095  0.0100  0.1814  0.2653
    2ASP     BB   75   1.571   1.313  -0.080 -0.1350 -0.0002  0.0954
    2ASP    SC1   76   1.371   1.182  -0.308  0.0960 -0.0306  0.2171
    3TYR     BB   77   1.502   1.643   0.004  0.2556  0.1589  0.2176
    3TYR    SC1   78   1.495   1.764  -0.255  0.0070 -0.3594  0.1162
    3TYR    SC2   79   1.652   1.958  -0.359 -0.0223 -0.3888  0.0152
    3TYR    SC3   80   1.507   1.800  -0.523 -0.0671 -0.4383  0.1018
    1TYR     BB   81   0.874   5.683   4.325  0.2025  0.0858  0.0115
    1TYR    SC1   82   0.798   5.407   4.444  0.0874  0.0199 -0.0841
    1TYR    SC2   83   0.879   5.157   4.383 -0.0499 -0.1264  0.2920
    1TYR    SC3   84   0.747   5.203   4.614  0.1624  0.3334  0.3360
    2ASP     BB   85   0.750   5.926   4.422  0.0186  0.0735  0.1689
    2ASP    SC1   86   0.875   6.154   4.645  0.2086 -0.1935  0.1886
    3TYR     BB   87   0.590   6.125   4.208  0.0330 -0.0027 -0.0024
    3TYR    SC1   88   0.708   6.404   4.254 -0.0500 -0.1161  0.0654
    3TYR    SC2   89   0.784   6.644   4.157 -0.2794 -0.0934 -0.0685
    3TYR    SC3   90   0.618   6.630   4.370 -0.0633 -0.1399  0.1023
    1TYR     BB   91   0.898   0.215   0.480 -0.2201 -0.1946 -0.1525
    1TYR    SC1   92   0.783   0.470   0.497 -0.2318 -0.0679 -0.2052
    1TYR    SC2   93   0.788   0.736   0.544 -0.0914 -0.1131  0.0586
    1TYR    SC3   94   0.554   0.602   0.552 -0.1853  0.0247 -0.2309
    2ASP     BB   95   1.207   0.110   0.380  0.0416 -0.0531 -0.4939
    2ASP    SC1   96   1.149  -0.059   0.104  0.2417  0.0614  0.1019
    3TYR     BB   97   1.451   0.189   0.562  0.2150  0.0681  0.4420
    3TYR    SC1   98   1.702   0.073   0.695 -0.0609  0.1010  0.1361
    3TYR    SC2   99   1.893  -0.117   0.713 -0.0135  0.1225 -0.1028
    3TYR    SC3  100   1.935   0.127   0.821  0.0360  0.0834 -0.0327
    1TYR     BB  101   3.065   2.177   2.277  0.1290  0.1861 -0.2756
    1TYR    SC1  102   3.194   2.419   2.396 -0.0358 -0.4137  0.1410
    1TYR    SC2  103   3.239   2.669   2.487 -0.2358 -0.2038 -0.2979
    1TYR    SC3  104   3.376   2.461   2.591  0.0243  0.0982 -0.0064
    2ASP     BB  105   3.252   1.932   2.305  0.3286  0.2395 -0.0448
    2ASP    SC1  106   3.290   1.938   2.608  0.1000 -0.0878  0.4096
    3TYR     BB  107   3.163   1.623   2.161  0.1250 -0.2112  0.1079
    3TYR    SC1  108   3.239   1.559   1.890 -0.0257 -0.0096 -0.1575
    3TYR    SC2  109   3.373   1.413   1.706 -0.0306  0.0216 -0.1860
    3TYR    SC3  110   3.103   1.429   1.696 -0.0418 -0.0921 -0.0913
    1TYR     BB  111   4.649   2.370   2.694  0.1772  0.2190  0.0736
    1TYR    SC1  112   4.907   2.428   2.551 -0.1019 -0.1779 -0.2587
    1TYR    SC2  113   5.087   2.619   2.486  0.0621 -0.2045  0.0905
    1TYR    SC3  114   5.126   2.364   2.406 -0.0564 -0.1335 -0.2101
    2ASP     BB  115   4.407   2.600   2.841  0.1695 -0.0423 -0.1130
    2ASP    SC1  116   4.319   2.581   3.133  0.1301  0.0487 -0.1006
    3TYR     BB  117   4.169   2.660   2.646 -0.0433  0.0086 -0.0140
    3TYR    SC1  118   4.190   2.914   2.493  0.3403  0.0469  0.2403
    3TYR    SC2  119   4.253   3.025   2.255 -0.1587 -0.0244  0.0600
    3TYR    SC3  120   4.300   3.161   2.484 -0.0666  0.2324 -0.1048
    1TYR     BB  121   0.779   6.900   3.182 -0.2285  0.0113 -0.0594
    1TYR    SC1  122   0.779   6.926   2.869  0.1964 -0.5493 -0.0412
    1TYR    SC2  123   0.702   6.990   2.618 -0.3079 -0.3154  0.1568
    1TYR    SC3  124   0.815   6.750   2.668  0.1720 -0.2198 -0.3478
    2ASP     BB  125   0.777   6.538   3.130  0.1897  0.0131  0.1497
    2ASP    SC1  126   0.454   6.522   3.072  0.2489 -0.0054 -0.3927
    3TYR     BB  127   0.962   6.407   2.985 -0.0221 -0.2696 -0.2024
    3TYR    SC1  128   1.240   6.369   3.057  0.0407  0.1014 -0.0892
    3TYR    SC2  129   1.442   6.301   3.223 -0.0416 -0.1132 -0.0728
    3TYR    SC3  130   1.495   6.365   2.966  0.1162  0.4649  0.0843
    1TYR     BB  131   1.776   0.322   3.434 -0.0953 -0.1004  0.1207
    1TYR    SC1  132   1.438   0.305   3.414  0.1056  0.1793  0.3141
    1TYR    SC2  133   1.237   0.156   3.515  0.2671 -0.1803  0.1303
    1TYR    SC3  134   1.189   0.328   3.313  0.1328 -0.2160  0.1305
    2ASP     BB  135   1.914   0.498   3.595  0.0856  0.0635  0.2057
    2ASP    SC1  136   2.184   0.395   3.741 -0.1002 -0.2999 -0.1169
    3TYR     BB  137   1.863   0.784   3.837 -0.0603 -0.0781  0.2426
    3TYR    SC1  138   1.718   0.747   4.082  0.0367  0.0746  0.1291
    3TYR    SC2  139   1.644   0.572   4.274  0.2059  0.0776  0.1992
    3TYR    SC3  140   1.757   0.808   4.342  0.1467  0.1355  0.0993
    1TYR     BB  141   1.338   0.645   3.838 -0.1216  0.1301 -0.2026
    1TYR    SC1  142   1.467   0.340   3.894  0.1538 -0.1103 -0.0883
    1TYR    SC2  143   1.639   0.132   3.886 -0.0212 -0.2779  0.2339
    1TYR    SC3  144   1.380   0.091   3.949 -0.1350  0.0012 -0.0174
    2ASP     BB  145   1.401   0.754   3.587 -0.1672  0.1681  0.0678
    2ASP    SC1  146   1.095   0.768   3.434  0.1230  0.1282 -0.2350
    3TYR     BB  147   1.566   0.841   3.309  0.1062 -0.1463  0.0060
    3TYR    SC1  148   1.869   0.846   3.304 -0.1743 -0.0281 -0.2429
    3TYR    SC2  149   2.079   0.988   3.210 -0.1346  0.0273 -0.0760
    3TYR    SC3  150   2.082   0.718   3.200 -0.0994  0.0306 -0.1636
    1TYR     BB  151   2.337   2.017   1.723  0.0644  0.1024  0.0012
    1TYR    SC1  152   2.552   1.861   1.878 -0.2453  0.2549 -0.0085
    1TYR    SC2  153   2.734   1.661   1.889 -0.1981  0.2913 -0.1100
    1TYR    SC3  154   2.617   1.751   2.116 -0.1837  0.1818 -0.0585
    2ASP     BB  155   2.381   2.280   1.626  0.2576 -0.3145 -0.1301
    2ASP    SC1  156   2.466   2.310   1.335  0.0142  0.2229 -0.1265
    3TYR     BB  157   2.344   2.575   1.791 -0.3356 -0.3505  0.2191
    3TYR    SC1  158   2.196   2.569   2.046  0.0329  0.0297 -0.1526
    3TYR    SC2  159   2.065   2.427   2.235  0.2737  0.0110  0.0051
    3TYR    SC3  160   1.961   2.659   2.145 -0.1742 -0.2957 -0.3243
    1TYR     BB  161   1.543   1.546   3.134 -0.1570  0.1966  0.0676
    1TYR    SC1  162   1.691   1.390   3.363 -0.3244  0.0265  0.1902
    1TYR    SC2  163   1.809   1.498   3.580 -0.1920  0.2294  0.0214
    1TYR    SC3  164   1.820   1.232   3.539 -0.1832  0.1943  0.2400
    2ASP     BB  165   1.267   1.338   3.041 -0.0856  0.1831 -0.0022
    2ASP    SC1  166   1.065   1.546   2.966 -0.0132  0.0373  0.0384
    3TYR     BB  167   1.211   1.065   3.061 -0.0023  0.0794  0.2296
    3TYR    SC1  168   1.196   0.803   2.915  0.0145 -0.3073 -0.0803
    3TYR    SC2  169   1.311   0.562   2.875  0.1263 -0.2370 -0.1948
    3TYR    SC3  170   1.050   0.598   2.817  0.2270 -0.2015 -0.6708
    1TYR     BB  171   2.670   1.147   4.735  0.1186 -0.2331 -0.3395
    1TYR    SC1  172   2.785   1.421   4.840  0.0090 -0.1267  0.3535
    1TYR    SC2  173   2.931   1.502   5.052 -0.1189  0.1172  0.3526
    1TYR    SC3  174   2.818   1.685   4.888 -0.2626 -0.0676  0.2413
    2ASP     BB  175   2.484   1.157   4.467 -0.1196  0.0639 -0.1458
    2ASP    SC1  176   2.633   1.089   4.210  0.2099 -0.1733  0.0405
    3TYR     BB  177   2.157   1.107   4.477 -0.0524  0.1428 -0.0096
    3TYR    SC1  178   2.019   1.153   4.181  0.0659 -0.0498  0.1262
    3TYR    SC2  179   1.875   1.296   4.002 -0.0045 -0.0514  0.1809
    3TYR    SC3  180   2.131   1.230   3.948  0.1001  0.2770  0.2433
    1TYR     BB  181   0.770   0.178   2.942  0.2062  0.1942 -0.1245
    1TYR    SC1  182   0.705   0.479   3.054 -0.4670 -0.1460 -0.0301
    1TYR    SC2  183   0.609   0.718   2.971 -0.1958 -0.0316 -0.0279
    1TYR    SC3  184   0.620   0.660   3.235  0.0814  0.1111 -0.0035
    2ASP     BB  185   0.858   0.130   2.702 -0.3375 -0.3137 -0.0879
    2ASP    SC1  186   0.642   0.028   2.486  0.0229 -0.1610  0.1942
    3TYR     BB  187   1.154   0.115   2.617  0.0753  0.1901  0.1675
    3TYR    SC1  188   1.297   0.090   2.876 -0.0607  0.0671  0.0313
    3TYR    SC2  189   1.525   0.157   3.004  0.1262  0.0719 -0.2911
    3TYR    SC3  190   1.379  -0.053   3.090  0.2237  0.0980 -0.0515
    1TYR     BB  191   1.242   6.880   3.038 -0.0539  0.0467 -0.0793
    1TYR    SC1  192   1.259   6.812   2.743  0.2849  0.3529  0.0705
    1TYR    SC2  193   1.442   6.753   2.553  0.2258 -0.0439  0.1273
    1TYR    SC3  194   1.214   6.882   2.486  0.2391 -0.1135 -0.0589
    2ASP     BB  195   1.466   6.855   3.195 -0.2053 -0.4039 -0.2134
    2ASP    SC1  196   1.445   6.728   3.471  0.0253 -0.1980 -0.1009
    3TYR     BB  197   1.710   7.027   3.185 -0.1412 -0.0979  0.0467
    3TYR    SC1  198   1.861   7.284   3.141  0.0651  0.0523 -0.0342
    3TYR    SC2  199   1.836   7.531   3.033  0.1678  0.0147 -0.1476
    3TYR    SC3  200   2.072   7.401   3.019  0.2004  0.0289  0.1711
    1TYR     BB  201   2.731   0.352   6.962 -0.2489 -0.0572  0.0383
    1TYR    SC1  202   2.535   0.482   6.760  0.1928 -0.2949 -0.0513
    1TYR    SC2  203   2.459   0.578   6.519  0.2073 -0.1407  0.0041
    1TYR    SC3  204   2.288   0.429   6.665  0.1235 -0.0594 -0.0102
    2ASP     BB  205   2.980   0.443   7.010  0.3981 -0.0649  0.0495
    2ASP    SC1  206   3.179   0.205   7.089 -0.0662  0.2057  0.2547
    3TYR     BB  207   3.007   0.763   6.977  0.1811  0.0042  0.0368
    3TYR    SC1  208   2.781   0.886   7.178  0.1875  0.3234 -0.0564
    3TYR    SC2  209   2.678   1.136   7.174  0.0154  0.2562  0.0344
    3TYR    SC3  210   2.655   0.984   7.396 -0.1060  0.0682 -0.1027
    1TYR     BB  211   1.500   4.106   2.573 -0.1976 -0.0859 -0.2481
    1TYR    SC1  212   1.372   4.287   2.347 -0.0183 -0.2511  0.0023
    1TYR    SC2  213   1.357   4.306   2.078  0.0428 -0.0537  0.0105
    1TYR    SC3  214   1.134   4.333   2.229  0.0487  0.1031 -0.0076
    2ASP     BB  215   1.401   3.946   2.864  0.1822  0.1630 -0.0596
    2ASP    SC1  216   1.414   3.653   2.747 -0.2807  0.3001 -0.2599
    3TYR     BB  217   1.259   3.985   3.058  0.4696  0.1567 -0.4878
    3TYR    SC1  218   1.298   4.084   3.340 -0.0972  0.3339  0.0562
    3TYR    SC2  219   1.511   4.068   3.505 -0.1062  0.0286  0.0461
    3TYR    SC3  220   1.283   4.186   3.590 -0.0407  0.0663  0.1730
    1TYR     BB  221   2.467   0.768   4.958 -0.0152  0.1451 -0.0428
    1TYR    SC1  222   2.591   0.563   5.131 -0.1155 -0.0016  0.1016
    1TYR    SC2  223   2.785   0.377   5.104 -0.0796  0.0475  0.0148
    1TYR    SC3  224   2.621   0.371   5.319 -0.1378 -0.1384 -0.0325
    2ASP     BB  225   2.356   0.680   4.677  0.0309  0.1692  0.1711
    2ASP    SC1  226   2.614   0.620   4.493  0.5594 -0.1353  0.3157
    3TYR     BB  227   2.087   0.600   4.636 -0.0228 -0.4032 -0.0489
    3TYR    SC1  228   2.044   0.367   4.430  0.1150 -0.0376 -0.1763
    3TYR    SC2  229   1.946   0.263   4.201  0.1157 -0.1583 -0.1226
    3TYR    SC3  230   2.212   0.271   4.242  0.1080 -0.5223  0.0470
    1TYR     BB  231   1.840   0.509   6.356  0.1866  0.1035  0.4143
    1TYR    SC1  232   2.070   0.644   6.209 -0.0542 -0.0621  0.2323
    1TYR    SC2  233   2.316   0.648   6.098  0.0294  0.0791  0.4161
    1TYR    SC3  234   2.175   0.877   6.122 -0.1382 -0.0065  0.2783
    2ASP     BB  235   1.663   0.358   6.164 -0.3246 -0.1182 -0.3001
    2ASP    SC1  236   1.386   0.496   6.244  0.2103  0.2241 -0.1394
    3TYR     BB  237   1.748   0.087   6.046  0.4287 -0.2607 -0.1224
    3TYR    SC1  238   2.055   0.002   6.171 -0.0358 -0.3431 -0.1387
    3TYR    SC2  239   2.206   0.142   6.346 -0.3854 -0.0093 -0.0866
    3TYR    SC3  240   2.311  -0.070   6.216  0.0393  0.0525  0.1341
    1TYR     BB  241   2.175   1.066   2.691  0.2528  0.1570  0.1237
    1TYR    SC1  242   2.189   0.793   2.660  0.2335  0.0873  0.3816
    1TYR    SC2  243   2.225   0.552   2.775  0.2205 -0.1953 -0.1648
    1TYR    SC3  244   2.134   0.568   2.521  0.2023  0.3937 -0.1375
    2ASP     BB  245   1.892   1.195   2.815  0.1714 -0.0662  0.1094
    2ASP    SC1  246   2.031   1.454   2.992  0.3076 -0.0392  0.0543
    3TYR     BB  247   1.672   1.050   2.883 -0.0926  0.2522  0.0130
    3TYR    SC1  248   1.680   0.774   2.814 -0.0014 -0.0013  0.1017
    3TYR    SC2  249   1.798   0.539   2.875  0.1734  0.0871  0.1100
    3TYR    SC3  250   1.683   0.574   2.633  0.1759  0.0041  0.0966
    1TYR     BB  251   3.790   1.222   1.818  0.0938  0.2148  0.2755
    1TYR    SC1  252   3.824   0.945   1.711  0.0103 -0.1615  0.2512
    1TYR    SC2  253   3.997   0.798   1.565  0.1704 -0.0272  0.3029
    1TYR    SC3  254   3.872   0.688   1.778 -0.3713 -0.3546 -0.1499
    2ASP     BB  255   4.036   1.228   2.012  0.1332  0.0702  0.1457
    2ASP    SC1  256   4.118   0.996   2.203 -0.3299 -0.3236  0.0677
    3TYR     BB  257   4.267   1.431   1.887 -0.1573 -0.1738  0.0455
    3TYR    SC1  258   4.138   1.705   1.948  0.0098  0.1977 -0.0401
    3TYR    SC2  259   4.299   1.845   2.113 -0.0148 -0.0287  0.1846
    3TYR    SC3  260   4.083   1.964   2.001  0.0219  0.1386  0.2861
    1TYR     BB  261   1.070   4.400   4.086  0.0398  0.0102 -0.1169
    1TYR    SC1  262   1.339   4.300   4.046 -0.0646  0.4006 -0.1499
    1TYR    SC2  263   1.570   4.234   3.922 -0.2282  0.1284 -0.3227
    1TYR    SC3  264   1.567   4.276   4.189  0.0232  0.1599 -0.3220
    2ASP     BB  265   1.112   4.731   4.219  0.0713 -0.0186  0.1309
    2ASP    SC1  266   1.337   4.671   4.412 -0.0620 -0.0554  0.2896
    3TYR     BB  267   1.061   4.865   3.974  0.2108  0.4313 -0.0363
    3TYR    SC1  268   1.060   5.136   3.943  0.1768  0.0730 -0.1997
    3TYR    SC2  269   1.070   5.391   4.031 -0.0796  0.1127 -0.2763
    3TYR    SC3  270   1.071   5.339   3.766 -0.2460  0.0490 -0.2658
    1TYR     BB  271   0.309   7.470   3.464  0.0259 -0.0377 -0.1917
    1TYR    SC1  272   0.065   7.267   3.436 -0.2144  0.1673  0.2569
    1TYR    SC2  273  -0.176   7.384   3.407 -0.2735  0.0337  0.1999
    1TYR    SC3  274  -0.153   7.116   3.390 -0.0950  0.0570  0.0342
    2ASP     BB  275   0.346   7.586   3.096 -0.0233 -0.3416  0.2545
    2ASP    SC1  276   0.242   7.911   3.164 -0.1923 -0.0881  0.0870
    3TYR     BB  277   0.538   7.359   2.951 -0.0747 -0.1828  0.1156
    3TYR    SC1  278   0.326   7.120   2.964 -0.1747  0.1767 -0.1418
    3TYR    SC2  279   0.304   6.885   2.832  0.1281 -0.0969  0.2639
    3TYR    SC3  280   0.099   6.975   2.984 -0.0822  0.0377 -0.0839
    1TYR     BB  281   0.949   3.935   3.812  0.1572 -0.3564 -0.0191
    1TYR    SC1  282   0.863   3.761   3.571 -0.3060 -0.1396  0.1416
    1TYR    SC2  283   0.867   3.756   3.301  0.1011 -0.2397  0.1413
    1TYR    SC3  284   0.803   3.533   3.440  0.3833 -0.3395  0.1206
    2ASP     BB  285   1.114   3.799   3.971  0.0581  0.0822  0.1538
    2ASP    SC1  286   1.167   3.874   4.274 -0.1163  0.1968  0.1970
    3TYR     BB  287   1.344   3.704   3.786  0.1087  0.0306 -0.0652
    3TYR    SC1  288   1.289   3.658   3.501 -0.1482 -0.0857  0.0338
    3TYR    SC2  289   1.481   3.590   3.324 -0.0814 -0.2900  0.1794
    3TYR    SC3  290   1.225   3.519   3.278 -0.0608 -0.3620  0.1740
    1TYR     BB  291   2.487   7.549   0.141  0.1923 -0.0301 -0.2298
    1TYR    SC1  292   2.657   7.785   0.229 -0.1612 -0.0807  0.0882
    1TYR    SC2  293   2.920   7.739   0.267 -0.1188 -0.0249 -0.1186
    1TYR    SC3  294   2.782   7.889   0.444  0.1323  0.4656 -0.3144
    2ASP     BB  295   2.346   7.412   0.412 -0.1037  0.2027 -0.0263
    2ASP    SC1  296   2.092   7.245   0.337 -0.2626  0.1967 -0.3838
    3TYR     BB  297   2.360   7.598   0.701 -0.0834  0.1133 -0.1182
    3TYR    SC1  298   2.336   7.890   0.603 -0.0071  0.1551  0.4576
    3TYR    SC2  299   2.300   8.106   0.445 -0.0309 -0.0443  0.1810
    3TYR    SC3  300   2.220   8.112   0.703  0.1142  0.3285  0.2244
    1TYR     BB  301   1.948   4.331   3.591 -0.0385 -0.3235 -0.4178
    1TYR    SC1  302   1.908   4.032   3.649 -0.0833 -0.1010  0.0291
    1TYR    SC2  303   1.809   3.788   3.707  0.0077 -0.0714  0.3341
    1TYR    SC3  304   2.023   3.882   3.842 -0.0009  0.1626  0.1924
    2ASP     BB  305   2.164   4.465   3.766  0.3385  0.0421  0.1718
    2ASP    SC1  306   2.009   4.543   4.043  0.2617 -0.1426 -0.0590
    3TYR     BB  307   2.371   4.709   3.697 -0.2989 -0.2355 -0.1525
    3TYR    SC1  308   2.227   4.970   3.754 -0.0760 -0.0553 -0.0776
    3TYR    SC2  309   2.101   5.207   3.730 -0.0373 -0.0502 -0.2420
    3TYR    SC3  310   1.963   4.988   3.807 -0.1348 -0.0321 -0.3608
    1TYR     BB  311   2.187   0.217   3.176  0.1643  0.0532  0.0484
    1TYR    SC1  312   2.150   0.002   3.400  0.1838  0.0343  0.1382
    1TYR    SC2  313   2.157  -0.254   3.483 -0.4061 -0.0422  0.0084
    1TYR    SC3  314   2.046  -0.064   3.640  0.2957  0.2171  0.2402
    2ASP     BB  315   2.428   0.379   3.186  0.2658 -0.0927  0.2021
    2ASP    SC1  316   2.654   0.311   2.984 -0.3293 -0.0050  0.0994
    3TYR     BB  317   2.541   0.471   3.433  0.1874  0.2423 -0.0226
    3TYR    SC1  318   2.453   0.729   3.562 -0.0809  0.2129 -0.3632
    3TYR    SC2  319   2.284   0.940   3.565 -0.1669  0.1444 -0.1130
    3TYR    SC3  320   2.525   0.959   3.685 -0.2737  0.0266  0.1292
    1TYR     BB  321   0.968   0.331   3.830  0.2058  0.1408  0.1486
    1TYR    SC1  322   0.900   0.008   3.869 -0.2965 -0.0499  0.2222
    1TYR    SC2  323   0.979  -0.250   3.867  0.2275  0.0967  0.1756
    1TYR    SC3  324   0.718  -0.189   3.835  0.1248 -0.4102 -0.1037
    2ASP     BB  325   0.700   0.360   3.618  0.2073  0.0749  0.1301
    2ASP    SC1  326   0.423   0.381   3.795 -0.0551  0.0573  0.1638
    3TYR     BB  327   0.671   0.148   3.429  0.0582 -0.3359  0.1580
    3TYR    SC1  328   0.853  -0.093   3.408 -0.2950 -0.0258 -0.1199
    3TYR    SC2  329   0.779  -0.352   3.417 -0.0974 -0.0814 -0.0241
    3TYR    SC3  330   1.038  -0.284   3.456 -0.1872  0.1494  0.2062
    1TYR     BB  331   0.286   6.651   4.025 -0.0347  0.0550 -0.1860
    1TYR    SC1  332   0.495   6.500   3.847  0.2886 -0.0957  0.2536
    1TYR    SC2  333   0.701   6.333   3.797  0.2724 -0.0030 -0.1688
    1TYR    SC3  334   0.558   6.436   3.592  0.0769  0.2768  0.0976
    2ASP     BB  335   0.454   6.976   3.944 -0.1319  0.2126  0.0264
    2ASP    SC1  336   0.200   7.100   3.840  0.0909 -0.2174 -0.1471
    3TYR     BB  337   0.677   6.976   3.803 -0.1132 -0.1483  0.1235
    3TYR    SC1  338   0.869   6.791   3.759  0.0112 -0.0028 -0.2611
    3TYR    SC2  339   1.058   6.610   3.829 -0.1224 -0.0002  0.1390
    3TYR    SC3  340   0.971   6.623   3.573  0.2999 -0.1059 -0.0206
    1TYR     BB  341   0.657   0.529   2.529  0.1303  0.0890 -0.0387
    1TYR    SC1  342   0.814   0.625   2.344 -0.2983 -0.0977 -0.2230
    1TYR    SC2  343   0.891   0.692   2.094 -0.0563  0.0527 -0.1120
    1TYR    SC3  344   0.876   0.881   2.286 -0.0371 -0.0961  0.0390
    2ASP     BB  345   0.351   0.722   2.524  0.0445  0.1654 -0.1815
    2ASP    SC1  346   0.152   0.605   2.291  0.2702  0.0465 -0.1908
    3TYR     BB  347   0.361   0.982   2.656 -0.2872 -0.0220  0.0798
    3TYR    SC1  348   0.632   1.079   2.633 -0.2031  0.0349  0.2486
    3TYR    SC2  349   0.777   1.268   2.761  0.0604 -0.1310  0.2049
    3TYR    SC3  350   0.885   1.026   2.711 -0.0958 -0.1308 -0.1779
    1TYR     BB  351   0.652   5.623   2.429  0.1312 -0.2695 -0.1744
    1TYR    SC1  352   0.839   5.374   2.371 -0.2216 -0.1855 -0.0123
    1TYR    SC2  353   0.958   5.171   2.238  0.1724  0.0376 -0.0182
    1TYR    SC3  354   1.002   5.203   2.502  0.1118  0.1151 -0.0171
    2ASP     BB  355   0.851   5.850   2.680 -0.1867 -0.2236  0.0748
    2ASP    SC1  356   0.704   6.148   2.620 -0.0993 -0.2231 -0.1386
    3TYR     BB  357   1.153   5.946   2.853  0.1774 -0.4793  0.1433
    3TYR    SC1  358   1.394   5.862   2.965 -0.2082  0.0875  0.4267
    3TYR    SC2  359   1.563   5.768   3.153 -0.0261  0.1093  0.2777
    3TYR    SC3  360   1.524   5.628   2.926 -0.2834  0.0579  0.3501
    1TYR     BB  361   2.036   1.959   6.926 -0.0533  0.3606  0.0021
    1TYR    SC1  362   1.982   1.689   7.083 -0.1898  0.1720  0.1331
    1TYR    SC2  363   2.073   1.712   7.336  0.0310 -0.2940  0.1102
    1TYR    SC3  364   1.867   1.546   7.281  0.2801 -0.5582 -0.0666
    2ASP     BB  365   2.359   1.956   6.816  0.0059  0.1140  0.0862
    2ASP    SC1  366   2.551   2.119   6.629  0.1247  0.0256  0.1682
    3TYR     BB  367   2.320   1.697   6.625 -0.1659 -0.0087  0.6496
    3TYR    SC1  368   2.298   1.482   6.766  0.2752  0.3298  0.1926
    3TYR    SC2  369   2.355   1.367   7.004 -0.2582  0.2054  0.2750
    3TYR    SC3  370   2.145   1.279   6.858  0.0066  0.3365 -0.2100
    1TYR     BB  371   1.160   1.411   2.385  0.2986 -0.2996  0.1416
    1TYR    SC1  372   1.005   1.685   2.485 -0.0808  0.2396 -0.0976
    1TYR    SC2  373   0.764   1.764   2.577 -0.0081 -0.0615  0.4005
    1TYR    SC3  374   0.983   1.918   2.619 -0.0113 -0.0938  0.5393
    2ASP     BB  375   1.350   1.259   2.559  0.0660 -0.1701 -0.3769
    2ASP    SC1  376   1.555   1.478   2.618 -0.1140  0.0058  0.0659
    3TYR     BB  377   1.330   0.951   2.453  0.0850 -0.1372 -0.2086
    3TYR    SC1  378   1.666   0.936   2.359  0.2017  0.2741 -0.0543
    3TYR    SC2  379   1.931   0.905   2.320  0.2492  0.3092  0.2161
    3TYR    SC3  380   1.824   1.153   2.331  0.2232  0.2979  0.2178
    1TYR     BB  381   3.810   3.351   2.479 -0.1522  0.0764  0.1335
    1TYR    SC1  382   3.727   3.048   2.464 -0.5470  0.3325 -0.0612
    1TYR    SC2  383   3.699   2.822   2.609 -0.1395  0.2870 -0.0368
    1TYR    SC3  384   3.611   2.830   2.354 -0.2017  0.1182 -0.0223
    2ASP     BB  385   3.861   3.502   2.181  0.1875  0.0840 -0.0029
    2ASP    SC1  386   3.817   3.815   2.228  0.0031  0.0720  0.1248
    3TYR     BB  387   4.074   3.486   1.941  0.1433  0.0323  0.1871
    3TYR    SC1  388   4.096   3.708   1.723  0.1640  0.1260 -0.0132
    3TYR    SC2  389   4.150   3.949   1.615  0.0790  0.1946  0.0950
    3TYR    SC3  390   3.910   3.904   1.730  0.0104 -0.0126 -0.1218
    1TYR     BB  391   0.286   1.163   3.938 -0.0041  0.1498 -0.3153
    1TYR    SC1  392   0.521   0.921   3.878  0.0626  0.0548 -0.0546
    1TYR    SC2  393   0.746   0.771   3.869  0.0134 -0.0144 -0.1513
    1TYR    SC3  394   0.646   0.878   3.642  0.1483  0.3174 -0.0606
    2ASP     BB  395   0.215   1.147   4.234  0.1715  0.2057 -0.3154
    2ASP    SC1  396  -0.086   1.304   4.256  0.0047 -0.1760 -0.0306
    3TYR     BB  397   0.324   0.804   4.341 -0.0855 -0.1191 -0.3092
    3TYR    SC1  398   0.511   0.709   4.542  0.0109 -0.4535 -0.1062
    3TYR    SC2  399   0.774   0.727   4.603  0.0622 -0.3780 -0.3408
    3TYR    SC3  400   0.602   0.617   4.780  0.1921 -0.1083 -0.0344
    1TYR     BB  401   2.544   1.497   3.874 -0.1001 -0.3847  0.0609
    1TYR    SC1  402   2.348   1.468   3.667 -0.0476  0.0457  0.0085
    1TYR    SC2  403   2.226   1.603   3.467 -0.1575  0.3106  0.2450
    1TYR    SC3  404   2.281   1.340   3.439 -0.0936  0.3592 -0.1618
    2ASP     BB  405   2.855   1.446   3.808  0.0596  0.1805 -0.0375
    2ASP    SC1  406   2.981   1.740   3.733 -0.1591  0.0846 -0.2299
    3TYR     BB  407   3.020   1.176   3.895  0.1374  0.0278 -0.0635
    3TYR    SC1  408   3.042   0.999   3.660 -0.1505  0.2497 -0.1349
    3TYR    SC2  409   2.919   0.967   3.422 -0.2609 -0.0136 -0.0464
    3TYR    SC3  410   2.976   0.752   3.575  0.3081  0.0968 -0.0781
    1TYR     BB  411   4.121   3.150   0.907 -0.0893  0.1974  0.1124
    1TYR    SC1  412   4.226   2.977   1.126 -0.0730  0.0360 -0.1736
    1TYR    SC2  413   4.067   2.787   1.234  0.0045  0.1322  0.1226
    1TYR    SC3  414   4.334   2.780   1.276  0.0379  0.1724 -0.0706
    2ASP     BB  415   3.813   3.198   0.983  0.0688  0.1871 -0.1163
    2ASP    SC1  416   3.707   3.476   0.856 -0.2338 -0.0993  0.0537
    3TYR     BB  417   3.655   3.059   1.128 -0.1657  0.0729  0.0130
    3TYR    SC1  418   3.485   3.175   1.310  0.1131  0.3168 -0.2361
    3TYR    SC2  419   3.308   3.171   1.513  0.2429  0.1594 -0.1230
    3TYR    SC3  420   3.267   3.333   1.302  0.0294  0.2156 -0.0417
    1TYR     BB  421   1.819   7.040   3.680 -0.2508 -0.1068 -0.1804
    1TYR    SC1  422   1.659   7.288   3.609 -0.4452 -0.5949  0.0732
    1TYR    SC2  423   1.628   7.521   3.474  0.3972 -0.3254  0.2682
    1TYR    SC3  424   1.429   7.428   3.631 -0.1059  0.0465 -0.1098
    2ASP     BB  425   2.060   6.955   3.706  0.3967 -0.3568  0.3076
    2ASP    SC1  426   2.175   6.684   3.670 -0.0153 -0.1559  0.1389
    3TYR     BB  427   2.257   7.024   4.046 -0.0616 -0.3718 -0.0415
    3TYR    SC1  428   2.087   7.308   4.032  0.0349  0.0797 -0.0355
    3TYR    SC2  429   2.080   7.537   4.176  0.1272  0.0816 -0.0327
    3TYR    SC3  430   1.851   7.431   4.078  0.0492  0.0235  0.2031
    1TYR     BB  431   4.236   2.231   2.446  0.1443 -0.0195 -0.4701
    1TYR    SC1  432   3.990   2.164   2.365  0.0130 -0.0681  0.1424
    1TYR    SC2  433   3.743   2.063   2.326  0.0228 -0.0198 -0.0565
    1TYR    SC3  434   3.775   2.326   2.375  0.0348 -0.0260 -0.0307
    2ASP     BB  435   4.455   2.308   2.187  0.0901 -0.0186  0.0250
    2ASP    SC1  436   4.693   2.123   2.206 -0.3612  0.2170  0.1013
    3TYR     BB  437   4.508   2.603   2.142  0.0344  0.0753 -0.1732
    3TYR    SC1  438   4.633   2.765   2.369 -0.1109  0.2847  0.0105
    3TYR    SC2  439   4.812   2.966   2.391 -0.1033  0.2762  0.0264
    3TYR    SC3  440   4.663   2.894   2.605 -0.0063  0.1722  0.0601
    1TYR     BB  441   1.475   6.016   2.051  0.3893  0.0226 -0.2675
    1TYR    SC1  442   1.552   5.955   2.320  0.1600 -0.0055 -0.0911
    1TYR    SC2  443   1.557   6.003   2.586 -0.0163 -0.1957 -0.0507
    1TYR    SC3  444   1.689   5.791   2.484 -0.1477 -0.2650 -0.0808
    2ASP     BB  445   1.177   6.165   2.050  0.0633  0.0255  0.3167
    2ASP    SC1  446   1.132   6.369   1.786 -0.0978  0.0704 -0.0138
    3TYR     BB  447   1.005   5.940   2.204  0.1254  0.2202 -0.2590
    3TYR    SC1  448   1.148   5.694   2.344 -0.1520 -0.0181 -0.0777
    3TYR    SC2  449   1.288   5.570   2.539 -0.1310  0.4592  0.2302
    3TYR    SC3  450   1.369   5.551   2.282  0.0065  0.0516  0.2949
    1TYR     BB  451   3.842   2.398   2.862  0.2140  0.3275  0.2250
    1TYR    SC1  452   3.834   2.081   2.799  0.1626 -0.0703  0.3271
    1TYR    SC2  453   3.983   1.877   2.703  0.1107 -0.1052  0.3206
    1TYR    SC3  454   3.742   1.828   2.815 -0.1081 -0.0099 -0.0851
    2ASP     BB  455   3.660   2.581   3.040 -0.4433 -0.1043  0.1684
    2ASP    SC1  456   3.370   2.669   3.052  0.0331  0.0828  0.0768
    3TYR     BB  457   3.832   2.611   3.332 -0.1729  0.1407  0.2249
    3TYR    SC1  458   3.750   2.866   3.475 -0.1882  0.0082  0.0642
    3TYR    SC2  459   3.652   3.028   3.667 -0.1402 -0.1767  0.2483
    3TYR    SC3  460   3.622   3.094   3.407 -0.5076 -0.0914  0.3057
    1TYR     BB  461   2.720   1.031   5.209 -0.2689 -0.1714 -0.2706
    1TYR    SC1  462   2.978   0.811   5.271  0.0471 -0.0613  0.2404
    1TYR    SC2  463   3.026   0.620   5.456 -0.1264 -0.2314  0.1144
    1TYR    SC3  464   3.133   0.598   5.209 -0.5992 -0.4765 -0.0851
    2ASP     BB  465   2.709   1.258   5.435 -0.1663  0.0696  0.2117
    2ASP    SC1  466   2.966   1.161   5.664  0.0925 -0.0132 -0.2126
    3TYR     BB  467   2.496   1.429   5.365 -0.0040 -0.1789  0.0032
    3TYR    SC1  468   2.365   1.413   5.088 -0.0160  0.1436  0.0234
    3TYR    SC2  469   2.193   1.301   4.912 -0.2385  0.0828  0.2703
    3TYR    SC3  470   2.344   1.513   4.839 -0.2414 -0.0117 -0.0239
    1TYR     BB  471   1.892   7.657   4.976  0.1378  0.1213 -0.2532
    1TYR    SC1  472   2.164   7.772   4.852 -0.1833 -0.1151 -0.1334
    1TYR    SC2  473   2.417   7.844   4.913 -0.2677  0.1337 -0.0603
    1TYR    SC3  474   2.358   7.757   4.664 -0.1019  0.0226 -0.0630
    2ASP     BB  475   1.682   7.808   5.051  0.3242  0.0882  0.0583
    2ASP    SC1  476   1.394   7.792   5.208  0.0491 -0.2835 -0.3295
    3TYR     BB  477   1.597   8.035   4.827 -0.1075  0.2124  0.2159
    3TYR    SC1  478   1.652   7.862   4.562 -0.1292  0.0586 -0.1685
    3TYR    SC2  479   1.503   7.840   4.337 -0.1418  0.3306 -0.1909
    3TYR    SC3  480   1.683   7.648   4.399 -0.4200  0.0495 -0.2198
    1TYR     BB  481   3.742   3.088   1.953 -0.0369 -0.0014 -0.0993
    1TYR    SC1  482   3.732   2.840   1.773 -0.1563  0.0726  0.4461
    1TYR    SC2  483   3.760   2.661   1.572 -0.0428  0.0220  0.5057
    1TYR    SC3  484   3.524   2.787   1.608  0.0086  0.2276  0.1782
    2ASP     BB  485   3.455   3.157   1.973  0.0384  0.0572 -0.2920
    2ASP    SC1  486   3.316   3.434   2.103  0.2094  0.0114 -0.0301
    3TYR     BB  487   3.221   2.954   2.032  0.1849  0.1002 -0.1149
    3TYR    SC1  488   3.336   2.683   2.017  0.2206  0.0227  0.0754
    3TYR    SC2  489   3.259   2.427   1.976 -0.1517  0.0588  0.4618
    3TYR    SC3  490   3.502   2.479   2.081  0.0490 -0.1105  0.1065
    1TYR     BB  491   4.063   1.845   1.071  0.0552 -0.6037 -0.0820
    1TYR    SC1  492   4.062   1.585   0.957  0.0521  0.0644 -0.1436
    1TYR    SC2  493   4.012   1.465   0.721  0.2105 -0.1007 -0.0965
    1TYR    SC3  494   4.178   1.348   0.899 -0.0620 -0.0785  0.1821
    2ASP     BB  495   4.074   1.714   1.385  0.4148 -0.2392  0.0760
    2ASP    SC1  496   4.368   1.721   1.468  0.1403  0.2610  0.1483
    3TYR     BB  497   3.825   1.674   1.597 -0.0879 -0.5730  0.0155
    3TYR    SC1  498   3.677   1.903   1.766 -0.1516 -0.0978  0.3008
    3TYR    SC2  499   3.663   2.170   1.797  0.0128 -0.0406 -0.0573
    3TYR    SC3  500   3.459   2.014   1.879 -0.1590  0.2087  0.0031
    1TYR     BB  501   4.537   2.531   1.625 -0.0233  0.1756 -0.1515
    1TYR    SC1  502   4.267   2.379   1.576 -0.0362  0.2609  0.2921
    1TYR    SC2  503   4.050   2.385   1.416 -0.0059  0.1155  0.2437
    1TYR    SC3  504   4.099   2.168   1.569  0.2825  0.0017  0.0024
    2ASP     BB  505   4.899   2.515   1.688  0.2618  0.0476  0.3903
    2ASP    SC1  506   5.010   2.344   1.504  0.2779  0.0765 -0.2922
    3TYR     BB  507   4.981   2.494   1.981 -0.1065 -0.0477  0.0322
    3TYR    SC1  508   5.166   2.745   2.060 -0.0660 -0.0725 -0.2712
    3TYR    SC2  509   5.239   2.997   2.125 -0.3850 -0.0213 -0.0861
    3TYR    SC3  510   5.417   2.795   2.147 -0.2397  0.1265  0.1498
    1TYR     BB  511   1.859   2.125   0.068 -0.0654  0.0002 -0.1383
    1TYR    SC1  512   1.535   2.152   0.130  0.4079  0.2398 -0.2281
    1TYR    SC2  513   1.289   2.104   0.030  0.3777 -0.1652  0.0120
    1TYR    SC3  514   1.317   2.240   0.262  0.3816 -0.1358 -0.0055
    2ASP     BB  515   1.953   2.413  -0.081 -0.1770 -0.2524 -0.0685
    2ASP    SC1  516   1.843   2.640   0.145  0.2530  0.0781 -0.1261
    3TYR     BB  517   1.793   2.429  -0.387 -0.0333 -0.2062  0.4692
    3TYR    SC1  518   2.024   2.476  -0.611 -0.2603  0.0838  0.2183
    3TYR    SC2  519   2.178   2.446  -0.831 -0.0107 -0.1038  0.4115
    3TYR    SC3  520   2.225   2.650  -0.660 -0.4079  0.2370  0.1406
    1TYR     BB  521   0.519   4.948   4.014  0.0662  0.1243 -0.0396
    1TYR    SC1  522   0.460   4.986   4.308 -0.0276  0.0193  0.0041
    1TYR    SC2  523   0.415   4.894   4.557 -0.0350 -0.0190 -0.0113
    1TYR    SC3  524   0.316   5.134   4.483 -0.1020 -0.0437 -0.0029
    2ASP     BB  525   0.549   4.625   4.008 -0.0929  0.2752 -0.0530
    2ASP    SC1  526   0.574   4.507   4.307  0.2744  0.1397  0.0057
    3TYR     BB  527   0.453   4.470   3.839  0.0868 -0.2131  0.2775
    3TYR    SC1  528   0.537   4.227   3.749 -0.0752  0.1845  0.1186
    3TYR    SC2  529   0.442   3.975   3.771  0.0190  0.1109 -0.2406
    3TYR    SC3  530   0.544   4.061   3.536 -0.0100  0.4865 -0.1236
    1TYR     BB  531   2.736   2.787   2.121  0.1867 -0.1258 -0.1465
    1TYR    SC1  532   2.846   2.709   1.810  0.1920  0.0645  0.2214
    1TYR    SC2  533   2.793   2.582   1.578 -0.2472  0.0733  0.3060
    1TYR    SC3  534   3.010   2.742   1.598 -0.0161 -0.1872  0.0128
    2ASP     BB  535   2.650   2.514   2.226  0.1469 -0.0174  0.0037
    2ASP    SC1  536   2.651   2.584   2.520  0.0312 -0.2473  0.3377
    3TYR     BB  537   2.620   2.298   2.102  0.1456 -0.0382  0.1197
    3TYR    SC1  538   2.822   2.245   1.850 -0.2981 -0.0616 -0.0337
    3TYR    SC2  539   2.988   2.033   1.860 -0.1805  0.0390  0.2582
    3TYR    SC3  540   2.919   2.138   1.621  0.2890  0.0816  0.1274
    1TYR     BB  541   2.714   1.971   0.872  0.0381  0.1403  0.0372
    1TYR    SC1  542   2.784   1.828   1.128 -0.5362 -0.0033 -0.0686
    1TYR    SC2  543   2.874   1.607   1.255  0.3127  0.3446  0.0219
    1TYR    SC3  544   2.773   1.813   1.397 -0.2591  0.1329 -0.0447
    2ASP     BB  545   2.792   2.312   0.911 -0.1854  0.2234  0.1757
    2ASP    SC1  546   2.661   2.392   0.657 -0.1428  0.3351  0.1921
    3TYR     BB  547   2.940   2.379   1.178  0.3446 -0.0166 -0.1720
    3TYR    SC1  548   3.095   2.610   1.137 -0.2645 -0.0940  0.4906
    3TYR    SC2  549   3.206   2.831   1.246 -0.2122  0.0798  0.1040
    3TYR    SC3  550   3.216   2.792   0.979 -0.0503 -0.4893  0.1758
    1TYR     BB  551   1.024   7.597   4.354 -0.3177 -0.3182 -0.0282
    1TYR    SC1  552   1.274   7.457   4.291  0.1044  0.1373  0.2060
    1TYR    SC2  553   1.448   7.359   4.109 -0.1418 -0.0376  0.0569
    1TYR    SC3  554   1.435   7.251   4.356 -0.1614 -0.1437  0.0099
    2ASP     BB  555   0.777   7.496   4.432  0.0839 -0.1947  0.1793
    2ASP    SC1  556   0.605   7.702   4.635  0.0236  0.1881 -0.1203
    3TYR     BB  557   0.561   7.365   4.254  0.1484  0.2870 -0.3810
    3TYR    SC1  558   0.291   7.505   4.158  0.0456  0.3152 -0.1478
    3TYR    SC2  559   0.025   7.535   4.126 -0.0022 -0.1880 -0.3358
    3TYR    SC3  560   0.195   7.643   3.946 -0.0573  0.2810 -0.1242
    1TYR     BB  561   1.011   7.140   4.706  0.2778  0.0856 -0.1351
    1TYR    SC1  562   1.219   7.339   4.740  0.0210  0.1231  0.2982
    1TYR    SC2  563   1.429   7.368   4.908  0.1409  0.0715  0.1596
    1TYR    SC3  564   1.377   7.557   4.722 -0.0656  0.1892  0.3316
    2ASP     BB  565   1.059   6.906   4.486  0.4417 -0.0406 -0.2165
    2ASP    SC1  566   1.040   6.669   4.740  0.2887  0.1981  0.1221
    3TYR     BB  567   0.982   7.109   4.236 -0.0465 -0.0104 -0.0435
    3TYR    SC1  568   1.141   7.041   3.981  0.1874  0.0861 -0.0348
    3TYR    SC2  569   1.248   7.052   3.734  0.1585  0.0274 -0.0502
    3TYR    SC3  570   1.385   6.935   3.936  0.1103 -0.0770 -0.0774
    1TYR     BB  571   0.626   1.476   4.597  0.0819  0.3180 -0.0013
    1TYR    SC1  572   0.692   1.186   4.444 -0.2548 -0.2114 -0.0253
    1TYR    SC2  573   0.784   1.046   4.233  0.2545  0.0840 -0.0179
    1TYR    SC3  574   0.954   1.124   4.428 -0.1876 -0.1174  0.4789
    2ASP     BB  575   0.948   1.487   4.792 -0.2733  0.1599 -0.0330
    2ASP    SC1  576   0.956   1.712   4.987 -0.1724 -0.1099 -0.0564
    3TYR     BB  577   1.252   1.346   4.747  0.2562 -0.0191  0.0520
    3TYR    SC1  578   1.404   1.264   4.522  0.2050  0.1850  0.0105
    3TYR    SC2  579   1.547   1.311   4.298  0.0486 -0.1076 -0.1587
    3TYR    SC3  580   1.403   1.084   4.321 -0.3215  0.1332  0.0420
    1TYR     BB  581   2.469   0.511   7.364  0.2903 -0.1443  0.2371
    1TYR    SC1  582   2.517   0.531   7.692 -0.0643 -0.0519  0.0240
    1TYR    SC2  583   2.728   0.588   7.851 -0.1700 -0.0781  0.1770
    1TYR    SC3  584   2.517   0.755   7.842 -0.0857  0.0217 -0.0845
    2ASP     BB  585   2.458   0.179   7.343  0.1584  0.0686  0.1699
    2ASP    SC1  586   2.266   0.154   7.096  0.2438 -0.3061  0.1342
    3TYR     BB  587   2.751   0.102   7.397 -0.1510  0.0962 -0.2465
    3TYR    SC1  588   2.890   0.346   7.483 -0.1914  0.1196  0.1773
    3TYR    SC2  589   3.079   0.423   7.660  0.1235 -0.2723  0.0332
    3TYR    SC3  590   2.978   0.601   7.484  0.4415 -0.0769  0.0394
    1TYR     BB  591   0.730   4.953   3.560 -0.0925  0.1763 -0.0274
    1TYR    SC1  592   1.051   4.941   3.469  0.0528 -0.0047  0.2225
    1TYR    SC2  593   1.309   4.980   3.541  0.1157  0.1932 -0.0832
    1TYR    SC3  594   1.197   5.137   3.352 -0.1258 -0.1133 -0.2053
    2ASP     BB  595   0.550   4.739   3.441 -0.2332 -0.2803  0.2719
    2ASP    SC1  596   0.258   4.822   3.515  0.1092  0.1808 -0.3079
    3TYR     BB  597   0.504   4.560   3.136  0.0769 -0.4305  0.2705
    3TYR    SC1  598   0.610   4.286   3.119 -0.0079  0.1707 -0.2266
    3TYR    SC2  599   0.513   4.043   3.051  0.1124  0.0184  0.1199
    3TYR    SC3  600   0.771   4.104   3.000  0.0709  0.0930 -0.0064
    1TYR     BB  601   3.014   0.533   1.447  0.0323  0.1471 -0.0121
    1TYR    SC1  602   3.174   0.407   1.659 -0.1927  0.2954  0.2321
    1TYR    SC2  603   3.413   0.329   1.756 -0.0615  0.1932 -0.1485
    1TYR    SC3  604   3.186   0.270   1.891  0.0937 -0.1111 -0.0070
    2ASP     BB  605   2.708   0.584   1.577 -0.0147 -0.1666 -0.0995
    2ASP    SC1  606   2.731   0.416   1.855 -0.1618 -0.0419  0.1527
    3TYR     BB  607   2.455   0.625   1.472  0.2297  0.0262 -0.2528
    3TYR    SC1  608   2.271   0.862   1.510  0.0665  0.1563 -0.0634
    3TYR    SC2  609   2.291   1.064   1.332 -0.1019  0.0843 -0.1678
    3TYR    SC3  610   2.057   1.017   1.458  0.0118  0.1259  0.0671
    1TYR     BB  611   3.850   1.572   3.227  0.1860 -0.1642 -0.0450
    1TYR    SC1  612   3.997   1.465   3.013 -0.2407 -0.0814  0.0111
    1TYR    SC2  613   4.002   1.445   2.744 -0.1512  0.0107  0.0053
    1TYR    SC3  614   4.233   1.466   2.882 -0.2053  0.1964  0.0703
    2ASP     BB  615   3.714   1.882   3.312  0.2593  0.0453  0.3317
    2ASP    SC1  616   3.417   1.846   3.472  0.0438 -0.3148  0.0960
    3TYR     BB  617   3.841   2.100   3.321 -0.0168 -0.0585  0.2558
    3TYR    SC1  618   4.125   2.095   3.152 -0.1375  0.1234 -0.1950
    3TYR    SC2  619   4.266   1.888   3.051 -0.1224  0.0555 -0.0373
    3TYR    SC3  620   4.297   2.135   2.947  0.0802  0.0332 -0.0357
    1TYR     BB  621   1.739   5.288   3.433  0.2562 -0.0856  0.1643
    1TYR    SC1  622   1.496   5.466   3.488  0.0348 -0.0875  0.2656
    1TYR    SC2  623   1.302   5.654   3.469  0.4093  0.2908 -0.0655
    1TYR    SC3  624   1.453   5.639   3.692 -0.0674 -0.1038  0.2588
    2ASP     BB  625   1.716   5.176   3.157 -0.1634 -0.3591 -0.0127
    2ASP    SC1  626   1.933   5.168   2.921 -0.1094 -0.0610 -0.2237
    3TYR     BB  627   1.495   5.010   3.004 -0.2828  0.0089  0.1765
    3TYR    SC1  628   1.452   5.128   2.707 -0.0626  0.2608  0.0141
    3TYR    SC2  629   1.471   5.156   2.439  0.3683  0.0318  0.0099
    3TYR    SC3  630   1.603   5.326   2.602  0.1482  0.1393  0.0804
    1TYR     BB  631   2.887   1.496   0.061 -0.2750 -0.0210 -0.2099
    1TYR    SC1  632   2.748   1.776   0.142 -0.7314 -0.1325 -0.2361
    1TYR    SC2  633   2.859   2.013   0.075  0.0843 -0.4413 -0.1187
    1TYR    SC3  634   2.657   2.005   0.254 -0.1146  0.1615 -0.2851
    2ASP     BB  635   2.837   1.552  -0.264 -0.4351 -0.2706 -0.0089
    2ASP    SC1  636   3.115   1.522  -0.404 -0.0990  0.1117  0.2167
    3TYR     BB  637   2.590   1.799  -0.433 -0.0760  0.3137 -0.1158
    3TYR    SC1  638   2.451   1.979  -0.283 -0.1208  0.1541 -0.1282
    3TYR    SC2  639   2.234   2.134  -0.325 -0.2915  0.1031  0.4561
    3TYR    SC3  640   2.395   2.182  -0.114  0.0981 -0.0533  0.2084
    1TYR     BB  641   0.618   5.488   3.942 -0.3962  0.5159  0.1980
    1TYR    SC1  642   0.358   5.504   4.124 -0.2145 -0.0731 -0.2222
    1TYR    SC2  643   0.306   5.725   4.269  0.1469 -0.1110 -0.0212
    1TYR    SC3  644   0.152   5.506   4.298 -0.0270  0.0117  0.0045
    2ASP     BB  645   0.652   5.755   3.818  0.0891  0.0607 -0.0027
    2ASP    SC1  646   0.951   5.879   3.784  0.0679  0.2055  0.0381
    3TYR     BB  647   0.393   5.953   3.749  0.3424  0.1567  0.0870
    3TYR    SC1  648   0.084   5.814   3.740 -0.2251  0.0364  0.0822
    3TYR    SC2  649  -0.144   5.699   3.652 -0.2422  0.1173  0.0195
    3TYR    SC3  650  -0.030   5.614   3.881 -0.1528 -0.1530 -0.1201
    1TYR     BB  651   3.350   1.126   2.121 -0.3886 -0.1482 -0.1416
    1TYR    SC1  652   3.536   0.872   2.123  0.0265  0.1436  0.4119
    1TYR    SC2  653   3.505   0.604   2.102  0.0238  0.1500  0.3283
    1TYR    SC3  654   3.735   0.706   2.199  0.0819  0.1201  0.2239
    2ASP     BB  655   3.274   1.184   2.408  0.1419 -0.0371 -0.0065
    2ASP    SC1  656   3.214   0.931   2.564  0.1248 -0.2190 -0.0789
    3TYR     BB  657   3.417   1.454   2.595  0.0582  0.1051 -0.2001
    3TYR    SC1  658   3.629   1.542   2.395 -0.0880  0.1057 -0.2329
    3TYR    SC2  659   3.865   1.625   2.293  0.1031 -0.1469 -0.0125
    3TYR    SC3  660   3.658   1.573   2.129  0.2552 -0.0935 -0.2263
    1TYR     BB  661   1.407   1.788   3.762  0.2803  0.4478 -0.5510
    1TYR    SC1  662   1.411   1.462   3.705  0.0774 -0.0202 -0.0090
    1TYR    SC2  663   1.458   1.205   3.774  0.0825 -0.0312 -0.0532
    1TYR    SC3  664   1.317   1.261   3.551  0.1877  0.0056 -0.1113
    2ASP     BB  665   1.145   1.772   4.047 -0.1848  0.1502 -0.1340
    2ASP    SC1  666   0.902   1.892   3.895  0.2087 -0.0220 -0.3059
    3TYR     BB  667   1.148   1.540   4.183  0.1410  0.3168  0.2192
    3TYR    SC1  668   1.059   1.315   3.997  0.0831 -0.1122  0.0200
    3TYR    SC2  669   1.095   1.049   3.962  0.0316 -0.1510  0.2411
    3TYR    SC3  670   0.913   1.182   3.813  0.1702 -0.2061  0.0173
    1TYR     BB  671   3.968   3.211   1.499  0.2135 -0.0363  0.0046
    1TYR    SC1  672   3.793   3.383   1.546 -0.0493 -0.1458  0.1278
    1TYR    SC2  673   3.672   3.579   1.404  0.2084 -0.1411 -0.0943
    1TYR    SC3  674   3.589   3.523   1.655  0.1505  0.2739 -0.0132
    2ASP     BB  675   4.255   3.172   1.593  0.1153  0.0564 -0.0692
    2ASP    SC1  676   4.418   3.422   1.518 -0.3325  0.0210  0.1731
    3TYR     BB  677   4.254   2.951   1.743  0.1764 -0.1097 -0.2231
    3TYR    SC1  678   4.107   2.681   1.871  0.0982 -0.2165  0.0752
    3TYR    SC2  679   3.998   2.442   1.937 -0.1487 -0.1157  0.0440
    3TYR    SC3  680   4.006   2.642   2.119  0.1288 -0.1686  0.0953
    1TYR     BB  681   1.930   1.318   0.635 -0.1026 -0.2062 -0.1843
    1TYR    SC1  682   2.111   1.136   0.545 -0.1119 -0.1812 -0.0737
    1TYR    SC2  683   2.158   0.874   0.497  0.1288 -0.0634 -0.5611
    1TYR    SC3  684   2.340   1.060   0.424  0.1258  0.2327  0.0882
    2ASP     BB  685   1.640   1.491   0.484  0.0668 -0.1532  0.1027
    2ASP    SC1  686   1.740   1.739   0.383  0.0251  0.0630 -0.0823
    3TYR     BB  687   1.450   1.582   0.747  0.3915 -0.1732 -0.0694
    3TYR    SC1  688   1.361   1.833   0.789 -0.0492 -0.1562  0.0214
    3TYR    SC2  689   1.218   2.029   0.907 -0.0627 -0.1025 -0.0828
    3TYR    SC3  690   1.360   2.081   0.683  0.0100 -0.1891 -0.0575
    1TYR     BB  691   0.404   0.933   2.050 -0.1535  0.0127 -0.0785
    1TYR    SC1  692   0.539   1.185   2.221  0.0067 -0.1743 -0.1811
    1TYR    SC2  693   0.613   1.412   2.345  0.2529 -0.3586  0.0236
    1TYR    SC3  694   0.495   1.423   2.103  0.6945 -0.0286 -0.1952
    2ASP     BB  695   0.498   1.051   1.711  0.0191 -0.2545 -0.2049
    2ASP    SC1  696   0.410   0.932   1.423 -0.1975 -0.1718 -0.3209
    3TYR     BB  697   0.774   1.181   1.797 -0.2780 -0.0127  0.2603
    3TYR    SC1  698   0.878   1.450   1.805 -0.0924 -0.2698 -0.1889
    3TYR    SC2  699   0.857   1.668   1.962 -0.0642 -0.0777 -0.4433
    3TYR    SC3  700   1.097   1.598   1.860 -0.0822 -0.2011 -0.4027
    1TYR     BB  701   1.293   5.703   4.622  0.0359  0.1094  0.0349
    1TYR    SC1  702   1.349   5.781   4.923  0.5163 -0.4410 -0.2185
    1TYR    SC2  703   1.521   5.934   5.065  0.0027 -0.0996  0.0788
    1TYR    SC3  704   1.339   5.781   5.193  0.0397 -0.4179 -0.2264
    2ASP     BB  705   1.280   5.434   4.547 -0.0463  0.3059  0.1621
    2ASP    SC1  706   1.164   5.278   4.810  0.0872  0.0388  0.1239
    3TYR     BB  707   1.412   5.201   4.380 -0.0741 -0.0891  0.1002
    3TYR    SC1  708   1.532   5.291   4.103 -0.3897 -0.1862  0.0869
    3TYR    SC2  709   1.707   5.336   3.903 -0.2469 -0.1422  0.2185
    3TYR    SC3  710   1.501   5.166   3.866 -0.2234 -0.1346  0.0359
    1TYR     BB  711   1.574   0.727   1.325 -0.0685 -0.0486  0.0155
    1TYR    SC1  712   1.524   0.931   1.091 -0.1274 -0.3128 -0.1314
    1TYR    SC2  713   1.491   1.025   0.840  0.1528 -0.2321 -0.1420
    1TYR    SC3  714   1.618   1.175   1.025 -0.1560 -0.2396  0.0869
    2ASP     BB  715   1.456   0.496   1.331 -0.0138  0.2917  0.1459
    2ASP    SC1  716   1.125   0.455   1.323 -0.0367 -0.0005 -0.0706
    3TYR     BB  717   1.607   0.307   1.144 -0.1217 -0.1967 -0.0066
    3TYR    SC1  718   1.685   0.058   1.197  0.1512  0.0276  0.2155
    3TYR    SC2  719   1.602  -0.198   1.219 -0.2018  0.1117 -0.0295
    3TYR    SC3  720   1.865  -0.144   1.186 -0.1472 -0.2360 -0.2338
    1TYR     BB  721   1.645   6.540   3.908  0.0167 -0.2401 -0.1963
    1TYR    SC1  722   1.570   6.282   3.744 -0.1034  0.3308 -0.1212
    1TYR    SC2  723   1.359   6.113   3.745 -0.1546  0.3944 -0.1126
    1TYR    SC3  724   1.587   6.044   3.618 -0.0863  0.2108  0.1009
    2ASP     BB  725   1.856   6.437   4.150  0.1634  0.1236 -0.0687
    2ASP    SC1  726   2.114   6.547   4.173  0.0745 -0.1267 -0.0187
    3TYR     BB  727   1.714   6.215   4.353  0.2001  0.0417  0.2807
    3TYR    SC1  728   1.609   5.991   4.234 -0.2243  0.4103 -0.4495
    3TYR    SC2  729   1.688   5.798   4.062 -0.2616 -0.1900  0.1565
    3TYR    SC3  730   1.440   5.792   4.167 -0.3219  0.2997  0.0723
    1TYR     BB  731   2.465   1.460   1.506 -0.0119 -0.3419  0.2073
    1TYR    SC1  732   2.370   1.625   1.307  0.4194  0.0917  0.1522
    1TYR    SC2  733   2.387   1.596   1.039 -0.1646 -0.2469  0.1319
    1TYR    SC3  734   2.294   1.826   1.144 -0.0818 -0.1699  0.0384
    2ASP     BB  735   2.276   1.425   1.805  0.1402  0.1507  0.1625
    2ASP    SC1  736   1.983   1.562   1.781 -0.0713  0.0611  0.2302
    3TYR     BB  737   2.308   1.349   2.070  0.1737  0.1993  0.0560
    3TYR    SC1  738   2.600   1.256   2.213  0.0091 -0.0577  0.0314
    3TYR    SC2  739   2.786   1.101   2.332  0.0664 -0.0096  0.0048
    3TYR    SC3  740   2.843   1.225   2.099 -0.0991 -0.2318 -0.1593
    1TYR     BB  741   2.849   3.130   1.146 -0.0695 -0.2690 -0.0023
    1TYR    SC1  742   3.014   3.276   0.959 -0.3665 -0.0585 -0.2897
    1TYR    SC2  743   3.250   3.220   0.840 -0.3071 -0.0201 -0.1923
    1TYR    SC3  744   3.137   3.463   0.807 -0.1170  0.1152  0.1043
    2ASP     BB  745   2.711   3.226   1.441 -0.0259  0.2926  0.0445
    2ASP    SC1  746   2.530   3.467   1.286 -0.1712 -0.0273  0.0653
    3TYR     BB  747   2.553   3.031   1.558 -0.0898 -0.1929 -0.0884
    3TYR    SC1  748   2.323   3.047   1.754 -0.3535 -0.0019 -0.1488
    3TYR    SC2  749   2.328   3.085   2.021  0.2425 -0.0492 -0.1362
    3TYR    SC3  750   2.092   3.061   1.893 -0.0740  0.3579  0.3204
    1TYR     BB  751   1.168   1.120   5.138 -0.3780 -0.1945 -0.0832
    1TYR    SC1  752   0.882   1.114   5.083 -0.0460  0.1432  0.1513
    1TYR    SC2  753   0.738   1.054   4.862  0.0524  0.4377  0.0009
    1TYR    SC3  754   0.632   1.014   5.107  0.0514 -0.1787 -0.0808
    2ASP     BB  755   1.286   1.170   5.549  0.4581  0.0619 -0.1016
    2ASP    SC1  756   0.987   1.059   5.632 -0.1289 -0.0879 -0.2631
    3TYR     BB  757   1.449   1.017   5.601 -0.4291 -0.3032 -0.0991
    3TYR    SC1  758   1.509   0.827   5.349 -0.2952 -0.0100 -0.1749
    3TYR    SC2  759   1.576   0.579   5.268  0.2717  0.0495  0.0513
    3TYR    SC3  760   1.573   0.783   5.091 -0.2912 -0.1162 -0.1561
    1TYR     BB  761   3.097   0.367   6.547 -0.0062 -0.1034 -0.1668
    1TYR    SC1  762   2.839   0.352   6.401 -0.1706  0.1712  0.0241
    1TYR    SC2  763   2.698   0.449   6.192 -0.0973  0.2092 -0.0079
    1TYR    SC3  764   2.674   0.190   6.262 -0.0218  0.1632 -0.1473
    2ASP     BB  765   3.160   0.704   6.519  0.1182 -0.1148 -0.0907
    2ASP    SC1  766   3.426   0.840   6.683  0.1162  0.3421 -0.3019
    3TYR     BB  767   2.924   0.864   6.503 -0.1697 -0.1220 -0.1254
    3TYR    SC1  768   2.983   1.119   6.629 -0.1543 -0.2203  0.3692
    3TYR    SC2  769   3.008   1.220   6.878  0.2630 -0.4019  0.4114
    3TYR    SC3  770   3.191   1.279   6.689 -0.1976 -0.0346  0.0499
    1TYR     BB  771   4.125   0.829   1.038 -0.1864  0.3260 -0.1412
    1TYR    SC1  772   3.948   0.991   0.890 -0.1298  0.0108  0.2355
    1TYR    SC2  773   3.702   1.096   0.850 -0.2155 -0.2495  0.0428
    1TYR    SC3  774   3.829   0.967   0.649 -0.1174 -0.5163  0.2673
    2ASP     BB  775   4.321   1.029   1.254 -0.3394 -0.2429  0.2443
    2ASP    SC1  776   4.624   1.007   1.211 -0.1923  0.2702  0.2955
    3TYR     BB  777   4.146   1.249   1.391 -0.0196 -0.0655 -0.6652
    3TYR    SC1  778   3.849   1.247   1.309 -0.3064 -0.1939 -0.0192
    3TYR    SC2  779   3.678   1.416   1.185 -0.1932 -0.0160  0.0617
    3TYR    SC3  780   3.585   1.237   1.365 -0.2984  0.0531  0.0771
    1TYR     BB  781   1.467   7.089   2.071 -0.0561  0.1219 -0.3339
    1TYR    SC1  782   1.203   7.252   2.229  0.1172 -0.0032 -0.0385
    1TYR    SC2  783   1.021   7.443   2.282  0.1379  0.0515 -0.1603
    1TYR    SC3  784   0.941   7.188   2.241  0.0731  0.0989 -0.3428
    2ASP     BB  785   1.344   6.830   1.959 -0.3134 -0.0342  0.1567
    2ASP    SC1  786   1.464   6.570   2.121 -0.1293 -0.1975 -0.1507
    3TYR     BB  787   1.108   6.918   1.708  0.0509 -0.2265 -0.0443
    3TYR    SC1  788   1.043   7.214   1.779  0.5221 -0.2419  0.0482
    3TYR    SC2  789   1.178   7.444   1.823  0.3057 -0.0992 -0.0151
    3TYR    SC3  790   0.910   7.437   1.853  0.3005 -0.3240 -0.0909
    1TYR     BB  791   2.559   1.499   0.480 -0.0749 -0.0740  0.0124
    1TYR    SC1  792   2.589   1.310   0.705 -0.4102  0.1891 -0.0200
    1TYR    SC2  793   2.479   1.180   0.916 -0.0841 -0.1626 -0.0539
    1TYR    SC3  794   2.748   1.207   0.898 -0.1287  0.3142 -0.1777
    2ASP     BB  795   2.285   1.643   0.482 -0.4181 -0.1813 -0.0265
    2ASP    SC1  796   2.279   1.912   0.635 -0.1596  0.1177  0.0873
    3TYR     BB  797   2.237   1.760   0.149 -0.0554 -0.2788 -0.1070
    3TYR    SC1  798   2.374   1.564   0.006 -0.0650  0.1190 -0.2867
    3TYR    SC2  799   2.360   1.390  -0.201 -0.0578  0.0379 -0.2199
    3TYR    SC3  800   2.422   1.301   0.046 -0.0648  0.1344 -0.1827
    1TYR     BB  801   2.108   2.622   1.257 -0.1247 -0.1280  0.1113
    1TYR    SC1  802   1.906   2.567   1.472  0.0387  0.1936 -0.1212
    1TYR    SC2  803   1.866   2.728   1.686 -0.0040 -0.0477  0.0576
    1TYR    SC3  804   1.841   2.460   1.712  0.3900 -0.1133 -0.1532
    2ASP     BB  805   1.957   2.937   1.193 -0.2672  0.0177  0.3458
    2ASP    SC1  806   2.203   3.103   1.279  0.0465  0.0598  0.1789
    3TYR     BB  807   1.683   2.886   1.117 -0.1872 -0.0214  0.0801
    3TYR    SC1  808   1.493   2.782   1.338  0.0985 -0.3733  0.2647
    3TYR    SC2  809   1.426   2.702   1.588  0.0902  0.1035  0.4282
    3TYR    SC3  810   1.234   2.785   1.417  0.0909 -0.2599  0.2366
    1TYR     BB  811   0.519   5.144   3.084 -0.2123  0.0023 -0.1535
    1TYR    SC1  812   0.806   5.007   3.002 -0.0166  0.1276  0.1161
    1TYR    SC2  813   1.033   4.928   2.880 -0.2042 -0.1205 -0.0847
    1TYR    SC3  814   0.943   4.795   3.097 -0.1122  0.0353  0.0512
    2ASP     BB  815   0.428   5.295   2.782 -0.1193 -0.0794 -0.0772
    2ASP    SC1  816   0.330   5.571   2.802 -0.1157  0.1000 -0.0245
    3TYR     BB  817   0.436   5.119   2.567 -0.2906 -0.0152  0.1592
    3TYR    SC1  818   0.625   4.927   2.564 -0.0256 -0.1048  0.1107
    3TYR    SC2  819   0.738   4.746   2.399  0.0865  0.1057 -0.0510
    3TYR    SC3  820   0.720   4.695   2.664  0.3979 -0.0103 -0.0468
    1TYR     BB  821   3.664   2.070   1.291 -0.0291  0.0522 -0.0194
    1TYR    SC1  822   3.487   1.851   1.331  0.3207 -0.2373 -0.3289
    1TYR    SC2  823   3.270   1.849   1.493  0.3148  0.0315 -0.3281
    1TYR    SC3  824   3.326   1.634   1.339  0.2485 -0.1790 -0.0671
    2ASP     BB  825   3.485   2.340   1.234 -0.2410  0.0761  0.2097
    2ASP    SC1  826   3.321   2.358   1.496 -0.1054 -0.0008  0.4571
    3TYR     BB  827   3.634   2.549   1.080 -0.0328 -0.1038  0.2182
    3TYR    SC1  828   3.833   2.443   0.897 -0.3566 -0.5376 -0.1714
    3TYR    SC2  829   4.086   2.382   0.972 -0.1802  0.1950 -0.0716
    3TYR    SC3  830   4.026   2.416   0.711 -0.1702  0.0581 -0.0924
    1TYR     BB  831   2.876   1.071   0.349  0.1153 -0.0713  0.0543
    1TYR    SC1  832   2.779   0.880   0.555 -0.0610 -0.0008  0.2636
    1TYR    SC2  833   2.592   0.723   0.671 -0.1352 -0.0803  0.0440
    1TYR    SC3  834   2.840   0.627   0.626 -0.1935 -0.1533 -0.1305
    2ASP     BB  835   3.044   1.293   0.471  0.2694  0.2475 -0.0496
    2ASP    SC1  836   3.332   1.306   0.333 -0.0131  0.0385  0.0012
    3TYR     BB  837   3.005   1.596   0.621 -0.0855  0.2636 -0.1094
    3TYR    SC1  838   3.061   1.863   0.474 -0.0646 -0.1056 -0.1410
    3TYR    SC2  839   3.028   2.131   0.464 -0.2061 -0.1137  0.0418
    3TYR    SC3  840   3.271   2.023   0.416 -0.1292  0.0523  0.0466
    1TYR     BB  841   1.666   1.387   5.183  0.4695 -0.0468  0.2547
    1TYR    SC1  842   1.717   1.167   4.930  0.0666 -0.1152  0.0622
    1TYR    SC2  843   1.903   0.976   4.884  0.2170  0.0401  0.0103
    1TYR    SC3  844   1.692   1.003   4.717  0.1319 -0.1514  0.0819
    2ASP     BB  845   1.925   1.575   5.207 -0.2808  0.1280  0.2688
    2ASP    SC1  846   1.906   1.901   5.194 -0.1194  0.1572  0.2420
    3TYR     BB  847   2.071   1.528   5.456  0.0765 -0.0985  0.0231
    3TYR    SC1  848   2.143   1.800   5.607 -0.0060 -0.1028 -0.0878
    3TYR    SC2  849   2.326   1.996   5.577 -0.0073 -0.1035 -0.1006
    3TYR    SC3  850   2.077   2.056   5.661  0.1199 -0.1517  0.3463
    1TYR     BB  851   1.594   1.204   1.548 -0.1752  0.0765  0.0403
    1TYR    SC1  852   1.563   1.514   1.545 -0.0559  0.1594 -0.0390
    1TYR    SC2  853   1.599   1.734   1.394 -0.1711  0.0561 -0.2224
    1TYR    SC3  854   1.402   1.728   1.577 -0.0822  0.1526 -0.1218
    2ASP     BB  855   1.302   1.095   1.700  0.2751  0.1008 -0.0883
    2ASP    SC1  856   1.214   1.115   2.009  0.0563 -0.1644 -0.1335
    3TYR     BB  857   1.090   0.880   1.512  0.1266  0.1218 -0.1314
    3TYR    SC1  858   1.088   1.098   1.299  0.1135  0.2796  0.0662
    3TYR    SC2  859   1.215   1.326   1.232  0.3158  0.1120 -0.1423
    3TYR    SC3  860   1.144   1.150   1.040  0.1357  0.0111  0.0130
    1TYR     BB  861   1.755   4.776   3.403 -0.0474  0.0522  0.1821
    1TYR    SC1  862   1.647   4.711   3.654  0.0831 -0.0921  0.0566
    1TYR    SC2  863   1.414   4.584   3.706 -0.2016  0.2442 -0.3206
    1TYR    SC3  864   1.547   4.709   3.905 -0.0992 -0.3143 -0.0125
    2ASP     BB  865   1.853   4.527   3.125 -0.1003  0.2007 -0.1321
    2ASP    SC1  866   2.019   4.649   2.893 -0.0070 -0.0880 -0.0380
    3TYR     BB  867   1.709   4.281   3.106 -0.0911 -0.1412  0.1283
    3TYR    SC1  868   1.790   3.996   3.145 -0.1271  0.2139 -0.0138
    3TYR    SC2  869   1.991   3.837   3.229 -0.1224  0.2301  0.0057
    3TYR    SC3  870   1.843   3.766   3.014 -0.1637  0.1661  0.0547
    1TYR     BB  871   1.612   0.972   0.345  0.0105 -0.1971 -0.1236
    1TYR    SC1  872   1.694   0.743   0.524 -0.0284 -0.2560 -0.4027
    1TYR    SC2  873   1.742   0.563   0.720 -0.0839  0.0670 -0.0790
    1TYR    SC3  874   1.819   0.511   0.466 -0.0245 -0.3690  0.0189
    2ASP     BB  875   1.316   1.139   0.348  0.1843 -0.1073 -0.1590
    2ASP    SC1  876   1.088   1.234   0.578 -0.1400  0.1390 -0.2533
    3TYR     BB  877   1.127   1.087   0.109  0.2922 -0.2864  0.0106
    3TYR    SC1  878   0.856   1.017   0.207  0.0906  0.0585  0.1093
    3TYR    SC2  879   0.697   0.831   0.094  0.0784  0.3455 -0.3801
    3TYR    SC3  880   0.592   1.013   0.264  0.0672  0.0027 -0.0007
    1TYR     BB  881   3.213   2.055   0.931 -0.2534 -0.0443  0.0782
    1TYR    SC1  882   3.272   2.319   0.781 -0.0348  0.0447 -0.2109
    1TYR    SC2  883   3.189   2.537   0.646  0.1053  0.3390  0.1540
    1TYR    SC3  884   3.433   2.433   0.597  0.1229  0.3930  0.1268
    2ASP     BB  885   3.446   1.826   0.853  0.3186  0.0201 -0.3667
    2ASP    SC1  886   3.684   2.004   0.766  0.2149  0.1469 -0.1233
    3TYR     BB  887   3.453   1.532   0.802  0.2315 -0.0453  0.0796
    3TYR    SC1  888   3.246   1.357   1.016  0.1730 -0.1037 -0.0639
    3TYR    SC2  889   3.297   1.101   1.085  0.2065 -0.0214  0.2372
    3TYR    SC3  890   3.146   1.256   1.246 -0.2899 -0.0055 -0.2096
    1TYR     BB  891   1.245   7.079   1.269  0.0733  0.1824 -0.0804
    1TYR    SC1  892   1.121   7.363   1.339  0.1499 -0.1511  0.2027
    1TYR    SC2  893   0.972   7.581   1.397 -0.0069 -0.1408 -0.1997
    1TYR    SC3  894   1.240   7.603   1.375  0.0090 -0.0548  0.0464
    2ASP     BB  895   1.550   7.049   1.434  0.0696  0.1477 -0.2422
    2ASP    SC1  896   1.784   6.967   1.188  0.0744 -0.2565 -0.2115
    3TYR     BB  897   1.548   7.249   1.630 -0.3194  0.1493 -0.3031
    3TYR    SC1  898   1.574   7.516   1.652 -0.0295  0.2210 -0.1215
    3TYR    SC2  899   1.526   7.782   1.659  0.2493  0.2715  0.1800
    3TYR    SC3  900   1.776   7.691   1.611  0.1543  0.0606  0.0683
    1TYR     BB  901   0.988   0.620   5.203  0.2746  0.3562  0.0452
    1TYR    SC1  902   1.185   0.572   5.479  0.2924  0.1344  0.1074
    1TYR    SC2  903   1.242   0.628   5.737  0.0192  0.2186  0.1543
    1TYR    SC3  904   1.353   0.413   5.618  0.4543  0.3946  0.2177
    2ASP     BB  905   1.163   0.592   4.968 -0.3037  0.0706  0.0361
    2ASP    SC1  906   1.068   0.305   4.825  0.2897  0.0907  0.2278
    3TYR     BB  907   1.234   0.793   4.738 -0.2247  0.3491 -0.0227
    3TYR    SC1  908   1.208   0.675   4.492 -0.1606  0.2197 -0.0925
    3TYR    SC2  909   1.066   0.696   4.263 -0.1658 -0.0916 -0.1223
    3TYR    SC3  910   1.189   0.463   4.326  0.1885  0.1158 -0.0113
    1TYR     BB  911   1.957   2.069   1.397 -0.1018 -0.0335 -0.1131
    1TYR    SC1  912   1.847   2.017   1.680  0.1114  0.0480  0.1556
    1TYR    SC2  913   1.895   2.053   1.944 -0.0371  0.2066  0.1632
    1TYR    SC3  914   1.657   1.955   1.861  0.0260  0.1134  0.0895
    2ASP     BB  915   1.755   2.054   1.086 -0.1637 -0.1937  0.0223
    2ASP    SC1  916   1.723   2.352   0.974 -0.1129  0.0955 -0.2908
    3TYR     BB  917   1.862   1.822   0.869 -0.3344  0.0484 -0.3525
    3TYR    SC1  918   1.914   1.553   1.046 -0.1952 -0.1348 -0.1404
    3TYR    SC2  919   2.063   1.336   1.107  0.0712  0.0470 -0.1246
    3TYR    SC3  920   1.937   1.473   1.303 -0.1243 -0.1074 -0.1380
    1TYR     BB  921   1.506   7.223   2.740 -0.0547 -0.0618  0.1851
    1TYR    SC1  922   1.225   7.323   2.758  0.1456  0.1738 -0.2141
    1TYR    SC2  923   0.965   7.287   2.694  0.1497  0.1345 -0.2085
    1TYR    SC3  924   1.035   7.346   2.948  0.1184  0.4632 -0.2709
    2ASP     BB  925   1.656   7.414   2.565 -0.0228 -0.0562  0.0769
    2ASP    SC1  926   1.918   7.238   2.484 -0.0460 -0.1133 -0.0128
    3TYR     BB  927   1.671   7.720   2.551 -0.1622  0.3035  0.0545
    3TYR    SC1  928   1.980   7.783   2.552  0.0509  0.0998 -0.2807
    3TYR    SC2  929   2.238   7.816   2.478  0.1792  0.0292  0.1023
    3TYR    SC3  930   2.179   7.690   2.709 -0.2066 -0.0123 -0.0086
    1TYR     BB  931   1.885   0.521   1.664  0.1325 -0.1110  0.0428
    1TYR    SC1  932   1.903   0.790   1.803  0.0623  0.1633 -0.0652
    1TYR    SC2  933   1.723   0.949   1.926  0.2680  0.1400  0.2808
    1TYR    SC3  934   1.982   1.024   1.911  0.2517  0.1386 -0.1467
    2ASP     BB  935   2.160   0.356   1.743 -0.1390 -0.2512  0.1428
    2ASP    SC1  936   2.297   0.117   1.623 -0.2821  0.0504 -0.3623
    3TYR     BB  937   2.286   0.427   2.034  0.1209 -0.1767 -0.0775
    3TYR    SC1  938   2.275   0.691   2.070 -0.2288  0.3456 -0.0617
    3TYR    SC2  939   2.415   0.853   2.234  0.0621  0.1868 -0.1454
    3TYR    SC3  940   2.425   0.891   1.967  0.1461  0.0257 -0.1670
    1TYR     BB  941   2.813   1.063   1.562  0.1181  0.3479 -0.1656
    1TYR    SC1  942   2.835   0.962   1.258 -0.1876 -0.1593  0.0993
    1TYR    SC2  943   2.659   0.835   1.097 -0.1426  0.1709 -0.2268
    1TYR    SC3  944   2.922   0.836   1.036 -0.0861  0.0716  0.0033
    2ASP     BB  945   3.073   0.960   1.712  0.2167 -0.0864  0.2026
    2ASP    SC1  946   3.021   0.786   1.960  0.6528  0.2802  0.2503
    3TYR     BB  947   3.325   0.901   1.599 -0.1540 -0.1385 -0.0917
    3TYR    SC1  948   3.485   0.745   1.450  0.0571 -0.0870  0.1435
    3TYR    SC2  949   3.662   0.773   1.249  0.0944  0.1994  0.2103
    3TYR    SC3  950   3.631   0.534   1.370  0.1757  0.0597 -0.0366
    1TYR     BB  951   2.298   1.189   5.736  0.2299 -0.0470 -0.2395
    1TYR    SC1  952   2.425   0.887   5.712 -0.0857 -0.0640 -0.0478
    1TYR    SC2  953   2.397   0.685   5.536  0.1760 -0.3967  0.2717
    1TYR    SC3  954   2.642   0.750   5.629  0.0973  0.0766  0.1813
    2ASP     BB  955   2.259   1.441   5.967  0.1073  0.1253 -0.0601
    2ASP    SC1  956   2.536   1.618   5.828  0.0242 -0.1363 -0.0409
    3TYR     BB  957   2.105   1.407   6.220  0.2380 -0.0140  0.0553
    3TYR    SC1  958   2.014   1.195   6.387 -0.1377 -0.0415 -0.0512
    3TYR    SC2  959   1.814   1.190   6.568 -0.1162  0.0818 -0.0231
    3TYR    SC3  960   1.978   0.977   6.542  0.0687  0.1733  0.3167
    1TYR     BB  961   2.161   0.309   5.770 -0.2612  0.0641  0.0876
    1TYR    SC1  962   2.482   0.315   5.792  0.1029 -0.0026 -0.6041
    1TYR    SC2  963   2.748   0.358   5.777  0.1534 -0.0468 -0.0784
    1TYR    SC3  964   2.650   0.107   5.756  0.1839 -0.0663  0.0087
    2ASP     BB  965   2.119   0.291   5.382  0.2112 -0.1092 -0.2200
    2ASP    SC1  966   2.275   0.047   5.348 -0.1579 -0.0665 -0.0531
    3TYR     BB  967   2.070   0.503   5.160 -0.0129  0.3702  0.1793
    3TYR    SC1  968   2.000   0.786   5.315  0.0417  0.0012  0.0875
    3TYR    SC2  969   1.906   1.037   5.350  0.0159 -0.0344  0.2906
    3TYR    SC3  970   2.162   0.997   5.274 -0.1159  0.0635 -0.2573
    1TYR     BB  971   1.662   0.953   6.138  0.2101  0.0768  0.0580
    1TYR    SC1  972   1.742   0.776   5.917  0.2569  0.3285 -0.0758
    1TYR    SC2  973   1.773   0.599   5.716 -0.0957  0.4161 -0.2161
    1TYR    SC3  974   1.964   0.783   5.764  0.3560 -0.0842  0.0327
    2ASP     BB  975   1.651   1.241   6.044 -0.0507 -0.0244 -0.0158
    2ASP    SC1  976   1.520   1.453   6.243 -0.0578 -0.0995  0.2282
    3TYR     BB  977   1.810   1.345   5.802  0.2161  0.0285  0.0151
    3TYR    SC1  978   1.619   1.521   5.673 -0.0389 -0.2210 -0.0577
    3TYR    SC2  979   1.433   1.619   5.503  0.1299 -0.1479 -0.2042
    3TYR    SC3  980   1.640   1.774   5.581  0.1024 -0.2106  0.0001
    1TYR     BB  981   0.668   5.998   3.132  0.2155 -0.1090  0.0219
    1TYR    SC1  982   0.837   6.079   3.357  0.2543 -0.3723 -0.1969
    1TYR    SC2  983   1.029   6.239   3.458 -0.1754  0.0932 -0.0694
    1TYR    SC3  984   1.097   6.016   3.322  0.4385  0.1149  0.1649
    2ASP     BB  985   0.545   5.649   3.250  0.0249  0.0898 -0.2072
    2ASP    SC1  986   0.252   5.732   3.289  0.1027  0.1679 -0.0239
    3TYR     BB  987   0.782   5.499   3.406  0.2847 -0.1171  0.2787
    3TYR    SC1  988   0.963   5.498   3.146 -0.0409  0.2601 -0.1126
    3TYR    SC2  989   1.152   5.400   2.979  0.1019  0.0693  0.1514
    3TYR    SC3  990   0.900   5.440   2.890  0.1636 -0.0693 -0.0959
    1TYR     BB  991   1.391   0.580   1.785 -0.0213 -0.2637 -0.3418
    1TYR    SC1  992   1.184   0.371   1.806  0.1271 -0.1400  0.3132
    1TYR    SC2  993   0.978   0.284   1.957  0.0238 -0.1523  0.1674
    1TYR    SC3  994   1.006   0.196   1.703  0.3057 -0.2821  0.2381
    2ASP     BB  995   1.503   0.507   2.088 -0.0126 -0.2073  0.0673
    2ASP    SC1  996   1.293   0.457   2.292 -0.0722 -0.1122 -0.1030
    3TYR     BB  997   1.787   0.449   2.176  0.0302  0.1019  0.2318
    3TYR    SC1  998   1.884   0.129   2.115 -0.1952 -0.1366  0.0817
    3TYR    SC2  999   2.116  -0.005   2.076 -0.2488 -0.2890  0.2651
    3TYR    SC3 1000   1.883  -0.111   1.990 -0.2059  0.1455 -0.4984
    4W        W 1001   5.669   5.762   1.531 -0.3490  0.0282  0.0696
    5W        W 1002   7.085   6.267   4.234 -0.1129  0.1601  0.1037
    6W        W 1003   5.566   6.548   1.274 -0.2315  0.2083  0.0131
    7W        W 1004   5.989   5.801   4.302 -0.2882 -0.0183 -0.0020
    8W        W 1005   6.100   2.916   2.417 -0.0907 -0.1683 -0.1386
    9W        W 1006   5.602   6.226   1.620 -0.0901  0.2817 -0.3614
   10W        W 1007   6.272   1.829   5.374  0.2432  0.3990 -0.1393
   11W        W 1008   5.667   7.164   3.766 -0.0698 -0.2192  0.1152
   12W        W 1009   7.072   7.589   2.762  0.2670  0.0772 -0.1051
   13W        W 1010   4.841   1.911   4.089 -0.1342  0.3479  0.3740
   14W        W 1011   0.153   3.038   3.781  0.1714  0.0278 -0.2961
   15W        W 1012   6.048   3.968   6.819 -0.1717 -0.0618 -0.1537
   16W        W 1013   2.411   6.913   6.292 -0.1504 -0.1308  0.2100
   17W        W 1014   5.533   2.570   4.199  0.3079  0.0923  0.1079
   18W        W 1015   3.434   5.525   5.961 -0.0091  0.0645  0.0038
   19W        W 1016   5.968   4.932   3.383 -0.1917 -0.3568 -0.0509
   20W        W 1017   4.776   4.708   6.134  0.2226 -0.0046  0.1696
   21W        W 1018   6.573   6.896   4.788  0.0352  0.3388 -0.2518
   22W        W 1019   3.714   0.001   4.403 -0.0404 -0.0349  0.2455
   23W        W 1020   6.134   7.618   5.200  0.1172 -0.4607  0.4376
   24W        W 1021   5.057   5.216   4.688  0.2280 -0.1568 -0.3575
   25W        W 1022   2.773   6.799   2.160  0.0318 -0.1855 -0.1467
   26W        W 1023   5.941   0.969   4.791  0.0639  0.1553 -0.2548
   27W        W 1024   4.212   0.991   5.500  0.2287 -0.2309 -0.0501
   28W        W 1025   7.073   1.203   2.538  0.1625 -0.0224 -0.0422
   29W        W 1026   0.164   4.002   5.147 -0.2679  0.1558 -0.2607
   30W        W 1027   1.945   5.715   3.649  0.1136  0.2584  0.1636
   31W        W 1028   4.223   7.345   2.330  0.0622  0.1135 -0.1005
   32W        W 1029   1.423   5.746   1.119  0.2686  0.0815  0.2763
   33W        W 1030   5.650   6.734   4.405 -0.2456  0.0807  0.3921
   34W        W 1031   0.612   3.763   2.596  0.0588 -0.1420 -0.0200
   35W        W 1032   4.852   7.137   6.978 -0.2389  0.0711 -0.1151
   36W        W 1033   0.376   1.187   3.145  0.1588  0.1708  0.1258
   37W        W 1034   3.337   2.483   7.124 -0.1591 -0.2811  0.0983
   38W        W 1035   4.266   4.261   4.604 -0.1159 -0.1797  0.0112
   39W        W 1036   6.901   6.967   0.435 -0.2436 -0.2967 -0.0917
   40W        W 1037   0.645   6.189   7.303 -0.0383 -0.0503 -0.4426
   41W        W 1038   1.085   2.309   4.171 -0.0437  0.0073  0.1531
   42W        W 1039   1.279   3.280   5.680  0.1951  0.3405  0.2526
   43W        W 1040   1.371   2.244   1.374  0.0584  0.0151  0.0580
   44W        W 1041   0.199   2.715   5.337  0.1772 -0.3487 -0.0543
   45W        W 1042   6.712   1.464   1.815  0.0707 -0.2185  0.0054
   46W        W 1043   2.367   3.579   2.260  0.3218 -0.0321  0.2203
   47W        W 1044   2.140   3.404   6.197 -0.0136  0.1802  0.2176
   48W        W 1045   3.769   7.638   1.264 -0.1480  0.1853  0.1618
   49W        W 1046   4.130   5.178   2.805 -0.0565 -0.1352  0.1248
   50W        W 1047   4.065   3.706   1.201  0.1488 -0.1573 -0.0472
   51W        W 1048   5.933   3.376   4.538 -0.2269 -0.0905  0.0684
   52W        W 1049   3.377   0.510   3.813  0.3358  0.0478  0.4477
   53W        W 1050   5.532   0.368   6.547 -0.0405  0.0085  0.3513
   54W        W 1051   1.387   4.156   7.205 -0.0828 -0.0948  0.1741
   55W        W 1052   6.542   6.694   1.443  0.1813  0.1998  0.1584
   56W        W 1053   4.944   5.484   5.484 -0.1550 -0.2597  0.1212
   57W        W 1054   4.414   5.994   4.803 -0.1483 -0.1232  0.0681
   58W        W 1055   2.838   5.734   1.083 -0.0976 -0.2326  0.4295
   59W        W 1056   3.284   3.016   0.273  0.0386  0.1109 -0.0746
   60W        W 1057   6.042   2.236   4.156  0.0127 -0.2792 -0.0397
   61W        W 1058   3.404   1.287   4.133 -0.1176 -0.3287  0.0071
   62W        W 1059   4.410   1.321   3.302 -0.3982  0.4821  0.1201
   63W        W 1060   6.764   3.756   7.102  0.0648  0.0269  0.1144
   64W        W 1061   4.261   4.585   0.506  0.1825  0.4653  0.0274
   65W        W 1062   5.878   2.160   0.645 -0.1152  0.2729  0.0607
   66W        W 1063   1.548   6.531   5.164 -0.0563  0.0553  0.0098
   67W        W 1064   5.252   6.449   1.921  0.2097 -0.1910 -0.0301
   68W        W 1065   4.552   6.463   0.857  0.4342 -0.0699 -0.0877
   69W        W 1066   1.852   1.894   3.275  0.2391 -0.0446 -0.1386
   70W        W 1067   2.043   7.171   5.607 -0.1200 -0.0653  0.1733
   71W        W 1068   4.852   2.652   4.444  0.0301 -0.0768  0.0732
   72W        W 1069   4.249   4.838   1.012  0.0646  0.3125 -0.1350
   73W        W 1070   5.426   3.301   1.149  0.1926  0.0511  0.1606
   74W        W 1071   1.710   2.899   4.379 -0.2452 -0.1252  0.0168
   75W        W 1072   6.439   7.180   6.841  0.2533 -0.3810 -0.1131
   76W        W 1073   2.667   0.811   2.676  0.1005  0.1173 -0.1109
   77W        W 1074   4.812   6.449   5.080  0.0731  0.2950 -0.3224
   78W        W 1075   1.599   3.281   3.662 -0.0143  0.0026 -0.2561
   79W        W 1076   6.867   0.336   6.102 -0.0730 -0.0714  0.0998
   80W        W 1077   2.264   6.591   4.983 -0.0293  0.0475 -0.3017
   81W        W 1078   2.355   2.468   6.360 -0.3437 -0.1897  0.0125
   82W        W 1079   2.186   3.084   4.582  0.2694  0.0804  0.3668
   83W        W 1080   5.155   4.633   2.128 -0.0157  0.0021 -0.2952
   84W        W 1081   3.582   4.044   3.746  0.1438 -0.1669 -0.0393
   85W        W 1082   3.905   5.657   6.138  0.0367  0.0642 -0.0792
   86W        W 1083   1.375   4.490   0.325  0.0080 -0.0369 -0.3048
   87W        W 1084   0.542   3.278   2.631  0.2278  0.1368 -0.1902
   88W        W 1085   1.973   4.933   5.765  0.2588  0.2813  0.0624
   89W        W 1086   2.001   6.129   5.191 -0.2091 -0.0057 -0.3644
   90W        W 1087   4.482   5.345   2.339  0.1477  0.1746  0.3035
   91W        W 1088   6.513   0.686   3.054 -0.1059  0.0212  0.1465
   92W        W 1089   1.969   3.170   2.346 -0.2664  0.0689  0.1628
   93W        W 1090   3.531   3.129   6.131 -0.1800  0.0487 -0.1187
   94W        W 1091   3.866   0.170   2.078  0.4126 -0.0575 -0.2293
   95W        W 1092   6.020   1.728   1.319  0.2265  0.0763  0.1427
   96W        W 1093   0.826   3.842   6.454  0.1038  0.2877 -0.0270
   97W        W 1094   4.712   2.106   5.303  0.0569  0.2678 -0.0746
   98W        W 1095   3.746   7.269   2.156 -0.0524 -0.0338  0.1244
   99W        W 1096   2.340   4.253   3.270 -0.0538 -0.0213  0.2192
  100W        W 1097   5.141   1.852   3.345 -0.0041  0.3183 -0.0629
  101W        W 1098   0.126   5.035   5.252 -0.0035 -0.1620  0.0301
  102W        W 1099   7.234   6.921   6.418  0.2345 -0.2882 -0.0678
  103W        W 1100   6.759   3.460   4.937  0.0775  0.0937 -0.1616
  104W        W 1101   1.000   4.791   4.752 -0.1008 -0.2364  0.0994
  105W        W 1102   3.259   2.776   5.938 -0.0192  0.1176  0.1883
  106W        W 1103   6.791   0.549   5.451 -0.1174  0.1568 -0.1755
  107W        W 1104   7.172   2.761   6.182 -0.1163 -0.2305  0.0347
  108W        W 1105   5.839   2.197   1.177 -0.1997  0.1495  0.0351
  109W        W 1106   3.039   7.380   7.131 -0.0201  0.1043  0.0597
  110W        W 1107   0.530   5.385   5.176 -0.1128  0.1610  0.0852
  111W        W 1108   0.102   1.602   5.416 -0.1526 -0.0081 -0.0415
  112W        W 1109   1.944   6.765   2.758  0.1373 -0.2214 -0.1845
  113W        W 1110   4.743   3.033   1.343  0.1489  0.2603 -0.3062
  114W        W 1111   6.418   6.979   2.679 -0.0117 -0.2846 -0.2308
  115W        W 1112   3.978   5.160   7.342 -0.0700  0.1100  0.1804
  116W        W 1113   3.608   6.403   1.646  0.1396 -0.0914 -0.0212
  117W        W 1114   7.596   2.981   1.487 -0.2290  0.1287 -0.1399
  118W        W 1115   1.578   2.910   2.436 -0.4937  0.2807  0.0720
  119W        W 1116   5.144   3.097   2.818  0.0041 -0.2341 -0.1050
  120W        W 1117   6.648   2.748   2.432  0.1814 -0.4046 -0.0703
  121W        W 1118   6.291   1.212   4.630  0.1157  0.0917  0.2570
  122W        W 1119   3.929   1.083   3.354 -0.2092 -0.2717  0.0001
  123W        W 1120   2.572   4.791   0.762 -0.0845 -0.2214  0.0043
  124W        W 1121   2.764   1.415   3.318 -0.0629 -0.0023  0.1742
  125W        W 1122   5.008   6.406   6.565  0.0272  0.0411 -0.0039
  126W        W 1123   2.868   5.335   5.754  0.0240  0.1817  0.1737
  127W        W 1124   5.115   1.359   2.432 -0.0718  0.2499  0.3155
  128W        W 1125   7.588   0.604   2.892 -0.5193  0.1505  0.0704
  129W        W 1126   3.456   1.125   7.129  0.4116 -0.1429 -0.0453
  130W        W 1127   1.416   3.220   4.094  0.1744  0.1006  0.1733
  131W        W 1128   5.156   6.311   6.093  0.0037 -0.0822  0.0931
  132W        W 1129   2.133   4.959   1.125  0.4212 -0.1574 -0.0139
  133W        W 1130   4.515   1.843   2.581 -0.2163 -0.0558 -0.0800
  134W        W 1131   3.886   2.572   4.790 -0.1262 -0.2971  0.0524
  135W        W 1132   6.856   6.715   6.159 -0.2674  0.1797  0.0309
  136W        W 1133   3.269   4.682   3.195 -0.1522  0.1798 -0.0978
  137W        W 1134   5.580   6.851   1.633 -0.0295 -0.1362 -0.3428
  138W        W 1135   5.774   7.624   2.957 -0.1007 -0.0501  0.3495
  139W        W 1136   0.973   3.367   4.341  0.0104  0.1034  0.1789
  140W        W 1137   1.214   0.004   0.884  0.1249  0.1787 -0.1198
  141W        W 1138   6.917   1.869   6.910 -0.0846 -0.0612 -0.6092
  142W        W 1139   0.484   3.253   0.859  0.2025 -0.0533  0.0684
  143W        W 1140   5.349   7.370   3.363  0.2748  0.1406 -0.2686
  144W        W 1141   1.958   6.722   6.456  0.0103 -0.3187  0.2391
  145W        W 1142   4.326   5.737   1.181 -0.1298  0.0704  0.3701
  146W        W 1143   6.638   6.826   2.207 -0.0095  0.2711 -0.0105
  147W        W 1144   4.109   0.304   0.051  0.0419  0.0431 -0.0258
  148W        W 1145   0.192   3.068   4.651 -0.0607 -0.0963  0.1484
  149W        W 1146   5.372   3.205   7.610 -0.2683 -0.0185  0.1034
  150W        W 1147   2.990   5.678   3.784 -0.0333  0.2225  0.1630
  151W        W 1148   3.514   4.629   1.275  0.0043  0.0670 -0.2523
  152W        W 1149   0.267   2.608   3.474 -0.0269  0.1333  0.3725
  153W        W 1150   4.739   1.258   2.773 -0.1685 -0.3562  0.1030
  154W        W 1151   3.708   5.357   1.568  0.0080  0.2343 -0.4120
  155W        W 1152   1.579   2.922   5.791  0.1175 -0.1628 -0.2876
  156W        W 1153   0.414   2.178   7.466 -0.2352 -0.2780 -0.0237
  157W        W 1154   7.073   4.457   7.460 -0.0574  0.1643  0.0497
  158W        W 1155   1.943   5.856   5.873  0.1929  0.3693 -0.1254
  159W        W 1156   1.928   5.401   7.570  0.2131  0.0330 -0.0193
  160W        W 1157   5.667   4.659   2.574  0.0998  0.1954 -0.2423
  161W        W 1158   2.741   3.903   4.198 -0.2228  0.1499 -0.1963
  162W        W 1159   6.956   0.977   7.337  0.1145 -0.0031  0.3178
  163W        W 1160   4.100   7.070   1.749 -0.0690  0.0906 -0.0354
  164W        W 1161   1.535   7.231   0.793 -0.5327 -0.0011 -0.0051
  165W        W 1162   1.845   4.027   1.053 -0.3189  0.1865 -0.0591
  166W        W 1163   3.884   3.621   3.626 -0.1627 -0.0638 -0.0657
  167W        W 1164   0.959   2.500   1.730 -0.1200  0.1811 -0.1892
  168W        W 1165   5.443   4.899   0.365 -0.4237 -0.0677 -0.0981
  169W        W 1166   3.162   6.881   7.420  0.1270  0.1499 -0.1108
  170W        W 1167   5.559   1.400   5.768 -0.0030 -0.3504  0.0372
  171W        W 1168   3.498   7.035   1.752  0.1701 -0.0794  0.0135
  172W        W 1169   0.949   6.872   0.294  0.4854  0.5520  0.0936
  173W        W 1170   6.520   7.643   2.579 -0.0564  0.2387  0.0606
  174W        W 1171   5.982   3.077   0.602 -0.1817  0.1596  0.1419
  175W        W 1172   3.835   1.817   7.272  0.0690 -0.2914  0.0579
  176W        W 1173   2.853   4.734   4.079 -0.0583  0.1025  0.3709
  177W        W 1174   0.445   4.822   0.183  0.0572  0.2544 -0.2493
  178W        W 1175   6.498   5.820   1.906  0.1360  0.2436 -0.0149
  179W        W 1176   5.141   0.656   6.566 -0.3251  0.1023  0.0142
  180W        W 1177   2.487   3.945   1.076  0.0271 -0.2848  0.1075
  181W        W 1178   5.946   3.486   3.133 -0.3609 -0.1632  0.2971
  182W        W 1179   4.430   5.555   7.264  0.0357 -0.0191 -0.0724
  183W        W 1180   3.380   3.224   5.692 -0.0446  0.2804 -0.1043
  184W        W 1181   2.542   6.383   1.312  0.0006 -0.0918  0.2304
  185W        W 1182   4.180   6.218   0.172  0.1279 -0.1584  0.0456
  186W        W 1183   5.197   0.525   7.485 -0.2145 -0.1787 -0.0469
  187W        W 1184   2.714   2.862   4.572  0.1107 -0.0338  0.1620
  188W        W 1185   3.790   6.835   1.416 -0.5306 -0.0874 -0.0553
  189W        W 1186   4.705   3.083   5.486 -0.0510 -0.2314 -0.3066
  190W        W 1187   0.930   3.366   7.265  0.1034 -0.0487 -0.4329
  191W        W 1188   7.516   4.617   0.102 -0.0693  0.0851  0.0261
  192W        W 1189   4.763   2.414   0.054 -0.1227  0.0114  0.2831
  193W        W 1190   7.342   6.066   3.117 -0.2329 -0.0648  0.1139
  194W        W 1191   6.856   1.570   1.306  0.1984  0.1521 -0.0554
  195W        W 1192   2.479   2.796   5.437  0.2068  0.0782 -0.1068
  196W        W 1193   5.692   6.766   6.819 -0.0267  0.1307  0.0118
  197W        W 1194   2.479   7.228   5.847  0.0003  0.2296  0.0977
  198W        W 1195   5.821   6.336   7.115 -0.0994 -0.2175 -0.1528
  199W        W 1196   3.493   0.193   3.372  0.1083  0.2788 -0.0582
  200W        W 1197   0.285   2.265   2.384  0.2104  0.1789 -0.1595
  201W        W 1198   7.022   0.577   1.775 -0.2753 -0.0148  0.0901
  202W        W 1199   3.486   6.117   4.410  0.1406  0.1421  0.1203
  203W        W 1200   3.303   7.462   0.443  0.2725 -0.0204  0.0041
  204W        W 1201   6.676   2.819   6.150 -0.4743  0.1580 -0.1553
  205W        W 1202   7.007   0.952   4.091 -0.0558  0.0903 -0.1254
  206W        W 1203   4.944   3.338   5.120  0.1977 -0.0122  0.1886
  207W        W 1204   4.797   2.946   1.831  0.2149  0.1709 -0.0809
  208W        W 1205   0.063   7.094   5.673  0.3405  0.2469 -0.0381
  209W        W 1206   5.902   1.767   6.964  0.2206  0.0348 -0.2096
  210W        W 1207   0.028   4.690   1.353  0.0964  0.3136  0.2378
  211W        W 1208   4.923   4.520   7.468 -0.6373 -0.0248  0.1275
  212W        W 1209   5.219   6.954   1.999  0.1621  0.1667 -0.4242
  213W        W 1210   6.503   4.084   2.819  0.2699 -0.0061  0.1052
  214W        W 1211   4.454   4.028   6.899 -0.2397 -0.1987 -0.1929
  215W        W 1212   4.555   3.339   1.012 -0.1377 -0.0791 -0.1054
  216W        W 1213   0.479   0.282   6.897 -0.0217  0.2231  0.0090
  217W        W 1214   5.030   5.604   3.709  0.0213  0.1119 -0.3747
  218W        W 1215   7.378   0.905   2.045 -0.1361  0.0705 -0.1839
  219W        W 1216   5.385   7.209   6.969  0.0717 -0.2256 -0.2120
  220W        W 1217   7.566   1.832   1.663 -0.0753 -0.1695 -0.1441
  221W        W 1218   5.108   0.086   0.105 -0.1290  0.0050  0.1551
  222W        W 1219   0.288   4.092   7.285 -0.0487  0.2269  0.0474
  223W        W 1220   6.393   3.512   2.836 -0.2457 -0.3119  0.0948
  224W        W 1221   4.495   4.524   6.517  0.2475 -0.4350  0.0624
  225W        W 1222   3.895   0.262   7.247  0.0723 -0.1107 -0.0387
  226W        W 1223   4.334   6.868   1.232 -0.1487 -0.1411  0.2875
  227W        W 1224   1.433   1.915   2.297 -0.1974 -0.2908 -0.2029
  228W        W 1225   0.603   6.074   0.563  0.0154 -0.1911  0.0790
  229W        W 1226   0.256   4.200   1.339  0.0760  0.0877  0.2503
  230W        W 1227   5.799   7.277   7.245 -0.2844  0.0322 -0.1644
  231W        W 1228   4.246   0.546   6.830 -0.2339 -0.4343 -0.1774
  232W        W 1229   6.486   4.206   4.318  0.0168 -0.0548  0.0783
  233W        W 1230   5.902   7.251   6.685 -0.0740  0.0463  0.0473
  234W        W 1231   7.343   5.037   3.604  0.3555 -0.3946  0.2014
  235W        W 1232   3.090   3.626   1.705  0.4442 -0.0421  0.3570
  236W        W 1233   1.605   3.718   5.002 -0.0102  0.0471 -0.0669
  237W        W 1234   2.922   6.366   7.374  0.0067  0.2635  0.2659
  238W        W 1235   5.359   1.066   4.478 -0.1391  0.0300  0.2371
  239W        W 1236   4.087   1.525   4.043  0.2748 -0.2130  0.1998
  240W        W 1237   4.229   6.131   7.280 -0.1111  0.0730  0.1331
  241W        W 1238   1.437   1.908   2.820  0.3000 -0.2147 -0.0225
  242W        W 1239   4.871   0.615   3.419  0.2291  0.2750 -0.1434
  243W        W 1240   7.005   4.088   4.441  0.0563 -0.3202 -0.2456
  244W        W 1241   0.390   4.670   1.747 -0.1945  0.2071  0.0652
  245W        W 1242   6.452   5.555   7.111  0.5457  0.0321  0.0301
  246W        W 1243   3.144   0.150   4.924  0.2161  0.2365 -0.0885
  247W        W 1244   3.390   2.508   6.396  0.0293 -0.4427  0.0056
  248W        W 1245   4.995   0.214   2.418 -0.1132 -0.1927 -0.2071
  249W        W 1246   6.747   4.534   0.168  0.0117  0.1160 -0.1700
  250W        W 1247   5.745   5.240   1.722 -0.2840 -0.2428 -0.1937
  251W        W 1248   1.433   3.854   6.259  0.1617  0.0528 -0.0099
  252W        W 1249   5.334   6.728   6.013 -0.0289 -0.2616  0.0416
  253W        W 1250   6.485   2.777   3.251 -0.2311 -0.0021 -0.0196
  254W        W 1251   3.078   6.695   6.864 -0.3034 -0.0423 -0.3206
  255W        W 1252   3.256   6.553   4.717  0.2460 -0.1188  0.0023
  256W        W 1253   6.595   2.571   0.839 -0.1619 -0.0635 -0.0757
  257W        W 1254   7.039   0.719   1.139  0.1945 -0.0267 -0.1302
  258W        W 1255   6.580   0.282   3.624  0.1298  0.1584  0.0066
  259W        W 1256   4.935   6.559   2.302  0.1394  0.2719 -0.1823
  260W        W 1257   1.421   6.672   7.542  0.0751 -0.2901  0.0129
  261W        W 1258   7.239   0.300   6.475  0.0332  0.0453 -0.1533
  262W        W 1259   0.686   0.635   5.570  0.2068 -0.0624 -0.2209
  263W        W 1260   3.901   0.830   7.008 -0.1130  0.3392 -0.2079
  264W        W 1261   4.583   4.474   2.208 -0.1347  0.0549  0.0436
  265W        W 1262   6.911   2.864   7.160 -0.0831 -0.0044  0.0007
  266W        W 1263   2.012   4.350   6.117 -0.1915  0.0989 -0.1653
  267W        W 1264   4.032   0.022   4.977  0.0103 -0.0775  0.2186
  268W        W 1265   7.099   6.824   7.549 -0.1468  0.0167  0.1610
  269W        W 1266   2.590   5.259   0.489  0.0968  0.0559 -0.1254
  270W        W 1267   0.056   4.752   4.819 -0.1863  0.1859 -0.0070
  271W        W 1268   4.407   0.458   5.435 -0.1498  0.2079  0.1122
  272W        W 1269   5.127   0.993   7.654 -0.2337  0.0222  0.2143
  273W        W 1270   5.584   3.189   5.883  0.0516  0.2093  0.0694
  274W        W 1271   3.600   4.341   6.765  0.0136 -0.0404 -0.0278
  275W        W 1272   0.728   0.754   1.107  0.0318  0.1400  0.1251
  276W        W 1273   3.099   5.383   2.366  0.0239  0.3679  0.1027
  277W        W 1274   2.342   5.027   2.233  0.0297  0.0150  0.3550
  278W        W 1275   0.762   7.404   0.945 -0.2639 -0.2939  0.1742
  279W        W 1276   7.227   5.281   4.015 -0.2304 -0.2467 -0.3404
  280W        W 1277   3.743   2.722   5.228 -0.0206 -0.2032  0.2263
  281W        W 1278   1.749   5.284   6.585  0.2562  0.1476 -0.1216
  282W        W 1279   2.447   3.769   3.237  0.0321 -0.0916 -0.0013
  283W        W 1280   5.599   3.126   3.025  0.0645  0.0691  0.0394
  284W        W 1281   5.148   3.854   1.563  0.1355 -0.0210  0.0280
  285W        W 1282   6.732   1.967   5.642  0.0958  0.2874  0.2360
  286W        W 1283   6.245   2.092   0.935 -0.2772 -0.1703  0.0530
  287W        W 1284   6.098   5.573   0.887  0.1919 -0.0519  0.4530
  288W        W 1285   1.634   2.240   5.783  0.2414 -0.0554  0.0721
  289W        W 1286   6.882   5.870   1.522  0.2737  0.2786 -0.3620
  290W        W 1287   1.775   3.410   5.409 -0.1596  0.1408 -0.2040
  291W        W 1288   1.865   3.113   0.222  0.0438  0.0385  0.2953
  292W        W 1289   3.721   4.828   2.771  0.3795  0.2572 -0.1689
  293W        W 1290   4.930   5.779   0.373 -0.1350 -0.4261  0.2855
  294W        W 1291   5.195   7.587   6.697 -0.2630  0.2620  0.0242
  295W        W 1292   7.188   1.812   3.679 -0.0237 -0.3617  0.1169
  296W        W 1293   1.747   3.218   4.834  0.2738  0.3238 -0.2778
  297W        W 1294   5.795   6.853   0.929 -0.2153  0.0574  0.1641
  298W        W 1295   3.462   7.304   6.122  0.0622  0.0680  0.0336
  299W        W 1296   3.793   0.405   0.937 -0.0878 -0.0269  0.1078
  300W        W 1297   7.612   4.026   3.668 -0.0295  0.1513 -0.1231
  301W        W 1298   4.321   4.300   3.946  0.1550  0.1814  0.2069
  302W        W 1299   4.943   2.866   7.486 -0.0757 -0.0014  0.0787
  303W        W 1300   4.558   3.359   2.008  0.1279  0.0148  0.0140
  304W        W 1301   5.796   4.365   6.862  0.3136  0.2089 -0.0489
  305W        W 1302   1.609   6.234   0.067  0.0270 -0.0356 -0.2872
  306W        W 1303   6.851   2.041   7.413 -0.0297  0.3233 -0.1331
  307W        W 1304   2.724   4.347   5.554 -0.3677  0.0526  0.0925
  308W        W 1305   5.662   2.903   0.926  0.0259 -0.0527 -0.1283
  309W        W 1306   1.156   2.076   1.830  0.2054 -0.0637 -0.0846
  310W        W 1307   4.471   5.146   4.853  0.0571  0.5111  0.0682
  311W        W 1308   5.064   6.399   5.613  0.2795 -0.2383 -0.0076
  312W        W 1309   0.698   2.854   3.628 -0.0980 -0.0096  0.1773
  313W        W 1310   6.648   1.829   0.567 -0.0818 -0.1544  0.3358
  314W        W 1311   6.287   5.367   3.839  0.2189 -0.3585 -0.1067
  315W        W 1312   5.913   5.453   3.510  0.3894  0.2386  0.2962
  316W        W 1313   3.614   1.239   4.660 -0.2267 -0.3864  0.2547
  317W        W 1314   4.690   6.751   1.832  0.1233 -0.0344 -0.4027
  318W        W 1315   3.774   2.163   6.287  0.0256  0.2251 -0.2294
  319W        W 1316   5.560   1.880   4.706  0.0743 -0.0355  0.0670
  320W        W 1317   7.602   7.560   2.838 -0.3387  0.0160 -0.0531
  321W        W 1318   6.000   0.710   1.446  0.0857 -0.1864  0.0389
  322W        W 1319   4.275   1.604   6.087 -0.0567  0.1213  0.0109
  323W        W 1320   2.849   7.241   0.453  0.1525 -0.2599  0.1169
  324W        W 1321   1.824   3.384   7.282 -0.1887 -0.3432  0.2481
  325W        W 1322   5.784   7.240   4.505  0.4279 -0.1329  0.0069
  326W        W 1323   6.348   6.264   0.254 -0.1328  0.5415 -0.1297
  327W        W 1324   0.544   1.878   1.142  0.3345 -0.0464  0.1186
  328W        W 1325   1.820   5.460   1.192  0.2475 -0.3673 -0.0316
  329W        W 1326   3.222   3.650   6.923 -0.0002 -0.0431 -0.1796
  330W        W 1327   1.684   5.475   4.936 -0.2032  0.0762 -0.2128
  331W        W 1328   7.411   4.448   2.087 -0.0905  0.3335  0.1472
  332W        W 1329   6.312   3.302   0.026  0.1139  0.0222 -0.2244
  333W        W 1330   0.046   4.361   6.901 -0.0738  0.1352 -0.1431
  334W        W 1331   7.059   3.833   1.701 -0.1127  0.0127  0.1382
  335W        W 1332   4.540   3.076   7.092 -0.0807  0.0520 -0.0651
  336W        W 1333   0.391   2.575   4.781  0.3004  0.1437  0.0372
  337W        W 1334   4.016   3.858   7.412 -0.0053  0.1474 -0.2271
  338W        W 1335   7.266   4.452   3.346 -0.0986 -0.0259 -0.2110
  339W        W 1336   4.199   4.387   6.062  0.1358 -0.2666 -0.0931
  340W        W 1337   0.544   3.131   4.051  0.1896  0.2133  0.1975
  341W        W 1338   0.316   3.302   1.881  0.0347 -0.0877  0.2439
  342W        W 1339   4.216   7.178   5.446 -0.0373 -0.2985 -0.0726
  343W        W 1340   3.714   2.701   4.346 -0.2854  0.1906  0.0001
  344W        W 1341   0.209   2.562   2.944 -0.0838 -0.0444  0.0496
  345W        W 1342   5.499   2.251   5.152 -0.3088  0.1165  0.2189
  346W        W 1343   6.819   6.157   0.526 -0.2619 -0.1179  0.1389
  347W        W 1344   4.256   0.010   1.280 -0.1323  0.0803  0.1255
  348W        W 1345   4.060   7.614   0.821 -0.2107  0.1503 -0.0086
  349W        W 1346   1.099   3.758   1.461 -0.1251 -0.0618  0.0333
  350W        W 1347   6.256   1.003   1.742  0.5806 -0.1874  0.0794
  351W        W 1348   3.543   0.772   4.950  0.0458 -0.0694  0.0953
  352W        W 1349   6.909   2.308   4.823 -0.0676 -0.1848 -0.1092
  353W        W 1350   4.656   0.343   4.509 -0.0238 -0.1293  0.0986
  354W        W 1351   0.508   2.926   0.328  0.2741  0.4126  0.0842
  355W        W 1352   6.354   2.271   0.478  0.1120 -0.2763 -0.0811
  356W        W 1353   2.520   4.998   5.013 -0.0241 -0.0485  0.1075
  357W        W 1354   3.943   1.357   7.095 -0.3755 -0.1630  0.1311
  358W        W 1355   4.381   6.275   2.816  0.1856  0.0080 -0.2590
  359W        W 1356   6.570   0.787   2.553  0.1039  0.1203 -0.1022
  360W        W 1357   2.462   3.686   7.041 -0.0172  0.4227 -0.0945
  361W        W 1358   5.114   0.535   5.842 -0.2148  0.0538  0.0677
  362W        W 1359   0.652   4.188   2.262  0.0195 -0.0530 -0.1868
  363W        W 1360   2.049   7.260   1.571  0.2236 -0.2280 -0.0445
  364W        W 1361   4.580   6.504   6.039 -0.1253  0.0283  0.2605
  365W        W 1362   0.080   6.265   5.076 -0.0673 -0.1086 -0.0170
  366W        W 1363   4.067   6.373   5.699 -0.2730 -0.2393 -0.0350
  367W        W 1364   3.445   4.949   0.764 -0.2565 -0.0270  0.0392
  368W        W 1365   0.534   2.670   6.134 -0.1107 -0.1048 -0.0728
  369W        W 1366   2.152   5.413   2.529 -0.2064  0.1701  0.0970
  370W        W 1367   7.484   5.698   0.126 -0.1387 -0.1443 -0.0084
  371W        W 1368   2.822   2.718   5.100  0.0881 -0.0005 -0.0511
  372W        W 1369   2.235   3.209   7.532 -0.2437  0.0411 -0.2239
  373W        W 1370   7.573   3.777   6.170  0.0442 -0.1273 -0.1474
  374W        W 1371   2.497   4.265   2.796 -0.1081  0.1384 -0.1840
  375W        W 1372   0.906   4.875   7.151 -0.0755 -0.3137  0.1013
  376W        W 1373   1.985   2.140   6.468 -0.0323  0.2607 -0.0401
  377W        W 1374   0.436   5.024   6.026 -0.0812 -0.3896 -0.0487
  378W        W 1375   4.983   2.559   0.695  0.2653  0.0222 -0.0829
  379W        W 1376   6.968   2.684   3.310  0.1353  0.0130 -0.0741
  380W        W 1377   1.043   2.027   6.896 -0.4129 -0.1309  0.2511
  381W        W 1378   5.279   6.636   2.870  0.0593  0.1335  0.1722
  382W        W 1379   6.450   6.987   3.865 -0.1709  0.0441  0.1702
  383W        W 1380   1.791   6.703   5.928 -0.0924 -0.1164 -0.1227
  384W        W 1381   2.951   3.929   4.773 -0.0541 -0.1360 -0.0651
  385W        W 1382   6.022   7.165   0.090  0.1202  0.0964 -0.1222
  386W        W 1383   5.775   4.682   1.459 -0.2706 -0.2644 -0.0744
  387W        W 1384   3.067   3.795   0.203 -0.0903  0.2324 -0.1795
  388W        W 1385   7.417   6.030   1.332  0.2174 -0.1793 -0.2590
  389W        W 1386   1.052   2.782   7.217  0.2413  0.0747 -0.4787
  390W        W 1387   3.524   3.670   5.410 -0.0429  0.4368  0.0596
  391W        W 1388   7.338   0.629   5.340 -0.1105  0.0867  0.0638
  392W        W 1389   3.831   4.582   0.933 -0.0853  0.1792  0.0934
  393W        W 1390   3.168   7.170   2.078  0.0854  0.0797  0.0434
  394W        W 1391   0.772   7.337   5.864  0.0848  0.0249 -0.0591
  395W        W 1392   0.925   3.531   2.857  0.2204 -0.1066 -0.1254
  396W        W 1393   4.889   6.807   6.225  0.1471 -0.0255  0.1977
  397W        W 1394   0.970   2.270   6.331  0.0424  0.2697  0.4649
  398W        W 1395   2.505   5.848   6.772 -0.3085  0.0640 -0.0213
  399W        W 1396   4.814   6.460   7.088 -0.2310  0.0647 -0.1330
  400W        W 1397   1.962   0.461   7.408  0.0416 -0.0485  0.2416
  401W        W 1398   0.866   3.208   0.533 -0.0634 -0.1566 -0.1240
  402W        W 1399   3.556   0.052   6.462  0.2369 -0.0703  0.0899
  403W        W 1400   7.147   6.698   3.436  0.0275  0.3149  0.3347
  404W        W 1401   5.548   5.819   3.746  0.2964  0.0803 -0.0043
  405W        W 1402   5.783   7.238   0.621 -0.0796 -0.1655 -0.1508
  406W        W 1403   6.034   0.288   6.652  0.1716 -0.2182  0.0605
  407W        W 1404   6.569   1.236   2.298  0.1479  0.0909  0.2922
  408W        W 1405   6.400   3.585   0.963 -0.2390  0.2364  0.1126
  409W        W 1406   3.301   5.095   2.946 -0.2752 -0.0166 -0.2296
  410W        W 1407   2.031   6.529   1.354 -0.0436 -0.2125  0.2604
  411W        W 1408   3.130   4.638   2.047 -0.0687 -0.1013 -0.3572
  412W        W 1409   4.406   5.103   6.397 -0.4148 -0.4523 -0.1408
  413W        W 1410   5.701   0.825   1.003  0.1733 -0.0283  0.1042
  414W        W 1411   2.807   6.714   5.777  0.0805  0.2077  0.2300
  415W        W 1412   2.236   4.570   1.957 -0.0624  0.2342 -0.1027
  416W        W 1413   1.940   5.156   5.276 -0.2614 -0.0271  0.1749
  417W        W 1414   4.536   5.746   5.820  0.2349  0.0095  0.0860
  418W        W 1415   4.118   3.817   3.221  0.0330 -0.0228 -0.1893
  419W        W 1416   4.020   7.243   3.145  0.1967  0.1177 -0.1642
  420W        W 1417   3.688   1.846   5.535  0.1921  0.0462 -0.3872
  421W        W 1418   4.429   7.642   5.406 -0.0399  0.0732 -0.1287
  422W        W 1419   1.804   6.313   1.813  0.1416 -0.1355  0.0868
  423W        W 1420   7.050   6.875   1.386  0.2028  0.1798  0.1728
  424W        W 1421   2.628   6.293   4.162  0.2664  0.0675  0.1447
  425W        W 1422   5.051   5.554   6.016  0.4261  0.1709 -0.1255
  426W        W 1423   6.948   6.786   3.878  0.0888 -0.1995  0.1456
  427W        W 1424   6.586   0.433   0.473 -0.0722 -0.0215  0.0424
  428W        W 1425   4.655   4.364   0.294 -0.0074 -0.1011  0.0347
  429W        W 1426   6.608   1.396   7.225  0.1830 -0.1796 -0.1571
  430W        W 1427   1.522   3.989   4.587  0.2040 -0.0350 -0.1437
  431W        W 1428   1.888   6.825   1.736 -0.2575 -0.0274  0.0641
  432W        W 1429   4.709   3.700   6.143  0.0184  0.0335  0.2038
  433W        W 1430   6.733   1.496   4.345  0.0378  0.0653  0.3858
  434W        W 1431   5.745   0.516   7.057 -0.1093  0.0431  0.0977
  435W        W 1432   5.648   1.028   6.709  0.1769 -0.1629  0.2381
  436W        W 1433   3.829   6.066   2.513  0.1024  0.2380  0.0858
  437W        W 1434   2.637   4.775   6.435 -0.4180 -0.2093 -0.0663
  438W        W 1435   6.921   1.805   4.728  0.1362 -0.0471  0.0548
  439W        W 1436   6.643   2.173   6.132 -0.1900 -0.0194  0.0941
  440W        W 1437   1.881   6.917   5.057  0.1952  0.0658  0.1630
  441W        W 1438   6.091   2.569   0.913 -0.3218 -0.3629 -0.3850
  442W        W 1439   6.610   2.609   4.492 -0.1739  0.1944 -0.0429
  443W        W 1440   2.095   2.443   3.953  0.0754 -0.2658  0.0304
  444W        W 1441   5.356   4.081   6.787 -0.1009  0.2310  0.1196
  445W        W 1442   3.543   5.279   2.032 -0.1352  0.0435 -0.3723
  446W        W 1443   4.698   1.329   4.675  0.2950 -0.3602 -0.2588
  447W        W 1444   2.739   5.970   6.362 -0.2860  0.0650  0.1478
  448W        W 1445   5.892   4.462   3.572 -0.1823  0.5073 -0.1941
  449W        W 1446   3.971   4.197   0.710  0.0935  0.1111 -0.1429
  450W        W 1447   4.568   0.376   2.603 -0.0601 -0.1736  0.0287
  451W        W 1448   4.185   2.543   6.533 -0.0496  0.1042  0.0986
  452W        W 1449   5.033   1.848   2.445  0.0152 -0.3427 -0.1613
  453W        W 1450   4.332   6.632   4.075 -0.1376 -0.1923 -0.0439
  454W        W 1451   5.067   5.093   3.783 -0.0072 -0.2452 -0.0187
  455W        W 1452   4.025   1.426   5.646  0.0357  0.1766  0.2931
  456W        W 1453   5.573   7.562   1.013  0.2547  0.2512  0.0053
  457W        W 1454   4.827   7.627   4.817 -0.0114  0.1490 -0.1740
  458W        W 1455   5.235   5.804   7.645  0.3229 -0.2603  0.0061
  459W        W 1456   2.296   2.278   2.638 -0.1552  0.1324 -0.2866
  460W        W 1457   3.680   4.546   0.472  0.0659 -0.3222  0.0274
  461W        W 1458   1.069   4.041   0.303  0.0546  0.1064 -0.1091
  462W        W 1459   0.558   2.833   1.625  0.1887 -0.0723  0.4060
  463W        W 1460   6.004   4.430   2.993 -0.0152  0.3108 -0.1624
  464W        W 1461   0.790   3.254   6.276  0.3856 -0.0511  0.1464
  465W        W 1462   3.522   4.050   0.510  0.0524  0.0423  0.2058
  466W        W 1463   6.418   6.406   6.346 -0.1116  0.1747 -0.0382
  467W        W 1464   5.174   0.668   5.336 -0.4276 -0.1025 -0.0660
  468W        W 1465   7.338   1.164   1.084 -0.1737 -0.3775 -0.2910
  469W        W 1466   2.360   5.919   1.272  0.0411 -0.1181 -0.3859
  470W        W 1467   7.284   6.969   5.914 -0.2183 -0.1592 -0.0661
  471W        W 1468   7.450   1.075   0.125 -0.2422 -0.3311 -0.1553
  472W        W 1469   4.936   0.472   1.162  0.0450 -0.0890  0.0993
  473W        W 1470   6.621   7.457   3.623 -0.3344 -0.2578 -0.0816
  474W        W 1471   1.383   7.627   6.388  0.2474 -0.1193 -0.0345
  475W        W 1472   5.366   0.904   6.218  0.0806 -0.1644 -0.0449
  476W        W 1473   6.436   4.721   4.328  0.1902  0.0857  0.1174
  477W        W 1474   3.679   4.512   6.196  0.1251  0.1251  0.0300
  478W        W 1475   4.874   7.382   6.415 -0.1016  0.2411  0.0576
  479W        W 1476   1.410   2.119   3.417  0.0390  0.0609 -0.0120
  480W        W 1477   0.303   5.172   1.626 -0.1442 -0.0300  0.4866
  481W        W 1478   2.072   2.815   2.599  0.0692  0.0664 -0.2041
  482W        W 1479   5.287   0.489   0.314  0.3037 -0.1858  0.0467
  483W        W 1480   7.165   3.246   4.824 -0.2262  0.2102  0.1320
  484W        W 1481   6.967   3.203   6.293 -0.1863 -0.0983  0.3082
  485W        W 1482   2.732   1.979   2.558  0.0295 -0.0763 -0.1137
  486W        W 1483   7.617   1.382   6.464 -0.1141 -0.0180  0.0098
  487W        W 1484   6.088   4.631   1.082 -0.4082  0.0304 -0.0748
  488W        W 1485   0.042   6.917   6.191 -0.3982  0.2118 -0.1311
  489W        W 1486   3.279   5.477   5.525 -0.1589  0.0859  0.4703
  490W        W 1487   4.652   2.127   6.744  0.1336 -0.0700  0.0991
  491W        W 1488   3.981   2.283   4.330  0.0870 -0.2946  0.1837
  492W        W 1489   7.379   4.769   5.262  0.2699  0.2410  0.0500
  493W        W 1490   6.999   5.048   5.492 -0.2769  0.0329 -0.1110
  494W        W 1491   2.528   5.334   4.499  0.0012  0.0790  0.0362
  495W        W 1492   6.680   6.281   4.005  0.0341  0.0642 -0.1462
  496W        W 1493   2.125   3.694   1.478 -0.1515  0.1475  0.0387
  497W        W 1494   4.447   5.930   2.438  0.1469  0.2991 -0.1335
  498W        W 1495   4.780   0.483   6.900  0.5079  0.2127 -0.0244
  499W        W 1496   7.215   1.370   3.872 -0.0928  0.1303 -0.0051
  500W        W 1497   7.043   7.482   6.101 -0.1148  0.0550 -0.3415
  501W        W 1498   7.562   3.857   1.176  0.2957  0.2017 -0.1361
  502W        W 1499   5.895   5.015   6.935 -0.1266  0.4986  0.0609
  503W        W 1500   4.010   5.598   2.560  0.1673  0.0182  0.0223
  504W        W 1501   5.333   4.422   7.136  0.2351 -0.1872  0.2990
  505W        W 1502   6.482   4.573   0.663  0.0800 -0.1965  0.4992
  506W        W 1503   0.632   5.589   1.948 -0.2265  0.1027  0.2556
  507W        W 1504   1.911   6.288   2.311  0.0277  0.1113 -0.4467
  508W        W 1505   2.990   3.754   6.515  0.0686 -0.3483 -0.3412
  509W        W 1506   1.798   4.922   0.706  0.0784  0.0274  0.0243
  510W        W 1507   3.039   6.802   0.707 -0.0004  0.1299 -0.1272
  511W        W 1508   4.551   5.557   2.804 -0.2777 -0.1155 -0.0374
  512W        W 1509   3.648   3.589   7.133  0.0889 -0.1925  0.0696
  513W        W 1510   6.189   3.388   6.779  0.0727 -0.1788 -0.1589
  514W        W 1511   6.954   5.661   0.561  0.2244 -0.1388  0.3065
  515W        W 1512   5.248   7.169   4.153 -0.0422 -0.5208  0.2928
  516W        W 1513   7.234   4.502   6.808 -0.3066  0.0806  0.0344
  517W        W 1514   0.281   1.841   2.660  0.1219 -0.1771  0.1890
  518W        W 1515   1.985   7.184   6.180  0.0606 -0.1007 -0.1476
  519W        W 1516   1.991   5.695   2.966  0.1741 -0.0287  0.0207
  520W        W 1517   6.753   4.794   5.170  0.1614  0.0079  0.1143
  521W        W 1518   5.683   0.016   6.921 -0.0644 -0.1147  0.2380
  522W        W 1519   2.874   2.204   4.865  0.0016  0.2662  0.1805
  523W        W 1520   1.518   4.990   5.861 -0.0968 -0.3812 -0.0276
  524W        W 1521   0.289   6.874   5.137  0.1894 -0.2239  0.2805
  525W        W 1522   2.250   5.549   0.297 -0.3489  0.0835  0.1184
  526W        W 1523   6.882   4.072   6.625  0.2830 -0.2882 -0.0802
  527W        W 1524   1.023   2.635   0.418 -0.0263  0.0496 -0.1722
  528W        W 1525   5.399   5.393   3.408  0.0308  0.1876  0.0894
  529W        W 1526   1.947   3.599   4.593  0.2692  0.1191  0.0496
  530W        W 1527   6.532   3.226   7.220 -0.0284 -0.1378  0.1142
  531W        W 1528   6.636   6.278   3.102 -0.3284  0.0019 -0.0566
  532W        W 1529   6.680   6.859   7.228 -0.1127 -0.0556  0.2766
  533W        W 1530   6.675   5.889   4.455  0.0850  0.0442  0.0640
  534W        W 1531   5.791   3.908   2.414  0.0356  0.0086  0.1700
  535W        W 1532   2.127   6.960   7.227 -0.0057  0.1682 -0.0382
  536W        W 1533   6.293   7.531   6.499 -0.1931  0.1634 -0.2283
  537W        W 1534   3.317   5.937   6.241 -0.2131  0.0110 -0.1505
  538W        W 1535   1.071   5.890   0.747  0.0927 -0.1968 -0.1127
  539W        W 1536   6.145   3.231   4.128  0.2912  0.3281  0.1295
  540W        W 1537   1.222   2.304   7.251  0.1239  0.0102 -0.0690
  541W        W 1538   7.505   7.011   1.193  0.1784 -0.0797  0.1898
  542W        W 1539   5.482   6.652   0.570  0.1136 -0.0546 -0.0928
  543W        W 1540   5.732   5.662   2.027  0.0612 -0.2590 -0.3778
  544W        W 1541   5.012   7.157   2.867  0.0956  0.1707 -0.1399
  545W        W 1542   5.224   2.980   1.492 -0.1371  0.0310 -0.0657
  546W        W 1543   3.594   3.634   5.957 -0.0963  0.0197  0.2824
  547W        W 1544   6.868   6.768   4.364 -0.3524  0.2109  0.0054
  548W        W 1545   5.937   5.811   5.749  0.1085  0.0018 -0.0386
  549W        W 1546   6.476   2.234   3.264 -0.4364  0.0114 -0.0264
  550W        W 1547   5.556   7.143   2.953  0.0981  0.0056  0.0997
  551W        W 1548   7.264   3.594   2.418  0.1274  0.1366  0.2346
  552W        W 1549   1.118   1.539   6.973 -0.1655 -0.0666 -0.2447
  553W        W 1550   4.705   3.780   1.784 -0.1363 -0.0454 -0.0629
  554W        W 1551   0.537   6.982   5.584  0.2687  0.0242  0.0669
  555W        W 1552   6.327   6.334   2.069  0.0043 -0.0201 -0.0071
  556W        W 1553   5.077   3.418   3.176 -0.0487  0.3017 -0.3770
  557W        W 1554   7.480   5.458   0.580  0.0931  0.2339 -0.0227
  558W        W 1555   5.788   1.595   2.315  0.0954 -0.0417 -0.1412
  559W        W 1556   0.127   2.201   7.031  0.1460 -0.0853 -0.1020
  560W        W 1557   7.580   6.769   2.212 -0.0414  0.2205  0.1234
  561W        W 1558   5.055   6.229   0.666  0.2073  0.1504 -0.2180
  562W        W 1559   7.032   0.486   4.318  0.1978 -0.2883 -0.4473
  563W        W 1560   7.319   3.288   7.116  0.0927  0.0105  0.1966
  564W        W 1561   6.286   6.826   0.960  0.1372  0.0130 -0.3788
  565W        W 1562   4.509   0.278   3.537 -0.1242  0.4355  0.1475
  566W        W 1563   6.053   1.943   2.687  0.2958  0.0566  0.0150
  567W        W 1564   6.982   1.961   1.805 -0.0284 -0.0390  0.2605
  568W        W 1565   6.153   1.403   4.143 -0.1219  0.1939  0.3866
  569W        W 1566   4.820   4.362   7.009 -0.0738  0.1784 -0.4716
  570W        W 1567   4.036   6.913   6.719  0.1247  0.2589  0.4181
  571W        W 1568   4.944   5.579   2.045  0.3130 -0.2039  0.0250
  572W        W 1569   4.165   0.416   5.892  0.0748 -0.1897 -0.2144
  573W        W 1570   1.686   3.767   6.858 -0.0625  0.2255  0.0273
  574W        W 1571   0.519   2.054   6.741  0.0827 -0.2187 -0.3188
  575W        W 1572   3.186   2.582   4.485  0.2835  0.1825 -0.1963
  576W        W 1573   0.057   1.266   2.277 -0.2994 -0.0925  0.1274
  577W        W 1574   4.163   0.082   4.052 -0.1012  0.3660  0.1225
  578W        W 1575   6.176   1.373   6.799 -0.0116  0.2700  0.2770
  579W        W 1576   4.044   0.653   3.801 -0.0816 -0.3308 -0.1983
  580W        W 1577   5.594   2.571   6.808 -0.3689 -0.2274 -0.1299
  581W        W 1578   1.818   5.318   0.364  0.3531  0.2064 -0.0774
  582W        W 1579   6.084   0.914   2.354 -0.3113  0.1515  0.0557
  583W        W 1580   0.986   5.218   5.252 -0.2771 -0.1344 -0.4151
  584W        W 1581   5.605   4.769   2.020  0.1173 -0.2904 -0.0114
  585W        W 1582   3.580   3.819   6.586 -0.2321  0.0777  0.1022
  586W        W 1583   3.188   3.501   5.117  0.1895  0.0685  0.1863
  587W        W 1584   6.121   1.267   0.130 -0.1491  0.0711 -0.1770
  588W        W 1585   7.248   3.951   2.728  0.2037  0.1268  0.0311
  589W        W 1586   3.795   6.815   3.369  0.0674 -0.0453 -0.0431
  590W        W 1587   6.466   7.655   6.008  0.3213  0.0758  0.1687
  591W        W 1588   4.102   4.661   4.825  0.2044 -0.0812 -0.0187
  592W        W 1589   3.451   5.178   7.444 -0.2337  0.2206 -0.0512
  593W        W 1590   6.160   0.042   3.399 -0.2065 -0.0549 -0.0404
  594W        W 1591   6.178   6.402   3.881 -0.2331  0.0778  0.2121
  595W        W 1592   3.771   0.976   7.505  0.1993  0.2029 -0.3225
  596W        W 1593   6.884   7.189   5.739 -0.2699 -0.3902 -0.0450
  597W        W 1594   4.745   4.773   2.524  0.0063 -0.1542 -0.0941
  598W        W 1595   7.564   2.197   2.695  0.0596  0.3464  0.1128
  599W        W 1596   7.540   3.790   4.418 -0.0876 -0.1576 -0.2078
  600W        W 1597   6.026   6.095   7.575 -0.2052  0.1200 -0.0311
  601W        W 1598   0.973   2.791   4.098  0.1034 -0.2138  0.0119
  602W        W 1599   5.680   6.176   2.127 -0.1240 -0.0907  0.0602
  603W        W 1600   6.756   4.479   4.657  0.1130 -0.3381  0.3180
  604W        W 1601   0.200   1.019   0.991 -0.1327 -0.1118 -0.0262
  605W        W 1602   0.938   3.523   5.323 -0.1408 -0.0905 -0.1208
  606W        W 1603   6.455   5.465   0.583  0.1044  0.2262  0.1092
  607W        W 1604   4.207   4.689   2.501 -0.0486  0.2016  0.0431
  608W        W 1605   1.938   3.378   3.327 -0.5243 -0.2062  0.0874
  609W        W 1606   6.060   5.887   7.085 -0.0445 -0.1184  0.2035
  610W        W 1607   4.719   0.594   7.371 -0.0451  0.1420  0.1141
  611W        W 1608   6.714   6.765   3.066  0.0491 -0.2025 -0.2663
  612W        W 1609   6.909   0.198   2.330  0.0354 -0.3706 -0.1735
  613W        W 1610   1.505   2.104   6.347 -0.2466  0.1119  0.1261
  614W        W 1611   0.496   0.371   2.005  0.2203  0.0037  0.0121
  615W        W 1612   3.596   4.621   5.007  0.0168 -0.1597  0.0107
  616W        W 1613   4.209   6.472   6.873  0.2482 -0.0530  0.3171
  617W        W 1614   1.418   4.914   6.374 -0.0253  0.1314 -0.1185
  618W        W 1615   2.173   5.921   4.255  0.0694  0.4227 -0.0004
  619W        W 1616   0.379   1.709   1.667  0.1197 -0.0021 -0.1452
  620W        W 1617   3.308   0.303   4.356  0.2691  0.1465 -0.0701
  621W        W 1618   1.357   5.626   6.693 -0.3329  0.1564 -0.1311
  622W        W 1619   4.415   6.172   4.310  0.1408 -0.2140  0.0691
  623W        W 1620   5.397   6.197   0.302  0.0028  0.0969  0.0150
  624W        W 1621   4.264   6.384   5.164  0.1029  0.0554  0.0828
  625W        W 1622   1.265   6.968   5.106  0.3614  0.0364  0.2520
  626W        W 1623   0.391   0.191   0.155 -0.0421 -0.3129 -0.2753
  627W        W 1624   6.974   5.274   2.997 -0.0069  0.0160  0.1963
  628W        W 1625   4.663   1.181   0.162  0.2063 -0.1237 -0.1097
  629W        W 1626   0.021   6.296   2.119  0.1582  0.0548  0.0393
  630W        W 1627   0.797   0.259   1.046  0.3669 -0.0435 -0.0793
  631W        W 1628   4.727   3.426   2.786 -0.0472 -0.0449 -0.3516
  632W        W 1629   5.036   3.361   1.736 -0.1188 -0.1156 -0.1408
  633W        W 1630   0.422   6.086   6.637 -0.1279  0.1625  0.2425
  634W        W 1631   4.045   0.284   6.432  0.0548  0.0685  0.2164
  635W        W 1632   3.606   6.745   0.534 -0.0485 -0.0355 -0.3724
  636W        W 1633   3.958   6.749   0.977  0.2409 -0.3149 -0.2609
  637W        W 1634   3.477   4.059   7.194 -0.2762 -0.1639 -0.1961
  638W        W 1635   4.696   1.427   6.961 -0.2268  0.1117  0.1834
  639W        W 1636   4.059   1.891   4.677  0.0333 -0.1326 -0.1662
  640W        W 1637   3.350   2.377   0.045 -0.0866  0.1701  0.0732
  641W        W 1638   1.093   5.630   1.846 -0.2157  0.0492  0.2452
  642W        W 1639   3.524   2.275   4.112  0.1658  0.0259 -0.1102
  643W        W 1640   0.162   4.121   0.781  0.2349  0.1748 -0.2736
  644W        W 1641   0.535   0.513   6.436 -0.4750  0.1956  0.2025
  645W        W 1642   2.451   5.476   3.497 -0.0599 -0.2347 -0.1365
  646W        W 1643   5.959   4.150   5.097  0.2082  0.1036 -0.0737
  647W        W 1644   6.945   2.797   6.631  0.0654 -0.0630 -0.2067
  648W        W 1645   2.964   6.223   5.538 -0.2051 -0.0452  0.0122
  649W        W 1646   1.804   4.931   4.321 -0.0088  0.1281 -0.0791
  650W        W 1647   1.102   7.264   5.503 -0.0201 -0.1702  0.0422
  651W        W 1648   6.990   0.873   0.175 -0.1559 -0.3009 -0.2137
  652W        W 1649   7.363   5.203   1.200  0.2883 -0.2762 -0.0138
  653W        W 1650   7.390   0.971   6.756 -0.1461 -0.2148  0.2807
  654W        W 1651   7.383   2.621   0.468 -0.1706  0.1169  0.0081
  655W        W 1652   2.884   2.730   7.050 -0.0024  0.0762  0.0823
  656W        W 1653   5.086   1.295   1.287 -0.2159  0.2179 -0.0347
  657W        W 1654   7.547   7.444   0.732 -0.0575  0.0967  0.1610
  658W        W 1655   4.555   0.047   2.146 -0.4857  0.1287 -0.3325
  659W        W 1656   0.055   2.284   4.445  0.1207  0.1445 -0.1243
  660W        W 1657   0.777   5.880   6.878 -0.0433  0.4486  0.2684
  661W        W 1658   4.292   1.722   7.141 -0.2805 -0.4415 -0.1543
  662W        W 1659   7.528   1.490   4.706 -0.0623  0.0158  0.0077
  663W        W 1660   2.065   7.471   7.523 -0.1059  0.1533  0.0001
  664W        W 1661   2.253   2.048   4.230  0.0906  0.2615  0.2250
  665W        W 1662   1.770   3.170   0.734 -0.0854 -0.0801 -0.0002
  666W        W 1663   2.256   3.988   1.880 -0.0145 -0.0135  0.0739
  667W        W 1664   7.001   7.155   3.520 -0.2015 -0.0634  0.2521
  668W        W 1665   0.207   0.334   1.411  0.0538  0.2485  0.1862
  669W        W 1666   4.356   6.080   1.536  0.3890 -0.1525  0.1247
  670W        W 1667   0.433   1.179   5.529 -0.0640  0.0662 -0.2238
  671W        W 1668   6.522   7.187   4.396  0.0515  0.0956 -0.1428
  672W        W 1669   5.097   2.548   4.009  0.1933 -0.2468 -0.0436
  673W        W 1670   4.757   1.372   6.326  0.0049 -0.1830 -0.3035
  674W        W 1671   5.192   6.334   4.279  0.5261 -0.2467  0.0205
  675W        W 1672   2.605   7.208   0.877 -0.0001 -0.1072  0.1334
  676W        W 1673   3.564   6.915   3.935  0.1693 -0.2333  0.1864
  677W        W 1674   7.307   1.480   1.449  0.1799  0.1536  0.0024
  678W        W 1675   5.990   4.069   3.880  0.0765 -0.0145  0.2799
  679W        W 1676   3.647   0.172   2.520 -0.0463 -0.3231 -0.0844
  680W        W 1677   4.561   4.241   3.269  0.0038  0.0746  0.1166
  681W        W 1678   2.862   6.675   3.479  0.1756  0.0875  0.2840
  682W        W 1679   0.245   0.505   0.939  0.3657 -0.0743 -0.1974
  683W        W 1680   6.434   0.820   5.027  0.0006 -0.2444  0.2557
  684W        W 1681   4.305   7.415   7.145  0.2721 -0.3278 -0.3723
  685W        W 1682   5.124   3.765   2.782  0.1243  0.1566  0.1987
  686W        W 1683   3.800   1.965   3.908  0.2213  0.0628  0.1631
  687W        W 1684   5.205   2.907   3.327 -0.0859  0.1960 -0.0939
  688W        W 1685   7.616   4.932   2.063 -0.1121  0.1197  0.0202
  689W        W 1686   1.926   1.903   2.692  0.1859 -0.2022  0.0148
  690W        W 1687   3.334   6.987   3.302  0.3142  0.2438  0.0469
  691W        W 1688   2.871   6.251   4.609 -0.0274  0.2376  0.0727
  692W        W 1689   4.788   2.880   4.920 -0.0778 -0.2006 -0.2262
  693W        W 1690   3.408   6.578   3.623 -0.0083 -0.0741  0.0699
  694W        W 1691   1.372   1.751   6.601 -0.0572 -0.0056  0.0143
  695W        W 1692   5.749   5.886   6.672 -0.1628  0.3059  0.0073
  696W        W 1693   5.033   3.074   4.234  0.1068 -0.0026 -0.1802
  697W        W 1694   5.357   0.433   0.904 -0.0578 -0.2670 -0.0480
  698W        W 1695   2.172   3.522   0.935 -0.1712 -0.1238  0.2388
  699W        W 1696   5.945   3.959   0.400 -0.1344 -0.0175  0.2906
  700W        W 1697   0.450   5.053   7.351  0.1455  0.0164  0.0867
  701W        W 1698   3.916   5.178   4.998 -0.0997 -0.1938 -0.0985
  702W        W 1699   4.888   5.069   2.132 -0.3487 -0.0373 -0.2380
  703W        W 1700   2.588   2.410   4.465 -0.0837 -0.3842  0.0600
  704W        W 1701   0.036   7.637   6.757  0.0116 -0.1036  0.1105
  705W        W 1702   4.591   2.869   0.812  0.1109  0.1407  0.1453
  706W        W 1703   2.679   5.632   2.513 -0.2133  0.0163 -0.1044
  707W        W 1704   3.204   6.141   1.885 -0.0318 -0.0532  0.0189
  708W        W 1705   4.322   3.913   2.053 -0.3456  0.0712  0.0605
  709W        W 1706   5.447   7.412   1.763 -0.1763 -0.1460  0.1392
  710W        W 1707   3.004   6.942   1.609  0.0017  0.3774 -0.1517
  711W        W 1708   6.714   1.245   4.897 -0.1762  0.1279 -0.0156
  712W        W 1709   6.228   5.110   6.418  0.0111  0.1188  0.0864
  713W        W 1710   1.824   4.885   0.045  0.0691 -0.1856 -0.2094
  714W        W 1711   3.018   4.721   0.951 -0.0773 -0.1120 -0.0723
  715W        W 1712   4.006   5.806   4.312  0.1504 -0.2492  0.1396
  716W        W 1713   0.921   2.533   4.604 -0.2607  0.0717  0.0143
  717W        W 1714   0.822   3.507   1.157 -0.1887 -0.4954  0.2598
  718W        W 1715   0.912   6.875   0.841 -0.4947  0.1741 -0.2906
  719W        W 1716   4.011   2.039   5.876 -0.1213 -0.2579  0.3610
  720W        W 1717   4.452   3.882   5.649  0.0670 -0.2168  0.5086
  721W        W 1718   5.702   6.964   6.355 -0.1044 -0.2434 -0.1653
  722W        W 1719   2.185   5.309   0.775  0.0819 -0.1167 -0.2201
  723W        W 1720   1.805   6.254   6.227 -0.0350  0.3698  0.0297
  724W        W 1721   3.616   1.693   0.346 -0.1430 -0.0287 -0.2905
  725W        W 1722   0.483   3.597   7.194  0.1525  0.0869 -0.1313
  726W        W 1723   2.154   4.307   1.383 -0.2312  0.0582  0.1392
  727W        W 1724   3.132   5.574   7.489 -0.0829 -0.1565 -0.1222
  728W        W 1725   6.429   2.080   0.057 -0.1918 -0.2765  0.3689
  729W        W 1726   0.689   6.360   0.176 -0.0686  0.0173 -0.1811
  730W        W 1727   3.353   3.342   6.563  0.3691 -0.2824  0.1583
  731W        W 1728   2.644   2.825   6.621 -0.0727 -0.0746 -0.1667
  732W        W 1729   7.334   2.746   1.966 -0.2301  0.1180 -0.1975
  733W        W 1730   4.306   1.960   3.973  0.0706  0.0760 -0.3177
  734W        W 1731   3.061   4.841   0.451  0.1294  0.0394 -0.1384
  735W        W 1732   3.508   0.433   5.728  0.0483 -0.0837  0.1775
  736W        W 1733   3.572   1.765   5.990 -0.1196  0.0405 -0.3427
  737W        W 1734   5.959   3.587   2.088 -0.0383 -0.0237  0.0250
  738W        W 1735   1.950   5.034   7.196 -0.0002  0.1908  0.3456
  739W        W 1736   3.952   0.253   1.607  0.2649 -0.0032 -0.0292
  740W        W 1737   3.959   1.847   6.731  0.1403 -0.1758  0.2274
  741W        W 1738   5.447   4.391   6.380 -0.1756 -0.0025  0.1089
  742W        W 1739   4.285   3.674   0.788  0.0572 -0.1334  0.0221
  743W        W 1740   3.471   3.916   4.910  0.0340  0.2081 -0.2473
  744W        W 1741   3.333   6.804   1.084  0.0377 -0.4091 -0.0596
  745W        W 1742   6.887   5.530   7.416  0.1094 -0.0769  0.0391
  746W        W 1743   2.072   2.390   3.480 -0.2683 -0.2629 -0.2714
  747W        W 1744   6.704   6.378   4.637  0.1236 -0.2751  0.0574
  748W        W 1745   1.334   5.493   0.386 -0.0016  0.0035 -0.1533
  749W        W 1746   1.661   5.697   6.294  0.4303 -0.2605 -0.1163
  750W        W 1747   4.394   5.269   0.008 -0.1389 -0.1579  0.2486
  751W        W 1748   4.827   3.992   6.566 -0.2184  0.0876 -0.2130
  752W        W 1749   6.345   5.224   4.321  0.0538  0.0337 -0.0606
  753W        W 1750   3.387   7.592   2.163 -0.0724  0.1792  0.1831
  754W        W 1751   2.901   4.576   3.564  0.1775  0.1339  0.0017
  755W        W 1752   6.224   4.792   5.186 -0.1004 -0.0233 -0.3136
  756W        W 1753   5.386   1.735   0.518  0.0607 -0.1120 -0.1479
  757W        W 1754   5.666   2.962   1.702 -0.1305  0.0355  0.1938
  758W        W 1755   4.234   2.804   3.617 -0.1867 -0.0800  0.1999
  759W        W 1756   7.000   2.277   6.496 -0.0911  0.1074  0.1251
  760W        W 1757   2.964   1.503   2.631  0.0679  0.2613 -0.1035
  761W        W 1758   7.523   6.560   7.293  0.1909  0.2148  0.0482
  762W        W 1759   4.091   4.326   3.025  0.3264  0.1408  0.2199
  763W        W 1760   7.436   0.817   4.373 -0.3178 -0.1026  0.2464
  764W        W 1761   7.211   2.511   2.422  0.0619  0.0978 -0.0972
  765W        W 1762   4.982   4.435   6.523  0.0328 -0.1896 -0.0717
  766W        W 1763   7.640   5.797   6.445  0.1304 -0.1283  0.3950
  767W        W 1764   2.812   5.194   0.974  0.0590 -0.0450  0.0323
  768W        W 1765   1.184   3.466   6.599 -0.0853  0.2576  0.1876
  769W        W 1766   5.484   4.713   6.741 -0.0423  0.2055  0.4020
  770W        W 1767   4.553   0.873   4.692 -0.0107 -0.2265 -0.1010
  771W        W 1768   3.897   4.544   3.839  0.0539  0.2614  0.1415
  772W        W 1769   2.728   1.975   4.086 -0.4283  0.0441 -0.0842
  773W        W 1770   5.502   4.932   7.307 -0.2158  0.1181 -0.1797
  774W        W 1771   0.904   2.994   0.013  0.0634  0.0323  0.1378
  775W        W 1772   4.614   4.883   6.827  0.0005 -0.0240  0.0322
  776W        W 1773   2.376   4.194   5.131 -0.0800  0.0780 -0.2861
  777W        W 1774   1.832   2.625   4.855 -0.0749 -0.1455  0.0959
  778W        W 1775   5.595   1.845   7.649  0.3207  0.0174  0.2032
  779W        W 1776   5.216   6.423   3.302 -0.1785 -0.3645 -0.0826
  780W        W 1777   6.056   1.008   2.937 -0.0606 -0.0064  0.0443
  781W        W 1778   0.768   5.362   6.179  0.1804 -0.0340  0.3152
  782W        W 1779   5.641   6.835   0.135 -0.2421  0.3995 -0.0368
  783W        W 1780   4.203   1.919   5.269 -0.0154 -0.1283  0.3720
  784W        W 1781   5.610   1.343   3.800  0.1614 -0.1178  0.1288
  785W        W 1782   5.049   4.897   7.054 -0.1644  0.1200 -0.2490
  786W        W 1783   2.470   4.543   6.002  0.1216  0.0173  0.1087
  787W        W 1784   6.298   2.228   7.251  0.4195 -0.2688 -0.1576
  788W        W 1785   7.297   4.273   5.915 -0.1816  0.1589 -0.1663
  789W        W 1786   6.578   3.769   5.969 -0.2903 -0.0569 -0.0585
  790W        W 1787   7.596   5.540   1.547 -0.1111 -0.1078 -0.0346
  791W        W 1788   5.668   1.067   0.092 -0.1625  0.0844  0.2476
  792W        W 1789   2.242   7.257   6.638 -0.0011 -0.1466 -0.0670
  793W        W 1790   6.987   3.969   5.610 -0.1509  0.2373  0.0253
  794W        W 1791   1.448   0.863   6.598 -0.0897  0.1340  0.0913
  795W        W 1792   2.731   2.717   3.293 -0.4000 -0.0389  0.2446
  796W        W 1793   7.305   2.137   2.128  0.1006 -0.3297 -0.2302
  797W        W 1794   0.974   2.744   6.381 -0.1358  0.0804  0.1231
  798W        W 1795   3.891   7.234   5.820  0.0424 -0.0535 -0.0036
  799W        W 1796   0.075   1.250   1.748  0.0089  0.1583 -0.0485
  800W        W 1797   5.102   4.356   4.007 -0.1644 -0.5275 -0.2949
  801W        W 1798   4.693   7.648   6.827  0.0270 -0.0595 -0.0845
  802W        W 1799   7.164   3.584   5.233  0.0204  0.0403  0.1250
  803W        W 1800   3.963   4.172   4.944  0.2354 -0.0573 -0.3750
  804W        W 1801   4.880   0.145   7.273 -0.0553 -0.3233  0.0985
  805W        W 1802   5.102   4.976   7.622 -0.2168  0.2045  0.1633
  806W        W 1803   3.943   4.097   4.187  0.3345  0.0928  0.0655
  807W        W 1804   7.521   5.710   2.773 -0.0879  0.4328 -0.2227
  808W        W 1805   2.418   6.089   3.495  0.1923  0.0152  0.1456
  809W        W 1806   5.778   0.611   0.381 -0.0363  0.0734 -0.2742
  810W        W 1807   0.664   4.842   5.522  0.2422  0.2352  0.0023
  811W        W 1808   2.046   3.807   0.545  0.0416 -0.0725 -0.0745
  812W        W 1809   2.876   6.793   0.198  0.0070 -0.0285 -0.1313
  813W        W 1810   6.594   3.909   4.685  0.0148  0.0347  0.0815
  814W        W 1811   6.672   7.632   4.543 -0.2006  0.0145 -0.2553
  815W        W 1812   0.213   1.380   0.311 -0.0699  0.0074 -0.2378
  816W        W 1813   6.117   2.330   6.801  0.2546  0.0908  0.1294
  817W        W 1814   6.804   5.970   1.039 -0.2713  0.1728 -0.1476
  818W        W 1815   6.177   4.066   5.991 -0.0953 -0.3352  0.0011
  819W        W 1816   4.843   6.968   1.097 -0.2916 -0.0904 -0.1864
  820W        W 1817   5.917   7.021   5.195  0.2102 -0.2835  0.1631
  821W        W 1818   5.581   4.803   1.031  0.0730 -0.1186  0.0996
  822W        W 1819   6.617   6.321   5.534  0.0202  0.1308 -0.0692
  823W        W 1820   3.491   5.497   0.216  0.0391 -0.1962 -0.0013
  824W        W 1821   4.889   5.164   1.554  0.3476 -0.0465  0.1207
  825W        W 1822   6.124   4.432   5.586 -0.0170 -0.0447  0.2154
  826W        W 1823   7.595   2.893   3.263 -0.1611 -0.1916  0.2025
  827W        W 1824   5.758   7.515   4.083 -0.0443  0.2973 -0.1151
  828W        W 1825   5.623   0.957   7.199 -0.2319 -0.0637 -0.2968
  829W        W 1826   2.841   5.225   2.804 -0.0535  0.0915 -0.3253
  830W        W 1827   4.463   4.131   0.800 -0.0759 -0.5171 -0.0172
  831W        W 1828   6.849   1.334   0.438 -0.1744  0.0978  0.1660
  832W        W 1829   4.537   0.673   3.847  0.1123  0.0362  0.0877
  833W        W 1830   0.614   1.671   7.055 -0.1248 -0.4785  0.2421
  834W        W 1831   3.305   0.329   0.397 -0.0441 -0.1331  0.1791
  835W        W 1832   3.326   5.413   7.022  0.0259 -0.2250  0.5152
  836W        W 1833   3.422   4.978   6.189  0.0496 -0.0221 -0.0977
  837W        W 1834   3.178   5.624   5.093  0.0348 -0.0364 -0.0783
  838W        W 1835   4.018   0.116   3.488 -0.2671 -0.0106 -0.1957
  839W        W 1836   6.294   4.477   6.756  0.0574 -0.0320 -0.0825
  840W        W 1837   7.129   5.295   1.637  0.2386 -0.0915 -0.0124
  841W        W 1838   1.962   6.688   0.189 -0.0957 -0.1025 -0.1090
  842W        W 1839   7.595   4.529   3.806 -0.0159  0.1165 -0.0025
  843W        W 1840   4.756   7.257   4.361  0.1582  0.1519 -0.0351
  844W        W 1841   3.334   1.819   4.063 -0.0495  0.0512 -0.0928
  845W        W 1842   5.870   5.928   0.656  0.1037  0.3718  0.0162
  846W        W 1843   1.221   2.515   0.928 -0.2506  0.0056  0.2469
  847W        W 1844   3.713   4.385   4.561 -0.0578  0.0054  0.1409
  848W        W 1845   6.284   7.137   7.326 -0.1261 -0.1762  0.0929
  849W        W 1846   5.120   2.409   5.416  0.0229 -0.1096 -0.0829
  850W        W 1847   1.054   5.241   6.632 -0.0847  0.2479 -0.2019
  851W        W 1848   5.457   3.596   1.890  0.0615  0.0146 -0.1224
  852W        W 1849   1.399   2.607   6.188 -0.0190  0.4590 -0.2508
  853W        W 1850   3.842   4.926   5.910 -0.2275 -0.2390 -0.0558
  854W        W 1851   0.097   0.074   1.799 -0.1295  0.1257 -0.1475
  855W        W 1852   5.570   7.587   5.962 -0.3528 -0.4191  0.2035
  856W        W 1853   7.353   7.253   0.016  0.1293 -0.3894  0.0399
  857W        W 1854   4.446   7.622   3.105  0.0748  0.0094  0.2990
  858W        W 1855   4.775   2.399   7.205  0.1171 -0.0594  0.1713
  859W        W 1856   7.068   2.061   2.643  0.0160 -0.0276 -0.0749
  860W        W 1857   0.395   7.387   7.027 -0.4189 -0.0563 -0.0693
  861W        W 1858   2.393   5.445   1.232 -0.0139 -0.2024 -0.1097
  862W        W 1859   5.673   2.111   6.646 -0.0288  0.1302  0.2587
  863W        W 1860   4.482   3.127   4.371 -0.0974 -0.0703  0.0610
  864W        W 1861   4.692   6.403   0.273  0.0533 -0.2716  0.0098
  865W        W 1862   0.099   2.043   3.580  0.0621  0.2191  0.0435
  866W        W 1863   3.144   4.736   7.654 -0.5027 -0.1834 -0.1268
  867W        W 1864   7.362   1.170   6.065 -0.0331 -0.1370 -0.0665
  868W        W 1865   7.431   1.647   5.872  0.0002  0.3073 -0.1765
  869W        W 1866   3.107   5.077   6.631  0.4721 -0.1383 -0.0255
  870W        W 1867   4.457   7.310   4.941  0.0098 -0.0570  0.1237
  871W        W 1868   6.392   2.997   2.827  0.1292 -0.0805  0.1461
  872W        W 1869   6.629   5.197   2.082  0.1008 -0.0283 -0.2593
  873W        W 1870   0.636   4.362   6.472 -0.0475 -0.1845 -0.1581
  874W        W 1871   1.783   4.411   7.631  0.0868  0.1151  0.2677
  875W        W 1872   2.436   5.064   5.907 -0.0143  0.4438  0.1513
  876W        W 1873   3.308   6.097   2.784 -0.0126  0.2885 -0.0118
  877W        W 1874   4.749   6.459   4.518 -0.1071 -0.1909  0.0059
  878W        W 1875   4.395   0.996   0.614 -0.3347  0.2311  0.0744
  879W        W 1876   3.921   5.898   3.497  0.0151  0.0509 -0.0376
  880W        W 1877   4.603   7.226   2.017  0.1789  0.0236 -0.2575
  881W        W 1878   6.756   5.928   7.055  0.0305  0.3131 -0.0961
  882W        W 1879   1.767   5.524   4.456  0.0044 -0.3793  0.3180
  883W        W 1880   0.232   1.832   5.834  0.0183  0.3595  0.1672
  884W        W 1881   0.136   4.938   0.955  0.1359 -0.0331  0.0362
  885W        W 1882   4.680   3.548   6.826  0.0872 -0.2267 -0.1508
  886W        W 1883   5.267   5.833   4.163  0.1543  0.2136 -0.1088
  887W        W 1884   6.248   6.968   6.404  0.1131 -0.0548 -0.0163
  888W        W 1885   2.854   3.337   6.738  0.2014  0.2999 -0.1168
  889W        W 1886   3.920   1.295   6.199  0.2082  0.0276  0.5056
  890W        W 1887   3.155   2.803   7.453  0.1180  0.0759 -0.1717
  891W        W 1888   0.345   3.096   6.048  0.0791 -0.3094 -0.1404
  892W        W 1889   0.196   1.944   4.798  0.0312 -0.2144 -0.0623
  893W        W 1890   4.132   6.624   6.217 -0.1787 -0.0850 -0.1003
  894W        W 1891   5.861   3.379   1.483 -0.1066  0.2299 -0.0608
  895W        W 1892   7.650   5.280   6.436 -0.0398 -0.2331 -0.0388
  896W        W 1893   6.772   3.062   0.059  0.4589  0.2296  0.1352
  897W        W 1894   6.179   4.206   7.258 -0.3217 -0.4084  0.1107
  898W        W 1895   2.359   6.964   1.353 -0.2059  0.0035  0.1149
  899W        W 1896   5.002   2.159   0.986  0.2308  0.1434 -0.1104
  900W        W 1897   5.294   5.468   1.738  0.1552 -0.3025  0.1034
  901W        W 1898   6.518   5.461   0.060  0.0478 -0.2408  0.0915
  902W        W 1899   6.518   0.377   6.877  0.0623  0.2103  0.1852
  903W        W 1900   3.422   7.266   1.304  0.3487  0.0323 -0.1121
  904W        W 1901   5.526   2.076   4.259 -0.1016  0.0725  0.2345
  905W        W 1902   6.298   2.462   2.674  0.0850 -0.0637  0.1228
  906W        W 1903   1.614   7.429   0.250 -0.0891 -0.1633  0.0271
  907W        W 1904   4.171   5.888   6.651 -0.1223 -0.3207  0.1424
  908W        W 1905   7.631   7.031   4.810  0.2201  0.2279  0.1352
  909W        W 1906   0.138   7.451   4.601 -0.1242  0.0228  0.3439
  910W        W 1907   2.881   5.722   3.098 -0.1293 -0.1114 -0.0345
  911W        W 1908   0.335   4.348   2.726 -0.0655  0.0879 -0.1432
  912W        W 1909   3.679   6.970   2.920 -0.1932  0.4896 -0.0084
  913W        W 1910   2.590   7.193   3.703 -0.2618 -0.0787  0.2107
  914W        W 1911   5.853   0.305   1.131 -0.5013  0.2808  0.0394
  915W        W 1912   4.502   5.358   1.773  0.1220  0.1478 -0.0451
  916W        W 1913   1.412   7.571   6.912  0.2405 -0.2626  0.1596
  917W        W 1914   0.203   4.681   5.706 -0.1985  0.1416  0.1324
  918W        W 1915   6.514   6.195   1.600  0.1519 -0.2039 -0.1481
  919W        W 1916   2.432   3.089   0.816  0.1389  0.2203  0.0920
  920W        W 1917   2.032   5.111   4.756 -0.0945 -0.0454  0.1737
  921W        W 1918   1.963   2.672   5.565  0.1505 -0.3687  0.1572
  922W        W 1919   5.691   5.182   4.850  0.0757  0.0045 -0.3635
  923W        W 1920   0.962   4.394   7.077  0.1038  0.0129  0.0163
  924W        W 1921   6.564   4.229   5.694  0.3361 -0.3819  0.5388
  925W        W 1922   6.261   2.654   0.090 -0.2575 -0.0470 -0.0374
  926W        W 1923   0.673   2.449   3.259  0.0261  0.0308  0.1081
  927W        W 1924   6.506   3.290   3.304  0.0435  0.1232 -0.0529
  928W        W 1925   7.506   1.644   0.948 -0.1656  0.1434  0.1372
  929W        W 1926   7.194   0.129   0.588 -0.0508 -0.0088  0.1434
  930W        W 1927   5.798   1.021   4.175  0.1177 -0.1637  0.0040
  931W        W 1928   6.693   3.949   2.083 -0.0472  0.0537  0.0054
  932W        W 1929   0.695   2.120   4.895 -0.0040  0.1487 -0.0605
  933W        W 1930   5.664   0.889   3.185 -0.0431 -0.4281 -0.1354
  934W        W 1931   7.624   4.063   2.390  0.2422 -0.1474 -0.1258
  935W        W 1932   2.168   6.291   5.774 -0.1598 -0.0184 -0.2348
  936W        W 1933   1.263   5.392   1.460 -0.0550 -0.2072  0.0455
  937W        W 1934   4.412   5.837   3.466  0.2506 -0.0383 -0.0534
  938W        W 1935   2.602   5.873   2.093 -0.0803  0.1943 -0.0158
  939W        W 1936   7.129   5.902   6.733  0.0634 -0.1783  0.2259
  940W        W 1937   5.378   3.477   4.490  0.0902 -0.3490 -0.0778
  941W        W 1938   0.338   7.421   7.568  0.0621  0.1049 -0.0842
  942W        W 1939   4.550   0.855   2.495  0.0955 -0.0901  0.0727
  943W        W 1940   3.706   2.365   5.655 -0.0695 -0.3686  0.0234
  944W        W 1941   6.041   2.302   6.308 -0.0527  0.0302  0.0524
  945W        W 1942   0.379   6.824   2.324 -0.0377 -0.0209 -0.2466
  946W        W 1943   6.244   0.391   2.497  0.0033 -0.2066 -0.3285
  947W        W 1944   6.403   1.863   4.202 -0.0765 -0.3338  0.2228
  948W        W 1945   0.160   3.588   4.050 -0.2831 -0.0301 -0.4347
  949W        W 1946   0.197   7.169   6.634 -0.3995  0.2872  0.0461
  950W        W 1947   4.855   7.235   3.695  0.0360 -0.1354  0.1495
  951W        W 1948   5.723   5.165   2.554 -0.0592  0.2648 -0.1562
  952W        W 1949   6.238   5.944   6.549  0.1030  0.0218 -0.0821
  953W        W 1950   0.567   3.017   7.192 -0.0728 -0.0043 -0.2930
  954W        W 1951   1.312   3.202   6.172  0.3971  0.3746  0.0244
  955W        W 1952   7.225   7.085   2.973 -0.1919 -0.1024 -0.2972
  956W        W 1953   4.243   0.492   2.186 -0.0751 -0.3083 -0.1026
  957W        W 1954   6.281   6.233   4.362 -0.1152 -0.0339  0.0136
  958W        W 1955   1.054   2.880   5.914  0.0718  0.4335  0.0311
  959W        W 1956   6.862   6.056   2.208  0.1150 -0.0054 -0.0182
  960W        W 1957   7.079   4.036   1.183 -0.0498 -0.3543 -0.1988
  961W        W 1958   0.115   2.219   1.898 -0.1281  0.1650  0.3236
  962W        W 1959   3.412   6.040   4.874 -0.0691  0.0613 -0.1825
  963W        W 1960   3.874   5.377   4.118  0.0439 -0.1190 -0.2557
  964W        W 1961   0.617   1.063   7.353 -0.2365 -0.2908 -0.2189
  965W        W 1962   0.326   3.824   2.139 -0.0721  0.0552 -0.0050
  966W        W 1963   3.108   0.113   5.953 -0.3833 -0.0245  0.0076
  967W        W 1964   6.817   7.316   2.371  0.1823 -0.0314  0.0034
  968W        W 1965   4.578   6.369   5.566  0.2079  0.0502  0.0997
  969W        W 1966   7.218   6.295   5.161 -0.0733 -0.2972  0.1030
  970W        W 1967   4.552   4.121   7.445  0.1740 -0.0794  0.2944
  971W        W 1968   5.000   5.854   7.201  0.1166 -0.2899 -0.0232
  972W        W 1969   2.515   3.529   5.923  0.1109  0.1395  0.0310
  973W        W 1970   2.283   5.510   7.124 -0.0730 -0.0013  0.2299
  974W        W 1971   2.928   3.065   5.412 -0.2222 -0.2057  0.3129
  975W        W 1972   3.550   2.111   4.662  0.0349 -0.2680 -0.1934
  976W        W 1973   7.216   4.598   6.278  0.0807 -0.3582 -0.0235
  977W        W 1974   5.447   0.675   4.921 -0.1206 -0.0801  0.3675
  978W        W 1975   0.435   6.930   0.117 -0.2162 -0.3615  0.0618
  979W        W 1976   5.378   5.708   2.374 -0.1668  0.0072 -0.1570
  980W        W 1977   6.002   1.192   1.205  0.1387 -0.2714 -0.1798
  981W        W 1978   3.750   4.361   2.608  0.0603 -0.1097 -0.1944
  982W        W 1979   3.632   0.335   4.780  0.0338 -0.0904 -0.2674
  983W        W 1980   2.766   4.477   5.015 -0.0419 -0.1444 -0.1710
  984W        W 1981   6.921   2.624   0.427  0.5566 -0.1504  0.1730
  985W        W 1982   7.090   1.226   4.543  0.4328  0.0434  0.0882
  986W        W 1983   5.398   5.606   5.027  0.1206 -0.0908 -0.1211
  987W        W 1984   6.651   4.170   7.473  0.2798 -0.1207 -0.0160
  988W        W 1985   6.061   5.986   1.760  0.0423 -0.2600  0.1508
  989W        W 1986   4.964   5.935   5.665  0.2557  0.2054 -0.5457
  990W        W 1987   2.566   4.134   3.688 -0.0006  0.0195  0.1105
  991W        W 1988   3.818   5.529   1.121 -0.0837 -0.1436 -0.3266
  992W        W 1989   2.220   5.965   2.479 -0.3122  0.1314  0.2492
  993W        W 1990   6.755   5.489   4.197  0.1566  0.0777  0.1975
  994W        W 1991   0.598   1.983   3.495  0.3123 -0.1184  0.2111
  995W        W 1992   3.667   5.606   7.418 -0.1919 -0.1370  0.1266
  996W        W 1993   5.694   0.057   3.571 -0.1580 -0.0417 -0.1331
  997W        W 1994   1.792   5.438   2.117 -0.0473 -0.0831  0.1709
  998W        W 1995   6.745   0.884   4.586 -0.1462 -0.1088  0.2836
  999W        W 1996   0.045   7.012   7.322  0.1145 -0.3209 -0.1733
 1000W        W 1997   7.478   4.401   2.864 -0.4151  0.2284 -0.0619
 1001W        W 1998   0.982   7.342   6.358  0.2508 -0.0068  0.0293
 1002W        W 1999   4.858   1.524   5.111 -0.2362  0.1988 -0.2229
 1003W        W 2000   3.609   7.544   1.722 -0.4229  0.0588 -0.0964
 1004W        W 2001   3.548   3.781   7.613  0.0091  0.5005 -0.0371
 1005W        W 2002   0.478   1.550   5.068  0.1659 -0.0266 -0.0828
 1006W        W 2003   7.353   4.219   4.104 -0.2402 -0.2840 -0.0507
 1007W        W 2004   0.385   5.552   6.674  0.0670 -0.0646 -0.1609
 1008W        W 2005   5.688   3.710   6.196  0.0399  0.0866  0.0879
 1009W        W 2006   7.610   4.300   4.625  0.1102 -0.4079  0.1192
 1010W        W 2007   3.887   3.462   6.389  0.1307 -0.1153 -0.0435
 1011W        W 2008   7.116   1.483   6.513 -0.0809  0.1464 -0.1091
 1012W        W 2009   6.410   7.038   3.394  0.0815 -0.0694 -0.2540
 1013W        W 2010   6.274   0.937   5.478  0.0423 -0.1228 -0.0216
 1014W        W 2011   0.170   5.737   5.133  0.0573  0.0094 -0.2203
 1015W        W 2012   3.414   6.572   5.224 -0.0916 -0.1857 -0.2365
 1016W        W 2013   4.864   5.617   4.907 -0.1128 -0.0799 -0.0459
 1017W        W 2014   2.335   4.126   2.327 -0.0086  0.1242  0.1111
 1018W        W 2015   2.487   7.367   7.193  0.0368 -0.2120 -0.1057
 1019W        W 2016   6.901   6.334   6.775  0.3372 -0.1298 -0.0526
 1020W        W 2017   6.755   6.229   6.005 -0.0867  0.4899  0.2039
 1021W        W 2018   4.547   0.132   0.901  0.0571 -0.0805  0.1937
 1022W        W 2019   4.583   5.339   3.834  0.0591  0.2261 -0.1266
 1023W        W 2020   6.824   2.647   1.955 -0.0788 -0.3652  0.2324
 1024W        W 2021   0.960   1.617   0.926 -0.0996  0.1173  0.0763
 1025W        W 2022   0.672   1.404   1.327  0.0427 -0.0686  0.0007
 1026W        W 2023   0.808   2.469   1.240 -0.2959  0.1652 -0.2967
 1027W        W 2024   7.261   6.308   0.958 -0.0332 -0.2870 -0.1451
 1028W        W 2025   4.808   4.646   3.113 -0.1557 -0.0890  0.2089
 1029W        W 2026   1.550   3.503   0.428 -0.3753 -0.1466 -0.2485
 1030W        W 2027   6.959   6.894   2.630  0.0151 -0.1843 -0.0545
 1031W        W 2028   2.256   5.775   5.496 -0.0379  0.0636  0.1857
 1032W        W 2029   6.562   4.028   1.640  0.1038 -0.0001 -0.2840
 1033W        W 2030   1.965   6.487   7.394  0.1007 -0.1322  0.0782
 1034W        W 2031   6.204   4.033   1.973  0.1765  0.0997  0.1617
 1035W        W 2032   5.916   4.159   6.380  0.0911 -0.1290  0.2751
 1036W        W 2033   4.750   3.189   3.568  0.0515  0.2073  0.1193
 1037W        W 2034   5.183   7.589   3.803  0.0536 -0.1292 -0.0994
 1038W        W 2035   6.220   6.735   6.983 -0.2438 -0.1674 -0.2529
 1039W        W 2036   3.833   3.225   0.409  0.2454 -0.0331 -0.2482
 1040W        W 2037   0.210   2.079   3.090  0.0432  0.2623 -0.0700
 1041W        W 2038   6.398   5.260   5.262  0.0485 -0.1448 -0.1315
 1042W        W 2039   3.277   6.663   2.024  0.2203  0.0161 -0.2696
 1043W        W 2040   1.735   6.422   6.965  0.1070  0.1032 -0.1448
 1044W        W 2041   1.642   4.303   6.493  0.0196  0.0088  0.0319
 1045W        W 2042   4.689   2.852   3.950 -0.2080  0.2445  0.1605
 1046W        W 2043   6.530   6.365   1.012  0.1478 -0.1536  0.1635
 1047W        W 2044   4.859   1.698   2.963 -0.0592  0.3146 -0.1808
 1048W        W 2045   4.564   5.980   6.989  0.0196 -0.0734 -0.0135
 1049W        W 2046   0.662   2.897   5.025  0.0293 -0.2002  0.4255
 1050W        W 2047   6.970   6.211   3.502 -0.0452 -0.1419  0.1571
 1051W        W 2048   4.593   1.567   3.930  0.0506  0.4431  0.0894
 1052W        W 2049   5.681   5.273   7.656 -0.4050 -0.1577 -0.2565
 1053W        W 2050   4.473   5.568   4.352  0.1007 -0.0805 -0.1565
 1054W        W 2051   0.086   3.097   7.405  0.2216  0.4697 -0.0512
 1055W        W 2052   6.083   5.093   7.400  0.1385 -0.0518  0.0795
 1056W        W 2053   1.291   4.369   4.879  0.2138  0.0004 -0.2493
 1057W        W 2054   7.237   2.925   0.825  0.3526  0.0923 -0.2181
 1058W        W 2055   5.686   2.671   3.321  0.2225 -0.0492  0.2851
 1059W        W 2056   2.570   3.147   4.976 -0.2657  0.0426  0.3470
 1060W        W 2057   0.157   6.225   1.636 -0.1352 -0.0767 -0.3147
 1061W        W 2058   4.702   5.586   0.831 -0.2339  0.0090 -0.0727
 1062W        W 2059   3.126   2.301   5.428 -0.0904 -0.0078 -0.1605
 1063W        W 2060   5.256   0.377   7.000 -0.0142 -0.0732  0.2483
 1064W        W 2061   4.516   1.973   0.272  0.1720 -0.1363  0.0592
 1065W        W 2062   0.202   2.124   5.236 -0.1662  0.1567 -0.1866
 1066W        W 2063   7.431   6.694   2.687 -0.0808 -0.0265 -0.0062
 1067W        W 2064   2.877   6.674   6.362  0.0168  0.0290  0.2089
 1068W        W 2065   6.991   5.890   3.883 -0.2944  0.2658 -0.1596
 1069W        W 2066   7.379   2.509   6.741  0.0043 -0.1153  0.1465
 1070W        W 2067   4.301   1.200   6.558 -0.1083 -0.3622  0.2575
 1071W        W 2068   2.868   7.378   6.179 -0.1311 -0.2034  0.3183
 1072W        W 2069   2.306   5.153   1.683  0.4842 -0.0114  0.2767
 1073W        W 2070   6.950   0.106   1.670  0.2526  0.2098  0.0118
 1074W        W 2071   7.067   6.089   4.713  0.0163 -0.0636 -0.1200
 1075W        W 2072   5.973   5.015   5.971  0.0815 -0.2289  0.0812
 1076W        W 2073   5.936   1.008   5.825 -0.2201 -0.1583  0.2071
 1077W        W 2074   6.818   3.922   3.207  0.2807  0.0877 -0.2175
 1078W        W 2075   3.912   6.277   6.485  0.2940  0.0795  0.1994
 1079W        W 2076   2.757   7.457   4.844 -0.0444  0.1111 -0.1676
 1080W        W 2077   0.210   4.522   2.246 -0.2560  0.0441  0.3778
 1081W        W 2078   5.264   1.115   2.838 -0.1929  0.0808 -0.0362
 1082W        W 2079   4.814   0.599   2.108  0.1736  0.1347  0.0264
 1083W        W 2080   3.927   1.290   0.251  0.1280 -0.0192  0.1405
 1084W        W 2081   5.632   7.289   2.231 -0.0095 -0.0339  0.0605
 1085W        W 2082   5.306   7.517   2.620 -0.3040  0.4800  0.0260
 1086W        W 2083   6.961   6.328   1.371  0.0692 -0.0987 -0.1854
 1087W        W 2084   6.777   4.776   1.718  0.2085 -0.1754  0.0700
 1088W        W 2085   5.138   6.793   4.508  0.0790 -0.0675  0.2425
 1089W        W 2086   3.592   5.413   0.687 -0.0867 -0.0074 -0.0223
 1090W        W 2087   6.062   1.765   7.515 -0.1236 -0.2391  0.1195
 1091W        W 2088   5.433   5.796   5.533 -0.0575  0.2398  0.0944
 1092W        W 2089   6.348   5.711   3.175  0.2551  0.0071  0.1224
 1093W        W 2090   6.001   2.228   0.132  0.1483 -0.0399  0.0534
 1094W        W 2091   6.996   5.964   2.693  0.4081 -0.0556 -0.0842
 1095W        W 2092   4.095   3.199   3.907  0.2576 -0.0196 -0.1433
 1096W        W 2093   2.361   2.496   0.287 -0.0440 -0.3205 -0.0673
 1097W        W 2094   2.267   6.671   0.925 -0.2721 -0.0995 -0.2313
 1098W        W 2095   6.448   5.713   5.071 -0.0587 -0.2753 -0.0418
 1099W        W 2096   3.880   4.331   7.231 -0.2111  0.1594 -0.1202
 1100W        W 2097   0.778   6.374   6.886 -0.1038 -0.1455 -0.3238
 1101W        W 2098   2.838   2.650   5.755 -0.1659 -0.0773 -0.1313
 1102W        W 2099   6.038   5.968   3.683  0.3348  0.0767  0.2590
 1103W        W 2100   5.171   5.200   2.917  0.3019  0.0198 -0.1666
 1104W        W 2101   1.914   3.916   7.371 -0.3340  0.3422 -0.0484
 1105W        W 2102   5.194   6.926   6.626  0.0867  0.1184  0.1186
 1106W        W 2103   4.260   4.839   3.096  0.0389  0.2167  0.1681
 1107W        W 2104   1.053   1.680   3.431  0.0048 -0.0136 -0.1737
 1108W        W 2105   7.044   3.640   6.115  0.0639  0.1659  0.1952
 1109W        W 2106   2.980   6.334   6.040 -0.4241 -0.3382 -0.0071
 1110W        W 2107   5.714   5.465   4.072 -0.0852  0.0476 -0.0158
 1111W        W 2108   5.996   3.107   7.240  0.1414 -0.1952  0.0270
 1112W        W 2109   4.460   6.527   7.448  0.0103 -0.2279  0.2960
 1113W        W 2110   5.437   2.259   0.193  0.2203 -0.1730 -0.0668
 1114W        W 2111   2.113   4.054   6.919 -0.0795 -0.2133  0.1709
 1115W        W 2112   4.928   6.050   2.313 -0.2703 -0.2681  0.1493
 1116W        W 2113   3.010   3.960   5.294  0.5780  0.1491 -0.1734
 1117W        W 2114   0.981   3.847   7.027  0.0361  0.2956 -0.0555
 1118W        W 2115   3.421   5.882   7.060 -0.2012 -0.0906  0.1994
 1119W        W 2116   5.864   6.402   0.309  0.4605  0.1155  0.1628
 1120W        W 2117   2.367   1.847   2.973 -0.1175  0.0571  0.1572
 1121W        W 2118   3.662   0.656   2.895 -0.0003 -0.0672 -0.1281
 1122W        W 2119   6.420   4.380   3.837  0.1529  0.1494 -0.0534
 1123W        W 2120   4.108   5.761   0.029 -0.1020  0.1230 -0.0739
 1124W        W 2121   2.429   2.867   6.058 -0.3050  0.3635 -0.0513
 1125W        W 2122   5.602   0.210   5.313  0.0630  0.1297  0.1063
 1126W        W 2123   6.746   7.228   2.975 -0.1287 -0.1668  0.1919
 1127W        W 2124   4.185   5.830   3.051 -0.0263  0.1589 -0.4408
 1128W        W 2125   7.006   2.143   0.582  0.0316  0.1190  0.1235
 1129W        W 2126   4.228   2.891   5.183  0.0050  0.3008  0.1507
 1130W        W 2127   6.492   4.965   4.779 -0.3776  0.0716  0.1660
 1131W        W 2128   1.265   5.502   6.168 -0.1084 -0.0653  0.1627
 1132W        W 2129   0.394   3.337   1.384  0.1580 -0.1131  0.1716
 1133W        W 2130   0.969   3.968   1.889 -0.0858 -0.1340  0.1003
 1134W        W 2131   3.511   6.560   6.741 -0.0331  0.0184  0.1265
 1135W        W 2132   3.075   4.635   1.581 -0.1601 -0.0120  0.0009
 1136W        W 2133   6.379   7.377   1.609 -0.0254 -0.0585  0.3303
 1137W        W 2134   0.574   4.892   5.029 -0.0445 -0.0507 -0.0583
 1138W        W 2135   0.725   5.968   1.659 -0.1998 -0.0158 -0.0393
 1139W        W 2136   6.923   1.355   6.006  0.0907 -0.2679 -0.0460
 1140W        W 2137   2.969   7.204   5.748 -0.3176 -0.0943 -0.1349
 1141W        W 2138   2.378   6.438   2.700 -0.1916  0.2290  0.2698
 1142W        W 2139   5.855   6.063   6.228 -0.1043 -0.0442 -0.3322
 1143W        W 2140   2.492   3.875   5.509  0.2141  0.2612  0.1361
 1144W        W 2141   3.241   7.419   2.609 -0.0896  0.0651  0.1266
 1145W        W 2142   4.677   5.255   5.988  0.0179 -0.0693 -0.0731
 1146W        W 2143   5.908   3.387   1.006 -0.2522 -0.1683  0.0809
 1147W        W 2144   4.435   1.173   4.218  0.3548  0.2301 -0.2810
 1148W        W 2145   5.871   5.022   4.293 -0.0741  0.0700 -0.2469
 1149W        W 2146   6.716   1.572   5.366  0.1012 -0.0143  0.3438
 1150W        W 2147   0.456   6.471   5.524  0.3642 -0.0820 -0.0113
 1151W        W 2148   2.800   4.927   4.547  0.3300 -0.0655  0.0148
 1152W        W 2149   7.125   4.139   2.292  0.0371 -0.2779 -0.0654
 1153W        W 2150   2.994   2.234   3.371 -0.0999  0.0339 -0.1659
 1154W        W 2151   0.415   7.378   5.050  0.2046  0.3746  0.0519
 1155W        W 2152   2.494   5.851   3.906  0.0281 -0.2821 -0.3159
 1156W        W 2153   2.115   2.361   5.230  0.0344  0.3204 -0.2408
 1157W        W 2154   2.598   4.165   6.840 -0.2490 -0.2764  0.0356
 1158W        W 2155   0.254   2.694   6.943  0.1228  0.2182  0.1562
 1159W        W 2156   5.237   2.591   4.909 -0.0082 -0.1991 -0.1608
 1160W        W 2157   6.861   7.251   4.020 -0.2313 -0.0984 -0.0395
 1161W        W 2158   7.629   7.293   5.240 -0.2358  0.0745  0.1254
 1162W        W 2159   3.960   7.539   7.538 -0.4661 -0.2555  0.1433
 1163W        W 2160   4.904   4.188   1.997 -0.0709  0.1412 -0.3264
 1164W        W 2161   6.950   1.624   2.887  0.1162 -0.3218 -0.0810
 1165W        W 2162   5.974   7.619   1.916  0.4510 -0.1091 -0.1177
 1166W        W 2163   5.741   0.304   7.632  0.2047  0.0341 -0.0152
 1167W        W 2164   4.796   5.388   6.989  0.3898  0.1770 -0.0504
 1168W        W 2165   6.117   6.713   2.360 -0.5844  0.0755  0.0625
 1169W        W 2166   0.078   2.411   6.052 -0.1734 -0.1544 -0.3273
 1170W        W 2167   6.225   6.302   5.822  0.0451  0.3074  0.1608
 1171W        W 2168   3.531   7.492   7.096 -0.1312  0.1164  0.0145
 1172W        W 2169   4.709   0.788   2.985  0.2073  0.1013  0.1180
 1173W        W 2170   5.817   3.060   0.061 -0.2604  0.1918  0.0805
 1174W        W 2171   6.788   0.076   6.543 -0.1964 -0.1963 -0.0148
 1175W        W 2172   1.244   2.790   4.987  0.1459  0.2826 -0.2675
 1176W        W 2173   1.592   6.013   7.240 -0.1434 -0.0105 -0.0392
 1177W        W 2174   7.050   0.345   0.128  0.0553 -0.2975 -0.3017
 1178W        W 2175   4.486   5.808   1.984 -0.0257 -0.0065  0.0857
 1179W        W 2176   3.426   2.081   6.691  0.0349 -0.1329  0.0892
 1180W        W 2177   7.625   0.752   1.285 -0.2146  0.0579  0.3905
 1181W        W 2178   3.803   6.273   3.188 -0.1047 -0.0279  0.0234
 1182W        W 2179   5.212   0.074   5.610 -0.0873  0.0170  0.1177
 1183W        W 2180   5.749   5.887   3.234 -0.2507  0.1192  0.1680
 1184W        W 2181   3.713   1.526   3.715 -0.0980  0.0889 -0.0219
 1185W        W 2182   3.682   5.814   6.624  0.4384 -0.1174  0.0556
 1186W        W 2183   0.263   3.973   6.471 -0.0565  0.0583 -0.0312
 1187W        W 2184   4.481   0.015   6.350  0.2132 -0.0864 -0.0488
 1188W        W 2185   0.307   4.560   0.658 -0.2979 -0.0849 -0.3393
 1189W        W 2186   0.065   6.242   0.352  0.1134  0.0748  0.1690
 1190W        W 2187   3.169   4.491   5.361 -0.2047 -0.0455  0.0123
 1191W        W 2188   6.817   3.255   1.078  0.0229 -0.1863 -0.0860
 1192W        W 2189   6.027   6.793   3.628  0.2556 -0.0989  0.0529
 1193W        W 2190   5.182   1.493   1.766  0.0092  0.0562  0.0787
 1194W        W 2191   6.170   2.883   4.526 -0.2335 -0.1442  0.0273
 1195W        W 2192   3.749   3.485   3.030  0.0688 -0.0814  0.2701
 1196W        W 2193   3.602   6.365   1.143 -0.3446 -0.1356 -0.2243
 1197W        W 2194   2.305   3.616   4.194 -0.0831 -0.0505  0.0837
 1198W        W 2195   2.837   7.121   2.529 -0.0648 -0.1724  0.1254
 1199W        W 2196   3.500   4.878   3.681 -0.0997  0.4580 -0.2438
 1200W        W 2197   3.375   7.415   4.081 -0.3103  0.2319  0.0789
 1201W        W 2198   4.863   0.201   5.269  0.1731 -0.2616 -0.3614
 1202W        W 2199   1.762   5.594   7.101 -0.1046  0.1037  0.0993
 1203W        W 2200   0.250   4.514   5.247 -0.0631 -0.0463 -0.0714
 1204W        W 2201   0.565   4.049   0.528 -0.0889  0.0091 -0.1944
 1205W        W 2202   0.843   5.177   1.689  0.2234  0.2032  0.0511
 1206W        W 2203   7.547   0.142   0.062  0.2174  0.0553 -0.0436
 1207W        W 2204   5.254   2.369   3.341 -0.1573  0.0390 -0.0482
 1208W        W 2205   5.169   4.327   4.511 -0.1083 -0.1987 -0.5076
 1209W        W 2206   6.767   1.215   3.700  0.2928  0.2564 -0.1410
 1210W        W 2207   4.276   3.795   6.488 -0.0539 -0.0179  0.0817
 1211W        W 2208   5.346   4.675   3.726  0.2104  0.1541 -0.2294
 1212W        W 2209   7.345   2.032   6.790 -0.0621  0.0702  0.1583
 1213W        W 2210   2.352   4.607   6.896  0.1492  0.1360 -0.1228
 1214W        W 2211   2.916   4.931   6.046  0.1821 -0.1841 -0.0364
 1215W        W 2212   7.048   0.177   4.799  0.1220  0.2928  0.1099
 1216W        W 2213   2.318   2.765   3.628 -0.1708 -0.0206  0.0262
 1217W        W 2214   5.409   3.501   7.199 -0.1896 -0.3210 -0.1272
 1218W        W 2215   5.980   2.716   4.068 -0.1577  0.3946 -0.0115
 1219W        W 2216   3.712   4.840   7.110 -0.1494 -0.1497  0.0213
 1220W        W 2217   6.851   3.295   6.847  0.2455 -0.0692  0.0658
 1221W        W 2218   6.021   2.221   1.691 -0.1329 -0.1187  0.3072
 1222W        W 2219   4.569   3.050   3.079 -0.1342 -0.1767  0.4065
 1223W        W 2220   5.392   3.210   0.632 -0.0355  0.1867  0.1284
 1224W        W 2221   3.261   3.197   7.130 -0.1727  0.2203  0.2118
 1225W        W 2222   3.934   4.299   2.050  0.0904 -0.1530  0.1794
 1226W        W 2223   3.977   5.735   7.078 -0.0898 -0.3045  0.1782
 1227W        W 2224   6.409   0.971   1.150 -0.1991  0.0805  0.0455
 1228W        W 2225   2.651   4.836   1.879  0.1526 -0.2384  0.1727
 1229W        W 2226   1.517   7.463   7.371 -0.1703 -0.0048 -0.2364
 1230W        W 2227   4.997   3.876   4.597 -0.0725  0.1586  0.1795
 1231W        W 2228   2.188   2.912   6.506  0.0476 -0.0608  0.0899
 1232W        W 2229   2.797   5.435   7.095  0.0263  0.0152 -0.1754
 1233W        W 2230   3.403   5.105   5.211 -0.1228  0.0783 -0.1385
 1234W        W 2231   4.606   2.659   6.783  0.2413 -0.2754 -0.2724
 1235W        W 2232   4.944   0.578   4.892  0.0335  0.0847 -0.0855
 1236W        W 2233   4.050   7.379   6.316 -0.0755  0.3088 -0.2126
 1237W        W 2234   7.458   6.656   5.508  0.0904  0.0919 -0.1324
 1238W        W 2235   4.958   4.758   0.387 -0.1033  0.1552  0.0807
 1239W        W 2236   1.994   4.773   1.566 -0.1085 -0.0587  0.2409
 1240W        W 2237   3.150   5.825   0.643 -0.0747 -0.0575 -0.1185
 1241W        W 2238   7.353   4.099   6.493  0.1095  0.1904  0.0627
 1242W        W 2239   5.237   7.428   5.194 -0.0769  0.0135 -0.1926
 1243W        W 2240   7.026   0.108   5.317 -0.2222 -0.0751 -0.2447
 1244W        W 2241   4.203   5.685   3.900 -0.1834  0.0895 -0.2369
 1245W        W 2242   0.357   7.467   5.505 -0.1464 -0.2904  0.3447
 1246W        W 2243   2.411   4.994   2.713 -0.1124  0.1883  0.2424
 1247W        W 2244   0.854   4.462   5.150  0.1645 -0.0383 -0.1000
 1248W        W 2245   3.424   0.667   7.232 -0.1832  0.0555  0.0099
 1249W        W 2246   2.594   3.212   6.318 -0.1895  0.3942 -0.1874
 1250W        W 2247   3.390   6.980   2.467  0.0784  0.1094  0.1881
 1251W        W 2248   2.737   5.684   5.411 -0.2849 -0.0159 -0.3012
 1252W        W 2249   6.602   1.172   2.863  0.2265 -0.0888  0.0326
 1253W        W 2250   1.106   2.979   1.902 -0.2591  0.1462 -0.1718
 1254W        W 2251   5.690   1.164   2.588  0.1646  0.1449  0.3138
 1255W        W 2252   7.462   6.180   2.646 -0.2279  0.0004  0.1394
 1256W        W 2253   2.298   6.190   0.854 -0.1411  0.2991 -0.0088
 1257W        W 2254   0.895   5.694   5.369  0.1351  0.1160  0.1459
 1258W        W 2255   0.801   4.004   7.460  0.1992  0.0647 -0.2402
 1259W        W 2256   4.716   0.234   5.825  0.1609 -0.1334  0.3012
 1260W        W 2257   7.484   2.341   3.221  0.0726  0.0194 -0.0225
 1261W        W 2258   3.263   5.453   3.347  0.1905  0.2843  0.1163
 1262W        W 2259   6.212   0.298   3.014 -0.0130 -0.4768  0.0837
 1263W        W 2260   3.231   7.031   6.532  0.0271  0.2468 -0.2499
 1264W        W 2261   4.075   3.128   6.114  0.2998  0.0946  0.1728
 1265W        W 2262   6.618   3.072   1.962  0.0660 -0.0959  0.2595
 1266W        W 2263   2.860   2.913   2.888 -0.2719  0.2376  0.0950
 1267W        W 2264   5.735   2.579   7.555  0.0729 -0.2915 -0.0065
 1268W        W 2265   2.167   2.225   4.740 -0.1828  0.1299 -0.0357
 1269W        W 2266   0.573   4.483   7.493  0.3101  0.0482  0.1115
 1270W        W 2267   5.312   5.672   6.896 -0.0847 -0.2012  0.0098
 1271W        W 2268   2.258   3.261   2.868 -0.1053 -0.1344 -0.0258
 1272W        W 2269   3.039   4.136   1.779  0.0536 -0.3531 -0.2480
 1273W        W 2270   7.354   3.153   6.642 -0.0354 -0.0125  0.0460
 1274W        W 2271   7.501   7.429   6.364 -0.1246  0.3298  0.2632
 1275W        W 2272   0.755   4.508   0.379  0.0244  0.1290 -0.1547
 1276W        W 2273   5.582   3.106   4.192  0.1562 -0.0009 -0.1235
 1277W        W 2274   1.761   4.258   5.143 -0.0919 -0.3188 -0.1888
 1278W        W 2275   5.851   1.566   2.980  0.0600 -0.0907  0.3622
 1279W        W 2276   6.041   2.820   6.821  0.3376  0.0265 -0.0177
 1280W        W 2277   3.521   0.803   4.434 -0.0489 -0.2970  0.0857
 1281W        W 2278   1.122   7.159   7.125  0.0125  0.1181 -0.0486
 1282W        W 2279   0.390   2.375   1.013 -0.0349 -0.2301  0.3699
 1283W        W 2280   0.862   6.159   5.584  0.2227 -0.2659 -0.0365
 1284W        W 2281   7.302   6.653   1.842  0.1823 -0.0556 -0.1472
 1285W        W 2282   3.145   7.043   4.792 -0.0110 -0.1868  0.3330
 1286W        W 2283   4.919   6.737   0.591 -0.0274  0.1104  0.2613
 1287W        W 2284   3.944   5.126   2.313 -0.3660 -0.0719 -0.1829
 1288W        W 2285   0.183   5.155   6.909  0.2300 -0.0708  0.7975
 1289W        W 2286   2.439   7.025   7.657 -0.0271  0.1171 -0.0460
 1290W        W 2287   0.037   3.506   4.807 -0.1252 -0.0465 -0.1711
 1291W        W 2288   0.200   4.199   4.183  0.3084 -0.2651 -0.1447
 1292W        W 2289   3.903   3.715   0.458  0.0450 -0.2305 -0.3588
 1293W        W 2290   4.770   1.873   6.178  0.1839 -0.0301  0.0266
 1294W        W 2291   0.279   3.538   3.549  0.2581 -0.0295  0.2557
 1295W        W 2292   3.459   6.988   7.043  0.1527 -0.1004  0.2397
 1296W        W 2293   4.787   6.226   1.849 -0.1733 -0.1617  0.0430
 1297W        W 2294   0.652   1.899   5.405 -0.2781 -0.0664 -0.1816
 1298W        W 2295   6.225   5.440   5.726 -0.0540 -0.2181  0.0681
 1299W        W 2296   5.185   6.077   5.162 -0.0942 -0.0301 -0.0964
 1300W        W 2297   2.237   1.946   2.279 -0.1676 -0.2736 -0.2611
 1301W        W 2298   5.680   2.888   4.632  0.0707 -0.1248 -0.3189
 1302W        W 2299   7.530   2.320   5.604 -0.1377 -0.4057 -0.0965
 1303W        W 2300   0.798   3.312   1.687  0.1713 -0.0455  0.0565
 1304W        W 2301   1.986   3.905   6.402 -0.2330  0.0827  0.0455
 1305W        W 2302   6.403   5.952   0.734 -0.0332 -0.1373 -0.1027
 1306W        W 2303   3.444   6.253   2.247  0.1371 -0.1074 -0.0593
 1307W        W 2304   4.508   7.258   1.534  0.1467 -0.0682  0.2856
 1308W        W 2305   0.673   7.025   1.391 -0.0531  0.5474 -0.0473
 1309W        W 2306   5.149   0.145   6.166  0.2370  0.3855 -0.0897
 1310W        W 2307   7.429   0.391   2.056  0.2558  0.1305 -0.2421
 1311W        W 2308   5.681   0.333   1.722  0.0779  0.0193  0.4475
 1312W        W 2309   5.544   6.789   3.351 -0.1556  0.1112 -0.0506
 1313W        W 2310   4.520   1.809   4.884 -0.0674 -0.1266  0.1519
 1314W        W 2311   2.489   2.280   3.168 -0.1953 -0.1322 -0.0917
 1315W        W 2312   1.158   4.500   1.247  0.0645  0.0088 -0.0713
 1316W        W 2313   0.591   6.517   4.958  0.1929  0.2913 -0.2210
 1317W        W 2314   2.912   3.366   0.392  0.0818 -0.0456 -0.1488
 1318W        W 2315   7.116   4.756   0.431  0.1593  0.0553  0.0678
 1319W        W 2316   4.321   7.211   4.123 -0.0510  0.4178  0.2603
 1320W        W 2317   1.720   2.581   6.583  0.1628 -0.0063  0.0765
 1321W        W 2318   4.883   0.870   6.207 -0.2627 -0.0858  0.0168
 1322W        W 2319   2.806   6.472   1.780  0.1766  0.1122 -0.3018
 1323W        W 2320   1.798   0.131   6.613  0.1310 -0.1087 -0.1608
 1324W        W 2321   7.270   5.562   3.238  0.1599  0.0975 -0.0214
 1325W        W 2322   3.119   6.958   4.256 -0.0608 -0.0808 -0.1024
 1326W        W 2323   2.742   0.131   4.385 -0.0046 -0.0844  0.0717
 1327W        W 2324   4.093   4.614   4.255 -0.1929 -0.0465 -0.2854
 1328W        W 2325   1.123   4.319   0.770 -0.1839 -0.0362 -0.6560
 1329W        W 2326   0.427   3.761   1.083  0.1580  0.0014  0.1402
 1330W        W 2327   0.918   5.778   6.374  0.0173 -0.0999 -0.2176
 1331W        W 2328   7.193   2.350   1.015 -0.1705  0.0043  0.1199
 1332W        W 2329   6.960   5.019   6.463  0.0375  0.0782 -0.2722
 1333W        W 2330   2.420   3.387   5.435 -0.3141  0.0120  0.0427
 1334W        W 2331   7.335   3.160   2.719 -0.0235  0.2161  0.1680
 1335W        W 2332   6.195   0.755   4.381  0.2673  0.1390 -0.1370
 1336W        W 2333   3.259   4.983   5.683  0.1983 -0.2836 -0.0808
 1337W        W 2334   1.632   3.998   5.736 -0.1134  0.1313 -0.2306
 1338W        W 2335   4.178   6.506   1.820 -0.1537  0.4132 -0.0171
 1339W        W 2336   5.269   7.601   0.532 -0.3337  0.5245  0.3453
 1340W        W 2337   4.912   4.079   0.598  0.0452 -0.1573  0.1348
 1341W        W 2338   6.432   3.256   6.195 -0.3201  0.0603 -0.1399
 1342W        W 2339   2.498   5.756   0.672 -0.2318 -0.0382 -0.0046
 1343W        W 2340   5.293   0.550   1.540  0.2581 -0.1655 -0.0727
 1344W        W 2341   3.792   4.829   5.403 -0.1993  0.0182 -0.1699
 1345W        W 2342   3.315   2.736   5.436 -0.0868 -0.1808  0.0657
 1346W        W 2343   2.401   5.267   5.478 -0.0648  0.0276  0.1832
 1347W        W 2344   5.010   1.043   4.888 -0.1006 -0.1084 -0.0848
 1348W        W 2345   7.510   0.945   2.553  0.2290 -0.0793 -0.4634
 1349W        W 2346   4.294   6.180   3.815 -0.2317  0.0474 -0.2060
 1350W        W 2347   5.303   1.383   7.068 -0.2101  0.1696 -0.0659
 1351W        W 2348   2.412   5.943   2.997 -0.3202  0.0593  0.0704
 1352W        W 2349   5.876   4.675   6.424 -0.1849  0.0291 -0.0871
 1353W        W 2350   5.207   5.883   1.149 -0.0463 -0.2496  0.0984
 1354W        W 2351   0.471   1.566   7.567  0.0595 -0.0274 -0.0093
 1355W        W 2352   2.026   5.782   0.886  0.1118  0.1433 -0.2744
 1356W        W 2353   0.069   5.461   7.387 -0.0710  0.0224  0.1093
 1357W        W 2354   4.872   3.847   5.218  0.3661 -0.4501 -0.4621
 1358W        W 2355   4.553   3.849   1.234 -0.2178 -0.0401  0.1361
 1359W        W 2356   1.484   5.286   0.859  0.1391  0.1676  0.2277
 1360W        W 2357   5.085   6.629   0.133 -0.0354 -0.0014  0.1125
 1361W        W 2358   4.915   4.195   2.951 -0.1700  0.1112 -0.1891
 1362W        W 2359   6.017   3.925   1.006  0.1818 -0.1993 -0.0807
 1363W        W 2360   3.984   3.043   4.653 -0.0739  0.1112 -0.2117
 1364W        W 2361   5.247   3.663   5.956 -0.0637  0.1648  0.0008
 1365W        W 2362   5.914   2.070   2.173  0.1607 -0.2616 -0.1092
 1366W        W 2363   2.844   3.145   5.910  0.3792  0.0929 -0.1264
 1367W        W 2364   2.590   2.920   0.264  0.1076  0.0390 -0.0129
 1368W        W 2365   3.044   3.002   6.350  0.0781 -0.1337  0.1543
 1369W        W 2366   5.887   2.636   2.022  0.0057 -0.0341 -0.2293
 1370W        W 2367   3.243   5.490   1.065 -0.1890  0.1365  0.2053
 1371W        W 2368   0.208   6.657   4.657 -0.0057 -0.2286  0.0559
 1372W        W 2369   4.950   1.272   3.246 -0.1381  0.1959  0.3411
 1373W        W 2370   7.204   2.836   7.586  0.1033  0.4145 -0.0606
 1374W        W 2371   0.195   0.734   5.404  0.1390  0.4323 -0.0186
 1375W        W 2372   3.057   6.525   2.535  0.1081 -0.2374 -0.2279
 1376W        W 2373   5.406   4.456   0.106 -0.1870 -0.2962  0.1240
 1377W        W 2374   2.943   2.574   0.253 -0.1781 -0.1283 -0.0481
 1378W        W 2375   4.870   5.904   6.614 -0.0753  0.1469  0.0232
 1379W        W 2376   4.736   4.330   4.815  0.0317  0.0406 -0.2553
 1380W        W 2377   1.645   2.340   2.450 -0.1829  0.0177 -0.0854
 1381W        W 2378   7.216   4.642   4.567 -0.0187  0.2969 -0.1598
 1382W        W 2379   6.658   3.641   5.478 -0.0060  0.1414  0.0024
 1383W        W 2380   3.820   0.529   0.437 -0.1701 -0.0813  0.0299
 1384W        W 2381   0.520   6.239   2.130 -0.1265  0.0381  0.3972
 1385W        W 2382   0.993   6.724   6.454  0.1997 -0.0283  0.1169
 1386W        W 2383   0.048   1.606   3.885 -0.1724  0.0402  0.2499
 1387W        W 2384   4.343   0.454   0.525  0.1985  0.2624  0.0499
 1388W        W 2385   1.866   6.881   0.643  0.1393 -0.2952 -0.0397
 1389W        W 2386   6.123   5.222   0.263  0.1157  0.0204 -0.1609
 1390W        W 2387   3.083   5.664   1.962 -0.0569  0.0472 -0.0343
 1391W        W 2388   0.258   5.728   0.467  0.3057  0.1808  0.1256
 1392W        W 2389   6.747   4.402   3.265  0.1136  0.1441 -0.0332
 1393W        W 2390   4.909   6.296   2.762 -0.1287 -0.0845 -0.0275
 1394W        W 2391   0.992   3.321   3.825  0.3103  0.0078  0.0122
 1395W        W 2392   0.670   4.270   1.600  0.1085 -0.2900  0.1096
 1396W        W 2393   4.123   6.887   4.967  0.1304 -0.1282  0.2281
 1397W        W 2394   1.462   3.846   2.072  0.1231  0.2373  0.0707
 1398W        W 2395   6.581   6.599   0.547  0.0955  0.1763 -0.3018
 1399W        W 2396   3.739   6.937   6.316  0.1002  0.1308  0.0438
 1400W        W 2397   3.151   4.500   5.905 -0.2754 -0.2448 -0.0943
 1401W        W 2398   3.085   5.788   4.641  0.0601 -0.2783  0.0891
 1402W        W 2399   4.480   5.573   0.384 -0.0560  0.2652 -0.0003
 1403W        W 2400   5.232   3.239   3.756  0.1530 -0.0663  0.0830
 1404W        W 2401   4.792   6.370   3.973  0.1030  0.2505 -0.0162
 1405W        W 2402   0.069   5.111   3.946  0.0610  0.0961  0.0157
 1406W        W 2403   0.985   6.604   5.386  0.0728 -0.3941 -0.1211
 1407W        W 2404   1.647   4.659   5.466 -0.3946 -0.0037 -0.1325
 1408W        W 2405   7.304   3.949   3.205 -0.0531 -0.0530  0.2085
 1409W        W 2406   3.651   4.682   7.545 -0.2514  0.0716  0.0392
 1410W        W 2407   4.741   1.111   2.158  0.2889 -0.0253  0.0044
 1411W        W 2408   3.043   3.174   3.255  0.1417 -0.1101 -0.0276
 1412W        W 2409   6.209   3.911   5.505 -0.2385  0.1926 -0.0821
 1413W        W 2410   5.179   4.749   5.350  0.0150  0.1564  0.0818
 1414W        W 2411   2.764   4.369   2.286  0.2427 -0.1692 -0.2088
 1415W        W 2412   1.466   5.882   5.853 -0.0549 -0.4254  0.3750
 1416W        W 2413   6.970   4.959   2.537  0.2337  0.1809 -0.0290
 1417W        W 2414   6.202   3.494   5.820  0.1911 -0.0510 -0.0699
 1418W        W 2415   4.455   3.580   7.277  0.2834  0.3401 -0.0661
 1419W        W 2416   1.473   2.698   7.034 -0.1140  0.1302 -0.0025
 1420W        W 2417   3.781   5.024   1.192  0.1878 -0.3547 -0.1311
 1421W        W 2418   6.974   6.631   5.615  0.0755  0.0156  0.1031
 1422W        W 2419   0.493   4.700   6.947 -0.2917  0.1729  0.2842
 1423W        W 2420   6.509   2.204   1.814  0.0573 -0.0164 -0.0237
 1424W        W 2421   6.509   2.502   6.490 -0.2360 -0.0889 -0.1227
 1425W        W 2422   3.920   4.498   1.595 -0.2219  0.1539  0.0987
 1426W        W 2423   3.261   4.264   2.314  0.0189 -0.2123 -0.0401
 1427W        W 2424   4.617   5.079   4.357 -0.2694 -0.0692 -0.1630
 1428W        W 2425   4.533   6.304   6.534 -0.4867  0.2347  0.1578
 1429W        W 2426   4.282   6.861   2.148  0.0133  0.2218  0.3936
 1430W        W 2427   4.739   0.937   6.699  0.0611 -0.1676  0.0435
 1431W        W 2428   6.147   0.269   0.278 -0.1444  0.0666  0.0939
 1432W        W 2429   7.165   5.557   4.699 -0.1548  0.0113 -0.0713
 1433W        W 2430   1.796   2.978   6.219 -0.1394 -0.2610 -0.1750
 1434W        W 2431   0.006   3.551   5.319  0.1892  0.1679  0.2244
 1435W        W 2432   6.903   1.025   2.039  0.0253 -0.1384  0.0931
 1436W        W 2433   1.414   2.530   4.495 -0.0689  0.0088  0.0294
 1437W        W 2434   5.337   7.069   7.451 -0.0554 -0.0371 -0.1285
 1438W        W 2435   6.187   4.887   3.933 -0.1746  0.2748 -0.2262
 1439W        W 2436   1.167   6.382   2.473 -0.0337  0.0404 -0.0162
 1440W        W 2437   4.151   5.592   4.714 -0.1474 -0.0237  0.1181
 1441W        W 2438   6.264   3.682   7.187  0.0660  0.3393  0.1730
 1442W        W 2439   3.935   6.760   5.371 -0.1046 -0.1113  0.1443
 1443W        W 2440   7.406   4.765   2.488 -0.0897  0.2268  0.0756
 1444W        W 2441   6.818   3.810   2.545  0.1833  0.0758 -0.2754
 1445W        W 2442   5.451   1.415   3.269 -0.1490 -0.0316  0.0948
 1446W        W 2443   4.947   1.378   4.247 -0.1181  0.1847 -0.1183
 1447W        W 2444   0.142   3.429   6.446 -0.0128  0.0119  0.1846
 1448W        W 2445   7.465   6.613   4.222  0.1280 -0.1132  0.1274
 1449W        W 2446   0.872   2.407   5.863 -0.0035 -0.2421  0.3823
 1450W        W 2447   0.196   6.708   1.774  0.1634  0.1466 -0.2257
 1451W        W 2448   7.461   4.309   1.077 -0.2594  0.0170 -0.0447
 1452W        W 2449   0.093   3.474   5.783 -0.2942  0.1002 -0.0752
 1453W        W 2450   1.631   2.732   2.937  0.2317  0.2398 -0.1884
 1454W        W 2451   4.729   4.647   3.847 -0.1171 -0.1076 -0.3016
 1455W        W 2452   6.946   4.900   7.075 -0.3745  0.2265 -0.1456
 1456W        W 2453   7.227   0.191   5.767  0.2128  0.0439 -0.3011
 1457W        W 2454   5.919   4.415   1.935  0.1276 -0.1165  0.1108
 1458W        W 2455   5.623   2.320   5.674  0.1089  0.1912 -0.0235
 1459W        W 2456   6.419   1.186   3.311 -0.0265 -0.0793  0.0180
 1460W        W 2457   4.666   2.632   5.333  0.0338  0.1249 -0.1603
 1461W        W 2458   6.227   0.429   7.249 -0.0150 -0.0141  0.0953
 1462W        W 2459   3.883   6.481   3.777 -0.2993 -0.0215  0.1449
 1463W        W 2460   4.762   6.216   3.495 -0.1411  0.2672 -0.1918
 1464W        W 2461   2.213   4.469   0.926 -0.2826  0.2161 -0.0545
 1465W        W 2462   4.834   0.271   3.004 -0.0514  0.2511 -0.0440
 1466W        W 2463   7.572   6.746   3.679  0.0321  0.2787  0.1297
 1467W        W 2464   6.407   5.896   1.244  0.1565  0.1877 -0.0147
 1468W        W 2465   5.434   3.476   2.461  0.2372  0.2438 -0.1186
 1469W        W 2466   2.833   3.249   1.958 -0.0852  0.0471 -0.0243
 1470W        W 2467   0.595   7.112   0.564 -0.1018  0.0787  0.1140
 1471W        W 2468   6.808   7.155   1.823  0.0437 -0.1461  0.0640
 1472W        W 2469   3.428   3.925   1.962 -0.0361  0.1692  0.2476
 1473W        W 2470   2.649   4.749   0.159 -0.1900 -0.0334 -0.1190
 1474W        W 2471   1.360   6.064   6.336  0.2099  0.2474  0.1815
 1475W        W 2472   0.005   0.202   3.568  0.2837 -0.0789 -0.2494
 1476W        W 2473   1.975   5.888   2.038 -0.5045 -0.0114  0.1292
 1477W        W 2474   4.045   3.452   4.343 -0.0495 -0.1838 -0.0097
 1478W        W 2475   3.760   5.355   5.614  0.2782 -0.1054 -0.0293
 1479W        W 2476   1.434   4.533   6.892  0.2098  0.0252  0.3129
 1480W        W 2477   0.537   2.454   2.016 -0.0345  0.0895 -0.1506
 1481W        W 2478   5.738   0.413   3.206 -0.0957  0.0334 -0.3086
 1482W        W 2479   7.068   6.455   2.989 -0.1185 -0.0864 -0.1570
 1483W        W 2480   5.316   2.769   5.899  0.4433 -0.0062 -0.1368
 1484W        W 2481   6.038   6.987   1.360  0.1910 -0.2441 -0.0506
 1485W        W 2482   4.938   3.457   2.271 -0.1057  0.0337 -0.1383
 1486W        W 2483   0.792   4.721   0.890 -0.1539 -0.1371  0.1240
 1487W        W 2484   4.724   3.468   4.034 -0.0341 -0.1419  0.0221
 1488W        W 2485   4.865   1.627   0.390 -0.1970 -0.0177 -0.0484
 1489W        W 2486   0.228   0.273   5.662  0.1234  0.2346  0.0487
 1490W        W 2487   5.924   0.764   6.394 -0.0024  0.0815  0.1571
 1491W        W 2488   2.027   4.675   5.007  0.0398 -0.1121  0.1433
 1492W        W 2489   1.979   2.902   3.229  0.1218 -0.4081  0.1896
 1493W        W 2490   3.159   2.794   3.540 -0.0719 -0.0739  0.0240
 1494W        W 2491   5.701   4.276   0.886  0.1702 -0.0508  0.1691
 1495W        W 2492   7.323   0.556   4.753 -0.1556  0.0457 -0.0374
 1496W        W 2493   7.516   2.018   0.628 -0.4525  0.1067  0.2158
 1497W        W 2494   6.258   0.162   0.782  0.2564  0.1254 -0.0409
 1498W        W 2495   6.390   1.363   5.713  0.0646 -0.2849 -0.0845
 1499W        W 2496   5.262   1.291   0.379  0.0216 -0.0912  0.3983
 1500W        W 2497   5.822   3.980   3.413  0.0002  0.1246  0.1980
 1501W        W 2498   3.178   0.436   2.437  0.0933  0.0567 -0.1933
 1502W        W 2499   6.825   6.612   5.127  0.1231  0.2424  0.2768
 1503W        W 2500   0.967   1.469   7.491  0.3031  0.1727  0.3384
 1504W        W 2501   2.194   5.442   4.124 -0.2908  0.6378 -0.2725
 1505W        W 2502   5.597   2.347   6.163  0.0851 -0.0653  0.1315
 1506W        W 2503   5.688   1.310   6.263  0.2199 -0.3336 -0.2990
 1507W        W 2504   1.769   3.249   2.860  0.3197  0.0060 -0.1260
 1508W        W 2505   5.149   3.845   4.125 -0.1358 -0.2819  0.0769
 1509W        W 2506   3.740   6.209   5.275  0.2921 -0.0688 -0.0480
 1510W        W 2507   7.182   0.011   6.889 -0.2551 -0.0133  0.0452
 1511W        W 2508   5.523   6.220   0.881 -0.2429  0.2263  0.0192
 1512W        W 2509   4.344   2.337   4.970  0.1561  0.0659 -0.0789
 1513W        W 2510   7.563   5.600   5.978 -0.3024 -0.0895  0.1878
 1514W        W 2511   3.331   4.122   6.261 -0.0489 -0.1346  0.0040
 1515W        W 2512   3.606   0.384   7.604  0.2803 -0.1611 -0.4032
 1516W        W 2513   7.548   3.908   0.246 -0.0871 -0.1577  0.2763
 1517W        W 2514   1.638   4.384   0.820 -0.1723 -0.2289  0.0609
 1518W        W 2515   0.849   2.262   0.707  0.1557 -0.2365 -0.0038
 1519W        W 2516   4.857   5.213   0.356  0.1612 -0.0253 -0.0378
 1520W        W 2517   1.755   7.260   6.590  0.2573  0.0107 -0.1898
 1521W        W 2518   6.847   3.816   0.812  0.2466  0.3802 -0.1077
 1522W        W 2519   4.530   7.335   1.042 -0.0400  0.0524 -0.1515
 1523W        W 2520   7.370   5.871   2.248 -0.2067  0.0907 -0.0686
 1524W        W 2521   4.339   5.375   3.309 -0.0179 -0.1394 -0.1409
 1525W        W 2522   3.079   4.850   4.943  0.4832  0.4712 -0.2902
 1526W        W 2523   5.396   5.093   4.330  0.2622 -0.1790  0.2268
 1527W        W 2524   4.924   0.374   3.911 -0.1346  0.0962 -0.1129
 1528W        W 2525   1.013   6.473   0.578  0.1600 -0.0111 -0.0635
 1529W        W 2526   6.887   4.997   4.392  0.2966 -0.2964  0.0673
 1530W        W 2527   0.155   5.877   7.062 -0.0681  0.1163  0.0143
 1531W        W 2528   3.999   5.396   0.311 -0.0796 -0.2397  0.0938
 1532W        W 2529   5.985   0.478   4.852 -0.0474  0.0645  0.0920
 1533W        W 2530   3.342   1.667   3.038 -0.2715  0.2790  0.1137
 1534W        W 2531   5.871   1.329   1.649  0.1955 -0.0073  0.2013
 1535W        W 2532   6.005   6.970   4.150 -0.0674  0.1528 -0.0776
 1536W        W 2533   6.555   5.903   7.484 -0.0995  0.0584 -0.3314
 1537W        W 2534   3.246   6.859   6.020 -0.1541 -0.3155  0.1427
 1538W        W 2535   7.321   2.371   1.621  0.0599  0.1704  0.0590
 1539W        W 2536   0.917   6.718   7.435 -0.0438  0.2080  0.0136
 1540W        W 2537   7.305   6.003   0.475  0.1456 -0.1159 -0.0607
 1541W        W 2538   7.016   2.116   3.260  0.1328  0.0687  0.1853
 1542W        W 2539   6.463   4.380   5.011 -0.1000  0.1113  0.0602
 1543W        W 2540   7.449   3.204   6.090 -0.0551 -0.2550  0.1786
 1544W        W 2541   0.888   1.777   6.482 -0.1791 -0.0055 -0.0804
 1545W        W 2542   4.966   3.431   7.452 -0.2257 -0.2574 -0.2765
 1546W        W 2543   2.177   6.299   6.606 -0.0527 -0.1298 -0.1689
 1547W        W 2544   6.960   3.500   2.055  0.0310 -0.0125  0.1062
 1548W        W 2545   3.713   2.860   5.741 -0.1256  0.0333 -0.1150
 1549W        W 2546   5.470   0.930   5.645 -0.1670 -0.0454  0.1535
 1550W        W 2547   0.458   5.013   6.507  0.1675 -0.0587 -0.1282
 1551W        W 2548   4.302   4.955   3.921 -0.2728  0.0143  0.5278
 1552W        W 2549   7.041   1.438   7.554 -0.1942 -0.0856 -0.0082
 1553W        W 2550   7.311   5.707   4.263 -0.0556 -0.4095  0.3868
 1554W        W 2551   2.310   4.371   6.464 -0.0095  0.1249 -0.0024
 1555W        W 2552   7.211   3.335   7.587  0.4022  0.0850  0.1934
 1556W        W 2553   0.980   4.715   1.799 -0.0806 -0.0173 -0.1658
 1557W        W 2554   6.759   2.020   0.995  0.0912  0.3018 -0.0198
 1558W        W 2555   4.822   4.214   1.444  0.0161  0.0941  0.0174
 1559W        W 2556   6.216   5.782   0.268  0.0188 -0.4387 -0.0061
 1560W        W 2557   6.135   1.180   7.304  0.1450 -0.2333 -0.2145
 1561W        W 2558   1.150   5.463   7.126 -0.2877  0.0846  0.1648
 1562W        W 2559   3.400   0.787   3.290  0.0616  0.0149 -0.2344
 1563W        W 2560   4.443   4.151   5.172 -0.0384  0.0001 -0.0788
 1564W        W 2561   5.587   2.005   3.123  0.2889  0.0175 -0.2625
 1565W        W 2562   4.636   1.596   7.558  0.1216  0.0641 -0.0130
 1566W        W 2563   4.558   6.725   2.676 -0.0523  0.1896  0.2087
 1567W        W 2564   7.091   5.178   6.046  0.0038  0.1977 -0.2629
 1568W        W 2565   5.371   6.423   2.438 -0.2139  0.0646  0.5715
 1569W        W 2566   7.173   5.413   2.504 -0.2869 -0.1579 -0.0687
 1570W        W 2567   6.716   1.693   3.852 -0.1029 -0.0572  0.1860
 1571W        W 2568   3.258   4.813   2.531  0.0070  0.0514  0.1504
 1572W        W 2569   7.442   4.195   1.587  0.0839  0.0079  0.2718
 1573W        W 2570   4.093   1.362   4.599 -0.2926 -0.0668  0.0754
 1574W        W 2571   6.294   2.383   2.205  0.2565 -0.2034  0.0010
 1575W        W 2572   5.424   5.137   1.339  0.0332 -0.1446 -0.1840
 1576W        W 2573   0.122   6.551   5.854  0.0511 -0.0493  0.3061
 1577W        W 2574   7.051   2.303   5.305 -0.0515  0.0455  0.1776
 1578W        W 2575   7.324   7.432   4.887 -0.1277 -0.1339  0.2511
 1579W        W 2576   3.139   5.263   4.723  0.0850  0.0781  0.2243
 1580W        W 2577   6.548   0.543   4.104 -0.1763  0.1751 -0.1150
 1581W        W 2578   4.196   5.439   0.790 -0.1498  0.1840  0.1139
 1582W        W 2579   5.083   7.403   2.122 -0.2003  0.1303 -0.0660
 1583W        W 2580   6.888   7.317   6.734 -0.0426  0.1804 -0.1216
 1584W        W 2581   4.792   0.698   0.760 -0.0166  0.0436  0.0719
 1585W        W 2582   3.123   5.061   1.814 -0.1147 -0.1086 -0.2330
 1586W        W 2583   4.716   5.887   3.992 -0.1899  0.0707 -0.1254
 1587W        W 2584   3.306   7.621   7.600 -0.1099  0.3175 -0.0231
 1588W        W 2585   6.677   5.452   1.055  0.0610 -0.0375  0.1889
 1589W        W 2586   4.419   5.043   0.590  0.1552 -0.2088 -0.0708
 1590W        W 2587   5.218   7.111   0.341 -0.1067 -0.1016 -0.0030
 1591W        W 2588   6.487   5.277   3.370 -0.3501  0.1712 -0.0511
 1592W        W 2589   2.491   3.790   6.507 -0.0655 -0.1215 -0.1737
 1593W        W 2590   7.266   6.449   5.985 -0.0875  0.1398 -0.1191
 1594W        W 2591   4.169   4.436   7.642 -0.0488 -0.1348  0.1986
 1595W        W 2592   6.012   1.881   4.505 -0.0551  0.2688 -0.1320
 1596W        W 2593   6.489   4.143   1.151  0.1540 -0.3066  0.6329
 1597W        W 2594   7.006   0.567   0.685  0.2364  0.1405 -0.1901
 1598W        W 2595   0.045   3.592   0.705 -0.0683 -0.1426 -0.1956
 1599W        W 2596   6.446   1.719   6.103  0.0452  0.2483  0.1898
 1600W        W 2597   5.311   0.428   3.531 -0.1822  0.0666  0.0171
 1601W        W 2598   6.692   5.578   2.390  0.1951  0.1544 -0.1762
 1602W        W 2599   0.648   4.665   1.333  0.0588  0.1431 -0.0656
 1603W        W 2600   7.273   7.156   4.398  0.0310  0.1529  0.0968
 1604W        W 2601   2.399   2.716   2.972  0.0042 -0.0711  0.0674
 1605W        W 2602   5.311   5.424   7.308  0.0357 -0.1984 -0.0442
 1606W        W 2603   4.632   7.646   3.949 -0.0095 -0.1107 -0.2573
 1607W        W 2604   3.632   4.814   6.596  0.1493  0.0829 -0.0034
 1608W        W 2605   4.389   7.026   6.235  0.0706  0.1305  0.0315
 1609W        W 2606   1.114   0.049   5.980 -0.0120  0.0078 -0.0581
 1610W        W 2607   5.422   0.819   2.380  0.2164 -0.0720 -0.0128
 1611W        W 2608   4.363   7.433   3.600 -0.0761 -0.2323  0.1995
 1612W        W 2609   5.726   0.618   4.444  0.0618  0.0637 -0.1052
 1613W        W 2610   4.621   4.984   3.465 -0.0561  0.0011  0.1670
 1614W        W 2611   4.496   6.924   4.620 -0.1734  0.0636  0.1700
 1615W        W 2612   5.640   1.790   1.826  0.1307  0.2123  0.1763
 1616W        W 2613   3.989   0.184   5.429 -0.0667  0.3250  0.1513
 1617W        W 2614   2.604   4.365   1.705  0.5289 -0.0205 -0.0312
 1618W        W 2615   6.879   4.181   6.102 -0.1362 -0.1083 -0.1812
 1619W        W 2616   0.449   3.601   3.027  0.1788  0.2544 -0.1732
 1620W        W 2617   7.140   1.327   5.564 -0.0527 -0.0585 -0.1278
 1621W        W 2618   7.211   1.687   4.322  0.3108  0.0560  0.1785
 1622W        W 2619   4.484   3.328   6.430 -0.2350 -0.1115  0.0802
 1623W        W 2620   3.742   6.501   4.784 -0.0610 -0.0190 -0.0554
 1624W        W 2621   3.096   7.032   3.748  0.0219  0.0411 -0.5239
 1625W        W 2622   2.870   0.038   2.627  0.0546  0.1015  0.2580
 1626W        W 2623   6.616   7.113   1.192 -0.0112 -0.0422  0.0192
 1627W        W 2624   6.141   3.700   6.315 -0.3555  0.2740  0.3238
 1628W        W 2625   0.791   7.021   5.162 -0.0305 -0.3710  0.2811
 1629W        W 2626   4.286   7.544   5.864 -0.0447 -0.0243 -0.0926
 1630W        W 2627   3.922   7.168   7.109 -0.1537 -0.2755  0.0404
 1631W        W 2628   5.568   3.526   3.468  0.0898  0.0340 -0.0640
 1632W        W 2629   2.930   5.507   6.243  0.2939 -0.1276  0.2802
 1633W        W 2630   0.101   0.678   7.155  0.0440  0.0212 -0.0501
 1634W        W 2631   2.209   5.967   6.248 -0.2325  0.0562  0.0508
 1635W        W 2632   0.256   0.973   6.393 -0.2943 -0.0855  0.2200
 1636W        W 2633   5.037   6.921   3.306  0.1485 -0.2326  0.1653
 1637W        W 2634   7.340   4.942   3.019 -0.2719 -0.0887 -0.0797
 1638W        W 2635   2.357   4.726   5.383  0.0659  0.0949 -0.0405
 1639W        W 2636   4.208   5.253   1.298  0.1813  0.1796 -0.5266
 1640W        W 2637   0.164   2.345   6.556  0.2600  0.0755  0.1678
 1641W        W 2638   6.608   1.609   0.122 -0.2297 -0.1897  0.0826
 1642W        W 2639   5.507   1.918   0.953  0.1902  0.1839 -0.2110
 1643W        W 2640   7.621   2.511   7.415  0.1950  0.0490 -0.1636
 1644W        W 2641   1.431   1.819   5.049 -0.0353 -0.1048  0.2640
 1645W        W 2642   0.069   1.480   3.371 -0.3052 -0.0050 -0.0822
 1646W        W 2643   0.481   2.742   2.464 -0.0737  0.0926  0.4430
 1647W        W 2644   3.022   6.247   0.990 -0.0120 -0.2085 -0.1631
 1648W        W 2645   4.479   2.182   4.484 -0.2737 -0.2554 -0.1058
 1649W        W 2646   1.269   5.485   5.613 -0.2778  0.1585 -0.2964
 1650W        W 2647   4.837   5.514   3.226  0.1975 -0.1481 -0.0771
 1651W        W 2648   5.938   3.463   2.572  0.3440 -0.2467 -0.3009
 1652W        W 2649   5.743   6.413   3.104  0.1915 -0.3734  0.1835
 1653W        W 2650   7.170   2.386   7.195 -0.1479  0.1634  0.1922
 1654W        W 2651   1.284   2.536   5.506 -0.1807 -0.3998  0.0354
 1655W        W 2652   0.167   0.854   0.508 -0.0582 -0.0195 -0.0849
 1656W        W 2653   3.739   7.646   0.408  0.2292  0.2578 -0.0949
 1657W        W 2654   0.053   3.068   0.565  0.0815  0.3062 -0.1621
 1658W        W 2655   1.402   5.012   6.910  0.0921 -0.0174 -0.3644
 1659W        W 2656   0.412   5.337   0.111 -0.0419  0.2839 -0.5210
 1660W        W 2657   6.428   1.684   4.811  0.2393  0.0267  0.2449
 1661W        W 2658   5.343   4.305   1.808  0.2595 -0.1531  0.0118
 1662W        W 2659   4.142   2.846   0.512  0.1770 -0.0902 -0.2190
 1663W        W 2660   1.453   4.673   7.357 -0.5953 -0.1958 -0.0287
 1664W        W 2661   0.970   2.271   2.228 -0.3299  0.4125 -0.2777
 1665W        W 2662   7.629   3.419   0.177 -0.2661 -0.0739  0.0152
 1666W        W 2663   6.886   0.971   3.287 -0.1591  0.0549  0.3580
 1667W        W 2664   2.332   1.540   2.525  0.2660  0.0083  0.0116
 1668W        W 2665   4.987   1.723   5.583 -0.0564 -0.1358 -0.1448
 1669W        W 2666   5.688   3.198   2.149  0.1599  0.0463 -0.0172
 1670W        W 2667   5.466   4.156   2.746  0.1152 -0.0419 -0.0588
 1671W        W 2668   2.846   4.240   3.156 -0.0814  0.2662 -0.1718
 1672W        W 2669   3.094   1.111   4.446  0.0342 -0.1456 -0.1090
 1673W        W 2670   0.328   2.845   1.173  0.1460  0.0244  0.0182
 1674W        W 2671   1.831   4.779   6.716  0.1055 -0.4156  0.0908
 1675W        W 2672   3.909   7.128   0.305  0.2235  0.1424 -0.2197
 1676W        W 2673   7.079   7.294   0.832  0.3319  0.1600  0.3211
 1677W        W 2674   4.450   1.707   4.399  0.2017  0.0903 -0.2810
 1678W        W 2675   6.569   4.312   2.419 -0.0948 -0.1373 -0.2513
 1679W        W 2676   6.907   4.863   3.234 -0.0781 -0.2608 -0.0633
 1680W        W 2677   5.010   7.342   1.503 -0.2933  0.0382  0.2011
 1681W        W 2678   2.987   6.926   5.316  0.2076 -0.1586 -0.0804
 1682W        W 2679   4.421   3.248   4.856  0.0428  0.1922  0.1210
 1683W        W 2680   1.654   2.652   3.509 -0.2151  0.2061  0.0760
 1684W        W 2681   0.998   2.749   2.376 -0.0137  0.0594 -0.0539
 1685W        W 2682   2.606   5.846   4.474  0.0093 -0.0047  0.6145
 1686W        W 2683   7.648   2.724   2.460 -0.0123  0.2995 -0.0433
 1687W        W 2684   5.924   4.636   7.222 -0.1154 -0.1267 -0.4458
 1688W        W 2685   4.105   0.986   2.876  0.1806 -0.0603 -0.1649
 1689W        W 2686   0.546   5.674   0.919  0.1570  0.1217  0.0254
 1690W        W 2687   7.577   3.641   7.345  0.0504 -0.0010  0.0104
 1691W        W 2688   3.360   6.539   3.091 -0.1170  0.0137  0.0287
 1692W        W 2689   4.721   0.071   1.408 -0.0781  0.0282 -0.0261
 1693W        W 2690   6.565   0.509   1.530 -0.1231  0.0570 -0.0600
 1694W        W 2691   4.298   7.119   0.674 -0.5189 -0.2013 -0.1662
 1695W        W 2692   7.018   2.929   4.440  0.2855 -0.0849 -0.0616
 1696W        W 2693   3.464   6.445   6.250  0.2873 -0.1491  0.1413
 1697W        W 2694   1.872   6.506   4.741  0.4092 -0.1673 -0.0049
 1698W        W 2695   2.386   5.428   2.970 -0.0091  0.2621 -0.2434
 1699W        W 2696   6.193   7.590   6.976 -0.1360  0.1026  0.1114
 1700W        W 2697   2.827   2.852   0.709 -0.1673  0.4843  0.2622
 1701W        W 2698   4.200   7.548   1.859  0.1562 -0.0580 -0.1702
 1702W        W 2699   2.465   2.709   7.493  0.0980  0.1289  0.0900
 1703W        W 2700   4.282   3.770   3.941 -0.1505 -0.3662 -0.3297
 1704W        W 2701   4.835   0.649   0.225  0.2798 -0.0280 -0.0752
 1705W        W 2702   5.857   4.278   0.007  0.0217 -0.1417  0.0062
 1706W        W 2703   6.017   2.279   3.037 -0.2023  0.1676  0.1471
 1707W        W 2704   3.138   3.356   7.605 -0.0546 -0.2291 -0.1981
 1708W        W 2705   3.196   7.359   5.214 -0.4441  0.2918 -0.0070
 1709W        W 2706   0.134   1.763   7.289 -0.0242  0.0595  0.0725
 1710W        W 2707   1.351   3.023   0.426  0.1474 -0.2293  0.0795
 1711W        W 2708   0.195   4.193   1.872  0.1256  0.3577  0.0374
 1712W        W 2709   0.156   3.382   6.951 -0.2594  0.0221 -0.5241
 1713W        W 2710   5.846   0.527   5.658 -0.1465  0.0383  0.6003
 1714W        W 2711   0.098   4.350   3.267 -0.0967 -0.0033 -0.1558
 1715W        W 2712   5.761   1.391   4.541  0.0457  0.0749 -0.0346
 1716W        W 2713   4.941   2.619   2.993 -0.2197 -0.1848  0.1113
 1717W        W 2714   3.820   0.906   5.853 -0.0657 -0.0273  0.1930
 1718W        W 2715   6.384   4.565   6.104 -0.1391  0.2231  0.0965
 1719W        W 2716   1.008   1.042   6.970  0.0219 -0.0837  0.1122
 1720W        W 2717   3.962   5.225   6.354  0.1561 -0.0955 -0.0942
 1721W        W 2718   3.423   3.964   1.430  0.0858  0.1245  0.3167
 1722W        W 2719   1.304   4.786   0.740 -0.1758 -0.1745 -0.2961
 1723W        W 2720   5.395   5.581   4.543 -0.2383  0.1227  0.0522
 1724W        W 2721   5.675   4.584   5.204  0.0208 -0.0260 -0.2345
 1725W        W 2722   3.095   0.718   4.162 -0.2713  0.0162 -0.1243
 1726W        W 2723   0.782   5.597   0.453  0.0537  0.0797  0.1353
 1727W        W 2724   5.666   6.326   3.602  0.0083  0.2356  0.1079
 1728W        W 2725   0.827   3.037   1.309 -0.0657  0.0899 -0.0621
 1729W        W 2726   7.073   2.724   5.686  0.0037 -0.0294  0.0355
 1730W        W 2727   7.075   1.837   6.164  0.0594 -0.0452 -0.0942
 1731W        W 2728   7.510   1.091   3.114  0.1555  0.1990  0.0587
 1732W        W 2729   6.906   5.535   3.579 -0.0386 -0.0142 -0.0430
 1733W        W 2730   7.480   4.769   7.247 -0.2926  0.0527  0.1879
 1734W        W 2731   6.605   2.500   5.779 -0.1308 -0.0471 -0.0222
 1735W        W 2732   5.094   3.196   7.002 -0.1092  0.0926  0.1642
 1736W        W 2733   7.204   2.317   0.081  0.1737  0.0494  0.2454
 1737W        W 2734   1.344   5.028   0.268 -0.0721 -0.2142  0.2472
 1738W        W 2735   5.560   1.985   2.548  0.0174 -0.1879  0.1302
 1739W        W 2736   0.340   7.611   1.082  0.3649 -0.1667 -0.0064
 1740W        W 2737   5.760   0.501   2.238  0.0481  0.1415 -0.1626
 1741W        W 2738   5.503   4.529   3.322  0.1113  0.1098  0.3172
 1742W        W 2739   6.078   5.452   6.743  0.0904  0.2553 -0.2310
 1743W        W 2740   6.310   2.924   3.720 -0.1393  0.1707 -0.3713
 1744W        W 2741   4.969   3.175   6.004 -0.3680  0.0478 -0.2280
 1745W        W 2742   5.986   1.664   5.868 -0.2098  0.0539 -0.1165
 1746W        W 2743   4.314   4.682   7.190  0.1127  0.1364 -0.0128
 1747W        W 2744   1.348   3.276   5.099  0.3965  0.0889 -0.1434
 1748W        W 2745   6.371   3.333   1.424 -0.1338  0.2002 -0.0121
 1749W        W 2746   7.097   6.992   2.129  0.1139 -0.1067 -0.3136
 1750W        W 2747   3.933   5.609   2.050  0.1664 -0.0223  0.0006
 1751W        W 2748   0.641   3.067   2.124  0.0633 -0.1002 -0.1043
 1752W        W 2749   5.681   4.243   5.532 -0.1355 -0.0352  0.0052
 1753W        W 2750   2.187   3.316   3.766 -0.2043  0.2831  0.1240
 1754W        W 2751   1.998   5.288   6.111 -0.2206  0.1370  0.0160
 1755W        W 2752   2.894   6.304   3.162  0.2165 -0.2405 -0.1057
 1756W        W 2753   0.891   5.068   0.469 -0.0731  0.0670  0.1075
 1757W        W 2754   7.595   1.228   5.129 -0.1541 -0.0272 -0.0199
 1758W        W 2755   2.280   5.501   2.078 -0.0459 -0.0805  0.1216
 1759W        W 2756   0.036   6.091   7.489  0.1426  0.2985 -0.3083
 1760W        W 2757   3.142   4.632   6.387  0.2808  0.3649 -0.0885
 1761W        W 2758   5.224   2.084   6.374 -0.1008 -0.1202 -0.1003
 1762W        W 2759   2.791   6.493   5.102  0.4669  0.1748  0.0048
 1763W        W 2760   6.506   3.021   6.672 -0.0588 -0.1282  0.0105
 1764W        W 2761   5.644   4.299   4.697  0.0795 -0.1789 -0.4267
 1765W        W 2762   6.453   0.962   6.638 -0.1378 -0.2224  0.0151
 1766W        W 2763   2.913   6.204   0.260 -0.0708  0.1230  0.2021
 1767W        W 2764   3.333   5.927   1.326  0.2762  0.1263  0.0533
 1768W        W 2765   2.758   7.063   6.743  0.2342 -0.0933  0.0346
 1769W        W 2766   3.275   1.665   4.574  0.1535  0.3140 -0.0019
 1770W        W 2767   4.983   4.329   3.443  0.0081  0.2437 -0.2937
 1771W        W 2768   4.730   6.034   6.142  0.0496 -0.1004  0.0946
 1772W        W 2769   3.662   0.143   3.890 -0.0967  0.1824 -0.0976
 1773W        W 2770   4.749   2.452   6.313 -0.1684  0.0620 -0.1448
 1774W        W 2771   5.649   1.829   6.191  0.2803 -0.1080  0.1491
 1775W        W 2772   3.384   4.388   0.858  0.1115  0.0562  0.0983
 1776W        W 2773   5.149   4.537   5.848  0.1883  0.2249 -0.1582
 1777W        W 2774   6.168   7.644   4.717 -0.0321  0.1292  0.0664
 1778W        W 2775   5.492   7.175   1.292 -0.1705  0.0526  0.2664
 1779W        W 2776   4.408   0.228   7.178 -0.0951 -0.1726 -0.0043
 1780W        W 2777   4.390   2.624   7.388 -0.2176 -0.3343  0.0346
 1781W        W 2778   1.615   6.220   5.534 -0.1681 -0.2642 -0.0698
 1782W        W 2779   7.142   4.218   0.244 -0.2159  0.3475  0.1131
 1783W        W 2780   5.053   6.827   5.265 -0.0528 -0.2145 -0.0619
 1784W        W 2781   4.061   5.854   0.539  0.2343 -0.2281 -0.0108
 1785W        W 2782   7.124   7.236   7.186 -0.3444 -0.1319  0.0552
 1786W        W 2783   4.497   5.461   5.248 -0.0277 -0.2707 -0.2210
 1787W        W 2784   6.239   7.416   0.390  0.1547  0.0081  0.2274
 1788W        W 2785   1.560   2.596   0.539 -0.2151 -0.1640  0.1021
 1789W        W 2786   0.066   6.077   5.974 -0.0625  0.0292  0.0757
 1790W        W 2787   6.002   2.579   5.844  0.3141 -0.0359 -0.0623
 1791W        W 2788   6.611   5.464   1.590 -0.0982 -0.2465 -0.2961
 1792W        W 2789   4.838   5.916   4.459 -0.0850 -0.2098 -0.1611
 1793W        W 2790   6.038   4.891   2.835  0.2265  0.3656 -0.1024
 1794W        W 2791   3.899   1.142   5.133  0.3516 -0.0994  0.2647
 1795W        W 2792   0.605   6.856   6.116 -0.1448 -0.0051  0.1263
 1796W        W 2793   7.531   0.570   5.875 -0.0432  0.2718  0.1226
 1797W        W 2794   5.279   7.371   4.638 -0.0710 -0.1249 -0.1673
 1798W        W 2795   5.593   2.940   2.563  0.1391 -0.0346 -0.2299
 1799W        W 2796   0.456   5.613   1.489  0.1639  0.0464  0.2173
 1800W        W 2797   7.149   2.200   5.872 -0.0994 -0.1939 -0.0862
 1801W        W 2798   7.110   5.084   4.850 -0.1779  0.1340  0.0579
 1802W        W 2799   2.256   4.550   7.597  0.0265 -0.4352  0.0766
 1803W        W 2800   0.412   3.195   5.405  0.2516  0.0059 -0.1016
 1804W        W 2801   4.671   4.215   6.134  0.0527 -0.0084 -0.3107
 1805W        W 2802   2.426   5.037   7.222  0.3187  0.4153  0.0976
 1806W        W 2803   7.253   6.093   1.768 -0.2582 -0.0927  0.0016
 1807W        W 2804   7.117   4.350   4.940 -0.0372 -0.0958  0.1196
 1808W        W 2805   3.425   5.988   3.360  0.2163  0.2444 -0.2195
 1809W        W 2806   0.041   5.250   4.833  0.1759 -0.1017  0.2239
 1810W        W 2807   3.890   3.363   5.617  0.1457 -0.1443  0.3439
 1811W        W 2808   3.739   6.132   7.504  0.0495 -0.0863 -0.0072
 1812W        W 2809   4.088   6.996   3.717  0.1389  0.0134  0.1939
 1813W        W 2810   7.293   3.837   4.825  0.1180 -0.2465 -0.1800
 1814W        W 2811   2.883   4.653   6.858 -0.0754  0.2976  0.3868
 1815W        W 2812   7.288   0.717   3.357  0.2854  0.0966 -0.2303
 1816W        W 2813   3.133   4.129   6.801 -0.0307  0.1199 -0.1158
 1817W        W 2814   6.457   4.099   6.418 -0.0042  0.0660  0.2925
 1818W        W 2815   6.554   0.056   5.496  0.3597 -0.0870 -0.0441
 1819W        W 2816   2.063   3.764   5.783 -0.2197  0.0537 -0.0178
 1820W        W 2817   3.125   3.012   4.263 -0.3716 -0.0988  0.4575
 1821W        W 2818   0.955   0.251   6.396 -0.0349 -0.1155 -0.2610
 1822W        W 2819   6.184   3.566   0.452  0.0317 -0.0385 -0.1105
 1823W        W 2820   0.959   3.349   4.842  0.1968 -0.3532 -0.0982
 1824W        W 2821   0.351   7.039   0.981 -0.1595  0.2001  0.2854
 1825W        W 2822   5.761   5.421   7.123  0.3249  0.4549  0.1264
 1826W        W 2823   1.256   6.149   6.872  0.2099  0.1559 -0.2518
 1827W        W 2824   0.834   2.824   2.837  0.0851 -0.3459  0.1647
 1828W        W 2825   1.584   5.672   1.720 -0.2351  0.0110  0.0616
 1829W        W 2826   4.282   2.909   5.707 -0.0803  0.1417 -0.1074
 1830W        W 2827   7.282   7.370   5.553  0.1819 -0.0569 -0.0332
 1831W        W 2828   2.828   7.138   3.274 -0.0899  0.0025 -0.0634
 1832W        W 2829   5.052   4.776   4.243 -0.1413  0.1048 -0.0276
 1833W        W 2830   4.731   2.718   5.846 -0.2462 -0.2195 -0.1439
 1834W        W 2831   7.476   6.563   1.393  0.0098  0.0387  0.1393
 1835W        W 2832   3.899   0.776   6.380  0.1254 -0.1806  0.2620
 1836W        W 2833   4.400   3.283   0.427  0.0901 -0.1012 -0.3292
 1837W        W 2834   7.633   2.118   1.141  0.2763  0.3201 -0.1387
 1838W        W 2835   1.828   4.250   1.844  0.0191  0.0017 -0.0101
 1839W        W 2836   3.712   6.490   2.691  0.2013 -0.1044 -0.2146
 1840W        W 2837   7.222   5.615   5.626  0.0302  0.1234  0.2570
 1841W        W 2838   4.681   1.331   5.572  0.0725  0.1344 -0.0036
 1842W        W 2839   7.011   7.374   1.324  0.2926 -0.2838 -0.1309
 1843W        W 2840   1.361   4.022   1.112  0.0450  0.4625  0.0597
 1844W        W 2841   5.667   6.795   2.207 -0.1292  0.1281 -0.0177
 1845W        W 2842   1.045   3.295   2.370 -0.1796 -0.1667 -0.2412
 1846W        W 2843   5.495   2.873   7.260 -0.2360 -0.2630  0.1874
 1847W        W 2844   0.252   7.298   2.529 -0.0907 -0.1283  0.1556
 1848W        W 2845   2.933   5.967   7.097  0.1818  0.1484  0.0708
 1849W        W 2846   4.110   3.676   5.978  0.0133  0.0007  0.1292
 1850W        W 2847   4.131   6.436   2.451  0.1283 -0.0625 -0.0051
 1851W        W 2848   7.528   1.580   0.017 -0.1371  0.1039 -0.1518
 1852W        W 2849   1.689   4.425   1.307 -0.0180  0.1775  0.2865
 1853W        W 2850   3.558   7.031   5.064  0.0893 -0.0276 -0.1185
 1854W        W 2851   3.751   5.353   6.793  0.2397 -0.3759  0.2424
 1855W        W 2852   6.065   6.859   4.722  0.1628  0.3121  0.0265
 1856W        W 2853   5.826   2.610   5.070 -0.1184  0.0429  0.2378
 1857W        W 2854   1.026   4.969   1.241 -0.1310 -0.3286 -0.0144
 1858W        W 2855   6.830   4.676   5.929  0.0731  0.0186  0.2663
 1859W        W 2856   0.030   6.051   0.833 -0.0155  0.0716  0.2113
 1860W        W 2857   6.737   1.057   5.442  0.2240  0.0393 -0.0345
 1861W        W 2858   6.399   0.441   6.325 -0.0476  0.1503 -0.0451
 1862W        W 2859   3.265   2.448   4.978 -0.2635 -0.0699  0.0017
 1863W        W 2860   3.516   3.382   4.673  0.0744 -0.2949 -0.1408
 1864W        W 2861   6.416   3.212   5.343 -0.2152  0.2499  0.1658
 1865W        W 2862   0.365   1.974   4.006 -0.0160 -0.0140  0.1146
 1866W        W 2863   7.625   6.740   6.827 -0.2685  0.3420 -0.2523
 1867W        W 2864   6.527   3.354   3.807 -0.0801 -0.1747  0.1427
 1868W        W 2865   3.719   6.734   2.175 -0.0561 -0.0361  0.1687
 1869W        W 2866   1.122   4.356   7.550 -0.0524  0.0746 -0.1022
 1870W        W 2867   6.466   2.138   4.608  0.1893  0.3601 -0.2334
 1871W        W 2868   6.739   6.145   5.085  0.1849  0.2801  0.1397
 1872W        W 2869   5.202   4.919   3.335 -0.0285  0.0871 -0.0876
 1873W        W 2870   5.632   7.434   0.102 -0.0926 -0.4290 -0.3972
 1874W        W 2871   4.861   7.081   2.440 -0.0868  0.1672  0.1298
 1875W        W 2872   4.034   4.891   0.145  0.3137  0.1155 -0.1276
 1876W        W 2873   2.543   7.244   4.362  0.1001  0.0689  0.0551
 1877W        W 2874   1.342   3.274   7.069 -0.0722 -0.1816  0.3476
 1878W        W 2875   0.433   3.526   4.495  0.0676 -0.1332 -0.1853
 1879W        W 2876   2.714   6.766   7.235  0.0179  0.0853 -0.2399
 1880W        W 2877   7.435   1.689   2.556  0.3140  0.1136 -0.2169
 1881W        W 2878   4.452   0.271   4.967  0.3266 -0.2302 -0.3262
 1882W        W 2879   1.472   7.016   0.359 -0.1752  0.2658 -0.0485
 1883W        W 2880   0.790   2.005   0.148 -0.0885 -0.1212 -0.2370
 1884W        W 2881   1.857   4.427   7.132  0.0661 -0.4012  0.1094
 1885W        W 2882   2.344   3.775   2.734  0.1824 -0.1841  0.0409
 1886W        W 2883   0.054   2.438   3.910  0.1021  0.0738 -0.1811
 1887W        W 2884   7.306   3.455   1.424  0.0765 -0.0583  0.1451
 1888W        W 2885   7.253   4.820   1.737 -0.3018 -0.0309  0.1004
 1889W        W 2886   7.618   2.776   6.366 -0.0965 -0.1456 -0.0589
 1890W        W 2887   2.800   0.008   2.087 -0.0746 -0.1769 -0.1054
 1891W        W 2888   5.663   6.221   5.275  0.0800  0.1520  0.0317
 1892W        W 2889   5.652   3.647   6.743 -0.0070 -0.0667  0.2158
 1893W        W 2890   2.896   3.536   2.441 -0.1997 -0.2485  0.3462
 1894W        W 2891   4.096   2.849   0.012 -0.0318 -0.0869  0.2260
 1895W        W 2892   3.498   5.026   0.273  0.1163  0.4256  0.0878
 1896W        W 2893   6.922   3.629   3.616  0.0653  0.0427 -0.1659
 1897W        W 2894   3.410   0.942   5.410  0.0315  0.0979  0.0769
 1898W        W 2895   7.442   1.051   7.282  0.0429  0.1114  0.2814
 1899W        W 2896   6.840   5.860   3.144 -0.0790  0.1767  0.2590
 1900W        W 2897   5.936   2.741   2.878 -0.0524  0.0562 -0.2815
 1901W        W 2898   3.837   4.080   5.902 -0.0657 -0.0570 -0.1471
 1902W        W 2899   4.072   4.750   6.381 -0.0658  0.0928 -0.1695
 1903W        W 2900   0.567   6.460   0.862  0.2396 -0.0442  0.0389
 1904W        W 2901   5.103   6.244   1.463  0.1221 -0.1319 -0.1232
 1905W        W 2902   1.320   5.154   1.924 -0.0364  0.1737 -0.0427
 1906W        W 2903   5.580   3.760   1.322 -0.2411  0.0235 -0.2101
 1907W        W 2904   5.362   3.386   5.470 -0.1391 -0.1971 -0.1402
 1908W        W 2905   3.167   7.472   4.524 -0.1376  0.1280 -0.0197
 1909W        W 2906   2.311   7.268   5.057  0.5915  0.0010 -0.3467
 1910W        W 2907   3.965   3.939   6.898  0.0182  0.1663 -0.1841
 1911W        W 2908   4.473   3.901   2.891  0.4683 -0.1339  0.0927
 1912W        W 2909   7.010   0.088   3.949  0.2955 -0.0191  0.2311
 1913W        W 2910   1.122   2.522   6.784  0.3518 -0.2420  0.1564
 1914W        W 2911   1.150   3.887   5.007  0.0064 -0.0538  0.2369
 1915W        W 2912   0.351   6.076   1.238  0.2153 -0.1013  0.0974
 1916W        W 2913   3.612   6.002   0.308  0.0066  0.0690  0.1521
 1917W        W 2914   1.203   2.235   4.978 -0.0920  0.3444  0.2382
 1918W        W 2915   4.538   6.851   5.243  0.0950 -0.1408  0.1677
 1919W        W 2916   5.218   2.732   0.211  0.0037  0.1866  0.0986
 1920W        W 2917   2.432   3.223   3.318 -0.1795  0.1675  0.2414
 1921W        W 2918   7.623   5.235   2.584  0.1550  0.0988 -0.0461
 1922W        W 2919   3.598   3.173   4.127 -0.1893 -0.0105  0.0096
 1923W        W 2920   5.019   0.664   2.582  0.0809  0.1757 -0.0419
 1924W        W 2921   3.355   2.293   5.995 -0.0453  0.4253 -0.0327
 1925W        W 2922   6.733   5.981   6.492 -0.0126  0.0683 -0.0151
 1926W        W 2923   5.213   2.578   6.437 -0.1831 -0.1894  0.2491
 1927W        W 2924   2.668   6.734   3.925  0.0409 -0.0319  0.3009
 1928W        W 2925   5.565   3.684   2.936 -0.2492  0.3199  0.0949
 1929W        W 2926   6.538   1.037   4.146  0.0280 -0.0834  0.1250
 1930W        W 2927   7.451   0.348   2.541  0.0830 -0.0395  0.1527
 1931W        W 2928   7.553   2.803   5.797  0.0349 -0.0310 -0.0120
 1932W        W 2929   7.430   2.061   4.067 -0.0457  0.0110 -0.1360
 1933W        W 2930   2.417   6.481   3.192 -0.0389  0.2603 -0.0303
 1934W        W 2931   5.187   5.922   3.322  0.2644 -0.1455  0.3137
 1935W        W 2932   6.042   6.352   6.643 -0.2490 -0.0553  0.0332
 1936W        W 2933   7.259   6.334   0.053 -0.0145 -0.1058  0.0726
 1937W        W 2934   3.346   6.314   0.600  0.1509 -0.0387  0.2077
 1938W        W 2935   7.041   3.178   3.356 -0.0264  0.0978  0.1581
 1939W        W 2936   3.566   4.541   5.706  0.1861 -0.2010 -0.2635
 1940W        W 2937   3.988   5.829   5.649  0.0151 -0.1076  0.0840
 1941W        W 2938   6.453   4.732   3.509  0.0901 -0.0725  0.0941
 1942W        W 2939   3.417   4.468   3.985 -0.1269 -0.0409 -0.1324
 1943W        W 2940   2.847   2.523   6.193  0.2292 -0.2175  0.0337
 1944W        W 2941   7.392   0.616   7.526 -0.0341 -0.0320  0.0710
 1945W        W 2942   4.254   6.808   5.769  0.0033 -0.1248  0.0148
 1946W        W 2943   1.395   2.717   7.639 -0.2461  0.1708  0.2269
 1947W        W 2944   6.492   6.083   3.525  0.0094 -0.1288 -0.1198
 1948W        W 2945   6.650   5.439   4.728  0.0661  0.1730  0.1746
 1949W        W 2946   7.124   3.622   6.664 -0.1132  0.0370  0.2205
 1950W        W 2947   4.175   2.233   6.993  0.0721  0.2041 -0.3593
 1951W        W 2948   3.617   3.668   4.064  0.0743  0.2837 -0.2221
 1952W        W 2949   5.147   2.883   5.317 -0.0351  0.0599 -0.0167
 1953W        W 2950   3.294   2.832   6.791 -0.1281  0.1098  0.0645
 1954W        W 2951   6.700   4.604   1.149 -0.3845  0.1235  0.0327
 1955W        W 2952   7.039   7.577   3.329  0.1559  0.1751  0.1493
 1956W        W 2953   1.464   6.836   5.526  0.4004  0.0501 -0.3120
 1957W        W 2954   4.924   1.186   0.733  0.3623 -0.4779 -0.3476
 1958W        W 2955   5.096   1.156   5.376  0.0048 -0.1218  0.0571
 1959W        W 2956   1.657   0.232   7.138 -0.2030  0.3169 -0.0841
 1960W        W 2957   2.706   5.517   4.943  0.3460 -0.0268 -0.0456
 1961W        W 2958   7.359   1.537   0.458 -0.1579  0.1295 -0.0794
 1962W        W 2959   1.352   4.271   5.420 -0.2221  0.0229  0.2026
 1963W        W 2960   2.357   3.152   6.963 -0.2085 -0.0477  0.1356
 1964W        W 2961   1.883   2.331   3.042  0.0117 -0.0965  0.1416
 1965W        W 2962   6.210   2.099   5.875 -0.1651  0.0309 -0.0552
 1966W        W 2963   4.582   2.369   4.040 -0.0270  0.0592  0.3789
 1967W        W 2964   5.069   1.991   1.874 -0.0163  0.0429 -0.0673
 1968W        W 2965   0.587   0.104   6.040  0.2531  0.1706  0.0844
 1969W        W 2966   6.934   1.128   6.836  0.1372  0.3099 -0.0503
 1970W        W 2967   0.668   2.958   4.518 -0.0677 -0.0912  0.2698
 1971W        W 2968   4.537   6.685   3.587 -0.0758 -0.0100 -0.0360
 1972W        W 2969   5.258   5.924   1.935 -0.2248 -0.0652  0.0383
 1973W        W 2970   2.048   4.091   4.291  0.1914 -0.0069  0.1658
 1974W        W 2971   6.498   6.962   0.120  0.5264  0.0787 -0.1048
 1975W        W 2972   2.537   0.917   3.142 -0.1654  0.1434 -0.1045
 1976W        W 2973   0.150   2.467   1.476  0.2218  0.0402  0.2901
 1977W        W 2974   3.823   4.145   1.226  0.0017 -0.0693  0.0510
 1978W        W 2975   5.446   7.045   5.023  0.1491  0.3927  0.1717
 1979W        W 2976   6.598   5.000   0.885 -0.1075 -0.0762  0.3054
 1980W        W 2977   3.349   4.084   5.747  0.0428  0.2910  0.0858
 1981W        W 2978   5.406   7.645   7.324 -0.0769  0.3082 -0.0071
 1982W        W 2979   6.770   1.243   0.965  0.0670  0.0014  0.2282
 1983W        W 2980   7.075   0.847   5.790 -0.0534  0.0721  0.3301
 1984W        W 2981   3.880   6.681   7.196  0.0518 -0.0665  0.0916
 1985W        W 2982   5.837   3.531   7.499  0.2771  0.0594 -0.0952
 1986W        W 2983   5.747   5.190   6.445 -0.0036 -0.1681  0.3264
 1987W        W 2984   3.431   3.126   2.938  0.1300  0.1668 -0.2584
 1988W        W 2985   5.270   4.619   2.898  0.0824  0.0907 -0.1407
 1989W        W 2986   1.544   7.250   5.321 -0.3237  0.0714  0.0846
 1990W        W 2987   2.300   6.618   2.059 -0.0934 -0.0567  0.1993
 1991W        W 2988   6.657   6.783   6.658  0.2912  0.1923 -0.1706
 1992W        W 2989   3.167   3.749   2.967  0.1771 -0.3176  0.1474
 1993W        W 2990   5.445   4.126   0.475 -0.2687  0.0828  0.1730
 1994W        W 2991   5.763   6.748   2.664  0.2236 -0.2835  0.0732
 1995W        W 2992   2.712   5.027   3.363 -0.2855  0.0595 -0.0206
 1996W        W 2993   5.507   5.804   6.005 -0.0506  0.1186  0.1502
 1997W        W 2994   3.608   5.590   4.658  0.1249 -0.0423  0.0207
 1998W        W 2995   1.003   4.682   6.678  0.2002  0.0994  0.0919
 1999W        W 2996   4.393   0.761   3.383 -0.2580  0.3600  0.1058
 2000W        W 2997   5.215   1.602   6.196 -0.2634  0.0601 -0.3607
 2001W        W 2998   6.789   6.445   0.004  0.3880 -0.0179  0.1726
 2002W        W 2999   4.050   6.410   1.363 -0.3700  0.1828  0.0240
 2003W        W 3000   5.685   6.199   4.122  0.0618  0.0233  0.0491
 2004W        W 3001   2.545   7.600   6.681  0.0949  0.2744  0.2000
 2005W        W 3002   3.198   6.154   6.675  0.0277  0.2114 -0.0754
 2006W        W 3003   4.383   1.386   2.424 -0.0917  0.1491 -0.1909
 2007W        W 3004   0.658   4.029   4.226 -0.2994  0.1087  0.1374
 2008W        W 3005   6.153   5.475   1.521 -0.1789 -0.1047  0.0972
 2009W        W 3006   4.043   3.252   7.276  0.1494  0.0860  0.1348
 2010W        W 3007   0.616   7.022   1.895 -0.3293 -0.1423 -0.0755
 2011W        W 3008   4.420   1.701   6.657  0.4023  0.4597  0.1975
 2012W        W 3009   3.858   3.864   4.583  0.2011  0.0338 -0.4747
 2013W        W 3010   5.978   4.770   4.729 -0.2602 -0.0382  0.2462
 2014W        W 3011   5.389   0.869   0.605 -0.2215  0.0222  0.0411
 2015W        W 3012   4.514   4.404   5.637  0.0009  0.0219 -0.1378
 2016W        W 3013   7.145   4.554   1.391 -0.0268  0.2918  0.5602
 2017W        W 3014   3.217   5.043   1.307  0.1758 -0.0839 -0.3070
 2018W        W 3015   7.108   0.812   2.878 -0.1644 -0.1362  0.0406
 2019W        W 3016   2.608   2.307   7.067 -0.0994  0.1067  0.1250
 2020W        W 3017   2.957   3.536   5.612 -0.0852 -0.0429  0.0550
 2021W        W 3018   4.920   7.102   4.865  0.0005  0.2433  0.2808
 2022W        W 3019   0.568   2.273   4.343  0.0291 -0.3929  0.1245
 2023W        W 3020   0.451   2.681   7.500  0.0493 -0.2236  0.1354
 2024W        W 3021   6.862   3.023   2.928 -0.0246  0.2759  0.0291
 2025W        W 3022   5.423   6.035   4.719 -0.5332  0.0203 -0.0018
 2026W        W 3023   5.753   3.813   4.754  0.1329  0.0356  0.0588
 2027W        W 3024   5.541   3.866   7.647 -0.0938  0.0158 -0.0979
 2028W        W 3025   6.458   2.901   0.451  0.0049  0.3379  0.0321
 2029W        W 3026   4.344   0.403   3.055 -0.1844  0.1978  0.1133
 2030W        W 3027   6.610   5.136   7.369 -0.2446 -0.0158  0.0875
 2031W        W 3028   7.368   7.122   1.654 -0.2802 -0.3015  0.1116
 2032W        W 3029   4.016   7.220   1.116  0.2457 -0.0968  0.1306
 2033W        W 3030   2.069   3.835   5.259 -0.1893 -0.0259 -0.1464
 2034W        W 3031   0.766   3.590   2.113  0.2775  0.4956  0.1191
 2035W        W 3032   0.546   2.431   3.862 -0.0078 -0.0337 -0.0246
 2036W        W 3033   4.080   2.762   7.067 -0.0434 -0.1466  0.0686
 2037W        W 3034   3.046   5.990   4.169  0.2631 -0.0954  0.1866
 2038W        W 3035   7.466   2.985   5.129  0.1096 -0.1603  0.0635
 2039W        W 3036   6.124   6.422   1.323 -0.1766 -0.0164  0.1897
 2040W        W 3037   0.394   3.108   3.264  0.3897 -0.0477  0.1872
 2041W        W 3038   0.622   2.521   6.597 -0.1139 -0.0765 -0.0108
 2042W        W 3039   4.085   5.000   6.818  0.2089  0.0708 -0.1004
 2043W        W 3040   3.032   0.297   3.437 -0.0598 -0.0768 -0.0507
 2044W        W 3041   7.471   4.427   0.568  0.0528  0.2968  0.1052
 2045W        W 3042   6.044   5.794   2.780  0.0796  0.3383 -0.3410
 2046W        W 3043   7.179   1.927   1.324 -0.0687  0.1944 -0.0512
 2047W        W 3044   5.852   7.266   3.330  0.1059 -0.0639 -0.0081
 2048W        W 3045   7.316   0.504   6.942  0.0392  0.0298  0.1042
 2049W        W 3046   1.118   6.012   0.218  0.1102  0.0186  0.1296
 2050W        W 3047   1.061   3.844   2.458 -0.1708 -0.1147 -0.0371
 2051W        W 3048   2.661   6.315   2.281  0.1916 -0.0046  0.0623
 2052W        W 3049   6.586   2.044   2.608  0.1608  0.1915  0.2908
 2053W        W 3050   5.934   1.121   0.601 -0.2252  0.3373 -0.2728
 2054W        W 3051   2.515   0.019   3.923 -0.3169 -0.0786  0.2611
 2055W        W 3052   4.369   1.512   0.420  0.3121  0.2012  0.2387
 2056W        W 3053   6.290   6.176   4.841  0.1123 -0.1414 -0.3412
 2057W        W 3054   3.050   1.173   2.994  0.0553  0.1676  0.0843
 2058W        W 3055   0.124   7.431   0.314  0.0697 -0.1224  0.1817
 2059W        W 3056   4.742   4.121   4.271  0.2571  0.3693 -0.0922
 2060W        W 3057   6.910   7.186   4.718 -0.0066  0.3797  0.1432
 2061W        W 3058   3.886   6.026   4.777  0.0801  0.1272  0.2666
 2062W        W 3059   7.386   2.009   7.386 -0.1837  0.1575 -0.1706
 2063W        W 3060   1.052   6.159   5.125 -0.1857 -0.2743 -0.0316
 2064W        W 3061   4.332   0.648   4.289 -0.4629 -0.0655 -0.1834
 2065W        W 3062   5.631   0.110   4.517  0.1528  0.1357 -0.2608
 2066W        W 3063   4.824   1.863   7.152 -0.1211 -0.2027  0.3095
 2067W        W 3064   5.277   3.908   2.244  0.0400 -0.0387 -0.0645
 2068W        W 3065   4.223   4.033   0.285 -0.2079  0.0951  0.1336
 2069W        W 3066   2.686   6.424   0.675 -0.0317  0.1195 -0.1335
 2070W        W 3067   5.546   3.132   6.801 -0.2026  0.1334 -0.2946
 2071W        W 3068   2.912   5.195   0.073  0.3886  0.2910 -0.2792
 2072W        W 3069   3.722   4.886   4.189  0.0403  0.0215 -0.0842
 2073W        W 3070   7.229   5.959   6.198 -0.1231 -0.0260  0.1648
 2074W        W 3071   7.403   3.308   4.361  0.1162  0.2303 -0.1919
 2075W        W 3072   5.716   2.341   4.622  0.0394  0.0499  0.1550
 2076W        W 3073   0.783   3.265   5.744 -0.2754 -0.2866 -0.2461
 2077W        W 3074   6.604   0.005   2.008  0.4195 -0.1698  0.0546
 2078W        W 3075   5.248   4.916   2.487 -0.1008 -0.2071 -0.3649
 2079W        W 3076   5.243   0.597   3.007  0.0366 -0.4314  0.1245
 2080W        W 3077   7.468   2.767   4.662 -0.2827  0.3769 -0.0183
 2081W        W 3078   4.749   6.864   4.050 -0.0435 -0.0666 -0.1254
 2082W        W 3079   0.483   7.554   6.517  0.0146 -0.2250 -0.0043
 2083W        W 3080   2.395   6.059   0.340 -0.2648  0.0649  0.0390
 2084W        W 3081   0.892   0.191   5.509 -0.2795  0.1915  0.0379
 2085W        W 3082   3.841   2.320   7.399 -0.2344  0.2565 -0.1159
 2086W        W 3083   1.458   6.540   6.573  0.0451 -0.3808 -0.1484
 2087W        W 3084   5.308   0.160   4.894  0.0290 -0.0928  0.1076
 2088W        W 3085   6.977   3.535   4.471 -0.0732 -0.0168  0.2156
 2089W        W 3086   0.756   7.124   6.743  0.0382  0.0549  0.0883
 2090W        W 3087   3.221   4.178   7.576 -0.0759  0.0440 -0.0925
 2091W        W 3088   4.762   7.327   5.408 -0.0490 -0.0430 -0.3276
 2092W        W 3089   2.583   3.609   3.689 -0.2290 -0.0114 -0.2530
 2093W        W 3090   2.904   5.992   5.050  0.0427  0.2226 -0.1523
 2094W        W 3091   7.084   4.949   7.596 -0.3189  0.2488  0.0026
 2095W        W 3092   6.943   0.975   6.346  0.2526 -0.2789  0.1140
 2096W        W 3093   5.736   3.035   3.649  0.1562  0.0944  0.0106
 2097W        W 3094   4.782   6.097   1.070  0.0561 -0.0085  0.0462
 2098W        W 3095   3.477   4.390   1.770 -0.2958  0.0919  0.0833
 2099W        W 3096   5.394   1.560   5.233  0.0500 -0.2687 -0.0541
 2100W        W 3097   5.157   6.817   3.742  0.1213  0.0742  0.1264
 2101W        W 3098   5.996   5.375   3.064 -0.0165  0.1263  0.0963
 2102W        W 3099   2.652   3.925   1.539  0.1474  0.0962  0.2749
 2103W        W 3100   6.774   2.436   2.889 -0.0837  0.0167 -0.0140
 2104W        W 3101   4.756   2.143   3.156 -0.1069 -0.0237  0.0233
 2105W        W 3102   3.116   7.579   6.675  0.0698 -0.0743 -0.0116
 2106W        W 3103   5.495   4.150   3.787 -0.0588  0.4741 -0.2015
 2107W        W 3104   3.156   1.108   7.505  0.1125  0.0082  0.0579
 2108W        W 3105   1.510   4.680   1.709  0.0894  0.3664 -0.1576
 2109W        W 3106   5.716   5.816   0.227 -0.0226 -0.1321  0.0713
 2110W        W 3107   2.981   7.573   3.059 -0.2803  0.3326 -0.2911
 2111W        W 3108   3.515   3.899   0.969  0.2455  0.2627  0.3578
 2112W        W 3109   2.388   3.993   6.083 -0.0175 -0.0248  0.0201
 2113W        W 3110   6.590   5.077   6.119 -0.0686  0.4129 -0.1862
 2114W        W 3111   5.366   5.545   6.393 -0.0877 -0.0240 -0.0495
 2115W        W 3112   0.329   6.542   7.509 -0.4223 -0.0750 -0.2562
 2116W        W 3113   3.044   5.815   5.859  0.2061  0.1753 -0.2805
 2117W        W 3114   1.186   4.149   6.646  0.1807 -0.0101 -0.0528
 2118W        W 3115   2.403   4.105   7.327  0.2461  0.1017  0.0976
 2119W        W 3116   4.202   6.727   3.039  0.3430 -0.0727  0.0452
 2120W        W 3117   3.876   3.533   5.067  0.1415  0.0403  0.0189
 2121W        W 3118   4.615   3.621   3.280 -0.0865 -0.2718  0.0114
 2122W        W 3119   0.095   7.033   4.312  0.2490  0.1203 -0.0464
 2123W        W 3120   3.203   3.152   2.492  0.2524  0.3885 -0.2328
 2124W        W 3121   6.398   4.485   1.997  0.0412 -0.0719 -0.3386
 2125W        W 3122   5.459   6.358   7.443 -0.0887 -0.1507  0.1096
 2126W        W 3123   3.286   7.038   0.258 -0.0507  0.2844  0.0971
 2127W        W 3124   0.193   2.804   1.986 -0.0047  0.0204  0.1219
 2128W        W 3125   4.838   3.416   4.576 -0.0491  0.0641 -0.2086
 2129W        W 3126   6.514   3.913   3.750 -0.1476 -0.3257 -0.0404
 2130W        W 3127   4.513   6.064   0.572 -0.1205 -0.0849 -0.0647
 2131W        W 3128   2.488   6.269   5.415 -0.2965  0.0841  0.3410
 2132W        W 3129   4.120   0.326   4.559  0.3249 -0.1354 -0.1008
 2133W        W 3130   1.614   2.915   5.289 -0.2189  0.2353  0.0303
 2134W        W 3131   0.732   2.781   0.895  0.3529  0.3231  0.0381
 2135W        W 3132   6.181   4.249   4.691  0.2551  0.0503  0.1038
 2136W        W 3133   4.772   7.337   0.546  0.0795 -0.0795  0.1247
 2137W        W 3134   5.620   7.383   5.473 -0.1324 -0.3938  0.0700
 2138W        W 3135   0.232   5.939   2.446 -0.1435  0.0773  0.1261
 2139W        W 3136   3.892   2.509   3.822 -0.1661  0.0953  0.1395
 2140W        W 3137   6.788   5.667   6.158 -0.1051 -0.0410  0.0632
 2141W        W 3138   1.232   3.765   5.560 -0.2427  0.2628  0.3363
 2142W        W 3139   2.619   2.322   5.325 -0.2721 -0.2592  0.1971
 2143W        W 3140   3.372   5.466   6.471  0.0141 -0.1096  0.4088
 2144W        W 3141   4.449   4.737   5.133 -0.1786 -0.1162 -0.2680
 2145W        W 3142   4.285   2.088   6.299 -0.2513  0.1456  0.1476
 2146W        W 3143   2.548   2.297   3.736  0.1101 -0.0850 -0.2229
 2147W        W 3144   5.981   0.067   5.612  0.3437  0.0272  0.1443
 2148W        W 3145   4.764   5.728   1.471 -0.1691 -0.0207  0.2195
 2149W        W 3146   1.185   2.051   5.445 -0.0493 -0.2724  0.1342
 2150W        W 3147   2.107   6.009   7.143 -0.0077  0.3184  0.2082
 2151W        W 3148   3.184   1.099   4.935  0.0941 -0.2467 -0.3646
 2152W        W 3149   2.617   1.870   3.408 -0.1987  0.0173  0.1928
 2153W        W 3150   0.717   7.161   7.400 -0.2773  0.0853  0.2800
 2154W        W 3151   6.605   0.590   7.579  0.0867  0.2433 -0.0527
 2155W        W 3152   6.231   7.280   5.563  0.0609  0.1602 -0.0355
 2156W        W 3153   0.421   2.311   5.643  0.0967  0.0656 -0.3322
 2157W        W 3154   3.032   1.950   6.270  0.2125  0.0238  0.1322
 2158W        W 3155   6.075   3.140   1.864 -0.1839 -0.1093 -0.1390
 2159W        W 3156   6.312   6.733   5.479 -0.1020 -0.2471  0.2519
 2160W        W 3157   7.433   7.188   6.824  0.2849 -0.0243  0.0962
 2161W        W 3158   5.018   4.012   0.127  0.3083 -0.2442  0.1731
 2162W        W 3159   0.189   0.309   4.410  0.0101 -0.1380 -0.1043
 2163W        W 3160   5.745   0.819   1.858  0.0802  0.2619  0.1370
 2164W        W 3161   3.958   0.896   4.637 -0.0320 -0.0211  0.0640
 2165W        W 3162   6.654   0.938   0.565 -0.1473 -0.0226  0.4315
 2166W        W 3163   5.064   7.613   4.291 -0.2981 -0.1910 -0.2770
 2167W        W 3164   3.285   0.882   0.631 -0.1648 -0.1447  0.1209
 2168W        W 3165   6.717   2.352   6.914  0.0667  0.2213 -0.2651
 2169W        W 3166   0.514   3.704   5.547 -0.0438 -0.0274 -0.0577
 2170W        W 3167   7.371   7.116   3.902  0.2853  0.0868 -0.0177
 2171W        W 3168   0.653   3.932   5.133  0.0742 -0.1178 -0.0400
 2172W        W 3169   2.437   6.862   0.478  0.0052 -0.0754 -0.1276
 2173W        W 3170   5.370   1.902   5.792 -0.1760  0.1028 -0.1429
 2174W        W 3171   4.841   0.238   0.515 -0.0796 -0.1983 -0.0574
 2175W        W 3172   3.769   6.701   5.915  0.0090 -0.0778 -0.1497
 2176W        W 3173   3.648   5.326   2.649  0.2220 -0.3792 -0.0089
 2177W        W 3174   0.862   1.900   4.459 -0.2773 -0.2708  0.2123
 2178W        W 3175   4.179   1.699   3.535  0.3123  0.0820 -0.0688
 2179W        W 3176   6.327   2.416   1.314  0.0918 -0.1371  0.0124
 2180W        W 3177   7.318   3.950   0.697  0.3555  0.0318  0.0378
 2181W        W 3178   6.177   0.203   1.485  0.0518 -0.2149  0.0798
 2182W        W 3179   5.307   3.946   3.288 -0.0759  0.4027 -0.0905
 2183W        W 3180   4.668   5.106   2.912  0.1661  0.1547  0.0646
 2184W        W 3181   4.136   3.464   6.850  0.0983  0.1914 -0.1341
 2185W        W 3182   5.030   7.436   0.998 -0.2026 -0.1001  0.0511
 2186W        W 3183   4.700   4.577   0.774 -0.1664  0.0510 -0.2881
 2187W        W 3184   1.291   4.191   1.579  0.2121 -0.1085  0.1257
 2188W        W 3185   2.829   7.267   1.305 -0.0471 -0.3376 -0.0082
 2189W        W 3186   1.891   6.765   2.267  0.0054  0.1778  0.0073
 2190W        W 3187   3.753   2.157   0.226 -0.0881  0.0830  0.1131
 2191W        W 3188   7.065   6.121   5.587 -0.0926 -0.2869 -0.2096
 2192W        W 3189   6.759   0.989   1.503 -0.0727 -0.0808 -0.2693
 2193W        W 3190   2.306   4.597   2.462 -0.0599 -0.1321 -0.1478
 2194W        W 3191   2.339   2.438   5.834 -0.1361  0.0585 -0.2391
 2195W        W 3192   1.908   4.270   0.423  0.2650 -0.2559  0.3618
 2196W        W 3193   3.568   5.051   4.669 -0.1880 -0.0975  0.0804
 2197W        W 3194   2.817   3.365   4.132  0.1671  0.0302 -0.1716
 2198W        W 3195   4.222   5.107   5.429 -0.3650 -0.1488 -0.1629
 2199W        W 3196   2.362   6.484   0.009 -0.2048 -0.1809 -0.1539
 2200W        W 3197   6.361   1.377   0.588  0.0700 -0.1425  0.1335
 2201W        W 3198   7.527   7.492   1.345  0.1134 -0.2137  0.0582
 2202W        W 3199   3.796   1.682   5.079 -0.0167  0.1697 -0.1300
 2203W        W 3200   1.030   5.322   7.597  0.1999  0.1080 -0.0351
 2204W        W 3201   3.523   5.790   1.747  0.1154  0.3249  0.2606
 2205W        W 3202   1.396   2.965   6.601  0.0712  0.0549 -0.2686
 2206W        W 3203   0.877   0.611   6.020  0.2402  0.1367  0.0035
 2207W        W 3204   7.344   0.277   3.123 -0.1137  0.0370 -0.2068
 2208W        W 3205   3.654   7.337   3.608  0.0869 -0.0618  0.0931
 2209W        W 3206   2.197   5.134   6.786 -0.1838 -0.1097 -0.0069
 2210W        W 3207   6.594   1.432   6.488 -0.4549  0.2062  0.0053
 2211W        W 3208   6.139   0.501   1.962 -0.0363 -0.5756  0.1303
 2212W        W 3209   3.999   7.278   4.705  0.2010  0.1572  0.1335
 2213W        W 3210   3.021   4.342   0.346 -0.0136  0.1846  0.0630
 2214W        W 3211   7.131   6.568   0.529 -0.0509 -0.3800  0.2573
 2215W        W 3212   6.314   3.825   2.432 -0.1571  0.1421 -0.1733
 2216W        W 3213   2.546   3.614   0.011  0.0302  0.0725  0.1830
 2217W        W 3214   1.266   6.471   5.916 -0.1104  0.1440  0.1479
 2218W        W 3215   5.352   7.017   2.502  0.2299  0.0819  0.2534
 2219W        W 3216   1.001   2.367   3.615 -0.0112  0.0632 -0.4123
 2220W        W 3217   4.237   0.660   7.384  0.0661  0.0083  0.0951
 2221W        W 3218   5.848   7.454   1.446  0.2183 -0.2187 -0.2977
 2222W        W 3219   0.460   3.469   0.387 -0.0162  0.0990 -0.0595
 2223W        W 3220   6.529   0.021   1.193  0.0346  0.1390  0.0547
 2224W        W 3221   6.214   2.309   5.402 -0.1121 -0.1716  0.0882
 2225W        W 3222   4.808   5.098   5.187 -0.6066  0.1827  0.0508
 2226W        W 3223   3.097   2.108   4.426  0.2995 -0.0383 -0.0805
 2227W        W 3224   6.638   3.297   0.624 -0.1311  0.1820 -0.1150
 2228W        W 3225   7.394   0.618   0.345  0.1809 -0.0699 -0.0054
 2229W        W 3226   6.582   2.960   4.852 -0.0926  0.1636 -0.0054
 2230W        W 3227   1.972   2.886   7.318 -0.4486 -0.1151 -0.0134
 2231W        W 3228   1.274   3.320   1.368 -0.2751 -0.3274 -0.0067
 2232W        W 3229   0.158   4.160   5.714  0.1718 -0.2032 -0.0199
 2233W        W 3230   0.363   6.580   1.326  0.1675  0.0135 -0.0894
 2234W        W 3231   3.201   5.083   4.211  0.4728 -0.0070  0.2443
 2235W        W 3232   2.883   3.864   7.288  0.0237  0.2085 -0.4235
 2236W        W 3233   1.727   3.499   1.157  0.0565 -0.0726  0.1635
 2237W        W 3234   5.659   3.995   7.194 -0.1723 -0.0046 -0.3019
 2238W        W 3235   0.075   3.573   2.644  0.0045  0.3948  0.0935
 2239W        W 3236   3.555   4.907   1.676  0.0453  0.0606  0.1236
 2240W        W 3237   3.860   5.979   1.438  0.1336  0.0139 -0.0995
 2241W        W 3238   3.025   3.187   4.742 -0.0214  0.0751 -0.0367
 2242W        W 3239   2.066   2.760   0.622 -0.2471 -0.0649  0.0463
 2243W        W 3240   4.616   7.377   7.643  0.0932 -0.1323 -0.1353
 2244W        W 3241   7.577   1.129   5.628 -0.1449 -0.0777  0.0951
 2245W        W 3242   5.650   7.508   6.403  0.0376 -0.1198 -0.0251
 2246W        W 3243   3.728   2.645   0.247  0.0725 -0.0514  0.3808
 2247W        W 3244   5.598   6.050   2.726 -0.0038 -0.2599  0.0527
 2248W        W 3245   4.688   3.671   0.319 -0.0563  0.2640  0.4036
 2249W        W 3246   2.797   1.845   5.436 -0.0849  0.2554  0.1167
 2250W        W 3247   6.594   5.350   6.543 -0.0833 -0.2351  0.1800
 2251W        W 3248   6.541   5.086   2.883 -0.1252  0.0447 -0.2120
 2252W        W 3249   6.468   3.556   1.880 -0.3946 -0.1464  0.0373
 2253W        W 3250   5.314   0.139   3.086 -0.2191 -0.1127 -0.3088
 2254W        W 3251   0.649   3.594   4.015  0.2470  0.1078  0.1695
 2255W        W 3252   0.206   2.631   0.613  0.0385 -0.0209 -0.0651
 2256W        W 3253   5.055   4.043   1.080 -0.3055  0.2460  0.1678
 2257W        W 3254   0.173   6.220   3.411 -0.0119 -0.1812 -0.0397
 2258W        W 3255   2.651   3.683   5.076  0.1116 -0.2170  0.1945
 2259W        W 3256   3.958   6.069   1.932  0.1201 -0.1406  0.0614
 2260W        W 3257   2.987   4.241   1.287 -0.5504 -0.0045 -0.0044
 2261W        W 3258   3.781   4.748   3.245 -0.0477  0.1759 -0.2935
 2262W        W 3259   2.335   6.799   6.807  0.0126 -0.3392 -0.0758
 2263W        W 3260   3.305   1.952   5.099 -0.3307  0.1025 -0.0275
 2264W        W 3261   6.270   3.642   5.065  0.0614 -0.0578  0.1565
 2265W        W 3262   5.209   4.483   0.760  0.0566 -0.3722 -0.0287
 2266W        W 3263   0.635   3.456   6.731  0.2900 -0.0132  0.1563
 2267W        W 3264   1.330   3.566   0.874 -0.0395 -0.1185  0.1549
 2268W        W 3265   2.007   4.043   4.777 -0.0683 -0.0661  0.1338
 2269W        W 3266   1.379   3.674   7.354 -0.0734 -0.0259 -0.3461
 2270W        W 3267   2.060   3.105   5.769 -0.1431 -0.2034 -0.0490
 2271W        W 3268   6.743   2.506   7.596 -0.0015  0.2228 -0.0296
 2272W        W 3269   6.110   7.387   0.994  0.1614 -0.4297 -0.1005
 2273W        W 3270   4.066   1.795   0.049  0.3818  0.0178 -0.0448
 2274W        W 3271   6.493   5.952   2.694 -0.0745  0.0340  0.2470
 2275W        W 3272   6.668   3.966   0.289 -0.2777  0.0080  0.0667
 2276W        W 3273   0.876   3.697   0.700  0.0876 -0.2318  0.2796
 2277W        W 3274   1.834   6.052   1.293 -0.2455 -0.0363 -0.2837
 2278W        W 3275   3.225   4.320   4.851  0.1984 -0.3225 -0.0391
 2279W        W 3276   0.419   5.740   6.176  0.0611 -0.0721  0.0409
 2280W        W 3277   5.270   6.697   7.106  0.1849  0.0902  0.2719
 2281W        W 3278   3.406   6.457   7.254 -0.0465 -0.1182  0.1568
 2282W        W 3279   3.921   7.629   6.843  0.1073 -0.0139 -0.0756
 2283W        W 3280   2.080   3.540   6.743  0.0953  0.0579 -0.0407
 2284W        W 3281   1.890   2.873   3.917 -0.0361  0.1138  0.2902
 2285W        W 3282   3.160   7.288   0.905 -0.0092 -0.1754 -0.2055
 2286W        W 3283   6.116   1.325   2.076 -0.2373  0.0749 -0.0129
 2287W        W 3284   7.462   0.683   0.826 -0.0899  0.2530 -0.0778
 2288W        W 3285   5.337   1.671   4.151 -0.2600  0.1828 -0.0947
 2289W        W 3286   6.966   0.597   3.778  0.0242 -0.0326 -0.1168
 2290W        W 3287   6.102   7.639   7.486 -0.0102 -0.0366  0.0968
 2291W        W 3288   5.319   4.255   5.050  0.1199 -0.0058 -0.1854
 2292W        W 3289   4.382   2.677   4.624  0.0712 -0.1070  0.0605
 2293W        W 3290   6.256   0.813   0.302  0.0941  0.2007 -0.0435
 2294W        W 3291   1.521   6.555   1.393  0.0244  0.2094 -0.1207
 2295W        W 3292   4.160   3.501   0.110 -0.0665  0.0195  0.3365
 2296W        W 3293   4.270   3.773   4.901  0.2284 -0.1156  0.1721
 2297W        W 3294   7.576   5.177   5.793  0.0778  0.1443 -0.1311
 2298W        W 3295   3.237   0.080   1.255 -0.1128 -0.0453  0.2242
 2299W        W 3296   6.068   0.851   6.906 -0.2395  0.1620 -0.0681
 2300W        W 3297   5.568   4.799   5.673  0.1343 -0.1701  0.1012
 2301W        W 3298   2.434   6.898   5.324  0.0238  0.1576  0.1049
 2302W        W 3299   1.082   1.288   6.462  0.1151  0.1753  0.3245
 2303W        W 3300   4.348   7.206   2.779 -0.2638 -0.1267 -0.0124
 2304W        W 3301   4.960   3.100   6.533 -0.0131 -0.3548 -0.3650
 2305W        W 3302   5.884   6.306   4.630  0.0048 -0.1494 -0.1329
 2306W        W 3303   2.743   5.142   1.444  0.1329 -0.2350 -0.1345
 2307W        W 3304   7.575   7.505   7.214 -0.2203  0.1356 -0.0919
 2308W        W 3305   2.855   2.657   3.996 -0.0062  0.1755 -0.1823
 2309W        W 3306   0.081   3.736   1.640  0.0089  0.0248  0.0394
 2310W        W 3307   6.012   0.775   7.546  0.2636  0.0513 -0.0985
 2311W        W 3308   4.232   6.446   4.687 -0.1660  0.1399  0.0448
 2312W        W 3309   2.620   6.915   4.863  0.0825 -0.0424  0.4059
 2313W        W 3310   7.087   0.672   2.398 -0.0201 -0.1625  0.3300
 2314W        W 3311   3.395   6.424   5.710 -0.1680  0.0662 -0.1817
 2315W        W 3312   2.650   6.710   4.410  0.3122 -0.2205  0.0140
 2316W        W 3313   1.732   3.200   1.530 -0.2238  0.0649 -0.2861
 2317W        W 3314   5.455   2.378   0.748 -0.2519  0.0308  0.2013
 2318W        W 3315   2.384   6.958   2.547  0.0279  0.1260  0.0091
 2319W        W 3316   7.321   4.730   5.774 -0.1083  0.1989  0.2540
 2320W        W 3317   6.937   4.332   1.805 -0.2455 -0.0990 -0.0563
 2321W        W 3318   5.131   2.298   5.907 -0.0134  0.1664  0.1946
 2322W        W 3319   5.489   6.548   4.896 -0.0969 -0.0056 -0.0805
 2323W        W 3320   7.373   6.312   3.761  0.2320  0.1261 -0.2986
 2324W        W 3321   6.361   1.782   2.270 -0.0946  0.0456  0.0355
 2325W        W 3322   2.643   5.205   3.927  0.0640 -0.4402  0.1680
 2326W        W 3323   5.618   6.679   3.945 -0.3733 -0.2743 -0.0681
 2327W        W 3324   5.651   2.820   5.511  0.2902 -0.0673 -0.0953
 2328W        W 3325   5.138   2.255   4.469 -0.0846 -0.0724  0.1180
 2329W        W 3326   3.107   5.156   3.713 -0.0992  0.1596  0.1052
 2330W        W 3327   3.462   1.612   6.938 -0.1002 -0.4231 -0.0096
 2331W        W 3328   3.511   7.486   4.895  0.2564  0.1010 -0.0255
 2332W        W 3329   6.688   5.098   3.882  0.2805 -0.0191 -0.0112
 2333W        W 3330   6.677   7.582   7.152  0.2059  0.4627 -0.0727
 2334W        W 3331   2.474   6.418   6.206  0.0508 -0.0067  0.1590
 2335W        W 3332   6.472   5.834   3.957 -0.0306  0.0272  0.0859
 2336W        W 3333   6.833   6.501   1.858  0.3370 -0.1178  0.0313
 2337W        W 3334   0.463   1.981   0.533  0.1662 -0.0248 -0.1965
 2338W        W 3335   3.405   1.639   6.428 -0.3640 -0.0778 -0.0441
 2339W        W 3336   1.875   3.986   2.227 -0.0349 -0.1048 -0.1844
 2340W        W 3337   3.344   4.074   4.441  0.1460 -0.3975 -0.3826
 2341W        W 3338   5.397   5.204   6.818  0.0906  0.3372  0.0818
 2342W        W 3339   3.440   2.919   4.825  0.0998  0.2637 -0.0533
 2343W        W 3340   6.050   3.627   3.704  0.1530  0.4165 -0.2336
 2344W        W 3341   1.085   4.593   5.704 -0.1653  0.0725 -0.3864
 2345W        W 3342   1.242   6.681   6.976 -0.1132  0.1053 -0.2490
 2346W        W 3343   0.513   2.414   0.270 -0.1050 -0.3254  0.0065
 2347W        W 3344   0.139   6.395   6.334 -0.1522 -0.0723 -0.1781
 2348W        W 3345   6.913   1.729   2.273 -0.1486  0.1035 -0.1859
 2349W        W 3346   5.493   0.085   2.116 -0.0710 -0.3235 -0.2203
 2350W        W 3347   5.346   6.006   6.461  0.0024 -0.0790  0.1337
 2351W        W 3348   5.272   3.700   4.941  0.1197  0.2616 -0.2972
 2352W        W 3349   4.763   6.582   3.082  0.0073  0.1294  0.0445
 2353W        W 3350   0.138   0.201   6.261  0.1650  0.2089 -0.0402
 2354W        W 3351   4.281   4.627   3.518  0.0122  0.1121  0.0075
 2355W        W 3352   0.094   0.051   2.306 -0.0803 -0.1721  0.1368
 2356W        W 3353   6.079   4.333   2.500  0.3613  0.0646  0.2061
 2357W        W 3354   6.299   0.461   5.828  0.2942 -0.1238  0.0597
 2358W        W 3355   4.879   5.365   6.486 -0.4486 -0.0898 -0.0340
 2359W        W 3356   4.208   6.690   0.459 -0.2793 -0.0130  0.2209
 2360W        W 3357   6.865   0.401   2.797  0.0844  0.0765  0.0757
 2361W        W 3358   4.129   1.930   0.577 -0.3074 -0.3738  0.1011
 2362W        W 3359   0.554   7.040   4.672 -0.1160  0.1474  0.0125
 2363W        W 3360   4.578   4.589   4.351  0.0626 -0.3556 -0.0246
 2364W        W 3361   4.679   4.695   1.291  0.3783 -0.1376 -0.0755
 2365W        W 3362   6.538   0.889   5.920  0.0272 -0.1825  0.3943
 2366W        W 3363   7.595   2.630   1.022 -0.0002  0.0558 -0.3378
 2367W        W 3364   0.621   2.802   5.663  0.2059 -0.0192  0.2796
 2368W        W 3365   4.921   4.103   5.686 -0.1774 -0.3626 -0.1393
 2369W        W 3366   6.769   7.107   5.283 -0.1071  0.3225  0.0047
 2370W        W 3367   5.554   4.561   4.246  0.2844 -0.0148  0.0517
 2371W        W 3368   1.558   4.450   5.955  0.0674  0.0868  0.1238
 2372W        W 3369   5.721   3.502   0.329 -0.2035 -0.1541 -0.2135
 2373W        W 3370   3.359   1.861   7.549 -0.0769  0.3053  0.2065
 2374W        W 3371   5.454   0.372   2.602  0.1728 -0.2898  0.2868
 2375W        W 3372   0.170   1.394   2.785 -0.0131 -0.2719 -0.1194
 2376W        W 3373   5.535   1.158   4.993  0.1980  0.2416  0.0729
 2377W        W 3374   4.405   7.215   6.696  0.0095 -0.0484  0.0617
 2378W        W 3375   2.083   3.021   5.127  0.4392  0.1675  0.0208
 2379W        W 3376   5.868   2.582   0.463 -0.2309 -0.2074  0.0244
 2380W        W 3377   3.597   5.918   0.840 -0.0601  0.1310 -0.2646
 2381W        W 3378   1.490   3.074   3.237  0.0620 -0.5280 -0.1587
 2382W        W 3379   3.730   2.868   6.479 -0.1899  0.1580  0.0037
 2383W        W 3380   4.912   7.499   3.252  0.0226  0.3689  0.4177
 2384W        W 3381   3.899   4.986   0.624 -0.2206  0.2390 -0.2617
 2385W        W 3382   5.456   2.308   2.038 -0.2421  0.2342  0.0208
 2386W        W 3383   5.251   5.218   0.764 -0.0966 -0.2414 -0.0256
 2387W        W 3384   0.542   1.925   2.161 -0.1050 -0.0654 -0.1395
 2388W        W 3385   6.952   4.657   3.711  0.4813 -0.1752 -0.0146
 2389W        W 3386   2.777   3.326   7.264  0.3234  0.1333 -0.4113
 2390W        W 3387   4.756   4.825   5.614 -0.1841 -0.0490  0.1718
 2391W        W 3388   3.274   4.640   4.436 -0.1507  0.2377  0.0979
 2392W        W 3389   5.918   5.850   4.876  0.0453 -0.0342  0.0416
 2393W        W 3390   7.293   5.300   7.298 -0.3088  0.0619  0.0036
 2394W        W 3391   3.731   6.108   6.036 -0.4415  0.1697 -0.2744
 2395W        W 3392   1.064   4.454   6.207  0.0800 -0.1775 -0.0126
 2396W        W 3393   0.158   3.085   2.825  0.1892  0.0695  0.2843
 2397W        W 3394   4.470   2.855   6.273 -0.2673 -0.2036  0.0167
 2398W        W 3395   2.290   6.327   4.578  0.2925  0.0950 -0.2370
 2399W        W 3396   5.387   4.362   1.264 -0.0732 -0.0702  0.1734
 2400W        W 3397   7.602   3.242   1.050 -0.3709  0.1145 -0.0816
 2401W        W 3398   5.200   3.525   0.286 -0.2845  0.1075 -0.1309
 2402W        W 3399   0.368   6.091   4.678  0.0582  0.0179 -0.0541
 2403W        W 3400   4.008   6.831   4.432  0.0048 -0.1362  0.1824
 2404W        W 3401   4.207   2.740   4.149  0.0891 -0.0414 -0.3029
 2405W        W 3402   6.029   4.832   2.320  0.1366  0.0249 -0.0776
 2406W        W 3403   4.646   0.867   5.235 -0.0514  0.2019 -0.3775
 2407W        W 3404   0.702   1.182   6.129  0.2680  0.0425  0.1336
 2408W        W 3405   2.556   6.010   7.468  0.2634 -0.1404  0.1022
 2409W        W 3406   2.591   5.348   6.542 -0.4030  0.0710  0.0265
 2410W        W 3407   0.225   5.854   1.947  0.2127  0.0137 -0.1699
 2411W        W 3408   5.286   0.551   2.025 -0.1940  0.1666 -0.1509
 2412W        W 3409   0.537   1.542   3.611  0.0606 -0.0431  0.2290
 2413W        W 3410   6.342   4.523   1.522  0.3014 -0.2959  0.0440
 2414W        W 3411   6.291   7.259   2.217  0.1073  0.0566  0.0841
 2415W        W 3412   7.128   6.501   2.338 -0.0663 -0.1526 -0.2913
 2416W        W 3413   3.124   6.943   2.883 -0.1786 -0.1726 -0.1444
 2417W        W 3414   6.169   3.809   4.311  0.0656 -0.0522  0.1910
 2418W        W 3415   3.231   3.258   3.770  0.0854  0.0171 -0.2706
 2419W        W 3416   7.303   2.893   3.701 -0.1007 -0.2443 -0.0613
 2420W        W 3417   1.474   5.209   5.235 -0.1111  0.3584 -0.2289
 2421W        W 3418   1.034   3.627   6.007  0.0817  0.1043 -0.3544
 2422W        W 3419   6.040   1.844   3.356  0.0917 -0.3122 -0.3008
 2423W        W 3420   3.035   5.491   1.498 -0.0983 -0.0092  0.3672
 2424W        W 3421   3.477   0.055   0.844  0.0039 -0.0804  0.1005
 2425W        W 3422   7.595   3.841   6.893 -0.1004  0.4165  0.1070
 2426W        W 3423   0.057   0.540   6.645  0.0077  0.1862  0.0225
 2427W        W 3424   6.498   4.919   5.646  0.2818 -0.0158  0.0866
 2428W        W 3425   4.879   5.480   7.544 -0.0173 -0.1220 -0.1607
 2429W        W 3426   2.788   3.916   2.113 -0.1747  0.3979  0.1174
 2430W        W 3427   2.651   6.793   2.937 -0.0165 -0.2956 -0.1401
 2431W        W 3428   0.292   2.721   4.276  0.1163  0.2527 -0.3568
 2432W        W 3429   5.261   7.192   6.199  0.1689  0.0060  0.1849
 2433W        W 3430   7.460   0.336   4.072  0.3532  0.0979  0.0758
 2434W        W 3431   5.233   6.163   3.802  0.1401 -0.1221  0.0199
 2435W        W 3432   6.409   1.823   7.060 -0.1241 -0.0860  0.0054
 2436W        W 3433   0.338   3.983   4.646  0.0635  0.2429 -0.0243
 2437W        W 3434   0.937   6.610   1.266  0.0719  0.0206 -0.2526
 2438W        W 3435   4.365   1.136   5.992  0.0646 -0.2609 -0.0593
 2439W        W 3436   5.828   6.057   1.207  0.2485  0.1280  0.1667
 2440W        W 3437   3.050   0.112   5.400 -0.0004  0.0903 -0.3137
 2441W        W 3438   0.451   5.216   0.615  0.4377  0.1669  0.2285
 2442W        W 3439   0.928   4.833   0.015  0.0236 -0.0506  0.2314
 2443W        W 3440   0.109   4.328   6.167 -0.0219 -0.3135 -0.1336
 2444W        W 3441   4.384   4.949   2.071  0.0906  0.0590 -0.0822
 2445W        W 3442   5.520   5.575   2.898  0.1488  0.0091  0.0674
 2446W        W 3443   5.558   0.487   6.045 -0.3385  0.1725  0.1046
 2447W        W 3444   4.179   6.132   0.974 -0.2524  0.3110  0.0690
 2448W        W 3445   7.264   2.675   2.928  0.0255 -0.1160  0.1831
 2449W        W 3446   7.629   6.575   3.220 -0.1283  0.0575 -0.2736
 2450W        W 3447   0.043   2.195   0.157  0.0851  0.0835  0.1971
 2451W        W 3448   5.412   5.256   2.179  0.0136 -0.0251 -0.1605
 2452W        W 3449   0.647   4.578   5.957 -0.2295 -0.4586 -0.0445
 2453W        W 3450   6.141   2.829   5.363 -0.0138 -0.0128 -0.1194
 2454W        W 3451   1.586   3.682   1.588 -0.1496 -0.0885  0.0818
 2455W        W 3452   0.532   6.776   7.075  0.1322  0.2026  0.1119
 2456W        W 3453   0.644   4.087   6.066 -0.0861  0.0590  0.1224
 2457W        W 3454   5.211   2.202   6.880  0.0255 -0.0356  0.0151
 2458W        W 3455   4.828   2.343   4.826 -0.1054  0.0323 -0.1834
 2459W        W 3456   6.772   4.397   7.013 -0.0146  0.1614 -0.2466
 2460W        W 3457   1.264   3.421   1.938  0.1600 -0.0906  0.1095
 2461W        W 3458   5.638   2.516   1.498 -0.4031  0.1778 -0.1665
 2462W        W 3459   3.905   0.980   4.156 -0.0210 -0.2524 -0.2633
 2463W        W 3460   4.890   3.534   5.655 -0.0434 -0.2144 -0.1498
 2464W        W 3461   2.873   7.284   7.595  0.1211  0.0809  0.1833
 2465W        W 3462   2.421   5.959   4.957 -0.0412  0.3508  0.2188
 2466W        W 3463   6.697   3.567   0.029  0.1327  0.1152 -0.0072
 2467W        W 3464   5.877   4.469   5.977 -0.1635 -0.1603 -0.1273
 2468W        W 3465   6.141   3.762   1.514  0.0315  0.3093  0.0315
 2469W        W 3466   7.538   1.897   6.354 -0.1248  0.1677 -0.2668
 2470W        W 3467   7.218   4.105   7.097  0.0110  0.2144  0.1289
 2471W        W 3468   7.029   1.665   0.828 -0.2379  0.0205 -0.1133
 2472W        W 3469   6.356   6.940   1.842  0.1956 -0.2225 -0.1780
 2473W        W 3470   2.721   4.102   0.039  0.2557  0.0243  0.3213
 2474W        W 3471   2.558   7.318   2.893 -0.0669  0.0512 -0.2311
 2475W        W 3472   2.894   4.568   2.770  0.1996 -0.0436  0.0970
 2476W        W 3473   6.458   1.960   1.385 -0.3711  0.0379 -0.2745
 2477W        W 3474   6.732   4.530   6.485 -0.1142 -0.2525  0.1534
 2478W        W 3475   4.947   5.380   4.160  0.0754 -0.2218  0.1692
 2479W        W 3476   7.261   4.753   4.113 -0.4463 -0.0335  0.3348
 2480W        W 3477   4.619   5.049   7.324 -0.0026 -0.0678 -0.1696
 2481W        W 3478   2.920   2.390   7.411 -0.0381  0.3865 -0.0911
 2482W        W 3479   5.688   1.433   7.406 -0.0339  0.1431 -0.0156
 2483W        W 3480   1.600   7.034   7.098  0.1055 -0.2596 -0.2063
 2484W        W 3481   2.996   0.698   4.749 -0.0467  0.1076  0.2081
 2485W        W 3482   7.494   5.523   6.843  0.1374 -0.3418 -0.1078
 2486W        W 3483   6.721   3.282   5.786 -0.2742  0.3589  0.0708
 2487W        W 3484   4.482   2.183   1.193 -0.0745  0.2794  0.2095
 2488W        W 3485   7.294   1.386   2.026  0.1793  0.0910 -0.2216
 2489W        W 3486   6.217   2.814   6.276 -0.1623 -0.1031  0.0717
 2490W        W 3487   7.307   6.355   6.533 -0.1378 -0.2325  0.0552
 2491W        W 3488   4.929   3.520   1.274 -0.3250 -0.1239  0.1576
 2492W        W 3489   6.343   1.411   1.455 -0.0739 -0.0937 -0.0601
 2493W        W 3490   4.467   3.698   4.458  0.0027 -0.2518  0.0757
 2494W        W 3491   5.145   3.954   7.293  0.0187  0.0615  0.1120
 2495W        W 3492   4.539   2.263   5.877  0.1158  0.0774 -0.0775
 2496W        W 3493   0.340   7.306   6.088 -0.2710  0.0034 -0.0595
 2497W        W 3494   2.673   3.551   0.835 -0.1041 -0.1895  0.1279
 2498W        W 3495   6.846   2.058   4.306 -0.2396 -0.0280 -0.0115
 2499W        W 3496   7.248   6.985   5.186  0.0336 -0.0318  0.0301
 2500W        W 3497   2.840   4.421   4.528 -0.0287  0.1748 -0.2995
 2501W        W 3498   4.977   1.933   7.641 -0.0577 -0.3148 -0.0212
 2502W        W 3499   5.780   2.184   7.216  0.0386  0.1439  0.1465
 2503W        W 3500   6.872   3.280   1.583  0.0717  0.0649 -0.0919
 2504W        W 3501   0.486   3.293   7.614  0.0032 -0.0281  0.0166
 2505W        W 3502   6.972   4.468   2.745 -0.1885  0.0001 -0.2213
 2506W        W 3503   7.577   4.961   0.494 -0.1883  0.0106  0.1236
 2507W        W 3504   5.487   6.719   5.479  0.0918  0.1147 -0.2166
 2508W        W 3505   5.264   2.056   3.818 -0.0219  0.1675 -0.0632
 2509W        W 3506   2.387   1.909   5.098 -0.2551 -0.0202 -0.2956
 2510W        W 3507   3.537   6.112   3.894  0.2411 -0.1211 -0.0281
 2511W        W 3508   2.046   6.048   7.632  0.2562 -0.0620 -0.0042
 2512W        W 3509   5.065   4.822   1.100  0.0928  0.1127  0.0600
 2513W        W 3510   1.540   2.212   6.835 -0.1755 -0.0359 -0.1769
 2514W        W 3511   7.587   3.421   3.144  0.0616  0.0101 -0.4083
 2515W        W 3512   7.398   1.877   3.038  0.0612 -0.0350  0.0924
 2516W        W 3513   0.550   5.572   7.256  0.1159  0.0059 -0.2705
 2517W        W 3514   5.300   3.883   5.445  0.1822  0.0109  0.1180
 2518W        W 3515   3.560   3.172   5.238 -0.0312  0.0965 -0.2061
 2519W        W 3516   6.524   4.837   2.417  0.4331  0.1533 -0.2013
 2520W        W 3517   3.630   4.718   2.126 -0.0482  0.1336  0.2809
 2521W        W 3518   4.535   2.789   0.256  0.0728  0.0260 -0.1301
 2522W        W 3519   2.182   5.524   4.963 -0.2404 -0.0865 -0.2936
 2523W        W 3520   5.494   4.838   6.159  0.3158  0.2245  0.0687
 2524W        W 3521   5.954   0.237   6.140  0.0284 -0.0832 -0.0202
 2525W        W 3522   7.096   3.131   0.405  0.0850 -0.1746 -0.1830
 2526W        W 3523   3.160   7.479   3.563 -0.1523 -0.1606  0.0973
 2527W        W 3524   3.303   0.519   0.989 -0.0625 -0.0255 -0.0328
 2528W        W 3525   3.125   5.335   0.515 -0.2137 -0.1472 -0.0302
 2529W        W 3526   2.808   4.243   6.374  0.1973  0.1883  0.1655
 2530W        W 3527   1.776   6.425   0.934 -0.3558 -0.1851  0.3033
 2531W        W 3528   6.651   0.575   2.103  0.1326 -0.1164  0.2568
 2532W        W 3529   0.542   0.587   7.333 -0.0359  0.1538  0.0999
 2533W        W 3530   6.610   7.198   6.172  0.3394  0.1799 -0.1024
 2534W        W 3531   7.575   6.259   4.552 -0.1668 -0.2124 -0.1158
 2535W        W 3532   3.736   3.166   6.853  0.1655 -0.0790 -0.3520
 2536W        W 3533   3.062   0.120   3.957  0.2911 -0.1182 -0.0527
 2537W        W 3534   3.459   2.345   3.506 -0.1721  0.0240 -0.1763
 2538W        W 3535   0.877   0.353   7.645 -0.1295 -0.4046  0.1273
 2539W        W 3536   2.762   4.863   5.582 -0.4959  0.1037 -0.2085
 2540W        W 3537   0.330   0.861   5.906 -0.0025  0.4341 -0.0984
 2541W        W 3538   7.156   1.418   3.313 -0.3355  0.1980 -0.2391
 2542W        W 3539   7.416   6.955   0.653 -0.0369  0.2525  0.1334
 2543W        W 3540   2.313   2.713   4.863 -0.1820  0.0895  0.0538
 2544W        W 3541   1.246   3.007   0.947 -0.1261  0.1158 -0.2687
 2545W        W 3542   4.758   6.913   5.711 -0.2961  0.4718 -0.3098
 2546W        W 3543   0.268   6.375   7.039  0.0417  0.1763 -0.0240
 2547W        W 3544   4.536   4.421   2.748  0.3203  0.2005  0.1849
 2548W        W 3545   5.967   7.234   2.626 -0.2214 -0.1869  0.1747
 2549W        W 3546   1.456   7.342   5.974  0.1699 -0.2496  0.0241
 2550W        W 3547   3.060   3.942   0.726  0.1545 -0.0320 -0.0450
 2551W        W 3548   7.160   1.538   5.093  0.0277  0.0665 -0.1629
 2552W        W 3549   7.149   0.994   5.028 -0.0061 -0.2982  0.0441
 2553W        W 3550   1.905   3.322   4.199  0.0818 -0.0500  0.0150
 2554W        W 3551   4.310   2.299   3.582  0.3294 -0.0616  0.2920
 2555W        W 3552   1.981   6.599   5.437  0.0470  0.0211  0.1101
 2556W        W 3553   4.068   2.558   6.013 -0.1569 -0.3305 -0.2556
 2557W        W 3554   0.509   0.905   6.876 -0.0418  0.0040 -0.1032
 2558W        W 3555   3.273   4.254   2.843 -0.0586 -0.2388 -0.2944
 2559W        W 3556   1.941   3.587   0.107 -0.1966 -0.4849  0.0673
 2560W        W 3557   1.830   1.806   6.042  0.1248 -0.0046 -0.0809
 2561W        W 3558   5.208   0.904   1.052  0.1049  0.1204 -0.1010
 2562W        W 3559   5.851   5.619   5.297 -0.3390  0.1392 -0.0293
 2563W        W 3560   0.280   6.741   0.533  0.2306  0.1440  0.2341
 2564W        W 3561   5.080   6.522   1.066  0.0630 -0.0595 -0.1233
 2565W        W 3562   5.919   4.237   1.378  0.1279 -0.0675  0.0044
 2566W        W 3563   5.416   5.760   0.637  0.3560 -0.2305 -0.2620
 2567W        W 3564   0.350   1.701   6.324 -0.0210 -0.0062  0.1087
 2568W        W 3565   0.094   0.791   4.933 -0.0187 -0.1990  0.1462
 2569W        W 3566   0.243   4.265   0.170 -0.0113 -0.1438 -0.2615
 2570W        W 3567   4.083   4.445   6.785 -0.0368 -0.1330  0.0199
 2571W        W 3568   7.079   2.748   4.942 -0.3870 -0.2876 -0.0470
 2572W        W 3569   0.467   3.487   5.010 -0.0896 -0.1418  0.1982
 2573W        W 3570   6.855   4.488   4.144 -0.3268  0.2183 -0.1934
 2574W        W 3571   3.737   2.480   6.796  0.0147  0.3947  0.0637
 2575W        W 3572   2.892   5.483   4.235 -0.0572 -0.2321  0.2481
 2576W        W 3573   7.211   3.755   4.038  0.0891  0.0082 -0.0012
 2577W        W 3574   2.625   4.612   1.280  0.0966  0.0547  0.2501
 2578W        W 3575   3.685   7.235   0.733  0.1251  0.2831 -0.1966
 2579W        W 3576   2.478   3.980   4.641  0.0142 -0.1489 -0.0384
 2580W        W 3577   4.422   7.582   4.478 -0.0773 -0.5318  0.3888
 2581W        W 3578   4.614   5.921   7.557 -0.0797  0.2081  0.2126
 2582W        W 3579   0.973   0.726   6.519  0.0317 -0.1906  0.1710
 2583W        W 3580   3.714   4.237   0.044 -0.0579  0.2290  0.1598
 2584W        W 3581   4.190   3.015   6.625 -0.0216 -0.2099 -0.1641
 2585W        W 3582   0.825   4.076   5.557 -0.1747 -0.0220 -0.0708
 2586W        W 3583   5.087   4.919   6.485 -0.0805 -0.2508  0.1015
 2587W        W 3584   7.220   2.403   4.449 -0.1634  0.0999  0.1727
 2588W        W 3585   0.541   6.646   6.574  0.1751 -0.2506 -0.0580
 2589W        W 3586   3.374   0.783   0.134  0.0073  0.1036  0.1306
 2590W        W 3587   6.514   1.973   6.550  0.1308 -0.2253 -0.1702
 2591W        W 3588   0.148   1.487   1.281 -0.0585 -0.0786  0.1057
 2592W        W 3589   6.067   6.374   0.794  0.0613 -0.1713  0.1760
 2593W        W 3590   6.524   7.113   0.686 -0.0473 -0.1335  0.1728
 2594W        W 3591   5.062   1.556   3.735  0.0639 -0.0322 -0.0874
 2595W        W 3592   5.774   3.940   1.742 -0.0136 -0.0734  0.1183
 2596W        W 3593   3.308   6.524   0.111  0.0213  0.0726 -0.0219
 2597W        W 3594   5.249   0.993   3.951 -0.1689 -0.2424 -0.0152
 2598W        W 3595   4.672   5.982   3.088 -0.0893 -0.0494  0.0942
 2599W        W 3596   5.383   6.196   6.924  0.2696 -0.1060  0.0304
 2600W        W 3597   7.079   4.093   3.690  0.0288 -0.1228  0.2536
 2601W        W 3598   1.739   5.191   1.575 -0.1505 -0.1462 -0.2057
 2602W        W 3599   7.095   3.010   2.302  0.2195  0.0380  0.0201
 2603W        W 3600   3.549   0.498   6.243  0.2137  0.3085  0.1239
 2604W        W 3601   4.867   4.381   5.252  0.1819  0.1566 -0.0859
 2605W        W 3602   1.146   1.714   0.399 -0.0961 -0.2418 -0.0710
 2606W        W 3603   4.063   0.609   5.015 -0.0426 -0.1200  0.0582
 2607W        W 3604   6.214   1.474   2.616  0.2129  0.1694  0.0809
 2608W        W 3605   6.633   2.871   1.398 -0.1134 -0.0888  0.2330
 2609W        W 3606   6.192   1.189   6.203 -0.5468 -0.0530  0.2403
 2610W        W 3607   4.441   5.611   6.336 -0.1843 -0.0012  0.0870
 2611W        W 3608   4.315   7.632   0.386  0.1290  0.1350  0.0257
 2612W        W 3609   6.897   0.604   6.652 -0.0777 -0.1718 -0.0846
 2613W        W 3610   0.982   1.832   1.385  0.2967  0.0956 -0.3123
 2614W        W 3611   6.307   2.540   4.862  0.0505 -0.0295 -0.2662
 2615W        W 3612   1.476   6.918   6.232 -0.0549  0.2321  0.0664
 2616W        W 3613   7.585   5.795   4.670 -0.1457 -0.0189  0.0204
 2617W        W 3614   6.374   6.768   5.956  0.0714  0.1074  0.2874
 2618W        W 3615   7.148   5.509   6.429  0.0666  0.0207 -0.1800
 2619W        W 3616   0.744   2.368   7.089  0.1097  0.1388 -0.0582
 2620W        W 3617   5.155   1.017   1.850  0.0067  0.1949 -0.1556
 2621W        W 3618   0.187   1.337   6.005  0.3837  0.2599  0.2608
 2622W        W 3619   4.961   6.251   7.524 -0.2550 -0.1757 -0.0474
 2623W        W 3620   3.601   5.459   3.715  0.0651  0.5073 -0.0456
 2624W        W 3621   4.253   1.268   7.498  0.1527 -0.2125  0.0214
 2625W        W 3622   4.405   6.878   7.085 -0.0554  0.1274  0.1315
 2626W        W 3623   2.567   5.601   1.684 -0.2737 -0.0140 -0.2701
 2627W        W 3624   2.147   4.748   0.417 -0.0653 -0.0718  0.1770
 2628W        W 3625   1.128   1.460   5.945 -0.1582 -0.0320  0.1273
 2629W        W 3626   7.408   3.776   5.685  0.0081  0.0224 -0.1292
 2630W        W 3627   6.131   6.042   5.297 -0.1652  0.1842 -0.0895
 2631W        W 3628   7.232   7.571   2.039  0.0660  0.3922  0.0424
 2632W        W 3629   5.628   2.838   6.282 -0.2820 -0.4035  0.1703
 2633W        W 3630   7.575   5.164   0.069  0.1505 -0.1400  0.1770
 2634W        W 3631   2.928   4.977   7.254  0.0200  0.0748 -0.2089
 2635W        W 3632   1.830   4.989   2.039 -0.0023  0.1481  0.1571
 2636W        W 3633   1.850   1.683   6.537  0.1705 -0.1090  0.0046
 2637W        W 3634   1.592   3.029   1.961  0.0625 -0.3172  0.1627
 2638W        W 3635   1.843   4.468   2.307  0.2841 -0.1153 -0.3126
 2639W        W 3636   0.915   5.748   5.875 -0.3325  0.2652 -0.0106
 2640W        W 3637   4.858   3.174   0.276 -0.0859  0.2617 -0.1417
 2641W        W 3638   6.649   2.035   5.136 -0.1456 -0.1456 -0.0192
 2642W        W 3639   6.424   5.011   1.460 -0.0704 -0.2317 -0.0950
 2643W        W 3640   1.843   3.075   6.846  0.1607  0.1087 -0.0656
 2644W        W 3641   6.865   3.977   5.120  0.0649 -0.0104  0.1275
 2645W        W 3642   4.177   7.045   7.509  0.0929  0.1192  0.1594
 2646W        W 3643   6.956   4.382   0.732 -0.1524  0.0008  0.0243
 2647W        W 3644   2.196   3.479   4.938 -0.0701 -0.0540 -0.3519
 2648W        W 3645   7.475   0.220   1.057  0.0125  0.0178  0.2251
 2649W        W 3646   5.601   3.553   3.941 -0.0464  0.2184 -0.2419
 2650W        W 3647   6.279   1.540   3.661 -0.1190 -0.0817 -0.1468
 2651W        W 3648   5.719   0.727   3.731 -0.0933  0.2015  0.1039
 2652W        W 3649   7.380   3.216   5.549 -0.3656 -0.0834 -0.1807
 2653W        W 3650   0.048   2.787   0.137 -0.2063 -0.0686  0.1168
 2654W        W 3651   1.178   2.672   3.206  0.0551  0.3046 -0.0423
 2655W        W 3652   6.825   2.252   2.220 -0.1026 -0.2968  0.0383
 2656W        W 3653   1.004   5.113   5.805 -0.1523  0.0206  0.1136
 2657W        W 3654   7.396   4.249   5.433  0.2602  0.1966 -0.2705
 2658W        W 3655   2.367   6.186   1.828  0.0234 -0.0189 -0.0190
 2659W        W 3656   3.764   7.410   5.309 -0.4060  0.1578  0.0107
 2660W        W 3657   5.975   6.592   1.774 -0.2680 -0.1548  0.0238
 2661W        W 3658   4.670   1.769   3.474  0.0299  0.0138 -0.0254
 2662W        W 3659   6.110   3.088   4.953 -0.0141 -0.1220 -0.0064
 2663W        W 3660   1.456   5.699   7.600 -0.1106  0.1426  0.5542
 2664W        W 3661   3.820   6.637   0.094  0.0365  0.0260  0.1649
 2665W        W 3662   1.271   3.105   2.810  0.0286 -0.1035 -0.3101
 2666W        W 3663   0.617   2.202   2.802  0.2859  0.1015 -0.1145
 2667W        W 3664   6.026   6.509   5.094 -0.2199 -0.1529 -0.0727
 2668W        W 3665   7.594   6.060   5.480 -0.1659 -0.1404 -0.2161
 2669W        W 3666   7.490   0.133   5.356 -0.4094  0.1108 -0.0517
 2670W        W 3667   6.948   5.468   5.186  0.1604 -0.2430 -0.0373
 2671W        W 3668   3.779   7.349   2.654 -0.1432 -0.3365 -0.1300
 2672W        W 3669   5.784   0.161   0.656 -0.4572 -0.1198 -0.0477
 2673W        W 3670   0.355   3.810   0.046  0.0715 -0.0976 -0.0532
 2674W        W 3671   6.646   0.039   3.073 -0.0647 -0.0045  0.2714
 2675W        W 3672   0.536   6.208   5.982  0.1339 -0.0899 -0.1037
 2676W        W 3673   4.371   1.054   7.052 -0.2321  0.2066  0.1111
 2677W        W 3674   4.476   3.132   7.585 -0.0047 -0.1604  0.1436
 2678W        W 3675   4.120   5.099   4.464  0.2324  0.0246  0.0844
 2679W        W 3676   6.582   3.028   4.149 -0.0921 -0.0577 -0.0237
 2680W        W 3677   1.550   4.006   0.068  0.1298 -0.1585  0.2447
 2681W        W 3678   6.668   3.760   4.198 -0.1265 -0.1671  0.1912
 2682W        W 3679   6.414   3.342   4.589 -0.2065 -0.3267  0.0417
 2683W        W 3680   0.425   2.992   6.610  0.2013 -0.2047 -0.2047
 2684W        W 3681   5.725   7.459   4.972 -0.1026 -0.0526  0.0392
 2685W        W 3682   7.299   0.054   4.414 -0.1425 -0.0533  0.2624
 2686W        W 3683   4.151   0.099   2.613  0.0208 -0.3608  0.1797
 2687W        W 3684   4.358   5.450   6.801 -0.1058 -0.1625  0.1073
 2688W        W 3685   6.025   7.328   6.106  0.2781  0.0019  0.0982
 2689W        W 3686   4.577   7.083   3.220  0.1789 -0.0064  0.2955
 2690W        W 3687   5.926   3.296   5.449 -0.1219  0.0352  0.0411
 2691W        W 3688   0.690   0.051   7.298  0.0046  0.2536  0.2364
 2692W        W 3689   0.975   5.385   0.887  0.0369  0.2029 -0.0721
 2693W        W 3690   6.147   0.628   0.732  0.0952 -0.3087  0.2620
 2694W        W 3691   2.545   1.906   4.588  0.1600 -0.4978 -0.0061
 2695W        W 3692   2.126   4.297   5.670 -0.0004  0.1078 -0.1300
 2696W        W 3693   6.671   2.625   5.290 -0.2668 -0.1356 -0.1167
 2697W        W 3694   3.447   5.944   5.653 -0.2072 -0.3112 -0.0848
 2698W        W 3695   4.771   7.387   5.926  0.1168 -0.0310  0.0797
 2699W        W 3696   6.602   3.627   6.568 -0.0687 -0.3628 -0.0068
 2700W        W 3697   5.274   5.413   0.260 -0.1301  0.2491 -0.0287
 2701W        W 3698   5.548   6.455   6.398  0.0895 -0.2239  0.3032
 2702W        W 3699   2.924   5.211   5.247 -0.0128  0.2927  0.1841
 2703W        W 3700   5.561   6.288   5.800 -0.0857 -0.1028  0.1027
 2704W        W 3701   5.160   5.079   5.859  0.1310  0.2719 -0.2095
 2705W        W 3702   5.339   4.690   4.763 -0.1328  0.2423  0.0474
 2706W        W 3703   3.886   6.314   0.582  0.2415  0.0938  0.2539
 2707W        W 3704   6.493   0.746   3.617 -0.2980 -0.2874  0.0251
 2708W        W 3705   5.920   1.344   5.405 -0.0120  0.2659  0.0367
 2709W        W 3706   5.874   6.644   6.043  0.2956 -0.1709 -0.3908
 2710W        W 3707   7.331   5.789   7.324  0.1357  0.3641 -0.1401
 2711W        W 3708   4.611   1.883   0.776  0.0756  0.0986  0.1611
 2712W        W 3709   4.251   1.171   3.746 -0.1556  0.1859  0.1489
 2713W        W 3710   4.686   5.971   5.242  0.2081 -0.3623  0.1572
 2714W        W 3711   6.700   3.667   1.317 -0.2497 -0.2916 -0.0528
 2715W        W 3712   2.906   1.881   3.010 -0.2495  0.1246 -0.5015
 2716W        W 3713   0.430   5.877   5.625  0.6493  0.2240 -0.0812
 2717W        W 3714   4.033   0.599   2.617 -0.0354  0.1973  0.1834
 2718W        W 3715   1.265   4.737   5.192  0.0939  0.3138 -0.3956
 2719W        W 3716   0.815   2.518   5.250  0.0198 -0.1303  0.0726
 2720W        W 3717   6.310   4.226   3.394  0.1634 -0.1319  0.1839
 2721W        W 3718   2.737   5.308   2.059 -0.1442  0.1069 -0.0523
 2722W        W 3719   6.295   7.222   4.983 -0.1415  0.1119  0.1678
 2723W        W 3720   5.522   4.312   2.259  0.0555 -0.4354  0.0800
 2724W        W 3721   4.742   1.151   3.755  0.1536  0.0585  0.1297
 2725W        W 3722   4.724   1.594   2.108 -0.3007  0.1615  0.0376
 2726W        W 3723   0.762   1.862   5.924  0.1939  0.2372  0.0693
 2727W        W 3724   3.921   3.903   2.779  0.3066 -0.2054  0.1827
 2728W        W 3725   0.070   3.182   2.328  0.2272 -0.1996 -0.1557
 2729W        W 3726   1.161   6.240   7.415  0.1354  0.0466  0.0701
 2730W        W 3727   7.000   0.186   1.104 -0.0854 -0.1055  0.1915
 2731W        W 3728   7.457   6.168   6.990  0.0940  0.0179  0.1641
 2732W        W 3729   5.105   6.802   1.529 -0.0006 -0.0702 -0.0986
 2733W        W 3730   5.472   3.758   0.837 -0.0733 -0.0959 -0.4137
 2734W        W 3731   4.325   3.500   5.369  0.1061 -0.0958 -0.3373
 2735W        W 3732   3.807   0.488   4.198 -0.1363 -0.1782 -0.0306
 2736W        W 3733   6.975   2.594   4.052 -0.0252 -0.0467  0.3630
 2737W        W 3734   0.583   1.702   3.025  0.1315  0.0721  0.2376
 2738W        W 3735   3.623   3.292   7.618  0.0216 -0.3563  0.2691
 2739W        W 3736   5.321   2.593   1.176 -0.0541  0.0062  0.4002
 2740W        W 3737   5.326   7.039   0.835 -0.1682  0.1548 -0.2863
 2741W        W 3738   1.497   2.628   3.996  0.0507  0.2534 -0.1617
 2742W        W 3739   7.530   1.098   3.631  0.0951 -0.2261 -0.3225
 2743W        W 3740   5.244   4.772   1.612  0.1820 -0.0977 -0.1752
 2744W        W 3741   0.057   0.288   0.547 -0.2561 -0.1798 -0.1742
 2745W        W 3742   5.122   1.931   5.006 -0.0626 -0.0043 -0.0014
 2746W        W 3743   0.727   4.214   1.039 -0.1199 -0.1152  0.0823
 2747W        W 3744   1.383   2.564   2.076  0.0822  0.0826 -0.0110
 2748W        W 3745   1.807   5.767   0.321  0.0361  0.0327 -0.0717
 2749W        W 3746   2.672   6.377   6.693 -0.0764 -0.0707 -0.1011
 2750W        W 3747   0.065   5.561   1.089 -0.3541 -0.1549 -0.0888
 2751W        W 3748   2.415   6.399   7.149 -0.0622  0.2239 -0.3598
 2752W        W 3749   0.554   3.733   1.611 -0.0561  0.1552 -0.0959
 2753W        W 3750   2.566   6.041   5.834  0.1753 -0.2190 -0.1427
 2754W        W 3751   0.211   7.193   1.610 -0.0957  0.1020 -0.0493
 2755W        W 3752   0.483   0.042   0.634  0.0625 -0.0618 -0.2115
 2756W        W 3753   0.014   4.761   6.624  0.3288 -0.0138 -0.0456
 2757W        W 3754   3.563   6.639   4.320 -0.3569 -0.0104 -0.1050
 2758W        W 3755   5.084   3.697   3.690 -0.2244  0.1249  0.0414
 2759W        W 3756   3.501   6.991   5.565  0.0143 -0.0253 -0.0507
 2760W        W 3757   1.316   7.106   6.647  0.2820  0.2069  0.2283
 2761W        W 3758   1.411   3.243   7.657 -0.3279 -0.0075  0.1227
 2762W        W 3759   6.363   6.712   4.329 -0.1755 -0.1862 -0.0207
 2763W        W 3760   6.223   1.804   0.391  0.0249  0.1408 -0.1650
 2764W        W 3761   5.975   2.075   4.959  0.1179 -0.1266 -0.0544
 2765W        W 3762   4.240   3.271   3.408  0.2407 -0.0846 -0.0898
 2766W        W 3763   6.147   2.454   3.514  0.2275 -0.3042 -0.1983
 2767W        W 3764   3.679   4.108   3.189 -0.1180 -0.1627 -0.2849
 2768W        W 3765   2.282   5.090   0.100 -0.0145  0.2453 -0.0180
 2769W        W 3766   6.722   5.045   0.312  0.0084 -0.0448  0.0836
 2770W        W 3767   7.447   2.847   4.174  0.0444 -0.2090 -0.0022
 2771W        W 3768   0.568   5.368   5.664 -0.1970 -0.0187 -0.0044
 2772W        W 3769   6.556   5.857   5.526 -0.0119  0.0487  0.0345
 2773W        W 3770   4.253   6.304   3.336  0.0041 -0.0776 -0.1309
 2774W        W 3771   5.906   4.601   0.543  0.1242  0.1370 -0.3811
 2775W        W 3772   0.394   5.580   4.705  0.1413  0.0725 -0.0666
 2776W        W 3773   7.329   1.905   5.417 -0.1308 -0.2208 -0.2785
 2777W        W 3774   5.993   6.298   2.534  0.2647  0.1910  0.2176
 2778W        W 3775   5.862   0.610   2.759  0.0301  0.2081  0.1978
 2779W        W 3776   7.394   5.295   5.238 -0.2220  0.2508  0.0808
 2780W        W 3777   3.945   4.146   6.429 -0.1233 -0.0180 -0.1263
 2781W        W 3778   5.606   5.317   5.845  0.2665 -0.0635  0.0808
 2782W        W 3779   5.652   2.474   3.740 -0.1475 -0.0126 -0.1080
 2783W        W 3780   5.474   1.614   6.620  0.0456  0.0376 -0.4850
 2784W        W 3781   3.249   6.027   7.613 -0.0925  0.1151 -0.2648
 2785W        W 3782   7.387   3.429   3.691  0.1647 -0.0966  0.0651
 2786W        W 3783   0.215   1.274   7.021  0.0940 -0.1637 -0.2884
 2787W        W 3784   6.121   0.369   3.780 -0.1754 -0.1015  0.1470
 2788W        W 3785   1.632   2.341   5.229 -0.0917  0.0419  0.0556
 2789W        W 3786   3.363   1.444   5.333 -0.0634  0.0655 -0.2695
 2790W        W 3787   4.705   3.938   2.427 -0.0117  0.1289  0.1240
 2791W        W 3788   3.565   7.161   4.468 -0.0798  0.0228 -0.2612
 2792W        W 3789   6.756   2.155   3.705  0.0030  0.1298 -0.1568
 2793W        W 3790   7.231   3.428   0.792 -0.2171 -0.0512  0.1362
 2794W        W 3791   4.141   5.817   5.193 -0.0674 -0.1189  0.0460
 2795W        W 3792   5.055   1.224   5.856 -0.0843  0.0003 -0.1715
 2796W        W 3793   6.193   6.594   7.582  0.1725  0.2703  0.0122
 2797W        W 3794   1.527   4.899   1.196 -0.0135  0.0669 -0.2586
 2798W        W 3795   5.907   0.022   2.398 -0.1787  0.0812 -0.1038
 2799W        W 3796   1.737   4.467   4.665 -0.4978  0.2257  0.1418
 2800W        W 3797   4.363   1.376   5.162 -0.3858 -0.0750 -0.2049
 2801W        W 3798   4.701   5.124   1.012  0.1489  0.0929  0.0197
 2802W        W 3799   5.842   1.775   3.990  0.0098 -0.2944  0.2476
 2803W        W 3800   1.890   2.513   6.109  0.3288  0.1522  0.0841
 2804W        W 3801   2.278   3.364   0.423 -0.1202 -0.2060 -0.0984
 2805W        W 3802   1.283   6.306   1.019 -0.2717  0.2116 -0.0167
 2806W        W 3803   5.250   1.492   4.712  0.0076 -0.0347  0.1594
 2807W        W 3804   6.124   5.418   4.740 -0.0002  0.1680  0.0607
 2808W        W 3805   7.068   3.191   4.019  0.0427 -0.2379 -0.2700
 2809W        W 3806   0.527   5.155   1.142 -0.2142  0.2340  0.0960
 2810W        W 3807   1.095   0.773   7.445 -0.1032  0.4331 -0.2065
 2811W        W 3808   0.052   3.962   2.943 -0.3604 -0.1464 -0.0581
 2812W        W 3809   0.259   1.173   4.723 -0.0474 -0.3890  0.1018
 2813W        W 3810   6.077   4.868   1.840 -0.1947  0.0719  0.0109
 2814W        W 3811   5.617   3.284   4.978  0.0855 -0.3615  0.1326
 2815W        W 3812   3.474   1.265   5.813 -0.2103 -0.0164 -0.1984
 2816W        W 3813   3.533   0.208   5.266 -0.0263  0.0102  0.4223
 2817W        W 3814   3.751   1.237   6.655  0.3094 -0.0445  0.0418
 2818W        W 3815   7.316   2.036   4.736  0.0288 -0.2119  0.0555
 2819W        W 3816   1.434   3.449   4.523 -0.1712 -0.0378 -0.2813
 2820W        W 3817   5.246   0.102   1.390 -0.0374  0.0230  0.2085
 2821W        W 3818   0.526   0.202   5.148  0.1564  0.1813 -0.1761
 2822W        W 3819   4.842   2.195   3.613 -0.2101 -0.0844 -0.1032
 2823W        W 3820   3.933   5.081   3.583  0.2626 -0.0133 -0.1267
 2824W        W 3821   3.657   7.258   6.686  0.1138  0.0642  0.2642
 2825W        W 3822   6.174   7.388   3.825  0.4953 -0.2246 -0.1226
 2826W        W 3823   7.148   3.853   7.532 -0.0600  0.0555 -0.0298
 2827W        W 3824   5.228   7.125   5.607  0.1812 -0.0890  0.1019
 2828W        W 3825   3.895   6.305   4.321 -0.1239 -0.0589 -0.2298
 2829W        W 3826   6.406   5.060   6.893  0.3145 -0.3512 -0.4091
 2830W        W 3827   6.914   5.478   6.897 -0.0707  0.0990  0.0283
 2831W        W 3828   7.164   6.750   7.030  0.2408 -0.1476 -0.2438
 2832W        W 3829   4.226   6.047   6.122 -0.2082 -0.0069  0.2038
 2833W        W 3830   7.486   2.442   5.112 -0.1147  0.0415 -0.1926
 2834W        W 3831   5.360   1.620   2.819 -0.0701 -0.1019  0.0305
 2835W        W 3832   4.268   3.628   2.446  0.1008  0.1340 -0.3017
 2836W        W 3833   2.300   1.563   4.309  0.0104 -0.1275  0.0409
 2837W        W 3834   6.402   1.663   3.012  0.2736  0.1684  0.1131
 2838W        W 3835   6.272   5.339   2.596 -0.0756  0.2820  0.2341
 2839W        W 3836   6.980   5.609   2.012 -0.0282 -0.0466 -0.1601
 2840W        W 3837   3.768   5.233   3.146 -0.1262 -0.0192  0.0454
 2841W        W 3838   1.141   2.397   2.752  0.0816 -0.2396  0.1557
 2842W        W 3839   0.940   5.779   7.473 -0.0153 -0.0197 -0.5940
 2843W        W 3840   2.301   4.523   4.599  0.1467  0.0834 -0.0037
 2844W        W 3841   4.818   0.831   4.248 -0.0367 -0.0036 -0.0923
 2845W        W 3842   3.275   5.577   2.823 -0.0013  0.1316  0.0649
 2846W        W 3843   2.592   3.902   0.514 -0.0296  0.0380 -0.2834
 2847W        W 3844   4.655   6.755   6.672  0.2087 -0.1948 -0.0657
 2848W        W 3845   5.292   0.970   3.458  0.0931  0.1638 -0.0813
 2849W        W 3846   6.073   3.034   3.290 -0.1992 -0.1398  0.0646
 2850W        W 3847   3.979   5.103   1.850  0.1392  0.0134  0.3376
 2851W        W 3848   1.390   6.765   0.844  0.0887 -0.1077 -0.0746
 2852W        W 3849   6.893   6.714   0.930  0.0934 -0.1826  0.1797
 2853W        W 3850   7.212   2.357   3.644  0.0234 -0.1410  0.1170
 2854W        W 3851   1.946   7.436   7.047 -0.1823  0.1671 -0.2881
 2855W        W 3852   5.377   3.293   6.314  0.0365  0.0982 -0.1228
 2856W        W 3853   6.745   5.408   5.744  0.0399 -0.2311 -0.2463
 2857W        W 3854   0.961   2.014   3.086  0.0811  0.0532 -0.2309
 2858W        W 3855   5.533   0.362   4.043 -0.1117  0.3257 -0.3145
 2859W        W 3856   4.285   4.346   1.299 -0.0822 -0.0414  0.0680
 2860W        W 3857   0.385   1.549   0.757  0.0327 -0.1766 -0.1526
 2861W        W 3858   2.128   5.586   6.576 -0.0810 -0.0665 -0.3048
 2862W        W 3859   0.495   5.909   0.092  0.1099  0.1475  0.0471
 2863W        W 3860   4.312   4.844   1.579  0.0898 -0.1176 -0.0805
 2864W        W 3861   2.339   4.881   4.199 -0.2820 -0.2368 -0.1949
 2865W        W 3862   1.764   7.055   7.589  0.0234  0.1893  0.1586
 2866W        W 3863   4.694   3.976   3.770 -0.0948  0.0181 -0.0018
 2867W        W 3864   2.811   2.145   5.871 -0.0098  0.1842  0.0925
 2868W        W 3865   1.941   6.244   2.846 -0.0123  0.1608  0.3510
 2869W        W 3866   6.165   5.852   2.292 -0.0619  0.3530  0.0666
 2870W        W 3867   5.429   5.210   5.359  0.2125 -0.1536  0.0229
 2871W        W 3868   5.486   1.342   0.829  0.0315 -0.0065  0.0288
 2872W        W 3869   4.993   1.800   1.405 -0.0024  0.0872  0.0334
 2873W        W 3870   7.262   5.679   0.977 -0.1001 -0.2251  0.0815
 2874W        W 3871   0.118   0.717   3.322 -0.2325  0.2475 -0.0965
 2875W        W 3872   4.335   4.793   5.858  0.2695 -0.1433  0.2347
 2876W        W 3873   6.036   5.586   7.530 -0.1530 -0.0045  0.1683
 2877W        W 3874   3.828   0.636   5.402  0.0247 -0.2604  0.3951
 2878W        W 3875   0.435   3.625   6.113  0.0778 -0.1018  0.1053
 2879W        W 3876   6.215   0.426   5.331  0.0007 -0.2923  0.0131
 2880W        W 3877   5.445   1.066   1.461 -0.0181 -0.1356 -0.0701
 2881W        W 3878   6.588   0.498   0.988 -0.0747  0.2181  0.1053
 2882W        W 3879   6.425   0.409   4.612  0.1466  0.0368 -0.2907
 2883W        W 3880   5.206   1.226   6.551 -0.0883  0.0546  0.2782
 2884W        W 3881   5.469   2.520   2.887 -0.3402 -0.0689 -0.1717
 2885W        W 3882   5.719   2.460   2.479  0.0120 -0.0255 -0.2820
 2886W        W 3883   5.232   3.021   4.794  0.1557 -0.1496 -0.1862
 2887W        W 3884   0.613   1.527   4.123 -0.0293 -0.1060  0.1939
 2888W        W 3885   1.021   2.968   5.367 -0.2061 -0.3400 -0.2083
 2889W        W 3886   5.776   3.777   5.732 -0.1666 -0.2368 -0.1103
 2890W        W 3887   6.742   7.263   7.524 -0.1057  0.0085 -0.1056
 2891W        W 3888   0.229   5.430   2.250 -0.0957  0.0970 -0.0504
 2892W        W 3889   2.547   5.486   7.546  0.0372  0.2623 -0.0424
 2893W        W 3890   7.378   0.746   6.311 -0.0777 -0.1603 -0.0527
 2894W        W 3891   5.815   0.843   5.244  0.1847 -0.1546 -0.0672
 2895W        W 3892   1.970   5.948   4.741  0.0736  0.1925  0.1553
 2896W        W 3893   0.958   0.534   7.012  0.3026 -0.0421  0.0704
 2897W        W 3894   3.116   7.431   1.665 -0.3495 -0.0731  0.2564
 2898W        W 3895   6.587   6.582   3.536 -0.1737  0.0676  0.1607
 2899W        W 3896   6.108   6.813   0.506  0.0833 -0.0412  0.0812
 2900W        W 3897   0.130   1.725   6.780  0.3175 -0.2888  0.0746
 2901W        W 3898   1.562   6.526   0.458 -0.0914  0.1078  0.2328
 2902W        W 3899   7.464   3.290   1.919 -0.3008  0.2093 -0.2602
 2903W        W 3900   2.815   6.767   1.149  0.0000 -0.0490  0.1529
 2904W        W 3901   6.893   0.438   7.182 -0.1883 -0.0343  0.2538
 2905W        W 3902   5.749   7.031   5.774  0.0151 -0.3187 -0.1705
 2906W        W 3903   7.532   4.259   7.443 -0.1322 -0.0013  0.0956
 2907W        W 3904   1.139   6.945   5.899 -0.1462 -0.1749 -0.2555
 2908W        W 3905   4.216   2.390   0.196 -0.2631  0.1928  0.3963
 2909W        W 3906   0.120   5.509   5.518  0.2840  0.1065 -0.2909
 2910W        W 3907   1.489   5.178   7.408  0.0329  0.3675 -0.1172
 2911W        W 3908   6.307   4.287   0.212  0.1603  0.1579 -0.0952
 2912W        W 3909   1.198   4.100   5.909 -0.0247  0.0210 -0.2639
 2913W        W 3910   3.127   3.473   6.148 -0.0560 -0.0307  0.2245
 2914W        W 3911   0.071   6.151   4.093 -0.0762 -0.1253 -0.1389
 2915W        W 3912   2.249   4.054   0.137 -0.0997  0.2463  0.2335
 2916W        W 3913   7.496   5.439   2.023 -0.0424  0.2067 -0.1227
 2917W        W 3914   6.782   3.312   2.553 -0.2233  0.0587  0.1076
 2918W        W 3915   4.152   0.796   0.215 -0.0816 -0.1345 -0.2080
 2919W        W 3916   1.739   5.993   6.743 -0.1564  0.1243  0.2497
 2920W        W 3917   6.948   7.503   0.301  0.0573  0.3430 -0.1716
 2921W        W 3918   0.833   6.269   6.380 -0.0891 -0.1702 -0.2328
 2922W        W 3919   3.898   7.344   4.020  0.2130 -0.0453 -0.0462
 2923W        W 3920   5.889   5.122   5.455  0.1798 -0.1258 -0.3059
 2924W        W 3921   2.992   5.712   6.710  0.1600 -0.1003 -0.0625
 2925W        W 3922   2.537   1.350   2.907 -0.1438  0.1301 -0.1057
 2926W        W 3923   4.414   4.305   1.758 -0.0418 -0.1012 -0.2463
 2927W        W 3924   6.907   3.088   5.323  0.1323 -0.0982 -0.0457
 2928W        W 3925   1.770   5.570   5.470  0.0897  0.0271  0.0566
 2929W        W 3926   2.805   4.910   2.397  0.2922 -0.2684  0.3665
 2930W        W 3927   1.887   6.547   3.313 -0.1294  0.0309  0.3470
 2931W        W 3928   2.668   7.273   1.771  0.0244  0.2407 -0.0138
 2932W        W 3929   5.092   2.674   6.928  0.3401  0.1136 -0.1891
 2933W        W 3930   6.243   7.413   2.970  0.0073  0.1674  0.1365
 2934W        W 3931   5.917   3.228   6.330 -0.0132  0.0047  0.0292
 2935W        W 3932   7.644   7.289   2.041 -0.1571  0.3097 -0.0050
 2936W        W 3933   6.816   2.325   1.453  0.0308  0.0373 -0.0338
 2937W        W 3934   1.939   6.214   0.434  0.2566 -0.2420 -0.2439
 2938W        W 3935   0.210   4.837   2.880  0.1092  0.1635  0.1030
 2939W        W 3936   6.322   2.657   1.786  0.1255  0.0488  0.0461
 2940W        W 3937   6.954   4.486   5.460  0.0796 -0.0198  0.1504
 2941W        W 3938   2.114   4.813   6.342 -0.1699 -0.3511  0.0124
 2942W        W 3939   6.487   4.579   2.896 -0.2643  0.0413  0.1237
 2943W        W 3940   4.230   4.181   2.485  0.0587 -0.0509 -0.0374
 2944W        W 3941   7.223   6.555   4.684  0.1831 -0.2690 -0.2234
 2945W        W 3942   0.965   0.040   6.845 -0.2149  0.0835 -0.0348
 2946W        W 3943   5.554   1.276   2.033  0.2903  0.2078 -0.2030
 2947W        W 3944   2.983   3.723   1.219 -0.2077  0.2933 -0.0956
 2948W        W 3945   5.052   5.409   1.142 -0.1904 -0.1180 -0.0938
 2949W        W 3946   1.208   0.191   7.333  0.2630 -0.1882  0.2340
 2950W        W 3947   6.748   1.753   3.331 -0.1736 -0.0737 -0.0163
 2951W        W 3948   4.734   4.715   1.799  0.1762 -0.0095 -0.1659
 2952W        W 3949   6.632   7.565   0.743 -0.1155  0.2747 -0.1455
 2953W        W 3950   6.089   5.320   2.121  0.2515  0.0005 -0.0312
 2954W        W 3951   5.786   1.866   5.426 -0.1090  0.1220 -0.3014
 2955W        W 3952   3.425   7.474   5.649 -0.2818 -0.2091  0.3296
 2956W        W 3953   3.722   5.754   2.980  0.0266 -0.1347  0.1537
 2957W        W 3954   0.052   0.207   4.882  0.2067  0.2269  0.0379
 2958W        W 3955   0.730   7.404   0.191 -0.0113  0.2897 -0.0003
 2959W        W 3956   6.384   3.050   0.977  0.0504 -0.1204  0.0994
 2960W        W 3957   6.035   5.533   6.205 -0.1151  0.1391 -0.1500
 2961W        W 3958   3.301   4.514   7.156 -0.2566 -0.3227  0.1740
 2962W        W 3959   2.866   5.969   1.537 -0.0890  0.0526  0.0209
 2963W        W 3960   6.934   4.636   2.192  0.0825  0.1238  0.0223
 2964W        W 3961   0.844   6.109   1.179 -0.1508  0.0268 -0.0705
 2965W        W 3962   2.791   4.467   7.336  0.1166  0.1853 -0.1191
 2966W        W 3963   2.689   3.399   2.924 -0.0177  0.1922  0.0788
 2967W        W 3964   4.538   2.353   0.594  0.0629  0.2609  0.2540
 2968W        W 3965   5.169   1.494   7.543  0.1559  0.1798  0.1692
 2969W        W 3966   3.708   5.607   5.208 -0.0070 -0.3099  0.4966
 2970W        W 3967   2.930   4.022   2.596 -0.0361 -0.0019  0.1214
 2971W        W 3968   4.736   7.502   2.668 -0.0072 -0.2967 -0.3338
 2972W        W 3969   3.566   4.210   5.284 -0.1709  0.2032  0.2696
 2973W        W 3970   3.940   3.020   2.979 -0.2965  0.1843 -0.2332
 2974W        W 3971   4.079   4.405   5.364  0.1932 -0.1632 -0.2637
 2975W        W 3972   7.377   1.567   7.056  0.1405  0.0334 -0.0738
 2976W        W 3973   0.869   2.461   7.579 -0.3459  0.3468  0.1333
 2977W        W 3974   5.197   2.103   2.867  0.1207 -0.1199  0.0351
 2978W        W 3975   5.304   2.369   7.319 -0.0162  0.0811 -0.1222
 2979W        W 3976   2.570   4.651   3.139 -0.1619  0.2058 -0.0583
 2980W        W 3977   4.600   0.244   0.054  0.0244  0.3265 -0.3011
 2981W        W 3978   3.259   4.234   3.414  0.1562 -0.1900 -0.0862
 2982W        W 3979   5.131   3.584   6.622  0.0426 -0.0704  0.0017
 2983W        W 3980   2.740   4.332   0.869  0.0944 -0.0971  0.1163
 2984W        W 3981   4.800   0.410   6.374 -0.0218 -0.0214  0.0560
 2985W        W 3982   4.177   5.347   5.897 -0.1367 -0.0381  0.0431
 2986W        W 3983   7.043   5.185   0.721 -0.0759 -0.1055 -0.2235
 2987W        W 3984   5.619   5.890   7.363 -0.1025  0.1423  0.1883
 2988W        W 3985   6.157   1.060   3.778  0.1024 -0.1495 -0.0682
 2989W        W 3986   6.368   4.019   0.680  0.2577 -0.2478  0.1499
 2990W        W 3987   2.151   2.668   4.378  0.0440 -0.1405  0.2760
 2991W        W 3988   2.484   4.365   0.454  0.3706 -0.1076 -0.3413
 2992W        W 3989   3.671   2.853   7.317  0.1457 -0.1219 -0.2052
 2993W        W 3990   6.149   6.378   3.364  0.2242 -0.1891  0.3932
 2994W        W 3991   7.441   2.827   7.090  0.1757 -0.1343 -0.1515
 2995W        W 3992   2.475   7.428   2.381  0.1546 -0.1174 -0.0084
 2996W        W 3993   4.841   4.786   4.716 -0.3502  0.1283  0.0601
 2997W        W 3994   1.922   6.046   3.284 -0.2130  0.1272 -0.1315
 2998W        W 3995   6.987   5.906   0.097  0.0491  0.3133  0.2457
 2999W        W 3996   3.157   6.404   1.441  0.1682  0.0680 -0.0054
 3000W        W 3997   1.580   6.036   0.703 -0.1825  0.0835  0.2005
 3001W        W 3998   5.013   4.348   2.508  0.1956 -0.2171  0.0824
 3002W        W 3999   5.822   6.809   7.320  0.1829  0.0731  0.2091
 3003W        W 4000   0.901   4.925   6.245 -0.3227 -0.0554 -0.1097
 3004W        W 4001   2.955   4.292   3.938  0.0114  0.0639 -0.3752
 3005W        W 4002   7.120   3.635   0.334 -0.1064  0.0808 -0.0791
 3006W        W 4003   0.565   2.201   1.599  0.1904 -0.1700 -0.0636
 3007W        W 4004   4.433   0.503   1.313  0.0330 -0.6152  0.0623
 3008W        W 4005   7.124   0.050   7.365 -0.1353  0.3934 -0.0746
 3009W        W 4006   0.198   1.124   7.530  0.0685 -0.1643  0.0705
 3010W        W 4007   6.686   6.429   2.588 -0.2440 -0.3682 -0.3461
 3011W        W 4008   2.339   6.777   5.791  0.1433  0.2352 -0.1263
 3012W        W 4009   3.117   3.803   3.847  0.0634 -0.1153  0.2687
 3013W        W 4010   2.466   5.588   5.973 -0.1409 -0.2305 -0.2953
 3014W        W 4011   5.703   4.994   3.827  0.1971  0.0779  0.0231
 3015W        W 4012   0.581   1.349   6.665  0.3344 -0.0010 -0.0123
 3016W        W 4013   5.516   1.572   1.347  0.3977  0.1394  0.2661
 3017W        W 4014   3.539   1.034   3.710  0.4281  0.2141 -0.4056
 3018W        W 4015   0.499   4.413   4.808  0.1353 -0.1852  0.2088
 3019W        W 4016   3.340   0.219   2.877 -0.0700 -0.3042 -0.0353
 3020W        W 4017   1.204   2.857   3.661  0.2198  0.0507  0.0294
 3021W        W 4018   5.940   1.270   3.367  0.1177  0.1151  0.1419
 3022W        W 4019   0.928   1.961   7.360  0.1382  0.1652  0.0436
 3023W        W 4020   5.603   4.963   3.038 -0.2164  0.0552  0.0741
 3024W        W 4021   0.952   3.105   3.276  0.1023 -0.1195 -0.0737
 3025W        W 4022   3.895   0.201   3.014  0.5076  0.1345  0.2893
 3026W        W 4023   7.538   6.719   0.193  0.0314  0.0465 -0.3185
 3027W        W 4024   6.282   2.023   3.719  0.0574  0.0008 -0.3336
 3028W        W 4025   3.448   3.480   0.395  0.4213 -0.0341  0.0191
 3029W        W 4026   6.905   5.022   1.270 -0.2308 -0.1115 -0.0463
 3030W        W 4027   1.907   3.490   1.977  0.0903 -0.2435  0.1146
 3031W        W 4028   7.140   5.330   0.268 -0.2373 -0.1701 -0.0698
 3032W        W 4029   6.471   2.492   3.981 -0.0657 -0.0981  0.0049
 3033W        W 4030   7.023   3.530   2.936  0.1818  0.1329  0.0419
 3034W        W 4031   5.197   0.401   4.487  0.0261 -0.0441 -0.4798
 3035W        W 4032   6.409   1.639   0.983 -0.1348 -0.1542 -0.2589
 3036W        W 4033   6.455   0.077   4.073 -0.1633  0.3246 -0.1190
 3037W        W 4034   4.388   0.678   6.299 -0.0031 -0.3139 -0.1918
 3038W        W 4035   4.497   3.309   5.908  0.0733 -0.1299  0.0055
 3039W        W 4036   6.916   0.429   3.302  0.1238 -0.1015 -0.1102
 3040W        W 4037   0.496   7.599   1.520 -0.0345  0.2238  0.0399
 3041W        W 4038   3.448   3.676   3.416 -0.1587  0.0612 -0.0171
 3042W        W 4039   2.618   3.447   4.579  0.0669 -0.4352  0.3614
 3043W        W 4040   0.011   4.830   6.154  0.3025  0.1079  0.0169
 3044W        W 4041   4.855   0.730   1.593  0.0874 -0.1792 -0.1471
 3045W        W 4042   5.923   1.596   0.827 -0.2623 -0.1208 -0.1871
 3046W        W 4043   2.994   2.314   6.698 -0.0043 -0.2476  0.4111
 3047W        W 4044   3.104   6.532   4.044 -0.0183 -0.1474  0.2861
 3048W        W 4045   4.531   4.804   0.102  0.2058  0.1960  0.1769
 3049W        W 4046   6.013   6.890   3.073 -0.1926 -0.3938 -0.1361
 3050W        W 4047   2.446   2.959   4.108  0.0235  0.3018  0.1357
 3051W        W 4048   0.624   1.112   0.792  0.2754 -0.1781 -0.3569
 3052W        W 4049   6.333   5.880   6.081  0.0472  0.1717 -0.1978
 3053W        W 4050   7.341   5.058   6.826  0.1186  0.3418 -0.2958
 3054W        W 4051   4.769   6.921   7.415 -0.2213 -0.2019  0.0467
 3055W        W 4052   0.493   2.128   6.207  0.3047 -0.0276 -0.1492
 3056W        W 4053   7.306   1.094   0.606  0.1715 -0.0567 -0.0879
 3057W        W 4054   3.955   3.906   5.428 -0.0405 -0.1878  0.2967
 3058W        W 4055   7.056   6.248   7.276  0.1028 -0.0325 -0.3278
 3059W        W 4056   0.826   3.812   4.648  0.1358 -0.0519 -0.2828
 3060W        W 4057   4.996   5.442   2.525  0.0044 -0.0035  0.0179
 3061W        W 4058   6.775   2.901   3.729 -0.0538  0.0802  0.0163
 3062W        W 4059   0.218   0.215   7.334  0.2460 -0.1360 -0.1600
 3063W        W 4060   6.110   5.016   0.707  0.1431 -0.2052  0.0930
 3064W        W 4061   4.049   4.106   3.614 -0.0645 -0.0454 -0.0132
 3065W        W 4062   4.471   0.320   1.768  0.0333  0.0542  0.1765
 3066W        W 4063   4.650   1.291   1.631 -0.1364  0.3731  0.1432
 3067W        W 4064   1.658   3.452   5.902 -0.2687  0.2006 -0.2672
 3068W        W 4065   7.292   0.968   1.560 -0.0054 -0.1008 -0.0198
 3069W        W 4066   5.805   4.791   0.056  0.1406  0.0290 -0.3643
 3070W        W 4067   6.118   0.702   3.341  0.1170 -0.0353 -0.2067
 3071W        W 4068   3.425   5.608   4.209 -0.1960  0.0020 -0.1522
 3072W        W 4069   5.624   5.578   1.078 -0.2537 -0.0957  0.1077
 3073W        W 4070   0.594   4.057   6.878  0.2655  0.1409  0.0499
 3074W        W 4071   7.369   0.365   1.535  0.3110  0.1231 -0.0685
 3075W        W 4072   4.011   6.921   2.545 -0.0893 -0.0766  0.3152
 3076W        W 4073   7.449   5.085   4.460 -0.2321 -0.2166 -0.0684
 3077W        W 4074   6.566   1.080   7.624  0.4020 -0.0062  0.1258
 3078W        W 4075   1.079   7.305   0.500 -0.0521 -0.0044 -0.4947
 3079W        W 4076   3.607   2.908   0.671 -0.2332 -0.0930 -0.1403
 3080W        W 4077   6.328   2.934   5.813 -0.1287 -0.0983  0.0959
 3081W        W 4078   5.022   2.992   0.962 -0.0849  0.2517  0.0461
 3082W        W 4079   2.865   5.714   0.230 -0.1583 -0.1562 -0.1682
 3083W        W 4080   0.580   5.982   5.142  0.1685  0.0136  0.2056
 3084W        W 4081   6.370   2.753   7.214 -0.0414 -0.0964  0.1701
 3085W        W 4082   6.499   0.862   7.161 -0.0786  0.1617  0.2127
 3086W        W 4083   3.127   3.599   4.472 -0.2282  0.2621 -0.0220
 3087W        W 4084   2.913   3.924   5.942 -0.0745  0.0435 -0.0509
 3088W        W 4085   0.060   6.575   0.959  0.0564 -0.1191  0.0063
 3089W        W 4086   1.667   3.413   6.499 -0.1150  0.5214 -0.0676
 3090W        W 4087   2.047   5.624   1.630  0.0373  0.1075 -0.0375
 3091W        W 4088   4.627   0.755   5.815  0.1800  0.0744  0.0993
 3092W        W 4089   0.906   2.998   6.820  0.3195  0.0493  0.0154
 3093W        W 4090   3.586   1.200   2.997  0.2617 -0.0515 -0.0292
 3094W        W 4091   4.188   2.463   5.455  0.3009 -0.1147 -0.0843
 3095W        W 4092   6.243   3.815   0.038  0.1296 -0.0134  0.0526
 3096W        W 4093   3.726   1.738   4.351  0.1417 -0.0318  0.1027
 3097W        W 4094   6.298   4.771   0.131  0.2206  0.2381 -0.2249
 3098W        W 4095   6.185   1.733   1.778  0.0939  0.0887 -0.2444
 3099W        W 4096   6.000   5.126   1.222  0.1016 -0.3824  0.1206
 3100W        W 4097   1.466   3.974   0.576 -0.0378  0.0620  0.0774
 3101W        W 4098   5.759   3.703   5.259 -0.2652 -0.1989  0.1653
 3102W        W 4099   7.463   3.812   2.012 -0.1187 -0.1114 -0.0158
 3103W        W 4100   2.706   0.471   3.953  0.2841 -0.0113  0.1806
 3104W        W 4101   1.928   3.619   2.530 -0.1582  0.0151 -0.1494
 3105W        W 4102   3.375   2.719   3.988 -0.4624 -0.1075  0.3004
 3106W        W 4103   2.895   7.315   4.040  0.0976  0.0221 -0.1908
 3107W        W 4104   5.393   4.124   5.967  0.2357  0.0205  0.3188
 3108W        W 4105   0.226   6.465   2.643  0.0604  0.3123  0.2635
 3109W        W 4106   5.888   1.543   4.974  0.2816  0.2719  0.0382
 3110W        W 4107   6.703   7.521   5.041  0.0949  0.2111  0.2260
 3111W        W 4108   4.136   5.662   1.623 -0.0987 -0.1850 -0.0898
 3112W        W 4109   4.736   1.102   7.354  0.0303  0.0153 -0.1651
 3113W        W 4110   0.531   5.015   2.062 -0.0060 -0.1848  0.1613
 3114W        W 4111   4.912   1.838   4.553  0.2293 -0.1486  0.0281
 3115W        W 4112   7.347   5.810   5.110 -0.1947  0.0102 -0.2896
 3116W        W 4113   2.815   6.072   2.756  0.1987 -0.3810 -0.1005
 3117W        W 4114   5.538   3.956   4.342 -0.1209 -0.1090 -0.0315
 3118W        W 4115   6.089   1.735   6.428  0.3426 -0.3333  0.2683
 3119W        W 4116   1.194   2.987   4.557 -0.2132  0.0456 -0.0763
 3120W        W 4117   4.772   2.576   1.148 -0.3202 -0.0082  0.0214
 3121W        W 4118   3.770   2.209   5.133 -0.0031  0.1779 -0.0555
 3122W        W 4119   4.995   1.722   6.641  0.1107 -0.0172 -0.0348
 3123W        W 4120   4.456   1.823   5.659 -0.0194 -0.0222 -0.1008
 3124W        W 4121   4.413   2.069   7.454  0.0025 -0.2869 -0.0402
 3125W        W 4122   6.315   1.347   5.169  0.0092 -0.0345  0.0462
 3126W        W 4123   3.510   7.414   3.099 -0.0976 -0.0838  0.2320
 3127W        W 4124   6.623   0.302   5.071  0.1060  0.0760  0.3042
 3128W        W 4125   0.666   6.474   1.737  0.2673 -0.0325  0.1150
 3129W        W 4126   6.444   4.696   7.270 -0.3452 -0.1757  0.1294
 3130W        W 4127   3.652   7.104   7.526 -0.0386 -0.3088  0.0568
 3131W        W 4128   6.350   3.319   2.308  0.2544 -0.0445  0.0049
 3132W        W 4129   3.887   0.599   3.324 -0.0294 -0.2577 -0.1326
 3133W        W 4130   5.066   5.820   2.862 -0.1198 -0.3588  0.1762
 3134W        W 4131   6.022   4.436   4.212 -0.1581 -0.3864  0.1382
 3135W        W 4132   4.999   2.112   0.485  0.0254 -0.0868  0.2522
 3136W        W 4133   7.636   7.564   5.850 -0.0673  0.0501  0.1913
 3137W        W 4134   5.302   1.853   7.195 -0.2779  0.0617  0.1426
 3138W        W 4135   7.119   5.124   2.070  0.0982  0.2634  0.0719
 3139W        W 4136   5.698   5.318   0.515  0.5687 -0.2583 -0.2942
 3140W        W 4137   4.634   6.477   1.384 -0.0996 -0.1016  0.5586
 3141W        W 4138   5.027   1.645   0.878 -0.1701  0.2536  0.0534
 3142W        W 4139   3.072   6.188   3.640  0.1473  0.1836 -0.3391
 3143W        W 4140   7.173   2.736   1.364  0.0880 -0.0103  0.1000
 3144ION    NA+ 4141   4.418   0.855   1.810  0.4289 -0.0971  0.2890
 3145ION    NA+ 4142   5.998   3.940   2.871  0.1215  0.1727  0.1006
 3146ION    NA+ 4143   1.935   4.915   2.489 -0.0365 -0.2401 -0.2315
 3147ION    NA+ 4144   1.355   0.384   6.735  0.1491  0.1295 -0.0128
 3148ION    NA+ 4145   6.381   3.787   3.295  0.0730  0.0741  0.0590
 3149ION    NA+ 4146   6.588   0.085   0.075 -0.0314 -0.1379  0.0109
 3150ION    NA+ 4147   4.604   1.451   1.074 -0.1341  0.1554 -0.0811
 3151ION    NA+ 4148   1.446   0.731   7.098 -0.0694 -0.2923  0.2654
 3152ION    NA+ 4149   4.232   3.442   2.916 -0.1928  0.0114  0.1824
 3153ION    NA+ 4150   3.096   1.638   5.818  0.0302  0.2660 -0.1513
 3154ION    NA+ 4151   1.266   2.005   5.943  0.0219  0.0384  0.1575
 3155ION    NA+ 4152   2.306   1.967   6.124  0.1311 -0.1416 -0.3023
 3156ION    NA+ 4153   0.467   7.443   2.098  0.3331  0.3340 -0.1089
 3157ION    NA+ 4154   5.076   0.874   7.087  0.2429 -0.0889 -0.0284
 3158ION    NA+ 4155   3.786   6.216   7.012  0.0720 -0.2618  0.0898
 3159ION    NA+ 4156   0.692   0.589   1.598 -0.0560 -0.0635  0.0433
 3160ION    NA+ 4157   2.183   6.852   4.550  0.1105  0.2539 -0.3474
 3161ION    NA+ 4158   1.194   0.999   6.082  0.1267  0.2509 -0.0467
 3162ION    NA+ 4159   2.692   7.410   5.372  0.0861 -0.2788 -0.0850
 3163ION    NA+ 4160   0.041   5.307   3.143  0.1218  0.4881 -0.1942
 3164ION    NA+ 4161   0.968   4.323   4.564 -0.1791 -0.3270 -0.0692
 3165ION    NA+ 4162   2.925   3.835   3.403 -0.1772 -0.0090 -0.0967
 3166ION    NA+ 4163   0.830   5.694   4.864 -0.0074  0.2040  0.1761
 3167ION    NA+ 4164   1.377   6.263   4.743  0.1886 -0.0667 -0.1054
 3168ION    NA+ 4165   4.998   0.155   1.822 -0.1064  0.0941  0.1988
 3169ION    NA+ 4166   5.413   2.099   1.442  0.0688  0.3743  0.2483
 3170ION    NA+ 4167   0.054   1.734   2.132 -0.1242  0.1993  0.0381
 3171ION    NA+ 4168   0.916   6.700   2.144  0.3503  0.0055 -0.0548
 3172ION    NA+ 4169   3.465   1.094   6.282 -0.0229  0.0244  0.1435
 3173ION    NA+ 4170   1.218   7.147   7.619  0.3200  0.2143 -0.0952
 3174ION    NA+ 4171   3.047   5.909   2.388  0.2447  0.1004  0.1808
 3175ION    NA+ 4172   2.718   3.009   3.701 -0.4137 -0.5267  0.0889
 3176ION    NA+ 4173   2.638   3.136   2.484  0.0673  0.1510 -0.2536
 3177ION    NA+ 4174   1.979   4.139   2.697  0.0609  0.1639 -0.1686
 3178ION    NA+ 4175   0.844   1.218   3.325 -0.0045 -0.0541  0.0787
 3179ION    NA+ 4176   6.399   6.321   7.217 -0.1612 -0.0819 -0.2412
 3180ION    NA+ 4177   7.136   1.858   0.185  0.1690  0.1097 -0.4688
 3181ION    NA+ 4178   2.464   3.526   1.766  0.4134  0.2613 -0.0714
 3182ION    NA+ 4179   1.676   2.170   4.781  0.0757  0.3049 -0.2265
 3183ION    NA+ 4180   3.399   2.162   2.988  0.5542 -0.0808  0.0862
 3184ION    NA+ 4181   3.761   0.063   6.015  0.0488  0.4273  0.0149
 3185ION    NA+ 4182   3.370   3.794   2.462  0.2137  0.0908  0.1140
 3186ION    NA+ 4183   3.090   2.237   3.844 -0.0742  0.2246 -0.0958
 3187ION    NA+ 4184   4.991   3.498   0.719 -0.1713  0.1260  0.0140
 3188ION    NA+ 4185   0.088   4.690   4.234 -0.0719  0.0850 -0.1673
 3189ION    NA+ 4186   2.756   0.086   1.487 -0.0941 -0.0754  0.0921
 3190ION    NA+ 4187   0.112   0.707   1.759  0.0809  0.1188 -0.0348
 3191ION    NA+ 4188   2.854   1.536   4.297  0.4417  0.2538 -0.1703
 3192ION    NA+ 4189   2.256   2.296   0.926 -0.0894 -0.0760  0.0726
 3193ION    NA+ 4190   5.631   1.798   3.579 -0.0326  0.0438 -0.1015
 3194ION    NA+ 4191   2.462   4.349   4.157  0.1154 -0.2018 -0.4593
 3195ION    NA+ 4192   3.009   0.649   3.033  0.0049  0.1219  0.1600
 3196ION    NA+ 4193   2.637   0.407   2.362 -0.1978  0.0196  0.1214
 3197ION    NA+ 4194   2.087   6.145   3.841  0.3761 -0.0101 -0.1956
 3198ION    NA+ 4195   0.693   0.352   4.242  0.1763  0.0146  0.0105
 3199ION    NA+ 4196   1.906   1.638   2.279  0.0737  0.2498 -0.2016
 3200ION    NA+ 4197   2.131   7.181   0.960  0.2974  0.2929  0.0012
 3201ION    NA+ 4198   0.349   5.330   3.611 -0.1659  0.1941 -0.0026
 3202ION    NA+ 4199   6.021   0.298   4.260 -0.0925 -0.3459  0.2341
 3203ION    NA+ 4200   1.633   3.734   4.155  0.1454 -0.0020 -0.2266
 3204ION    NA+ 4201   0.675   1.557   0.375  0.0223  0.0252  0.0618
 3205ION    NA+ 4202   1.312   6.033   1.483  0.1965  0.0377 -0.0920
 3206ION    NA+ 4203   2.621   7.604   3.378  0.0243 -0.2957 -0.1022
 3207ION    NA+ 4204   0.207   6.081   2.944 -0.0617 -0.2736  0.4140
 3208ION    NA+ 4205   0.291   0.251   2.692  0.2454  0.0345  0.0062
 3209ION    NA+ 4206   2.953   2.394   2.884  0.0049  0.2278  0.2496
 3210ION    NA+ 4207   2.210   5.018   3.260  0.1701  0.4316  0.0890
 3211ION    NA+ 4208   2.197   7.111   2.064  0.2720  0.2747 -0.1914
 3212ION    NA+ 4209   0.921   1.504   5.379 -0.4138 -0.0819 -0.0298
 3213ION    NA+ 4210   6.257   6.548   2.869 -0.1385  0.1457 -0.3666
 3214ION    NA+ 4211   4.595   2.075   1.744  0.0224  0.0069 -0.1068
 3215ION    NA+ 4212   3.736   1.038   2.527 -0.0253 -0.1038 -0.1310
 3216ION    NA+ 4213   2.297   0.749   4.102  0.2783  0.0748  0.0060
 3217ION    NA+ 4214   0.340   6.837   3.429  0.1900  0.3304  0.0118
 3218ION    NA+ 4215   1.726   0.071   5.571 -0.2256  0.0995 -0.3172
 3219ION    NA+ 4216   3.610   0.370   6.836 -0.2843  0.1399  0.2909
 3220ION    NA+ 4217   5.916   7.123   1.858  0.1537  0.5130 -0.1179
 3221ION    NA+ 4218   1.557   1.445   2.036 -0.0380  0.0844  0.2194
 3222ION    NA+ 4219   0.072   0.693   3.897  0.1580  0.0546  0.2175
 3223ION    NA+ 4220   5.774   1.523   0.327 -0.0260 -0.0199  0.0643
 3224ION    NA+ 4221   1.544   4.958   4.775  0.2514  0.1937  0.0897
 3225ION    NA+ 4222   0.220   1.671   4.337  0.0117  0.2624 -0.1439
 3226ION    NA+ 4223   2.334   7.002   3.287  0.2034 -0.1756  0.1662
 3227ION    NA+ 4224   0.869   3.623   0.142  0.0223  0.2064  0.1524
 3228ION    NA+ 4225   1.417   0.033   2.139  0.0913  0.4932  0.0629
 3229ION    NA+ 4226   6.099   2.861   1.397 -0.1716  0.0498  0.1786
 3230ION    NA+ 4227   1.558   3.399   2.315  0.4217  0.2925  0.0003
 3231ION    NA+ 4228   2.611   2.732   1.151 -0.0854 -0.1374  0.0915
 3232ION    NA+ 4229   3.480   5.703   2.356  0.0409 -0.1634 -0.0146
 3233ION    NA+ 4230   3.249   1.364   3.465  0.0946  0.1940 -0.1979
 3234ION    NA+ 4231   0.928   7.533   5.088 -0.2392  0.2044  0.0445
 3235ION    NA+ 4232   0.188   0.637   0.019  0.0468 -0.1608 -0.1174
 3236ION    NA+ 4233   3.069   2.016   7.139  0.1007 -0.0783  0.0009
 3237ION    NA+ 4234   4.699   2.698   3.431 -0.4488 -0.1179 -0.0829
 3238ION    NA+ 4235   7.257   4.753   0.953  0.1982  0.0656  0.1507
 3239ION    NA+ 4236   3.631   1.426   7.565  0.2662  0.2642 -0.2664
 3240ION    NA+ 4237   1.329   1.832   4.543 -0.1847 -0.1421 -0.0288
 3241ION    NA+ 4238   1.901   2.255   0.521 -0.0875  0.1463 -0.1044
 3242ION    NA+ 4239   4.594   6.929   0.220  0.2861  0.0421 -0.2983
 3243ION    NA+ 4240   7.375   7.227   2.550 -0.2065  0.0040  0.4659
   7.65824   7.65824   7.65824
