Martini system from ../2_Creating_coordinates/TYR-GLY-TYR_aa.pdb
 4159
    1TYR     BB    1   2.701   6.168   3.677
    1TYR    SC1    2   2.891   6.395   3.737
    1TYR    SC2    3   2.953   6.656   3.699
    1TYR    SC3    4   3.013   6.535   3.933
    2GLY     BB    5   2.477   6.198   3.891
    3TYR     BB    6   2.491   6.522   4.045
    3TYR    SC1    7   2.699   6.421   4.261
    3TYR    SC2    8   2.799   6.312   4.486
    3TYR    SC3    9   2.893   6.234   4.246
    1TYR     BB   10   1.393   4.931   6.227
    1TYR    SC1   11   1.116   5.032   6.128
    1TYR    SC2   12   0.851   4.984   6.139
    1TYR    SC3   13   0.941   5.235   6.095
    2GLY     BB   14   1.371   4.912   6.538
    3TYR     BB   15   1.171   5.012   6.718
    3TYR    SC1   16   0.927   5.128   6.569
    3TYR    SC2   17   0.662   5.135   6.521
    3TYR    SC3   18   0.804   5.364   6.522
    1TYR     BB   19   0.826   4.246   2.275
    1TYR    SC1   20   0.533   4.255   2.379
    1TYR    SC2   21   0.273   4.328   2.395
    1TYR    SC3   22   0.383   4.177   2.590
    2GLY     BB   23   0.964   4.482   2.447
    3TYR     BB   24   1.054   4.419   2.719
    3TYR    SC1   25   0.815   4.371   2.906
    3TYR    SC2   26   0.557   4.354   2.983
    3TYR    SC3   27   0.746   4.426   3.162
    1TYR     BB   28   5.252   5.142   0.305
    1TYR    SC1   29   5.028   5.159   0.109
    1TYR    SC2   30   4.789   5.045   0.062
    1TYR    SC3   31   4.883   5.235   7.895
    2GLY     BB   32   5.156   5.242   0.612
    3TYR     BB   33   4.922   5.422   0.804
    3TYR    SC1   34   4.757   5.526   0.556
    3TYR    SC2   35   4.698   5.425   0.313
    3TYR    SC3   36   4.628   5.678   0.374
    1TYR     BB   37   4.785   5.023   3.496
    1TYR    SC1   38   4.754   4.742   3.623
    1TYR    SC2   39   4.828   4.515   3.748
    1TYR    SC3   40   4.624   4.662   3.846
    2GLY     BB   41   4.624   5.185   3.784
    3TYR     BB   42   4.400   5.331   3.920
    3TYR    SC1   43   4.244   5.166   4.129
    3TYR    SC2   44   4.162   5.206   4.383
    3TYR    SC3   45   4.164   4.956   4.279
    1TYR     BB   46   0.961   0.463   0.911
    1TYR    SC1   47   1.024   0.494   0.599
    1TYR    SC2   48   1.194   0.607   0.423
    1TYR    SC3   49   1.026   0.411   0.342
    2GLY     BB   50   1.035   0.158   0.956
    3TYR     BB   51   1.148   0.003   0.701
    3TYR    SC1   52   1.034   7.971   0.412
    3TYR    SC2   53   1.106   7.908   0.160
    3TYR    SC3   54   0.852   7.984   0.213
    1TYR     BB   55   3.411   1.260   0.640
    1TYR    SC1   56   3.110   1.276   0.733
    1TYR    SC2   57   2.895   1.145   0.830
    1TYR    SC3   58   2.955   1.392   0.921
    2GLY     BB   59   3.539   1.085   0.895
    3TYR     BB   60   3.313   1.033   1.126
    3TYR    SC1   61   3.383   1.175   1.388
    3TYR    SC2   62   3.276   1.251   1.624
    3TYR    SC3   63   3.495   1.376   1.529
    1TYR     BB   64   2.428   4.031   2.880
    1TYR    SC1   65   2.426   3.888   2.599
    1TYR    SC2   66   2.299   3.835   2.366
    1TYR    SC3   67   2.561   3.900   2.365
    2GLY     BB   68   2.419   4.344   2.739
    3TYR     BB   69   2.319   4.423   2.484
    3TYR    SC1   70   2.440   4.304   2.219
    3TYR    SC2   71   2.414   4.133   2.012
    3TYR    SC3   72   2.573   4.349   1.989
    1TYR     BB   73   1.474   7.171   5.965
    1TYR    SC1   74   1.426   6.966   6.195
    1TYR    SC2   75   1.296   6.872   6.412
    1TYR    SC3   76   1.513   6.743   6.318
    2GLY     BB   77   1.715   7.347   6.064
    3TYR     BB   78   1.986   7.179   6.208
    3TYR    SC1   79   1.811   7.081   6.453
    3TYR    SC2   80   1.721   6.941   6.665
    3TYR    SC3   81   1.597   7.169   6.592
    1TYR     BB   82   6.779   5.773   4.449
    1TYR    SC1   83   6.871   5.953   4.692
    1TYR    SC2   84   6.761   6.044   4.921
    1TYR    SC3   85   7.027   6.002   4.906
    2GLY     BB   86   6.579   5.574   4.625
    3TYR     BB   87   6.660   5.539   4.918
    3TYR    SC1   88   6.831   5.654   5.140
    3TYR    SC2   89   6.855   5.832   5.342
    3TYR    SC3   90   7.072   5.698   5.253
    1TYR     BB   91   3.347   7.479   5.922
    1TYR    SC1   92   3.322   7.229   6.112
    1TYR    SC2   93   3.352   6.965   6.162
    1TYR    SC3   94   3.402   7.146   6.356
    2GLY     BB   95   3.579   7.402   5.744
    3TYR     BB   96   3.762   7.179   5.815
    3TYR    SC1   97   3.735   6.893   5.928
    3TYR    SC2   98   3.606   6.657   5.920
    3TYR    SC3   99   3.860   6.669   6.010
    1TYR     BB  100   3.460   5.522   3.117
    1TYR    SC1  101   3.753   5.517   3.187
    1TYR    SC2  102   3.916   5.303   3.165
    1TYR    SC3  103   4.013   5.551   3.122
    2GLY     BB  104   3.468   5.446   2.802
    3TYR     BB  105   3.734   5.310   2.685
    3TYR    SC1  106   4.000   5.487   2.680
    3TYR    SC2  107   4.270   5.491   2.694
    3TYR    SC3  108   4.131   5.723   2.682
    1TYR     BB  109   5.206   2.273   2.329
    1TYR    SC1  110   5.039   2.324   2.077
    1TYR    SC2  111   4.975   2.203   1.844
    1TYR    SC3  112   4.806   2.383   1.954
    2GLY     BB  113   5.231   1.947   2.340
    3TYR     BB  114   4.960   1.809   2.224
    3TYR    SC1  115   4.736   2.035   2.249
    3TYR    SC2  116   4.486   2.121   2.193
    3TYR    SC3  117   4.644   2.265   2.358
    1TYR     BB  118   0.167   7.243   0.531
    1TYR    SC1  119   7.965   7.204   0.290
    1TYR    SC2  120   7.712   7.171   0.201
    1TYR    SC3  121   7.902   7.267   0.035
    2GLY     BB  122   7.979   7.302   0.791
    3TYR     BB  123   7.646   7.354   0.688
    3TYR    SC1  124   7.720   7.559   0.463
    3TYR    SC2  125   7.698   7.647   0.208
    3TYR    SC3  126   7.936   7.658   0.335
    1TYR     BB  127   1.918   3.859   7.805
    1TYR    SC1  128   1.616   3.940   7.851
    1TYR    SC2  129   1.403   4.053   7.729
    1TYR    SC3  130   1.413   4.042   7.998
    2GLY     BB  131   1.941   3.586   7.617
    3TYR     BB  132   1.690   3.454   7.530
    3TYR    SC1  133   1.691   3.376   7.229
    3TYR    SC2  134   1.630   3.492   6.993
    3TYR    SC3  135   1.767   3.259   6.997
    1TYR     BB  136   1.460   6.130   7.811
    1TYR    SC1  137   1.178   6.264   7.838
    1TYR    SC2  138   0.968   6.399   7.736
    1TYR    SC3  139   0.946   6.278   7.976
    2GLY     BB  140   1.456   5.912   7.584
    3TYR     BB  141   1.179   5.987   7.379
    3TYR    SC1  142   0.962   5.939   7.596
    3TYR    SC2  143   0.752   5.917   7.763
    3TYR    SC3  144   0.996   5.831   7.841
    1TYR     BB  145   5.824   2.780   5.333
    1TYR    SC1  146   6.084   2.674   5.238
    1TYR    SC2  147   6.320   2.710   5.113
    1TYR    SC3  148   6.264   2.473   5.229
    2GLY     BB  149   5.836   2.894   5.619
    3TYR     BB  150   6.104   2.847   5.769
    3TYR    SC1  151   6.348   2.726   5.618
    3TYR    SC2  152   6.585   2.724   5.488
    3TYR    SC3  153   6.506   2.508   5.629
    1TYR     BB  154   4.365   6.796   1.861
    1TYR    SC1  155   4.552   6.580   1.784
    1TYR    SC2  156   4.643   6.350   1.675
    1TYR    SC3  157   4.658   6.388   1.942
    2GLY     BB  158   4.258   6.736   2.146
    3TYR     BB  159   4.305   6.539   2.342
    3TYR    SC1  160   4.405   6.252   2.310
    3TYR    SC2  161   4.619   6.089   2.285
    3TYR    SC3  162   4.399   6.003   2.415
    1TYR     BB  163   2.653   4.368   6.013
    1TYR    SC1  164   2.941   4.492   5.996
    1TYR    SC2  165   3.061   4.708   5.887
    1TYR    SC3  166   3.180   4.576   6.090
    2GLY     BB  167   2.570   4.374   5.691
    3TYR     BB  168   2.753   4.457   5.473
    3TYR    SC1  169   3.056   4.420   5.540
    3TYR    SC2  170   3.264   4.347   5.696
    3TYR    SC3  171   3.309   4.470   5.461
    1TYR     BB  172   5.459   2.238   5.959
    1TYR    SC1  173   5.599   2.036   5.772
    1TYR    SC2  174   5.592   1.779   5.689
    1TYR    SC3  175   5.726   1.963   5.545
    2GLY     BB  176   5.161   2.236   5.801
    3TYR     BB  177   5.109   2.146   5.511
    3TYR    SC1  178   5.307   1.965   5.362
    3TYR    SC2  179   5.388   1.720   5.283
    3TYR    SC3  180   5.437   1.934   5.127
    1TYR     BB  181   4.411   2.813   5.501
    1TYR    SC1  182   4.677   2.657   5.521
    1TYR    SC2  183   4.901   2.611   5.378
    1TYR    SC3  184   4.915   2.631   5.647
    2GLY     BB  185   4.448   3.028   5.277
    3TYR     BB  186   4.586   2.882   5.020
    3TYR    SC1  187   4.889   2.935   5.033
    3TYR    SC2  188   5.128   2.889   4.915
    3TYR    SC3  189   5.065   3.137   5.001
    1TYR     BB  190   1.883   1.394   1.932
    1TYR    SC1  191   1.738   1.144   2.016
    1TYR    SC2  192   1.759   0.884   2.084
    1TYR    SC3  193   1.517   0.990   2.027
    2GLY     BB  194   2.073   1.274   1.681
    3TYR     BB  195   2.280   1.068   1.833
    3TYR    SC1  196   2.189   1.049   2.127
    3TYR    SC2  197   2.107   0.943   2.361
    3TYR    SC3  198   2.139   1.210   2.339
    1TYR     BB  199   4.020   1.284   6.458
    1TYR    SC1  200   3.840   1.526   6.554
    1TYR    SC2  201   3.609   1.588   6.680
    1TYR    SC3  202   3.804   1.773   6.657
    2GLY     BB  203   3.955   1.073   6.682
    3TYR     BB  204   3.794   1.190   6.934
    3TYR    SC1  205   3.921   1.465   7.039
    3TYR    SC2  206   4.095   1.534   7.233
    3TYR    SC3  207   4.022   1.716   7.047
    1TYR     BB  208   6.287   3.757   6.777
    1TYR    SC1  209   6.213   3.522   6.576
    1TYR    SC2  210   6.085   3.285   6.566
    1TYR    SC3  211   6.120   3.428   6.340
    2GLY     BB  212   6.396   3.980   6.581
    3TYR     BB  213   6.604   3.847   6.366
    3TYR    SC1  214   6.431   3.746   6.146
    3TYR    SC2  215   6.186   3.760   6.032
    3TYR    SC3  216   6.407   3.750   5.877
    1TYR     BB  217   2.439   2.853   2.921
    1TYR    SC1  218   2.635   2.620   2.878
    1TYR    SC2  219   2.645   2.352   2.911
    1TYR    SC3  220   2.853   2.482   2.797
    2GLY     BB  221   2.181   2.713   2.977
    3TYR     BB  222   2.138   2.419   3.056
    3TYR    SC1  223   2.186   2.230   2.827
    3TYR    SC2  224   2.327   2.008   2.765
    3TYR    SC3  225   2.109   2.075   2.620
    1TYR     BB  226   2.282   6.637   3.012
    1TYR    SC1  227   2.461   6.558   3.238
    1TYR    SC2  228   2.720   6.535   3.314
    1TYR    SC3  229   2.531   6.598   3.496
    2GLY     BB  230   2.193   6.934   3.063
    3TYR     BB  231   2.332   7.070   3.330
    3TYR    SC1  232   2.192   6.900   3.548
    3TYR    SC2  233   2.129   6.762   3.771
    3TYR    SC3  234   2.062   6.664   3.529
    1TYR     BB  235   1.504   1.319   6.914
    1TYR    SC1  236   1.545   1.457   6.645
    1TYR    SC2  237   1.551   1.379   6.387
    1TYR    SC3  238   1.458   1.623   6.451
    2GLY     BB  239   1.344   1.040   6.798
    3TYR     BB  240   1.191   1.063   6.512
    3TYR    SC1  241   0.893   1.092   6.581
    3TYR    SC2  242   0.667   1.002   6.698
    3TYR    SC3  243   0.653   1.154   6.476
    1TYR     BB  244   1.793   7.163   0.919
    1TYR    SC1  245   1.792   6.857   0.851
    1TYR    SC2  246   1.957   6.643   0.840
    1TYR    SC3  247   1.694   6.608   0.893
    2GLY     BB  248   2.086   7.182   1.082
    3TYR     BB  249   2.332   6.969   1.035
    3TYR    SC1  250   2.325   6.697   1.185
    3TYR    SC2  251   2.430   6.449   1.203
    3TYR    SC3  252   2.326   6.568   1.422
    1TYR     BB  253   1.105   4.542   0.552
    1TYR    SC1  254   0.926   4.484   0.797
    1TYR    SC2  255   0.692   4.389   0.892
    1TYR    SC3  256   0.894   4.443   1.062
    2GLY     BB  257   1.074   4.360   0.308
    3TYR     BB  258   1.009   4.047   0.405
    3TYR    SC1  259   1.010   4.029   0.711
    3TYR    SC2  260   0.917   3.995   0.962
    3TYR    SC3  261   1.158   4.110   0.922
    1TYR     BB  262   2.347   5.390   5.793
    1TYR    SC1  263   2.419   5.088   5.773
    1TYR    SC2  264   2.382   4.829   5.841
    1TYR    SC3  265   2.508   4.891   5.610
    2GLY     BB  266   2.016   5.390   5.845
    3TYR     BB  267   1.882   5.089   5.924
    3TYR    SC1  268   1.956   4.902   5.693
    3TYR    SC2  269   2.074   4.701   5.557
    3TYR    SC3  270   1.856   4.824   5.455
    1TYR     BB  271   1.609   3.327   6.506
    1TYR    SC1  272   1.674   3.632   6.562
    1TYR    SC2  273   1.650   3.893   6.500
    1TYR    SC3  274   1.832   3.814   6.683
    2GLY     BB  275   1.335   3.277   6.634
    3TYR     BB  276   1.150   3.500   6.703
    3TYR    SC1  277   1.276   3.769   6.744
    3TYR    SC2  278   1.449   3.891   6.912
    3TYR    SC3  279   1.281   4.039   6.761
    1TYR     BB  280   7.411   2.980   5.256
    1TYR    SC1  281   7.483   2.869   5.536
    1TYR    SC2  282   7.571   2.955   5.776
    1TYR    SC3  283   7.552   2.691   5.726
    2GLY     BB  284   7.202   3.221   5.345
    3TYR     BB  285   7.206   3.332   5.679
    3TYR    SC1  286   7.124   3.054   5.797
    3TYR    SC2  287   7.139   2.805   5.899
    3TYR    SC3  288   7.025   2.845   5.658
    1TYR     BB  289   3.574   6.919   1.068
    1TYR    SC1  290   3.588   7.135   1.285
    1TYR    SC2  291   3.583   7.401   1.334
    1TYR    SC3  292   3.706   7.234   1.507
    2GLY     BB  293   3.283   6.912   0.942
    3TYR     BB  294   3.048   7.100   1.039
    3TYR    SC1  295   3.125   7.248   1.303
    3TYR    SC2  296   3.120   7.471   1.456
    3TYR    SC3  297   3.205   7.237   1.561
    1TYR     BB  298   1.018   1.711   2.179
    1TYR    SC1  299   0.808   1.868   2.333
    1TYR    SC2  300   0.709   2.119   2.349
    1TYR    SC3  301   0.666   1.944   2.550
    2GLY     BB  302   0.876   1.576   1.936
    3TYR     BB  303   0.565   1.566   1.914
    3TYR    SC1  304   0.439   1.809   2.058
    3TYR    SC2  305   0.338   2.056   2.094
    3TYR    SC3  306   0.310   1.870   2.287
    1TYR     BB  307   7.292   4.602   5.739
    1TYR    SC1  308   7.536   4.707   5.908
    1TYR    SC2  309   7.730   4.833   6.047
    1TYR    SC3  310   7.623   4.604   6.142
    2GLY     BB  311   7.128   4.459   5.995
    3TYR     BB  312   7.071   4.619   6.257
    3TYR    SC1  313   7.289   4.527   6.463
    3TYR    SC2  314   7.339   4.476   6.724
    3TYR    SC3  315   7.498   4.371   6.532
    1TYR     BB  316   3.604   4.288   5.083
    1TYR    SC1  317   3.470   4.059   5.254
    1TYR    SC2  318   3.326   3.832   5.286
    1TYR    SC3  319   3.414   3.968   5.502
    2GLY     BB  320   3.362   4.371   4.876
    3TYR     BB  321   3.235   4.083   4.704
    3TYR    SC1  322   3.440   3.874   4.818
    3TYR    SC2  323   3.506   3.633   4.920
    3TYR    SC3  324   3.699   3.811   4.857
    1TYR     BB  325   0.543   3.266   0.351
    1TYR    SC1  326   0.664   3.494   0.170
    1TYR    SC2  327   0.884   3.649   0.160
    1TYR    SC3  328   0.730   3.619   7.941
    2GLY     BB  329   0.786   3.197   0.564
    3TYR     BB  330   1.075   3.276   0.443
    3TYR    SC1  331   1.039   3.198   0.143
    3TYR    SC2  332   1.027   2.969   7.999
    3TYR    SC3  333   0.892   3.188   7.916
    1TYR     BB  334   2.561   7.850   5.748
    1TYR    SC1  335   2.572   7.625   5.540
    1TYR    SC2  336   2.492   7.367   5.544
    1TYR    SC3  337   2.657   7.455   5.349
    2GLY     BB  338   2.346   0.044   5.699
    3TYR     BB  339   2.265   0.234   5.419
    3TYR    SC1  340   2.385   0.034   5.218
    3TYR    SC2  341   2.337   7.772   5.173
    3TYR    SC3  342   2.584   7.873   5.132
    1TYR     BB  343   0.190   2.367   3.975
    1TYR    SC1  344   0.472   2.221   3.993
    1TYR    SC2  345   0.705   2.109   3.914
    1TYR    SC3  346   0.616   2.073   4.166
    2GLY     BB  347   0.165   2.519   4.235
    3TYR     BB  348   0.404   2.660   4.398
    3TYR    SC1  349   0.653   2.503   4.316
    3TYR    SC2  350   0.841   2.493   4.123
    3TYR    SC3  351   0.897   2.401   4.370
    1TYR     BB  352   7.397   1.891   6.170
    1TYR    SC1  353   7.691   1.903   6.122
    1TYR    SC2  354   7.903   1.908   5.954
    1TYR    SC3  355   7.940   1.857   6.217
    2GLY     BB  356   7.297   2.077   6.421
    3TYR     BB  357   7.533   2.311   6.482
    3TYR    SC1  358   7.725   2.334   6.242
    3TYR    SC2  359   7.781   2.379   5.982
    3TYR    SC3  360   7.980   2.317   6.154
    1TYR     BB  361   6.226   5.301   5.796
    1TYR    SC1  362   5.981   5.107   5.852
    1TYR    SC2  363   5.732   5.015   5.898
    1TYR    SC3  364   5.896   4.883   5.729
    2GLY     BB  365   6.445   5.057   5.727
    3TYR     BB  366   6.438   4.818   5.526
    3TYR    SC1  367   6.237   4.605   5.548
    3TYR    SC2  368   6.146   4.412   5.384
    3TYR    SC3  369   6.018   4.463   5.616
    1TYR     BB  370   5.699   2.155   3.298
    1TYR    SC1  371   5.546   2.019   3.069
    1TYR    SC2  372   5.422   1.999   2.829
    1TYR    SC3  373   5.427   1.788   2.997
    2GLY     BB  374   6.022   2.182   3.287
    3TYR     BB  375   6.215   2.348   3.135
    3TYR    SC1  376   6.318   2.207   2.880
    3TYR    SC2  377   6.486   2.126   2.684
    3TYR    SC3  378   6.226   2.174   2.628
    1TYR     BB  379   4.883   3.688   7.584
    1TYR    SC1  380   4.831   3.402   7.479
    1TYR    SC2  381   4.735   3.282   7.257
    1TYR    SC3  382   4.905   3.149   7.419
    2GLY     BB  383   4.762   3.883   7.337
    3TYR     BB  384   4.651   3.767   7.073
    3TYR    SC1  385   4.822   3.812   6.826
    3TYR    SC2  386   4.873   3.749   6.568
    3TYR    SC3  387   5.066   3.862   6.721
    1TYR     BB  388   4.764   6.667   6.853
    1TYR    SC1  389   5.051   6.767   6.904
    1TYR    SC2  390   5.309   6.735   6.977
    1TYR    SC3  391   5.248   6.864   6.748
    2GLY     BB  392   4.724   6.900   6.569
    3TYR     BB  393   4.837   6.802   6.320
    3TYR    SC1  394   5.130   6.777   6.275
    3TYR    SC2  395   5.326   6.621   6.173
    3TYR    SC3  396   5.382   6.872   6.255
    1TYR     BB  397   2.565   3.965   1.001
    1TYR    SC1  398   2.705   4.223   1.107
    1TYR    SC2  399   2.721   4.493   1.107
    1TYR    SC3  400   2.939   4.345   1.166
    2GLY     BB  401   2.402   3.845   1.223
    3TYR     BB  402   2.369   3.951   1.543
    3TYR    SC1  403   2.560   4.185   1.552
    3TYR    SC2  404   2.600   4.451   1.529
    3TYR    SC3  405   2.806   4.288   1.591
    1TYR     BB  406   6.062   2.837   3.627
    1TYR    SC1  407   6.301   3.026   3.687
    1TYR    SC2  408   6.452   3.051   3.909
    1TYR    SC3  409   6.467   3.237   3.714
    2GLY     BB  410   6.283   2.558   3.586
    3TYR     BB  411   6.579   2.569   3.748
    3TYR    SC1  412   6.738   2.813   3.639
    3TYR    SC2  413   6.876   3.044   3.653
    3TYR    SC3  414   6.737   2.983   3.429
    1TYR     BB  415   5.038   2.541   7.145
    1TYR    SC1  416   5.311   2.495   7.010
    1TYR    SC2  417   5.531   2.607   6.901
    1TYR    SC3  418   5.525   2.342   6.952
    2GLY     BB  419   5.083   2.663   7.428
    3TYR     BB  420   5.224   2.817   7.680
    3TYR    SC1  421   5.387   2.590   7.821
    3TYR    SC2  422   5.634   2.551   7.924
    3TYR    SC3  423   5.498   2.344   7.817
    1TYR     BB  424   6.754   1.573   3.841
    1TYR    SC1  425   6.893   1.371   3.650
    1TYR    SC2  426   6.893   1.149   3.497
    1TYR    SC3  427   7.085   1.336   3.464
    2GLY     BB  428   6.457   1.617   3.729
    3TYR     BB  429   6.401   1.608   3.435
    3TYR    SC1  430   6.648   1.514   3.278
    3TYR    SC2  431   6.705   1.324   3.094
    3TYR    SC3  432   6.870   1.535   3.126
    1TYR     BB  433   1.602   6.583   3.808
    1TYR    SC1  434   1.299   6.542   3.863
    1TYR    SC2  435   1.059   6.664   3.882
    1TYR    SC3  436   1.090   6.414   3.977
    2GLY     BB  437   1.609   6.436   3.525
    3TYR     BB  438   1.375   6.661   3.352
    3TYR    SC1  439   1.121   6.512   3.450
    3TYR    SC2  440   1.060   6.266   3.545
    3TYR    SC3  441   0.868   6.455   3.525
    1TYR     BB  442   1.601   0.238   4.700
    1TYR    SC1  443   1.525   7.940   4.635
    1TYR    SC2  444   1.305   7.843   4.512
    1TYR    SC3  445   1.453   7.682   4.669
    2GLY     BB  446   1.636   0.364   4.425
    3TYR     BB  447   1.459   0.213   4.186
    3TYR    SC1  448   1.594   7.934   4.161
    3TYR    SC2  449   1.779   7.793   4.025
    3TYR    SC3  450   1.669   7.690   4.250
    1TYR     BB  451   5.460   0.372   1.277
    1TYR    SC1  452   5.551   0.321   0.985
    1TYR    SC2  453   5.652   0.129   0.825
    1TYR    SC3  454   5.530   0.343   0.716
    2GLY     BB  455   5.556   0.066   1.400
    3TYR     BB  456   5.432   7.851   1.180
    3TYR    SC1  457   5.213   0.010   1.021
    3TYR    SC2  458   4.949   0.069   1.032
    3TYR    SC3  459   5.114   0.216   0.876
    1TYR     BB  460   2.513   2.812   7.087
    1TYR    SC1  461   2.606   2.869   7.381
    1TYR    SC2  462   2.523   2.928   7.631
    1TYR    SC3  463   2.777   2.848   7.588
    2GLY     BB  464   2.380   2.503   7.099
    3TYR     BB  465   2.212   2.524   7.398
    3TYR    SC1  466   2.451   2.455   7.582
    3TYR    SC2  467   2.592   2.500   7.807
    3TYR    SC3  468   2.610   2.261   7.682
    1TYR     BB  469   7.046   7.355   3.829
    1TYR    SC1  470   7.317   7.384   3.671
    1TYR    SC2  471   7.560   7.492   3.621
    1TYR    SC3  472   7.427   7.361   3.425
    2GLY     BB  473   7.147   7.302   4.147
    3TYR     BB  474   7.260   6.991   4.148
    3TYR    SC1  475   7.445   6.988   3.891
    3TYR    SC2  476   7.674   7.067   3.772
    3TYR    SC3  477   7.483   6.942   3.628
    1TYR     BB  478   0.245   7.858   2.455
    1TYR    SC1  479   0.194   7.558   2.478
    1TYR    SC2  480   0.255   7.301   2.421
    1TYR    SC3  481   0.005   7.366   2.498
    2GLY     BB  482   0.340   7.992   2.727
    3TYR     BB  483   0.686   7.963   2.724
    3TYR    SC1  484   0.682   7.654   2.693
    3TYR    SC2  485   0.688   7.411   2.576
    3TYR    SC3  486   0.517   7.458   2.780
    1TYR     BB  487   2.033   2.040   3.588
    1TYR    SC1  488   2.025   1.727   3.633
    1TYR    SC2  489   2.152   1.529   3.766
    1TYR    SC3  490   1.895   1.497   3.690
    2GLY     BB  491   2.042   2.162   3.885
    3TYR     BB  492   2.117   1.946   4.130
    3TYR    SC1  493   2.002   1.667   4.167
    3TYR    SC2  494   2.080   1.415   4.226
    3TYR    SC3  495   1.828   1.461   4.139
    1TYR     BB  496   6.671   7.167   2.687
    1TYR    SC1  497   6.632   7.313   2.954
    1TYR    SC2  498   6.611   7.537   3.104
    1TYR    SC3  499   6.671   7.301   3.221
    2GLY     BB  500   6.361   7.139   2.584
    3TYR     BB  501   6.119   7.112   2.803
    3TYR    SC1  502   6.173   7.282   3.061
    3TYR    SC2  503   6.165   7.509   3.206
    3TYR    SC3  504   6.229   7.275   3.325
    1TYR     BB  505   3.239   5.268   7.676
    1TYR    SC1  506   3.380   5.059   7.484
    1TYR    SC2  507   3.456   4.962   7.244
    1TYR    SC3  508   3.597   4.901   7.466
    2GLY     BB  509   3.192   5.531   7.501
    3TYR     BB  510   3.317   5.509   7.184
    3TYR    SC1  511   3.599   5.404   7.246
    3TYR    SC2  512   3.823   5.253   7.254
    3TYR    SC3  513   3.726   5.361   7.481
    1TYR     BB  514   4.188   0.132   5.596
    1TYR    SC1  515   4.379   7.990   5.807
    1TYR    SC2  516   4.608   7.983   5.951
    1TYR    SC3  517   4.475   7.754   5.897
    2GLY     BB  518   3.906   0.207   5.737
    3TYR     BB  519   3.948   0.291   6.037
    3TYR    SC1  520   4.111   0.063   6.175
    3TYR    SC2  521   4.332   0.017   6.323
    3TYR    SC3  522   4.176   7.810   6.247
    1TYR     BB  523   3.202   2.288   5.202
    1TYR    SC1  524   2.949   2.172   5.332
    1TYR    SC2  525   2.682   2.202   5.360
    1TYR    SC3  526   2.810   2.007   5.495
    2GLY     BB  527   3.366   2.454   5.371
    3TYR     BB  528   3.371   2.448   5.663
    3TYR    SC1  529   3.255   2.190   5.772
    3TYR    SC2  530   3.354   1.979   5.910
    3TYR    SC3  531   3.087   2.018   5.896
    1TYR     BB  532   4.537   4.090   4.643
    1TYR    SC1  533   4.508   3.981   4.927
    1TYR    SC2  534   4.372   3.793   5.067
    1TYR    SC3  535   4.431   4.031   5.181
    2GLY     BB  536   4.809   4.150   4.518
    3TYR     BB  537   5.004   3.899   4.505
    3TYR    SC1  538   4.928   3.774   4.790
    3TYR    SC2  539   4.894   3.555   4.943
    3TYR    SC3  540   4.891   3.800   5.056
    1TYR     BB  541   2.982   3.455   1.789
    1TYR    SC1  542   3.138   3.399   1.521
    1TYR    SC2  543   3.267   3.512   1.312
    1TYR    SC3  544   3.209   3.248   1.309
    2GLY     BB  545   3.079   3.410   2.024
    3TYR     BB  546   3.385   3.356   2.140
    3TYR    SC1  547   3.497   3.175   1.909
    3TYR    SC2  548   3.688   3.058   1.758
    3TYR    SC3  549   3.429   3.048   1.680
    1TYR     BB  550   5.630   7.751   0.036
    1TYR    SC1  551   5.492   0.026   7.981
    1TYR    SC2  552   5.332   0.238   0.026
    1TYR    SC3  553   5.568   0.272   7.900
    2GLY     BB  554   5.438   7.538   0.168
    3TYR     BB  555   5.136   7.511   0.251
    3TYR    SC1  556   5.099   7.552   0.560
    3TYR    SC2  557   4.978   7.689   0.759
    3TYR    SC3  558   5.229   7.595   0.793
    1TYR     BB  559   7.623   1.610   4.725
    1TYR    SC1  560   7.641   1.924   4.742
    1TYR    SC2  561   7.549   2.163   4.827
    1TYR    SC3  562   7.748   2.153   4.646
    2GLY     BB  563   7.281   1.575   4.652
    3TYR     BB  564   7.159   1.831   4.716
    3TYR    SC1  565   7.227   1.869   5.029
    3TYR    SC2  566   7.184   2.016   5.252
    3TYR    SC3  567   7.257   1.757   5.273
    1TYR     BB  568   6.774   7.000   7.150
    1TYR    SC1  569   6.662   7.166   6.904
    1TYR    SC2  570   6.602   7.361   6.728
    1TYR    SC3  571   6.493   7.116   6.700
    2GLY     BB  572   6.782   6.695   6.939
    3TYR     BB  573   7.038   6.767   6.789
    3TYR    SC1  574   6.998   6.909   6.526
    3TYR    SC2  575   7.092   7.057   6.321
    3TYR    SC3  576   6.839   7.092   6.407
    1TYR     BB  577   5.730   5.596   4.711
    1TYR    SC1  578   5.527   5.734   4.915
    1TYR    SC2  579   5.534   5.965   5.054
    1TYR    SC3  580   5.340   5.784   5.103
    2GLY     BB  581   5.512   5.691   4.436
    3TYR     BB  582   5.416   5.989   4.450
    3TYR    SC1  583   5.320   6.141   4.693
    3TYR    SC2  584   5.283   6.359   4.849
    3TYR    SC3  585   5.129   6.140   4.884
    1TYR     BB  586   2.335   0.627   4.087
    1TYR    SC1  587   2.626   0.697   4.014
    1TYR    SC2  588   2.859   0.632   4.133
    1TYR    SC3  589   2.853   0.687   3.869
    2GLY     BB  590   2.407   0.322   4.246
    3TYR     BB  591   2.638   0.083   4.223
    3TYR    SC1  592   2.888   0.187   4.066
    3TYR    SC2  593   3.149   0.259   4.074
    3TYR    SC3  594   3.016   0.258   3.839
    1TYR     BB  595   4.408   4.318   2.901
    1TYR    SC1  596   4.665   4.461   2.800
    1TYR    SC2  597   4.803   4.580   2.601
    1TYR    SC3  598   4.814   4.681   2.852
    2GLY     BB  599   4.186   4.536   2.827
    3TYR     BB  600   4.251   4.641   2.521
    3TYR    SC1  601   4.472   4.866   2.496
    3TYR    SC2  602   4.660   4.930   2.314
    3TYR    SC3  603   4.544   5.124   2.461
    1TYR     BB  604   4.137   2.231   0.502
    1TYR    SC1  605   4.021   2.339   0.238
    1TYR    SC2  606   3.998   2.437   7.988
    1TYR    SC3  607   3.803   2.281   0.089
    2GLY     BB  608   4.005   1.940   0.530
    3TYR     BB  609   3.992   1.779   0.251
    3TYR    SC1  610   4.074   1.932   0.004
    3TYR    SC2  611   4.261   2.084   7.883
    3TYR    SC3  612   4.032   2.024   7.753
    1TYR     BB  613   1.725   2.414   4.791
    1TYR    SC1  614   1.710   2.611   5.035
    1TYR    SC2  615   1.630   2.710   5.273
    1TYR    SC3  616   1.885   2.745   5.191
    2GLY     BB  617   2.041   2.298   4.848
    3TYR     BB  618   2.097   2.273   5.125
    3TYR    SC1  619   2.293   2.481   5.238
    3TYR    SC2  620   2.386   2.522   5.488
    3TYR    SC3  621   2.401   2.719   5.305
    1TYR     BB  622   6.121   5.529   3.238
    1TYR    SC1  623   6.257   5.358   3.016
    1TYR    SC2  624   6.255   5.313   2.750
    1TYR    SC3  625   6.470   5.242   2.897
    2GLY     BB  626   6.306   5.466   3.510
    3TYR     BB  627   6.634   5.447   3.378
    3TYR    SC1  628   6.601   5.634   3.128
    3TYR    SC2  629   6.544   5.695   2.871
    3TYR    SC3  630   6.617   5.890   3.043
    1TYR     BB  631   6.248   5.904   1.587
    1TYR    SC1  632   5.996   5.728   1.555
    1TYR    SC2  633   5.768   5.618   1.648
    1TYR    SC3  634   5.800   5.657   1.383
    2GLY     BB  635   6.271   6.017   1.277
    3TYR     BB  636   6.141   5.907   1.024
    3TYR    SC1  637   5.832   5.933   1.025
    3TYR    SC2  638   5.581   5.987   1.108
    3TYR    SC3  639   5.628   5.771   0.953
    1TYR     BB  640   6.289   5.018   0.146
    1TYR    SC1  641   6.110   4.786   0.246
    1TYR    SC2  642   6.130   4.570   0.407
    1TYR    SC3  643   5.887   4.667   0.340
    2GLY     BB  644   6.454   5.044   0.488
    3TYR     BB  645   6.595   4.786   0.561
    3TYR    SC1  646   6.474   4.556   0.738
    3TYR    SC2  647   6.542   4.319   0.847
    3TYR    SC3  648   6.282   4.387   0.825
    1TYR     BB  649   2.005   1.847   1.239
    1TYR    SC1  650   1.837   1.662   1.422
    1TYR    SC2  651   1.694   1.727   1.642
    1TYR    SC3  652   1.638   1.500   1.507
    2GLY     BB  653   1.917   2.154   1.365
    3TYR     BB  654   1.815   2.256   1.655
    3TYR    SC1  655   1.569   2.135   1.791
    3TYR    SC2  656   1.540   1.958   1.993
    3TYR    SC3  657   1.346   1.984   1.806
    1TYR     BB  658   1.241   4.818   4.835
    1TYR    SC1  659   1.412   4.579   4.762
    1TYR    SC2  660   1.667   4.564   4.676
    1TYR    SC3  661   1.554   4.352   4.800
    2GLY     BB  662   1.470   5.061   4.789
    3TYR     BB  663   1.704   5.033   4.995
    3TYR    SC1  664   1.884   4.781   5.004
    3TYR    SC2  665   2.127   4.720   5.104
    3TYR    SC3  666   1.954   4.523   5.042
    1TYR     BB  667   0.682   6.203   1.946
    1TYR    SC1  668   0.789   6.414   2.145
    1TYR    SC2  669   0.986   6.462   2.324
    1TYR    SC3  670   0.742   6.572   2.358
    2GLY     BB  671   0.795   5.919   2.103
    3TYR     BB  672   1.100   5.949   2.172
    3TYR    SC1  673   1.210   6.190   2.003
    3TYR    SC2  674   1.423   6.290   1.871
    3TYR    SC3  675   1.181   6.406   1.844
    1TYR     BB  676   1.396   7.882   5.370
    1TYR    SC1  677   1.197   7.645   5.359
    1TYR    SC2  678   0.933   7.604   5.393
    1TYR    SC3  679   1.108   7.405   5.443
    2GLY     BB  680   1.393   0.014   5.104
    3TYR     BB  681   1.118   0.016   4.946
    3TYR    SC1  682   1.046   7.715   4.909
    3TYR    SC2  683   1.021   7.523   4.720
    3TYR    SC3  684   0.892   7.498   4.956
    1TYR     BB  685   3.943   6.913   4.702
    1TYR    SC1  686   4.227   6.804   4.743
    1TYR    SC2  687   4.471   6.814   4.630
    1TYR    SC3  688   4.446   6.751   4.891
    2GLY     BB  689   4.004   7.166   4.503
    3TYR     BB  690   4.265   7.338   4.574
    3TYR    SC1  691   4.408   7.229   4.828
    3TYR    SC2  692   4.657   7.169   4.911
    3TYR    SC3  693   4.455   7.184   5.090
    1TYR     BB  694   7.149   7.666   5.442
    1TYR    SC1  695   7.170   7.498   5.185
    1TYR    SC2  696   7.310   7.284   5.096
    1TYR    SC3  697   7.055   7.324   5.013
    2GLY     BB  698   6.928   7.874   5.389
    3TYR     BB  699   6.759   7.910   5.119
    3TYR    SC1  700   6.741   7.675   4.901
    3TYR    SC2  701   6.545   7.584   4.740
    3TYR    SC3  702   6.801   7.509   4.697
    1TYR     BB  703   5.864   0.050   6.317
    1TYR    SC1  704   5.835   7.829   6.539
    1TYR    SC2  705   5.868   7.725   6.786
    1TYR    SC3  706   5.678   7.625   6.622
    2GLY     BB  707   5.897   0.321   6.491
    3TYR     BB  708   6.165   0.280   6.682
    3TYR    SC1  709   6.047   0.137   6.920
    3TYR    SC2  710   6.009   0.047   7.172
    3TYR    SC3  711   5.797   0.119   7.021
    1TYR     BB  712   6.869   1.394   0.669
    1TYR    SC1  713   6.592   1.313   0.564
    1TYR    SC2  714   6.429   1.105   0.505
    1TYR    SC3  715   6.326   1.352   0.540
    2GLY     BB  716   6.890   1.189   0.945
    3TYR     BB  717   6.568   1.076   1.013
    3TYR    SC1  718   6.423   1.338   1.031
    3TYR    SC2  719   6.205   1.482   0.965
    3TYR    SC3  720   6.451   1.589   0.934
    1TYR     BB  721   1.113   6.495   5.523
    1TYR    SC1  722   1.357   6.548   5.330
    1TYR    SC2  723   1.513   6.409   5.159
    1TYR    SC3  724   1.433   6.659   5.096
    2GLY     BB  725   0.881   6.413   5.304
    3TYR     BB  726   0.994   6.410   5.013
    3TYR    SC1  727   1.014   6.129   4.902
    3TYR    SC2  728   1.170   5.917   4.843
    3TYR    SC3  729   0.936   5.952   4.713
    1TYR     BB  730   3.442   3.272   4.134
    1TYR    SC1  731   3.306   3.282   3.854
    1TYR    SC2  732   3.079   3.222   3.719
    1TYR    SC3  733   3.317   3.226   3.590
    2GLY     BB  734   3.739   3.381   4.075
    3TYR     BB  735   3.751   3.597   3.856
    3TYR    SC1  736   3.708   3.444   3.586
    3TYR    SC2  737   3.651   3.469   3.323
    3TYR    SC3  738   3.791   3.256   3.412
    1TYR     BB  739   3.409   7.878   2.976
    1TYR    SC1  740   3.188   0.091   2.914
    1TYR    SC2  741   2.928   0.086   2.840
    1TYR    SC3  742   3.035   0.311   2.944
    2GLY     BB  743   3.324   7.640   2.742
    3TYR     BB  744   3.102   7.737   2.528
    3TYR    SC1  745   3.052   7.560   2.274
    3TYR    SC2  746   3.077   7.538   2.006
    3TYR    SC3  747   3.063   7.316   2.159
    1TYR     BB  748   4.606   0.989   3.705
    1TYR    SC1  749   4.480   0.851   3.456
    1TYR    SC2  750   4.457   0.605   3.347
    1TYR    SC3  751   4.259   0.786   3.314
    2GLY     BB  752   4.571   0.691   3.907
    3TYR     BB  753   4.305   0.451   3.850
    3TYR    SC1  754   4.106   0.464   3.607
    3TYR    SC2  755   4.033   0.372   3.363
    3TYR    SC3  756   3.872   0.543   3.497
    1TYR     BB  757   5.722   3.517   1.665
    1TYR    SC1  758   5.804   3.701   1.902
    1TYR    SC2  759   5.839   3.707   2.170
    1TYR    SC3  760   6.014   3.833   2.008
    2GLY     BB  761   5.952   3.299   1.661
    3TYR     BB  762   6.153   3.325   1.943
    3TYR    SC1  763   5.933   3.246   2.162
    3TYR    SC2  764   5.740   3.079   2.250
    3TYR    SC3  765   5.817   3.289   2.401
    1TYR     BB  766   3.430   3.187   0.406
    1TYR    SC1  767   3.397   3.153   0.097
    1TYR    SC2  768   3.329   3.123   7.837
    1TYR    SC3  769   3.589   3.141   7.907
    2GLY     BB  770   3.591   3.444   0.447
    3TYR     BB  771   3.637   3.637   0.207
    3TYR    SC1  772   3.527   3.586   7.920
    3TYR    SC2  773   3.294   3.583   7.783
    3TYR    SC3  774   3.526   3.526   7.657
    1TYR     BB  775   4.230   4.361   0.077
    1TYR    SC1  776   4.380   4.139   7.931
    1TYR    SC2  777   4.381   4.030   7.684
    1TYR    SC3  778   4.604   4.023   7.835
    2GLY     BB  779   4.203   4.569   7.788
    3TYR     BB  780   4.458   4.521   7.564
    3TYR    SC1  781   4.317   4.349   7.358
    3TYR    SC2  782   4.078   4.275   7.256
    3TYR    SC3  783   4.290   4.110   7.235
    1TYR     BB  784   3.931   2.526   2.911
    1TYR    SC1  785   3.828   2.243   2.952
    1TYR    SC2  786   3.632   2.060   2.926
    1TYR    SC3  787   3.829   2.020   3.105
    2GLY     BB  788   3.632   2.683   2.819
    3TYR     BB  789   3.372   2.501   2.889
    3TYR    SC1  790   3.263   2.439   2.595
    3TYR    SC2  791   3.072   2.471   2.407
    3TYR    SC3  792   3.331   2.508   2.343
    1TYR     BB  793   6.187   7.295   1.123
    1TYR    SC1  794   6.041   7.571   1.104
    1TYR    SC2  795   5.900   7.786   1.020
    1TYR    SC3  796   5.935   7.743   1.284
    2GLY     BB  797   6.088   7.227   1.463
    3TYR     BB  798   5.796   7.300   1.523
    3TYR    SC1  799   5.647   7.368   1.258
    3TYR    SC2  800   5.623   7.399   0.991
    3TYR    SC3  801   5.407   7.336   1.140
    1TYR     BB  802   1.349   4.789   1.630
    1TYR    SC1  803   1.637   4.907   1.653
    1TYR    SC2  804   1.822   5.043   1.512
    1TYR    SC3  805   1.896   4.897   1.727
    2GLY     BB  806   1.245   4.866   1.338
    3TYR     BB  807   1.459   5.031   1.166
    3TYR    SC1  808   1.505   5.290   1.328
    3TYR    SC2  809   1.665   5.500   1.274
    3TYR    SC3  810   1.447   5.533   1.429
    1TYR     BB  811   7.153   3.151   0.785
    1TYR    SC1  812   7.025   3.431   0.720
    1TYR    SC2  813   7.069   3.697   0.728
    1TYR    SC3  814   6.818   3.601   0.755
    2GLY     BB  815   6.987   2.996   0.998
    3TYR     BB  816   6.857   3.042   1.270
    3TYR    SC1  817   6.627   3.243   1.230
    3TYR    SC2  818   6.375   3.336   1.260
    3TYR    SC3  819   6.555   3.477   1.115
    1TYR     BB  820   3.238   4.028   1.467
    1TYR    SC1  821   3.314   3.827   1.680
    1TYR    SC2  822   3.468   3.612   1.731
    1TYR    SC3  823   3.439   3.805   1.918
    2GLY     BB  824   3.485   4.004   1.258
    3TYR     BB  825   3.739   3.905   1.346
    3TYR    SC1  826   3.779   3.613   1.414
    3TYR    SC2  827   3.687   3.359   1.409
    3TYR    SC3  828   3.856   3.438   1.604
    1TYR     BB  829   6.910   1.172   2.600
    1TYR    SC1  830   6.714   0.966   2.460
    1TYR    SC2  831   6.513   0.954   2.280
    1TYR    SC3  832   6.510   0.792   2.496
    2GLY     BB  833   7.131   1.215   2.365
    3TYR     BB  834   7.114   1.000   2.127
    3TYR    SC1  835   6.843   1.036   1.980
    3TYR    SC2  836   6.625   1.140   1.858
    3TYR    SC3  837   6.665   0.873   1.858
    1TYR     BB  838   2.222   2.806   2.151
    1TYR    SC1  839   2.195   2.981   2.409
    1TYR    SC2  840   2.295   3.178   2.564
    1TYR    SC3  841   2.054   3.070   2.622
    2GLY     BB  842   1.959   2.781   1.990
    3TYR     BB  843   1.727   3.014   2.048
    3TYR    SC1  844   1.859   3.234   2.223
    3TYR    SC2  845   2.037   3.426   2.288
    3TYR    SC3  846   1.802   3.410   2.420
    1TYR     BB  847   2.892   6.111   2.820
    1TYR    SC1  848   2.953   6.027   2.526
    1TYR    SC2  849   3.001   6.009   2.260
    1TYR    SC3  850   3.174   5.898   2.436
    2GLY     BB  851   2.960   6.397   2.857
    3TYR     BB  852   2.975   6.543   2.553
    3TYR    SC1  853   3.215   6.401   2.433
    3TYR    SC2  854   3.381   6.280   2.258
    3TYR    SC3  855   3.432   6.269   2.523
    1TYR     BB  856   3.879   0.455   1.962
    1TYR    SC1  857   3.972   0.560   1.684
    1TYR    SC2  858   4.085   0.760   1.541
    1TYR    SC3  859   4.092   0.506   1.449
    2GLY     BB  860   4.155   0.461   2.119
    3TYR     BB  861   4.382   0.655   2.016
    3TYR    SC1  862   4.471   0.593   1.737
    3TYR    SC2  863   4.524   0.618   1.474
    3TYR    SC3  864   4.623   0.408   1.612
    1TYR     BB  865   2.746   1.708   5.103
    1TYR    SC1  866   2.922   1.475   5.184
    1TYR    SC2  867   3.036   1.343   5.390
    1TYR    SC3  868   2.930   1.205   5.184
    2GLY     BB  869   2.444   1.593   5.050
    3TYR     BB  870   2.347   1.314   4.822
    3TYR    SC1  871   2.607   1.360   4.668
    3TYR    SC2  872   2.775   1.559   4.595
    3TYR    SC3  873   2.864   1.359   4.752
    1TYR     BB  874   2.197   3.134   5.103
    1TYR    SC1  875   1.966   3.202   5.308
    1TYR    SC2  876   1.855   3.325   5.521
    1TYR    SC3  877   1.710   3.150   5.376
    2GLY     BB  878   2.111   3.293   4.850
    3TYR     BB  879   1.966   3.557   4.928
    3TYR    SC1  880   1.721   3.549   5.108
    3TYR    SC2  881   1.561   3.613   5.317
    3TYR    SC3  882   1.461   3.474   5.108
    1TYR     BB  883   4.058   5.499   6.155
    1TYR    SC1  884   3.770   5.546   6.203
    1TYR    SC2  885   3.561   5.503   6.368
    1TYR    SC3  886   3.589   5.742   6.245
    2GLY     BB  887   4.176   5.805   6.039
    3TYR     BB  888   3.980   6.024   6.030
    3TYR    SC1  889   3.802   6.071   5.784
    3TYR    SC2  890   3.618   6.235   5.677
    3TYR    SC3  891   3.606   5.970   5.629
    1TYR     BB  892   0.947   7.318   2.990
    1TYR    SC1  893   0.708   7.302   3.186
    1TYR    SC2  894   0.634   7.379   3.434
    1TYR    SC3  895   0.447   7.304   3.255
    2GLY     BB  896   1.045   7.625   3.047
    3TYR     BB  897   1.170   7.633   3.348
    3TYR    SC1  898   0.968   7.784   3.522
    3TYR    SC2  899   0.739   7.811   3.661
    3TYR    SC3  900   0.876   0.030   3.583
    4W        W  901   0.358   1.566   2.702
    5W        W  902   3.924   5.704   1.762
    6W        W  903   4.906   7.622   1.780
    7W        W  904   3.807   4.129   0.320
    8W        W  905   6.058   0.920   3.825
    9W        W  906   3.531   7.473   2.297
   10W        W  907   2.503   3.121   3.398
   11W        W  908   3.517   5.936   3.385
   12W        W  909   3.467   7.612   5.031
   13W        W  910   3.669   6.692   2.629
   14W        W  911   3.052   3.602   6.214
   15W        W  912   3.846   2.578   5.517
   16W        W  913   1.126   6.582   6.044
   17W        W  914   2.929   7.473   4.923
   18W        W  915   5.947   6.272   3.323
   19W        W  916   7.106   3.112   2.106
   20W        W  917   3.622   1.970   0.906
   21W        W  918   4.565   4.214   4.067
   22W        W  919   4.176   3.625   1.084
   23W        W  920   3.055   5.896   3.867
   24W        W  921   5.718   5.095   0.130
   25W        W  922   3.796   5.406   1.368
   26W        W  923   0.499   3.170   4.120
   27W        W  924   2.165   5.913   4.915
   28W        W  925   3.085   7.914   5.206
   29W        W  926   1.534   4.210   3.815
   30W        W  927   0.716   6.931   3.649
   31W        W  928   2.722   0.878   4.831
   32W        W  929   1.615   7.498   5.604
   33W        W  930   0.438   1.363   3.549
   34W        W  931   0.716   4.645   4.172
   35W        W  932   6.627   4.533   2.407
   36W        W  933   7.278   6.878   5.888
   37W        W  934   3.488   1.894   1.429
   38W        W  935   4.291   0.600   4.563
   39W        W  936   3.694   6.182   1.735
   40W        W  937   3.338   4.052   2.700
   41W        W  938   3.007   7.235   2.679
   42W        W  939   1.693   7.604   5.104
   43W        W  940   5.562   1.083   3.733
   44W        W  941   7.734   6.927   2.633
   45W        W  942   3.942   4.574   6.507
   46W        W  943   7.816   2.791   3.965
   47W        W  944   4.677   2.248   6.009
   48W        W  945   5.546   4.583   4.792
   49W        W  946   5.045   5.977   6.304
   50W        W  947   0.789   1.926   6.030
   51W        W  948   4.608   1.387   7.250
   52W        W  949   1.299   5.306   2.337
   53W        W  950   1.277   3.379   4.056
   54W        W  951   3.362   0.444   1.953
   55W        W  952   1.574   0.543   3.778
   56W        W  953   1.791   2.612   3.936
   57W        W  954   4.156   7.183   3.102
   58W        W  955   1.079   7.339   1.368
   59W        W  956   2.001   6.303   3.926
   60W        W  957   5.215   5.804   0.669
   61W        W  958   6.214   1.619   4.623
   62W        W  959   0.931   1.071   7.619
   63W        W  960   0.988   7.150   0.862
   64W        W  961   2.270   7.132   1.539
   65W        W  962   6.434   3.732   3.752
   66W        W  963   3.248   3.587   4.470
   67W        W  964   3.392   3.911   0.585
   68W        W  965   4.526   0.105   2.169
   69W        W  966   6.498   6.144   2.610
   70W        W  967   7.425   7.477   7.786
   71W        W  968   3.135   1.035   6.787
   72W        W  969   6.073   1.025   0.844
   73W        W  970   7.435   3.041   1.265
   74W        W  971   5.752   5.224   6.883
   75W        W  972   5.954   5.513   6.530
   76W        W  973   1.372   1.467   1.940
   77W        W  974   0.548   0.399   0.195
   78W        W  975   5.230   5.915   3.984
   79W        W  976   1.795   2.406   6.751
   80W        W  977   5.153   2.645   1.706
   81W        W  978   6.226   7.605   0.622
   82W        W  979   1.538   4.324   2.837
   83W        W  980   0.585   0.024   1.159
   84W        W  981   1.787   0.896   6.530
   85W        W  982   5.691   6.862   2.709
   86W        W  983   5.896   5.634   5.212
   87W        W  984   7.715   3.343   5.446
   88W        W  985   2.314   3.465   0.899
   89W        W  986   5.084   5.379   4.279
   90W        W  987   1.356   0.158   1.623
   91W        W  988   5.883   4.011   1.498
   92W        W  989   2.415   2.460   2.454
   93W        W  990   0.670   4.008   3.879
   94W        W  991   6.115   4.983   1.303
   95W        W  992   0.953   5.082   1.749
   96W        W  993   7.254   3.797   1.573
   97W        W  994   3.929   5.587   5.668
   98W        W  995   0.412   3.512   3.156
   99W        W  996   5.835   6.933   1.121
  100W        W  997   7.614   7.974   7.118
  101W        W  998   2.931   4.185   0.635
  102W        W  999   3.575   0.714   4.652
  103W        W 1000   3.519   5.282   4.922
  104W        W 1001   7.495   6.619   1.787
  105W        W 1002   0.418   3.292   6.028
  106W        W 1003   1.116   2.992   0.919
  107W        W 1004   5.329   7.242   5.484
  108W        W 1005   1.500   0.014   3.220
  109W        W 1006   0.619   7.568   1.418
  110W        W 1007   1.934   0.288   5.796
  111W        W 1008   3.537   2.518   4.249
  112W        W 1009   0.628   0.133   0.651
  113W        W 1010   2.901   7.351   6.343
  114W        W 1011   1.767   7.968   1.891
  115W        W 1012   3.380   4.524   2.879
  116W        W 1013   2.615   5.024   3.318
  117W        W 1014   3.192   4.284   1.928
  118W        W 1015   1.395   6.337   4.692
  119W        W 1016   6.219   3.137   5.347
  120W        W 1017   4.091   4.897   5.135
  121W        W 1018   5.963   7.057   7.428
  122W        W 1019   3.525   0.796   2.289
  123W        W 1020   5.836   3.701   3.997
  124W        W 1021   2.700   2.628   2.041
  125W        W 1022   4.324   2.505   7.629
  126W        W 1023   7.900   6.665   3.552
  127W        W 1024   3.960   7.715   5.797
  128W        W 1025   4.107   2.944   5.871
  129W        W 1026   6.897   5.299   2.112
  130W        W 1027   6.255   7.816   6.030
  131W        W 1028   2.429   2.157   1.356
  132W        W 1029   1.463   5.572   3.882
  133W        W 1030   3.693   6.496   4.534
  134W        W 1031   4.531   1.935   0.762
  135W        W 1032   1.287   2.313   5.640
  136W        W 1033   5.925   6.818   3.191
  137W        W 1034   2.914   4.268   2.917
  138W        W 1035   1.184   5.301   2.842
  139W        W 1036   3.349   4.562   2.378
  140W        W 1037   4.059   5.094   2.356
  141W        W 1038   2.963   1.036   4.392
  142W        W 1039   6.793   5.449   1.113
  143W        W 1040   4.973   3.057   1.480
  144W        W 1041   4.127   3.156   1.299
  145W        W 1042   2.647   7.030   3.729
  146W        W 1043   3.698   5.568   0.507
  147W        W 1044   6.121   5.962   2.953
  148W        W 1045   0.718   4.588   5.870
  149W        W 1046   0.527   0.981   1.082
  150W        W 1047   0.747   4.720   2.057
  151W        W 1048   4.746   5.004   6.271
  152W        W 1049   3.965   7.466   3.534
  153W        W 1050   6.570   2.936   7.213
  154W        W 1051   4.242   3.123   1.833
  155W        W 1052   0.072   3.494   5.091
  156W        W 1053   7.103   1.889   5.761
  157W        W 1054   0.615   5.701   6.190
  158W        W 1055   1.530   0.961   6.106
  159W        W 1056   3.972   7.446   2.084
  160W        W 1057   6.147   3.610   0.401
  161W        W 1058   1.620   5.295   6.775
  162W        W 1059   5.786   1.343   7.669
  163W        W 1060   2.715   5.979   1.757
  164W        W 1061   2.494   5.823   2.722
  165W        W 1062   3.627   1.647   4.294
  166W        W 1063   3.649   3.615   0.931
  167W        W 1064   0.149   0.294   0.543
  168W        W 1065   2.551   6.797   1.831
  169W        W 1066   6.372   5.492   0.786
  170W        W 1067   6.252   2.887   3.172
  171W        W 1068   5.872   1.683   7.274
  172W        W 1069   7.090   4.926   6.671
  173W        W 1070   2.855   3.907   3.267
  174W        W 1071   7.141   5.517   4.753
  175W        W 1072   5.228   2.183   7.427
  176W        W 1073   4.390   3.762   6.436
  177W        W 1074   3.287   4.794   4.600
  178W        W 1075   5.875   3.521   4.883
  179W        W 1076   2.467   3.624   1.938
  180W        W 1077   1.450   1.224   4.910
  181W        W 1078   1.098   6.834   1.548
  182W        W 1079   0.675   1.814   3.505
  183W        W 1080   3.719   4.652   4.266
  184W        W 1081   3.414   1.548   1.065
  185W        W 1082   5.922   4.056   1.006
  186W        W 1083   7.351   4.014   2.021
  187W        W 1084   2.526   3.025   0.782
  188W        W 1085   1.334   2.594   2.751
  189W        W 1086   0.810   2.376   4.855
  190W        W 1087   2.443   7.760   4.647
  191W        W 1088   2.660   6.208   0.739
  192W        W 1089   5.645   6.045   2.773
  193W        W 1090   5.239   7.232   4.956
  194W        W 1091   5.815   2.257   5.129
  195W        W 1092   6.101   7.319   4.822
  196W        W 1093   3.697   4.244   4.547
  197W        W 1094   2.448   4.867   0.901
  198W        W 1095   5.134   6.561   4.416
  199W        W 1096   3.083   2.424   7.723
  200W        W 1097   3.672   2.641   1.993
  201W        W 1098   1.297   3.448   2.497
  202W        W 1099   7.221   0.935   6.833
  203W        W 1100   3.653   3.487   5.391
  204W        W 1101   2.489   4.965   7.126
  205W        W 1102   4.358   6.341   6.011
  206W        W 1103   5.249   6.794   3.983
  207W        W 1104   6.510   1.098   5.955
  208W        W 1105   6.379   0.158   4.859
  209W        W 1106   7.380   6.389   4.980
  210W        W 1107   2.446   6.344   4.833
  211W        W 1108   2.294   2.624   3.794
  212W        W 1109   0.659   7.634   0.516
  213W        W 1110   0.723   7.485   4.333
  214W        W 1111   0.722   3.321   6.883
  215W        W 1112   3.666   0.700   1.251
  216W        W 1113   6.924   5.033   3.048
  217W        W 1114   6.991   2.636   7.218
  218W        W 1115   6.406   7.291   7.329
  219W        W 1116   1.477   5.023   3.151
  220W        W 1117   3.635   1.016   3.914
  221W        W 1118   1.647   4.502   1.926
  222W        W 1119   1.053   1.139   4.124
  223W        W 1120   6.573   7.258   7.821
  224W        W 1121   6.229   3.103   0.337
  225W        W 1122   1.867   5.469   1.748
  226W        W 1123   3.728   4.194   4.035
  227W        W 1124   2.911   2.169   2.048
  228W        W 1125   2.946   6.129   5.055
  229W        W 1126   0.267   5.395   4.490
  230W        W 1127   7.103   2.182   0.846
  231W        W 1128   7.315   6.964   0.439
  232W        W 1129   2.881   1.755   6.289
  233W        W 1130   5.614   3.422   6.529
  234W        W 1131   1.318   4.115   5.415
  235W        W 1132   1.916   4.696   0.897
  236W        W 1133   4.782   5.979   2.738
  237W        W 1134   1.050   2.759   0.462
  238W        W 1135   2.325   5.124   4.313
  239W        W 1136   3.125   7.997   3.414
  240W        W 1137   6.364   3.412   4.924
  241W        W 1138   4.964   0.482   5.985
  242W        W 1139   2.310   6.932   5.400
  243W        W 1140   1.404   2.871   3.732
  244W        W 1141   2.135   2.885   4.207
  245W        W 1142   1.246   3.782   3.744
  246W        W 1143   1.585   5.149   0.120
  247W        W 1144   6.118   1.081   5.635
  248W        W 1145   6.485   4.241   3.142
  249W        W 1146   2.037   4.397   3.665
  250W        W 1147   1.788   3.044   7.789
  251W        W 1148   7.636   7.365   2.868
  252W        W 1149   1.029   7.820   2.368
  253W        W 1150   3.844   4.417   1.257
  254W        W 1151   2.919   3.996   4.297
  255W        W 1152   4.696   5.909   1.413
  256W        W 1153   1.611   1.488   5.310
  257W        W 1154   3.758   0.480   3.975
  258W        W 1155   2.722   7.279   1.751
  259W        W 1156   1.385   4.809   2.650
  260W        W 1157   2.591   1.181   3.809
  261W        W 1158   5.003   7.185   1.461
  262W        W 1159   5.843   5.000   4.775
  263W        W 1160   5.599   5.063   2.797
  264W        W 1161   7.426   5.666   2.787
  265W        W 1162   5.078   1.195   3.638
  266W        W 1163   5.821   4.720   6.722
  267W        W 1164   1.950   5.380   7.829
  268W        W 1165   1.119   4.354   1.879
  269W        W 1166   6.905   4.964   3.592
  270W        W 1167   3.833   5.457   4.121
  271W        W 1168   0.185   5.117   5.114
  272W        W 1169   7.833   6.470   5.285
  273W        W 1170   4.055   5.912   3.472
  274W        W 1171   5.385   4.559   7.538
  275W        W 1172   1.818   3.380   1.080
  276W        W 1173   1.853   3.875   5.659
  277W        W 1174   6.986   7.365   2.322
  278W        W 1175   1.940   5.820   3.709
  279W        W 1176   4.887   3.552   0.350
  280W        W 1177   6.269   5.866   4.922
  281W        W 1178   4.329   3.613   1.647
  282W        W 1179   5.781   6.225   7.778
  283W        W 1180   2.514   4.447   3.210
  284W        W 1181   4.165   0.868   5.214
  285W        W 1182   1.564   5.759   0.566
  286W        W 1183   0.735   2.337   3.473
  287W        W 1184   3.639   6.752   0.578
  288W        W 1185   5.567   5.903   5.544
  289W        W 1186   1.487   2.362   7.140
  290W        W 1187   0.542   4.712   2.635
  291W        W 1188   2.506   4.270   6.520
  292W        W 1189   1.002   5.338   1.294
  293W        W 1190   7.384   3.667   2.386
  294W        W 1191   4.891   0.700   6.902
  295W        W 1192   2.932   1.923   3.431
  296W        W 1193   6.170   0.918   1.336
  297W        W 1194   0.533   4.026   3.385
  298W        W 1195   2.008   2.191   6.351
  299W        W 1196   4.578   6.899   1.397
  300W        W 1197   4.727   2.906   0.527
  301W        W 1198   6.841   3.916   1.160
  302W        W 1199   2.687   2.341   5.850
  303W        W 1200   6.258   0.718   6.478
  304W        W 1201   0.889   3.820   7.050
  305W        W 1202   1.932   1.289   6.114
  306W        W 1203   1.015   6.935   5.170
  307W        W 1204   6.458   6.823   7.555
  308W        W 1205   6.907   6.981   4.577
  309W        W 1206   4.711   4.292   7.029
  310W        W 1207   5.305   3.726   2.584
  311W        W 1208   6.480   4.962   3.309
  312W        W 1209   4.839   5.574   1.772
  313W        W 1210   1.668   1.167   2.515
  314W        W 1211   2.339   5.340   2.743
  315W        W 1212   3.064   0.567   4.599
  316W        W 1213   4.245   0.430   2.923
  317W        W 1214   6.656   7.439   5.343
  318W        W 1215   6.632   1.647   7.115
  319W        W 1216   5.604   4.997   3.851
  320W        W 1217   0.393   2.076   6.305
  321W        W 1218   6.786   5.432   5.630
  322W        W 1219   2.832   5.661   7.153
  323W        W 1220   7.108   3.476   1.194
  324W        W 1221   6.677   6.790   0.548
  325W        W 1222   4.780   1.179   6.814
  326W        W 1223   6.336   3.830   0.833
  327W        W 1224   6.546   6.382   0.832
  328W        W 1225   1.260   4.785   2.126
  329W        W 1226   4.805   2.327   3.182
  330W        W 1227   2.103   6.582   5.759
  331W        W 1228   1.064   1.997   5.084
  332W        W 1229   1.958   4.085   2.664
  333W        W 1230   6.382   1.208   6.440
  334W        W 1231   1.457   6.590   2.281
  335W        W 1232   0.924   1.351   1.103
  336W        W 1233   2.555   1.365   6.101
  337W        W 1234   3.283   1.604   2.749
  338W        W 1235   6.087   1.224   5.157
  339W        W 1236   2.781   3.313   6.978
  340W        W 1237   7.209   3.299   1.643
  341W        W 1238   6.800   7.599   7.123
  342W        W 1239   6.029   6.541   7.418
  343W        W 1240   1.675   0.614   2.489
  344W        W 1241   0.679   2.781   1.061
  345W        W 1242   2.673   4.995   1.343
  346W        W 1243   5.819   3.155   3.261
  347W        W 1244   7.517   3.624   4.512
  348W        W 1245   5.330   5.977   7.794
  349W        W 1246   4.335   3.161   4.318
  350W        W 1247   4.517   7.094   7.003
  351W        W 1248   2.726   5.814   6.488
  352W        W 1249   5.832   1.735   2.194
  353W        W 1250   5.143   1.956   3.384
  354W        W 1251   4.776   5.217   6.880
  355W        W 1252   5.261   3.549   0.766
  356W        W 1253   4.207   2.841   0.499
  357W        W 1254   4.528   1.529   2.194
  358W        W 1255   7.138   3.153   4.853
  359W        W 1256   4.266   4.986   5.602
  360W        W 1257   5.332   1.451   0.527
  361W        W 1258   4.399   3.510   2.178
  362W        W 1259   2.776   0.240   5.500
  363W        W 1260   2.426   5.483   4.993
  364W        W 1261   2.462   4.394   0.689
  365W        W 1262   2.257   2.650   0.527
  366W        W 1263   3.005   3.676   4.952
  367W        W 1264   7.778   3.854   5.319
  368W        W 1265   5.891   6.073   7.263
  369W        W 1266   7.230   5.801   1.403
  370W        W 1267   5.143   1.347   5.007
  371W        W 1268   4.825   3.984   2.934
  372W        W 1269   7.420   3.761   6.484
  373W        W 1270   4.450   4.781   3.194
  374W        W 1271   5.072   0.078   1.537
  375W        W 1272   1.105   1.648   3.233
  376W        W 1273   6.267   4.817   5.031
  377W        W 1274   4.251   0.948   6.137
  378W        W 1275   0.963   6.324   0.494
  379W        W 1276   1.976   5.154   1.078
  380W        W 1277   7.783   1.359   1.858
  381W        W 1278   5.658   7.118   6.604
  382W        W 1279   1.025   3.027   2.662
  383W        W 1280   1.654   4.694   3.980
  384W        W 1281   7.106   6.589   0.735
  385W        W 1282   6.785   1.634   1.837
  386W        W 1283   6.395   4.078   2.329
  387W        W 1284   3.403   1.316   3.546
  388W        W 1285   0.203   3.502   1.339
  389W        W 1286   0.256   1.223   1.681
  390W        W 1287   5.509   6.428   7.413
  391W        W 1288   5.057   4.671   2.197
  392W        W 1289   1.671   4.645   3.435
  393W        W 1290   5.203   7.188   1.922
  394W        W 1291   1.903   2.659   3.429
  395W        W 1292   0.387   2.184   4.606
  396W        W 1293   2.344   3.801   6.668
  397W        W 1294   6.159   5.861   6.219
  398W        W 1295   1.044   3.831   4.223
  399W        W 1296   0.824   2.032   5.531
  400W        W 1297   2.885   6.999   3.281
  401W        W 1298   2.254   3.271   7.886
  402W        W 1299   7.749   1.882   5.222
  403W        W 1300   3.953   1.824   5.073
  404W        W 1301   5.893   2.001   6.852
  405W        W 1302   0.594   5.674   4.088
  406W        W 1303   1.851   1.168   1.204
  407W        W 1304   3.518   1.919   0.297
  408W        W 1305   1.137   1.894   3.686
  409W        W 1306   7.954   2.268   2.339
  410W        W 1307   2.558   2.031   7.206
  411W        W 1308   2.589   1.128   3.106
  412W        W 1309   0.505   3.681   4.274
  413W        W 1310   5.899   1.704   3.228
  414W        W 1311   3.336   2.418   4.722
  415W        W 1312   4.233   3.235   7.152
  416W        W 1313   3.013   5.128   7.041
  417W        W 1314   5.208   3.035   2.021
  418W        W 1315   0.675   6.541   5.830
  419W        W 1316   3.491   6.413   3.011
  420W        W 1317   7.393   7.782   6.684
  421W        W 1318   0.695   3.835   1.901
  422W        W 1319   7.268   1.528   6.490
  423W        W 1320   0.829   2.091   1.871
  424W        W 1321   6.633   4.860   6.418
  425W        W 1322   4.435   6.748   3.094
  426W        W 1323   5.326   2.879   5.368
  427W        W 1324   2.270   5.088   7.576
  428W        W 1325   6.220   6.360   4.917
  429W        W 1326   1.000   1.890   1.069
  430W        W 1327   2.605   3.429   6.454
  431W        W 1328   7.515   4.226   1.487
  432W        W 1329   6.042   4.471   3.951
  433W        W 1330   4.381   6.162   4.240
  434W        W 1331   4.756   3.960   5.555
  435W        W 1332   6.337   1.734   2.954
  436W        W 1333   0.988   0.660   6.848
  437W        W 1334   1.008   1.059   1.968
  438W        W 1335   5.623   5.028   0.645
  439W        W 1336   1.297   5.506   4.595
  440W        W 1337   2.709   0.836   1.753
  441W        W 1338   6.760   2.298   0.470
  442W        W 1339   1.338   0.583   6.506
  443W        W 1340   4.961   7.179   0.952
  444W        W 1341   1.566   5.758   5.624
  445W        W 1342   3.288   4.288   6.778
  446W        W 1343   5.921   3.428   5.632
  447W        W 1344   4.751   3.759   4.033
  448W        W 1345   6.035   7.233   6.939
  449W        W 1346   0.379   3.393   2.222
  450W        W 1347   5.062   1.453   3.197
  451W        W 1348   7.326   3.275   3.417
  452W        W 1349   0.528   0.710   7.129
  453W        W 1350   3.228   1.968   2.392
  454W        W 1351   1.436   2.681   7.835
  455W        W 1352   6.072   1.919   0.784
  456W        W 1353   6.861   3.542   3.540
  457W        W 1354   6.615   6.602   5.128
  458W        W 1355   7.675   0.754   6.700
  459W        W 1356   4.246   1.759   3.047
  460W        W 1357   6.692   5.702   2.370
  461W        W 1358   0.672   7.143   0.437
  462W        W 1359   3.348   3.850   4.040
  463W        W 1360   2.879   4.448   4.531
  464W        W 1361   7.994   7.643   6.425
  465W        W 1362   1.473   7.110   2.279
  466W        W 1363   2.931   1.934   3.983
  467W        W 1364   0.178   1.388   2.214
  468W        W 1365   2.605   3.136   2.038
  469W        W 1366   6.396   7.192   0.360
  470W        W 1367   7.001   2.698   5.175
  471W        W 1368   2.790   2.834   3.704
  472W        W 1369   2.525   3.530   4.998
  473W        W 1370   6.690   3.208   5.540
  474W        W 1371   1.503   3.233   0.705
  475W        W 1372   1.185   1.260   2.389
  476W        W 1373   7.335   3.943   4.881
  477W        W 1374   0.643   4.165   4.381
  478W        W 1375   0.095   3.086   3.164
  479W        W 1376   4.190   7.325   6.038
  480W        W 1377   4.218   4.054   5.664
  481W        W 1378   3.821   2.411   7.483
  482W        W 1379   1.453   5.700   2.611
  483W        W 1380   4.742   3.363   1.837
  484W        W 1381   3.173   7.455   5.427
  485W        W 1382   4.434   4.520   4.970
  486W        W 1383   4.614   4.072   2.474
  487W        W 1384   6.821   7.559   5.816
  488W        W 1385   5.225   2.717   1.208
  489W        W 1386   2.281   5.211   1.553
  490W        W 1387   0.860   4.104   1.495
  491W        W 1388   7.000   6.583   0.209
  492W        W 1389   6.270   3.805   3.285
  493W        W 1390   2.071   2.891   5.669
  494W        W 1391   2.754   5.256   7.474
  495W        W 1392   5.652   3.235   5.238
  496W        W 1393   6.161   2.688   4.104
  497W        W 1394   2.707   7.446   4.024
  498W        W 1395   4.420   1.013   4.274
  499W        W 1396   3.058   3.209   4.771
  500W        W 1397   3.038   1.414   3.174
  501W        W 1398   4.939   6.736   3.056
  502W        W 1399   0.570   6.651   4.942
  503W        W 1400   0.747   5.876   0.308
  504W        W 1401   7.291   2.091   3.898
  505W        W 1402   2.857   0.719   5.315
  506W        W 1403   1.821   1.962   4.561
  507W        W 1404   1.402   4.586   0.946
  508W        W 1405   7.472   7.774   3.125
  509W        W 1406   0.325   3.481   6.519
  510W        W 1407   7.028   4.592   2.727
  511W        W 1408   0.558   1.991   6.777
  512W        W 1409   5.322   4.561   3.931
  513W        W 1410   4.901   2.957   6.922
  514W        W 1411   6.571   7.477   6.249
  515W        W 1412   4.617   3.887   1.250
  516W        W 1413   7.315   7.560   7.190
  517W        W 1414   0.307   6.825   0.268
  518W        W 1415   7.581   0.254   5.823
  519W        W 1416   1.067   7.856   4.060
  520W        W 1417   6.406   7.658   0.105
  521W        W 1418   6.112   6.056   0.133
  522W        W 1419   4.493   2.843   1.491
  523W        W 1420   2.735   3.445   2.392
  524W        W 1421   4.743   2.747   1.054
  525W        W 1422   7.146   0.122   6.381
  526W        W 1423   5.731   1.046   1.642
  527W        W 1424   1.324   5.479   0.915
  528W        W 1425   0.477   3.272   4.649
  529W        W 1426   6.567   4.929   4.234
  530W        W 1427   5.540   4.444   7.041
  531W        W 1428   1.250   6.027   5.336
  532W        W 1429   3.888   1.635   5.665
  533W        W 1430   6.325   5.467   1.309
  534W        W 1431   1.783   6.364   6.600
  535W        W 1432   7.268   5.030   2.630
  536W        W 1433   0.240   3.689   2.661
  537W        W 1434   0.386   3.932   1.054
  538W        W 1435   2.004   6.120   6.999
  539W        W 1436   1.020   3.517   0.891
  540W        W 1437   3.301   0.915   5.461
  541W        W 1438   5.466   3.346   1.233
  542W        W 1439   0.001   4.172   6.083
  543W        W 1440   6.980   6.566   7.377
  544W        W 1441   5.652   4.849   1.111
  545W        W 1442   6.523   5.321   7.294
  546W        W 1443   5.114   5.559   7.583
  547W        W 1444   7.158   2.326   6.851
  548W        W 1445   4.706   5.562   5.439
  549W        W 1446   7.899   2.125   3.179
  550W        W 1447   3.346   5.538   3.650
  551W        W 1448   0.525   4.308   1.857
  552W        W 1449   0.408   4.162   5.762
  553W        W 1450   1.600   0.663   5.709
  554W        W 1451   2.758   2.064   2.536
  555W        W 1452   6.967   5.798   1.894
  556W        W 1453   5.963   0.567   0.673
  557W        W 1454   7.678   2.359   6.964
  558W        W 1455   5.227   3.439   1.689
  559W        W 1456   2.619   7.296   4.509
  560W        W 1457   1.817   3.093   6.074
  561W        W 1458   4.421   0.901   2.847
  562W        W 1459   5.149   5.185   6.483
  563W        W 1460   0.815   0.699   4.237
  564W        W 1461   4.727   5.947   5.116
  565W        W 1462   2.480   0.637   5.674
  566W        W 1463   0.196   5.624   5.860
  567W        W 1464   3.994   7.065   0.806
  568W        W 1465   0.765   5.509   4.564
  569W        W 1466   2.292   1.115   5.746
  570W        W 1467   2.669   6.997   5.035
  571W        W 1468   6.713   0.781   1.373
  572W        W 1469   1.867   5.221   7.247
  573W        W 1470   4.274   1.169   5.601
  574W        W 1471   4.669   5.176   2.947
  575W        W 1472   5.401   3.872   6.352
  576W        W 1473   7.143   2.817   1.635
  577W        W 1474   3.174   5.820   5.417
  578W        W 1475   1.293   1.139   1.536
  579W        W 1476   4.159   3.709   6.979
  580W        W 1477   1.617   7.207   4.492
  581W        W 1478   3.678   4.678   6.048
  582W        W 1479   5.821   1.293   1.218
  583W        W 1480   3.011   1.216   6.261
  584W        W 1481   6.513   4.331   5.059
  585W        W 1482   3.564   3.543   6.192
  586W        W 1483   5.317   0.832   6.091
  587W        W 1484   5.041   6.718   1.239
  588W        W 1485   2.339   3.291   4.396
  589W        W 1486   5.430   6.936   7.444
  590W        W 1487   1.437   4.861   5.732
  591W        W 1488   5.133   6.390   6.585
  592W        W 1489   6.820   0.927   7.163
  593W        W 1490   5.685   1.526   6.814
  594W        W 1491   6.462   0.306   5.347
  595W        W 1492   4.466   3.350   4.890
  596W        W 1493   5.174   1.766   1.123
  597W        W 1494   6.193   2.898   6.257
  598W        W 1495   6.647   4.582   4.643
  599W        W 1496   2.379   7.589   6.586
  600W        W 1497   3.271   2.725   3.540
  601W        W 1498   7.845   0.123   0.133
  602W        W 1499   6.602   3.143   0.708
  603W        W 1500   5.210   4.727   1.362
  604W        W 1501   0.491   7.348   6.247
  605W        W 1502   0.346   2.180   5.796
  606W        W 1503   7.629   3.941   2.802
  607W        W 1504   2.265   0.998   6.320
  608W        W 1505   5.268   0.535   1.736
  609W        W 1506   3.259   2.376   6.776
  610W        W 1507   3.939   0.505   4.934
  611W        W 1508   1.065   5.488   7.403
  612W        W 1509   5.462   1.393   7.272
  613W        W 1510   4.879   5.127   4.695
  614W        W 1511   1.914   7.059   5.709
  615W        W 1512   3.701   3.940   6.951
  616W        W 1513   5.664   3.732   5.307
  617W        W 1514   5.479   6.349   4.095
  618W        W 1515   6.462   6.683   4.610
  619W        W 1516   2.203   1.199   3.409
  620W        W 1517   6.799   0.255   7.390
  621W        W 1518   7.459   3.329   6.122
  622W        W 1519   4.918   4.311   7.551
  623W        W 1520   5.406   5.435   3.093
  624W        W 1521   2.739   3.565   4.525
  625W        W 1522   7.429   2.760   6.756
  626W        W 1523   3.828   5.136   5.874
  627W        W 1524   7.593   1.281   3.437
  628W        W 1525   0.778   3.146   3.127
  629W        W 1526   3.708   2.099   4.592
  630W        W 1527   5.748   6.946   0.246
  631W        W 1528   6.577   1.648   6.588
  632W        W 1529   4.676   4.973   4.260
  633W        W 1530   6.378   5.635   5.368
  634W        W 1531   3.157   0.233   6.051
  635W        W 1532   2.772   2.533   5.000
  636W        W 1533   3.985   7.102   6.937
  637W        W 1534   7.031   7.039   3.432
  638W        W 1535   5.217   4.916   5.009
  639W        W 1536   5.338   4.924   1.818
  640W        W 1537   3.594   0.863   1.732
  641W        W 1538   3.768   6.054   4.807
  642W        W 1539   7.261   0.793   5.523
  643W        W 1540   1.348   7.280   4.989
  644W        W 1541   7.893   6.684   3.048
  645W        W 1542   4.550   7.423   1.431
  646W        W 1543   3.316   6.934   3.912
  647W        W 1544   5.437   5.598   6.439
  648W        W 1545   1.147   3.867   2.096
  649W        W 1546   0.511   1.020   2.060
  650W        W 1547   6.806   4.050   1.654
  651W        W 1548   6.764   6.194   5.751
  652W        W 1549   1.855   5.270   4.005
  653W        W 1550   1.803   3.105   1.539
  654W        W 1551   1.734   3.957   7.317
  655W        W 1552   5.038   5.068   2.590
  656W        W 1553   5.955   7.414   0.214
  657W        W 1554   1.787   2.594   0.259
  658W        W 1555   1.160   5.509   6.861
  659W        W 1556   7.394   6.523   1.199
  660W        W 1557   4.659   6.983   2.684
  661W        W 1558   2.202   6.190   3.467
  662W        W 1559   7.130   0.623   6.433
  663W        W 1560   3.029   5.127   4.940
  664W        W 1561   6.428   1.279   2.689
  665W        W 1562   2.397   5.790   6.097
  666W        W 1563   5.158   1.271   2.317
  667W        W 1564   1.529   6.089   3.902
  668W        W 1565   5.346   5.698   3.528
  669W        W 1566   3.203   2.803   5.048
  670W        W 1567   3.189   3.451   0.766
  671W        W 1568   3.241   5.336   5.347
  672W        W 1569   3.338   5.952   2.915
  673W        W 1570   7.385   2.691   4.818
  674W        W 1571   5.386   3.642   4.882
  675W        W 1572   3.382   5.958   0.429
  676W        W 1573   3.584   4.259   6.344
  677W        W 1574   4.359   3.005   2.345
  678W        W 1575   1.756   0.952   3.449
  679W        W 1576   6.852   4.102   4.529
  680W        W 1577   0.069   3.482   1.827
  681W        W 1578   4.575   2.392   5.081
  682W        W 1579   5.995   5.474   3.996
  683W        W 1580   2.873   3.790   6.690
  684W        W 1581   6.160   0.904   1.843
  685W        W 1582   4.482   2.517   0.167
  686W        W 1583   3.797   1.167   2.536
  687W        W 1584   4.852   0.960   3.133
  688W        W 1585   6.423   4.245   3.668
  689W        W 1586   5.564   6.462   3.062
  690W        W 1587   4.453   5.011   7.695
  691W        W 1588   1.121   5.356   7.918
  692W        W 1589   1.697   4.368   5.632
  693W        W 1590   6.680   2.960   2.913
  694W        W 1591   4.999   6.371   3.885
  695W        W 1592   5.705   4.569   3.592
  696W        W 1593   6.924   6.129   0.562
  697W        W 1594   0.014   1.131   3.700
  698W        W 1595   0.672   1.814   1.478
  699W        W 1596   2.931   4.236   2.394
  700W        W 1597   6.169   5.044   6.554
  701W        W 1598   0.618   5.262   2.709
  702W        W 1599   4.992   5.531   2.795
  703W        W 1600   3.301   7.683   6.387
  704W        W 1601   0.659   1.479   3.101
  705W        W 1602   0.840   5.380   0.773
  706W        W 1603   3.444   0.902   7.180
  707W        W 1604   5.980   6.107   5.300
  708W        W 1605   1.339   3.337   1.224
  709W        W 1606   3.532   1.280   3.054
  710W        W 1607   1.457   3.462   2.025
  711W        W 1608   0.176   0.961   6.693
  712W        W 1609   6.364   0.592   1.001
  713W        W 1610   7.366   7.206   4.609
  714W        W 1611   5.003   6.744   1.740
  715W        W 1612   4.480   7.445   2.785
  716W        W 1613   2.731   2.465   6.736
  717W        W 1614   0.442   4.359   1.340
  718W        W 1615   6.227   6.389   1.736
  719W        W 1616   5.290   2.444   3.026
  720W        W 1617   4.090   2.302   4.299
  721W        W 1618   0.544   0.645   0.659
  722W        W 1619   5.276   5.666   2.061
  723W        W 1620   0.702   2.543   5.375
  724W        W 1621   3.211   1.709   1.884
  725W        W 1622   0.550   2.433   2.669
  726W        W 1623   1.911   3.907   3.684
  727W        W 1624   3.492   7.113   1.943
  728W        W 1625   5.548   4.167   2.756
  729W        W 1626   2.175   5.186   2.048
  730W        W 1627   5.810   7.259   4.184
  731W        W 1628   3.264   6.217   1.343
  732W        W 1629   3.927   3.834   7.473
  733W        W 1630   5.421   0.552   6.930
  734W        W 1631   3.910   7.948   2.099
  735W        W 1632   5.002   2.755   3.352
  736W        W 1633   5.704   7.675   0.581
  737W        W 1634   4.714   2.240   7.402
  738W        W 1635   3.292   3.649   3.031
  739W        W 1636   0.692   1.375   2.380
  740W        W 1637   3.199   6.001   6.965
  741W        W 1638   1.844   6.824   4.175
  742W        W 1639   1.804   1.405   3.172
  743W        W 1640   7.252   1.421   1.839
  744W        W 1641   1.989   3.839   0.954
  745W        W 1642   2.621   2.633   6.253
  746W        W 1643   7.540   2.119   5.636
  747W        W 1644   6.921   2.754   4.610
  748W        W 1645   6.130   3.949   5.097
  749W        W 1646   6.777   6.785   1.077
  750W        W 1647   3.070   7.860   5.717
  751W        W 1648   5.714   1.506   4.451
  752W        W 1649   7.067   5.814   6.597
  753W        W 1650   1.492   7.051   5.413
  754W        W 1651   1.617   3.571   1.566
  755W        W 1652   4.520   5.696   3.586
  756W        W 1653   4.157   4.558   5.869
  757W        W 1654   4.923   1.197   4.522
  758W        W 1655   3.397   7.946   2.154
  759W        W 1656   3.459   0.351   3.256
  760W        W 1657   3.064   5.815   4.509
  761W        W 1658   1.408   5.270   1.857
  762W        W 1659   5.815   4.741   7.773
  763W        W 1660   2.437   5.860   6.899
  764W        W 1661   3.676   2.058   5.480
  765W        W 1662   3.764   4.791   2.662
  766W        W 1663   3.347   4.232   3.711
  767W        W 1664   3.311   1.081   2.661
  768W        W 1665   4.799   0.964   2.138
  769W        W 1666   0.535   4.988   3.676
  770W        W 1667   6.340   2.022   6.351
  771W        W 1668   5.038   6.589   7.532
  772W        W 1669   7.109   0.697   2.615
  773W        W 1670   6.995   7.988   2.990
  774W        W 1671   2.601   6.037   3.200
  775W        W 1672   5.580   1.857   1.469
  776W        W 1673   5.991   7.722   5.560
  777W        W 1674   3.841   6.017   3.011
  778W        W 1675   3.992   0.685   2.542
  779W        W 1676   7.817   0.082   6.631
  780W        W 1677   5.555   3.877   6.852
  781W        W 1678   4.627   0.864   5.801
  782W        W 1679   6.545   6.222   6.777
  783W        W 1680   4.041   2.595   1.590
  784W        W 1681   4.273   4.808   2.013
  785W        W 1682   4.056   4.387   5.300
  786W        W 1683   4.133   4.165   2.315
  787W        W 1684   7.374   6.681   5.419
  788W        W 1685   6.334   0.490   1.567
  789W        W 1686   6.345   7.853   6.528
  790W        W 1687   3.469   1.911   5.005
  791W        W 1688   5.435   0.117   6.645
  792W        W 1689   7.264   2.255   4.408
  793W        W 1690   1.515   2.446   1.266
  794W        W 1691   6.118   7.390   6.470
  795W        W 1692   5.739   6.481   5.056
  796W        W 1693   3.286   6.886   2.343
  797W        W 1694   0.501   6.336   0.275
  798W        W 1695   6.729   5.853   1.441
  799W        W 1696   6.273   2.032   5.447
  800W        W 1697   6.909   6.470   4.735
  801W        W 1698   1.966   5.632   6.906
  802W        W 1699   1.203   5.008   0.730
  803W        W 1700   0.796   7.228   1.786
  804W        W 1701   3.622   6.176   6.667
  805W        W 1702   1.574   2.150   5.199
  806W        W 1703   6.886   6.671   5.607
  807W        W 1704   3.797   5.488   2.212
  808W        W 1705   2.285   1.564   3.028
  809W        W 1706   2.801   6.959   5.534
  810W        W 1707   1.563   4.134   3.323
  811W        W 1708   3.429   6.598   1.867
  812W        W 1709   3.989   6.530   3.002
  813W        W 1710   2.260   5.601   2.317
  814W        W 1711   1.692   7.026   3.541
  815W        W 1712   1.815   6.533   3.100
  816W        W 1713   5.565   4.171   3.324
  817W        W 1714   3.044   7.041   4.648
  818W        W 1715   5.478   3.845   1.151
  819W        W 1716   7.268   7.697   2.650
  820W        W 1717   4.039   1.414   2.164
  821W        W 1718   3.607   2.656   7.064
  822W        W 1719   2.717   2.937   1.256
  823W        W 1720   7.049   4.109   6.378
  824W        W 1721   3.844   1.522   0.778
  825W        W 1722   5.083   1.888   0.630
  826W        W 1723   5.819   1.940   4.703
  827W        W 1724   4.328   1.512   1.023
  828W        W 1725   3.846   1.807   6.146
  829W        W 1726   6.589   3.433   2.743
  830W        W 1727   5.315   4.413   1.759
  831W        W 1728   7.996   2.887   5.505
  832W        W 1729   5.360   3.860   5.813
  833W        W 1730   4.876   6.466   5.183
  834W        W 1731   0.625   3.189   3.597
  835W        W 1732   2.725   0.800   7.024
  836W        W 1733   0.949   3.000   3.973
  837W        W 1734   3.288   0.579   5.069
  838W        W 1735   4.714   7.178   3.174
  839W        W 1736   2.773   6.149   6.094
  840W        W 1737   2.627   2.960   6.626
  841W        W 1738   2.854   7.831   6.175
  842W        W 1739   7.139   7.957   5.874
  843W        W 1740   5.756   6.068   6.000
  844W        W 1741   6.613   2.508   4.255
  845W        W 1742   1.953   4.181   2.157
  846W        W 1743   5.967   2.846   0.703
  847W        W 1744   6.692   2.141   1.764
  848W        W 1745   1.513   2.571   2.223
  849W        W 1746   5.401   2.199   0.886
  850W        W 1747   6.434   2.686   0.550
  851W        W 1748   4.014   1.056   0.669
  852W        W 1749   1.397   0.970   1.043
  853W        W 1750   0.464   2.785   3.336
  854W        W 1751   4.949   3.537   5.778
  855W        W 1752   6.756   2.885   2.422
  856W        W 1753   6.999   3.622   4.701
  857W        W 1754   3.872   3.027   6.869
  858W        W 1755   1.236   0.416   3.418
  859W        W 1756   1.216   0.547   6.019
  860W        W 1757   2.102   1.036   3.879
  861W        W 1758   2.786   3.417   1.075
  862W        W 1759   5.757   2.157   7.389
  863W        W 1760   0.946   2.807   3.500
  864W        W 1761   1.774   4.924   7.679
  865W        W 1762   4.647   4.188   6.536
  866W        W 1763   6.817   3.762   2.436
  867W        W 1764   5.219   4.687   0.020
  868W        W 1765   6.632   6.711   1.752
  869W        W 1766   3.677   4.238   1.727
  870W        W 1767   3.931   1.336   5.256
  871W        W 1768   4.111   0.002   1.263
  872W        W 1769   0.809   3.304   6.366
  873W        W 1770   2.032   7.601   1.612
  874W        W 1771   0.772   1.089   5.521
  875W        W 1772   6.994   6.587   2.512
  876W        W 1773   3.341   1.963   6.465
  877W        W 1774   5.326   4.719   6.411
  878W        W 1775   1.258   3.575   7.846
  879W        W 1776   1.085   0.183   2.027
  880W        W 1777   6.121   7.498   7.714
  881W        W 1778   4.640   0.381   5.605
  882W        W 1779   5.036   5.377   5.101
  883W        W 1780   3.439   4.708   1.892
  884W        W 1781   6.053   2.595   1.375
  885W        W 1782   5.359   2.290   0.321
  886W        W 1783   4.316   1.650   5.397
  887W        W 1784   6.850   0.538   2.203
  888W        W 1785   0.163   1.295   3.117
  889W        W 1786   6.224   4.391   2.697
  890W        W 1787   3.170   7.336   4.240
  891W        W 1788   2.866   7.728   6.696
  892W        W 1789   0.910   0.225   7.766
  893W        W 1790   7.864   3.691   6.223
  894W        W 1791   2.885   6.914   6.049
  895W        W 1792   3.273   3.533   5.743
  896W        W 1793   4.565   5.479   4.915
  897W        W 1794   5.540   4.336   1.245
  898W        W 1795   3.220   5.313   4.508
  899W        W 1796   4.166   2.717   3.550
  900W        W 1797   2.689   7.248   6.822
  901W        W 1798   3.709   2.833   1.290
  902W        W 1799   1.965   1.038   4.991
  903W        W 1800   3.755   2.465   3.751
  904W        W 1801   1.360   0.504   1.258
  905W        W 1802   5.003   3.160   0.964
  906W        W 1803   6.574   3.342   6.881
  907W        W 1804   7.720   6.948   6.148
  908W        W 1805   4.921   4.814   7.617
  909W        W 1806   4.518   3.230   5.808
  910W        W 1807   3.095   7.309   3.663
  911W        W 1808   5.972   1.827   7.755
  912W        W 1809   1.314   5.419   6.388
  913W        W 1810   2.475   3.576   3.117
  914W        W 1811   6.199   6.556   5.412
  915W        W 1812   5.355   4.911   6.868
  916W        W 1813   4.018   5.871   6.526
  917W        W 1814   4.447   5.895   1.875
  918W        W 1815   0.246   4.457   3.364
  919W        W 1816   0.689   5.531   5.721
  920W        W 1817   6.669   2.534   3.202
  921W        W 1818   1.677   2.265   5.969
  922W        W 1819   4.476   5.826   7.326
  923W        W 1820   6.896   6.359   2.951
  924W        W 1821   5.792   4.128   6.014
  925W        W 1822   6.806   1.316   1.427
  926W        W 1823   0.090   3.752   5.705
  927W        W 1824   3.758   3.458   7.182
  928W        W 1825   6.566   0.087   6.973
  929W        W 1826   4.987   6.804   4.833
  930W        W 1827   0.610   4.193   4.890
  931W        W 1828   0.635   4.371   5.363
  932W        W 1829   4.202   2.168   7.260
  933W        W 1830   2.707   5.344   0.496
  934W        W 1831   3.720   2.751   3.315
  935W        W 1832   3.656   0.314   2.390
  936W        W 1833   2.558   1.585   4.142
  937W        W 1834   5.702   5.837   3.218
  938W        W 1835   4.742   5.922   0.882
  939W        W 1836   6.771   3.447   4.051
  940W        W 1837   0.558   3.394   1.717
  941W        W 1838   5.431   1.898   4.240
  942W        W 1839   6.601   6.354   3.809
  943W        W 1840   5.712   1.368   5.469
  944W        W 1841   7.461   5.020   7.035
  945W        W 1842   4.083   3.517   3.065
  946W        W 1843   5.892   3.057   1.211
  947W        W 1844   0.011   4.539   6.454
  948W        W 1845   1.034   7.866   1.381
  949W        W 1846   1.694   5.302   5.452
  950W        W 1847   6.772   3.565   1.567
  951W        W 1848   2.513   2.579   3.352
  952W        W 1849   1.191   2.159   3.248
  953W        W 1850   2.959   4.635   4.996
  954W        W 1851   6.903   6.110   3.406
  955W        W 1852   0.872   3.185   1.343
  956W        W 1853   1.243   6.009   1.484
  957W        W 1854   4.594   7.919   1.483
  958W        W 1855   3.662   0.943   5.099
  959W        W 1856   4.016   5.701   7.122
  960W        W 1857   4.980   7.634   1.259
  961W        W 1858   3.394   1.771   3.277
  962W        W 1859   6.513   5.047   1.002
  963W        W 1860   6.368   5.976   2.095
  964W        W 1861   3.086   2.756   6.460
  965W        W 1862   0.662   2.613   1.555
  966W        W 1863   5.676   2.614   1.037
  967W        W 1864   6.777   2.093   3.938
  968W        W 1865   0.440   4.826   5.491
  969W        W 1866   5.736   0.768   1.113
  970W        W 1867   2.598   5.099   3.893
  971W        W 1868   5.298   3.119   2.523
  972W        W 1869   6.052   6.386   4.327
  973W        W 1870   2.381   2.607   1.070
  974W        W 1871   2.875   3.767   2.771
  975W        W 1872   7.120   1.310   5.513
  976W        W 1873   1.219   5.427   0.409
  977W        W 1874   4.580   7.262   5.658
  978W        W 1875   3.200   2.817   4.031
  979W        W 1876   4.732   2.881   1.942
  980W        W 1877   4.147   4.048   3.817
  981W        W 1878   2.281   6.053   1.494
  982W        W 1879   0.804   5.378   2.151
  983W        W 1880   1.949   5.605   0.850
  984W        W 1881   0.620   3.707   0.633
  985W        W 1882   2.265   4.638   6.276
  986W        W 1883   7.083   6.076   6.160
  987W        W 1884   7.380   6.977   0.953
  988W        W 1885   4.289   4.424   3.513
  989W        W 1886   4.106   2.741   7.233
  990W        W 1887   1.390   6.656   4.309
  991W        W 1888   6.302   6.735   4.044
  992W        W 1889   3.463   1.156   7.880
  993W        W 1890   3.439   4.830   5.137
  994W        W 1891   7.054   2.231   2.191
  995W        W 1892   7.218   4.143   2.505
  996W        W 1893   6.836   7.797   6.650
  997W        W 1894   4.684   7.169   1.865
  998W        W 1895   1.904   5.496   5.007
  999W        W 1896   4.992   7.056   0.451
 1000W        W 1897   4.325   6.157   2.904
 1001W        W 1898   5.486   5.495   7.928
 1002W        W 1899   6.181   6.518   7.914
 1003W        W 1900   1.238   5.978   0.258
 1004W        W 1901   1.241   4.536   3.190
 1005W        W 1902   1.943   0.309   4.042
 1006W        W 1903   4.937   6.112   4.343
 1007W        W 1904   5.463   2.644   2.579
 1008W        W 1905   5.050   4.240   0.304
 1009W        W 1906   5.479   2.105   1.906
 1010W        W 1907   2.640   3.593   3.617
 1011W        W 1908   3.746   7.920   6.512
 1012W        W 1909   5.352   3.365   3.307
 1013W        W 1910   6.065   4.896   2.984
 1014W        W 1911   5.478   5.479   3.964
 1015W        W 1912   7.494   6.075   6.484
 1016W        W 1913   5.007   3.986   0.881
 1017W        W 1914   0.616   0.654   7.748
 1018W        W 1915   0.370   0.031   6.570
 1019W        W 1916   6.945   0.962   5.168
 1020W        W 1917   7.687   2.349   4.163
 1021W        W 1918   2.720   4.892   6.168
 1022W        W 1919   1.735   5.957   5.179
 1023W        W 1920   3.120   6.578   5.344
 1024W        W 1921   2.195   3.651   5.368
 1025W        W 1922   1.653   3.075   4.868
 1026W        W 1923   6.350   2.874   1.059
 1027W        W 1924   2.143   4.637   6.789
 1028W        W 1925   3.537   2.652   7.814
 1029W        W 1926   7.897   3.040   1.625
 1030W        W 1927   5.346   2.413   3.534
 1031W        W 1928   1.961   2.974   6.550
 1032W        W 1929   6.521   1.131   3.904
 1033W        W 1930   6.876   4.437   5.494
 1034W        W 1931   1.915   6.907   2.284
 1035W        W 1932   2.537   4.905   6.626
 1036W        W 1933   2.681   4.009   4.773
 1037W        W 1934   0.057   1.980   4.265
 1038W        W 1935   1.069   3.558   1.675
 1039W        W 1936   3.220   5.001   2.605
 1040W        W 1937   3.848   1.554   3.317
 1041W        W 1938   1.654   3.336   2.901
 1042W        W 1939   4.407   7.584   3.305
 1043W        W 1940   3.223   3.305   5.236
 1044W        W 1941   5.251   5.931   6.781
 1045W        W 1942   3.254   1.488   0.206
 1046W        W 1943   5.136   3.409   4.507
 1047W        W 1944   4.243   1.034   7.127
 1048W        W 1945   0.778   4.311   7.218
 1049W        W 1946   5.243   0.739   2.302
 1050W        W 1947   2.180   7.136   6.780
 1051W        W 1948   5.615   5.941   0.203
 1052W        W 1949   3.391   4.606   0.451
 1053W        W 1950   3.121   5.106   2.015
 1054W        W 1951   5.434   2.436   6.440
 1055W        W 1952   4.838   1.484   0.864
 1056W        W 1953   2.002   5.875   7.914
 1057W        W 1954   2.819   6.271   6.702
 1058W        W 1955   0.799   2.413   5.867
 1059W        W 1956   2.881   7.373   5.837
 1060W        W 1957   1.485   0.379   0.788
 1061W        W 1958   1.003   7.290   6.078
 1062W        W 1959   1.476   1.823   2.917
 1063W        W 1960   5.693   2.188   2.386
 1064W        W 1961   5.613   1.889   0.526
 1065W        W 1962   2.997   4.756   1.648
 1066W        W 1963   1.800   0.202   2.803
 1067W        W 1964   6.163   7.267   5.323
 1068W        W 1965   0.873   3.657   3.385
 1069W        W 1966   5.907   1.451   5.948
 1070W        W 1967   7.627   2.547   3.180
 1071W        W 1968   6.014   1.870   3.691
 1072W        W 1969   1.673   2.636   6.317
 1073W        W 1970   0.342   3.787   4.752
 1074W        W 1971   5.773   3.692   3.204
 1075W        W 1972   0.578   1.585   5.414
 1076W        W 1973   3.718   3.253   5.818
 1077W        W 1974   5.083   6.250   1.435
 1078W        W 1975   0.822   3.523   3.893
 1079W        W 1976   1.063   3.526   2.927
 1080W        W 1977   5.063   6.623   5.631
 1081W        W 1978   2.029   4.246   4.619
 1082W        W 1979   0.966   1.526   5.737
 1083W        W 1980   5.222   4.668   3.444
 1084W        W 1981   1.474   4.562   7.996
 1085W        W 1982   4.669   0.788   5.293
 1086W        W 1983   0.850   1.918   4.597
 1087W        W 1984   1.618   7.825   0.686
 1088W        W 1985   5.116   1.799   1.624
 1089W        W 1986   6.544   3.753   1.987
 1090W        W 1987   3.283   2.276   3.820
 1091W        W 1988   0.906   6.854   3.180
 1092W        W 1989   0.231   7.779   0.742
 1093W        W 1990   4.897   2.254   0.962
 1094W        W 1991   0.236   0.230   7.827
 1095W        W 1992   1.322   3.122   1.682
 1096W        W 1993   0.811   4.931   1.067
 1097W        W 1994   2.562   4.955   5.089
 1098W        W 1995   5.951   1.879   4.197
 1099W        W 1996   2.411   3.360   0.392
 1100W        W 1997   0.824   7.966   4.513
 1101W        W 1998   0.606   3.679   5.611
 1102W        W 1999   1.445   1.699   4.384
 1103W        W 2000   6.074   1.761   1.335
 1104W        W 2001   4.439   1.092   1.335
 1105W        W 2002   7.584   0.412   6.304
 1106W        W 2003   2.098   1.402   5.344
 1107W        W 2004   7.980   1.630   3.517
 1108W        W 2005   0.162   7.264   7.039
 1109W        W 2006   0.830   6.720   0.192
 1110W        W 2007   6.849   3.709   5.612
 1111W        W 2008   7.320   0.818   3.431
 1112W        W 2009   0.929   1.398   3.673
 1113W        W 2010   1.944   1.911   3.115
 1114W        W 2011   3.423   5.112   0.571
 1115W        W 2012   3.165   1.376   2.287
 1116W        W 2013   5.337   6.304   5.338
 1117W        W 2014   1.355   5.873   3.474
 1118W        W 2015   6.011   4.415   4.896
 1119W        W 2016   3.725   0.532   5.392
 1120W        W 2017   2.441   1.243   7.032
 1121W        W 2018   5.036   3.401   2.874
 1122W        W 2019   7.454   2.442   5.253
 1123W        W 2020   7.660   7.377   6.874
 1124W        W 2021   1.922   0.157   0.977
 1125W        W 2022   5.818   2.879   4.444
 1126W        W 2023   3.776   0.235   2.881
 1127W        W 2024   3.108   2.940   2.188
 1128W        W 2025   6.511   4.431   4.173
 1129W        W 2026   2.343   5.448   7.199
 1130W        W 2027   3.811   4.635   0.133
 1131W        W 2028   3.770   6.370   3.432
 1132W        W 2029   5.501   1.553   2.538
 1133W        W 2030   6.086   2.427   7.091
 1134W        W 2031   4.243   5.411   0.597
 1135W        W 2032   6.257   2.220   0.426
 1136W        W 2033   3.588   6.647   6.452
 1137W        W 2034   7.059   2.363   5.581
 1138W        W 2035   4.730   3.412   6.242
 1139W        W 2036   2.991   1.526   5.840
 1140W        W 2037   4.717   6.380   4.706
 1141W        W 2038   7.891   1.701   2.550
 1142W        W 2039   6.303   5.605   7.678
 1143W        W 2040   1.492   3.022   0.235
 1144W        W 2041   2.832   3.094   6.170
 1145W        W 2042   0.006   2.829   6.029
 1146W        W 2043   4.156   2.199   5.344
 1147W        W 2044   4.038   2.558   6.766
 1148W        W 2045   3.227   6.746   1.421
 1149W        W 2046   2.966   2.733   4.577
 1150W        W 2047   7.993   4.307   5.168
 1151W        W 2048   7.371   3.915   1.091
 1152W        W 2049   6.469   1.767   4.205
 1153W        W 2050   3.511   5.357   1.815
 1154W        W 2051   3.979   2.623   2.414
 1155W        W 2052   4.870   1.743   5.285
 1156W        W 2053   2.481   2.289   4.108
 1157W        W 2054   4.969   2.298   7.876
 1158W        W 2055   4.902   5.496   6.112
 1159W        W 2056   7.003   6.303   5.304
 1160W        W 2057   6.082   1.732   0.291
 1161W        W 2058   0.623   6.606   4.102
 1162W        W 2059   7.184   3.261   4.358
 1163W        W 2060   4.641   4.735   5.870
 1164W        W 2061   5.351   0.999   3.264
 1165W        W 2062   1.864   6.784   1.348
 1166W        W 2063   4.336   5.003   6.629
 1167W        W 2064   3.440   1.409   5.139
 1168W        W 2065   5.889   4.167   2.384
 1169W        W 2066   0.763   0.554   3.487
 1170W        W 2067   1.233   2.476   6.120
 1171W        W 2068   3.398   4.629   3.377
 1172W        W 2069   1.553   5.808   6.653
 1173W        W 2070   1.058   5.464   4.160
 1174W        W 2071   1.959   3.737   1.909
 1175W        W 2072   3.928   7.007   3.932
 1176W        W 2073   4.228   1.759   3.582
 1177W        W 2074   6.380   2.848   4.571
 1178W        W 2075   7.441   2.066   3.403
 1179W        W 2076   0.034   3.913   4.339
 1180W        W 2077   4.620   3.507   5.373
 1181W        W 2078   2.985   3.122   5.673
 1182W        W 2079   3.209   6.632   4.391
 1183W        W 2080   0.866   3.924   5.236
 1184W        W 2081   0.349   1.677   5.938
 1185W        W 2082   4.004   3.020   2.968
 1186W        W 2083   7.006   4.920   1.764
 1187W        W 2084   3.635   6.674   5.424
 1188W        W 2085   5.885   5.247   7.671
 1189W        W 2086   1.852   1.451   4.673
 1190W        W 2087   4.367   2.246   1.168
 1191W        W 2088   1.344   0.721   4.205
 1192W        W 2089   6.644   5.896   0.947
 1193W        W 2090   4.251   0.725   1.023
 1194W        W 2091   7.284   5.318   1.171
 1195W        W 2092   5.846   7.076   6.152
 1196W        W 2093   4.621   2.130   5.516
 1197W        W 2094   0.628   7.043   2.243
 1198W        W 2095   1.217   6.147   2.619
 1199W        W 2096   1.228   4.537   6.887
 1200W        W 2097   5.691   5.165   1.496
 1201W        W 2098   4.512   0.278   1.118
 1202W        W 2099   6.625   4.998   6.896
 1203W        W 2100   4.190   3.888   2.731
 1204W        W 2101   6.673   4.629   5.919
 1205W        W 2102   6.897   6.152   2.274
 1206W        W 2103   6.641   2.892   5.983
 1207W        W 2104   3.135   6.039   0.870
 1208W        W 2105   5.800   5.751   7.629
 1209W        W 2106   1.507   2.710   0.678
 1210W        W 2107   6.288   2.431   6.070
 1211W        W 2108   3.827   4.981   3.910
 1212W        W 2109   6.053   5.587   2.045
 1213W        W 2110   1.611   2.155   2.536
 1214W        W 2111   2.525   6.017   2.227
 1215W        W 2112   2.614   7.377   1.238
 1216W        W 2113   3.637   2.767   5.944
 1217W        W 2114   5.994   3.189   4.027
 1218W        W 2115   2.158   3.240   1.849
 1219W        W 2116   7.941   0.088   3.049
 1220W        W 2117   1.421   0.186   5.753
 1221W        W 2118   6.130   5.929   6.742
 1222W        W 2119   4.991   3.673   3.482
 1223W        W 2120   4.513   4.441   5.494
 1224W        W 2121   7.766   7.811   2.647
 1225W        W 2122   5.224   5.918   2.508
 1226W        W 2123   1.695   6.134   2.778
 1227W        W 2124   6.949   0.487   6.935
 1228W        W 2125   2.977   0.775   2.432
 1229W        W 2126   3.874   6.075   4.300
 1230W        W 2127   4.195   2.089   6.749
 1231W        W 2128   0.676   6.699   0.692
 1232W        W 2129   0.992   4.939   3.435
 1233W        W 2130   4.007   5.203   1.831
 1234W        W 2131   5.606   2.489   1.560
 1235W        W 2132   3.407   2.414   6.201
 1236W        W 2133   2.109   7.086   4.557
 1237W        W 2134   6.181   1.341   2.094
 1238W        W 2135   0.428   5.579   4.953
 1239W        W 2136   4.498   2.479   0.717
 1240W        W 2137   0.364   3.621   3.671
 1241W        W 2138   6.031   3.469   3.587
 1242W        W 2139   4.559   2.009   4.519
 1243W        W 2140   6.827   2.482   2.708
 1244W        W 2141   3.836   5.248   0.865
 1245W        W 2142   5.539   0.888   7.365
 1246W        W 2143   4.770   1.657   6.644
 1247W        W 2144   0.883   0.642   2.968
 1248W        W 2145   0.438   5.122   5.915
 1249W        W 2146   5.020   6.360   2.324
 1250W        W 2147   6.100   6.272   0.612
 1251W        W 2148   2.290   4.663   4.627
 1252W        W 2149   3.959   1.260   1.672
 1253W        W 2150   5.784   2.645   3.253
 1254W        W 2151   1.822   7.252   1.919
 1255W        W 2152   2.127   5.615   1.329
 1256W        W 2153   3.008   2.830   6.957
 1257W        W 2154   0.522   0.479   2.621
 1258W        W 2155   3.751   4.266   5.742
 1259W        W 2156   6.505   4.090   5.503
 1260W        W 2157   3.454   1.384   5.653
 1261W        W 2158   6.927   7.599   7.964
 1262W        W 2159   1.260   2.478   6.637
 1263W        W 2160   0.417   6.473   2.809
 1264W        W 2161   5.986   2.626   2.344
 1265W        W 2162   6.864   4.178   2.137
 1266W        W 2163   2.353   3.994   3.414
 1267W        W 2164   5.897   5.234   2.406
 1268W        W 2165   3.348   7.803   6.888
 1269W        W 2166   3.610   3.418   6.683
 1270W        W 2167   5.938   3.582   1.209
 1271W        W 2168   3.782   1.285   6.030
 1272W        W 2169   2.982   4.754   3.096
 1273W        W 2170   5.163   4.789   5.931
 1274W        W 2171   1.004   0.188   5.430
 1275W        W 2172   5.036   5.211   2.100
 1276W        W 2173   3.133   2.060   2.919
 1277W        W 2174   4.231   5.414   5.308
 1278W        W 2175   2.345   6.337   1.884
 1279W        W 2176   5.667   4.920   7.289
 1280W        W 2177   4.658   6.577   4.220
 1281W        W 2178   3.639   2.332   0.564
 1282W        W 2179   1.264   4.437   5.974
 1283W        W 2180   0.858   7.749   6.294
 1284W        W 2181   4.031   5.341   4.844
 1285W        W 2182   2.363   0.250   4.751
 1286W        W 2183   3.828   6.571   6.907
 1287W        W 2184   1.339   6.540   0.229
 1288W        W 2185   5.758   6.765   4.074
 1289W        W 2186   1.267   3.074   3.093
 1290W        W 2187   0.718   4.196   6.195
 1291W        W 2188   3.492   2.119   7.745
 1292W        W 2189   0.847   5.387   3.715
 1293W        W 2190   0.626   0.132   2.247
 1294W        W 2191   1.471   7.624   2.148
 1295W        W 2192   5.310   4.650   2.684
 1296W        W 2193   1.567   0.847   5.238
 1297W        W 2194   0.322   7.496   7.475
 1298W        W 2195   3.821   6.062   0.703
 1299W        W 2196   1.027   4.979   3.959
 1300W        W 2197   6.835   5.114   6.045
 1301W        W 2198   2.585   1.838   5.900
 1302W        W 2199   1.493   0.149   2.333
 1303W        W 2200   4.332   6.673   3.826
 1304W        W 2201   6.136   2.145   2.145
 1305W        W 2202   6.329   3.879   2.791
 1306W        W 2203   4.949   1.198   6.008
 1307W        W 2204   4.076   7.455   1.195
 1308W        W 2205   5.084   7.247   2.815
 1309W        W 2206   0.123   1.796   4.821
 1310W        W 2207   4.127   0.169   2.514
 1311W        W 2208   2.572   2.845   5.801
 1312W        W 2209   3.008   1.978   7.457
 1313W        W 2210   0.837   4.823   5.149
 1314W        W 2211   7.042   7.135   5.498
 1315W        W 2212   2.179   5.182   0.595
 1316W        W 2213   5.922   0.671   6.917
 1317W        W 2214   2.507   3.213   3.925
 1318W        W 2215   5.182   3.136   0.449
 1319W        W 2216   6.008   1.144   4.656
 1320W        W 2217   6.662   0.279   5.804
 1321W        W 2218   6.961   4.611   0.873
 1322W        W 2219   4.980   5.508   3.803
 1323W        W 2220   6.047   5.002   3.550
 1324W        W 2221   5.721   3.609   6.054
 1325W        W 2222   7.651   1.816   6.650
 1326W        W 2223   7.873   0.935   6.277
 1327W        W 2224   3.523   7.610   1.799
 1328W        W 2225   4.809   3.204   3.276
 1329W        W 2226   1.546   2.673   1.712
 1330W        W 2227   3.773   0.810   6.216
 1331W        W 2228   7.498   4.478   2.204
 1332W        W 2229   5.146   0.038   5.818
 1333W        W 2230   1.325   3.789   5.793
 1334W        W 2231   4.353   1.559   1.521
 1335W        W 2232   2.754   6.944   2.317
 1336W        W 2233   2.875   1.990   6.755
 1337W        W 2234   1.614   3.849   2.317
 1338W        W 2235   1.551   6.692   5.776
 1339W        W 2236   0.955   6.886   6.825
 1340W        W 2237   3.800   2.747   0.780
 1341W        W 2238   4.693   1.752   6.135
 1342W        W 2239   4.796   5.617   2.314
 1343W        W 2240   5.636   0.750   6.474
 1344W        W 2241   2.418   1.586   2.529
 1345W        W 2242   3.659   5.829   2.549
 1346W        W 2243   3.387   6.170   4.214
 1347W        W 2244   4.775   6.951   3.884
 1348W        W 2245   2.264   6.278   6.126
 1349W        W 2246   0.014   0.090   6.153
 1350W        W 2247   6.180   6.729   0.381
 1351W        W 2248   6.555   4.704   2.891
 1352W        W 2249   5.832   6.201   1.468
 1353W        W 2250   2.036   4.713   7.280
 1354W        W 2251   3.248   2.799   7.415
 1355W        W 2252   2.909   5.606   5.015
 1356W        W 2253   1.981   6.540   2.626
 1357W        W 2254   5.104   4.200   2.524
 1358W        W 2255   3.289   5.474   0.193
 1359W        W 2256   6.570   2.426   4.786
 1360W        W 2257   5.689   6.046   6.499
 1361W        W 2258   0.764   1.248   1.565
 1362W        W 2259   4.927   3.187   7.959
 1363W        W 2260   1.496   3.723   0.852
 1364W        W 2261   6.141   1.301   3.091
 1365W        W 2262   4.855   4.300   5.160
 1366W        W 2263   7.421   6.181   0.797
 1367W        W 2264   7.395   1.610   3.792
 1368W        W 2265   3.953   2.070   1.533
 1369W        W 2266   6.948   5.433   2.726
 1370W        W 2267   4.031   6.385   6.407
 1371W        W 2268   1.764   5.923   1.503
 1372W        W 2269   7.530   2.901   1.955
 1373W        W 2270   1.293   5.962   4.334
 1374W        W 2271   5.665   5.106   6.387
 1375W        W 2272   7.639   3.243   4.140
 1376W        W 2273   3.935   6.105   5.291
 1377W        W 2274   7.483   6.955   6.618
 1378W        W 2275   3.881   6.824   1.786
 1379W        W 2276   7.028   4.761   7.156
 1380W        W 2277   7.299   7.041   7.130
 1381W        W 2278   2.912   2.652   5.473
 1382W        W 2279   0.160   4.286   4.671
 1383W        W 2280   1.043   5.889   3.882
 1384W        W 2281   1.452   5.064   3.700
 1385W        W 2282   6.958   6.891   7.765
 1386W        W 2283   0.001   6.319   6.139
 1387W        W 2284   1.117   3.937   2.584
 1388W        W 2285   5.471   4.089   0.688
 1389W        W 2286   4.061   3.767   7.993
 1390W        W 2287   0.759   3.780   6.534
 1391W        W 2288   1.550   2.989   2.535
 1392W        W 2289   1.366   0.993   7.317
 1393W        W 2290   2.924   4.458   3.956
 1394W        W 2291   4.266   2.260   3.277
 1395W        W 2292   0.970   0.620   7.366
 1396W        W 2293   5.345   6.662   0.440
 1397W        W 2294   5.497   4.466   2.243
 1398W        W 2295   5.416   7.327   6.023
 1399W        W 2296   5.502   7.168   3.775
 1400W        W 2297   2.109   6.698   6.367
 1401W        W 2298   3.320   3.112   6.122
 1402W        W 2299   6.536   4.643   7.247
 1403W        W 2300   6.191   4.510   2.170
 1404W        W 2301   5.323   0.894   1.383
 1405W        W 2302   0.074   7.979   7.394
 1406W        W 2303   3.735   2.336   5.061
 1407W        W 2304   7.668   3.478   1.455
 1408W        W 2305   5.866   2.918   2.785
 1409W        W 2306   6.637   3.729   7.216
 1410W        W 2307   4.477   2.569   6.450
 1411W        W 2308   3.556   0.360   6.349
 1412W        W 2309   3.474   2.291   3.344
 1413W        W 2310   7.804   6.885   6.998
 1414W        W 2311   5.417   1.339   5.907
 1415W        W 2312   3.561   7.942   6.016
 1416W        W 2313   4.762   1.581   4.802
 1417W        W 2314   1.757   4.616   6.069
 1418W        W 2315   3.558   0.142   5.072
 1419W        W 2316   7.300   1.097   3.853
 1420W        W 2317   1.297   3.673   7.329
 1421W        W 2318   2.647   5.567   1.414
 1422W        W 2319   5.956   6.354   3.831
 1423W        W 2320   6.310   3.265   5.901
 1424W        W 2321   2.373   1.530   2.016
 1425W        W 2322   2.030   3.990   4.166
 1426W        W 2323   3.944   7.383   4.970
 1427W        W 2324   4.951   2.150   2.738
 1428W        W 2325   1.414   1.491   1.061
 1429W        W 2326   2.983   5.597   2.806
 1430W        W 2327   2.111   5.705   5.432
 1431W        W 2328   0.894   1.148   2.819
 1432W        W 2329   0.237   3.892   2.127
 1433W        W 2330   0.966   6.979   4.248
 1434W        W 2331   6.079   4.966   4.047
 1435W        W 2332   7.161   2.324   1.687
 1436W        W 2333   0.528   0.253   7.421
 1437W        W 2334   1.127   4.208   4.556
 1438W        W 2335   5.442   0.462   5.688
 1439W        W 2336   3.349   1.005   5.963
 1440W        W 2337   5.492   3.037   0.841
 1441W        W 2338   1.240   3.025   5.242
 1442W        W 2339   3.806   1.039   3.436
 1443W        W 2340   3.411   0.591   2.761
 1444W        W 2341   3.530   0.112   3.707
 1445W        W 2342   5.289   3.824   3.084
 1446W        W 2343   1.285   1.165   5.526
 1447W        W 2344   4.412   3.379   0.457
 1448W        W 2345   5.560   1.756   6.174
 1449W        W 2346   6.854   4.070   3.477
 1450W        W 2347   1.958   5.677   2.733
 1451W        W 2348   5.131   0.519   0.451
 1452W        W 2349   2.203   0.829   1.393
 1453W        W 2350   7.317   7.397   5.869
 1454W        W 2351   7.537   7.386   6.366
 1455W        W 2352   4.375   7.201   2.293
 1456W        W 2353   5.838   6.576   6.078
 1457W        W 2354   4.479   5.420   6.390
 1458W        W 2355   4.348   1.415   6.807
 1459W        W 2356   6.898   2.935   6.778
 1460W        W 2357   5.027   5.967   5.534
 1461W        W 2358   2.447   4.206   3.878
 1462W        W 2359   3.479   7.348   7.172
 1463W        W 2360   2.873   5.821   0.378
 1464W        W 2361   6.377   2.895   2.076
 1465W        W 2362   5.772   6.437   0.236
 1466W        W 2363   0.912   5.025   5.640
 1467W        W 2364   5.682   5.401   5.602
 1468W        W 2365   6.548   7.002   3.623
 1469W        W 2366   7.008   1.830   6.792
 1470W        W 2367   7.318   0.340   7.332
 1471W        W 2368   1.519   5.386   7.591
 1472W        W 2369   4.862   0.930   1.628
 1473W        W 2370   3.034   2.788   0.084
 1474W        W 2371   7.064   0.143   2.483
 1475W        W 2372   4.982   0.685   3.541
 1476W        W 2373   7.143   3.734   6.045
 1477W        W 2374   7.446   6.476   6.813
 1478W        W 2375   1.042   1.936   6.489
 1479W        W 2376   1.535   5.945   1.049
 1480W        W 2377   4.045   6.926   5.220
 1481W        W 2378   1.882   1.832   6.686
 1482W        W 2379   1.877   0.092   3.592
 1483W        W 2380   2.119   1.141   2.835
 1484W        W 2381   4.352   1.020   2.362
 1485W        W 2382   2.047   3.056   3.720
 1486W        W 2383   4.759   6.083   6.802
 1487W        W 2384   1.877   7.623   6.450
 1488W        W 2385   7.905   6.476   2.089
 1489W        W 2386   5.588   6.197   0.652
 1490W        W 2387   7.558   4.461   2.715
 1491W        W 2388   1.033   7.342   2.225
 1492W        W 2389   2.569   3.334   1.533
 1493W        W 2390   1.651   3.476   3.723
 1494W        W 2391   4.383   7.040   4.183
 1495W        W 2392   7.111   1.805   1.509
 1496W        W 2393   0.120   2.602   1.442
 1497W        W 2394   7.788   3.894   1.789
 1498W        W 2395   1.958   1.778   2.232
 1499W        W 2396   4.286   5.551   2.205
 1500W        W 2397   3.752   5.200   5.373
 1501W        W 2398   1.581   4.726   0.479
 1502W        W 2399   0.969   0.843   1.281
 1503W        W 2400   7.501   2.409   2.703
 1504W        W 2401   3.374   1.412   7.088
 1505W        W 2402   0.156   7.092   2.882
 1506W        W 2403   4.234   4.908   3.651
 1507W        W 2404   6.120   0.870   2.839
 1508W        W 2405   5.673   0.718   2.035
 1509W        W 2406   0.602   1.245   5.985
 1510W        W 2407   6.323   4.600   6.772
 1511W        W 2408   3.162   0.722   1.516
 1512W        W 2409   5.331   5.258   6.001
 1513W        W 2410   0.396   6.794   3.224
 1514W        W 2411   3.690   5.106   4.473
 1515W        W 2412   2.726   0.566   6.560
 1516W        W 2413   2.795   4.670   2.626
 1517W        W 2414   6.581   1.765   1.394
 1518W        W 2415   4.577   0.030   2.718
 1519W        W 2416   1.903   2.581   2.569
 1520W        W 2417   5.087   2.713   3.848
 1521W        W 2418   2.664   5.382   6.230
 1522W        W 2419   3.362   5.095   6.148
 1523W        W 2420   6.749   4.015   4.016
 1524W        W 2421   3.319   2.372   0.169
 1525W        W 2422   2.254   0.476   6.305
 1526W        W 2423   7.098   2.578   6.417
 1527W        W 2424   3.029   1.629   1.401
 1528W        W 2425   0.917   1.107   7.100
 1529W        W 2426   6.766   5.704   6.992
 1530W        W 2427   2.276   7.798   3.435
 1531W        W 2428   7.295   2.355   6.012
 1532W        W 2429   7.379   5.625   6.198
 1533W        W 2430   0.384   6.668   1.980
 1534W        W 2431   6.268   7.724   5.126
 1535W        W 2432   3.594   4.154   2.222
 1536W        W 2433   7.510   2.007   2.390
 1537W        W 2434   1.227   7.418   4.271
 1538W        W 2435   1.437   5.128   4.238
 1539W        W 2436   3.120   2.254   0.619
 1540W        W 2437   3.357   4.334   0.898
 1541W        W 2438   4.550   2.402   6.938
 1542W        W 2439   0.328   3.931   5.259
 1543W        W 2440   4.762   3.076   4.587
 1544W        W 2441   5.997   1.632   6.427
 1545W        W 2442   7.020   1.126   4.683
 1546W        W 2443   1.209   0.662   1.716
 1547W        W 2444   0.377   4.640   4.996
 1548W        W 2445   1.302   3.138   7.612
 1549W        W 2446   1.996   5.206   3.088
 1550W        W 2447   7.622   4.381   4.805
 1551W        W 2448   2.671   1.159   2.235
 1552W        W 2449   2.948   3.391   3.276
 1553W        W 2450   0.200   1.330   6.308
 1554W        W 2451   2.130   2.594   6.069
 1555W        W 2452   4.888   7.298   2.332
 1556W        W 2453   4.409   4.585   6.336
 1557W        W 2454   3.447   2.942   5.502
 1558W        W 2455   5.320   6.253   5.851
 1559W        W 2456   6.032   4.484   1.250
 1560W        W 2457   2.672   3.486   5.902
 1561W        W 2458   5.378   5.060   7.708
 1562W        W 2459   5.401   3.920   1.656
 1563W        W 2460   6.085   4.878   0.803
 1564W        W 2461   2.252   5.286   3.551
 1565W        W 2462   1.363   0.431   2.913
 1566W        W 2463   6.018   3.945   5.600
 1567W        W 2464   6.733   0.869   6.630
 1568W        W 2465   5.117   4.161   3.542
 1569W        W 2466   0.822   4.242   6.708
 1570W        W 2467   1.275   0.225   7.327
 1571W        W 2468   2.830   5.425   7.972
 1572W        W 2469   5.795   2.359   0.608
 1573W        W 2470   4.604   5.069   5.209
 1574W        W 2471   2.964   2.269   6.323
 1575W        W 2472   1.906   6.425   2.140
 1576W        W 2473   2.245   3.753   4.555
 1577W        W 2474   5.812   5.550   2.806
 1578W        W 2475   1.165   0.865   3.697
 1579W        W 2476   3.804   4.350   3.163
 1580W        W 2477   3.375   0.845   3.239
 1581W        W 2478   5.284   5.429   6.901
 1582W        W 2479   1.904   2.504   0.930
 1583W        W 2480   2.939   5.422   4.099
 1584W        W 2481   1.148   5.475   5.518
 1585W        W 2482   5.977   2.381   5.661
 1586W        W 2483   0.735   4.899   0.550
 1587W        W 2484   2.720   4.920   4.603
 1588W        W 2485   2.490   0.664   2.185
 1589W        W 2486   6.265   4.884   2.504
 1590W        W 2487   3.118   3.261   6.595
 1591W        W 2488   2.149   0.569   2.704
 1592W        W 2489   1.177   7.130   3.508
 1593W        W 2490   6.585   7.721   7.572
 1594W        W 2491   2.780   2.336   3.716
 1595W        W 2492   2.644   5.369   6.782
 1596W        W 2493   5.702   5.789   2.338
 1597W        W 2494   2.626   2.775   4.183
 1598W        W 2495   0.223   7.055   3.647
 1599W        W 2496   3.586   7.407   3.949
 1600W        W 2497   3.339   6.707   3.404
 1601W        W 2498   0.474   0.338   6.165
 1602W        W 2499   4.615   4.855   7.209
 1603W        W 2500   1.378   6.577   6.811
 1604W        W 2501   4.098   3.470   6.100
 1605W        W 2502   7.305   1.380   1.297
 1606W        W 2503   3.959   5.031   7.814
 1607W        W 2504   5.647   1.396   4.954
 1608W        W 2505   5.104   5.680   0.177
 1609W        W 2506   4.825   3.222   2.358
 1610W        W 2507   6.726   2.552   0.953
 1611W        W 2508   0.407   2.559   6.165
 1612W        W 2509   0.370   0.835   6.213
 1613W        W 2510   4.156   4.530   4.015
 1614W        W 2511   5.666   2.801   3.967
 1615W        W 2512   6.884   4.470   3.802
 1616W        W 2513   7.063   3.449   6.981
 1617W        W 2514   2.128   5.686   3.216
 1618W        W 2515   1.640   4.170   1.044
 1619W        W 2516   4.638   6.302   5.593
 1620W        W 2517   3.522   3.126   0.932
 1621W        W 2518   2.271   3.238   6.866
 1622W        W 2519   3.784   0.985   5.622
 1623W        W 2520   2.068   0.580   3.637
 1624W        W 2521   7.059   6.826   5.058
 1625W        W 2522   2.935   6.523   1.064
 1626W        W 2523   1.528   2.856   6.808
 1627W        W 2524   5.600   2.679   4.899
 1628W        W 2525   3.489   1.166   4.393
 1629W        W 2526   1.950   7.563   4.680
 1630W        W 2527   0.712   0.657   5.823
 1631W        W 2528   2.641   5.813   4.197
 1632W        W 2529   0.919   4.115   5.725
 1633W        W 2530   1.390   1.297   3.469
 1634W        W 2531   4.977   0.518   1.283
 1635W        W 2532   5.991   1.361   3.592
 1636W        W 2533   1.140   0.678   5.529
 1637W        W 2534   6.025   5.761   5.696
 1638W        W 2535   1.388   0.033   3.712
 1639W        W 2536   6.034   0.896   2.338
 1640W        W 2537   5.446   6.471   1.693
 1641W        W 2538   4.274   2.710   4.041
 1642W        W 2539   2.574   1.492   5.537
 1643W        W 2540   4.407   0.877   6.649
 1644W        W 2541   0.202   0.274   6.983
 1645W        W 2542   2.999   4.908   4.181
 1646W        W 2543   7.558   3.449   0.948
 1647W        W 2544   3.382   5.666   4.163
 1648W        W 2545   0.496   7.335   0.915
 1649W        W 2546   1.458   1.954   1.282
 1650W        W 2547   2.496   2.144   6.288
 1651W        W 2548   3.364   3.970   6.004
 1652W        W 2549   0.017   2.564   2.817
 1653W        W 2550   1.293   2.168   4.660
 1654W        W 2551   2.558   5.893   5.260
 1655W        W 2552   2.128   5.156   6.807
 1656W        W 2553   3.310   2.728   0.539
 1657W        W 2554   7.051   4.723   2.225
 1658W        W 2555   5.609   7.347   2.848
 1659W        W 2556   4.211   5.447   7.564
 1660W        W 2557   2.749   3.238   2.846
 1661W        W 2558   2.056   7.387   5.353
 1662W        W 2559   1.837   5.780   4.205
 1663W        W 2560   6.285   7.254   3.997
 1664W        W 2561   1.071   2.246   1.454
 1665W        W 2562   4.259   5.018   6.115
 1666W        W 2563   6.860   2.950   4.144
 1667W        W 2564   7.179   4.204   3.027
 1668W        W 2565   7.890   1.332   1.335
 1669W        W 2566   2.339   2.079   6.753
 1670W        W 2567   0.676   3.776   2.401
 1671W        W 2568   5.238   4.013   5.353
 1672W        W 2569   0.043   7.732   7.839
 1673W        W 2570   3.807   7.940   3.295
 1674W        W 2571   4.463   7.215   0.977
 1675W        W 2572   5.573   6.281   6.940
 1676W        W 2573   1.944   6.269   1.172
 1677W        W 2574   2.970   4.909   5.412
 1678W        W 2575   2.784   5.138   2.818
 1679W        W 2576   5.995   0.995   6.143
 1680W        W 2577   3.951   6.255   2.584
 1681W        W 2578   3.698   2.186   2.457
 1682W        W 2579   0.671   0.004   1.740
 1683W        W 2580   4.899   4.506   6.252
 1684W        W 2581   5.231   2.220   1.370
 1685W        W 2582   4.746   6.247   3.163
 1686W        W 2583   1.792   3.396   4.472
 1687W        W 2584   0.893   7.779   6.810
 1688W        W 2585   1.254   0.168   6.807
 1689W        W 2586   4.231   6.488   1.386
 1690W        W 2587   0.982   2.909   6.640
 1691W        W 2588   4.227   0.123   1.754
 1692W        W 2589   6.272   1.994   7.356
 1693W        W 2590   5.693   7.021   1.940
 1694W        W 2591   3.936   6.551   0.955
 1695W        W 2592   2.101   3.653   7.115
 1696W        W 2593   2.124   4.309   5.923
 1697W        W 2594   4.091   4.153   6.174
 1698W        W 2595   4.708   1.902   1.295
 1699W        W 2596   2.965   1.504   3.716
 1700W        W 2597   1.521   4.023   1.802
 1701W        W 2598   1.249   3.500   6.202
 1702W        W 2599   1.235   0.630   2.223
 1703W        W 2600   0.853   5.735   5.192
 1704W        W 2601   2.134   4.878   3.870
 1705W        W 2602   4.703   3.568   0.845
 1706W        W 2603   4.034   6.272   3.856
 1707W        W 2604   4.148   3.687   4.626
 1708W        W 2605   5.038   3.608   1.246
 1709W        W 2606   2.246   6.082   4.375
 1710W        W 2607   6.182   1.566   6.897
 1711W        W 2608   3.621   7.514   4.466
 1712W        W 2609   4.169   4.342   1.853
 1713W        W 2610   1.224   6.901   4.701
 1714W        W 2611   5.064   4.620   7.153
 1715W        W 2612   6.280   2.158   4.462
 1716W        W 2613   0.579   2.511   2.054
 1717W        W 2614   4.375   4.948   1.536
 1718W        W 2615   2.352   5.714   0.535
 1719W        W 2616   1.591   4.259   4.303
 1720W        W 2617   1.070   3.502   5.432
 1721W        W 2618   2.179   5.193   5.332
 1722W        W 2619   5.975   4.140   3.048
 1723W        W 2620   4.166   4.148   6.716
 1724W        W 2621   5.026   1.044   0.611
 1725W        W 2622   0.778   6.181   3.107
 1726W        W 2623   4.897   5.615   6.607
 1727W        W 2624   4.575   1.289   6.354
 1728W        W 2625   0.412   6.094   5.902
 1729W        W 2626   5.793   7.287   5.683
 1730W        W 2627   3.850   4.591   2.194
 1731W        W 2628   4.868   0.822   2.620
 1732W        W 2629   5.413   7.002   4.427
 1733W        W 2630   5.815   2.382   2.831
 1734W        W 2631   5.936   1.734   5.170
 1735W        W 2632   4.034   1.186   3.005
 1736W        W 2633   7.237   6.367   5.789
 1737W        W 2634   7.886   1.538   4.015
 1738W        W 2635   4.713   4.537   0.000
 1739W        W 2636   0.696   7.346   7.079
 1740W        W 2637   2.416   5.371   1.000
 1741W        W 2638   0.895   7.649   0.960
 1742W        W 2639   4.578   5.907   4.631
 1743W        W 2640   1.190   1.515   7.261
 1744W        W 2641   0.767   0.237   6.989
 1745W        W 2642   3.811   3.105   6.311
 1746W        W 2643   6.997   6.220   1.085
 1747W        W 2644   4.443   4.549   4.449
 1748W        W 2645   7.273   7.008   2.078
 1749W        W 2646   3.400   2.475   0.991
 1750W        W 2647   3.266   3.628   7.017
 1751W        W 2648   3.742   2.786   0.266
 1752W        W 2649   3.845   7.005   2.282
 1753W        W 2650   7.173   4.432   1.808
 1754W        W 2651   6.632   5.231   7.798
 1755W        W 2652   1.005   4.767   7.282
 1756W        W 2653   3.583   2.731   6.559
 1757W        W 2654   0.877   6.153   6.124
 1758W        W 2655   1.299   1.824   5.508
 1759W        W 2656   6.270   3.693   1.578
 1760W        W 2657   2.481   3.745   4.097
 1761W        W 2658   5.780   6.791   7.029
 1762W        W 2659   4.165   2.249   4.800
 1763W        W 2660   3.155   3.792   2.326
 1764W        W 2661   7.438   2.143   1.298
 1765W        W 2662   0.189   6.508   0.663
 1766W        W 2663   4.997   3.051   5.968
 1767W        W 2664   6.133   3.312   0.821
 1768W        W 2665   4.322   5.898   5.531
 1769W        W 2666   1.157   2.407   3.764
 1770W        W 2667   5.846   1.525   1.735
 1771W        W 2668   2.568   1.590   6.669
 1772W        W 2669   7.804   7.532   7.373
 1773W        W 2670   6.584   3.857   4.894
 1774W        W 2671   3.151   7.042   5.151
 1775W        W 2672   3.104   1.511   4.215
 1776W        W 2673   4.202   2.230   3.785
 1777W        W 2674   4.439   0.456   6.080
 1778W        W 2675   3.012   2.024   4.824
 1779W        W 2676   5.876   6.707   1.562
 1780W        W 2677   3.511   4.978   1.469
 1781W        W 2678   0.523   3.316   0.977
 1782W        W 2679   0.785   0.858   0.235
 1783W        W 2680   6.447   4.745   3.762
 1784W        W 2681   2.314   6.281   6.621
 1785W        W 2682   3.579   5.030   2.241
 1786W        W 2683   6.745   1.790   5.414
 1787W        W 2684   2.488   1.913   3.757
 1788W        W 2685   3.433   4.737   6.524
 1789W        W 2686   6.313   4.176   1.792
 1790W        W 2687   4.371   3.603   7.457
 1791W        W 2688   1.092   7.013   7.854
 1792W        W 2689   6.573   1.995   5.856
 1793W        W 2690   5.704   7.400   5.166
 1794W        W 2691   6.016   6.468   2.828
 1795W        W 2692   1.439   6.247   0.653
 1796W        W 2693   3.666   5.619   4.574
 1797W        W 2694   0.082   3.472   4.070
 1798W        W 2695   7.803   2.025   3.792
 1799W        W 2696   5.639   1.325   2.997
 1800W        W 2697   5.478   3.781   3.624
 1801W        W 2698   2.038   0.735   5.432
 1802W        W 2699   6.936   4.030   5.205
 1803W        W 2700   1.321   3.594   4.572
 1804W        W 2701   4.190   4.061   1.447
 1805W        W 2702   0.417   2.498   6.681
 1806W        W 2703   0.721   6.108   2.587
 1807W        W 2704   4.902   3.115   5.488
 1808W        W 2705   0.105   1.115   5.850
 1809W        W 2706   3.122   6.479   6.329
 1810W        W 2707   1.065   5.869   0.727
 1811W        W 2708   5.696   4.708   4.271
 1812W        W 2709   1.237   4.600   3.700
 1813W        W 2710   5.029   5.685   4.684
 1814W        W 2711   7.489   6.487   0.387
 1815W        W 2712   1.394   4.293   2.316
 1816W        W 2713   1.548   3.815   2.822
 1817W        W 2714   4.275   1.928   5.822
 1818W        W 2715   0.368   1.275   4.066
 1819W        W 2716   3.394   4.972   5.664
 1820W        W 2717   6.250   2.058   4.946
 1821W        W 2718   1.291   4.344   1.392
 1822W        W 2719   6.603   4.365   6.342
 1823W        W 2720   0.606   5.733   2.929
 1824W        W 2721   4.293   5.240   7.089
 1825W        W 2722   5.832   1.426   0.618
 1826W        W 2723   3.621   1.668   2.332
 1827W        W 2724   6.288   0.709   4.751
 1828W        W 2725   7.266   3.786   3.325
 1829W        W 2726   5.374   4.607   0.502
 1830W        W 2727   4.965   2.507   6.645
 1831W        W 2728   2.175   2.122   5.874
 1832W        W 2729   1.367   2.629   3.292
 1833W        W 2730   3.491   1.164   6.451
 1834W        W 2731   6.893   7.140   0.215
 1835W        W 2732   6.020   2.632   0.226
 1836W        W 2733   7.294   4.370   3.496
 1837W        W 2734   0.490   4.871   3.151
 1838W        W 2735   1.066   0.390   3.908
 1839W        W 2736   5.620   5.311   1.993
 1840W        W 2737   0.942   6.455   6.544
 1841W        W 2738   1.689   3.101   4.077
 1842W        W 2739   3.991   7.684   1.636
 1843W        W 2740   0.515   0.536   6.653
 1844W        W 2741   4.816   2.954   6.433
 1845W        W 2742   2.093   4.970   2.515
 1846W        W 2743   5.005   2.070   6.919
 1847W        W 2744   5.287   5.438   1.589
 1848W        W 2745   4.315   2.220   2.760
 1849W        W 2746   2.272   5.557   6.519
 1850W        W 2747   7.867   6.419   2.604
 1851W        W 2748   3.192   2.737   1.355
 1852W        W 2749   0.888   2.600   3.025
 1853W        W 2750   7.134   1.056   3.027
 1854W        W 2751   5.152   1.061   6.508
 1855W        W 2752   5.923   0.595   5.479
 1856W        W 2753   1.875   4.901   4.400
 1857W        W 2754   6.499   5.778   5.858
 1858W        W 2755   1.902   6.325   4.844
 1859W        W 2756   7.494   4.108   6.097
 1860W        W 2757   0.032   2.561   3.523
 1861W        W 2758   2.621   6.578   6.324
 1862W        W 2759   6.740   0.763   5.607
 1863W        W 2760   2.907   3.159   0.441
 1864W        W 2761   6.775   2.197   6.531
 1865W        W 2762   5.679   4.564   3.037
 1866W        W 2763   1.719   6.141   0.240
 1867W        W 2764   0.595   3.501   5.113
 1868W        W 2765   5.738   3.244   0.443
 1869W        W 2766   6.300   0.655   5.824
 1870W        W 2767   2.012   0.310   2.264
 1871W        W 2768   3.208   5.975   5.918
 1872W        W 2769   2.125   4.675   2.104
 1873W        W 2770   4.651   2.113   6.519
 1874W        W 2771   5.614   0.612   0.286
 1875W        W 2772   3.822   5.055   6.382
 1876W        W 2773   4.617   1.805   3.993
 1877W        W 2774   4.243   1.425   2.631
 1878W        W 2775   6.497   5.482   4.105
 1879W        W 2776   3.145   0.536   6.876
 1880W        W 2777   3.390   5.185   4.026
 1881W        W 2778   6.652   1.427   2.256
 1882W        W 2779   3.735   3.348   4.582
 1883W        W 2780   0.775   5.323   3.188
 1884W        W 2781   2.222   3.081   1.229
 1885W        W 2782   1.026   5.611   1.746
 1886W        W 2783   2.909   4.677   2.137
 1887W        W 2784   6.753   5.995   7.479
 1888W        W 2785   0.383   6.352   5.442
 1889W        W 2786   1.139   1.626   1.503
 1890W        W 2787   2.744   5.714   0.865
 1891W        W 2788   2.346   7.022   4.131
 1892W        W 2789   2.027   0.008   4.442
 1893W        W 2790   1.706   0.442   6.207
 1894W        W 2791   4.510   3.512   7.942
 1895W        W 2792   1.656   4.111   6.067
 1896W        W 2793   7.124   7.350   6.752
 1897W        W 2794   4.968   7.590   5.995
 1898W        W 2795   5.883   6.041   1.931
 1899W        W 2796   3.819   4.089   0.854
 1900W        W 2797   4.004   1.324   4.315
 1901W        W 2798   3.695   6.933   3.080
 1902W        W 2799   1.287   5.044   5.288
 1903W        W 2800   6.326   2.658   2.728
 1904W        W 2801   7.402   1.942   7.095
 1905W        W 2802   7.831   2.645   4.580
 1906W        W 2803   0.738   2.010   3.043
 1907W        W 2804   3.595   7.124   3.531
 1908W        W 2805   2.046   3.488   4.032
 1909W        W 2806   6.526   4.613   1.269
 1910W        W 2807   6.890   1.321   6.817
 1911W        W 2808   5.839   2.374   3.752
 1912W        W 2809   3.073   3.871   1.006
 1913W        W 2810   6.986   5.932   2.720
 1914W        W 2811   5.127   4.355   6.706
 1915W        W 2812   4.452   3.023   0.099
 1916W        W 2813   5.864   0.943   3.316
 1917W        W 2814   6.751   7.698   2.640
 1918W        W 2815   4.647   4.307   1.637
 1919W        W 2816   6.749   1.687   2.667
 1920W        W 2817   3.543   5.100   3.517
 1921W        W 2818   1.329   3.111   4.478
 1922W        W 2819   5.426   2.236   4.655
 1923W        W 2820   2.497   6.353   2.639
 1924W        W 2821   2.877   1.611   7.108
 1925W        W 2822   4.862   2.297   0.425
 1926W        W 2823   1.597   5.581   3.074
 1927W        W 2824   5.259   0.716   0.916
 1928W        W 2825   2.164   3.449   5.892
 1929W        W 2826   3.114   0.151   6.545
 1930W        W 2827   4.489   3.966   1.987
 1931W        W 2828   2.214   7.516   4.253
 1932W        W 2829   6.265   6.600   3.522
 1933W        W 2830   4.546   1.864   7.036
 1934W        W 2831   5.672   7.260   7.801
 1935W        W 2832   5.740   1.059   4.213
 1936W        W 2833   4.713   6.617   3.508
 1937W        W 2834   1.065   4.284   4.037
 1938W        W 2835   7.755   3.428   3.666
 1939W        W 2836   0.953   0.962   0.759
 1940W        W 2837   6.085   6.834   6.593
 1941W        W 2838   1.223   3.202   7.113
 1942W        W 2839   2.488   7.061   6.389
 1943W        W 2840   3.196   3.379   2.607
 1944W        W 2841   1.196   6.094   6.877
 1945W        W 2842   5.744   4.615   6.159
 1946W        W 2843   1.782   5.378   4.525
 1947W        W 2844   1.142   4.915   0.212
 1948W        W 2845   6.695   6.210   1.810
 1949W        W 2846   3.659   6.573   4.027
 1950W        W 2847   7.985   7.148   6.556
 1951W        W 2848   4.253   6.196   6.842
 1952W        W 2849   7.459   1.353   4.253
 1953W        W 2850   5.140   5.001   3.076
 1954W        W 2851   2.615   3.881   6.216
 1955W        W 2852   1.280   3.842   1.315
 1956W        W 2853   1.620   1.906   3.928
 1957W        W 2854   0.588   6.149   0.772
 1958W        W 2855   5.378   4.986   5.516
 1959W        W 2856   3.426   2.936   4.533
 1960W        W 2857   5.814   6.529   2.043
 1961W        W 2858   1.484   5.772   1.895
 1962W        W 2859   6.478   6.618   5.915
 1963W        W 2860   5.845   0.800   5.011
 1964W        W 2861   4.463   1.913   5.012
 1965W        W 2862   4.467   0.093   3.232
 1966W        W 2863   6.944   1.717   1.042
 1967W        W 2864   1.943   0.523   4.945
 1968W        W 2865   1.556   6.785   1.804
 1969W        W 2866   5.712   4.675   1.583
 1970W        W 2867   5.835   2.142   0.139
 1971W        W 2868   5.438   6.939   1.476
 1972W        W 2869   4.518   1.090   0.787
 1973W        W 2870   3.778   1.973   3.600
 1974W        W 2871   0.853   2.996   1.818
 1975W        W 2872   6.296   2.900   6.781
 1976W        W 2873   4.667   1.826   1.804
 1977W        W 2874   6.196   2.417   0.911
 1978W        W 2875   5.984   0.143   5.230
 1979W        W 2876   0.478   2.851   5.753
 1980W        W 2877   0.020   7.739   6.933
 1981W        W 2878   6.763   2.033   3.080
 1982W        W 2879   1.706   5.003   2.191
 1983W        W 2880   1.460   1.739   4.892
 1984W        W 2881   2.200   7.945   6.167
 1985W        W 2882   7.008   7.661   3.395
 1986W        W 2883   6.988   1.853   3.512
 1987W        W 2884   1.859   7.655   1.135
 1988W        W 2885   2.219   3.985   4.990
 1989W        W 2886   7.057   2.309   4.862
 1990W        W 2887   7.033   6.564   2.006
 1991W        W 2888   5.422   1.081   4.634
 1992W        W 2889   1.904   7.891   5.471
 1993W        W 2890   6.277   3.099   2.519
 1994W        W 2891   1.565   6.258   7.199
 1995W        W 2892   1.056   1.031   5.964
 1996W        W 2893   7.881   6.633   6.531
 1997W        W 2894   4.919   4.755   5.427
 1998W        W 2895   3.639   1.655   7.879
 1999W        W 2896   4.202   6.289   4.678
 2000W        W 2897   1.211   2.990   2.169
 2001W        W 2898   6.120   5.179   1.781
 2002W        W 2899   2.404   5.591   7.692
 2003W        W 2900   1.040   1.467   6.231
 2004W        W 2901   3.206   1.755   0.650
 2005W        W 2902   7.295   3.709   5.344
 2006W        W 2903   0.209   6.791   2.454
 2007W        W 2904   3.450   6.223   5.193
 2008W        W 2905   5.821   4.670   2.556
 2009W        W 2906   2.800   1.068   5.705
 2010W        W 2907   6.013   6.898   4.492
 2011W        W 2908   6.156   2.450   6.581
 2012W        W 2909   4.758   0.614   0.816
 2013W        W 2910   3.388   4.699   3.891
 2014W        W 2911   3.524   7.178   2.687
 2015W        W 2912   2.183   4.296   1.143
 2016W        W 2913   4.654   1.287   5.227
 2017W        W 2914   6.270   1.705   2.443
 2018W        W 2915   3.989   4.659   4.695
 2019W        W 2916   4.005   5.397   6.694
 2020W        W 2917   2.163   5.122   4.784
 2021W        W 2918   1.035   5.829   6.478
 2022W        W 2919   2.548   4.652   3.664
 2023W        W 2920   4.152   3.504   5.565
 2024W        W 2921   7.817   6.984   2.137
 2025W        W 2922   4.127   2.664   5.095
 2026W        W 2923   0.361   0.873   3.364
 2027W        W 2924   2.013   0.768   5.961
 2028W        W 2925   0.669   0.959   3.802
 2029W        W 2926   6.654   0.852   2.977
 2030W        W 2927   2.865   3.918   1.937
 2031W        W 2928   2.357   5.289   0.121
 2032W        W 2929   3.995   3.366   7.684
 2033W        W 2930   2.667   1.090   6.598
 2034W        W 2931   7.723   1.400   6.119
 2035W        W 2932   4.595   3.982   3.586
 2036W        W 2933   1.131   2.756   1.391
 2037W        W 2934   6.740   3.106   1.765
 2038W        W 2935   4.736   2.745   7.780
 2039W        W 2936   6.503   2.455   7.431
 2040W        W 2937   2.303   7.040   2.588
 2041W        W 2938   0.343   7.938   0.241
 2042W        W 2939   6.444   7.168   4.476
 2043W        W 2940   6.960   3.522   6.487
 2044W        W 2941   2.691   2.892   2.472
 2045W        W 2942   6.859   7.168   1.817
 2046W        W 2943   2.536   4.860   0.393
 2047W        W 2944   5.806   2.590   6.111
 2048W        W 2945   4.100   1.873   2.425
 2049W        W 2946   6.485   2.512   0.044
 2050W        W 2947   5.117   1.671   3.834
 2051W        W 2948   6.754   5.015   2.528
 2052W        W 2949   2.915   2.888   3.190
 2053W        W 2950   4.878   3.823   1.687
 2054W        W 2951   6.208   6.216   5.807
 2055W        W 2952   2.505   2.091   4.908
 2056W        W 2953   1.754   4.540   1.362
 2057W        W 2954   1.484   4.192   0.544
 2058W        W 2955   5.423   1.936   6.620
 2059W        W 2956   4.307   3.172   3.357
 2060W        W 2957   0.861   2.904   4.478
 2061W        W 2958   0.909   3.405   2.142
 2062W        W 2959   3.582   0.258   6.858
 2063W        W 2960   6.633   1.956   2.228
 2064W        W 2961   1.980   5.943   6.402
 2065W        W 2962   0.851   3.779   4.711
 2066W        W 2963   4.010   2.638   6.259
 2067W        W 2964   4.023   1.010   4.743
 2068W        W 2965   1.251   4.659   4.309
 2069W        W 2966   3.019   5.104   6.519
 2070W        W 2967   7.878   7.164   3.295
 2071W        W 2968   5.183   4.095   7.159
 2072W        W 2969   6.937   1.251   4.190
 2073W        W 2970   7.842   2.175   1.680
 2074W        W 2971   6.719   7.954   6.174
 2075W        W 2972   3.080   5.238   3.220
 2076W        W 2973   5.791   5.952   4.117
 2077W        W 2974   5.326   4.302   6.109
 2078W        W 2975   0.823   2.861   4.976
 2079W        W 2976   4.846   7.687   3.053
 2080W        W 2977   3.754   7.827   2.573
 2081W        W 2978   3.291   1.583   4.676
 2082W        W 2979   6.032   5.489   7.235
 2083W        W 2980   5.510   2.603   2.073
 2084W        W 2981   3.318   1.898   6.984
 2085W        W 2982   7.113   3.761   4.245
 2086W        W 2983   0.963   2.584   2.405
 2087W        W 2984   6.481   6.142   5.331
 2088W        W 2985   5.234   4.169   4.862
 2089W        W 2986   3.978   3.240   0.745
 2090W        W 2987   1.034   4.169   3.525
 2091W        W 2988   4.138   7.820   2.914
 2092W        W 2989   1.767   5.522   2.248
 2093W        W 2990   5.654   6.578   6.558
 2094W        W 2991   5.067   4.170   1.358
 2095W        W 2992   0.821   7.411   7.587
 2096W        W 2993   2.459   4.205   4.375
 2097W        W 2994   4.505   2.740   3.164
 2098W        W 2995   6.948   7.172   0.741
 2099W        W 2996   5.372   1.387   1.502
 2100W        W 2997   1.916   3.791   3.186
 2101W        W 2998   1.857   0.982   7.033
 2102W        W 2999   4.155   5.697   4.474
 2103W        W 3000   5.618   4.161   3.964
 2104W        W 3001   6.697   0.384   2.738
 2105W        W 3002   5.796   2.855   6.566
 2106W        W 3003   6.938   6.857   2.975
 2107W        W 3004   2.534   4.675   4.179
 2108W        W 3005   0.872   0.220   6.480
 2109W        W 3006   6.682   2.616   1.471
 2110W        W 3007   3.893   4.720   1.682
 2111W        W 3008   1.406   7.526   3.797
 2112W        W 3009   7.702   2.947   3.481
 2113W        W 3010   5.867   4.262   4.406
 2114W        W 3011   6.979   7.331   7.510
 2115W        W 3012   0.746   4.728   6.830
 2116W        W 3013   3.467   2.146   1.969
 2117W        W 3014   2.261   0.750   4.618
 2118W        W 3015   5.334   2.949   6.358
 2119W        W 3016   1.133   0.388   4.547
 2120W        W 3017   5.867   7.570   7.282
 2121W        W 3018   3.494   5.000   3.033
 2122W        W 3019   6.352   0.797   5.266
 2123W        W 3020   0.070   3.568   0.852
 2124W        W 3021   7.224   3.977   3.809
 2125W        W 3022   0.770   0.572   1.986
 2126W        W 3023   7.609   7.948   7.642
 2127W        W 3024   3.579   4.787   0.950
 2128W        W 3025   5.545   2.763   0.392
 2129W        W 3026   6.526   6.362   0.290
 2130W        W 3027   2.053   2.403   4.355
 2131W        W 3028   6.560   6.809   0.058
 2132W        W 3029   0.433   7.545   6.695
 2133W        W 3030   1.470   7.999   1.150
 2134W        W 3031   1.181   2.504   5.189
 2135W        W 3032   1.569   0.771   4.710
 2136W        W 3033   5.978   4.192   6.868
 2137W        W 3034   6.477   7.850   5.582
 2138W        W 3035   0.847   3.723   6.038
 2139W        W 3036   4.879   7.023   4.386
 2140W        W 3037   6.435   6.864   3.114
 2141W        W 3038   3.379   5.258   1.076
 2142W        W 3039   5.495   3.862   4.386
 2143W        W 3040   4.799   1.319   4.044
 2144W        W 3041   3.766   5.657   5.178
 2145W        W 3042   4.577   2.299   4.111
 2146W        W 3043   1.691   0.338   5.333
 2147W        W 3044   1.076   6.863   2.055
 2148W        W 3045   0.571   7.831   7.786
 2149W        W 3046   6.780   4.099   5.940
 2150W        W 3047   2.314   5.944   1.002
 2151W        W 3048   7.737   2.725   2.400
 2152W        W 3049   4.594   5.443   4.411
 2153W        W 3050   5.120   3.329   6.655
 2154W        W 3051   3.055   2.686   5.959
 2155W        W 3052   1.668   3.126   3.382
 2156W        W 3053   2.854   6.942   4.176
 2157W        W 3054   7.525   2.811   6.248
 2158W        W 3055   4.101   1.494   7.747
 2159W        W 3056   6.724   0.545   4.982
 2160W        W 3057   4.247   1.278   3.448
 2161W        W 3058   4.565   4.239   5.980
 2162W        W 3059   1.743   6.276   4.348
 2163W        W 3060   0.840   1.050   3.318
 2164W        W 3061   6.517   5.533   1.817
 2165W        W 3062   4.866   0.473   2.053
 2166W        W 3063   5.170   6.183   0.334
 2167W        W 3064   1.615   0.450   1.940
 2168W        W 3065   1.086   2.543   1.889
 2169W        W 3066   4.921   3.707   2.214
 2170W        W 3067   6.001   3.026   4.893
 2171W        W 3068   4.422   1.148   1.850
 2172W        W 3069   3.283   6.238   4.701
 2173W        W 3070   6.015   6.209   2.399
 2174W        W 3071   0.383   6.527   3.659
 2175W        W 3072   0.201   4.629   5.938
 2176W        W 3073   1.488   4.416   6.460
 2177W        W 3074   5.544   6.442   2.497
 2178W        W 3075   6.744   1.552   4.575
 2179W        W 3076   6.460   4.184   7.037
 2180W        W 3077   4.911   6.041   7.516
 2181W        W 3078   6.137   5.742   4.437
 2182W        W 3079   4.554   1.358   3.057
 2183W        W 3080   2.254   7.913   3.937
 2184W        W 3081   0.717   0.606   5.268
 2185W        W 3082   3.697   6.569   1.403
 2186W        W 3083   7.562   3.436   1.962
 2187W        W 3084   5.530   4.509   5.697
 2188W        W 3085   6.300   5.987   4.017
 2189W        W 3086   6.941   4.944   1.257
 2190W        W 3087   7.183   2.576   1.199
 2191W        W 3088   3.706   1.300   7.458
 2192W        W 3089   3.043   6.956   7.072
 2193W        W 3090   4.725   1.289   2.587
 2194W        W 3091   4.324   1.382   3.925
 2195W        W 3092   7.119   0.466   5.940
 2196W        W 3093   1.599   2.276   3.572
 2197W        W 3094   3.086   2.136   1.578
 2198W        W 3095   7.937   3.123   1.121
 2199W        W 3096   4.154   3.626   3.553
 2200W        W 3097   4.079   0.499   6.486
 2201W        W 3098   2.845   1.314   2.694
 2202W        W 3099   6.328   7.363   5.797
 2203W        W 3100   4.780   2.425   1.435
 2204W        W 3101   5.589   6.676   3.571
 2205W        W 3102   4.022   3.712   0.547
 2206W        W 3103   0.991   2.198   6.955
 2207W        W 3104   5.842   4.840   2.044
 2208W        W 3105   3.029   6.883   1.881
 2209W        W 3106   0.912   7.367   3.868
 2210W        W 3107   0.383   3.033   1.393
 2211W        W 3108   3.719   3.007   7.430
 2212W        W 3109   4.681   5.792   4.067
 2213W        W 3110   6.189   5.734   2.509
 2214W        W 3111   6.463   6.165   4.508
 2215W        W 3112   6.128   0.194   5.723
 2216W        W 3113   2.091   6.074   2.456
 2217W        W 3114   5.826   2.360   4.317
 2218W        W 3115   6.047   2.505   4.748
 2219W        W 3116   6.767   7.064   5.916
 2220W        W 3117   4.015   6.812   3.450
 2221W        W 3118   1.652   2.308   3.028
 2222W        W 3119   6.880   5.609   6.133
 2223W        W 3120   6.469   3.352   3.231
 2224W        W 3121   2.378   4.832   2.900
 2225W        W 3122   2.452   5.755   3.602
 2226W        W 3123   4.387   7.126   3.579
 2227W        W 3124   4.657   7.235   6.170
 2228W        W 3125   2.478   6.333   7.108
 2229W        W 3126   1.898   2.405   5.557
 2230W        W 3127   6.087   6.747   2.407
 2231W        W 3128   6.821   5.343   6.568
 2232W        W 3129   0.429   5.888   4.544
 2233W        W 3130   5.631   6.547   4.551
 2234W        W 3131   4.279   6.360   3.382
 2235W        W 3132   5.744   5.402   3.536
 2236W        W 3133   4.941   5.980   3.551
 2237W        W 3134   1.488   7.673   1.557
 2238W        W 3135   7.127   7.357   2.995
 2239W        W 3136   6.377   4.102   1.285
 2240W        W 3137   6.708   6.916   2.241
 2241W        W 3138   2.874   6.184   5.566
 2242W        W 3139   4.522   7.739   1.013
 2243W        W 3140   3.738   3.791   4.348
 2244W        W 3141   3.551   6.242   6.172
 2245W        W 3142   4.307   1.488   0.517
 2246W        W 3143   5.811   4.293   1.896
 2247W        W 3144   4.116   3.377   6.619
 2248W        W 3145   7.208   5.695   2.323
 2249W        W 3146   4.120   3.390   2.583
 2250W        W 3147   1.492   1.184   4.398
 2251W        W 3148   4.106   5.801   0.292
 2252W        W 3149   6.379   3.610   5.395
 2253W        W 3150   3.918   0.827   4.290
 2254W        W 3151   2.865   2.441   7.251
 2255W        W 3152   5.577   3.377   2.851
 2256W        W 3153   2.501   4.412   5.030
 2257W        W 3154   2.175   4.162   6.978
 2258W        W 3155   5.514   3.001   1.599
 2259W        W 3156   5.836   2.135   6.348
 2260W        W 3157   2.714   5.417   4.561
 2261W        W 3158   5.112   1.741   5.837
 2262W        W 3159   7.443   6.968   3.108
 2263W        W 3160   5.710   4.018   4.822
 2264W        W 3161   1.796   4.556   2.461
 2265W        W 3162   4.803   3.261   4.119
 2266W        W 3163   2.502   0.309   3.704
 2267W        W 3164   1.286   2.692   4.191
 2268W        W 3165   2.095   3.197   3.115
 2269W        W 3166   1.753   4.058   5.164
 2270W        W 3167   6.094   4.352   6.400
 2271W        W 3168   4.912   5.490   3.298
 2272W        W 3169   6.836   3.501   5.152
 2273W        W 3170   2.991   1.147   7.295
 2274W        W 3171   6.255   6.112   7.628
 2275W        W 3172   6.860   4.557   3.274
 2276W        W 3173   7.081   7.588   6.272
 2277W        W 3174   4.493   3.730   5.926
 2278W        W 3175   5.540   6.496   1.177
 2279W        W 3176   1.951   0.011   4.966
 2280W        W 3177   2.826   6.447   1.576
 2281W        W 3178   1.296   3.923   4.950
 2282W        W 3179   4.925   5.705   7.117
 2283W        W 3180   6.829   4.483   6.768
 2284W        W 3181   5.801   6.900   5.353
 2285W        W 3182   4.278   1.437   4.898
 2286W        W 3183   1.996   2.656   1.420
 2287W        W 3184   5.823   0.128   0.349
 2288W        W 3185   0.931   6.525   4.522
 2289W        W 3186   3.973   4.936   1.234
 2290W        W 3187   5.371   6.884   0.905
 2291W        W 3188   5.482   1.528   3.463
 2292W        W 3189   1.006   5.289   4.953
 2293W        W 3190   2.830   0.315   4.988
 2294W        W 3191   0.936   3.928   7.571
 2295W        W 3192   3.260   2.005   4.365
 2296W        W 3193   1.822   5.424   6.324
 2297W        W 3194   1.347   1.498   3.936
 2298W        W 3195   3.743   7.488   3.052
 2299W        W 3196   6.351   5.879   7.190
 2300W        W 3197   3.531   0.544   5.862
 2301W        W 3198   7.472   6.109   5.423
 2302W        W 3199   1.147   2.033   4.162
 2303W        W 3200   4.669   6.480   2.687
 2304W        W 3201   3.066   5.630   1.882
 2305W        W 3202   5.005   2.173   3.844
 2306W        W 3203   1.078   2.801   5.681
 2307W        W 3204   6.870   2.182   1.290
 2308W        W 3205   4.398   2.233   1.691
 2309W        W 3206   2.340   5.650   1.818
 2310W        W 3207   4.635   2.492   3.637
 2311W        W 3208   3.965   0.932   2.065
 2312W        W 3209   1.978   5.950   1.967
 2313W        W 3210   2.097   0.596   1.841
 2314W        W 3211   5.625   4.982   3.288
 2315W        W 3212   2.531   0.902   2.653
 2316W        W 3213   6.604   2.670   6.434
 2317W        W 3214   7.760   1.304   6.625
 2318W        W 3215   7.253   3.457   3.873
 2319W        W 3216   3.331   4.129   3.212
 2320W        W 3217   4.872   6.370   6.055
 2321W        W 3218   0.409   1.045   2.670
 2322W        W 3219   6.593   1.229   5.425
 2323W        W 3220   5.306   4.502   5.251
 2324W        W 3221   2.617   4.494   6.961
 2325W        W 3222   4.230   3.628   4.100
 2326W        W 3223   1.091   6.959   2.577
 2327W        W 3224   1.424   3.618   3.283
 2328W        W 3225   6.398   5.315   2.277
 2329W        W 3226   6.280   2.206   3.963
 2330W        W 3227   6.743   7.565   0.474
 2331W        W 3228   4.763   2.750   4.217
 2332W        W 3229   4.645   2.011   3.541
 2333W        W 3230   5.059   0.881   4.044
 2334W        W 3231   3.663   3.366   2.804
 2335W        W 3232   3.546   7.844   5.501
 2336W        W 3233   1.666   5.215   0.648
 2337W        W 3234   4.175   7.951   3.645
 2338W        W 3235   0.532   6.120   5.003
 2339W        W 3236   7.399   6.148   2.535
 2340W        W 3237   6.533   1.137   4.907
 2341W        W 3238   0.196   2.071   2.738
 2342W        W 3239   4.602   2.765   7.282
 2343W        W 3240   2.394   7.018   5.896
 2344W        W 3241   7.924   3.306   5.896
 2345W        W 3242   6.724   1.920   4.914
 2346W        W 3243   0.148   3.082   3.714
 2347W        W 3244   7.466   6.610   2.316
 2348W        W 3245   2.828   3.774   1.443
 2349W        W 3246   1.350   7.560   6.350
 2350W        W 3247   3.366   3.837   6.551
 2351W        W 3248   3.108   6.247   3.308
 2352W        W 3249   2.833   5.429   3.611
 2353W        W 3250   5.850   6.092   4.694
 2354W        W 3251   7.239   7.027   2.609
 2355W        W 3252   4.501   0.517   2.488
 2356W        W 3253   7.530   2.396   2.046
 2357W        W 3254   1.505   4.615   7.360
 2358W        W 3255   1.784   1.792   6.107
 2359W        W 3256   7.953   3.100   2.140
 2360W        W 3257   5.247   4.873   4.431
 2361W        W 3258   5.650   0.931   5.735
 2362W        W 3259   6.188   5.362   4.914
 2363W        W 3260   2.739   1.755   2.947
 2364W        W 3261   6.941   5.594   0.025
 2365W        W 3262   3.757   7.503   6.215
 2366W        W 3263   3.753   2.170   6.996
 2367W        W 3264   3.016   0.626   5.791
 2368W        W 3265   4.325   2.605   2.027
 2369W        W 3266   7.520   3.175   2.421
 2370W        W 3267   6.168   3.300   4.478
 2371W        W 3268   4.118   0.925   3.824
 2372W        W 3269   5.214   2.414   5.077
 2373W        W 3270   3.300   5.442   2.334
 2374W        W 3271   6.555   5.063   1.554
 2375W        W 3272   2.151   4.797   3.358
 2376W        W 3273   7.354   6.157   2.025
 2377W        W 3274   5.387   5.914   7.291
 2378W        W 3275   1.974   4.278   6.478
 2379W        W 3276   3.452   6.426   0.930
 2380W        W 3277   4.613   3.578   4.473
 2381W        W 3278   0.895   3.382   4.382
 2382W        W 3279   2.575   1.545   3.422
 2383W        W 3280   6.094   6.895   5.761
 2384W        W 3281   2.694   5.353   5.406
 2385W        W 3282   0.065   3.029   4.340
 2386W        W 3283   1.014   0.321   2.555
 2387W        W 3284   1.218   7.716   5.867
 2388W        W 3285   7.891   3.184   6.396
 2389W        W 3286   5.510   2.433   5.486
 2390W        W 3287   6.597   2.509   6.913
 2391W        W 3288   0.361   2.347   3.128
 2392W        W 3289   7.063   0.511   3.089
 2393W        W 3290   6.684   4.525   1.756
 2394W        W 3291   7.331   6.108   3.066
 2395W        W 3292   2.503   4.828   1.819
 2396W        W 3293   2.603   5.510   3.152
 2397W        W 3294   4.579   2.761   5.999
 2398W        W 3295   0.891   0.361   1.443
 2399W        W 3296   6.791   2.083   4.452
 2400W        W 3297   5.623   2.640   7.389
 2401W        W 3298   2.300   3.870   0.552
 2402W        W 3299   5.373   7.581   1.606
 2403W        W 3300   0.009   0.564   5.953
 2404W        W 3301   3.493   5.839   2.049
 2405W        W 3302   0.995   5.063   4.481
 2406W        W 3303   6.080   6.401   6.914
 2407W        W 3304   4.919   4.542   4.236
 2408W        W 3305   1.234   5.401   3.384
 2409W        W 3306   2.198   6.763   4.938
 2410W        W 3307   7.247   7.468   0.354
 2411W        W 3308   5.759   3.109   6.092
 2412W        W 3309   6.169   0.104   0.740
 2413W        W 3310   5.665   1.544   3.937
 2414W        W 3311   1.323   7.245   1.802
 2415W        W 3312   0.471   7.027   6.674
 2416W        W 3313   2.611   6.527   5.280
 2417W        W 3314   1.770   6.035   3.265
 2418W        W 3315   0.947   4.868   2.938
 2419W        W 3316   7.984   2.605   1.939
 2420W        W 3317   5.710   4.226   5.282
 2421W        W 3318   2.107   3.531   1.451
 2422W        W 3319   6.252   3.587   2.392
 2423W        W 3320   7.842   3.901   4.821
 2424W        W 3321   6.787   3.393   6.005
 2425W        W 3322   0.483   6.434   6.307
 2426W        W 3323   1.797   1.894   5.587
 2427W        W 3324   0.673   1.197   4.468
 2428W        W 3325   3.468   5.779   1.529
 2429W        W 3326   5.839   3.763   2.672
 2430W        W 3327   4.492   6.746   5.381
 2431W        W 3328   1.405   1.894   6.889
 2432W        W 3329   3.017   4.917   3.629
 2433W        W 3330   0.606   1.638   6.410
 2434W        W 3331   7.098   7.854   7.537
 2435W        W 3332   7.944   2.680   6.534
 2436W        W 3333   1.787   7.003   2.760
 2437W        W 3334   5.342   3.024   7.158
 2438W        W 3335   1.898   1.595   2.698
 2439W        W 3336   0.404   2.976   6.451
 2440W        W 3337   4.096   3.038   4.758
 2441W        W 3338   1.491   0.184   0.319
 2442W        W 3339   2.321   7.172   2.081
 2443W        W 3340   7.780   4.066   2.326
 2444W        W 3341   7.374   4.738   1.434
 2445W        W 3342   5.474   1.784   7.618
 2446W        W 3343   5.326   6.719   2.127
 2447W        W 3344   3.699   0.110   1.644
 2448W        W 3345   7.255   5.309   5.774
 2449W        W 3346   6.541   4.900   2.049
 2450W        W 3347   2.774   3.067   5.191
 2451W        W 3348   0.745   7.073   4.698
 2452W        W 3349   4.214   5.834   4.979
 2453W        W 3350   6.447   5.492   0.212
 2454W        W 3351   7.374   1.060   6.350
 2455W        W 3352   6.990   0.368   5.411
 2456W        W 3353   7.145   5.756   0.897
 2457W        W 3354   2.956   1.017   3.469
 2458W        W 3355   2.094   3.586   2.775
 2459W        W 3356   1.025   1.634   2.721
 2460W        W 3357   4.183   5.788   3.961
 2461W        W 3358   3.393   3.130   7.040
 2462W        W 3359   4.074   5.689   1.029
 2463W        W 3360   5.102   0.846   5.621
 2464W        W 3361   4.408   6.718   0.934
 2465W        W 3362   3.772   2.236   6.481
 2466W        W 3363   0.898   7.451   0.095
 2467W        W 3364   0.696   7.618   5.829
 2468W        W 3365   4.195   1.814   1.921
 2469W        W 3366   1.482   0.596   7.006
 2470W        W 3367   3.798   4.727   5.537
 2471W        W 3368   1.784   1.135   5.648
 2472W        W 3369   6.358   2.207   1.355
 2473W        W 3370   6.789   6.537   4.248
 2474W        W 3371   7.510   2.495   3.682
 2475W        W 3372   5.440   1.868   7.107
 2476W        W 3373   3.025   5.013   0.263
 2477W        W 3374   5.188   1.172   2.805
 2478W        W 3375   1.462   6.462   1.357
 2479W        W 3376   5.964   5.568   0.078
 2480W        W 3377   6.025   5.283   0.488
 2481W        W 3378   0.552   0.783   1.575
 2482W        W 3379   0.151   1.682   6.658
 2483W        W 3380   4.983   6.035   1.897
 2484W        W 3381   5.120   1.341   5.505
 2485W        W 3382   4.895   1.004   1.117
 2486W        W 3383   5.773   4.484   0.794
 2487W        W 3384   0.828   2.839   6.149
 2488W        W 3385   0.849   1.612   4.134
 2489W        W 3386   5.406   5.323   1.069
 2490W        W 3387   5.673   6.965   4.867
 2491W        W 3388   0.939   4.985   2.452
 2492W        W 3389   0.908   0.141   5.944
 2493W        W 3390   4.261   6.739   6.716
 2494W        W 3391   5.018   2.210   4.353
 2495W        W 3392   6.444   0.595   6.963
 2496W        W 3393   3.827   0.727   3.023
 2497W        W 3394   2.759   3.668   0.626
 2498W        W 3395   1.931   5.529   0.316
 2499W        W 3396   6.667   3.030   5.023
 2500W        W 3397   1.311   7.436   2.644
 2501W        W 3398   5.203   3.500   5.339
 2502W        W 3399   3.125   3.591   0.260
 2503W        W 3400   2.267   0.786   6.773
 2504W        W 3401   2.161   4.237   5.421
 2505W        W 3402   2.947   7.650   3.076
 2506W        W 3403   2.156   3.499   3.524
 2507W        W 3404   2.652   0.296   6.027
 2508W        W 3405   5.723   7.267   3.335
 2509W        W 3406   6.823   5.572   0.551
 2510W        W 3407   4.435   5.419   5.836
 2511W        W 3408   6.521   3.715   4.402
 2512W        W 3409   4.214   2.720   1.072
 2513W        W 3410   2.413   0.590   5.116
 2514W        W 3411   1.710   7.853   5.999
 2515W        W 3412   6.712   2.271   5.248
 2516W        W 3413   6.687   0.664   6.158
 2517W        W 3414   3.831   1.476   3.820
 2518W        W 3415   7.037   3.612   2.006
 2519W        W 3416   3.573   1.258   2.036
 2520W        W 3417   2.248   5.134   6.253
 2521W        W 3418   5.633   7.428   4.642
 2522W        W 3419   3.437   3.965   7.410
 2523W        W 3420   4.099   1.790   4.582
 2524W        W 3421   4.477   1.504   4.400
 2525W        W 3422   3.897   6.507   5.010
 2526W        W 3423   6.260   1.566   5.601
 2527W        W 3424   0.493   7.104   4.082
 2528W        W 3425   5.405   2.380   4.061
 2529W        W 3426   5.602   4.297   6.539
 2530W        W 3427   1.600   2.913   1.127
 2531W        W 3428   2.992   2.399   3.270
 2532W        W 3429   1.079   4.564   5.519
 2533W        W 3430   5.403   6.937   3.107
 2534W        W 3431   5.745   6.431   5.605
 2535W        W 3432   3.959   3.854   1.922
 2536W        W 3433   3.873   2.353   1.114
 2537W        W 3434   5.695   5.212   4.331
 2538W        W 3435   0.427   1.665   4.420
 2539W        W 3436   5.671   0.010   5.841
 2540W        W 3437   4.187   7.220   1.696
 2541W        W 3438   1.485   4.583   5.239
 2542W        W 3439   0.579   7.057   7.887
 2543W        W 3440   7.383   1.290   5.069
 2544W        W 3441   1.682   5.229   2.684
 2545W        W 3442   5.398   2.937   3.018
 2546W        W 3443   5.108   4.100   4.041
 2547W        W 3444   3.134   2.025   1.081
 2548W        W 3445   6.267   4.933   7.580
 2549W        W 3446   1.876   6.373   1.652
 2550W        W 3447   0.595   7.071   5.847
 2551W        W 3448   2.786   5.709   5.772
 2552W        W 3449   1.879   3.998   1.446
 2553W        W 3450   6.143   4.541   3.348
 2554W        W 3451   2.840   3.562   5.429
 2555W        W 3452   0.394   5.832   5.422
 2556W        W 3453   2.880   2.481   1.035
 2557W        W 3454   0.085   7.592   2.999
 2558W        W 3455   0.901   7.878   7.368
 2559W        W 3456   6.970   3.325   3.082
 2560W        W 3457   2.795   2.661   0.552
 2561W        W 3458   2.720   7.854   3.720
 2562W        W 3459   0.258   2.104   3.556
 2563W        W 3460   5.189   5.914   3.091
 2564W        W 3461   3.195   5.995   6.448
 2565W        W 3462   5.223   7.391   3.285
 2566W        W 3463   3.822   4.206   7.800
 2567W        W 3464   6.411   5.375   6.251
 2568W        W 3465   4.103   7.370   5.464
 2569W        W 3466   1.271   0.856   2.675
 2570W        W 3467   4.100   6.463   5.587
 2571W        W 3468   2.896   3.994   3.776
 2572W        W 3469   0.852   0.696   6.315
 2573W        W 3470   2.146   1.893   1.753
 2574W        W 3471   3.723   1.708   1.834
 2575W        W 3472   6.327   6.804   1.362
 2576W        W 3473   5.018   4.349   5.711
 2577W        W 3474   3.033   5.759   3.293
 2578W        W 3475   3.771   6.111   1.217
 2579W        W 3476   5.350   4.346   4.403
 2580W        W 3477   2.010   3.055   0.276
 2581W        W 3478   5.145   5.768   1.197
 2582W        W 3479   4.176   5.041   2.856
 2583W        W 3480   2.294   1.912   5.419
 2584W        W 3481   3.792   4.277   2.663
 2585W        W 3482   1.575   2.286   4.257
 2586W        W 3483   1.265   4.183   7.259
 2587W        W 3484   2.682   5.293   1.867
 2588W        W 3485   5.579   3.309   3.781
 2589W        W 3486   4.319   7.262   6.551
 2590W        W 3487   4.252   1.460   6.005
 2591W        W 3488   5.852   0.521   6.018
 2592W        W 3489   2.559   0.089   6.503
 2593W        W 3490   7.629   4.891   6.570
 2594W        W 3491   0.748   3.106   5.406
 2595W        W 3492   3.492   5.023   0.036
 2596W        W 3493   2.383   3.899   5.769
 2597W        W 3494   3.266   3.727   3.548
 2598W        W 3495   3.680   2.948   3.804
 2599W        W 3496   7.577   6.869   4.979
 2600W        W 3497   6.409   1.592   5.100
 2601W        W 3498   7.084   5.663   3.175
 2602W        W 3499   1.704   2.769   4.452
 2603W        W 3500   6.892   1.805   6.224
 2604W        W 3501   5.494   1.055   6.878
 2605W        W 3502   7.677   2.958   2.873
 2606W        W 3503   2.909   3.968   5.762
 2607W        W 3504   6.508   2.449   2.298
 2608W        W 3505   2.760   6.059   1.248
 2609W        W 3506   5.513   1.981   3.740
 2610W        W 3507   6.282   1.448   7.438
 2611W        W 3508   3.136   2.900   2.708
 2612W        W 3509   1.394   7.037   3.971
 2613W        W 3510   3.048   2.965   0.895
 2614W        W 3511   4.746   1.829   3.093
 2615W        W 3512   4.826   7.401   3.618
 2616W        W 3513   2.934   6.595   4.868
 2617W        W 3514   0.906   7.320   6.575
 2618W        W 3515   5.157   6.249   0.928
 2619W        W 3516   6.558   5.191   5.242
 2620W        W 3517   5.108   6.940   3.507
 2621W        W 3518   7.443   4.250   5.270
 2622W        W 3519   3.927   4.823   3.254
 2623W        W 3520   6.859   3.925   6.806
 2624W        W 3521   6.678   6.409   7.776
 2625W        W 3522   7.270   4.730   5.230
 2626W        W 3523   5.966   5.784   0.559
 2627W        W 3524   4.684   6.366   1.162
 2628W        W 3525   4.793   0.704   4.455
 2629W        W 3526   7.631   1.723   1.531
 2630W        W 3527   1.093   5.710   5.973
 2631W        W 3528   3.606   5.699   6.813
 2632W        W 3529   6.131   7.030   7.922
 2633W        W 3530   2.667   1.859   1.724
 2634W        W 3531   2.947   4.391   3.449
 2635W        W 3532   4.407   4.982   4.739
 2636W        W 3533   5.401   2.759   5.862
 2637W        W 3534   1.472   1.676   2.416
 2638W        W 3535   5.032   2.572   6.154
 2639W        W 3536   2.739   6.906   1.382
 2640W        W 3537   0.333   4.128   6.520
 2641W        W 3538   2.058   1.334   6.650
 2642W        W 3539   1.255   0.500   5.043
 2643W        W 3540   3.830   2.615   4.658
 2644W        W 3541   1.762   5.397   3.502
 2645W        W 3542   6.207   4.676   1.695
 2646W        W 3543   3.381   6.279   3.727
 2647W        W 3544   4.955   2.047   4.859
 2648W        W 3545   2.454   1.088   4.291
 2649W        W 3546   2.934   4.714   0.700
 2650W        W 3547   7.272   5.722   7.068
 2651W        W 3548   1.949   5.712   7.425
 2652W        W 3549   5.613   1.629   0.089
 2653W        W 3550   5.150   3.553   7.122
 2654W        W 3551   4.579   4.455   2.159
 2655W        W 3552   5.950   1.340   2.586
 2656W        W 3553   0.803   5.798   7.071
 2657W        W 3554   6.517   6.965   5.477
 2658W        W 3555   1.503   2.187   0.820
 2659W        W 3556   3.890   7.042   6.406
 2660W        W 3557   7.615   3.113   4.634
 2661W        W 3558   2.152   1.604   5.805
 2662W        W 3559   3.354   2.300   7.295
 2663W        W 3560   2.777   5.545   2.329
 2664W        W 3561   6.196   6.890   1.923
 2665W        W 3562   3.220   6.825   2.899
 2666W        W 3563   1.180   7.044   0.366
 2667W        W 3564   1.140   4.021   3.070
 2668W        W 3565   0.877   3.420   7.451
 2669W        W 3566   6.314   2.966   1.567
 2670W        W 3567   5.136   0.543   6.494
 2671W        W 3568   3.285   6.987   5.664
 2672W        W 3569   5.948   5.851   3.652
 2673W        W 3570   3.184   7.340   6.755
 2674W        W 3571   3.572   6.988   4.335
 2675W        W 3572   2.817   2.303   0.190
 2676W        W 3573   1.715   3.591   6.062
 2677W        W 3574   1.576   2.746   5.787
 2678W        W 3575   5.599   0.969   2.600
 2679W        W 3576   7.524   7.366   2.357
 2680W        W 3577   1.312   2.989   6.205
 2681W        W 3578   4.617   2.966   3.737
 2682W        W 3579   6.114   2.797   7.454
 2683W        W 3580   0.813   5.197   7.056
 2684W        W 3581   0.635   2.261   1.182
 2685W        W 3582   1.122   5.779   3.009
 2686W        W 3583   7.708   4.296   3.180
 2687W        W 3584   3.739   3.875   2.986
 2688W        W 3585   3.550   2.401   1.523
 2689W        W 3586   5.919   2.809   1.849
 2690W        W 3587   7.014   5.271   7.054
 2691W        W 3588   5.737   6.738   7.787
 2692W        W 3589   4.983   0.324   2.532
 2693W        W 3590   7.225   2.685   2.354
 2694W        W 3591   3.991   3.254   0.200
 2695W        W 3592   1.320   7.941   2.758
 2696W        W 3593   0.844   4.622   1.540
 2697W        W 3594   5.070   4.989   3.948
 2698W        W 3595   0.366   3.800   6.126
 2699W        W 3596   3.967   5.979   2.172
 2700W        W 3597   4.914   1.392   1.883
 2701W        W 3598   3.286   7.275   3.140
 2702W        W 3599   5.450   4.968   2.319
 2703W        W 3600   4.509   5.710   3.074
 2704W        W 3601   1.376   1.308   2.918
 2705W        W 3602   4.374   6.310   5.150
 2706W        W 3603   6.911   5.271   4.371
 2707W        W 3604   4.155   6.317   1.857
 2708W        W 3605   5.205   5.497   5.550
 2709W        W 3606   0.826   0.845   2.423
 2710W        W 3607   3.386   1.753   3.833
 2711W        W 3608   7.087   1.711   2.266
 2712W        W 3609   4.378   5.279   3.341
 2713W        W 3610   0.334   3.028   5.091
 2714W        W 3611   2.618   5.894   4.712
 2715W        W 3612   5.067   1.092   7.221
 2716W        W 3613   1.264   2.676   4.725
 2717W        W 3614   1.591   1.060   3.909
 2718W        W 3615   5.512   3.154   4.756
 2719W        W 3616   3.512   7.158   4.807
 2720W        W 3617   2.815   6.441   2.091
 2721W        W 3618   1.107   2.149   2.733
 2722W        W 3619   4.735   4.369   3.283
 2723W        W 3620   1.413   5.560   5.097
 2724W        W 3621   2.646   0.394   2.579
 2725W        W 3622   3.736   3.743   2.466
 2726W        W 3623   3.954   3.060   5.394
 2727W        W 3624   6.418   6.352   3.101
 2728W        W 3625   6.578   7.517   3.667
 2729W        W 3626   0.781   6.877   6.289
 2730W        W 3627   7.050   3.061   6.300
 2731W        W 3628   5.529   6.156   3.620
 2732W        W 3629   1.456   5.347   5.911
 2733W        W 3630   4.688   5.346   7.399
 2734W        W 3631   6.448   5.914   0.492
 2735W        W 3632   4.678   5.897   5.903
 2736W        W 3633   2.140   0.767   3.168
 2737W        W 3634   6.399   2.046   6.861
 2738W        W 3635   0.621   6.944   2.760
 2739W        W 3636   5.963   4.035   3.611
 2740W        W 3637   5.294   6.993   0.024
 2741W        W 3638   0.286   1.801   3.155
 2742W        W 3639   1.947   2.285   2.154
 2743W        W 3640   7.341   5.375   6.657
 2744W        W 3641   6.570   3.189   6.408
 2745W        W 3642   7.082   4.398   4.877
 2746W        W 3643   5.991   6.991   3.683
 2747W        W 3644   1.680   4.823   6.929
 2748W        W 3645   1.192   4.015   6.270
 2749W        W 3646   6.829   2.636   1.971
 2750W        W 3647   1.700   0.825   1.570
 2751W        W 3648   2.284   1.757   4.583
 2752W        W 3649   4.302   4.589   6.909
 2753W        W 3650   6.300   4.249   5.953
 2754W        W 3651   1.175   7.518   0.542
 2755W        W 3652   5.655   3.386   4.346
 2756W        W 3653   1.095   0.925   4.609
 2757W        W 3654   4.418   7.642   1.909
 2758W        W 3655   3.505   6.964   6.826
 2759W        W 3656   0.606   5.168   4.173
 2760W        W 3657   2.113   4.386   1.692
 2761W        W 3658   1.995   2.134   7.132
 2762W        W 3659   6.985   6.174   7.042
 2763W        W 3660   2.070   6.641   6.912
 2764W        W 3661   6.230   4.762   6.110
 2765W        W 3662   1.938   6.100   0.695
 2766W        W 3663   3.117   5.561   6.711
 2767W        W 3664   3.876   3.809   6.477
 2768W        W 3665   6.583   5.944   7.984
 2769W        W 3666   5.148   6.330   2.820
 2770W        W 3667   7.580   6.053   5.973
 2771W        W 3668   2.569   7.315   2.947
 2772W        W 3669   2.858   1.127   1.353
 2773W        W 3670   1.462   1.456   5.897
 2774W        W 3671   4.568   1.798   2.630
 2775W        W 3672   1.560   1.788   3.427
 2776W        W 3673   6.286   6.845   0.862
 2777W        W 3674   7.089   0.002   7.033
 2778W        W 3675   4.973   4.179   2.034
 2779W        W 3676   2.660   0.087   3.258
 2780W        W 3677   4.285   7.712   2.398
 2781W        W 3678   3.559   5.721   0.989
 2782W        W 3679   0.459   2.892   2.827
 2783W        W 3680   2.803   1.694   2.207
 2784W        W 3681   3.144   0.291   2.429
 2785W        W 3682   3.188   5.548   0.688
 2786W        W 3683   3.249   1.789   5.442
 2787W        W 3684   1.370   7.063   3.037
 2788W        W 3685   5.341   6.470   7.941
 2789W        W 3686   1.208   6.698   0.738
 2790W        W 3687   0.838   6.028   5.630
 2791W        W 3688   3.112   5.560   6.189
 2792W        W 3689   2.688   0.820   6.127
 2793W        W 3690   3.185   2.565   1.849
 2794W        W 3691   7.599   2.603   1.539
 2795W        W 3692   4.855   2.543   4.691
 2796W        W 3693   3.281   0.292   5.502
 2797W        W 3694   0.239   2.726   2.376
 2798W        W 3695   6.800   2.404   6.039
 2799W        W 3696   5.110   7.269   6.433
 2800W        W 3697   6.934   4.940   5.576
 2801W        W 3698   5.173   6.422   3.384
 2802W        W 3699   2.573   3.008   4.735
 2803W        W 3700   5.512   6.856   5.768
 2804W        W 3701   1.350   6.226   6.371
 2805W        W 3702   2.826   1.362   1.807
 2806W        W 3703   2.303   2.385   1.805
 2807W        W 3704   0.742   4.144   7.984
 2808W        W 3705   1.600   6.060   2.291
 2809W        W 3706   4.634   6.765   5.857
 2810W        W 3707   7.883   3.901   1.258
 2811W        W 3708   5.431   3.983   2.160
 2812W        W 3709   3.889   4.917   6.889
 2813W        W 3710   2.095   3.436   6.412
 2814W        W 3711   0.106   6.744   4.045
 2815W        W 3712   1.193   2.178   2.242
 2816W        W 3713   3.796   3.772   5.804
 2817W        W 3714   3.951   1.135   1.179
 2818W        W 3715   0.807   4.611   4.668
 2819W        W 3716   5.879   1.835   2.735
 2820W        W 3717   5.577   5.258   5.136
 2821W        W 3718   4.562   6.414   6.466
 2822W        W 3719   4.556   3.632   3.184
 2823W        W 3720   2.276   5.531   4.011
 2824W        W 3721   1.408   3.257   5.763
 2825W        W 3722   7.382   1.436   6.970
 2826W        W 3723   2.407   2.028   2.174
 2827W        W 3724   3.176   0.709   6.347
 2828W        W 3725   2.940   3.565   4.031
 2829W        W 3726   3.366   4.047   0.062
 2830W        W 3727   5.333   1.264   1.005
 2831W        W 3728   5.388   7.798   6.234
 2832W        W 3729   1.817   0.660   1.082
 2833W        W 3730   4.755   0.470   2.974
 2834W        W 3731   0.636   5.272   5.296
 2835W        W 3732   3.896   5.115   0.344
 2836W        W 3733   4.115   6.614   4.282
 2837W        W 3734   3.148   6.505   5.839
 2838W        W 3735   5.285   1.040   1.884
 2839W        W 3736   5.247   3.436   6.171
 2840W        W 3737   7.968   6.100   5.638
 2841W        W 3738   2.576   6.798   4.574
 2842W        W 3739   5.311   7.983   0.453
 2843W        W 3740   7.791   6.852   0.620
 2844W        W 3741   6.679   0.324   6.539
 2845W        W 3742   7.529   0.782   5.948
 2846W        W 3743   0.475   7.832   7.112
 2847W        W 3744   2.233   5.592   4.522
 2848W        W 3745   6.311   0.293   6.190
 2849W        W 3746   5.527   1.124   0.157
 2850W        W 3747   4.340   5.495   1.533
 2851W        W 3748   3.897   3.377   2.124
 2852W        W 3749   4.067   4.163   4.851
 2853W        W 3750   5.262   1.321   7.734
 2854W        W 3751   1.921   3.482   0.569
 2855W        W 3752   5.300   2.695   4.467
 2856W        W 3753   3.655   1.818   7.375
 2857W        W 3754   4.535   1.005   4.806
 2858W        W 3755   5.595   1.272   6.368
 2859W        W 3756   1.393   7.490   1.015
 2860W        W 3757   7.075   4.893   4.709
 2861W        W 3758   5.835   2.169   1.169
 2862W        W 3759   7.128   6.276   1.576
 2863W        W 3760   2.105   3.884   6.200
 2864W        W 3761   2.164   6.144   2.960
 2865W        W 3762   4.266   6.161   0.962
 2866W        W 3763   5.316   1.707   4.699
 2867W        W 3764   4.806   4.792   1.784
 2868W        W 3765   3.844   0.325   4.455
 2869W        W 3766   6.156   5.004   7.080
 2870W        W 3767   1.712   0.866   2.928
 2871W        W 3768   2.956   5.214   5.829
 2872W        W 3769   1.054   0.974   5.108
 2873W        W 3770   1.157   3.277   3.560
 2874W        W 3771   3.740   3.968   3.507
 2875W        W 3772   7.560   1.854   4.257
 2876W        W 3773   6.064   6.446   1.095
 2877W        W 3774   0.639   1.535   4.885
 2878W        W 3775   1.364   3.679   0.365
 2879W        W 3776   2.698   6.835   2.839
 2880W        W 3777   4.689   1.508   3.554
 2881W        W 3778   0.153   1.726   1.636
 2882W        W 3779   1.846   4.743   2.929
 2883W        W 3780   4.647   5.673   7.822
 2884W        W 3781   4.616   3.601   2.646
 2885W        W 3782   1.090   6.284   1.034
 2886W        W 3783   5.075   3.210   3.701
 2887W        W 3784   7.025   6.691   3.807
 2888W        W 3785   3.697   5.887   3.849
 2889W        W 3786   2.116   2.787   4.738
 2890W        W 3787   2.662   7.447   3.436
 2891W        W 3788   6.122   1.400   4.102
 2892W        W 3789   0.786   6.120   4.256
 2893W        W 3790   7.417   6.537   6.270
 2894W        W 3791   2.160   6.281   5.281
 2895W        W 3792   6.997   2.353   3.548
 2896W        W 3793   2.330   7.340   4.938
 2897W        W 3794   0.667   2.981   2.306
 2898W        W 3795   6.935   4.244   7.215
 2899W        W 3796   5.000   1.715   7.315
 2900W        W 3797   6.459   1.165   4.409
 2901W        W 3798   2.267   7.388   3.752
 2902W        W 3799   4.255   2.439   5.792
 2903W        W 3800   6.467   6.468   2.195
 2904W        W 3801   6.961   5.120   0.760
 2905W        W 3802   4.139   3.180   3.836
 2906W        W 3803   6.698   3.245   4.545
 2907W        W 3804   6.355   5.441   6.827
 2908W        W 3805   0.152   4.028   3.036
 2909W        W 3806   6.400   1.117   6.948
 2910W        W 3807   3.810   6.496   2.174
 2911W        W 3808   7.158   2.364   3.075
 2912W        W 3809   3.185   7.758   3.910
 2913W        W 3810   0.514   2.727   3.840
 2914W        W 3811   5.287   3.082   4.150
 2915W        W 3812   3.299   4.346   4.262
 2916W        W 3813   5.121   5.122   7.269
 2917W        W 3814   5.819   0.555   1.579
 2918W        W 3815   2.502   2.483   4.581
 2919W        W 3816   3.973   5.417   3.642
 2920W        W 3817   7.208   4.078   5.673
 2921W        W 3818   2.473   7.489   6.107
 2922W        W 3819   6.602   6.379   1.349
 2923W        W 3820   4.143   4.118   4.334
 2924W        W 3821   4.067   6.945   1.290
 2925W        W 3822   6.388   6.005   3.478
 2926W        W 3823   4.023   2.881   7.825
 2927W        W 3824   2.396   6.095   5.685
 2928W        W 3825   7.202   2.785   3.358
 2929W        W 3826   7.039   0.980   5.951
 2930W        W 3827   2.976   2.394   4.212
 2931W        W 3828   0.247   6.873   6.198
 2932W        W 3829   4.460   1.798   7.529
 2933W        W 3830   5.653   1.711   0.994
 2934W        W 3831   0.371   2.203   1.637
 2935W        W 3832   1.551   5.817   6.144
 2936W        W 3833   0.723   3.662   1.308
 2937W        W 3834   7.551   3.469   4.987
 2938W        W 3835   3.928   3.897   5.294
 2939W        W 3836   5.923   1.178   7.167
 2940W        W 3837   6.758   6.599   3.387
 2941W        W 3838   4.286   1.725   6.427
 2942W        W 3839   3.769   1.446   4.761
 2943W        W 3840   7.093   2.053   2.673
 2944W        W 3841   7.331   6.687   4.555
 2945W        W 3842   2.222   4.755   1.347
 2946W        W 3843   5.429   3.261   5.723
 2947W        W 3844   4.309   6.828   6.224
 2948W        W 3845   1.046   1.515   6.763
 2949W        W 3846   4.218   2.184   6.244
 2950W        W 3847   3.806   4.515   3.652
 2951W        W 3848   1.385   6.954   1.149
 2952W        W 3849   5.263   0.656   2.880
 2953W        W 3850   2.935   3.153   4.291
 2954W        W 3851   2.574   0.552   3.052
 2955W        W 3852   2.093   7.570   5.813
 2956W        W 3853   6.385   1.580   6.107
 2957W        W 3854   5.058   2.711   0.182
 2958W        W 3855   0.021   2.173   6.637
 2959W        W 3856   0.356   2.949   1.889
 2960W        W 3857   6.646   3.323   2.218
 2961W        W 3858   4.902   6.658   0.756
 2962W        W 3859   4.116   1.816   4.086
 2963W        W 3860   0.488   0.315   3.112
 2964W        W 3861   1.294   0.869   3.197
 2965W        W 3862   2.708   2.008   4.434
 2966W        W 3863   3.143   1.087   3.932
 2967W        W 3864   6.166   7.590   4.387
 2968W        W 3865   6.501   6.388   7.260
 2969W        W 3866   5.429   0.310   6.175
 2970W        W 3867   1.524   5.662   7.154
 2971W        W 3868   4.538   5.221   1.937
 2972W        W 3869   3.430   6.679   4.929
 2973W        W 3870   1.519   2.117   6.427
 2974W        W 3871   5.420   5.943   1.630
 2975W        W 3872   5.334   6.784   5.212
 2976W        W 3873   1.078   4.433   7.681
 2977W        W 3874   0.951   5.648   2.550
 2978W        W 3875   6.304   7.660   7.000
 2979W        W 3876   4.373   2.663   4.560
 2980W        W 3877   2.971   0.837   2.946
 2981W        W 3878   6.752   4.165   2.726
 2982W        W 3879   6.905   1.464   5.055
 2983W        W 3880   6.219   4.024   4.096
 2984W        W 3881   5.333   5.759   5.962
 2985W        W 3882   1.130   0.666   7.887
 2986W        W 3883   6.738   7.017   4.088
 2987W        W 3884   3.000   4.158   5.138
 2988W        W 3885   3.239   1.040   4.829
 2989W        W 3886   1.355   5.123   7.184
 2990W        W 3887   7.075   6.787   1.513
 2991W        W 3888   7.340   4.715   3.113
 2992W        W 3889   0.454   5.696   2.421
 2993W        W 3890   4.757   0.820   6.295
 2994W        W 3891   1.318   0.082   6.264
 2995W        W 3892   6.958   5.391   1.584
 2996W        W 3893   3.436   5.495   5.795
 2997W        W 3894   4.105   4.831   7.349
 2998W        W 3895   3.352   0.633   3.695
 2999W        W 3896   3.809   1.618   2.796
 3000W        W 3897   5.789   6.670   0.701
 3001W        W 3898   1.715   2.832   2.979
 3002W        W 3899   3.480   5.199   6.772
 3003W        W 3900   3.582   0.740   6.699
 3004W        W 3901   1.832   3.907   0.312
 3005W        W 3902   5.405   3.475   2.156
 3006W        W 3903   7.025   4.530   4.304
 3007W        W 3904   6.565   1.808   0.466
 3008W        W 3905   3.117   1.525   6.659
 3009W        W 3906   0.629   3.357   2.681
 3010W        W 3907   7.395   6.563   2.828
 3011W        W 3908   6.568   5.786   6.513
 3012W        W 3909   1.696   4.318   6.932
 3013W        W 3910   7.051   5.195   5.143
 3014W        W 3911   6.056   5.159   5.346
 3015W        W 3912   0.542   2.003   5.084
 3016W        W 3913   3.379   1.561   6.166
 3017W        W 3914   5.029   7.067   5.868
 3018W        W 3915   1.983   3.001   0.782
 3019W        W 3916   0.061   0.494   6.469
 3020W        W 3917   4.441   5.669   6.836
 3021W        W 3918   0.552   1.452   6.894
 3022W        W 3919   1.579   3.770   4.147
 3023W        W 3920   2.995   6.900   6.562
 3024W        W 3921   2.160   6.565   4.450
 3025W        W 3922   4.196   5.989   1.447
 3026W        W 3923   5.386   1.595   1.990
 3027W        W 3924   1.719   0.477   3.270
 3028W        W 3925   5.995   0.283   1.189
 3029W        W 3926   3.773   5.480   7.988
 3030W        W 3927   5.783   5.525   6.070
 3031W        W 3928   6.950   5.530   7.493
 3032W        W 3929   4.336   3.061   6.314
 3033W        W 3930   1.443   6.614   2.779
 3034W        W 3931   7.305   5.074   6.225
 3035W        W 3932   5.434   0.996   5.250
 3036W        W 3933   6.583   6.197   6.223
 3037W        W 3934   6.297   1.352   1.549
 3038W        W 3935   0.977   0.133   3.093
 3039W        W 3936   0.403   1.456   1.243
 3040W        W 3937   0.835   5.796   3.425
 3041W        W 3938   6.774   4.757   5.112
 3042W        W 3939   4.672   1.492   5.705
 3043W        W 3940   7.549   7.873   6.197
 3044W        W 3941   6.557   6.646   6.485
 3045W        W 3942   3.764   1.339   0.283
 3046W        W 3943   6.403   1.048   3.422
 3047W        W 3944   3.803   2.264   5.930
 3048W        W 3945   7.158   5.824   5.739
 3049W        W 3946   3.351   0.704   4.201
 3050W        W 3947   1.084   1.452   4.630
 3051W        W 3948   7.177   2.849   2.841
 3052W        W 3949   3.243   1.541   7.574
 3053W        W 3950   3.177   6.157   1.825
 3054W        W 3951   1.836   7.285   3.992
 3055W        W 3952   7.991   3.461   4.584
 3056W        W 3953   4.518   5.925   6.383
 3057W        W 3954   7.633   3.767   4.044
 3058W        W 3955   3.141   0.956   1.990
 3059W        W 3956   0.562   7.805   3.180
 3060W        W 3957   1.695   7.243   1.424
 3061W        W 3958   6.157   6.850   4.998
 3062W        W 3959   4.849   1.423   1.385
 3063W        W 3960   5.698   5.735   6.924
 3064W        W 3961   3.372   4.494   1.419
 3065W        W 3962   5.090   2.060   6.271
 3066W        W 3963   5.521   7.256   7.061
 3067W        W 3964   6.351   7.020   6.200
 3068W        W 3965   5.758   3.659   0.740
 3069W        W 3966   2.443   2.048   3.265
 3070W        W 3967   4.322   4.864   0.183
 3071W        W 3968   4.451   3.127   0.894
 3072W        W 3969   6.592   7.103   4.969
 3073W        W 3970   4.603   3.354   1.317
 3074W        W 3971   4.191   4.011   3.234
 3075W        W 3972   5.765   4.750   5.241
 3076W        W 3973   2.974   7.519   7.175
 3077W        W 3974   1.997   2.798   7.014
 3078W        W 3975   5.463   7.213   0.548
 3079W        W 3976   1.829   7.118   4.996
 3080W        W 3977   7.395   2.774   4.313
 3081W        W 3978   2.753   2.507   1.543
 3082W        W 3979   5.431   6.165   2.099
 3083W        W 3980   5.591   0.977   0.652
 3084W        W 3981   4.184   6.937   5.722
 3085W        W 3982   2.584   5.046   2.332
 3086W        W 3983   5.953   7.173   0.670
 3087W        W 3984   2.534   2.905   0.165
 3088W        W 3985   1.605   2.862   7.323
 3089W        W 3986   6.680   7.528   4.191
 3090W        W 3987   7.323   2.952   3.843
 3091W        W 3988   1.060   4.368   5.046
 3092W        W 3989   0.572   5.076   4.776
 3093W        W 3990   0.709   4.515   3.669
 3094W        W 3991   5.260   5.197   3.535
 3095W        W 3992   3.890   1.627   1.287
 3096W        W 3993   3.093   1.923   7.973
 3097W        W 3994   6.335   4.174   4.585
 3098W        W 3995   4.778   4.725   6.713
 3099W        W 3996   5.900   3.881   6.453
 3100W        W 3997   6.813   2.124   7.177
 3101W        W 3998   2.926   2.972   1.707
 3102W        W 3999   6.062   1.943   5.929
 3103W        W 4000   4.970   2.720   2.368
 3104W        W 4001   1.114   2.705   7.099
 3105W        W 4002   1.816   0.314   1.472
 3106W        W 4003   5.147   6.787   2.599
 3107W        W 4004   5.538   5.419   7.338
 3108W        W 4005   0.817   2.373   6.398
 3109W        W 4006   5.452   2.904   3.525
 3110W        W 4007   1.073   6.957   5.697
 3111W        W 4008   5.833   7.584   6.095
 3112W        W 4009   4.902   7.017   5.328
 3113W        W 4010   3.990   7.370   2.620
 3114W        W 4011   1.967   5.914   5.881
 3115W        W 4012   4.422   3.107   7.606
 3116W        W 4013   6.095   3.392   2.896
 3117W        W 4014   3.876   2.936   4.273
 3118W        W 4015   3.681   7.440   6.702
 3119W        W 4016   3.025   4.141   6.336
 3120W        W 4017   7.070   2.524   4.010
 3121W        W 4018   4.003   3.443   5.049
 3122W        W 4019   6.876   5.136   0.247
 3123W        W 4020   2.234   1.708   6.308
 3124W        W 4021   0.340   1.742   3.894
 3125W        W 4022   2.926   4.592   6.539
 3126W        W 4023   6.077   2.355   7.735
 3127W        W 4024   2.116   3.131   7.384
 3128W        W 4025   2.565   6.742   6.801
 3129W        W 4026   5.091   6.300   7.110
 3130W        W 4027   0.380   7.455   0.115
 3131W        W 4028   2.441   3.237   5.523
 3132W        W 4029   6.566   2.070   0.900
 3133W        W 4030   2.893   5.217   0.944
 3134W        W 4031   3.631   3.071   5.002
 3135W        W 4032   6.336   0.507   2.102
 3136W        W 4033   7.402   0.325   6.786
 3137W        W 4034   3.691   2.084   4.076
 3138W        W 4035   2.021   4.306   3.137
 3139W        W 4036   0.511   4.645   6.359
 3140W        W 4037   4.944   3.937   6.116
 3141W        W 4038   6.199   5.233   4.443
 3142W        W 4039   6.296   1.780   1.838
 3143W        W 4040   1.090   2.466   0.963
 3144W        W 4041   1.869   6.708   5.327
 3145W        W 4042   2.067   4.484   4.177
 3146W        W 4043   2.145   2.711   7.897
 3147W        W 4044   4.907   4.601   4.745
 3148W        W 4045   0.090   3.178   2.626
 3149W        W 4046   4.606   3.361   6.754
 3150W        W 4047   0.315   6.275   2.331
 3151W        W 4048   0.676   3.872   2.903
 3152W        W 4049   0.086   4.515   2.858
 3153W        W 4050   2.510   0.783   3.507
 3154W        W 4051   1.266   4.933   7.690
 3155W        W 4052   7.400   3.253   6.623
 3156W        W 4053   4.154   6.887   2.674
 3157W        W 4054   6.317   2.479   1.804
 3158W        W 4055   4.868   5.162   5.724
 3159W        W 4056   0.428   6.395   4.529
 3160W        W 4057   7.707   6.552   5.796
 3161W        W 4058   7.399   4.141   4.404
 3162W        W 4059   2.349   6.648   2.271
 3163W        W 4060   1.739   6.260   5.578
 3164W        W 4061   4.400   2.904   6.814
 3165W        W 4062   7.381   1.927   1.912
 3166W        W 4063   5.917   5.344   0.989
 3167W        W 4064   4.960   1.703   4.345
 3168W        W 4065   2.405   2.854   1.656
 3169W        W 4066   4.162   0.651   5.695
 3170W        W 4067   0.593   6.825   5.415
 3171W        W 4068   7.044   3.292   2.572
 3172W        W 4069   1.758   6.340   6.089
 3173W        W 4070   4.282   5.362   0.063
 3174W        W 4071   3.974   2.240   2.029
 3175W        W 4072   2.458   1.063   5.264
 3176W        W 4073   1.855   4.911   6.458
 3177W        W 4074   1.957   1.798   5.040
 3178W        W 4075   5.041   1.650   2.711
 3179W        W 4076   6.927   6.595   6.129
 3180W        W 4077   6.995   6.337   6.563
 3181W        W 4078   5.186   1.488   6.856
 3182W        W 4079   6.008   3.779   4.481
 3183W        W 4080   4.774   6.801   2.219
 3184W        W 4081   3.353   5.786   4.932
 3185W        W 4082   5.140   1.541   6.331
 3186W        W 4083   5.564   5.504   0.454
 3187W        W 4084   6.300   6.827   7.073
 3188W        W 4085   6.519   6.651   2.675
 3189W        W 4086   7.932   1.905   7.074
 3190W        W 4087   0.907   3.255   5.862
 3191W        W 4088   0.301   3.919   1.594
 3192W        W 4089   7.069   1.741   4.202
 3193W        W 4090   6.737   3.784   3.087
 3194W        W 4091   7.155   3.732   2.824
 3195W        W 4092   3.615   7.180   5.307
 3196W        W 4093   4.620   0.399   6.555
 3197W        W 4094   1.070   1.490   5.184
 3198W        W 4095   2.613   6.555   5.803
 3199W        W 4096   6.021   4.544   7.242
 3200W        W 4097   3.460   7.622   3.478
 3201W        W 4098   2.326   3.053   6.191
 3202W        W 4099   1.714   3.879   4.649
 3203W        W 4100   1.724   6.748   4.675
 3204W        W 4101   7.571   1.611   5.658
 3205W        W 4102   5.960   1.115   6.667
 3206W        W 4103   4.537   6.187   3.769
 3207W        W 4104   0.282   3.306   5.524
 3208W        W 4105   5.353   5.286   4.697
 3209W        W 4106   1.287   1.925   6.014
 3210W        W 4107   1.319   6.232   3.104
 3211W        W 4108   3.256   6.514   6.829
 3212W        W 4109   7.444   0.202   2.831
 3213W        W 4110   1.014   4.588   6.393
 3214W        W 4111   2.178   0.260   3.205
 3215W        W 4112   6.773   1.500   5.820
 3216W        W 4113   2.060   6.794   1.826
 3217W        W 4114   0.949   6.532   2.813
 3218W        W 4115   6.169   4.697   4.490
 3219W        W 4116   3.080   5.256   1.513
 3220W        W 4117   5.026   0.862   4.920
 3221W        W 4118   3.382   3.082   3.112
 3222W        W 4119   2.953   0.506   3.397
 3223W        W 4120   7.579   3.706   5.781
 3224W        W 4121   0.602   7.617   2.127
 3225W        W 4122   1.973   4.260   0.656
 3226W        W 4123   7.885   3.565   2.327
 3227W        W 4124   6.592   5.075   4.736
 3228W        W 4125   6.498   2.101   3.505
 3229W        W 4126   2.255   2.573   6.598
 3230W        W 4127   7.256   6.553   3.336
 3231W        W 4128   7.149   0.971   1.593
 3232W        W 4129   1.675   5.868   4.686
 3233W        W 4130   3.589   2.985   2.413
 3234W        W 4131   1.725   3.459   0.074
 3235W        W 4132   6.856   1.287   6.306
 3236W        W 4133   1.865   0.800   4.271
 3237W        W 4134   5.233   3.591   4.034
 3238W        W 4135   6.395   2.008   7.976
 3239W        W 4136   4.590   3.452   3.685
 3240W        W 4137   3.100   5.666   1.214
 3241W        W 4138   5.975   4.096   0.504
 3242W        W 4139   6.131   6.338   6.411
 3243W        W 4140   1.317   6.159   5.842
 3244W        W 4141   4.493   3.168   2.865
 3245W        W 4142   6.995   4.392   1.331
 3246W        W 4143   1.021   3.319   4.882
 3247W        W 4144   4.921   2.876   2.853
 3248W        W 4145   2.590   3.979   5.322
 3249W        W 4146   2.842   3.256   7.934
 3250W        W 4147   5.172   4.342   3.047
 3251W        W 4148   5.415   7.168   2.391
 3252W        W 4149   5.396   5.430   2.505
 3253W        W 4150   7.237   1.442   5.997
 3254W        W 4151   5.291   1.332   4.191
 3255W        W 4152   7.866   1.827   2.051
 3256W        W 4153   3.117   4.827   1.157
 3257W        W 4154   1.055   7.688   1.851
 3258W        W 4155   1.535   5.656   0.025
 3259W        W 4156   5.149   2.644   0.705
 3260W        W 4157   4.961   0.079   6.311
 3261W        W 4158   5.953   2.135   1.676
 3262W        W 4159   5.683   1.224   2.151
   8.00000   8.00000   8.00000
