Martini system from ../2_Creating_coordinates/TYR-LEU-TYR_aa.pdb
 4228
    1TYR     BB    1   1.679   5.874   0.643
    1TYR    SC1    2   1.386   5.970   0.647
    1TYR    SC2    3   1.119   5.940   0.618
    1TYR    SC3    4   1.218   6.075   0.830
    2LEU     BB    5   1.876   5.750   0.438
    2LEU    SC1    6   2.145   5.604   0.550
    3TYR     BB    7   1.869   5.806   0.126
    3TYR    SC1    8   1.567   5.896   0.095
    3TYR    SC2    9   1.329   6.003   0.163
    3TYR    SC3   10   1.341   5.812   7.972
    1TYR     BB   11   1.585   4.900   2.081
    1TYR    SC1   12   1.476   4.710   2.304
    1TYR    SC2   13   1.239   4.582   2.318
    1TYR    SC3   14   1.440   4.511   2.483
    2LEU     BB   15   1.292   4.885   1.879
    2LEU    SC1   16   1.336   5.065   1.619
    3TYR     BB   17   0.985   4.857   1.929
    3TYR    SC1   18   0.885   4.601   2.049
    3TYR    SC2   19   0.685   4.424   2.085
    3TYR    SC3   20   0.930   4.337   2.014
    1TYR     BB   21   2.522   3.301   6.729
    1TYR    SC1   22   2.628   3.376   6.447
    1TYR    SC2   23   2.790   3.411   6.234
    1TYR    SC3   24   2.543   3.521   6.236
    2LEU     BB   25   2.296   3.082   6.620
    2LEU    SC1   26   2.504   2.831   6.557
    3TYR     BB   27   2.155   3.093   6.331
    3TYR    SC1   28   2.393   3.099   6.131
    3TYR    SC2   29   2.636   2.990   6.087
    3TYR    SC3   30   2.542   3.181   5.922
    1TYR     BB   31   5.255   6.344   6.776
    1TYR    SC1   32   5.433   6.590   6.813
    1TYR    SC2   33   5.655   6.687   6.931
    1TYR    SC3   34   5.514   6.842   6.761
    2LEU     BB   35   5.463   6.124   6.665
    2LEU    SC1   36   5.301   5.841   6.641
    3TYR     BB   37   5.764   6.280   6.597
    3TYR    SC1   38   5.657   6.480   6.386
    3TYR    SC2   39   5.618   6.540   6.126
    3TYR    SC3   40   5.517   6.700   6.318
    1TYR     BB   41   1.730   4.312   3.269
    1TYR    SC1   42   2.004   4.454   3.299
    1TYR    SC2   43   2.076   4.679   3.430
    1TYR    SC3   44   2.265   4.520   3.321
    2LEU     BB   45   1.586   4.337   3.550
    2LEU    SC1   46   1.265   4.313   3.482
    3TYR     BB   47   1.647   4.556   3.709
    3TYR    SC1   48   1.872   4.655   3.880
    3TYR    SC2   49   1.961   4.856   4.037
    3TYR    SC3   50   1.984   4.600   4.119
    1TYR     BB   51   2.593   3.752   4.905
    1TYR    SC1   52   2.592   3.450   4.935
    1TYR    SC2   53   2.445   3.230   4.992
    1TYR    SC3   54   2.710   3.207   4.945
    2LEU     BB   55   2.305   3.828   5.085
    2LEU    SC1   56   2.138   3.967   4.845
    3TYR     BB   57   2.226   3.631   5.289
    3TYR    SC1   58   1.957   3.493   5.215
    3TYR    SC2   59   1.714   3.527   5.101
    3TYR    SC3   60   1.813   3.278   5.137
    1TYR     BB   61   0.886   0.830   4.401
    1TYR    SC1   62   1.149   0.938   4.273
    1TYR    SC2   63   1.360   0.839   4.136
    1TYR    SC3   64   1.351   1.102   4.199
    2LEU     BB   65   0.825   0.591   4.165
    2LEU    SC1   66   0.502   0.600   4.116
    3TYR     BB   67   0.979   0.609   3.878
    3TYR    SC1   68   1.033   0.903   3.797
    3TYR    SC2   69   1.215   1.098   3.754
    3TYR    SC3   70   0.980   1.102   3.622
    1TYR     BB   71   3.353   7.393   0.951
    1TYR    SC1   72   3.521   7.159   1.062
    1TYR    SC2   73   3.714   7.109   1.244
    1TYR    SC3   74   3.558   6.907   1.153
    2LEU     BB   75   3.038   7.281   0.898
    2LEU    SC1   76   2.938   7.459   0.642
    3TYR     BB   77   2.882   7.158   1.173
    3TYR    SC1   78   3.144   7.103   1.341
    3TYR    SC2   79   3.324   7.261   1.466
    3TYR    SC3   80   3.310   6.998   1.526
    1TYR     BB   81   2.855   2.858   3.007
    1TYR    SC1   82   2.583   2.749   2.890
    1TYR    SC2   83   2.425   2.786   2.674
    1TYR    SC3   84   2.476   2.537   2.763
    2LEU     BB   85   3.007   2.853   2.681
    2LEU    SC1   86   2.805   3.094   2.569
    3TYR     BB   87   2.891   2.618   2.471
    3TYR    SC1   88   2.689   2.709   2.261
    3TYR    SC2   89   2.487   2.880   2.210
    3TYR    SC3   90   2.571   2.710   2.019
    1TYR     BB   91   1.434   3.817   7.874
    1TYR    SC1   92   1.369   4.027   7.651
    1TYR    SC2   93   1.449   4.234   7.498
    1TYR    SC3   94   1.233   4.089   7.426
    2LEU     BB   95   1.738   3.916   7.988
    2LEU    SC1   96   1.901   3.629   7.951
    3TYR     BB   97   1.895   4.085   7.730
    3TYR    SC1   98   1.794   3.891   7.499
    3TYR    SC2   99   1.766   3.644   7.394
    3TYR    SC3  100   1.616   3.847   7.300
    1TYR     BB  101   3.224   1.148   3.176
    1TYR    SC1  102   3.135   1.391   3.353
    1TYR    SC2  103   2.962   1.496   3.532
    1TYR    SC3  104   3.121   1.659   3.386
    2LEU     BB  105   3.505   1.002   3.130
    2LEU    SC1  106   3.489   0.713   2.981
    3TYR     BB  107   3.767   1.212   3.158
    3TYR    SC1  108   3.627   1.443   3.008
    3TYR    SC2  109   3.483   1.495   2.786
    3TYR    SC3  110   3.408   1.600   3.023
    1TYR     BB  111   4.147   5.411   5.794
    1TYR    SC1  112   3.946   5.191   5.748
    1TYR    SC2  113   3.826   5.067   5.540
    1TYR    SC3  114   3.888   4.927   5.762
    2LEU     BB  115   4.162   5.504   5.449
    2LEU    SC1  116   4.304   5.780   5.498
    3TYR     BB  117   4.023   5.372   5.191
    3TYR    SC1  118   4.238   5.236   5.025
    3TYR    SC2  119   4.303   5.065   4.827
    3TYR    SC3  120   4.497   5.198   4.959
    1TYR     BB  121   4.778   5.219   3.570
    1TYR    SC1  122   4.964   5.366   3.779
    1TYR    SC2  123   5.149   5.557   3.829
    1TYR    SC3  124   4.967   5.492   4.018
    2LEU     BB  125   4.477   5.261   3.755
    2LEU    SC1  126   4.234   5.112   3.587
    3TYR     BB  127   4.473   5.513   3.966
    3TYR    SC1  128   4.453   5.407   4.255
    3TYR    SC2  129   4.332   5.208   4.393
    3TYR    SC3  130   4.548   5.332   4.497
    1TYR     BB  131   2.043   7.900   2.782
    1TYR    SC1  132   2.277   7.733   2.654
    1TYR    SC2  133   2.539   7.752   2.590
    1TYR    SC3  134   2.428   7.510   2.633
    2LEU     BB  135   2.002   0.208   2.583
    2LEU    SC1  136   1.681   0.257   2.641
    3TYR     BB  137   2.095   0.551   2.618
    3TYR    SC1  138   2.028   0.593   2.925
    3TYR    SC2  139   1.932   0.754   3.119
    3TYR    SC3  140   2.138   0.588   3.171
    1TYR     BB  141   0.130   3.635   4.713
    1TYR    SC1  142   7.985   3.852   4.569
    1TYR    SC2  143   7.825   3.977   4.391
    1TYR    SC3  144   7.804   4.034   4.654
    2LEU     BB  145   7.928   3.544   4.951
    2LEU    SC1  146   0.133   3.398   5.155
    3TYR     BB  147   7.625   3.628   4.916
    3TYR    SC1  148   7.559   3.804   5.148
    3TYR    SC2  149   7.392   3.947   5.304
    3TYR    SC3  150   7.582   3.792   5.417
    1TYR     BB  151   0.107   4.413   7.197
    1TYR    SC1  152   0.388   4.557   7.225
    1TYR    SC2  153   0.577   4.719   7.119
    1TYR    SC3  154   0.575   4.669   7.385
    2LEU     BB  155   7.967   4.593   6.954
    2LEU    SC1  156   7.689   4.685   7.104
    3TYR     BB  157   0.143   4.832   6.877
    3TYR    SC1  158   0.205   5.010   7.116
    3TYR    SC2  159   0.385   5.123   7.284
    3TYR    SC3  160   0.138   5.230   7.258
    1TYR     BB  161   1.201   6.700   1.403
    1TYR    SC1  162   0.978   6.894   1.306
    1TYR    SC2  163   0.875   7.140   1.260
    1TYR    SC3  164   0.713   6.923   1.262
    2LEU     BB  165   1.198   6.476   1.156
    2LEU    SC1  166   0.917   6.329   1.211
    3TYR     BB  167   1.173   6.602   0.878
    3TYR    SC1  168   0.912   6.768   0.856
    3TYR    SC2  169   0.810   7.006   0.779
    3TYR    SC3  170   0.646   6.795   0.822
    1TYR     BB  171   1.772   5.648   5.549
    1TYR    SC1  172   1.912   5.747   5.296
    1TYR    SC2  173   2.078   5.715   5.086
    1TYR    SC3  174   1.955   5.952   5.126
    2LEU     BB  175   1.450   5.670   5.447
    2LEU    SC1  176   1.356   5.881   5.679
    3TYR     BB  177   1.413   5.736   5.162
    3TYR    SC1  178   1.592   5.629   4.936
    3TYR    SC2  179   1.790   5.637   4.753
    3TYR    SC3  180   1.569   5.489   4.707
    1TYR     BB  181   1.852   2.021   5.966
    1TYR    SC1  182   2.011   1.819   6.132
    1TYR    SC2  183   1.998   1.728   6.386
    1TYR    SC3  184   2.050   1.557   6.183
    2LEU     BB  185   1.661   1.746   5.820
    2LEU    SC1  186   1.527   1.648   6.106
    3TYR     BB  187   1.870   1.551   5.716
    3TYR    SC1  188   1.963   1.455   5.451
    3TYR    SC2  189   1.992   1.350   5.204
    3TYR    SC3  190   2.210   1.416   5.349
    1TYR     BB  191   5.504   3.284   2.810
    1TYR    SC1  192   5.293   3.080   2.724
    1TYR    SC2  193   5.221   2.830   2.651
    1TYR    SC3  194   5.034   3.023   2.673
    2LEU     BB  195   5.541   3.236   3.154
    2LEU    SC1  196   5.439   3.501   3.320
    3TYR     BB  197   5.415   2.963   3.222
    3TYR    SC1  198   5.145   2.885   3.126
    3TYR    SC2  199   4.976   2.699   3.027
    3TYR    SC3  200   4.879   2.926   3.137
    1TYR     BB  201   6.705   5.500   1.989
    1TYR    SC1  202   6.686   5.479   2.287
    1TYR    SC2  203   6.526   5.398   2.490
    1TYR    SC3  204   6.794   5.368   2.508
    2LEU     BB  205   6.465   5.223   1.942
    2LEU    SC1  206   6.401   5.256   1.626
    3TYR     BB  207   6.456   5.000   2.135
    3TYR    SC1  208   6.656   4.963   2.368
    3TYR    SC2  209   6.678   4.963   2.637
    3TYR    SC3  210   6.867   4.843   2.486
    1TYR     BB  211   2.177   1.265   0.467
    1TYR    SC1  212   2.026   1.458   0.289
    1TYR    SC2  213   1.943   1.659   0.129
    1TYR    SC3  214   1.822   1.417   0.116
    2LEU     BB  215   2.017   0.984   0.432
    2LEU    SC1  216   2.170   0.754   0.610
    3TYR     BB  217   1.915   0.806   0.176
    3TYR    SC1  218   1.765   0.979   7.967
    3TYR    SC2  219   1.659   0.937   7.721
    3TYR    SC3  220   1.553   1.125   7.884
    1TYR     BB  221   7.305   3.374   3.699
    1TYR    SC1  222   7.182   3.166   3.505
    1TYR    SC2  223   7.010   2.958   3.496
    1TYR    SC3  224   7.043   3.116   3.280
    2LEU     BB  225   7.187   3.650   3.563
    2LEU    SC1  226   7.028   3.807   3.799
    3TYR     BB  227   6.979   3.642   3.339
    3TYR    SC1  228   7.033   3.526   3.060
    3TYR    SC2  229   6.912   3.448   2.831
    3TYR    SC3  230   7.166   3.539   2.825
    1TYR     BB  231   0.904   6.460   4.182
    1TYR    SC1  232   1.185   6.532   4.088
    1TYR    SC2  233   1.341   6.717   3.969
    1TYR    SC3  234   1.453   6.509   4.100
    2LEU     BB  235   0.864   6.616   4.468
    2LEU    SC1  236   0.542   6.578   4.522
    3TYR     BB  237   1.143   6.734   4.601
    3TYR    SC1  238   1.369   6.848   4.418
    3TYR    SC2  239   1.423   7.065   4.266
    3TYR    SC3  240   1.619   6.889   4.325
    1TYR     BB  241   2.101   1.060   6.340
    1TYR    SC1  242   1.862   0.868   6.382
    1TYR    SC2  243   1.708   0.652   6.333
    1TYR    SC3  244   1.599   0.873   6.443
    2LEU     BB  245   2.351   0.879   6.413
    2LEU    SC1  246   2.454   0.793   6.111
    3TYR     BB  247   2.334   0.624   6.633
    3TYR    SC1  248   2.029   0.546   6.684
    3TYR    SC2  249   1.789   0.604   6.793
    3TYR    SC3  250   1.843   0.353   6.709
    1TYR     BB  251   3.986   0.740   6.500
    1TYR    SC1  252   3.983   1.016   6.656
    1TYR    SC2  253   4.142   1.210   6.754
    1TYR    SC3  254   3.881   1.260   6.710
    2LEU     BB  255   4.197   0.841   6.240
    2LEU    SC1  256   4.329   0.545   6.170
    3TYR     BB  257   4.442   0.985   6.362
    3TYR    SC1  258   4.457   0.885   6.653
    3TYR    SC2  259   4.412   0.650   6.778
    3TYR    SC3  260   4.421   0.879   6.921
    1TYR     BB  261   0.614   6.520   2.955
    1TYR    SC1  262   0.349   6.380   2.955
    1TYR    SC2  263   0.126   6.302   3.084
    1TYR    SC3  264   0.182   6.202   2.840
    2LEU     BB  265   0.591   6.804   2.818
    2LEU    SC1  266   0.892   6.932   2.840
    3TYR     BB  267   0.322   6.931   2.705
    3TYR    SC1  268   0.088   6.740   2.792
    3TYR    SC2  269   7.876   6.680   2.948
    3TYR    SC3  270   7.915   6.546   2.717
    1TYR     BB  271   7.382   6.438   0.146
    1TYR    SC1  272   7.350   6.705   7.985
    1TYR    SC2  273   7.428   6.954   7.917
    1TYR    SC3  274   7.226   6.835   7.784
    2LEU     BB  275   7.544   6.241   7.921
    2LEU    SC1  276   7.718   6.009   0.071
    3TYR     BB  277   7.524   6.358   7.645
    3TYR    SC1  278   7.724   6.292   7.434
    3TYR    SC2  279   7.956   6.331   7.301
    3TYR    SC3  280   7.781   6.144   7.216
    1TYR     BB  281   6.083   5.074   5.828
    1TYR    SC1  282   6.376   5.083   5.764
    1TYR    SC2  283   6.626   5.150   5.842
    1TYR    SC3  284   6.590   4.959   5.655
    2LEU     BB  285   6.086   4.860   6.086
    2LEU    SC1  286   5.773   4.785   6.084
    3TYR     BB  287   6.386   4.822   6.242
    3TYR    SC1  288   6.565   4.714   6.028
    3TYR    SC2  289   6.827   4.739   5.964
    3TYR    SC3  290   6.676   4.550   5.845
    1TYR     BB  291   5.785   3.963   6.219
    1TYR    SC1  292   5.500   3.970   6.082
    1TYR    SC2  293   5.403   3.954   5.831
    1TYR    SC3  294   5.235   3.939   6.042
    2LEU     BB  295   5.938   3.697   6.131
    2LEU    SC1  296   5.957   3.530   6.411
    3TYR     BB  297   5.944   3.559   5.843
    3TYR    SC1  298   5.761   3.733   5.653
    3TYR    SC2  299   5.727   3.972   5.533
    3TYR    SC3  300   5.591   3.756   5.445
    1TYR     BB  301   4.284   1.310   1.248
    1TYR    SC1  302   4.473   1.083   1.365
    1TYR    SC2  303   4.580   0.859   1.471
    1TYR    SC3  304   4.703   0.982   1.265
    2LEU     BB  305   4.332   1.212   0.930
    2LEU    SC1  306   4.642   1.304   0.882
    3TYR     BB  307   4.311   0.937   0.847
    3TYR    SC1  308   4.498   0.714   0.935
    3TYR    SC2  309   4.485   0.445   0.926
    3TYR    SC3  310   4.665   0.566   1.087
    1TYR     BB  311   1.648   4.345   6.770
    1TYR    SC1  312   1.536   4.254   6.497
    1TYR    SC2  313   1.347   4.170   6.323
    1TYR    SC3  314   1.608   4.157   6.255
    2LEU     BB  315   1.457   4.251   6.994
    2LEU    SC1  316   1.262   4.509   7.056
    3TYR     BB  317   1.243   4.024   6.915
    3TYR    SC1  318   1.082   4.184   6.692
    3TYR    SC2  319   0.854   4.288   6.591
    3TYR    SC3  320   1.082   4.433   6.587
    1TYR     BB  321   4.454   4.393   3.274
    1TYR    SC1  322   4.341   4.325   3.558
    1TYR    SC2  323   4.190   4.275   3.776
    1TYR    SC3  324   4.450   4.202   3.772
    2LEU     BB  325   4.651   4.116   3.258
    2LEU    SC1  326   4.943   4.215   3.163
    3TYR     BB  327   4.502   3.846   3.302
    3TYR    SC1  328   4.304   3.848   3.532
    3TYR    SC2  329   4.056   3.856   3.638
    3TYR    SC3  330   4.263   3.768   3.787
    1TYR     BB  331   6.209   7.995   6.778
    1TYR    SC1  332   6.233   0.264   6.634
    1TYR    SC2  333   6.291   0.528   6.632
    1TYR    SC3  334   6.099   0.431   6.469
    2LEU     BB  335   6.339   7.744   6.645
    2LEU    SC1  336   6.589   7.635   6.829
    3TYR     BB  337   6.423   7.767   6.356
    3TYR    SC1  338   6.454   0.061   6.261
    3TYR    SC2  339   6.540   0.176   6.032
    3TYR    SC3  340   6.487   0.329   6.249
    1TYR     BB  341   4.244   6.676   5.453
    1TYR    SC1  342   4.235   6.420   5.288
    1TYR    SC2  343   4.250   6.353   5.027
    1TYR    SC3  344   4.333   6.179   5.216
    2LEU     BB  345   4.473   6.826   5.231
    2LEU    SC1  346   4.263   6.854   4.977
    3TYR     BB  347   4.687   6.608   5.137
    3TYR    SC1  348   4.707   6.327   5.013
    3TYR    SC2  349   4.605   6.163   4.825
    3TYR    SC3  350   4.759   6.063   5.022
    1TYR     BB  351   5.333   2.109   1.668
    1TYR    SC1  352   5.523   2.315   1.775
    1TYR    SC2  353   5.625   2.564   1.797
    1TYR    SC3  354   5.651   2.388   2.000
    2LEU     BB  355   5.373   1.858   1.889
    2LEU    SC1  356   5.098   1.697   1.937
    3TYR     BB  357   5.502   1.937   2.178
    3TYR    SC1  358   5.543   1.987   2.477
    3TYR    SC2  359   5.488   2.028   2.738
    3TYR    SC3  360   5.740   1.971   2.662
    1TYR     BB  361   6.649   0.414   1.102
    1TYR    SC1  362   6.507   0.667   1.199
    1TYR    SC2  363   6.404   0.916   1.189
    1TYR    SC3  364   6.290   0.730   1.347
    2LEU     BB  365   6.434   0.172   1.150
    2LEU    SC1  366   6.387   0.078   0.840
    3TYR     BB  367   6.154   0.244   1.284
    3TYR    SC1  368   6.041   0.264   1.574
    3TYR    SC2  369   5.811   0.311   1.707
    3TYR    SC3  370   6.017   0.189   1.832
    1TYR     BB  371   7.117   6.427   2.391
    1TYR    SC1  372   7.004   6.695   2.477
    1TYR    SC2  373   7.076   6.915   2.616
    1TYR    SC3  374   6.875   6.929   2.436
    2LEU     BB  375   7.168   6.432   2.081
    2LEU    SC1  376   6.876   6.473   1.950
    3TYR     BB  377   7.381   6.491   1.824
    3TYR    SC1  378   7.236   6.743   1.691
    3TYR    SC2  379   7.145   6.918   1.507
    3TYR    SC3  380   7.028   6.904   1.751
    1TYR     BB  381   4.723   0.676   2.874
    1TYR    SC1  382   4.633   0.583   3.151
    1TYR    SC2  383   4.672   0.377   3.321
    1TYR    SC3  384   4.559   0.605   3.410
    2LEU     BB  385   4.817   0.360   2.743
    2LEU    SC1  386   4.832   0.407   2.416
    3TYR     BB  387   4.997   0.079   2.856
    3TYR    SC1  388   4.937   0.028   3.163
    3TYR    SC2  389   4.802   7.923   3.372
    3TYR    SC3  390   5.019   0.078   3.415
    1TYR     BB  391   5.642   0.913   7.865
    1TYR    SC1  392   5.771   0.960   0.144
    1TYR    SC2  393   5.927   0.827   0.319
    1TYR    SC3  394   5.747   1.008   0.409
    2LEU     BB  395   5.881   0.959   7.642
    2LEU    SC1  396   5.730   0.831   7.379
    3TYR     BB  397   6.148   1.075   7.741
    3TYR    SC1  398   6.187   1.158   0.041
    3TYR    SC2  399   6.359   1.270   0.217
    3TYR    SC3  400   6.093   1.283   0.261
    1TYR     BB  401   5.196   6.886   2.021
    1TYR    SC1  402   5.221   6.584   2.113
    1TYR    SC2  403   5.152   6.429   2.322
    1TYR    SC3  404   5.167   6.322   2.075
    2LEU     BB  405   4.987   6.982   2.262
    2LEU    SC1  406   4.947   7.303   2.251
    3TYR     BB  407   4.788   6.776   2.333
    3TYR    SC1  408   4.804   6.590   2.575
    3TYR    SC2  409   4.842   6.585   2.842
    3TYR    SC3  410   4.730   6.373   2.718
    1TYR     BB  411   2.313   2.800   5.680
    1TYR    SC1  412   2.133   2.559   5.611
    1TYR    SC2  413   1.912   2.450   5.721
    1TYR    SC3  414   1.932   2.474   5.453
    2LEU     BB  415   2.055   3.012   5.765
    2LEU    SC1  416   2.163   3.259   5.599
    3TYR     BB  417   1.850   2.924   5.940
    3TYR    SC1  418   1.558   3.030   5.922
    3TYR    SC2  419   1.316   3.016   6.040
    3TYR    SC3  420   1.338   3.116   5.791
    1TYR     BB  421   5.187   1.125   5.109
    1TYR    SC1  422   4.950   1.300   5.003
    1TYR    SC2  423   4.733   1.325   4.845
    1TYR    SC3  424   4.770   1.496   5.050
    2LEU     BB  425   5.056   0.833   5.113
    2LEU    SC1  426   5.236   0.561   5.120
    3TYR     BB  427   4.799   0.803   4.906
    3TYR    SC1  428   4.570   0.950   5.048
    3TYR    SC2  429   4.356   0.913   5.209
    3TYR    SC3  430   4.453   1.162   5.169
    1TYR     BB  431   3.483   5.868   6.840
    1TYR    SC1  432   3.287   6.025   6.669
    1TYR    SC2  433   3.181   6.121   6.440
    1TYR    SC3  434   3.019   6.052   6.644
    2LEU     BB  435   3.297   5.800   7.125
    2LEU    SC1  436   3.419   5.508   7.210
    3TYR     BB  437   2.964   5.752   7.193
    3TYR    SC1  438   2.793   5.830   6.954
    3TYR    SC2  439   2.667   5.777   6.721
    3TYR    SC3  440   2.601   5.997   6.862
    1TYR     BB  441   0.507   1.409   2.362
    1TYR    SC1  442   0.383   1.427   2.655
    1TYR    SC2  443   0.273   1.560   2.862
    1TYR    SC3  444   0.460   1.371   2.907
    2LEU     BB  445   0.807   1.296   2.434
    2LEU    SC1  446   0.943   1.240   2.145
    3TYR     BB  447   0.824   1.097   2.645
    3TYR    SC1  448   0.931   1.213   2.904
    3TYR    SC2  449   0.997   1.174   3.163
    3TYR    SC3  450   0.905   1.415   3.082
    1TYR     BB  451   3.563   7.328   2.173
    1TYR    SC1  452   3.488   7.123   2.397
    1TYR    SC2  453   3.279   7.045   2.548
    1TYR    SC3  454   3.459   6.863   2.463
    2LEU     BB  455   3.277   7.292   1.973
    2LEU    SC1  456   3.247   7.590   1.840
    3TYR     BB  457   3.025   7.216   2.142
    3TYR    SC1  458   2.984   6.910   2.187
    3TYR    SC2  459   2.803   6.730   2.275
    3TYR    SC3  460   3.066   6.686   2.314
    1TYR     BB  461   6.944   7.159   5.291
    1TYR    SC1  462   7.183   7.029   5.451
    1TYR    SC2  463   7.448   7.048   5.499
    1TYR    SC3  464   7.284   6.948   5.688
    2LEU     BB  465   7.085   7.252   5.012
    2LEU    SC1  466   7.339   7.427   5.137
    3TYR     BB  467   7.206   7.028   4.856
    3TYR    SC1  468   7.364   6.831   5.027
    3TYR    SC2  469   7.558   6.649   4.985
    3TYR    SC3  470   7.457   6.683   5.233
    1TYR     BB  471   6.508   5.820   0.522
    1TYR    SC1  472   6.521   6.114   0.614
    1TYR    SC2  473   6.448   6.264   0.827
    1TYR    SC3  474   6.582   6.377   0.621
    2LEU     BB  475   6.511   5.656   0.828
    2LEU    SC1  476   6.748   5.439   0.742
    3TYR     BB  477   6.650   5.826   1.044
    3TYR    SC1  478   6.479   6.010   1.208
    3TYR    SC2  479   6.361   6.059   1.446
    3TYR    SC3  480   6.443   6.264   1.292
    1TYR     BB  481   2.613   5.097   4.009
    1TYR    SC1  482   2.372   5.250   3.886
    1TYR    SC2  483   2.172   5.144   3.739
    1TYR    SC3  484   2.119   5.342   3.915
    2LEU     BB  485   2.483   4.813   4.052
    2LEU    SC1  486   2.350   4.809   4.343
    3TYR     BB  487   2.382   4.690   3.802
    3TYR    SC1  488   2.484   4.863   3.560
    3TYR    SC2  489   2.655   5.066   3.510
    3TYR    SC3  490   2.517   4.952   3.308
    1TYR     BB  491   0.913   1.992   0.193
    1TYR    SC1  492   0.718   1.999   0.442
    1TYR    SC2  493   0.577   1.883   0.641
    1TYR    SC3  494   0.495   2.117   0.537
    2LEU     BB  495   1.183   2.113   0.265
    2LEU    SC1  496   1.379   2.088   0.004
    3TYR     BB  497   1.295   2.060   0.557
    3TYR    SC1  498   1.083   2.147   0.761
    3TYR    SC2  499   1.064   2.187   1.028
    3TYR    SC3  500   0.841   2.183   0.876
    1TYR     BB  501   3.437   3.590   5.868
    1TYR    SC1  502   3.652   3.385   5.956
    1TYR    SC2  503   3.885   3.263   6.018
    1TYR    SC3  504   3.665   3.220   6.169
    2LEU     BB  505   3.573   3.863   5.936
    2LEU    SC1  506   3.386   3.964   6.183
    3TYR     BB  507   3.860   3.893   6.075
    3TYR    SC1  508   3.876   3.664   6.283
    3TYR    SC2  509   3.980   3.452   6.415
    3TYR    SC3  510   3.739   3.551   6.485
    1TYR     BB  511   6.724   2.511   7.671
    1TYR    SC1  512   6.673   2.199   7.640
    1TYR    SC2  513   6.673   1.953   7.751
    1TYR    SC3  514   6.467   2.031   7.596
    2LEU     BB  515   6.862   2.595   7.965
    2LEU    SC1  516   6.901   2.926   7.960
    3TYR     BB  517   6.829   2.541   0.281
    3TYR    SC1  518   7.045   2.725   0.414
    3TYR    SC2  519   7.184   2.956   0.437
    3TYR    SC3  520   7.123   2.812   0.657
    1TYR     BB  521   6.599   4.437   3.745
    1TYR    SC1  522   6.343   4.603   3.684
    1TYR    SC2  523   6.081   4.640   3.627
    1TYR    SC3  524   6.266   4.808   3.526
    2LEU     BB  525   6.476   4.127   3.721
    2LEU    SC1  526   6.613   4.001   3.991
    3TYR     BB  527   6.164   4.115   3.624
    3TYR    SC1  528   5.923   4.207   3.810
    3TYR    SC2  529   5.762   4.186   4.025
    3TYR    SC3  530   5.764   4.413   3.880
    1TYR     BB  531   0.081   4.153   0.923
    1TYR    SC1  532   0.342   3.990   1.010
    1TYR    SC2  533   0.610   4.019   1.008
    1TYR    SC3  534   0.492   3.880   1.206
    2LEU     BB  535   0.195   4.464   1.033
    2LEU    SC1  536   7.946   4.590   1.197
    3TYR     BB  537   0.392   4.386   1.295
    3TYR    SC1  538   0.208   4.158   1.424
    3TYR    SC2  539   0.112   3.921   1.510
    3TYR    SC3  540   7.943   4.108   1.412
    1TYR     BB  541   0.064   2.453   7.364
    1TYR    SC1  542   0.294   2.579   7.536
    1TYR    SC2  543   0.374   2.682   7.772
    1TYR    SC3  544   0.556   2.584   7.599
    2LEU     BB  545   0.194   2.151   7.289
    2LEU    SC1  546   0.068   2.063   7.001
    3TYR     BB  547   0.433   2.083   7.452
    3TYR    SC1  548   0.403   2.176   7.745
    3TYR    SC2  549   0.264   2.254   7.964
    3TYR    SC3  550   0.534   2.270   7.962
    1TYR     BB  551   0.666   0.795   7.689
    1TYR    SC1  552   0.806   0.715   7.415
    1TYR    SC2  553   0.794   0.635   7.157
    1TYR    SC3  554   0.976   0.820   7.233
    2LEU     BB  555   0.438   1.015   7.530
    2LEU    SC1  556   0.244   0.770   7.416
    3TYR     BB  557   0.544   1.103   7.201
    3TYR    SC1  558   0.537   1.410   7.216
    3TYR    SC2  559   0.418   1.649   7.177
    3TYR    SC3  560   0.651   1.635   7.312
    1TYR     BB  561   4.187   1.459   3.013
    1TYR    SC1  562   4.191   1.521   3.316
    1TYR    SC2  563   4.213   1.731   3.485
    1TYR    SC3  564   4.302   1.487   3.560
    2LEU     BB  565   4.012   1.718   2.905
    2LEU    SC1  566   3.975   1.640   2.590
    3TYR     BB  567   3.847   1.905   3.156
    3TYR    SC1  568   3.747   1.698   3.364
    3TYR    SC2  569   3.551   1.549   3.475
    3TYR    SC3  570   3.804   1.532   3.570
    1TYR     BB  571   6.304   7.172   3.813
    1TYR    SC1  572   6.532   7.369   3.773
    1TYR    SC2  573   6.792   7.368   3.703
    1TYR    SC3  574   6.666   7.602   3.752
    2LEU     BB  575   6.326   6.973   3.558
    2LEU    SC1  576   6.240   6.659   3.556
    3TYR     BB  577   6.432   7.075   3.304
    3TYR    SC1  578   6.514   7.372   3.313
    3TYR    SC2  579   6.719   7.545   3.285
    3TYR    SC3  580   6.470   7.638   3.329
    1TYR     BB  581   5.000   3.096   0.433
    1TYR    SC1  582   5.056   2.880   0.225
    1TYR    SC2  583   5.061   2.875   7.956
    1TYR    SC3  584   5.028   2.645   0.094
    2LEU     BB  585   5.017   3.372   0.193
    2LEU    SC1  586   5.218   3.577   0.342
    3TYR     BB  587   4.885   3.425   7.914
    3TYR    SC1  588   4.966   3.241   7.674
    3TYR    SC2  589   5.013   3.247   7.408
    3TYR    SC3  590   4.946   3.015   7.528
    1TYR     BB  591   3.619   6.057   1.468
    1TYR    SC1  592   3.614   5.790   1.618
    1TYR    SC2  593   3.676   5.528   1.640
    1TYR    SC3  594   3.468   5.629   1.779
    2LEU     BB  595   3.767   6.276   1.601
    2LEU    SC1  596   3.572   6.409   1.826
    3TYR     BB  597   4.025   6.227   1.830
    3TYR    SC1  598   3.878   6.004   1.979
    3TYR    SC2  599   3.827   5.743   2.028
    3TYR    SC3  600   3.643   5.931   2.091
    1TYR     BB  601   7.204   1.313   3.943
    1TYR    SC1  602   7.447   1.342   3.756
    1TYR    SC2  603   7.628   1.206   3.608
    1TYR    SC3  604   7.606   1.474   3.583
    2LEU     BB  605   7.080   0.988   3.845
    2LEU    SC1  606   6.778   0.860   3.901
    3TYR     BB  607   7.205   0.875   3.559
    3TYR    SC1  608   7.222   1.148   3.398
    3TYR    SC2  609   7.298   1.362   3.252
    3TYR    SC3  610   7.105   1.388   3.439
    1TYR     BB  611   2.450   4.811   1.081
    1TYR    SC1  612   2.755   4.891   1.066
    1TYR    SC2  613   3.020   4.860   1.025
    1TYR    SC3  614   2.926   5.090   1.131
    2LEU     BB  615   2.354   4.844   0.766
    2LEU    SC1  616   2.152   5.095   0.717
    3TYR     BB  617   2.566   4.764   0.574
    3TYR    SC1  618   2.824   4.929   0.591
    3TYR    SC2  619   3.093   4.947   0.586
    3TYR    SC3  620   2.944   5.167   0.634
    1TYR     BB  621   4.405   5.126   1.407
    1TYR    SC1  622   4.279   4.862   1.325
    1TYR    SC2  623   4.230   4.715   1.104
    1TYR    SC3  624   4.246   4.595   1.345
    2LEU     BB  625   4.487   5.234   1.094
    2LEU    SC1  626   4.706   5.462   1.163
    3TYR     BB  627   4.288   5.168   0.886
    3TYR    SC1  628   4.268   5.146   0.582
    3TYR    SC2  629   4.128   5.122   0.352
    3TYR    SC3  630   4.397   5.097   0.350
    1TYR     BB  631   6.424   1.307   3.725
    1TYR    SC1  632   6.282   1.173   3.954
    1TYR    SC2  633   6.286   0.927   4.066
    1TYR    SC3  634   6.097   1.106   4.140
    2LEU     BB  635   6.719   1.338   3.803
    2LEU    SC1  636   6.848   1.627   3.781
    3TYR     BB  637   6.738   1.316   4.156
    3TYR    SC1  638   6.508   1.529   4.200
    3TYR    SC2  639   6.442   1.788   4.165
    3TYR    SC3  640   6.254   1.597   4.138
    1TYR     BB  641   2.091   6.003   2.345
    1TYR    SC1  642   2.371   5.925   2.255
    1TYR    SC2  643   2.631   5.941   2.325
    1TYR    SC3  644   2.560   5.810   2.100
    2LEU     BB  645   2.058   5.797   2.590
    2LEU    SC1  646   1.752   5.697   2.590
    3TYR     BB  647   2.224   5.533   2.547
    3TYR    SC1  648   2.532   5.537   2.505
    3TYR    SC2  649   2.731   5.407   2.635
    3TYR    SC3  650   2.783   5.542   2.407
    1TYR     BB  651   5.719   4.648   0.940
    1TYR    SC1  652   5.677   4.588   0.630
    1TYR    SC2  653   5.776   4.501   0.395
    1TYR    SC3  654   5.512   4.550   0.420
    2LEU     BB  655   6.003   4.498   1.050
    2LEU    SC1  656   5.873   4.262   1.232
    3TYR     BB  657   6.302   4.566   1.166
    3TYR    SC1  658   6.452   4.721   0.948
    3TYR    SC2  659   6.530   4.946   0.822
    3TYR    SC3  660   6.664   4.715   0.782
    1TYR     BB  661   2.543   0.953   0.322
    1TYR    SC1  662   2.378   1.017   0.060
    1TYR    SC2  663   2.399   1.115   7.809
    1TYR    SC3  664   2.182   1.173   7.958
    2LEU     BB  665   2.850   0.935   0.196
    2LEU    SC1  666   2.984   0.708   0.392
    3TYR     BB  667   2.885   1.122   7.939
    3TYR    SC1  668   2.802   0.946   7.689
    3TYR    SC2  669   2.721   0.929   7.432
    3TYR    SC3  670   2.634   0.749   7.613
    1TYR     BB  671   5.863   5.843   1.573
    1TYR    SC1  672   5.643   5.962   1.396
    1TYR    SC2  673   5.406   5.966   1.266
    1TYR    SC3  674   5.527   6.198   1.332
    2LEU     BB  675   5.959   6.116   1.718
    2LEU    SC1  676   6.180   6.133   1.938
    3TYR     BB  677   5.930   6.433   1.590
    3TYR    SC1  678   5.979   6.342   1.297
    3TYR    SC2  679   6.070   6.352   1.043
    3TYR    SC3  680   6.005   6.114   1.153
    1TYR     BB  681   7.309   2.349   4.628
    1TYR    SC1  682   7.562   2.190   4.544
    1TYR    SC2  683   7.800   2.148   4.424
    1TYR    SC3  684   7.726   1.996   4.634
    2LEU     BB  685   7.378   2.372   4.956
    2LEU    SC1  686   7.158   2.501   5.156
    3TYR     BB  687   7.464   2.092   5.077
    3TYR    SC1  688   7.227   1.944   5.215
    3TYR    SC2  689   7.075   1.722   5.188
    3TYR    SC3  690   7.002   1.916   5.361
    1TYR     BB  691   6.559   2.011   3.174
    1TYR    SC1  692   6.837   1.902   3.194
    1TYR    SC2  693   7.040   1.752   3.099
    1TYR    SC3  694   7.033   1.821   3.360
    2LEU     BB  695   6.496   2.245   3.384
    2LEU    SC1  696   6.182   2.196   3.477
    3TYR     BB  697   6.743   2.400   3.467
    3TYR    SC1  698   7.014   2.275   3.370
    3TYR    SC2  699   7.186   2.213   3.171
    3TYR    SC3  700   7.273   2.220   3.426
    1TYR     BB  701   1.897   4.989   6.744
    1TYR    SC1  702   2.023   5.066   7.017
    1TYR    SC2  703   2.193   5.224   7.155
    1TYR    SC3  704   1.973   5.125   7.275
    2LEU     BB  705   1.650   5.214   6.742
    2LEU    SC1  706   1.475   5.126   7.009
    3TYR     BB  707   1.805   5.490   6.777
    3TYR    SC1  708   1.819   5.518   7.077
    3TYR    SC2  709   1.934   5.590   7.311
    3TYR    SC3  710   1.687   5.482   7.309
    1TYR     BB  711   3.421   4.732   7.318
    1TYR    SC1  712   3.440   4.602   7.607
    1TYR    SC2  713   3.383   4.579   7.870
    1TYR    SC3  714   3.373   4.362   7.710
    2LEU     BB  715   3.126   4.898   7.371
    2LEU    SC1  716   2.953   4.840   7.098
    3TYR     BB  717   2.994   4.857   7.667
    3TYR    SC1  718   3.099   4.925   7.946
    3TYR    SC2  719   3.275   4.952   0.150
    3TYR    SC3  720   3.034   5.073   0.163
    1TYR     BB  721   5.233   4.057   7.039
    1TYR    SC1  722   4.992   4.213   6.933
    1TYR    SC2  723   4.737   4.144   6.877
    1TYR    SC3  724   4.789   4.374   7.009
    2LEU     BB  725   5.003   3.848   7.245
    2LEU    SC1  726   4.931   3.661   6.985
    3TYR     BB  727   5.013   3.735   7.510
    3TYR    SC1  728   5.060   3.923   7.752
    3TYR    SC2  729   5.075   3.916   0.021
    3TYR    SC3  730   5.224   4.093   7.882
    1TYR     BB  731   4.850   3.004   6.031
    1TYR    SC1  732   4.598   2.858   5.906
    1TYR    SC2  733   4.332   2.843   5.860
    1TYR    SC3  734   4.489   2.627   5.821
    2LEU     BB  735   5.051   2.854   5.754
    2LEU    SC1  736   5.248   3.101   5.752
    3TYR     BB  737   4.986   2.708   5.474
    3TYR    SC1  738   4.691   2.768   5.406
    3TYR    SC2  739   4.484   2.939   5.434
    3TYR    SC3  740   4.507   2.791   5.210
    1TYR     BB  741   6.251   2.695   1.005
    1TYR    SC1  742   6.049   2.918   0.938
    1TYR    SC2  743   5.887   3.014   0.744
    1TYR    SC3  744   5.968   3.175   0.944
    2LEU     BB  745   6.141   2.605   1.306
    2LEU    SC1  746   6.416   2.570   1.471
    3TYR     BB  747   5.883   2.754   1.417
    3TYR    SC1  748   5.875   3.067   1.433
    3TYR    SC2  749   5.727   3.272   1.527
    3TYR    SC3  750   5.944   3.321   1.374
    1TYR     BB  751   0.686   6.402   5.812
    1TYR    SC1  752   0.399   6.504   5.720
    1TYR    SC2  753   0.172   6.644   5.764
    1TYR    SC3  754   0.190   6.480   5.550
    2LEU     BB  755   0.829   6.639   5.947
    2LEU    SC1  756   1.122   6.643   5.809
    3TYR     BB  757   0.726   6.923   5.866
    3TYR    SC1  758   0.522   6.940   5.648
    3TYR    SC2  759   0.299   7.066   5.563
    3TYR    SC3  760   0.401   6.859   5.421
    1TYR     BB  761   5.312   2.201   7.309
    1TYR    SC1  762   5.188   2.442   7.159
    1TYR    SC2  763   5.155   2.660   7.004
    1TYR    SC3  764   4.983   2.611   7.206
    2LEU     BB  765   5.521   2.032   7.163
    2LEU    SC1  766   5.658   1.828   7.392
    3TYR     BB  767   5.677   2.172   6.932
    3TYR    SC1  768   5.491   2.334   6.746
    3TYR    SC2  769   5.240   2.389   6.663
    3TYR    SC3  770   5.444   2.392   6.486
    1TYR     BB  771   3.014   2.508   3.691
    1TYR    SC1  772   2.990   2.422   3.984
    1TYR    SC2  773   2.968   2.255   4.195
    1TYR    SC3  774   2.867   2.505   4.210
    2LEU     BB  775   3.208   2.321   3.528
    2LEU    SC1  776   3.520   2.451   3.521
    3TYR     BB  777   3.389   2.002   3.646
    3TYR    SC1  778   3.382   2.134   3.934
    3TYR    SC2  779   3.411   2.189   4.197
    3TYR    SC3  780   3.462   2.380   4.013
    1TYR     BB  781   2.845   7.314   7.147
    1TYR    SC1  782   2.962   7.087   6.978
    1TYR    SC2  783   2.925   6.907   6.780
    1TYR    SC3  784   3.169   7.013   6.823
    2LEU     BB  785   2.543   7.381   7.013
    2LEU    SC1  786   2.464   7.643   7.196
    3TYR     BB  787   2.516   7.331   6.682
    3TYR    SC1  788   2.821   7.335   6.611
    3TYR    SC2  789   3.040   7.270   6.466
    3TYR    SC3  790   3.061   7.441   6.674
    1TYR     BB  791   5.643   4.814   7.903
    1TYR    SC1  792   5.373   4.702   0.002
    1TYR    SC2  793   5.116   4.772   0.050
    1TYR    SC3  794   5.171   4.550   7.906
    2LEU     BB  795   5.501   4.841   7.549
    2LEU    SC1  796   5.696   5.103   7.482
    3TYR     BB  797   5.211   4.979   7.573
    3TYR    SC1  798   4.964   4.795   7.575
    3TYR    SC2  799   4.772   4.675   7.721
    3TYR    SC3  800   4.745   4.694   7.453
    1TYR     BB  801   3.402   1.756   2.042
    1TYR    SC1  802   3.109   1.799   1.979
    1TYR    SC2  803   2.914   1.665   1.848
    1TYR    SC3  804   2.857   1.797   2.076
    2LEU     BB  805   3.436   1.464   1.856
    2LEU    SC1  806   3.744   1.378   1.861
    3TYR     BB  807   3.290   1.504   1.552
    3TYR    SC1  808   3.070   1.287   1.597
    3TYR    SC2  809   2.989   1.029   1.606
    3TYR    SC3  810   2.962   1.187   1.823
    1TYR     BB  811   4.034   3.017   0.865
    1TYR    SC1  812   3.825   3.257   0.844
    1TYR    SC2  813   3.595   3.301   0.709
    1TYR    SC3  814   3.674   3.473   0.902
    2LEU     BB  815   3.845   2.777   0.762
    2LEU    SC1  816   3.781   2.860   0.447
    3TYR     BB  817   3.529   2.824   0.871
    3TYR    SC1  818   3.520   3.015   1.100
    3TYR    SC2  819   3.428   3.057   1.351
    3TYR    SC3  820   3.642   3.195   1.260
    1TYR     BB  821   5.336   5.177   2.478
    1TYR    SC1  822   5.351   5.206   2.788
    1TYR    SC2  823   5.345   5.057   3.013
    1TYR    SC3  824   5.522   5.259   2.990
    2LEU     BB  825   5.633   4.968   2.464
    2LEU    SC1  826   5.549   4.726   2.253
    3TYR     BB  827   5.682   4.753   2.728
    3TYR    SC1  828   5.762   4.846   3.007
    3TYR    SC2  829   5.940   4.847   3.211
    3TYR    SC3  830   5.675   4.853   3.262
    1TYR     BB  831   5.579   1.398   5.276
    1TYR    SC1  832   5.785   1.457   5.497
    1TYR    SC2  833   5.792   1.601   5.726
    1TYR    SC3  834   6.012   1.469   5.643
    2LEU     BB  835   5.330   1.605   5.477
    2LEU    SC1  836   5.046   1.478   5.457
    3TYR     BB  837   5.354   1.882   5.598
    3TYR    SC1  838   5.461   1.858   5.884
    3TYR    SC2  839   5.449   1.869   6.153
    3TYR    SC3  840   5.683   1.913   6.026
    1TYR     BB  841   7.668   4.508   3.425
    1TYR    SC1  842   7.665   4.668   3.160
    1TYR    SC2  843   7.716   4.641   2.897
    1TYR    SC3  844   7.533   4.820   2.981
    2LEU     BB  845   7.387   4.315   3.362
    2LEU    SC1  846   7.422   4.092   3.600
    3TYR     BB  847   7.196   4.448   3.167
    3TYR    SC1  848   7.285   4.450   2.870
    3TYR    SC2  849   7.403   4.401   2.632
    3TYR    SC3  850   7.258   4.626   2.667
    1TYR     BB  851   7.384   1.715   1.014
    1TYR    SC1  852   7.460   1.962   0.844
    1TYR    SC2  853   7.540   2.219   0.872
    1TYR    SC3  854   7.649   2.063   0.680
    2LEU     BB  855   7.665   1.740   1.231
    2LEU    SC1  856   7.822   1.476   1.115
    3TYR     BB  857   7.881   2.027   1.176
    3TYR    SC1  858   0.029   1.914   0.922
    3TYR    SC2  859   0.198   1.713   0.858
    3TYR    SC3  860   0.097   1.871   0.664
    1TYR     BB  861   2.513   6.811   7.898
    1TYR    SC1  862   2.228   6.733   0.008
    1TYR    SC2  863   2.101   6.580   0.190
    1TYR    SC3  864   1.967   6.776   0.061
    2LEU     BB  865   2.719   6.639   0.121
    2LEU    SC1  866   2.903   6.459   7.920
    3TYR     BB  867   2.554   6.571   0.384
    3TYR    SC1  868   2.397   6.843   0.429
    3TYR    SC2  869   2.169   6.986   0.428
    3TYR    SC3  870   2.392   7.087   0.314
    1TYR     BB  871   4.061   2.042   7.122
    1TYR    SC1  872   3.868   2.225   6.976
    1TYR    SC2  873   3.616   2.240   6.881
    1TYR    SC3  874   3.712   2.435   7.041
    2LEU     BB  875   3.785   1.908   7.345
    2LEU    SC1  876   3.843   2.119   7.593
    3TYR     BB  877   3.468   2.031   7.290
    3TYR    SC1  878   3.258   1.826   7.210
    3TYR    SC2  879   3.053   1.694   7.326
    3TYR    SC3  880   3.063   1.718   7.057
    1TYR     BB  881   3.561   0.956   5.584
    1TYR    SC1  882   3.704   0.816   5.825
    1TYR    SC2  883   3.719   0.662   6.046
    1TYR    SC3  884   3.923   0.664   5.869
    2LEU     BB  885   3.257   0.988   5.673
    2LEU    SC1  886   3.138   1.181   5.431
    3TYR     BB  887   3.227   0.957   6.010
    3TYR    SC1  888   3.471   1.026   6.188
    3TYR    SC2  889   3.729   1.068   6.256
    3TYR    SC3  890   3.543   1.033   6.449
    1TYR     BB  891   6.592   5.660   3.617
    1TYR    SC1  892   6.746   5.906   3.720
    1TYR    SC2  893   6.821   6.082   3.910
    1TYR    SC3  894   6.812   6.159   3.651
    2LEU     BB  895   6.518   5.475   3.895
    2LEU    SC1  896   6.589   5.187   3.759
    3TYR     BB  897   6.638   5.621   4.151
    3TYR    SC1  898   6.803   5.643   4.406
    3TYR    SC2  899   6.793   5.739   4.658
    3TYR    SC3  900   7.012   5.608   4.573
    1TYR     BB  901   4.392   4.844   2.691
    1TYR    SC1  902   4.629   4.884   2.506
    1TYR    SC2  903   4.674   4.884   2.240
    1TYR    SC3  904   4.836   5.024   2.404
    2LEU     BB  905   4.344   4.500   2.597
    2LEU    SC1  906   4.164   4.449   2.861
    3TYR     BB  907   4.625   4.307   2.503
    3TYR    SC1  908   4.834   4.454   2.334
    3TYR    SC2  909   5.088   4.476   2.246
    3TYR    SC3  910   4.883   4.525   2.078
    1TYR     BB  911   6.623   2.983   0.391
    1TYR    SC1  912   6.809   3.226   0.431
    1TYR    SC2  913   6.774   3.447   0.581
    1TYR    SC3  914   6.965   3.442   0.391
    2LEU     BB  915   6.429   3.038   0.655
    2LEU    SC1  916   6.275   3.308   0.553
    3TYR     BB  917   6.590   3.074   0.905
    3TYR    SC1  918   6.894   3.126   0.901
    3TYR    SC2  919   7.117   3.244   0.805
    3TYR    SC3  920   7.129   3.097   1.031
    1TYR     BB  921   3.992   5.286   7.645
    1TYR    SC1  922   3.891   5.250   7.349
    1TYR    SC2  923   3.758   5.097   7.171
    1TYR    SC3  924   3.892   5.317   7.088
    2LEU     BB  925   4.039   5.038   7.865
    2LEU    SC1  926   4.352   4.958   7.864
    3TYR     BB  927   3.771   4.889   7.972
    3TYR    SC1  928   3.553   5.025   7.794
    3TYR    SC2  929   3.495   5.159   7.567
    3TYR    SC3  930   3.383   5.235   7.801
    1TYR     BB  931   4.272   6.252   4.311
    1TYR    SC1  932   4.451   6.365   4.102
    1TYR    SC2  933   4.445   6.501   3.868
    1TYR    SC3  934   4.561   6.611   4.086
    2LEU     BB  935   4.082   6.594   4.312
    2LEU    SC1  936   4.016   6.541   4.621
    3TYR     BB  937   4.064   6.788   4.029
    3TYR    SC1  938   4.287   6.990   3.962
    3TYR    SC2  939   4.381   7.165   3.779
    3TYR    SC3  940   4.552   7.038   3.944
    1TYR     BB  941   0.009   3.272   2.600
    1TYR    SC1  942   0.150   3.504   2.452
    1TYR    SC2  943   0.325   3.578   2.260
    1TYR    SC3  944   0.228   3.762   2.432
    2LEU     BB  945   7.762   3.194   2.403
    2LEU    SC1  946   7.570   3.451   2.467
    3TYR     BB  947   7.929   3.175   2.099
    3TYR    SC1  948   7.936   3.480   2.044
    3TYR    SC2  949   7.999   3.706   1.911
    3TYR    SC3  950   7.870   3.720   2.148
    1TYR     BB  951   6.049   2.017   3.937
    1TYR    SC1  952   6.193   2.248   4.078
    1TYR    SC2  953   6.176   2.502   4.168
    1TYR    SC3  954   6.314   2.318   4.309
    2LEU     BB  955   5.749   2.015   4.065
    2LEU    SC1  956   5.630   1.727   3.989
    3TYR     BB  957   5.665   2.231   4.256
    3TYR    SC1  958   5.833   2.408   4.451
    3TYR    SC2  959   5.787   2.580   4.654
    3TYR    SC3  960   6.023   2.450   4.638
    1TYR     BB  961   0.123   2.887   5.071
    1TYR    SC1  962   0.179   2.601   5.166
    1TYR    SC2  963   0.137   2.421   5.362
    1TYR    SC3  964   0.351   2.397   5.201
    2LEU     BB  965   0.067   2.851   4.748
    2LEU    SC1  966   0.118   3.163   4.672
    3TYR     BB  967   7.782   2.646   4.708
    3TYR    SC1  968   7.889   2.396   4.833
    3TYR    SC2  969   7.942   2.201   5.012
    3TYR    SC3  970   0.103   2.235   4.798
    1TYR     BB  971   6.539   0.360   1.605
    1TYR    SC1  972   6.669   0.644   1.619
    1TYR    SC2  973   6.873   0.807   1.688
    1TYR    SC3  974   6.645   0.911   1.587
    2LEU     BB  975   6.803   0.181   1.560
    2LEU    SC1  976   6.939   0.247   1.862
    3TYR     BB  977   7.065   0.375   1.396
    3TYR    SC1  978   7.030   0.666   1.276
    3TYR    SC2  979   6.899   0.897   1.229
    3TYR    SC3  980   7.096   0.817   1.062
    1TYR     BB  981   3.126   4.186   6.525
    1TYR    SC1  982   3.064   4.352   6.274
    1TYR    SC2  983   3.019   4.366   6.008
    1TYR    SC3  984   2.833   4.456   6.182
    2LEU     BB  985   2.947   3.899   6.426
    2LEU    SC1  986   2.781   3.777   6.675
    3TYR     BB  987   2.866   3.888   6.130
    3TYR    SC1  988   2.660   4.077   5.994
    3TYR    SC2  989   2.644   4.200   5.754
    3TYR    SC3  990   2.489   4.283   5.959
    1TYR     BB  991   2.594   3.859   2.274
    1TYR    SC1  992   2.519   3.733   2.548
    1TYR    SC2  993   2.522   3.528   2.725
    1TYR    SC3  994   2.540   3.783   2.813
    2LEU     BB  995   2.704   4.142   2.371
    2LEU    SC1  996   2.747   4.314   2.092
    3TYR     BB  997   2.956   4.125   2.571
    3TYR    SC1  998   2.939   4.026   2.851
    3TYR    SC2  999   2.976   4.094   3.110
    3TYR    SC3 1000   2.960   3.834   3.040
    4W        W 1001   0.210   1.828   2.387
    5W        W 1002   4.353   5.784   2.016
    6W        W 1003   5.068   7.697   1.952
    7W        W 1004   3.966   4.205   0.386
    8W        W 1005   5.864   0.058   3.778
    9W        W 1006   2.574   3.520   3.269
   10W        W 1007   2.758   5.763   3.210
   11W        W 1008   3.630   7.404   4.922
   12W        W 1009   3.705   6.501   2.722
   13W        W 1010   3.258   3.530   6.357
   14W        W 1011   3.592   2.790   5.313
   15W        W 1012   6.563   2.833   3.327
   16W        W 1013   3.057   6.898   4.666
   17W        W 1014   5.971   6.365   3.215
   18W        W 1015   7.032   3.247   1.856
   19W        W 1016   4.560   6.616   6.486
   20W        W 1017   3.674   2.206   1.189
   21W        W 1018   4.009   3.858   0.877
   22W        W 1019   3.192   5.819   3.790
   23W        W 1020   2.335   6.006   3.335
   24W        W 1021   5.459   4.046   0.353
   25W        W 1022   4.010   5.419   1.269
   26W        W 1023   0.297   2.997   4.259
   27W        W 1024   5.282   2.293   5.325
   28W        W 1025   3.290   0.811   5.137
   29W        W 1026   3.063   2.541   5.441
   30W        W 1027   0.897   6.614   3.671
   31W        W 1028   2.890   1.128   4.935
   32W        W 1029   1.125   7.087   5.589
   33W        W 1030   0.137   1.612   3.382
   34W        W 1031   0.622   4.623   4.837
   35W        W 1032   6.821   4.673   1.996
   36W        W 1033   7.646   6.575   5.715
   37W        W 1034   3.244   2.020   1.394
   38W        W 1035   4.373   0.643   4.654
   39W        W 1036   3.430   3.912   2.529
   40W        W 1037   2.775   7.124   2.580
   41W        W 1038   1.629   7.089   5.352
   42W        W 1039   5.535   0.747   3.804
   43W        W 1040   2.385   1.023   4.051
   44W        W 1041   3.391   4.349   6.928
   45W        W 1042   7.934   2.807   3.921
   46W        W 1043   4.579   2.179   6.140
   47W        W 1044   5.643   4.526   4.904
   48W        W 1045   5.623   1.694   3.117
   49W        W 1046   4.985   5.873   6.248
   50W        W 1047   0.842   2.123   6.001
   51W        W 1048   4.436   1.595   7.999
   52W        W 1049   1.076   5.357   1.898
   53W        W 1050   1.091   3.461   3.912
   54W        W 1051   3.250   0.594   1.643
   55W        W 1052   1.808   1.262   3.317
   56W        W 1053   1.613   2.706   4.020
   57W        W 1054   4.112   7.177   2.946
   58W        W 1055   1.760   6.166   3.869
   59W        W 1056   5.398   5.907   0.771
   60W        W 1057   3.796   5.278   2.736
   61W        W 1058   2.365   4.554   2.381
   62W        W 1059   6.107   1.560   5.137
   63W        W 1060   0.514   1.751   0.013
   64W        W 1061   1.211   6.398   0.427
   65W        W 1062   2.408   6.894   1.338
   66W        W 1063   6.777   3.341   3.762
   67W        W 1064   3.371   3.602   4.297
   68W        W 1065   3.314   4.192   0.620
   69W        W 1066   5.237   0.625   2.120
   70W        W 1067   3.463   3.721   5.048
   71W        W 1068   6.709   6.349   2.682
   72W        W 1069   7.030   0.187   0.361
   73W        W 1070   3.195   1.268   7.575
   74W        W 1071   6.194   1.048   0.693
   75W        W 1072   5.543   4.988   7.019
   76W        W 1073   2.223   2.297   1.833
   77W        W 1074   6.310   5.062   7.443
   78W        W 1075   5.824   5.287   6.225
   79W        W 1076   1.595   1.771   1.345
   80W        W 1077   0.611   1.242   7.980
   81W        W 1078   6.000   2.146   2.268
   82W        W 1079   5.715   5.921   4.047
   83W        W 1080   1.937   2.249   6.893
   84W        W 1081   5.065   2.537   1.724
   85W        W 1082   6.150   7.737   1.104
   86W        W 1083   7.729   7.156   4.975
   87W        W 1084   1.060   0.482   0.972
   88W        W 1085   0.918   1.842   4.508
   89W        W 1086   2.066   1.004   6.839
   90W        W 1087   3.970   4.013   4.132
   91W        W 1088   2.444   5.285   5.914
   92W        W 1089   0.291   6.458   0.642
   93W        W 1090   5.685   7.042   2.813
   94W        W 1091   6.263   5.573   5.737
   95W        W 1092   5.306   3.915   4.728
   96W        W 1093   7.721   3.727   5.891
   97W        W 1094   2.285   3.520   1.057
   98W        W 1095   5.306   5.131   4.093
   99W        W 1096   2.214   1.122   0.944
  100W        W 1097   2.222   2.486   2.321
  101W        W 1098   6.055   0.326   2.373
  102W        W 1099   0.767   4.282   4.452
  103W        W 1100   2.334   4.590   6.368
  104W        W 1101   6.188   5.069   1.216
  105W        W 1102   2.239   4.860   5.025
  106W        W 1103   0.412   5.493   1.805
  107W        W 1104   7.135   3.815   1.665
  108W        W 1105   3.620   4.696   4.794
  109W        W 1106   3.640   5.520   5.491
  110W        W 1107   0.214   3.492   3.382
  111W        W 1108   6.168   6.810   1.239
  112W        W 1109   2.642   4.750   0.087
  113W        W 1110   3.682   1.009   4.589
  114W        W 1111   3.787   5.156   4.761
  115W        W 1112   7.979   6.487   1.079
  116W        W 1113   3.890   1.406   7.580
  117W        W 1114   0.505   3.371   5.908
  118W        W 1115   0.553   3.070   0.888
  119W        W 1116   5.073   6.804   5.363
  120W        W 1117   1.523   0.467   3.084
  121W        W 1118   3.720   2.919   3.778
  122W        W 1119   5.727   0.169   6.727
  123W        W 1120   1.146   0.800   0.547
  124W        W 1121   2.430   6.891   6.898
  125W        W 1122   2.882   6.960   0.517
  126W        W 1123   3.685   4.464   2.822
  127W        W 1124   3.091   4.291   1.678
  128W        W 1125   0.960   5.955   5.158
  129W        W 1126   6.774   3.091   4.894
  130W        W 1127   3.970   4.840   5.141
  131W        W 1128   5.985   7.170   7.458
  132W        W 1129   3.347   0.978   2.093
  133W        W 1130   6.350   3.639   3.712
  134W        W 1131   4.776   2.542   7.673
  135W        W 1132   7.228   5.838   3.617
  136W        W 1133   4.393   7.057   6.297
  137W        W 1134   3.899   3.116   5.563
  138W        W 1135   7.195   5.583   2.286
  139W        W 1136   5.950   7.952   6.312
  140W        W 1137   2.561   2.537   1.519
  141W        W 1138   6.455   6.487   6.723
  142W        W 1139   1.015   5.332   3.479
  143W        W 1140   4.456   5.345   2.626
  144W        W 1141   3.835   6.604   5.061
  145W        W 1142   4.216   3.769   0.431
  146W        W 1143   4.367   1.724   0.853
  147W        W 1144   1.358   2.117   5.988
  148W        W 1145   5.952   6.876   3.213
  149W        W 1146   0.777   5.184   2.651
  150W        W 1147   2.667   4.021   1.703
  151W        W 1148   3.357   4.423   2.439
  152W        W 1149   4.223   5.108   2.252
  153W        W 1150   3.077   1.281   4.457
  154W        W 1151   7.097   5.606   1.125
  155W        W 1152   4.842   2.909   1.470
  156W        W 1153   4.124   3.285   1.281
  157W        W 1154   2.269   6.777   3.725
  158W        W 1155   5.076   7.010   7.000
  159W        W 1156   3.872   5.435   0.762
  160W        W 1157   6.263   6.178   2.841
  161W        W 1158   0.380   4.767   6.030
  162W        W 1159   0.339   0.924   0.771
  163W        W 1160   0.301   4.984   1.840
  164W        W 1161   4.893   4.827   6.135
  165W        W 1162   3.642   7.049   3.854
  166W        W 1163   4.590   3.521   2.021
  167W        W 1164   5.756   5.640   1.048
  168W        W 1165   0.998   1.293   7.069
  169W        W 1166   7.081   1.975   5.901
  170W        W 1167   2.747   4.414   1.259
  171W        W 1168   0.376   5.594   6.466
  172W        W 1169   1.212   1.221   6.609
  173W        W 1170   7.136   5.153   4.716
  174W        W 1171   0.335   6.059   0.973
  175W        W 1172   4.001   6.966   2.047
  176W        W 1173   2.827   6.224   1.569
  177W        W 1174   7.558   6.539   7.018
  178W        W 1175   3.834   1.805   4.467
  179W        W 1176   4.011   3.307   0.397
  180W        W 1177   0.392   0.793   0.146
  181W        W 1178   1.569   6.195   5.355
  182W        W 1179   2.588   6.669   1.810
  183W        W 1180   6.683   5.258   1.193
  184W        W 1181   6.256   2.827   2.650
  185W        W 1182   5.785   1.408   7.877
  186W        W 1183   7.257   4.818   6.796
  187W        W 1184   3.979   7.448   3.798
  188W        W 1185   7.327   5.331   4.268
  189W        W 1186   5.163   2.183   7.816
  190W        W 1187   4.386   3.732   6.320
  191W        W 1188   3.142   4.866   4.736
  192W        W 1189   5.804   3.427   4.458
  193W        W 1190   2.095   3.667   2.242
  194W        W 1191   1.502   1.242   5.125
  195W        W 1192   1.619   6.387   1.406
  196W        W 1193   0.899   2.148   3.514
  197W        W 1194   3.849   4.529   4.028
  198W        W 1195   3.041   1.559   0.912
  199W        W 1196   1.062   3.743   2.407
  200W        W 1197   6.348   4.282   0.716
  201W        W 1198   7.213   4.286   1.876
  202W        W 1199   4.314   0.605   1.793
  203W        W 1200   2.790   3.548   0.978
  204W        W 1201   1.429   2.868   2.488
  205W        W 1202   2.492   0.547   4.204
  206W        W 1203   2.762   6.095   0.269
  207W        W 1204   0.441   2.162   1.862
  208W        W 1205   5.747   6.141   2.822
  209W        W 1206   1.377   0.482   5.524
  210W        W 1207   5.536   7.056   5.405
  211W        W 1208   6.075   7.352   4.616
  212W        W 1209   3.479   4.113   4.135
  213W        W 1210   5.503   6.640   4.720
  214W        W 1211   3.281   2.559   7.286
  215W        W 1212   3.758   2.654   1.988
  216W        W 1213   1.070   3.625   2.905
  217W        W 1214   2.578   5.038   7.387
  218W        W 1215   4.649   6.274   6.108
  219W        W 1216   0.347   0.931   2.619
  220W        W 1217   5.466   6.351   3.874
  221W        W 1218   6.520   1.431   5.979
  222W        W 1219   6.061   0.748   4.509
  223W        W 1220   7.277   5.826   4.970
  224W        W 1221   5.852   7.599   6.664
  225W        W 1222   0.742   6.563   1.618
  226W        W 1223   2.428   6.146   4.942
  227W        W 1224   2.518   2.726   3.860
  228W        W 1225   1.252   7.145   0.946
  229W        W 1226   0.027   7.226   4.553
  230W        W 1227   1.042   3.585   6.801
  231W        W 1228   3.596   0.596   1.253
  232W        W 1229   7.419   5.297   3.081
  233W        W 1230   7.553   2.552   0.510
  234W        W 1231   3.732   1.849   5.891
  235W        W 1232   6.318   7.565   7.623
  236W        W 1233   1.737   4.806   3.095
  237W        W 1234   3.808   1.240   3.985
  238W        W 1235   1.512   4.442   1.894
  239W        W 1236   0.886   1.330   4.487
  240W        W 1237   6.507   7.027   0.206
  241W        W 1238   5.975   2.969   0.255
  242W        W 1239   2.749   5.975   4.560
  243W        W 1240   1.809   5.146   1.707
  244W        W 1241   3.673   4.191   3.669
  245W        W 1242   3.096   2.236   2.223
  246W        W 1243   2.954   6.169   5.022
  247W        W 1244   7.959   5.712   4.692
  248W        W 1245   6.931   1.789   0.780
  249W        W 1246   7.342   6.831   0.478
  250W        W 1247   3.300   1.885   6.126
  251W        W 1248   5.761   3.095   6.256
  252W        W 1249   1.382   4.253   5.251
  253W        W 1250   1.918   4.770   1.034
  254W        W 1251   4.990   5.986   2.490
  255W        W 1252   2.285   1.485   4.193
  256W        W 1253   1.010   2.412   7.832
  257W        W 1254   2.670   0.497   3.242
  258W        W 1255   6.374   3.260   4.581
  259W        W 1256   5.289   0.895   6.066
  260W        W 1257   2.290   6.590   5.652
  261W        W 1258   1.194   2.953   3.874
  262W        W 1259   2.001   2.933   4.261
  263W        W 1260   1.310   3.928   3.769
  264W        W 1261   1.395   5.173   0.761
  265W        W 1262   6.048   1.314   6.144
  266W        W 1263   6.438   4.372   3.259
  267W        W 1264   2.110   4.257   3.735
  268W        W 1265   1.252   2.719   0.197
  269W        W 1266   7.068   7.440   2.948
  270W        W 1267   0.811   0.415   2.056
  271W        W 1268   3.751   4.575   1.241
  272W        W 1269   2.982   4.263   4.070
  273W        W 1270   5.035   6.217   1.569
  274W        W 1271   1.544   1.701   5.322
  275W        W 1272   3.759   0.725   3.895
  276W        W 1273   2.817   7.100   1.703
  277W        W 1274   1.700   4.331   0.890
  278W        W 1275   0.974   4.695   2.718
  279W        W 1276   2.229   1.618   3.361
  280W        W 1277   5.409   7.053   1.547
  281W        W 1278   5.908   4.888   4.653
  282W        W 1279   3.551   6.415   6.316
  283W        W 1280   7.424   5.818   3.141
  284W        W 1281   5.220   1.139   3.685
  285W        W 1282   5.856   4.632   6.861
  286W        W 1283   1.652   5.415   7.844
  287W        W 1284   0.676   4.125   1.634
  288W        W 1285   6.932   5.272   3.398
  289W        W 1286   3.994   5.479   3.811
  290W        W 1287   7.807   5.247   5.284
  291W        W 1288   7.494   5.782   4.505
  292W        W 1289   4.413   6.016   3.138
  293W        W 1290   5.120   4.333   7.449
  294W        W 1291   1.292   3.420   1.295
  295W        W 1292   1.820   3.983   5.237
  296W        W 1293   1.339   5.770   3.542
  297W        W 1294   5.406   3.585   7.842
  298W        W 1295   6.424   5.659   5.015
  299W        W 1296   4.300   4.064   1.682
  300W        W 1297   5.909   6.445   0.019
  301W        W 1298   2.776   4.519   3.275
  302W        W 1299   4.271   0.696   3.832
  303W        W 1300   3.817   3.697   1.334
  304W        W 1301   1.366   5.537   0.405
  305W        W 1302   0.480   2.447   3.357
  306W        W 1303   5.854   5.859   5.498
  307W        W 1304   7.846   6.666   7.917
  308W        W 1305   2.021   1.595   0.811
  309W        W 1306   1.777   2.246   7.388
  310W        W 1307   0.105   5.111   2.296
  311W        W 1308   2.542   4.159   6.486
  312W        W 1309   0.731   5.124   1.585
  313W        W 1310   0.129   5.382   1.378
  314W        W 1311   2.362   4.532   5.474
  315W        W 1312   4.513   6.600   4.625
  316W        W 1313   7.698   4.342   2.097
  317W        W 1314   4.897   1.069   6.854
  318W        W 1315   0.161   4.476   3.114
  319W        W 1316   2.119   2.217   6.406
  320W        W 1317   3.221   3.800   1.650
  321W        W 1318   4.655   6.936   1.478
  322W        W 1319   6.727   4.294   1.088
  323W        W 1320   2.697   2.537   5.815
  324W        W 1321   6.109   0.918   7.082
  325W        W 1322   0.881   3.762   7.250
  326W        W 1323   7.909   6.844   5.334
  327W        W 1324   6.228   6.812   7.785
  328W        W 1325   6.774   6.925   4.614
  329W        W 1326   5.024   5.723   1.456
  330W        W 1327   6.654   0.426   0.604
  331W        W 1328   1.681   1.424   2.559
  332W        W 1329   2.036   5.333   2.134
  333W        W 1330   3.201   0.813   4.615
  334W        W 1331   2.257   6.817   3.153
  335W        W 1332   6.680   1.410   7.860
  336W        W 1333   5.675   4.921   3.782
  337W        W 1334   0.464   2.538   7.047
  338W        W 1335   3.046   1.368   0.358
  339W        W 1336   6.967   5.275   5.520
  340W        W 1337   2.698   5.725   7.683
  341W        W 1338   6.833   6.878   0.613
  342W        W 1339   4.950   1.582   6.861
  343W        W 1340   6.675   3.857   0.846
  344W        W 1341   6.925   6.256   1.011
  345W        W 1342   1.144   5.084   2.340
  346W        W 1343   4.810   2.195   3.084
  347W        W 1344   3.523   5.646   2.493
  348W        W 1345   6.402   3.946   6.248
  349W        W 1346   2.050   6.142   6.097
  350W        W 1347   1.046   2.303   5.574
  351W        W 1348   1.331   4.105   2.201
  352W        W 1349   2.359   1.752   4.598
  353W        W 1350   6.262   1.366   6.887
  354W        W 1351   1.424   6.460   2.211
  355W        W 1352   0.994   1.689   0.868
  356W        W 1353   2.808   1.483   6.650
  357W        W 1354   3.356   2.079   3.134
  358W        W 1355   7.398   4.441   5.386
  359W        W 1356   6.047   1.093   5.298
  360W        W 1357   7.326   3.381   1.471
  361W        W 1358   6.728   7.507   7.311
  362W        W 1359   5.877   6.677   7.381
  363W        W 1360   1.857   1.062   2.272
  364W        W 1361   0.111   2.882   0.687
  365W        W 1362   5.731   3.020   1.944
  366W        W 1363   6.113   3.529   3.269
  367W        W 1364   7.652   3.503   4.433
  368W        W 1365   4.796   5.157   7.879
  369W        W 1366   4.658   2.847   4.196
  370W        W 1367   0.616   4.634   1.648
  371W        W 1368   4.538   6.962   6.868
  372W        W 1369   6.238   1.565   1.944
  373W        W 1370   6.208   5.591   1.279
  374W        W 1371   5.307   2.084   3.210
  375W        W 1372   6.265   3.150   3.603
  376W        W 1373   4.657   4.854   6.962
  377W        W 1374   5.441   3.797   0.801
  378W        W 1375   4.571   3.017   0.818
  379W        W 1376   1.025   5.583   6.124
  380W        W 1377   4.578   1.364   2.364
  381W        W 1378   0.482   2.166   4.358
  382W        W 1379   7.226   3.013   5.129
  383W        W 1380   5.051   1.390   0.623
  384W        W 1381   4.196   3.906   2.173
  385W        W 1382   2.713   0.701   5.181
  386W        W 1383   6.426   2.355   2.430
  387W        W 1384   2.408   5.323   5.014
  388W        W 1385   2.226   4.447   7.958
  389W        W 1386   2.016   3.120   0.906
  390W        W 1387   3.088   3.526   4.750
  391W        W 1388   5.982   6.212   7.567
  392W        W 1389   7.476   5.921   1.505
  393W        W 1390   5.320   3.754   2.700
  394W        W 1391   7.754   3.572   6.374
  395W        W 1392   4.829   7.881   1.528
  396W        W 1393   1.091   1.869   3.105
  397W        W 1394   6.365   4.926   4.920
  398W        W 1395   0.188   6.059   0.318
  399W        W 1396   2.142   5.203   1.196
  400W        W 1397   2.275   4.139   2.033
  401W        W 1398   0.768   0.605   2.560
  402W        W 1399   7.490   1.000   0.796
  403W        W 1400   5.765   7.128   6.427
  404W        W 1401   0.886   2.907   2.427
  405W        W 1402   7.079   6.402   0.559
  406W        W 1403   3.877   5.315   4.276
  407W        W 1404   6.585   1.601   1.591
  408W        W 1405   6.345   4.104   2.315
  409W        W 1406   7.833   3.419   1.532
  410W        W 1407   0.452   1.056   1.265
  411W        W 1408   0.942   0.683   5.073
  412W        W 1409   5.180   4.954   2.046
  413W        W 1410   5.450   7.369   1.927
  414W        W 1411   1.862   3.103   3.305
  415W        W 1412   2.993   4.417   7.382
  416W        W 1413   6.252   5.815   6.226
  417W        W 1414   1.335   4.073   4.394
  418W        W 1415   2.984   7.006   6.037
  419W        W 1416   3.600   2.328   5.552
  420W        W 1417   0.916   5.977   7.779
  421W        W 1418   1.144   1.795   5.662
  422W        W 1419   3.024   6.652   3.297
  423W        W 1420   2.218   3.987   0.177
  424W        W 1421   6.413   3.514   6.614
  425W        W 1422   3.990   1.947   4.925
  426W        W 1423   6.029   2.120   7.300
  427W        W 1424   0.492   5.748   3.988
  428W        W 1425   2.611   1.376   0.699
  429W        W 1426   3.633   1.859   0.646
  430W        W 1427   0.167   6.049   6.907
  431W        W 1428   1.202   2.109   4.187
  432W        W 1429   7.734   2.482   2.055
  433W        W 1430   2.657   2.017   7.171
  434W        W 1431   2.661   1.478   3.155
  435W        W 1432   0.935   3.900   4.138
  436W        W 1433   6.189   1.238   3.280
  437W        W 1434   4.637   3.281   7.074
  438W        W 1435   4.958   3.155   1.927
  439W        W 1436   3.499   6.508   3.200
  440W        W 1437   7.086   7.392   6.951
  441W        W 1438   0.463   3.699   1.778
  442W        W 1439   7.230   1.563   7.035
  443W        W 1440   0.769   2.181   1.451
  444W        W 1441   6.737   4.743   6.627
  445W        W 1442   4.253   6.780   3.522
  446W        W 1443   1.709   4.773   5.865
  447W        W 1444   5.765   0.705   6.765
  448W        W 1445   5.355   2.830   5.147
  449W        W 1446   2.202   4.926   7.768
  450W        W 1447   6.323   6.117   4.820
  451W        W 1448   7.595   4.293   1.049
  452W        W 1449   6.272   4.349   4.120
  453W        W 1450   4.322   6.648   2.278
  454W        W 1451   5.045   4.024   5.518
  455W        W 1452   1.415   1.195   7.384
  456W        W 1453   1.461   0.954   1.505
  457W        W 1454   3.176   0.596   3.905
  458W        W 1455   1.083   5.295   4.689
  459W        W 1456   2.621   0.757   1.386
  460W        W 1457   7.101   2.272   0.630
  461W        W 1458   1.876   0.922   7.296
  462W        W 1459   5.018   7.211   1.208
  463W        W 1460   2.897   4.141   6.967
  464W        W 1461   5.955   3.368   5.361
  465W        W 1462   5.254   3.578   3.820
  466W        W 1463   2.036   1.947   1.171
  467W        W 1464   5.836   7.177   6.948
  468W        W 1465   0.428   3.077   2.277
  469W        W 1466   5.230   1.362   3.171
  470W        W 1467   7.504   3.274   3.116
  471W        W 1468   0.916   1.216   7.567
  472W        W 1469   1.462   2.602   7.673
  473W        W 1470   5.671   2.044   0.626
  474W        W 1471   6.777   6.016   5.064
  475W        W 1472   6.878   5.981   2.333
  476W        W 1473   0.322   6.525   0.119
  477W        W 1474   3.132   3.807   3.917
  478W        W 1475   2.806   4.609   4.376
  479W        W 1476   0.279   7.021   6.084
  480W        W 1477   1.732   6.866   2.272
  481W        W 1478   1.657   2.909   5.438
  482W        W 1479   4.889   2.173   0.249
  483W        W 1480   2.573   3.358   2.242
  484W        W 1481   6.120   7.295   0.510
  485W        W 1482   7.062   2.859   5.609
  486W        W 1483   2.839   3.017   3.614
  487W        W 1484   6.705   2.705   5.238
  488W        W 1485   1.306   3.431   0.784
  489W        W 1486   1.380   1.457   2.151
  490W        W 1487   7.221   1.826   4.686
  491W        W 1488   0.673   4.120   4.947
  492W        W 1489   0.038   3.119   3.074
  493W        W 1490   4.331   6.666   5.976
  494W        W 1491   3.874   4.131   5.603
  495W        W 1492   4.295   3.160   6.713
  496W        W 1493   6.686   2.583   0.761
  497W        W 1494   1.221   5.602   2.306
  498W        W 1495   4.707   3.757   1.567
  499W        W 1496   2.977   7.184   5.131
  500W        W 1497   4.158   4.550   4.773
  501W        W 1498   6.434   7.371   1.910
  502W        W 1499   4.618   3.797   2.449
  503W        W 1500   6.823   7.297   5.748
  504W        W 1501   5.422   2.533   1.355
  505W        W 1502   1.856   5.579   1.445
  506W        W 1503   6.887   6.651   0.159
  507W        W 1504   6.528   3.853   3.266
  508W        W 1505   1.767   2.428   3.243
  509W        W 1506   2.986   5.353   7.493
  510W        W 1507   5.941   3.193   4.881
  511W        W 1508   6.649   2.544   3.988
  512W        W 1509   2.620   7.049   4.004
  513W        W 1510   4.509   1.115   4.469
  514W        W 1511   3.611   3.376   4.667
  515W        W 1512   5.040   6.946   3.151
  516W        W 1513   0.430   5.868   7.894
  517W        W 1514   3.371   3.515   2.148
  518W        W 1515   1.956   2.049   4.620
  519W        W 1516   1.400   4.741   1.015
  520W        W 1517   3.122   6.781   0.948
  521W        W 1518   7.222   7.911   3.120
  522W        W 1519   0.091   3.911   6.581
  523W        W 1520   0.854   1.958   7.674
  524W        W 1521   5.228   4.393   4.021
  525W        W 1522   4.235   4.048   7.991
  526W        W 1523   5.116   3.163   6.898
  527W        W 1524   1.421   2.969   4.979
  528W        W 1525   6.617   7.325   6.241
  529W        W 1526   4.548   3.884   0.808
  530W        W 1527   5.522   6.438   7.668
  531W        W 1528   7.003   7.062   7.349
  532W        W 1529   6.807   7.745   6.006
  533W        W 1530   5.939   5.828   4.998
  534W        W 1531   6.073   7.814   0.487
  535W        W 1532   6.038   5.926   0.696
  536W        W 1533   4.452   3.149   1.682
  537W        W 1534   3.092   1.604   5.118
  538W        W 1535   4.602   2.442   1.521
  539W        W 1536   6.946   7.649   6.498
  540W        W 1537   5.862   0.810   1.591
  541W        W 1538   1.334   5.613   1.003
  542W        W 1539   6.525   4.837   4.068
  543W        W 1540   4.053   1.039   1.624
  544W        W 1541   5.491   3.940   7.454
  545W        W 1542   1.351   4.630   6.188
  546W        W 1543   4.150   1.583   5.765
  547W        W 1544   4.020   4.156   1.274
  548W        W 1545   6.655   5.642   1.512
  549W        W 1546   4.723   7.511   0.879
  550W        W 1547   1.839   6.360   6.883
  551W        W 1548   7.175   4.391   5.898
  552W        W 1549   7.599   5.231   2.239
  553W        W 1550   0.343   3.503   2.893
  554W        W 1551   7.965   3.681   1.104
  555W        W 1552   2.092   5.912   6.949
  556W        W 1553   0.371   3.530   0.840
  557W        W 1554   5.449   3.470   1.187
  558W        W 1555   7.998   4.174   6.096
  559W        W 1556   3.857   7.034   6.218
  560W        W 1557   7.273   6.063   7.292
  561W        W 1558   6.020   5.208   7.039
  562W        W 1559   7.017   2.376   7.283
  563W        W 1560   4.673   5.477   5.370
  564W        W 1561   0.111   2.114   3.238
  565W        W 1562   3.484   3.934   1.026
  566W        W 1563   3.002   5.439   3.522
  567W        W 1564   0.102   4.554   1.678
  568W        W 1565   0.467   4.306   5.882
  569W        W 1566   1.746   1.184   6.015
  570W        W 1567   2.762   2.155   2.609
  571W        W 1568   7.534   5.619   1.912
  572W        W 1569   5.691   0.592   0.714
  573W        W 1570   5.053   3.382   1.473
  574W        W 1571   2.553   6.933   4.555
  575W        W 1572   2.207   0.880   4.513
  576W        W 1573   4.303   2.568   0.845
  577W        W 1574   5.066   4.956   6.631
  578W        W 1575   4.381   5.723   5.019
  579W        W 1576   2.801   1.190   5.881
  580W        W 1577   7.551   4.773   5.721
  581W        W 1578   0.049   5.337   6.769
  582W        W 1579   0.396   5.849   4.482
  583W        W 1580   2.505   1.356   6.247
  584W        W 1581   2.449   6.663   4.997
  585W        W 1582   2.299   3.192   2.994
  586W        W 1583   4.582   1.486   5.534
  587W        W 1584   4.837   5.093   2.914
  588W        W 1585   7.164   2.891   1.506
  589W        W 1586   2.901   5.941   5.486
  590W        W 1587   1.345   1.356   1.200
  591W        W 1588   2.083   4.388   5.067
  592W        W 1589   4.469   3.736   7.235
  593W        W 1590   1.181   7.024   5.057
  594W        W 1591   3.617   4.801   6.160
  595W        W 1592   5.740   1.355   1.230
  596W        W 1593   3.165   1.393   6.313
  597W        W 1594   6.636   4.364   4.847
  598W        W 1595   5.432   1.384   6.034
  599W        W 1596   5.098   6.724   1.319
  600W        W 1597   2.357   3.185   4.001
  601W        W 1598   1.243   5.019   5.907
  602W        W 1599   1.372   2.446   4.756
  603W        W 1600   6.600   0.889   7.864
  604W        W 1601   2.804   4.573   6.663
  605W        W 1602   5.983   0.677   5.018
  606W        W 1603   4.807   3.209   4.521
  607W        W 1604   7.580   6.951   4.524
  608W        W 1605   5.094   1.763   1.385
  609W        W 1606   6.172   3.098   5.945
  610W        W 1607   6.771   4.440   4.226
  611W        W 1608   2.074   7.296   7.204
  612W        W 1609   2.675   5.825   3.706
  613W        W 1610   5.070   4.692   1.624
  614W        W 1611   0.176   6.846   6.554
  615W        W 1612   0.355   2.006   6.164
  616W        W 1613   7.506   3.912   2.644
  617W        W 1614   2.574   1.054   6.849
  618W        W 1615   5.127   0.187   1.896
  619W        W 1616   3.343   2.674   6.768
  620W        W 1617   3.884   0.618   4.837
  621W        W 1618   0.871   5.517   7.133
  622W        W 1619   5.489   1.298   7.493
  623W        W 1620   4.875   4.898   4.827
  624W        W 1621   1.536   6.888   5.844
  625W        W 1622   3.803   3.835   7.191
  626W        W 1623   6.114   3.670   4.764
  627W        W 1624   1.620   5.161   1.227
  628W        W 1625   5.996   6.312   3.901
  629W        W 1626   6.328   6.558   4.421
  630W        W 1627   1.940   1.973   3.129
  631W        W 1628   6.143   0.329   0.392
  632W        W 1629   7.296   3.564   6.113
  633W        W 1630   4.712   4.239   7.938
  634W        W 1631   2.862   3.523   4.295
  635W        W 1632   3.223   4.677   5.667
  636W        W 1633   0.744   3.274   3.083
  637W        W 1634   0.809   2.866   7.952
  638W        W 1635   7.834   4.213   5.263
  639W        W 1636   2.318   6.119   4.260
  640W        W 1637   5.621   7.158   0.548
  641W        W 1638   6.328   1.724   7.224
  642W        W 1639   4.751   5.044   4.120
  643W        W 1640   7.175   7.374   6.117
  644W        W 1641   6.495   5.280   5.308
  645W        W 1642   2.659   7.819   6.751
  646W        W 1643   3.038   1.070   0.756
  647W        W 1644   2.842   2.496   4.971
  648W        W 1645   3.613   7.064   7.092
  649W        W 1646   7.198   7.075   3.761
  650W        W 1647   5.372   4.881   4.703
  651W        W 1648   5.495   4.983   1.628
  652W        W 1649   4.135   5.653   2.919
  653W        W 1650   1.347   0.893   1.009
  654W        W 1651   3.529   1.012   1.600
  655W        W 1652   3.591   6.063   4.852
  656W        W 1653   2.665   1.867   4.231
  657W        W 1654   6.888   1.030   4.761
  658W        W 1655   0.730   6.899   4.875
  659W        W 1656   7.640   6.335   3.227
  660W        W 1657   4.594   7.439   1.378
  661W        W 1658   3.604   6.626   4.126
  662W        W 1659   5.395   5.567   6.187
  663W        W 1660   0.653   3.938   2.182
  664W        W 1661   0.657   1.195   1.729
  665W        W 1662   6.751   4.389   1.584
  666W        W 1663   6.713   6.289   5.482
  667W        W 1664   1.717   5.040   3.624
  668W        W 1665   1.716   3.092   1.752
  669W        W 1666   0.980   3.377   6.141
  670W        W 1667   4.872   2.626   2.365
  671W        W 1668   5.713   7.648   0.832
  672W        W 1669   1.103   2.627   0.706
  673W        W 1670   0.894   5.540   6.622
  674W        W 1671   7.886   5.860   1.185
  675W        W 1672   4.538   7.035   3.196
  676W        W 1673   1.971   5.172   4.675
  677W        W 1674   4.940   4.139   4.402
  678W        W 1675   3.122   4.853   6.126
  679W        W 1676   1.781   6.018   3.390
  680W        W 1677   6.793   0.586   6.560
  681W        W 1678   2.925   5.247   4.986
  682W        W 1679   3.181   0.595   2.451
  683W        W 1680   6.245   0.817   2.371
  684W        W 1681   2.328   5.758   6.334
  685W        W 1682   3.540   1.423   7.234
  686W        W 1683   4.995   1.204   2.041
  687W        W 1684   1.284   6.033   4.014
  688W        W 1685   5.456   5.656   3.439
  689W        W 1686   3.578   2.878   4.792
  690W        W 1687   3.177   5.544   5.281
  691W        W 1688   3.382   6.130   2.838
  692W        W 1689   5.630   3.583   4.941
  693W        W 1690   3.419   6.216   0.405
  694W        W 1691   4.396   0.699   5.661
  695W        W 1692   3.639   4.349   6.391
  696W        W 1693   4.632   3.089   2.321
  697W        W 1694   1.759   1.729   3.538
  698W        W 1695   7.170   4.118   4.160
  699W        W 1696   6.105   5.178   3.824
  700W        W 1697   6.249   0.655   1.883
  701W        W 1698   4.783   2.621   0.553
  702W        W 1699   3.615   1.395   2.326
  703W        W 1700   4.928   0.959   3.293
  704W        W 1701   5.516   6.628   3.097
  705W        W 1702   4.321   4.497   7.723
  706W        W 1703   0.903   5.696   0.222
  707W        W 1704   1.432   4.311   5.796
  708W        W 1705   7.194   3.017   2.754
  709W        W 1706   4.973   6.415   3.898
  710W        W 1707   6.997   5.890   0.663
  711W        W 1708   7.598   2.983   0.772
  712W        W 1709   7.095   0.796   3.065
  713W        W 1710   6.057   4.989   6.576
  714W        W 1711   7.908   5.653   2.240
  715W        W 1712   4.947   5.497   2.625
  716W        W 1713   4.868   1.866   2.360
  717W        W 1714   0.562   1.838   3.183
  718W        W 1715   7.952   5.075   0.991
  719W        W 1716   6.314   6.011   5.344
  720W        W 1717   0.806   3.470   1.095
  721W        W 1718   1.043   3.824   1.879
  722W        W 1719   1.833   5.491   0.913
  723W        W 1720   6.204   0.560   0.839
  724W        W 1721   4.367   7.169   2.421
  725W        W 1722   2.882   2.526   6.620
  726W        W 1723   5.819   5.704   4.524
  727W        W 1724   2.862   1.581   5.557
  728W        W 1725   6.421   6.505   1.719
  729W        W 1726   5.439   2.497   2.935
  730W        W 1727   4.326   2.124   3.993
  731W        W 1728   0.710   1.053   0.443
  732W        W 1729   0.635   2.625   5.585
  733W        W 1730   7.253   3.378   5.627
  734W        W 1731   0.588   2.546   2.624
  735W        W 1732   5.674   2.564   7.211
  736W        W 1733   1.801   3.883   3.583
  737W        W 1734   3.505   6.854   1.976
  738W        W 1735   6.324   3.019   5.444
  739W        W 1736   4.216   4.104   6.970
  740W        W 1737   5.680   4.224   2.805
  741W        W 1738   2.535   5.303   2.049
  742W        W 1739   5.887   7.270   4.128
  743W        W 1740   4.150   4.086   7.486
  744W        W 1741   4.709   0.925   7.358
  745W        W 1742   2.402   6.275   3.784
  746W        W 1743   4.069   0.139   1.781
  747W        W 1744   5.724   7.922   1.303
  748W        W 1745   4.829   2.123   7.391
  749W        W 1746   3.395   3.587   2.945
  750W        W 1747   0.952   1.726   2.229
  751W        W 1748   1.558   1.674   3.027
  752W        W 1749   7.220   1.302   1.261
  753W        W 1750   2.217   4.110   2.554
  754W        W 1751   2.324   3.886   0.672
  755W        W 1752   7.436   2.341   5.533
  756W        W 1753   7.058   2.699   4.249
  757W        W 1754   6.516   3.892   4.974
  758W        W 1755   2.746   2.287   0.684
  759W        W 1756   7.128   6.735   1.011
  760W        W 1757   3.487   7.080   5.872
  761W        W 1758   5.807   1.448   4.355
  762W        W 1759   7.487   5.532   6.682
  763W        W 1760   0.851   6.688   5.350
  764W        W 1761   1.467   3.788   1.606
  765W        W 1762   4.770   5.726   3.505
  766W        W 1763   3.986   4.475   5.979
  767W        W 1764   5.017   1.062   4.530
  768W        W 1765   3.547   0.163   1.627
  769W        W 1766   1.999   2.410   1.384
  770W        W 1767   3.158   5.797   4.302
  771W        W 1768   1.369   5.529   1.499
  772W        W 1769   5.625   4.357   7.707
  773W        W 1770   2.435   5.658   7.227
  774W        W 1771   3.913   1.925   5.427
  775W        W 1772   3.904   4.819   2.539
  776W        W 1773   3.378   4.594   3.900
  777W        W 1774   3.103   1.386   2.275
  778W        W 1775   4.760   0.710   1.985
  779W        W 1776   6.243   2.178   6.306
  780W        W 1777   5.232   6.584   7.262
  781W        W 1778   6.534   0.437   2.560
  782W        W 1779   6.748   7.868   2.920
  783W        W 1780   1.463   6.466   7.217
  784W        W 1781   2.081   5.669   3.068
  785W        W 1782   5.593   1.778   1.423
  786W        W 1783   1.424   1.523   6.968
  787W        W 1784   6.042   0.300   5.952
  788W        W 1785   3.850   6.160   3.080
  789W        W 1786   0.670   5.949   7.314
  790W        W 1787   3.894   1.148   2.665
  791W        W 1788   7.438   7.324   6.584
  792W        W 1789   5.389   3.508   7.200
  793W        W 1790   4.932   1.310   5.907
  794W        W 1791   1.592   6.803   6.835
  795W        W 1792   6.658   6.061   6.885
  796W        W 1793   4.196   2.655   1.729
  797W        W 1794   4.261   4.836   1.826
  798W        W 1795   3.844   4.341   5.101
  799W        W 1796   7.588   6.186   5.376
  800W        W 1797   3.605   2.213   4.668
  801W        W 1798   4.884   0.589   6.989
  802W        W 1799   6.823   2.268   4.396
  803W        W 1800   6.235   7.238   6.615
  804W        W 1801   5.661   6.144   4.691
  805W        W 1802   7.644   5.815   7.576
  806W        W 1803   1.531   2.785   3.523
  807W        W 1804   6.471   2.405   4.852
  808W        W 1805   6.982   6.007   1.438
  809W        W 1806   6.152   1.922   5.469
  810W        W 1807   6.721   6.426   4.753
  811W        W 1808   0.333   4.910   1.318
  812W        W 1809   0.476   6.487   1.171
  813W        W 1810   3.823   5.828   7.211
  814W        W 1811   1.710   2.128   5.058
  815W        W 1812   7.177   6.447   5.560
  816W        W 1813   3.746   5.282   2.189
  817W        W 1814   2.428   1.868   2.928
  818W        W 1815   2.611   6.904   5.414
  819W        W 1816   5.900   3.920   2.101
  820W        W 1817   4.000   6.672   3.100
  821W        W 1818   1.326   6.857   3.488
  822W        W 1819   1.321   6.115   3.149
  823W        W 1820   5.787   4.354   3.323
  824W        W 1821   3.512   6.612   4.624
  825W        W 1822   5.472   3.978   1.280
  826W        W 1823   6.771   0.019   2.428
  827W        W 1824   6.983   2.548   6.794
  828W        W 1825   4.116   1.364   2.185
  829W        W 1826   3.806   2.919   6.881
  830W        W 1827   3.087   3.269   1.628
  831W        W 1828   6.992   3.967   6.200
  832W        W 1829   3.453   1.369   0.690
  833W        W 1830   4.873   1.734   0.944
  834W        W 1831   6.011   1.935   4.475
  835W        W 1832   3.917   1.490   0.878
  836W        W 1833   4.153   1.913   6.174
  837W        W 1834   2.177   5.725   5.853
  838W        W 1835   5.508   4.459   1.493
  839W        W 1836   0.253   2.884   5.872
  840W        W 1837   0.421   2.967   3.378
  841W        W 1838   0.718   3.100   3.979
  842W        W 1839   4.864   7.237   3.552
  843W        W 1840   2.670   6.111   6.309
  844W        W 1841   2.303   0.197   6.949
  845W        W 1842   6.460   0.605   5.811
  846W        W 1843   5.489   6.064   6.119
  847W        W 1844   1.890   4.423   2.249
  848W        W 1845   1.741   2.326   3.731
  849W        W 1846   3.326   5.112   6.936
  850W        W 1847   6.104   3.078   6.620
  851W        W 1848   6.532   2.103   1.468
  852W        W 1849   4.842   7.236   6.569
  853W        W 1850   6.303   7.363   1.425
  854W        W 1851   1.319   2.857   1.996
  855W        W 1852   5.429   2.108   1.063
  856W        W 1853   6.299   2.597   0.448
  857W        W 1854   3.478   0.826   0.817
  858W        W 1855   7.994   2.638   3.423
  859W        W 1856   5.127   3.554   5.661
  860W        W 1857   7.003   2.952   2.252
  861W        W 1858   7.238   3.344   4.681
  862W        W 1859   1.429   0.902   3.349
  863W        W 1860   1.128   0.785   6.342
  864W        W 1861   1.910   1.389   7.096
  865W        W 1862   2.051   1.364   3.765
  866W        W 1863   3.202   3.652   0.696
  867W        W 1864   5.532   2.703   0.069
  868W        W 1865   0.786   2.770   3.072
  869W        W 1866   1.522   5.016   7.517
  870W        W 1867   4.790   4.036   6.312
  871W        W 1868   5.374   0.995   7.052
  872W        W 1869   6.760   3.805   2.493
  873W        W 1870   5.024   4.333   0.330
  874W        W 1871   3.947   4.422   1.718
  875W        W 1872   4.065   1.467   5.262
  876W        W 1873   0.667   5.218   6.289
  877W        W 1874   3.688   7.625   1.350
  878W        W 1875   0.551   3.503   6.419
  879W        W 1876   0.921   1.335   5.744
  880W        W 1877   3.751   2.019   6.457
  881W        W 1878   5.331   4.526   6.167
  882W        W 1879   1.279   3.084   7.813
  883W        W 1880   1.415   0.521   1.812
  884W        W 1881   6.062   7.268   7.966
  885W        W 1882   4.794   1.020   5.508
  886W        W 1883   5.184   5.250   5.033
  887W        W 1884   3.144   4.687   2.027
  888W        W 1885   5.300   2.393   0.445
  889W        W 1886   4.386   1.849   5.234
  890W        W 1887   6.458   4.538   2.518
  891W        W 1888   3.071   6.636   4.221
  892W        W 1889   2.488   7.035   7.395
  893W        W 1890   1.421   0.658   0.145
  894W        W 1891   0.197   3.718   6.099
  895W        W 1892   2.616   6.918   6.405
  896W        W 1893   3.317   5.323   4.617
  897W        W 1894   6.901   6.585   6.485
  898W        W 1895   4.518   2.596   3.271
  899W        W 1896   2.823   6.157   4.080
  900W        W 1897   2.735   6.635   7.209
  901W        W 1898   0.861   0.492   5.543
  902W        W 1899   3.875   2.732   1.280
  903W        W 1900   3.977   2.504   3.842
  904W        W 1901   1.714   1.188   0.814
  905W        W 1902   6.552   7.176   1.018
  906W        W 1903   5.037   3.060   1.029
  907W        W 1904   7.860   6.642   6.197
  908W        W 1905   4.630   3.326   5.726
  909W        W 1906   2.799   6.613   3.778
  910W        W 1907   6.413   1.778   0.158
  911W        W 1908   1.410   5.540   6.441
  912W        W 1909   0.016   6.851   2.286
  913W        W 1910   2.026   3.627   2.736
  914W        W 1911   6.396   6.504   5.144
  915W        W 1912   5.364   4.522   6.733
  916W        W 1913   4.891   5.872   1.964
  917W        W 1914   0.585   5.532   5.867
  918W        W 1915   6.545   2.474   2.919
  919W        W 1916   1.708   2.494   6.189
  920W        W 1917   6.943   6.651   3.015
  921W        W 1918   5.774   4.345   5.878
  922W        W 1919   6.709   1.341   1.165
  923W        W 1920   0.108   3.955   5.629
  924W        W 1921   4.146   3.625   6.843
  925W        W 1922   6.424   7.932   7.228
  926W        W 1923   5.001   6.689   4.765
  927W        W 1924   0.266   4.439   5.155
  928W        W 1925   0.042   4.488   5.663
  929W        W 1926   4.333   2.310   7.508
  930W        W 1927   2.509   5.253   0.373
  931W        W 1928   3.286   2.608   3.111
  932W        W 1929   3.506   0.480   2.073
  933W        W 1930   6.501   1.956   4.626
  934W        W 1931   2.466   1.721   3.790
  935W        W 1932   5.829   5.724   3.105
  936W        W 1933   4.900   5.848   0.917
  937W        W 1934   0.362   3.195   1.796
  938W        W 1935   6.482   6.455   3.926
  939W        W 1936   7.644   5.163   7.001
  940W        W 1937   3.817   3.248   3.006
  941W        W 1938   1.463   0.484   1.296
  942W        W 1939   7.562   7.238   4.102
  943W        W 1940   1.559   5.178   5.545
  944W        W 1941   6.703   3.907   1.428
  945W        W 1942   2.621   2.629   3.384
  946W        W 1943   1.194   2.502   3.260
  947W        W 1944   2.755   4.740   5.123
  948W        W 1945   0.019   3.164   1.093
  949W        W 1946   3.762   1.056   5.136
  950W        W 1947   5.285   7.573   1.484
  951W        W 1948   7.478   4.772   1.207
  952W        W 1949   6.379   5.854   2.282
  953W        W 1950   2.960   4.404   4.812
  954W        W 1951   2.980   3.024   6.488
  955W        W 1952   0.298   2.736   1.168
  956W        W 1953   5.528   2.966   1.095
  957W        W 1954   6.842   2.098   3.849
  958W        W 1955   0.094   4.986   5.608
  959W        W 1956   5.899   0.907   1.073
  960W        W 1957   3.721   2.381   2.950
  961W        W 1958   1.269   0.562   4.625
  962W        W 1959   5.679   2.957   2.437
  963W        W 1960   6.331   5.961   3.974
  964W        W 1961   2.655   3.139   1.277
  965W        W 1962   6.952   1.516   5.678
  966W        W 1963   5.205   0.885   7.529
  967W        W 1964   0.937   5.465   0.726
  968W        W 1965   4.588   7.006   5.700
  969W        W 1966   3.271   2.832   4.036
  970W        W 1967   4.647   2.750   1.932
  971W        W 1968   2.066   6.099   1.456
  972W        W 1969   0.757   5.745   2.087
  973W        W 1970   7.643   3.864   0.753
  974W        W 1971   2.241   4.801   5.908
  975W        W 1972   7.031   3.615   1.136
  976W        W 1973   7.538   5.701   6.171
  977W        W 1974   4.493   3.300   7.559
  978W        W 1975   1.150   5.806   4.720
  979W        W 1976   3.468   5.102   5.172
  980W        W 1977   6.915   1.954   1.793
  981W        W 1978   7.302   4.705   2.152
  982W        W 1979   2.174   1.486   2.409
  983W        W 1980   3.045   5.767   2.787
  984W        W 1981   6.410   3.496   6.093
  985W        W 1982   4.966   7.243   1.732
  986W        W 1983   4.695   7.088   0.528
  987W        W 1984   4.502   6.513   3.174
  988W        W 1985   6.494   6.213   7.776
  989W        W 1986   0.574   5.821   0.597
  990W        W 1987   6.377   7.534   2.838
  991W        W 1988   1.344   4.483   2.995
  992W        W 1989   2.001   0.670   4.050
  993W        W 1990   4.966   5.778   4.435
  994W        W 1991   5.488   2.473   2.445
  995W        W 1992   5.003   3.924   0.603
  996W        W 1993   2.844   3.860   3.526
  997W        W 1994   3.950   0.608   6.990
  998W        W 1995   6.415   4.883   3.040
  999W        W 1996   5.647   5.444   3.853
 1000W        W 1997   7.831   5.664   7.080
 1001W        W 1998   4.808   4.331   0.836
 1002W        W 1999   6.248   5.669   1.826
 1003W        W 2000   0.855   1.526   0.397
 1004W        W 2001   0.389   7.299   6.535
 1005W        W 2002   6.755   1.517   4.653
 1006W        W 2003   7.261   2.199   4.135
 1007W        W 2004   3.910   5.858   5.752
 1008W        W 2005   2.642   4.942   6.224
 1009W        W 2006   4.915   4.386   3.601
 1010W        W 2007   3.143   6.377   5.509
 1011W        W 2008   1.710   3.416   5.631
 1012W        W 2009   1.614   3.321   4.650
 1013W        W 2010   2.122   4.556   6.839
 1014W        W 2011   4.744   4.720   1.207
 1015W        W 2012   4.048   2.418   0.421
 1016W        W 2013   7.555   3.029   1.805
 1017W        W 2014   5.509   2.500   3.420
 1018W        W 2015   6.370   0.027   3.650
 1019W        W 2016   7.051   4.563   5.053
 1020W        W 2017   1.867   6.416   2.478
 1021W        W 2018   2.454   4.946   6.756
 1022W        W 2019   2.674   4.103   4.529
 1023W        W 2020   0.485   1.625   4.348
 1024W        W 2021   0.848   3.444   1.591
 1025W        W 2022   3.419   4.936   2.382
 1026W        W 2023   1.502   3.562   2.644
 1027W        W 2024   4.744   7.489   3.072
 1028W        W 2025   3.666   3.267   5.144
 1029W        W 2026   5.294   3.470   4.453
 1030W        W 2027   4.367   1.263   7.579
 1031W        W 2028   0.758   4.200   7.589
 1032W        W 2029   5.298   0.510   2.620
 1033W        W 2030   4.430   0.214   1.413
 1034W        W 2031   5.671   6.127   0.377
 1035W        W 2032   3.083   4.524   0.296
 1036W        W 2033   3.446   5.099   1.814
 1037W        W 2034   2.589   6.139   7.379
 1038W        W 2035   0.978   2.622   6.003
 1039W        W 2036   2.623   7.390   6.161
 1040W        W 2037   0.676   6.883   6.380
 1041W        W 2038   1.351   1.808   1.794
 1042W        W 2039   1.423   1.937   2.283
 1043W        W 2040   2.319   2.820   7.049
 1044W        W 2041   5.893   1.651   2.289
 1045W        W 2042   5.226   1.857   0.448
 1046W        W 2043   3.008   4.761   1.526
 1047W        W 2044   6.452   6.983   5.339
 1048W        W 2045   5.170   4.743   2.648
 1049W        W 2046   0.819   3.965   3.638
 1050W        W 2047   5.705   1.543   6.440
 1051W        W 2048   7.439   2.739   3.319
 1052W        W 2049   5.994   1.564   3.687
 1053W        W 2050   1.530   2.501   6.694
 1054W        W 2051   0.220   3.926   5.105
 1055W        W 2052   6.086   4.022   3.106
 1056W        W 2053   0.605   1.719   5.799
 1057W        W 2054   5.410   6.549   1.668
 1058W        W 2055   0.537   3.627   3.952
 1059W        W 2056   0.635   3.765   3.208
 1060W        W 2057   5.090   6.298   5.333
 1061W        W 2058   1.664   4.255   4.812
 1062W        W 2059   5.394   4.558   3.562
 1063W        W 2060   1.748   4.410   0.142
 1064W        W 2061   0.769   1.933   5.337
 1065W        W 2062   1.711   7.172   0.273
 1066W        W 2063   6.349   3.894   1.853
 1067W        W 2064   1.082   6.560   3.147
 1068W        W 2065   0.689   0.564   0.611
 1069W        W 2066   5.007   2.248   1.284
 1070W        W 2067   7.533   0.496   0.617
 1071W        W 2068   1.188   2.970   1.490
 1072W        W 2069   7.925   5.314   1.850
 1073W        W 2070   2.500   5.018   5.449
 1074W        W 2071   1.322   3.283   6.508
 1075W        W 2072   2.705   3.566   0.474
 1076W        W 2073   6.220   2.061   2.823
 1077W        W 2074   0.600   7.416   4.804
 1078W        W 2075   0.503   3.629   5.450
 1079W        W 2076   1.435   1.975   4.622
 1080W        W 2077   5.889   1.821   1.018
 1081W        W 2078   0.101   1.618   5.924
 1082W        W 2079   2.390   1.666   5.813
 1083W        W 2080   0.059   6.733   7.040
 1084W        W 2081   0.063   6.220   7.792
 1085W        W 2082   6.789   3.776   5.395
 1086W        W 2083   6.784   0.526   3.460
 1087W        W 2084   0.849   1.626   3.538
 1088W        W 2085   6.466   4.538   7.409
 1089W        W 2086   1.477   2.179   2.921
 1090W        W 2087   3.327   5.422   0.390
 1091W        W 2088   5.503   6.051   5.162
 1092W        W 2089   1.029   5.708   3.115
 1093W        W 2090   6.155   4.465   4.975
 1094W        W 2091   6.099   7.603   3.692
 1095W        W 2092   3.944   0.633   5.359
 1096W        W 2093   2.703   1.421   7.544
 1097W        W 2094   6.058   3.500   6.993
 1098W        W 2095   5.070   3.398   3.026
 1099W        W 2096   7.524   7.133   7.094
 1100W        W 2097   0.792   6.064   1.632
 1101W        W 2098   6.022   2.940   4.417
 1102W        W 2099   3.458   1.705   7.683
 1103W        W 2100   3.696   0.696   2.508
 1104W        W 2101   3.429   3.011   1.886
 1105W        W 2102   4.007   4.711   0.657
 1106W        W 2103   3.532   6.174   3.585
 1107W        W 2104   0.760   1.702   1.722
 1108W        W 2105   5.496   1.532   2.645
 1109W        W 2106   6.226   2.476   7.586
 1110W        W 2107   3.395   6.310   2.340
 1111W        W 2108   1.487   6.627   0.065
 1112W        W 2109   4.195   5.630   0.427
 1113W        W 2110   6.099   2.146   0.370
 1114W        W 2111   3.029   6.245   7.108
 1115W        W 2112   6.785   7.321   4.227
 1116W        W 2113   7.185   2.511   5.990
 1117W        W 2114   4.945   3.507   6.142
 1118W        W 2115   3.263   1.460   5.833
 1119W        W 2116   3.840   6.989   4.700
 1120W        W 2117   4.837   6.278   4.401
 1121W        W 2118   7.704   2.001   2.275
 1122W        W 2119   6.490   5.555   7.530
 1123W        W 2120   0.805   2.956   0.456
 1124W        W 2121   0.411   2.946   6.724
 1125W        W 2122   3.852   2.387   5.114
 1126W        W 2123   4.222   2.659   6.797
 1127W        W 2124   3.104   6.610   1.804
 1128W        W 2125   3.282   2.586   4.495
 1129W        W 2126   7.796   4.733   5.260
 1130W        W 2127   7.173   4.026   0.902
 1131W        W 2128   4.127   5.354   1.808
 1132W        W 2129   3.869   2.583   2.469
 1133W        W 2130   4.892   1.922   5.326
 1134W        W 2131   2.857   2.851   4.619
 1135W        W 2132   3.307   4.698   6.574
 1136W        W 2133   2.543   2.228   3.872
 1137W        W 2134   6.918   5.510   5.084
 1138W        W 2135   3.260   5.853   3.280
 1139W        W 2136   4.947   5.331   6.265
 1140W        W 2137   7.140   5.955   5.442
 1141W        W 2138   5.865   1.730   0.256
 1142W        W 2139   7.339   2.854   4.626
 1143W        W 2140   4.637   4.685   5.688
 1144W        W 2141   5.418   0.850   3.311
 1145W        W 2142   2.019   6.516   1.151
 1146W        W 2143   4.533   4.932   6.474
 1147W        W 2144   3.556   1.487   5.369
 1148W        W 2145   6.562   2.179   5.298
 1149W        W 2146   7.666   3.285   5.346
 1150W        W 2147   4.010   3.334   3.860
 1151W        W 2148   1.868   5.266   5.144
 1152W        W 2149   5.963   4.460   2.399
 1153W        W 2150   4.286   7.390   5.901
 1154W        W 2151   1.161   2.302   6.381
 1155W        W 2152   3.583   4.985   3.425
 1156W        W 2153   1.662   5.943   6.637
 1157W        W 2154   0.984   5.639   3.900
 1158W        W 2155   2.125   3.951   1.556
 1159W        W 2156   6.913   2.632   4.757
 1160W        W 2157   7.375   1.976   2.718
 1161W        W 2158   0.486   3.848   4.429
 1162W        W 2159   4.719   3.652   5.359
 1163W        W 2160   3.377   3.211   5.552
 1164W        W 2161   2.862   0.903   4.200
 1165W        W 2162   5.829   4.417   5.360
 1166W        W 2163   2.759   6.471   4.639
 1167W        W 2164   0.970   3.778   5.191
 1168W        W 2165   0.973   1.650   6.154
 1169W        W 2166   1.353   2.617   1.144
 1170W        W 2167   3.584   2.845   2.764
 1171W        W 2168   6.800   3.246   5.383
 1172W        W 2169   7.421   5.135   1.770
 1173W        W 2170   0.821   6.164   3.315
 1174W        W 2171   3.806   6.296   5.483
 1175W        W 2172   5.962   4.694   7.357
 1176W        W 2173   1.716   1.643   4.863
 1177W        W 2174   4.560   2.143   1.060
 1178W        W 2175   3.951   0.571   0.844
 1179W        W 2176   7.186   5.153   1.322
 1180W        W 2177   5.608   2.119   4.777
 1181W        W 2178   6.030   6.804   6.092
 1182W        W 2179   4.444   2.323   5.400
 1183W        W 2180   0.462   6.763   2.005
 1184W        W 2181   1.062   6.100   2.299
 1185W        W 2182   1.756   6.635   7.602
 1186W        W 2183   1.239   5.759   7.444
 1187W        W 2184   5.929   5.285   1.651
 1188W        W 2185   4.283   0.875   0.341
 1189W        W 2186   6.711   5.230   7.175
 1190W        W 2187   4.260   3.446   2.416
 1191W        W 2188   6.306   2.870   4.941
 1192W        W 2189   7.414   6.025   2.373
 1193W        W 2190   4.327   4.220   5.112
 1194W        W 2191   6.526   3.084   6.338
 1195W        W 2192   3.056   5.970   0.688
 1196W        W 2193   6.194   6.061   0.201
 1197W        W 2194   1.056   3.039   1.000
 1198W        W 2195   6.287   2.660   6.184
 1199W        W 2196   1.729   6.754   0.555
 1200W        W 2197   2.574   6.216   0.741
 1201W        W 2198   4.301   6.646   1.755
 1202W        W 2199   3.765   5.017   3.887
 1203W        W 2200   6.090   5.373   2.243
 1204W        W 2201   1.560   2.391   2.481
 1205W        W 2202   2.609   6.704   0.892
 1206W        W 2203   3.859   2.763   5.926
 1207W        W 2204   6.462   3.015   4.051
 1208W        W 2205   1.882   3.556   1.791
 1209W        W 2206   0.615   0.860   3.060
 1210W        W 2207   1.134   7.042   6.156
 1211W        W 2208   6.212   6.010   6.679
 1212W        W 2209   2.336   4.177   7.475
 1213W        W 2210   2.738   4.724   5.768
 1214W        W 2211   5.011   3.767   3.398
 1215W        W 2212   3.821   0.590   1.697
 1216W        W 2213   4.180   4.538   5.506
 1217W        W 2214   5.493   6.060   2.403
 1218W        W 2215   4.208   3.562   2.916
 1219W        W 2216   1.338   5.919   2.682
 1220W        W 2217   2.818   3.995   0.752
 1221W        W 2218   6.125   0.593   7.933
 1222W        W 2219   2.844   0.992   2.450
 1223W        W 2220   4.079   5.791   4.225
 1224W        W 2221   4.540   2.360   7.050
 1225W        W 2222   4.045   2.397   3.356
 1226W        W 2223   7.894   6.116   0.744
 1227W        W 2224   0.631   4.985   3.447
 1228W        W 2225   4.608   2.262   2.101
 1229W        W 2226   3.486   2.772   6.278
 1230W        W 2227   1.729   6.448   4.519
 1231W        W 2228   6.021   1.093   2.001
 1232W        W 2229   0.213   5.466   5.073
 1233W        W 2230   4.758   2.614   1.060
 1234W        W 2231   7.844   3.628   2.945
 1235W        W 2232   2.579   1.250   4.528
 1236W        W 2233   6.593   3.345   3.263
 1237W        W 2234   4.755   2.025   4.337
 1238W        W 2235   6.820   2.037   2.305
 1239W        W 2236   3.834   5.012   1.021
 1240W        W 2237   5.287   1.253   7.960
 1241W        W 2238   4.971   2.076   6.913
 1242W        W 2239   0.216   5.256   6.007
 1243W        W 2240   4.815   6.609   1.824
 1244W        W 2241   0.959   3.343   0.112
 1245W        W 2242   6.057   6.422   0.543
 1246W        W 2243   1.961   4.676   4.633
 1247W        W 2244   3.788   1.405   1.382
 1248W        W 2245   6.132   2.567   3.154
 1249W        W 2246   2.025   7.062   1.886
 1250W        W 2247   2.257   5.684   1.170
 1251W        W 2248   3.503   4.348   5.899
 1252W        W 2249   6.430   4.182   5.382
 1253W        W 2250   3.735   1.338   5.862
 1254W        W 2251   6.544   7.986   0.378
 1255W        W 2252   3.607   2.201   2.273
 1256W        W 2253   1.336   2.533   7.182
 1257W        W 2254   0.360   6.502   2.438
 1258W        W 2255   6.021   2.649   2.220
 1259W        W 2256   6.748   4.163   2.026
 1260W        W 2257   2.047   4.026   3.030
 1261W        W 2258   5.704   5.508   2.550
 1262W        W 2259   3.280   0.827   7.856
 1263W        W 2260   3.325   3.814   6.821
 1264W        W 2261   5.885   3.701   1.044
 1265W        W 2262   4.122   1.374   6.251
 1266W        W 2263   3.138   4.513   2.904
 1267W        W 2264   5.126   4.818   5.691
 1268W        W 2265   1.106   0.399   6.001
 1269W        W 2266   5.092   5.408   1.850
 1270W        W 2267   3.175   1.823   2.506
 1271W        W 2268   2.352   6.236   1.887
 1272W        W 2269   5.070   2.260   2.655
 1273W        W 2270   5.544   4.441   7.208
 1274W        W 2271   5.216   6.603   4.302
 1275W        W 2272   0.934   4.254   6.090
 1276W        W 2273   0.904   7.274   6.621
 1277W        W 2274   2.244   0.559   4.957
 1278W        W 2275   3.546   6.306   7.079
 1279W        W 2276   0.700   6.172   0.234
 1280W        W 2277   6.062   6.787   4.005
 1281W        W 2278   1.146   3.112   2.825
 1282W        W 2279   0.374   4.295   6.797
 1283W        W 2280   3.432   4.223   4.852
 1284W        W 2281   1.279   3.346   1.819
 1285W        W 2282   4.167   2.159   7.982
 1286W        W 2283   0.669   5.246   3.894
 1287W        W 2284   0.563   0.693   1.660
 1288W        W 2285   4.316   7.292   5.375
 1289W        W 2286   1.710   0.980   5.505
 1290W        W 2287   0.330   7.102   7.272
 1291W        W 2288   3.535   6.613   0.720
 1292W        W 2289   5.656   7.558   2.956
 1293W        W 2290   4.556   7.627   3.719
 1294W        W 2291   1.076   5.141   4.205
 1295W        W 2292   7.193   5.088   5.925
 1296W        W 2293   2.805   2.056   5.711
 1297W        W 2294   1.624   0.765   2.665
 1298W        W 2295   6.429   2.037   1.960
 1299W        W 2296   2.823   2.947   6.949
 1300W        W 2297   6.737   1.027   3.398
 1301W        W 2298   6.485   4.110   2.806
 1302W        W 2299   5.032   1.592   6.338
 1303W        W 2300   4.164   7.684   1.564
 1304W        W 2301   5.183   7.563   3.305
 1305W        W 2302   0.272   1.887   5.240
 1306W        W 2303   4.019   0.455   2.183
 1307W        W 2304   4.329   0.595   7.338
 1308W        W 2305   2.932   2.982   5.659
 1309W        W 2306   5.188   0.513   0.635
 1310W        W 2307   0.520   4.697   5.516
 1311W        W 2308   1.733   4.932   0.018
 1312W        W 2309   2.718   3.460   3.794
 1313W        W 2310   5.618   0.951   4.312
 1314W        W 2311   6.909   0.616   6.057
 1315W        W 2312   7.419   4.312   0.553
 1316W        W 2313   7.316   1.962   7.337
 1317W        W 2314   1.489   4.975   4.597
 1318W        W 2315   7.993   1.451   6.425
 1319W        W 2316   4.661   4.682   0.205
 1320W        W 2317   3.742   7.263   1.716
 1321W        W 2318   1.597   2.634   1.594
 1322W        W 2319   7.772   4.830   1.950
 1323W        W 2320   5.117   0.632   5.614
 1324W        W 2321   2.268   2.349   7.270
 1325W        W 2322   1.409   3.795   5.469
 1326W        W 2323   4.059   1.831   1.263
 1327W        W 2324   2.787   1.998   6.671
 1328W        W 2325   1.783   4.018   1.950
 1329W        W 2326   1.559   6.355   5.844
 1330W        W 2327   1.000   6.327   7.412
 1331W        W 2328   4.646   1.887   6.552
 1332W        W 2329   3.129   5.529   6.719
 1333W        W 2330   5.280   5.634   2.258
 1334W        W 2331   5.672   1.031   6.358
 1335W        W 2332   2.278   1.995   2.465
 1336W        W 2333   3.819   6.031   2.581
 1337W        W 2334   2.071   6.424   3.411
 1338W        W 2335   3.728   6.195   4.378
 1339W        W 2336   5.045   6.924   3.947
 1340W        W 2337   2.105   6.688   6.566
 1341W        W 2338   6.336   6.842   0.670
 1342W        W 2339   2.097   3.501   4.760
 1343W        W 2340   1.696   4.707   7.134
 1344W        W 2341   3.329   3.047   7.105
 1345W        W 2342   6.328   5.289   3.366
 1346W        W 2343   2.722   5.719   5.037
 1347W        W 2344   1.378   6.439   2.729
 1348W        W 2345   5.076   3.967   2.300
 1349W        W 2346   3.549   5.794   0.657
 1350W        W 2347   4.847   2.375   5.081
 1351W        W 2348   1.663   6.924   6.350
 1352W        W 2349   0.845   1.368   1.268
 1353W        W 2350   5.434   3.102   7.739
 1354W        W 2351   1.036   3.862   0.817
 1355W        W 2352   6.167   1.049   2.811
 1356W        W 2353   4.933   4.487   5.321
 1357W        W 2354   7.710   5.656   0.710
 1358W        W 2355   3.856   2.288   1.662
 1359W        W 2356   7.100   5.581   2.815
 1360W        W 2357   3.834   6.207   6.670
 1361W        W 2358   7.569   2.556   1.543
 1362W        W 2359   1.290   5.582   4.291
 1363W        W 2360   5.559   4.917   6.496
 1364W        W 2361   7.781   3.020   4.360
 1365W        W 2362   3.920   5.887   5.205
 1366W        W 2363   7.682   6.798   7.447
 1367W        W 2364   4.207   6.284   1.362
 1368W        W 2365   6.848   4.736   7.117
 1369W        W 2366   7.182   6.583   7.347
 1370W        W 2367   2.644   2.837   5.288
 1371W        W 2368   0.281   4.249   4.665
 1372W        W 2369   0.667   5.709   3.498
 1373W        W 2370   1.332   4.795   3.406
 1374W        W 2371   6.736   6.722   7.670
 1375W        W 2372   7.901   5.775   6.568
 1376W        W 2373   1.525   1.104   0.377
 1377W        W 2374   0.920   4.245   2.506
 1378W        W 2375   5.834   4.120   0.745
 1379W        W 2376   4.066   3.596   7.568
 1380W        W 2377   0.635   3.874   6.784
 1381W        W 2378   1.206   3.276   2.317
 1382W        W 2379   2.896   4.691   3.781
 1383W        W 2380   1.502   1.642   7.811
 1384W        W 2381   5.595   6.636   0.407
 1385W        W 2382   5.965   4.904   2.028
 1386W        W 2383   2.431   2.388   6.783
 1387W        W 2384   5.610   7.063   5.935
 1388W        W 2385   3.511   6.138   5.868
 1389W        W 2386   5.556   6.866   4.006
 1390W        W 2387   1.956   6.232   7.359
 1391W        W 2388   3.189   3.148   6.046
 1392W        W 2389   6.791   4.929   7.593
 1393W        W 2390   6.327   4.517   2.024
 1394W        W 2391   5.455   0.956   1.331
 1395W        W 2392   4.068   5.682   6.274
 1396W        W 2393   3.974   2.570   4.666
 1397W        W 2394   7.448   3.514   1.959
 1398W        W 2395   0.503   6.730   4.021
 1399W        W 2396   1.306   6.568   6.241
 1400W        W 2397   5.992   3.337   2.701
 1401W        W 2398   6.861   3.502   6.885
 1402W        W 2399   4.522   2.798   6.386
 1403W        W 2400   3.585   0.967   6.993
 1404W        W 2401   6.850   7.933   0.791
 1405W        W 2402   3.896   2.040   3.696
 1406W        W 2403   4.983   1.597   4.529
 1407W        W 2404   1.987   4.354   5.973
 1408W        W 2405   4.176   2.569   2.882
 1409W        W 2406   3.631   0.560   4.363
 1410W        W 2407   6.841   0.007   3.442
 1411W        W 2408   1.283   3.511   7.480
 1412W        W 2409   2.703   5.462   1.380
 1413W        W 2410   6.310   6.150   3.516
 1414W        W 2411   6.393   3.521   5.594
 1415W        W 2412   2.349   1.788   1.999
 1416W        W 2413   2.107   3.875   4.061
 1417W        W 2414   0.325   1.765   6.677
 1418W        W 2415   3.945   7.750   4.226
 1419W        W 2416   1.672   2.952   6.418
 1420W        W 2417   7.021   4.964   2.996
 1421W        W 2418   5.053   1.771   2.875
 1422W        W 2419   3.212   5.294   2.678
 1423W        W 2420   7.142   4.690   6.316
 1424W        W 2421   0.438   6.384   7.198
 1425W        W 2422   0.227   4.141   1.971
 1426W        W 2423   6.032   4.785   4.126
 1427W        W 2424   6.986   2.407   1.550
 1428W        W 2425   1.097   1.115   0.121
 1429W        W 2426   1.141   4.307   4.804
 1430W        W 2427   5.592   0.570   5.801
 1431W        W 2428   2.500   4.075   3.224
 1432W        W 2429   5.954   7.454   2.551
 1433W        W 2430   5.803   3.500   0.564
 1434W        W 2431   1.087   2.853   5.375
 1435W        W 2432   3.354   1.054   2.617
 1436W        W 2433   3.511   7.452   3.550
 1437W        W 2434   5.390   4.016   3.165
 1438W        W 2435   4.855   3.464   0.765
 1439W        W 2436   6.900   4.147   3.430
 1440W        W 2437   1.604   5.280   2.397
 1441W        W 2438   4.525   0.876   7.890
 1442W        W 2439   7.430   6.936   6.214
 1443W        W 2440   7.684   6.883   6.672
 1444W        W 2441   5.944   6.222   5.876
 1445W        W 2442   4.450   5.348   6.188
 1446W        W 2443   4.928   5.102   0.903
 1447W        W 2444   4.518   1.842   7.049
 1448W        W 2445   7.166   2.232   7.758
 1449W        W 2446   1.248   0.268   5.058
 1450W        W 2447   5.089   5.763   5.281
 1451W        W 2448   2.421   4.328   4.156
 1452W        W 2449   3.977   6.910   0.840
 1453W        W 2450   2.887   5.572   0.178
 1454W        W 2451   6.515   2.813   2.208
 1455W        W 2452   5.862   6.807   0.815
 1456W        W 2453   0.743   5.048   5.827
 1457W        W 2454   4.809   6.174   6.613
 1458W        W 2455   5.679   5.335   5.690
 1459W        W 2456   6.827   1.790   7.303
 1460W        W 2457   6.592   0.378   0.060
 1461W        W 2458   5.053   0.921   1.625
 1462W        W 2459   2.458   3.010   0.305
 1463W        W 2460   6.344   7.728   2.302
 1464W        W 2461   5.061   0.594   3.621
 1465W        W 2462   7.200   3.908   5.743
 1466W        W 2463   7.087   6.329   6.894
 1467W        W 2464   1.030   2.294   6.847
 1468W        W 2465   1.823   1.778   6.823
 1469W        W 2466   1.771   0.531   3.549
 1470W        W 2467   2.046   1.530   2.904
 1471W        W 2468   4.333   0.866   2.273
 1472W        W 2469   1.940   2.972   3.776
 1473W        W 2470   1.594   7.029   7.302
 1474W        W 2471   5.621   6.352   0.855
 1475W        W 2472   7.794   5.167   2.722
 1476W        W 2473   0.817   7.062   1.766
 1477W        W 2474   6.349   5.768   3.171
 1478W        W 2475   2.741   3.593   1.468
 1479W        W 2476   1.518   3.320   3.641
 1480W        W 2477   4.317   7.026   4.464
 1481W        W 2478   7.816   2.587   1.076
 1482W        W 2479   1.833   1.677   2.084
 1483W        W 2480   4.134   1.861   0.400
 1484W        W 2481   4.077   5.612   2.418
 1485W        W 2482   0.840   0.964   0.918
 1486W        W 2483   7.262   2.297   2.314
 1487W        W 2484   6.127   1.756   3.236
 1488W        W 2485   7.608   6.943   2.585
 1489W        W 2486   5.773   0.717   2.613
 1490W        W 2487   5.562   0.211   2.191
 1491W        W 2488   0.801   1.523   6.656
 1492W        W 2489   6.264   4.472   6.607
 1493W        W 2490   3.752   2.816   3.259
 1494W        W 2491   3.092   0.771   1.175
 1495W        W 2492   5.366   5.080   6.040
 1496W        W 2493   0.524   5.861   2.996
 1497W        W 2494   3.001   0.780   2.890
 1498W        W 2495   3.512   4.934   4.326
 1499W        W 2496   3.136   0.898   6.767
 1500W        W 2497   2.879   4.601   2.463
 1501W        W 2498   6.494   1.823   1.049
 1502W        W 2499   7.237   7.377   4.491
 1503W        W 2500   1.913   2.773   2.579
 1504W        W 2501   6.357   7.859   1.609
 1505W        W 2502   5.447   2.913   3.714
 1506W        W 2503   2.699   5.423   6.375
 1507W        W 2504   3.373   5.227   6.349
 1508W        W 2505   7.502   3.756   4.002
 1509W        W 2506   3.580   2.354   0.698
 1510W        W 2507   2.789   0.611   7.015
 1511W        W 2508   6.915   3.040   6.656
 1512W        W 2509   2.849   1.707   1.356
 1513W        W 2510   0.577   4.774   2.420
 1514W        W 2511   1.166   1.630   7.433
 1515W        W 2512   7.023   5.295   6.779
 1516W        W 2513   7.105   3.083   6.095
 1517W        W 2514   7.822   5.321   6.322
 1518W        W 2515   0.323   6.245   1.600
 1519W        W 2516   3.532   4.273   1.995
 1520W        W 2517   7.237   1.778   2.168
 1521W        W 2518   0.510   7.055   4.436
 1522W        W 2519   1.364   5.312   3.829
 1523W        W 2520   3.183   2.046   0.872
 1524W        W 2521   3.460   4.708   0.810
 1525W        W 2522   1.662   1.370   1.718
 1526W        W 2523   0.552   4.134   5.432
 1527W        W 2524   5.114   2.837   4.412
 1528W        W 2525   6.182   2.122   6.809
 1529W        W 2526   4.256   7.330   0.662
 1530W        W 2527   6.529   0.577   4.304
 1531W        W 2528   0.588   6.221   5.357
 1532W        W 2529   1.893   0.861   1.775
 1533W        W 2530   0.245   4.938   5.116
 1534W        W 2531   1.499   3.042   7.353
 1535W        W 2532   6.028   7.375   3.229
 1536W        W 2533   2.222   4.782   2.892
 1537W        W 2534   7.886   4.521   4.811
 1538W        W 2535   2.603   1.344   2.156
 1539W        W 2536   6.683   3.004   2.867
 1540W        W 2537   2.924   3.356   2.934
 1541W        W 2538   5.322   5.744   4.794
 1542W        W 2539   1.566   4.509   4.387
 1543W        W 2540   5.327   2.316   5.921
 1544W        W 2541   2.237   2.624   6.139
 1545W        W 2542   0.308   2.288   6.597
 1546W        W 2543   4.783   7.101   2.727
 1547W        W 2544   4.503   4.474   6.180
 1548W        W 2545   3.138   2.960   5.108
 1549W        W 2546   5.514   6.243   5.623
 1550W        W 2547   2.940   3.506   5.773
 1551W        W 2548   5.459   4.032   1.810
 1552W        W 2549   1.942   5.239   5.873
 1553W        W 2550   3.503   1.986   5.135
 1554W        W 2551   2.052   5.144   3.271
 1555W        W 2552   6.115   3.819   5.272
 1556W        W 2553   6.765   1.376   6.981
 1557W        W 2554   5.375   4.059   3.680
 1558W        W 2555   6.701   0.666   2.137
 1559W        W 2556   0.825   4.284   7.097
 1560W        W 2557   2.122   0.716   7.684
 1561W        W 2558   2.647   5.218   7.874
 1562W        W 2559   1.996   4.907   5.470
 1563W        W 2560   5.750   2.507   0.973
 1564W        W 2561   4.341   5.036   5.471
 1565W        W 2562   2.825   2.200   6.204
 1566W        W 2563   1.854   6.310   1.964
 1567W        W 2564   2.396   3.711   4.433
 1568W        W 2565   5.355   5.760   2.821
 1569W        W 2566   0.976   1.439   4.002
 1570W        W 2567   7.273   7.337   2.470
 1571W        W 2568   3.956   4.219   3.239
 1572W        W 2569   5.615   5.389   6.696
 1573W        W 2570   1.852   2.623   0.945
 1574W        W 2571   2.930   5.461   4.011
 1575W        W 2572   1.062   5.410   5.654
 1576W        W 2573   5.755   2.228   5.626
 1577W        W 2574   2.636   4.983   4.683
 1578W        W 2575   2.501   0.937   1.859
 1579W        W 2576   2.227   6.370   2.918
 1580W        W 2577   1.625   5.966   1.675
 1581W        W 2578   3.045   3.393   6.827
 1582W        W 2579   2.024   1.062   2.742
 1583W        W 2580   2.537   2.355   5.375
 1584W        W 2581   2.064   1.666   1.600
 1585W        W 2582   6.212   7.991   7.986
 1586W        W 2583   2.748   5.317   6.995
 1587W        W 2584   5.817   5.791   2.106
 1588W        W 2585   2.824   3.039   4.135
 1589W        W 2586   7.463   6.287   3.704
 1590W        W 2587   3.501   7.492   4.069
 1591W        W 2588   3.296   6.598   3.727
 1592W        W 2589   2.996   2.085   5.230
 1593W        W 2590   0.641   0.661   6.299
 1594W        W 2591   1.881   2.160   2.181
 1595W        W 2592   3.902   1.731   7.950
 1596W        W 2593   4.315   4.526   7.216
 1597W        W 2594   1.413   6.255   7.703
 1598W        W 2595   4.200   3.581   5.852
 1599W        W 2596   7.050   1.268   0.765
 1600W        W 2597   3.606   4.560   0.335
 1601W        W 2598   5.756   1.649   4.813
 1602W        W 2599   4.908   5.096   0.384
 1603W        W 2600   6.583   2.115   0.562
 1604W        W 2601   0.915   2.762   6.967
 1605W        W 2602   0.385   1.253   6.731
 1606W        W 2603   4.272   4.852   4.011
 1607W        W 2604   5.931   2.919   3.927
 1608W        W 2605   6.785   4.745   3.396
 1609W        W 2606   7.231   3.766   6.609
 1610W        W 2607   4.643   4.182   7.437
 1611W        W 2608   1.845   5.268   2.837
 1612W        W 2609   1.201   4.281   1.095
 1613W        W 2610   4.353   2.638   2.344
 1614W        W 2611   4.705   6.015   5.521
 1615W        W 2612   4.063   1.083   5.576
 1616W        W 2613   2.163   0.880   3.598
 1617W        W 2614   7.182   6.310   5.055
 1618W        W 2615   2.607   4.298   0.359
 1619W        W 2616   3.346   6.492   1.371
 1620W        W 2617   1.386   2.950   6.877
 1621W        W 2618   3.538   1.421   4.370
 1622W        W 2619   1.992   6.909   4.746
 1623W        W 2620   0.788   1.159   6.278
 1624W        W 2621   1.714   1.356   6.545
 1625W        W 2622   2.523   5.688   4.163
 1626W        W 2623   1.015   4.101   5.593
 1627W        W 2624   1.235   1.820   3.781
 1628W        W 2625   5.181   0.570   1.155
 1629W        W 2626   4.070   2.651   5.476
 1630W        W 2627   6.000   0.903   3.650
 1631W        W 2628   1.437   0.799   5.913
 1632W        W 2629   6.423   6.069   5.837
 1633W        W 2630   5.780   0.656   2.099
 1634W        W 2631   5.686   6.875   1.962
 1635W        W 2632   2.144   2.582   3.548
 1636W        W 2633   4.481   2.573   3.797
 1637W        W 2634   2.849   1.683   6.055
 1638W        W 2635   3.027   5.048   4.278
 1639W        W 2636   5.320   6.106   4.304
 1640W        W 2637   6.046   5.269   2.930
 1641W        W 2638   7.455   3.429   0.495
 1642W        W 2639   3.659   5.839   3.967
 1643W        W 2640   1.597   6.803   1.066
 1644W        W 2641   2.466   1.858   6.311
 1645W        W 2642   3.124   3.976   5.711
 1646W        W 2643   7.318   2.490   2.776
 1647W        W 2644   0.895   2.409   5.100
 1648W        W 2645   2.405   5.884   5.406
 1649W        W 2646   7.273   5.140   2.599
 1650W        W 2647   5.646   7.630   3.483
 1651W        W 2648   2.113   6.933   5.250
 1652W        W 2649   1.666   5.686   3.946
 1653W        W 2650   0.560   2.585   0.745
 1654W        W 2651   4.319   4.908   5.997
 1655W        W 2652   6.776   4.526   2.912
 1656W        W 2653   0.339   1.454   0.397
 1657W        W 2654   2.308   1.906   6.794
 1658W        W 2655   0.660   3.862   2.701
 1659W        W 2656   5.379   4.168   5.165
 1660W        W 2657   7.107   0.350   0.874
 1661W        W 2658   3.888   7.109   3.400
 1662W        W 2659   4.531   7.056   1.008
 1663W        W 2660   4.763   4.577   2.906
 1664W        W 2661   2.100   6.047   0.870
 1665W        W 2662   3.017   5.067   5.448
 1666W        W 2663   0.353   2.651   0.284
 1667W        W 2664   2.736   4.872   2.852
 1668W        W 2665   2.156   3.185   2.002
 1669W        W 2666   6.146   1.004   6.551
 1670W        W 2667   7.403   6.507   6.524
 1671W        W 2668   0.784   0.399   4.668
 1672W        W 2669   4.215   6.322   2.771
 1673W        W 2670   4.063   2.141   2.605
 1674W        W 2671   0.987   0.415   1.526
 1675W        W 2672   4.932   4.336   5.911
 1676W        W 2673   4.928   5.986   3.029
 1677W        W 2674   2.001   3.425   4.277
 1678W        W 2675   1.450   0.662   7.293
 1679W        W 2676   4.127   5.816   1.557
 1680W        W 2677   0.862   3.147   6.640
 1681W        W 2678   3.029   3.967   5.040
 1682W        W 2679   4.598   0.171   1.908
 1683W        W 2680   0.729   6.174   4.747
 1684W        W 2681   6.040   2.018   7.863
 1685W        W 2682   5.964   6.972   2.388
 1686W        W 2683   3.879   6.226   0.671
 1687W        W 2684   4.756   0.724   0.432
 1688W        W 2685   2.327   4.083   6.954
 1689W        W 2686   4.293   4.085   5.927
 1690W        W 2687   4.558   1.744   1.370
 1691W        W 2688   2.942   1.908   3.815
 1692W        W 2689   1.713   0.758   4.484
 1693W        W 2690   1.188   4.236   1.597
 1694W        W 2691   1.454   0.987   2.008
 1695W        W 2692   0.543   5.721   5.356
 1696W        W 2693   0.591   0.896   2.165
 1697W        W 2694   5.356   3.312   0.725
 1698W        W 2695   4.434   3.553   4.529
 1699W        W 2696   4.988   3.807   1.122
 1700W        W 2697   2.027   5.676   4.297
 1701W        W 2698   3.900   3.068   1.682
 1702W        W 2699   6.233   1.577   7.707
 1703W        W 2700   3.908   7.226   4.254
 1704W        W 2701   0.422   6.535   5.008
 1705W        W 2702   0.521   2.619   1.614
 1706W        W 2703   2.231   6.116   0.361
 1707W        W 2704   2.405   5.725   0.102
 1708W        W 2705   1.696   4.170   4.034
 1709W        W 2706   1.100   3.364   4.819
 1710W        W 2707   2.210   5.406   5.475
 1711W        W 2708   6.110   4.492   2.890
 1712W        W 2709   4.134   4.180   6.410
 1713W        W 2710   4.750   1.214   0.245
 1714W        W 2711   0.519   6.034   2.490
 1715W        W 2712   4.728   5.324   6.757
 1716W        W 2713   4.570   1.396   6.589
 1717W        W 2714   0.038   5.723   6.063
 1718W        W 2715   7.162   7.562   3.982
 1719W        W 2716   6.022   7.117   5.633
 1720W        W 2717   5.647   0.420   3.008
 1721W        W 2718   5.377   7.065   4.454
 1722W        W 2719   5.930   2.443   2.681
 1723W        W 2720   5.694   1.905   5.240
 1724W        W 2721   7.425   6.116   5.872
 1725W        W 2722   2.139   1.291   1.931
 1726W        W 2723   4.502   4.236   0.407
 1727W        W 2724   0.718   6.757   7.411
 1728W        W 2725   2.541   5.329   0.904
 1729W        W 2726   1.415   7.146   1.454
 1730W        W 2727   4.487   5.832   4.504
 1731W        W 2728   1.903   0.405   7.250
 1732W        W 2729   5.894   2.997   7.066
 1733W        W 2730   2.472   6.350   1.247
 1734W        W 2731   4.693   1.728   0.447
 1735W        W 2732   7.408   5.991   0.992
 1736W        W 2733   3.690   1.737   6.871
 1737W        W 2734   4.266   4.402   4.283
 1738W        W 2735   3.249   2.492   1.117
 1739W        W 2736   2.987   6.206   3.559
 1740W        W 2737   3.314   4.031   7.309
 1741W        W 2738   4.299   2.865   0.418
 1742W        W 2739   4.807   6.542   6.964
 1743W        W 2740   3.838   6.508   2.222
 1744W        W 2741   7.608   3.967   1.768
 1745W        W 2742   1.655   1.756   7.344
 1746W        W 2743   7.005   5.402   7.577
 1747W        W 2744   1.088   4.591   7.502
 1748W        W 2745   3.449   3.147   6.613
 1749W        W 2746   0.572   4.709   6.611
 1750W        W 2747   0.688   5.939   6.232
 1751W        W 2748   2.566   4.378   2.825
 1752W        W 2749   6.383   3.529   1.519
 1753W        W 2750   2.634   3.895   4.027
 1754W        W 2751   4.363   2.363   4.901
 1755W        W 2752   3.131   4.000   2.118
 1756W        W 2753   7.454   6.063   0.482
 1757W        W 2754   0.851   2.710   3.589
 1758W        W 2755   5.789   1.445   1.748
 1759W        W 2756   2.546   1.537   7.074
 1760W        W 2757   6.711   7.844   7.887
 1761W        W 2758   6.786   3.559   4.720
 1762W        W 2759   3.422   6.932   5.022
 1763W        W 2760   3.166   1.768   4.255
 1764W        W 2761   1.801   6.986   3.306
 1765W        W 2762   4.500   2.140   3.515
 1766W        W 2763   4.786   0.792   5.981
 1767W        W 2764   3.074   2.151   4.675
 1768W        W 2765   6.130   6.971   1.728
 1769W        W 2766   3.861   4.986   1.548
 1770W        W 2767   7.926   3.383   0.653
 1771W        W 2768   1.363   1.595   0.318
 1772W        W 2769   2.318   6.393   7.030
 1773W        W 2770   3.785   4.772   2.047
 1774W        W 2771   6.602   1.887   5.718
 1775W        W 2772   2.328   2.289   3.175
 1776W        W 2773   6.233   4.295   1.578
 1777W        W 2774   4.567   3.783   7.728
 1778W        W 2775   0.205   6.680   7.555
 1779W        W 2776   6.689   2.279   6.045
 1780W        W 2777   6.099   7.303   5.141
 1781W        W 2778   5.977   6.606   2.769
 1782W        W 2779   4.269   4.308   0.843
 1783W        W 2780   3.629   5.710   4.485
 1784W        W 2781   0.139   3.479   4.240
 1785W        W 2782   7.550   1.840   3.218
 1786W        W 2783   5.623   1.136   2.903
 1787W        W 2784   5.774   3.835   3.483
 1788W        W 2785   2.238   1.184   5.833
 1789W        W 2786   7.005   4.020   4.986
 1790W        W 2787   1.283   3.574   4.374
 1791W        W 2788   4.557   4.189   1.251
 1792W        W 2789   0.564   2.984   7.272
 1793W        W 2790   0.286   5.948   2.027
 1794W        W 2791   4.950   3.191   5.334
 1795W        W 2792   3.239   6.088   1.817
 1796W        W 2793   0.445   1.222   5.842
 1797W        W 2794   2.959   6.546   6.284
 1798W        W 2795   0.596   5.365   1.137
 1799W        W 2796   5.554   4.732   4.245
 1800W        W 2797   4.832   5.572   4.871
 1801W        W 2798   7.043   6.342   7.784
 1802W        W 2799   1.026   4.080   3.130
 1803W        W 2800   4.085   2.245   5.776
 1804W        W 2801   6.028   3.457   1.877
 1805W        W 2802   3.408   5.136   5.784
 1806W        W 2803   1.541   3.488   6.108
 1807W        W 2804   5.523   7.226   1.080
 1808W        W 2805   6.111   2.057   4.972
 1809W        W 2806   1.073   4.704   1.424
 1810W        W 2807   6.693   4.351   6.322
 1811W        W 2808   1.188   5.848   1.863
 1812W        W 2809   0.070   5.720   2.730
 1813W        W 2810   4.159   4.901   6.911
 1814W        W 2811   2.355   1.535   1.200
 1815W        W 2812   5.844   1.410   0.716
 1816W        W 2813   3.896   1.817   2.056
 1817W        W 2814   7.138   4.538   0.924
 1818W        W 2815   5.329   4.289   0.856
 1819W        W 2816   5.045   2.809   6.517
 1820W        W 2817   2.336   2.173   5.894
 1821W        W 2818   1.127   3.072   3.363
 1822W        W 2819   3.342   1.367   6.779
 1823W        W 2820   7.026   7.138   0.191
 1824W        W 2821   5.801   2.530   0.485
 1825W        W 2822   7.287   4.874   3.433
 1826W        W 2823   0.058   4.985   3.137
 1827W        W 2824   5.598   5.297   2.043
 1828W        W 2825   0.656   5.987   6.749
 1829W        W 2826   1.569   3.190   4.139
 1830W        W 2827   4.576   7.563   1.874
 1831W        W 2828   1.907   4.874   2.502
 1832W        W 2829   5.481   5.496   1.525
 1833W        W 2830   2.300   5.443   6.732
 1834W        W 2831   7.983   6.134   2.389
 1835W        W 2832   5.259   4.756   1.144
 1836W        W 2833   1.132   2.574   2.764
 1837W        W 2834   6.612   0.813   2.900
 1838W        W 2835   5.312   1.289   6.626
 1839W        W 2836   6.027   0.653   5.551
 1840W        W 2837   6.692   5.633   6.021
 1841W        W 2838   1.548   6.130   4.868
 1842W        W 2839   3.302   2.306   6.421
 1843W        W 2840   7.630   4.202   5.752
 1844W        W 2841   7.682   2.343   3.103
 1845W        W 2842   2.686   6.471   6.696
 1846W        W 2843   6.774   1.037   5.755
 1847W        W 2844   6.467   2.711   6.690
 1848W        W 2845   2.103   2.741   3.059
 1849W        W 2846   0.585   3.588   4.904
 1850W        W 2847   5.516   3.215   0.220
 1851W        W 2848   6.530   0.924   6.218
 1852W        W 2849   1.697   4.756   5.057
 1853W        W 2850   2.189   3.197   2.503
 1854W        W 2851   3.019   6.139   5.952
 1855W        W 2852   4.733   2.393   6.588
 1856W        W 2853   5.926   3.850   1.546
 1857W        W 2854   5.480   0.566   0.212
 1858W        W 2855   4.071   4.710   6.409
 1859W        W 2856   2.358   0.429   5.467
 1860W        W 2857   4.624   1.741   3.864
 1861W        W 2858   4.394   1.057   2.746
 1862W        W 2859   3.186   0.807   7.306
 1863W        W 2860   3.420   5.405   4.113
 1864W        W 2861   6.527   1.131   2.005
 1865W        W 2862   3.978   3.549   4.325
 1866W        W 2863   0.290   5.244   2.757
 1867W        W 2864   2.191   3.251   1.489
 1868W        W 2865   0.874   5.596   1.500
 1869W        W 2866   2.954   5.165   1.820
 1870W        W 2867   6.848   5.735   7.217
 1871W        W 2868   0.095   6.002   5.437
 1872W        W 2869   1.093   1.792   1.349
 1873W        W 2870   3.028   5.554   0.964
 1874W        W 2871   2.022   6.511   4.104
 1875W        W 2872   2.090   0.384   4.483
 1876W        W 2873   4.671   3.779   0.238
 1877W        W 2874   1.245   3.852   5.962
 1878W        W 2875   7.174   6.839   6.880
 1879W        W 2876   5.122   7.129   5.747
 1880W        W 2877   3.759   4.299   0.829
 1881W        W 2878   4.053   1.363   4.403
 1882W        W 2879   3.607   6.969   2.943
 1883W        W 2880   0.967   4.981   5.368
 1884W        W 2881   0.173   5.882   7.417
 1885W        W 2882   6.869   2.590   2.549
 1886W        W 2883   7.100   1.713   7.774
 1887W        W 2884   0.797   2.261   3.002
 1888W        W 2885   3.121   7.058   3.857
 1889W        W 2886   2.012   3.456   3.750
 1890W        W 2887   6.836   4.774   1.261
 1891W        W 2888   6.458   1.220   7.368
 1892W        W 2889   3.252   3.518   1.213
 1893W        W 2890   7.125   6.086   2.799
 1894W        W 2891   2.390   3.616   1.835
 1895W        W 2892   3.151   3.990   4.510
 1896W        W 2893   5.889   0.827   3.170
 1897W        W 2894   2.152   5.831   3.795
 1898W        W 2895   3.950   5.178   6.244
 1899W        W 2896   6.279   0.022   2.736
 1900W        W 2897   4.611   4.483   1.664
 1901W        W 2898   6.495   1.594   2.843
 1902W        W 2899   3.523   5.471   3.615
 1903W        W 2900   1.133   3.087   4.377
 1904W        W 2901   2.869   1.684   4.659
 1905W        W 2902   4.968   2.183   0.762
 1906W        W 2903   1.254   5.406   2.774
 1907W        W 2904   5.465   1.090   0.837
 1908W        W 2905   2.122   4.843   2.018
 1909W        W 2906   6.999   0.661   2.569
 1910W        W 2907   4.331   4.414   2.093
 1911W        W 2908   2.150   6.969   4.246
 1912W        W 2909   4.699   1.645   7.499
 1913W        W 2910   7.544   6.728   4.005
 1914W        W 2911   5.504   7.018   7.303
 1915W        W 2912   5.115   0.851   4.084
 1916W        W 2913   4.760   6.739   3.563
 1917W        W 2914   1.224   4.394   3.986
 1918W        W 2915   7.712   3.609   3.494
 1919W        W 2916   1.187   1.273   0.701
 1920W        W 2917   6.020   6.732   6.598
 1921W        W 2918   1.508   3.459   6.977
 1922W        W 2919   1.862   1.358   1.252
 1923W        W 2920   1.246   6.736   7.593
 1924W        W 2921   2.142   2.783   1.707
 1925W        W 2922   2.049   7.042   7.641
 1926W        W 2923   1.823   4.427   5.494
 1927W        W 2924   4.460   5.817   5.975
 1928W        W 2925   2.995   3.622   2.493
 1929W        W 2926   1.092   6.013   7.016
 1930W        W 2927   1.647   0.682   0.647
 1931W        W 2928   1.712   5.267   4.235
 1932W        W 2929   1.560   1.037   6.925
 1933W        W 2930   6.512   6.344   2.227
 1934W        W 2931   3.934   6.275   3.925
 1935W        W 2932   7.911   6.413   6.671
 1936W        W 2933   4.100   5.790   6.782
 1937W        W 2934   4.995   4.809   3.305
 1938W        W 2935   3.301   3.529   7.275
 1939W        W 2936   0.389   5.617   7.015
 1940W        W 2937   1.010   3.856   1.337
 1941W        W 2938   1.663   1.928   4.014
 1942W        W 2939   0.195   5.571   0.891
 1943W        W 2940   5.708   5.055   5.110
 1944W        W 2941   4.001   3.064   4.520
 1945W        W 2942   6.099   6.603   2.091
 1946W        W 2943   1.592   5.528   1.952
 1947W        W 2944   6.798   6.765   5.624
 1948W        W 2945   5.923   1.158   4.798
 1949W        W 2946   4.656   1.935   4.829
 1950W        W 2947   4.666   0.336   3.837
 1951W        W 2948   3.342   2.464   5.017
 1952W        W 2949   1.861   0.525   5.331
 1953W        W 2950   1.611   6.733   1.773
 1954W        W 2951   5.942   4.736   1.522
 1955W        W 2952   5.622   2.182   0.135
 1956W        W 2953   5.648   6.713   1.257
 1957W        W 2954   0.669   3.037   1.381
 1958W        W 2955   6.268   2.967   7.428
 1959W        W 2956   4.611   1.647   1.935
 1960W        W 2957   7.098   2.175   6.391
 1961W        W 2958   5.514   0.834   4.806
 1962W        W 2959   0.489   2.489   6.088
 1963W        W 2960   7.999   7.227   6.870
 1964W        W 2961   1.883   5.556   6.275
 1965W        W 2962   1.207   2.006   5.087
 1966W        W 2963   7.193   7.515   3.455
 1967W        W 2964   5.415   1.317   4.690
 1968W        W 2965   2.014   7.060   5.734
 1969W        W 2966   5.811   2.186   3.111
 1970W        W 2967   4.487   2.189   0.556
 1971W        W 2968   1.151   1.333   1.688
 1972W        W 2969   6.626   3.262   2.442
 1973W        W 2970   1.590   5.974   7.136
 1974W        W 2971   7.707   4.761   2.434
 1975W        W 2972   1.259   1.228   6.116
 1976W        W 2973   0.245   6.752   1.538
 1977W        W 2974   7.528   6.057   6.790
 1978W        W 2975   4.839   5.002   5.319
 1979W        W 2976   3.697   2.121   0.210
 1980W        W 2977   4.073   6.033   4.720
 1981W        W 2978   0.833   2.991   1.883
 1982W        W 2979   2.263   5.401   7.617
 1983W        W 2980   1.250   1.770   6.558
 1984W        W 2981   2.872   1.815   0.487
 1985W        W 2982   7.824   6.295   1.522
 1986W        W 2983   3.422   5.979   5.343
 1987W        W 2984   6.147   4.941   2.551
 1988W        W 2985   5.899   6.889   4.474
 1989W        W 2986   6.172   2.565   7.081
 1990W        W 2987   3.228   5.072   3.791
 1991W        W 2988   1.146   5.114   6.415
 1992W        W 2989   2.115   4.411   0.500
 1993W        W 2990   6.296   1.340   2.406
 1994W        W 2991   3.990   4.838   4.419
 1995W        W 2992   2.350   5.282   4.387
 1996W        W 2993   1.142   5.966   6.495
 1997W        W 2994   2.616   4.272   3.685
 1998W        W 2995   4.262   3.858   5.453
 1999W        W 2996   7.328   6.914   2.161
 2000W        W 2997   4.044   2.927   5.044
 2001W        W 2998   0.445   1.522   3.832
 2002W        W 2999   0.630   1.083   4.042
 2003W        W 3000   6.155   0.512   2.879
 2004W        W 3001   2.146   2.065   3.602
 2005W        W 3002   2.099   5.331   0.078
 2006W        W 3003   7.045   5.043   0.846
 2007W        W 3004   4.299   3.467   0.003
 2008W        W 3005   2.969   1.232   7.116
 2009W        W 3006   5.039   6.768   6.563
 2010W        W 3007   7.407   3.840   3.152
 2011W        W 3008   0.474   1.532   6.261
 2012W        W 3009   0.832   2.608   1.181
 2013W        W 3010   6.810   3.259   1.404
 2014W        W 3011   6.452   2.294   0.059
 2015W        W 3012   2.068   7.251   2.378
 2016W        W 3013   1.326   6.332   3.606
 2017W        W 3014   0.894   0.645   0.130
 2018W        W 3015   6.366   7.056   4.309
 2019W        W 3016   6.863   3.478   6.365
 2020W        W 3017   4.186   3.570   1.700
 2021W        W 3018   6.912   7.283   2.082
 2022W        W 3019   2.165   4.863   0.276
 2023W        W 3020   5.806   2.415   6.116
 2024W        W 3021   4.340   1.862   2.286
 2025W        W 3022   5.805   3.317   7.453
 2026W        W 3023   5.368   1.616   3.596
 2027W        W 3024   4.689   4.051   1.998
 2028W        W 3025   6.633   6.502   6.026
 2029W        W 3026   2.608   2.049   4.913
 2030W        W 3027   1.624   4.701   1.473
 2031W        W 3028   1.723   4.752   0.557
 2032W        W 3029   4.305   3.038   3.082
 2033W        W 3030   0.725   2.751   4.334
 2034W        W 3031   0.774   3.440   2.092
 2035W        W 3032   4.057   0.843   7.697
 2036W        W 3033   6.722   1.585   2.109
 2037W        W 3034   2.231   6.205   6.562
 2038W        W 3035   0.954   3.836   4.652
 2039W        W 3036   4.010   2.931   6.382
 2040W        W 3037   4.132   1.072   4.798
 2041W        W 3038   6.131   3.139   2.259
 2042W        W 3039   1.091   4.672   4.407
 2043W        W 3040   2.952   5.055   6.603
 2044W        W 3041   6.365   0.531   3.773
 2045W        W 3042   2.865   5.293   3.077
 2046W        W 3043   6.643   7.141   6.911
 2047W        W 3044   6.072   5.573   4.118
 2048W        W 3045   5.270   4.079   6.520
 2049W        W 3046   0.631   2.831   5.122
 2050W        W 3047   3.730   7.749   1.874
 2051W        W 3048   3.379   1.744   4.716
 2052W        W 3049   6.115   5.495   6.619
 2053W        W 3050   5.304   2.630   7.605
 2054W        W 3051   0.399   4.267   2.475
 2055W        W 3052   6.640   2.248   6.587
 2056W        W 3053   7.317   3.171   4.204
 2057W        W 3054   0.629   2.580   2.111
 2058W        W 3055   6.701   5.725   5.513
 2059W        W 3056   5.095   4.446   4.838
 2060W        W 3057   4.298   3.444   0.824
 2061W        W 3058   6.039   0.389   7.091
 2062W        W 3059   2.264   5.387   1.649
 2063W        W 3060   5.403   5.586   4.285
 2064W        W 3061   5.051   4.291   1.305
 2065W        W 3062   3.154   0.691   3.393
 2066W        W 3063   7.168   5.832   4.133
 2067W        W 3064   3.929   0.184   1.281
 2068W        W 3065   1.074   6.964   0.015
 2069W        W 3066   2.031   4.213   4.445
 2070W        W 3067   6.650   7.703   1.208
 2071W        W 3068   5.318   1.379   1.615
 2072W        W 3069   1.524   3.868   3.149
 2073W        W 3070   2.306   1.177   7.329
 2074W        W 3071   3.649   5.509   6.014
 2075W        W 3072   6.017   7.900   3.231
 2076W        W 3073   5.954   2.548   6.603
 2077W        W 3074   5.214   7.679   1.002
 2078W        W 3075   0.728   2.561   6.532
 2079W        W 3076   6.937   7.074   3.320
 2080W        W 3077   1.250   0.661   6.816
 2081W        W 3078   6.784   2.743   1.221
 2082W        W 3079   0.940   6.982   4.120
 2083W        W 3080   7.792   3.099   3.504
 2084W        W 3081   5.897   4.418   4.464
 2085W        W 3082   6.719   7.274   7.800
 2086W        W 3083   3.388   2.214   1.826
 2087W        W 3084   3.002   1.051   3.730
 2088W        W 3085   2.388   1.048   4.966
 2089W        W 3086   5.393   2.776   6.132
 2090W        W 3087   1.225   5.991   1.353
 2091W        W 3088   5.909   7.821   7.139
 2092W        W 3089   3.457   4.911   2.910
 2093W        W 3090   6.450   1.219   4.990
 2094W        W 3091   7.537   3.427   1.009
 2095W        W 3092   7.113   4.460   3.776
 2096W        W 3093   1.010   0.837   1.872
 2097W        W 3094   7.084   0.733   0.538
 2098W        W 3095   3.660   5.046   0.473
 2099W        W 3096   5.444   2.860   0.562
 2100W        W 3097   2.104   2.475   4.056
 2101W        W 3098   6.402   6.526   0.175
 2102W        W 3099   0.600   6.894   6.887
 2103W        W 3100   1.719   7.233   0.779
 2104W        W 3101   1.393   2.497   5.246
 2105W        W 3102   1.890   0.931   4.947
 2106W        W 3103   5.692   4.123   6.830
 2107W        W 3104   0.682   3.843   5.910
 2108W        W 3105   6.470   0.716   4.842
 2109W        W 3106   4.815   6.951   4.379
 2110W        W 3107   6.625   5.289   4.726
 2111W        W 3108   5.023   0.793   7.989
 2112W        W 3109   3.396   5.229   0.869
 2113W        W 3110   5.759   3.926   4.465
 2114W        W 3111   4.830   1.313   4.081
 2115W        W 3112   3.602   5.568   4.981
 2116W        W 3113   4.830   2.231   3.900
 2117W        W 3114   7.140   6.937   4.244
 2118W        W 3115   1.975   0.737   5.878
 2119W        W 3116   1.000   6.676   2.040
 2120W        W 3117   1.262   0.314   0.512
 2121W        W 3118   6.667   4.047   5.826
 2122W        W 3119   2.618   5.723   0.602
 2123W        W 3120   7.774   2.384   2.596
 2124W        W 3121   2.451   4.344   0.855
 2125W        W 3122   5.282   3.227   6.406
 2126W        W 3123   3.022   2.673   6.150
 2127W        W 3124   1.467   3.368   3.131
 2128W        W 3125   5.132   4.236   2.713
 2129W        W 3126   2.530   6.580   4.186
 2130W        W 3127   7.311   2.745   6.439
 2131W        W 3128   4.679   6.277   2.209
 2132W        W 3129   4.086   1.227   0.021
 2133W        W 3130   6.450   1.094   4.499
 2134W        W 3131   4.445   1.087   3.273
 2135W        W 3132   4.585   4.215   5.539
 2136W        W 3133   1.614   5.956   4.385
 2137W        W 3134   0.530   1.255   3.397
 2138W        W 3135   4.868   0.445   1.546
 2139W        W 3136   6.481   7.066   7.404
 2140W        W 3137   5.194   6.354   0.557
 2141W        W 3138   1.757   0.566   2.207
 2142W        W 3139   1.025   2.555   1.702
 2143W        W 3140   5.001   3.452   2.396
 2144W        W 3141   4.987   7.393   4.575
 2145W        W 3142   6.512   2.754   4.478
 2146W        W 3143   4.486   1.145   1.881
 2147W        W 3144   3.200   6.230   4.560
 2148W        W 3145   6.010   6.204   2.398
 2149W        W 3146   3.815   6.770   1.590
 2150W        W 3147   0.444   6.242   4.168
 2151W        W 3148   0.227   5.026   6.437
 2152W        W 3149   5.607   6.603   2.443
 2153W        W 3150   7.659   2.717   5.206
 2154W        W 3151   6.570   1.401   0.668
 2155W        W 3152   6.467   3.836   7.054
 2156W        W 3153   6.320   5.689   4.530
 2157W        W 3154   4.774   1.318   2.944
 2158W        W 3155   1.871   7.112   3.832
 2159W        W 3156   0.919   0.861   5.889
 2160W        W 3157   3.815   6.479   1.129
 2161W        W 3158   5.269   0.111   1.406
 2162W        W 3159   5.657   4.833   5.608
 2163W        W 3160   7.181   4.716   1.625
 2164W        W 3161   7.273   2.592   1.091
 2165W        W 3162   6.671   0.905   0.778
 2166W        W 3163   3.555   1.282   7.951
 2167W        W 3164   4.841   0.920   2.446
 2168W        W 3165   4.333   1.200   3.985
 2169W        W 3166   6.899   0.587   5.529
 2170W        W 3167   1.251   2.421   3.775
 2171W        W 3168   2.879   2.178   1.718
 2172W        W 3169   4.142   3.397   3.393
 2173W        W 3170   4.052   1.051   7.224
 2174W        W 3171   2.680   1.673   2.525
 2175W        W 3172   6.440   6.995   5.886
 2176W        W 3173   4.838   2.044   1.719
 2177W        W 3174   5.761   6.627   3.592
 2178W        W 3175   3.853   3.711   0.076
 2179W        W 3176   1.302   2.117   7.496
 2180W        W 3177   1.597   1.233   4.614
 2181W        W 3178   0.040   6.797   4.258
 2182W        W 3179   7.585   2.995   1.275
 2183W        W 3180   4.129   3.224   7.193
 2184W        W 3181   2.159   1.978   4.139
 2185W        W 3182   4.755   5.956   3.997
 2186W        W 3183   2.037   3.458   6.027
 2187W        W 3184   6.141   5.709   2.693
 2188W        W 3185   6.599   6.103   4.374
 2189W        W 3186   6.266   1.059   5.760
 2190W        W 3187   3.780   6.637   3.599
 2191W        W 3188   1.533   2.804   2.998
 2192W        W 3189   7.082   5.573   6.335
 2193W        W 3190   7.483   1.734   4.244
 2194W        W 3191   2.399   5.047   2.466
 2195W        W 3192   1.830   5.526   3.502
 2196W        W 3193   6.836   5.169   4.278
 2197W        W 3194   4.841   6.792   6.089
 2198W        W 3195   1.510   1.675   0.832
 2199W        W 3196   2.212   5.897   7.646
 2200W        W 3197   1.550   2.141   5.538
 2201W        W 3198   6.190   7.075   2.833
 2202W        W 3199   6.825   5.132   6.301
 2203W        W 3200   0.139   6.280   4.611
 2204W        W 3201   5.718   6.461   4.295
 2205W        W 3202   4.138   6.295   3.463
 2206W        W 3203   1.512   3.646   2.140
 2207W        W 3204   5.822   5.300   3.403
 2208W        W 3205   5.157   6.027   3.631
 2209W        W 3206   1.844   0.838   1.178
 2210W        W 3207   6.790   7.517   2.526
 2211W        W 3208   6.283   4.006   1.155
 2212W        W 3209   1.794   2.637   4.989
 2213W        W 3210   6.412   7.221   2.395
 2214W        W 3211   2.787   6.580   5.806
 2215W        W 3212   4.128   7.349   1.159
 2216W        W 3213   6.371   1.828   2.410
 2217W        W 3214   3.643   3.685   3.875
 2218W        W 3215   3.604   5.892   6.324
 2219W        W 3216   3.880   1.045   0.598
 2220W        W 3217   5.829   4.397   1.903
 2221W        W 3218   7.570   5.609   2.637
 2222W        W 3219   4.106   3.016   2.623
 2223W        W 3220   1.223   1.551   4.813
 2224W        W 3221   3.629   5.651   7.655
 2225W        W 3222   6.402   3.394   5.087
 2226W        W 3223   5.793   7.423   1.503
 2227W        W 3224   4.073   0.872   4.290
 2228W        W 3225   3.134   2.225   6.940
 2229W        W 3226   2.699   6.665   2.874
 2230W        W 3227   5.733   3.693   2.981
 2231W        W 3228   2.431   4.501   4.706
 2232W        W 3229   2.042   4.189   6.507
 2233W        W 3230   5.341   2.968   1.600
 2234W        W 3231   5.806   2.035   6.483
 2235W        W 3232   2.817   5.462   4.534
 2236W        W 3233   4.956   1.822   5.882
 2237W        W 3234   7.351   7.019   3.015
 2238W        W 3235   5.827   4.063   4.944
 2239W        W 3236   5.017   3.183   4.034
 2240W        W 3237   2.755   0.995   3.268
 2241W        W 3238   1.200   2.602   4.269
 2242W        W 3239   2.043   3.569   3.247
 2243W        W 3240   6.201   4.370   6.130
 2244W        W 3241   5.190   3.261   4.891
 2245W        W 3242   5.086   5.466   3.171
 2246W        W 3243   7.149   3.529   5.136
 2247W        W 3244   3.884   5.345   3.253
 2248W        W 3245   1.728   3.210   2.271
 2249W        W 3246   2.992   1.628   7.908
 2250W        W 3247   6.349   6.011   7.289
 2251W        W 3248   0.735   7.216   5.274
 2252W        W 3249   6.974   7.119   6.528
 2253W        W 3250   4.706   3.824   5.844
 2254W        W 3251   2.363   2.320   1.047
 2255W        W 3252   6.366   3.052   1.346
 2256W        W 3253   3.128   5.884   2.264
 2257W        W 3254   1.734   0.397   4.850
 2258W        W 3255   1.696   0.981   3.772
 2259W        W 3256   2.967   6.313   1.064
 2260W        W 3257   1.392   3.830   4.901
 2261W        W 3258   4.847   5.195   7.283
 2262W        W 3259   6.627   4.325   6.921
 2263W        W 3260   5.981   6.808   5.224
 2264W        W 3261   4.303   1.559   4.809
 2265W        W 3262   3.358   5.349   3.156
 2266W        W 3263   2.268   2.814   1.207
 2267W        W 3264   5.647   0.133   0.437
 2268W        W 3265   7.967   6.374   5.113
 2269W        W 3266   5.548   5.542   5.221
 2270W        W 3267   5.343   6.787   0.857
 2271W        W 3268   5.694   1.267   3.390
 2272W        W 3269   0.675   5.131   4.944
 2273W        W 3270   2.677   0.742   4.659
 2274W        W 3271   0.935   3.755   7.771
 2275W        W 3272   1.633   5.093   6.259
 2276W        W 3273   1.327   1.601   4.314
 2277W        W 3274   3.911   7.406   2.529
 2278W        W 3275   6.393   5.597   7.014
 2279W        W 3276   7.537   5.409   4.865
 2280W        W 3277   0.581   2.084   4.864
 2281W        W 3278   2.943   5.676   1.799
 2282W        W 3279   3.659   3.822   0.533
 2283W        W 3280   5.334   2.211   3.804
 2284W        W 3281   0.840   3.051   5.754
 2285W        W 3282   6.862   2.227   1.080
 2286W        W 3283   4.310   2.044   1.713
 2287W        W 3284   2.487   5.852   1.598
 2288W        W 3285   4.992   2.467   3.469
 2289W        W 3286   3.849   0.938   2.083
 2290W        W 3287   2.051   5.793   1.887
 2291W        W 3288   2.230   1.086   1.452
 2292W        W 3289   1.384   5.176   5.080
 2293W        W 3290   2.493   1.265   2.729
 2294W        W 3291   7.467   1.916   6.718
 2295W        W 3292   7.751   3.315   3.950
 2296W        W 3293   3.454   4.080   3.027
 2297W        W 3294   5.067   6.149   5.828
 2298W        W 3295   2.316   6.875   2.616
 2299W        W 3296   6.480   1.423   5.471
 2300W        W 3297   3.353   3.594   0.195
 2301W        W 3298   5.314   4.773   5.211
 2302W        W 3299   2.171   4.678   7.330
 2303W        W 3300   4.905   3.993   3.896
 2304W        W 3301   1.627   7.220   2.636
 2305W        W 3302   1.124   3.615   3.409
 2306W        W 3303   6.432   1.826   3.667
 2307W        W 3304   6.481   7.586   0.715
 2308W        W 3305   5.054   2.683   3.921
 2309W        W 3306   4.970   1.920   3.533
 2310W        W 3307   4.624   0.711   4.200
 2311W        W 3308   3.762   3.508   2.575
 2312W        W 3309   3.863   7.475   5.571
 2313W        W 3310   1.779   5.248   0.442
 2314W        W 3311   4.382   7.460   4.194
 2315W        W 3312   0.304   5.983   4.983
 2316W        W 3313   7.681   6.091   2.791
 2317W        W 3314   6.238   1.527   4.646
 2318W        W 3315   6.165   4.007   5.778
 2319W        W 3316   1.650   2.325   4.325
 2320W        W 3317   0.357   2.117   2.782
 2321W        W 3318   4.492   2.820   7.332
 2322W        W 3319   1.831   1.629   4.368
 2323W        W 3320   2.153   7.096   6.253
 2324W        W 3321   2.477   4.489   1.673
 2325W        W 3322   7.647   3.217   5.964
 2326W        W 3323   6.897   2.140   4.903
 2327W        W 3324   0.240   3.205   3.797
 2328W        W 3325   7.624   6.498   2.305
 2329W        W 3326   3.013   3.979   1.227
 2330W        W 3327   1.131   6.868   7.119
 2331W        W 3328   3.715   5.481   6.621
 2332W        W 3329   3.779   3.993   6.716
 2333W        W 3330   2.922   6.214   3.058
 2334W        W 3331   2.390   5.489   3.440
 2335W        W 3332   6.074   6.116   4.379
 2336W        W 3333   1.582   2.170   1.013
 2337W        W 3334   0.666   5.643   4.844
 2338W        W 3335   7.390   2.158   1.837
 2339W        W 3336   5.046   4.712   4.374
 2340W        W 3337   5.755   1.053   5.797
 2341W        W 3338   6.075   5.341   4.813
 2342W        W 3339   2.948   1.839   2.954
 2343W        W 3340   3.577   7.255   6.611
 2344W        W 3341   4.175   3.037   2.099
 2345W        W 3342   6.564   3.546   4.203
 2346W        W 3343   4.024   1.057   3.565
 2347W        W 3344   5.304   2.531   4.757
 2348W        W 3345   3.237   5.404   2.163
 2349W        W 3346   2.575   4.595   7.615
 2350W        W 3347   6.850   5.091   1.671
 2351W        W 3348   7.686   6.097   1.966
 2352W        W 3349   5.864   5.805   6.978
 2353W        W 3350   3.005   6.464   0.570
 2354W        W 3351   4.872   3.629   4.235
 2355W        W 3352   0.777   3.442   4.366
 2356W        W 3353   2.668   1.962   3.386
 2357W        W 3354   6.277   6.562   5.643
 2358W        W 3355   4.040   2.120   0.837
 2359W        W 3356   2.715   5.472   5.495
 2360W        W 3357   1.234   0.619   2.312
 2361W        W 3358   1.110   6.809   6.626
 2362W        W 3359   2.313   2.690   0.699
 2363W        W 3360   0.127   3.226   6.228
 2364W        W 3361   2.352   1.802   0.484
 2365W        W 3362   1.889   1.365   7.594
 2366W        W 3363   5.733   2.427   5.142
 2367W        W 3364   2.764   2.507   7.166
 2368W        W 3365   0.158   2.576   2.940
 2369W        W 3366   6.430   0.215   3.192
 2370W        W 3367   7.053   5.140   2.120
 2371W        W 3368   7.145   6.241   3.284
 2372W        W 3369   2.121   4.823   1.500
 2373W        W 3370   2.383   5.275   2.938
 2374W        W 3371   5.395   0.550   1.643
 2375W        W 3372   0.973   0.898   1.383
 2376W        W 3373   5.823   2.804   7.631
 2377W        W 3374   0.796   2.389   3.993
 2378W        W 3375   2.889   4.311   7.886
 2379W        W 3376   5.566   7.871   1.794
 2380W        W 3377   0.436   0.701   5.828
 2381W        W 3378   6.217   1.394   1.063
 2382W        W 3379   0.743   5.482   4.359
 2383W        W 3380   6.058   6.362   7.011
 2384W        W 3381   4.715   4.501   4.067
 2385W        W 3382   4.163   0.648   1.303
 2386W        W 3383   6.716   1.088   2.488
 2387W        W 3384   1.030   5.039   3.073
 2388W        W 3385   1.981   6.444   5.036
 2389W        W 3386   6.901   7.622   0.360
 2390W        W 3387   5.721   3.116   5.738
 2391W        W 3388   1.096   6.275   5.513
 2392W        W 3389   5.914   0.138   0.863
 2393W        W 3390   5.683   1.231   3.889
 2394W        W 3391   1.308   7.082   1.983
 2395W        W 3392   0.426   6.442   6.698
 2396W        W 3393   2.567   1.515   5.010
 2397W        W 3394   2.631   6.358   5.367
 2398W        W 3395   1.575   5.687   3.064
 2399W        W 3396   0.548   4.843   2.965
 2400W        W 3397   0.067   2.397   1.518
 2401W        W 3398   1.994   3.951   1.054
 2402W        W 3399   6.308   3.611   2.287
 2403W        W 3400   6.847   3.571   5.861
 2404W        W 3401   0.221   6.093   6.370
 2405W        W 3402   3.399   0.998   0.340
 2406W        W 3403   2.034   1.979   5.498
 2407W        W 3404   6.916   6.927   6.080
 2408W        W 3405   0.702   1.119   4.954
 2409W        W 3406   6.017   3.882   2.615
 2410W        W 3407   1.458   2.072   6.987
 2411W        W 3408   3.097   4.901   3.306
 2412W        W 3409   0.758   2.006   6.493
 2413W        W 3410   6.429   7.536   0.177
 2414W        W 3411   1.327   2.217   1.470
 2415W        W 3412   1.856   6.778   2.823
 2416W        W 3413   5.628   3.341   6.766
 2417W        W 3414   1.799   1.898   2.621
 2418W        W 3415   0.581   3.408   6.980
 2419W        W 3416   4.590   3.264   4.976
 2420W        W 3417   1.663   0.453   7.727
 2421W        W 3418   2.496   7.092   2.133
 2422W        W 3419   7.615   4.458   1.587
 2423W        W 3420   5.442   1.760   7.949
 2424W        W 3421   5.477   7.146   2.371
 2425W        W 3422   7.684   5.280   5.812
 2426W        W 3423   3.056   3.477   5.256
 2427W        W 3424   0.262   7.098   5.010
 2428W        W 3425   4.083   5.540   4.673
 2429W        W 3426   6.990   1.079   6.613
 2430W        W 3427   6.497   0.859   5.348
 2431W        W 3428   7.620   5.446   1.413
 2432W        W 3429   1.748   3.980   2.468
 2433W        W 3430   0.734   1.758   2.711
 2434W        W 3431   4.290   5.938   3.781
 2435W        W 3432   3.689   3.408   6.966
 2436W        W 3433   4.314   5.689   0.935
 2437W        W 3434   5.294   1.109   5.612
 2438W        W 3435   4.315   6.485   0.891
 2439W        W 3436   1.735   6.282   0.360
 2440W        W 3437   3.806   2.510   6.541
 2441W        W 3438   0.781   6.670   0.353
 2442W        W 3439   4.177   1.546   1.692
 2443W        W 3440   3.670   4.592   5.483
 2444W        W 3441   6.177   2.219   0.877
 2445W        W 3442   6.834   6.536   4.274
 2446W        W 3443   7.629   2.413   3.732
 2447W        W 3444   5.956   1.369   7.315
 2448W        W 3445   5.154   0.952   2.854
 2449W        W 3446   1.685   5.945   1.148
 2450W        W 3447   2.895   7.543   2.903
 2451W        W 3448   2.892   3.591   1.960
 2452W        W 3449   0.594   0.577   1.151
 2453W        W 3450   0.591   2.067   6.972
 2454W        W 3451   5.394   5.926   1.827
 2455W        W 3452   4.968   0.925   0.843
 2456W        W 3453   6.856   4.266   0.580
 2457W        W 3454   0.631   2.977   6.224
 2458W        W 3455   0.770   1.892   4.002
 2459W        W 3456   5.251   5.488   1.055
 2460W        W 3457   5.704   7.078   4.898
 2461W        W 3458   0.664   5.191   2.140
 2462W        W 3459   0.705   7.347   6.130
 2463W        W 3460   4.201   6.545   6.870
 2464W        W 3461   5.177   2.328   4.279
 2465W        W 3462   6.333   0.678   7.465
 2466W        W 3463   3.005   3.975   0.275
 2467W        W 3464   5.180   3.683   5.165
 2468W        W 3465   3.674   3.945   7.669
 2469W        W 3466   7.079   4.708   0.443
 2470W        W 3467   2.199   4.062   5.569
 2471W        W 3468   5.037   5.166   1.403
 2472W        W 3469   2.338   3.811   3.615
 2473W        W 3470   2.003   6.774   7.153
 2474W        W 3471   5.834   7.135   3.644
 2475W        W 3472   7.486   5.276   0.946
 2476W        W 3473   7.064   3.607   4.252
 2477W        W 3474   4.367   2.846   1.274
 2478W        W 3475   3.358   6.877   6.358
 2479W        W 3476   2.195   0.904   5.404
 2480W        W 3477   4.556   4.754   0.709
 2481W        W 3478   6.924   2.360   5.585
 2482W        W 3479   6.554   0.931   6.849
 2483W        W 3480   6.784   3.668   2.002
 2484W        W 3481   2.165   5.113   6.333
 2485W        W 3482   5.201   7.105   4.966
 2486W        W 3483   3.742   4.323   7.306
 2487W        W 3484   4.278   2.028   4.511
 2488W        W 3485   4.499   1.599   4.342
 2489W        W 3486   6.174   1.796   5.990
 2490W        W 3487   7.693   6.467   4.445
 2491W        W 3488   5.805   2.449   3.809
 2492W        W 3489   5.772   4.423   6.412
 2493W        W 3490   1.651   3.027   1.249
 2494W        W 3491   3.260   2.332   2.690
 2495W        W 3492   0.982   4.601   5.735
 2496W        W 3493   5.500   7.153   3.266
 2497W        W 3494   5.928   6.315   5.297
 2498W        W 3495   3.819   3.900   1.818
 2499W        W 3496   4.172   2.337   1.287
 2500W        W 3497   5.778   5.200   4.275
 2501W        W 3498   0.117   3.846   0.528
 2502W        W 3499   0.723   1.615   4.915
 2503W        W 3500   5.597   7.543   6.199
 2504W        W 3501   4.223   7.168   1.624
 2505W        W 3502   2.607   1.862   0.929
 2506W        W 3503   1.388   4.715   5.457
 2507W        W 3504   0.561   6.332   7.698
 2508W        W 3505   6.892   1.221   5.251
 2509W        W 3506   1.425   4.942   2.745
 2510W        W 3507   5.789   2.864   2.910
 2511W        W 3508   5.328   3.913   4.191
 2512W        W 3509   0.109   4.532   6.429
 2513W        W 3510   5.263   1.703   4.992
 2514W        W 3511   1.018   7.216   4.579
 2515W        W 3512   2.828   2.225   1.208
 2516W        W 3513   6.532   5.719   0.020
 2517W        W 3514   2.104   6.599   1.636
 2518W        W 3515   0.376   6.526   6.200
 2519W        W 3516   4.519   2.501   0.122
 2520W        W 3517   3.327   3.112   3.087
 2521W        W 3518   2.706   5.726   5.946
 2522W        W 3519   1.827   3.879   6.847
 2523W        W 3520   1.679   4.200   1.400
 2524W        W 3521   0.128   5.517   5.585
 2525W        W 3522   6.204   3.078   3.083
 2526W        W 3523   2.736   2.693   1.011
 2527W        W 3524   7.201   7.832   2.619
 2528W        W 3525   1.559   7.070   7.810
 2529W        W 3526   2.538   3.141   0.792
 2530W        W 3527   2.232   7.245   3.442
 2531W        W 3528   0.417   2.016   3.651
 2532W        W 3529   5.419   6.104   3.201
 2533W        W 3530   5.347   7.283   3.746
 2534W        W 3531   3.852   4.381   7.871
 2535W        W 3532   2.636   4.802   2.021
 2536W        W 3533   6.341   5.315   6.215
 2537W        W 3534   3.884   7.076   5.226
 2538W        W 3535   1.290   1.093   2.480
 2539W        W 3536   4.277   6.228   5.733
 2540W        W 3537   3.140   4.270   3.574
 2541W        W 3538   0.801   0.936   6.741
 2542W        W 3539   3.357   1.203   1.157
 2543W        W 3540   1.784   2.075   1.693
 2544W        W 3541   7.378   5.505   5.360
 2545W        W 3542   3.672   1.837   1.598
 2546W        W 3543   6.592   6.939   1.499
 2547W        W 3544   5.365   4.399   5.610
 2548W        W 3545   2.508   5.949   2.806
 2549W        W 3546   3.444   6.158   0.987
 2550W        W 3547   5.415   4.326   4.482
 2551W        W 3548   1.511   2.958   0.750
 2552W        W 3549   3.979   6.170   6.137
 2553W        W 3550   4.487   3.954   4.215
 2554W        W 3551   2.504   1.860   5.366
 2555W        W 3552   0.915   2.333   4.576
 2556W        W 3553   2.574   5.001   1.538
 2557W        W 3554   5.776   3.330   3.634
 2558W        W 3555   4.058   7.038   6.699
 2559W        W 3556   4.560   1.610   6.116
 2560W        W 3557   6.041   0.774   6.106
 2561W        W 3558   2.316   0.692   7.165
 2562W        W 3559   7.737   4.870   6.574
 2563W        W 3560   0.821   3.279   5.237
 2564W        W 3561   0.967   2.121   1.927
 2565W        W 3562   2.435   3.661   5.771
 2566W        W 3563   3.367   3.822   3.454
 2567W        W 3564   4.170   2.898   3.549
 2568W        W 3565   7.626   6.153   4.829
 2569W        W 3566   6.895   5.770   3.231
 2570W        W 3567   1.585   2.828   4.520
 2571W        W 3568   6.575   1.793   6.789
 2572W        W 3569   3.642   5.714   2.978
 2573W        W 3570   5.028   1.312   7.280
 2574W        W 3571   7.686   2.837   2.855
 2575W        W 3572   2.714   3.842   5.408
 2576W        W 3573   6.782   2.432   2.018
 2577W        W 3574   2.695   5.899   1.114
 2578W        W 3575   5.717   1.984   3.552
 2579W        W 3576   3.060   3.099   0.951
 2580W        W 3577   4.633   1.730   3.213
 2581W        W 3578   6.739   6.684   7.098
 2582W        W 3579   4.898   7.399   4.056
 2583W        W 3580   2.944   6.673   5.104
 2584W        W 3581   0.876   6.461   6.935
 2585W        W 3582   5.112   6.298   1.052
 2586W        W 3583   6.851   5.010   5.101
 2587W        W 3584   5.290   6.765   3.553
 2588W        W 3585   7.457   4.261   4.921
 2589W        W 3586   3.945   4.854   3.061
 2590W        W 3587   6.725   3.923   6.623
 2591W        W 3588   6.797   6.245   7.346
 2592W        W 3589   7.874   5.044   4.796
 2593W        W 3590   4.666   6.461   1.297
 2594W        W 3591   0.872   5.883   5.689
 2595W        W 3592   4.305   1.378   0.464
 2596W        W 3593   6.017   6.866   0.274
 2597W        W 3594   2.446   1.995   1.483
 2598W        W 3595   0.863   4.740   6.213
 2599W        W 3596   3.495   4.513   3.298
 2600W        W 3597   6.533   2.649   5.720
 2601W        W 3598   0.829   3.275   7.608
 2602W        W 3599   1.455   4.862   4.053
 2603W        W 3600   4.530   4.778   4.484
 2604W        W 3601   5.502   2.673   5.605
 2605W        W 3602   1.088   2.472   2.275
 2606W        W 3603   4.922   2.533   6.126
 2607W        W 3604   2.862   6.692   1.373
 2608W        W 3605   0.417   4.008   7.241
 2609W        W 3606   2.291   1.634   7.751
 2610W        W 3607   1.452   0.740   5.088
 2611W        W 3608   3.722   2.718   4.265
 2612W        W 3609   1.477   5.237   3.225
 2613W        W 3610   6.442   4.785   1.612
 2614W        W 3611   1.952   6.648   6.027
 2615W        W 3612   3.327   6.217   4.060
 2616W        W 3613   5.107   2.081   4.714
 2617W        W 3614   7.098   4.292   6.634
 2618W        W 3615   2.787   1.404   4.050
 2619W        W 3616   7.332   5.566   7.173
 2620W        W 3617   5.485   1.433   0.374
 2621W        W 3618   5.424   2.993   7.253
 2622W        W 3619   5.824   1.182   2.443
 2623W        W 3620   6.883   6.701   5.132
 2624W        W 3621   4.384   4.029   2.843
 2625W        W 3622   3.680   6.705   6.734
 2626W        W 3623   7.667   3.127   4.869
 2627W        W 3624   1.988   7.147   6.735
 2628W        W 3625   6.564   6.877   2.034
 2629W        W 3626   4.712   0.949   3.749
 2630W        W 3627   3.201   6.606   2.806
 2631W        W 3628   2.500   3.962   1.192
 2632W        W 3629   1.009   6.452   7.943
 2633W        W 3630   0.896   4.578   3.265
 2634W        W 3631   1.040   3.218   7.145
 2635W        W 3632   0.477   2.567   4.725
 2636W        W 3633   6.197   2.894   1.797
 2637W        W 3634   5.273   0.774   6.587
 2638W        W 3635   4.906   2.850   4.904
 2639W        W 3636   3.105   6.892   5.541
 2640W        W 3637   6.083   5.675   3.619
 2641W        W 3638   3.424   7.049   4.340
 2642W        W 3639   3.115   2.641   0.645
 2643W        W 3640   1.769   3.898   5.824
 2644W        W 3641   1.428   2.587   5.760
 2645W        W 3642   5.366   1.004   2.408
 2646W        W 3643   6.746   7.776   1.957
 2647W        W 3644   1.170   2.795   6.451
 2648W        W 3645   4.646   3.031   3.683
 2649W        W 3646   6.391   2.812   7.958
 2650W        W 3647   0.564   5.186   6.805
 2651W        W 3648   0.068   2.379   0.680
 2652W        W 3649   0.841   5.679   2.626
 2653W        W 3650   7.902   4.279   2.559
 2654W        W 3651   3.889   3.978   2.757
 2655W        W 3652   3.471   2.618   1.555
 2656W        W 3653   6.110   2.388   1.790
 2657W        W 3654   7.203   5.073   7.243
 2658W        W 3655   5.715   6.896   7.833
 2659W        W 3656   5.443   7.978   3.135
 2660W        W 3657   7.242   2.642   1.936
 2661W        W 3658   4.544   3.312   0.400
 2662W        W 3659   1.153   0.767   2.871
 2663W        W 3660   2.947   4.345   5.408
 2664W        W 3661   5.055   4.825   3.807
 2665W        W 3662   0.489   4.086   6.330
 2666W        W 3663   4.207   6.157   2.303
 2667W        W 3664   4.819   1.371   1.574
 2668W        W 3665   3.070   7.058   3.000
 2669W        W 3666   4.631   5.575   3.027
 2670W        W 3667   1.206   1.576   2.660
 2671W        W 3668   1.090   5.196   1.198
 2672W        W 3669   7.014   5.444   3.867
 2673W        W 3670   5.190   5.303   5.545
 2674W        W 3671   4.635   2.043   7.841
 2675W        W 3672   3.643   1.747   4.010
 2676W        W 3673   7.111   1.269   2.220
 2677W        W 3674   4.359   5.154   3.109
 2678W        W 3675   0.402   3.114   5.460
 2679W        W 3676   2.355   5.693   4.676
 2680W        W 3677   4.538   1.337   7.100
 2681W        W 3678   4.675   7.085   4.849
 2682W        W 3679   0.999   2.798   4.774
 2683W        W 3680   1.561   1.443   3.900
 2684W        W 3681   5.539   3.012   4.619
 2685W        W 3682   2.835   6.282   2.069
 2686W        W 3683   1.090   2.090   2.615
 2687W        W 3684   4.847   3.819   2.892
 2688W        W 3685   0.983   5.459   5.174
 2689W        W 3686   2.341   0.939   2.352
 2690W        W 3687   3.894   4.322   2.360
 2691W        W 3688   4.260   3.375   5.341
 2692W        W 3689   6.412   6.644   3.044
 2693W        W 3690   0.852   6.395   6.418
 2694W        W 3691   7.354   3.266   6.518
 2695W        W 3692   5.760   6.052   3.553
 2696W        W 3693   1.490   5.477   5.944
 2697W        W 3694   4.356   5.024   7.374
 2698W        W 3695   4.913   5.642   5.808
 2699W        W 3696   2.277   1.133   3.176
 2700W        W 3697   6.560   2.213   7.126
 2701W        W 3698   0.742   7.001   2.354
 2702W        W 3699   5.600   6.233   7.170
 2703W        W 3700   7.883   1.923   2.807
 2704W        W 3701   1.802   2.690   2.087
 2705W        W 3702   7.350   5.143   6.397
 2706W        W 3703   7.090   4.363   4.600
 2707W        W 3704   3.257   4.435   1.184
 2708W        W 3705   1.442   4.774   6.661
 2709W        W 3706   0.947   3.829   6.370
 2710W        W 3707   6.721   2.848   1.733
 2711W        W 3708   2.616   0.826   0.854
 2712W        W 3709   2.092   1.343   4.696
 2713W        W 3710   2.568   6.460   3.338
 2714W        W 3711   4.411   4.489   6.700
 2715W        W 3712   6.209   4.554   5.672
 2716W        W 3713   6.813   1.091   0.304
 2717W        W 3714   6.967   1.309   1.719
 2718W        W 3715   1.256   6.905   0.483
 2719W        W 3716   6.102   3.363   4.065
 2720W        W 3717   1.173   1.038   4.785
 2721W        W 3718   4.556   7.041   1.975
 2722W        W 3719   3.247   6.707   7.215
 2723W        W 3720   4.838   4.061   5.058
 2724W        W 3721   0.672   4.972   4.458
 2725W        W 3722   1.983   4.424   1.743
 2726W        W 3723   2.152   1.828   7.271
 2727W        W 3724   7.081   5.817   6.782
 2728W        W 3725   1.916   6.253   7.884
 2729W        W 3726   6.799   6.138   0.197
 2730W        W 3727   5.258   6.318   2.781
 2731W        W 3728   7.696   5.763   5.665
 2732W        W 3729   2.564   7.182   3.024
 2733W        W 3730   2.760   1.215   1.187
 2734W        W 3731   5.848   2.891   5.277
 2735W        W 3732   4.527   1.733   2.730
 2736W        W 3733   1.432   2.081   3.410
 2737W        W 3734   6.825   7.386   1.578
 2738W        W 3735   6.709   0.095   6.702
 2739W        W 3736   2.404   7.657   3.133
 2740W        W 3737   6.644   5.360   2.985
 2741W        W 3738   4.111   7.455   2.049
 2742W        W 3739   0.431   3.002   2.780
 2743W        W 3740   2.919   0.702   2.023
 2744W        W 3741   3.541   5.627   1.144
 2745W        W 3742   6.740   5.089   0.385
 2746W        W 3743   3.302   1.894   5.591
 2747W        W 3744   1.302   7.413   0.494
 2748W        W 3745   1.390   6.920   2.972
 2749W        W 3746   5.132   6.849   0.392
 2750W        W 3747   0.765   6.292   0.739
 2751W        W 3748   4.235   1.802   7.562
 2752W        W 3749   0.397   6.000   5.828
 2753W        W 3750   3.129   5.681   6.243
 2754W        W 3751   2.185   2.316   5.018
 2755W        W 3752   2.844   1.005   6.376
 2756W        W 3753   3.364   2.687   2.319
 2757W        W 3754   0.412   5.795   1.390
 2758W        W 3755   7.344   2.129   1.324
 2759W        W 3756   4.777   2.473   4.579
 2760W        W 3757   0.193   2.331   2.303
 2761W        W 3758   6.817   2.678   6.305
 2762W        W 3759   5.235   7.126   6.259
 2763W        W 3760   7.044   4.767   5.530
 2764W        W 3761   5.038   6.428   3.267
 2765W        W 3762   2.457   3.214   4.496
 2766W        W 3763   4.176   4.023   4.628
 2767W        W 3764   5.770   6.667   5.663
 2768W        W 3765   1.342   6.362   6.728
 2769W        W 3766   3.065   2.632   1.905
 2770W        W 3767   0.041   4.790   7.528
 2771W        W 3768   1.578   5.969   2.216
 2772W        W 3769   4.723   6.515   5.643
 2773W        W 3770   7.501   3.846   1.286
 2774W        W 3771   5.522   4.212   2.317
 2775W        W 3772   3.886   4.484   6.836
 2776W        W 3773   2.265   3.727   6.594
 2777W        W 3774   7.292   6.315   4.184
 2778W        W 3775   1.443   2.330   1.962
 2779W        W 3776   1.444   3.759   6.539
 2780W        W 3777   3.791   3.624   5.504
 2781W        W 3778   3.867   1.009   1.108
 2782W        W 3779   1.099   4.808   4.900
 2783W        W 3780   5.992   1.537   2.790
 2784W        W 3781   5.572   5.326   4.714
 2785W        W 3782   4.314   6.172   6.503
 2786W        W 3783   4.638   3.367   3.277
 2787W        W 3784   1.315   3.322   5.314
 2788W        W 3785   6.975   1.316   7.447
 2789W        W 3786   2.605   2.220   2.140
 2790W        W 3787   3.225   3.309   3.884
 2791W        W 3788   3.492   4.105   0.135
 2792W        W 3789   5.104   1.301   1.153
 2793W        W 3790   6.202   2.512   5.306
 2794W        W 3791   3.818   6.588   5.912
 2795W        W 3792   5.152   0.414   6.104
 2796W        W 3793   2.570   1.463   0.170
 2797W        W 3794   5.141   0.489   3.120
 2798W        W 3795   0.523   5.229   5.425
 2799W        W 3796   3.304   6.607   5.919
 2800W        W 3797   5.494   1.004   1.887
 2801W        W 3798   5.479   3.475   6.016
 2802W        W 3799   7.771   5.759   5.153
 2803W        W 3800   2.236   6.506   4.578
 2804W        W 3801   2.932   4.474   0.774
 2805W        W 3802   6.613   1.506   3.319
 2806W        W 3803   1.235   6.334   1.747
 2807W        W 3804   5.415   0.147   0.915
 2808W        W 3805   4.659   5.462   0.640
 2809W        W 3806   7.523   6.465   0.814
 2810W        W 3807   6.549   0.440   7.048
 2811W        W 3808   0.671   0.966   5.444
 2812W        W 3809   1.187   0.803   7.716
 2813W        W 3810   4.004   7.011   5.723
 2814W        W 3811   6.649   5.832   2.758
 2815W        W 3812   4.846   1.234   7.745
 2816W        W 3813   4.596   5.532   1.650
 2817W        W 3814   3.552   4.149   1.478
 2818W        W 3815   3.883   3.468   2.080
 2819W        W 3816   3.683   3.869   4.592
 2820W        W 3817   4.952   1.671   0.004
 2821W        W 3818   1.482   3.853   1.074
 2822W        W 3819   5.691   0.459   1.226
 2823W        W 3820   5.540   2.709   4.181
 2824W        W 3821   5.888   1.719   6.919
 2825W        W 3822   2.107   6.944   0.917
 2826W        W 3823   7.188   4.778   4.295
 2827W        W 3824   5.845   2.209   1.383
 2828W        W 3825   7.168   5.970   1.915
 2829W        W 3826   2.197   3.916   6.127
 2830W        W 3827   1.780   6.123   2.886
 2831W        W 3828   5.995   0.391   3.420
 2832W        W 3829   3.922   5.951   1.093
 2833W        W 3830   5.437   1.800   4.434
 2834W        W 3831   4.727   5.039   1.786
 2835W        W 3832   4.185   7.336   4.864
 2836W        W 3833   4.152   0.376   4.232
 2837W        W 3834   6.340   4.796   6.990
 2838W        W 3835   1.457   1.188   2.944
 2839W        W 3836   2.950   5.282   5.932
 2840W        W 3837   7.832   6.446   0.371
 2841W        W 3838   1.177   0.957   5.452
 2842W        W 3839   0.705   3.369   3.561
 2843W        W 3840   3.810   3.733   3.211
 2844W        W 3841   6.665   3.108   5.849
 2845W        W 3842   7.300   1.837   3.777
 2846W        W 3843   6.624   6.672   1.051
 2847W        W 3844   0.546   1.454   5.370
 2848W        W 3845   0.818   3.444   0.595
 2849W        W 3846   2.934   6.248   2.566
 2850W        W 3847   4.824   1.404   3.535
 2851W        W 3848   3.609   1.955   2.706
 2852W        W 3849   0.592   1.797   1.166
 2853W        W 3850   1.850   4.422   2.771
 2854W        W 3851   4.351   5.444   7.975
 2855W        W 3852   4.634   3.334   2.765
 2856W        W 3853   0.815   5.854   1.059
 2857W        W 3854   5.082   3.219   3.513
 2858W        W 3855   7.063   6.573   3.826
 2859W        W 3856   3.868   5.828   3.459
 2860W        W 3857   2.017   3.018   4.748
 2861W        W 3858   2.670   6.975   3.466
 2862W        W 3859   5.938   0.549   4.046
 2863W        W 3860   0.872   5.960   4.304
 2864W        W 3861   7.691   6.157   6.306
 2865W        W 3862   2.005   2.325   2.771
 2866W        W 3863   2.014   6.154   5.595
 2867W        W 3864   2.477   7.183   4.993
 2868W        W 3865   0.170   2.733   1.976
 2869W        W 3866   6.999   3.982   7.050
 2870W        W 3867   5.190   1.744   7.506
 2871W        W 3868   6.287   0.138   4.135
 2872W        W 3869   1.741   6.647   3.697
 2873W        W 3870   4.176   2.473   6.210
 2874W        W 3871   6.411   6.732   2.528
 2875W        W 3872   7.841   4.975   1.483
 2876W        W 3873   2.829   7.311   5.649
 2877W        W 3874   4.466   3.314   4.098
 2878W        W 3875   6.844   3.146   4.389
 2879W        W 3876   6.508   5.183   6.707
 2880W        W 3877   7.750   4.171   3.031
 2881W        W 3878   2.638   0.711   3.719
 2882W        W 3879   6.895   2.142   2.780
 2883W        W 3880   3.008   7.353   3.414
 2884W        W 3881   0.412   2.691   3.841
 2885W        W 3882   5.540   3.218   4.093
 2886W        W 3883   3.298   4.488   4.422
 2887W        W 3884   5.125   4.737   7.116
 2888W        W 3885   4.311   2.095   3.047
 2889W        W 3886   2.447   2.742   4.345
 2890W        W 3887   4.303   5.583   3.409
 2891W        W 3888   6.929   4.266   5.451
 2892W        W 3889   2.144   7.664   6.806
 2893W        W 3890   6.865   6.496   1.462
 2894W        W 3891   3.791   4.344   4.489
 2895W        W 3892   4.201   6.796   1.278
 2896W        W 3893   6.659   6.207   3.159
 2897W        W 3894   4.590   3.002   7.983
 2898W        W 3895   2.494   6.158   5.825
 2899W        W 3896   6.980   2.663   3.083
 2900W        W 3897   6.975   1.313   6.157
 2901W        W 3898   7.824   7.031   5.839
 2902W        W 3899   4.080   1.542   7.133
 2903W        W 3900   5.413   1.629   0.901
 2904W        W 3901   7.599   4.505   6.196
 2905W        W 3902   0.372   2.245   1.088
 2906W        W 3903   1.557   5.946   6.143
 2907W        W 3904   0.346   3.432   1.355
 2908W        W 3905   5.681   2.295   7.645
 2909W        W 3906   3.939   3.856   5.062
 2910W        W 3907   6.716   6.631   3.469
 2911W        W 3908   4.154   1.701   6.650
 2912W        W 3909   3.799   1.475   4.840
 2913W        W 3910   6.945   1.632   2.592
 2914W        W 3911   7.210   6.591   4.618
 2915W        W 3912   2.139   2.912   5.235
 2916W        W 3913   5.458   3.283   5.336
 2917W        W 3914   3.641   3.204   4.175
 2918W        W 3915   4.047   6.604   6.390
 2919W        W 3916   1.015   1.820   7.006
 2920W        W 3917   4.242   2.190   6.628
 2921W        W 3918   3.965   4.661   3.542
 2922W        W 3919   1.641   6.351   0.855
 2923W        W 3920   5.489   0.336   3.497
 2924W        W 3921   3.227   3.128   4.451
 2925W        W 3922   2.490   0.784   2.851
 2926W        W 3923   2.492   6.976   5.902
 2927W        W 3924   6.187   1.689   6.487
 2928W        W 3925   0.003   2.919   1.545
 2929W        W 3926   6.512   3.262   1.935
 2930W        W 3927   4.843   6.688   0.846
 2931W        W 3928   4.126   1.667   4.000
 2932W        W 3929   0.564   0.787   3.612
 2933W        W 3930   1.327   1.453   3.419
 2934W        W 3931   2.457   2.259   4.475
 2935W        W 3932   3.283   1.434   3.897
 2936W        W 3933   6.308   7.572   4.171
 2937W        W 3934   6.362   6.521   7.388
 2938W        W 3935   5.628   0.507   6.304
 2939W        W 3936   1.330   5.586   6.932
 2940W        W 3937   4.675   5.426   2.161
 2941W        W 3938   3.378   6.434   5.085
 2942W        W 3939   1.633   2.065   6.444
 2943W        W 3940   5.504   6.578   5.214
 2944W        W 3941   0.389   5.550   2.365
 2945W        W 3942   6.250   7.432   7.103
 2946W        W 3943   4.332   2.496   4.323
 2947W        W 3944   2.994   1.360   2.787
 2948W        W 3945   6.920   4.303   2.473
 2949W        W 3946   6.580   1.731   5.079
 2950W        W 3947   0.156   4.603   2.184
 2951W        W 3948   6.164   3.863   4.153
 2952W        W 3949   4.575   4.757   3.622
 2953W        W 3950   7.249   0.378   3.333
 2954W        W 3951   5.392   5.759   5.696
 2955W        W 3952   6.712   6.913   3.927
 2956W        W 3953   2.572   4.238   5.105
 2957W        W 3954   3.362   1.254   4.885
 2958W        W 3955   0.985   4.884   6.849
 2959W        W 3956   7.348   6.385   1.317
 2960W        W 3957   6.886   1.263   2.958
 2961W        W 3958   7.424   5.353   3.589
 2962W        W 3959   7.968   5.789   1.674
 2963W        W 3960   4.926   1.097   6.359
 2964W        W 3961   0.974   0.331   6.523
 2965W        W 3962   7.119   5.535   1.652
 2966W        W 3963   3.241   5.690   5.760
 2967W        W 3964   2.036   2.538   4.566
 2968W        W 3965   3.924   4.749   7.485
 2969W        W 3966   3.496   1.066   3.619
 2970W        W 3967   1.795   3.189   2.808
 2971W        W 3968   3.725   4.973   6.662
 2972W        W 3969   0.270   4.332   7.671
 2973W        W 3970   3.617   0.988   7.505
 2974W        W 3971   1.819   3.995   0.512
 2975W        W 3972   4.532   6.179   1.740
 2976W        W 3973   5.087   3.660   1.903
 2977W        W 3974   6.990   4.939   3.844
 2978W        W 3975   6.881   1.589   0.306
 2979W        W 3976   3.267   1.836   6.616
 2980W        W 3977   7.089   6.109   4.588
 2981W        W 3978   6.659   6.022   1.853
 2982W        W 3979   0.737   3.372   2.584
 2983W        W 3980   6.412   0.776   0.332
 2984W        W 3981   7.396   6.527   2.807
 2985W        W 3982   6.625   5.647   6.553
 2986W        W 3983   1.912   4.258   7.207
 2987W        W 3984   7.354   5.010   5.205
 2988W        W 3985   6.023   5.416   5.315
 2989W        W 3986   0.146   4.741   2.677
 2990W        W 3987   0.439   2.169   5.668
 2991W        W 3988   3.645   1.547   6.347
 2992W        W 3989   5.250   6.638   5.814
 2993W        W 3990   1.808   3.523   1.292
 2994W        W 3991   0.280   1.031   6.280
 2995W        W 3992   4.219   5.320   6.647
 2996W        W 3993   1.017   1.567   7.925
 2997W        W 3994   1.636   3.669   4.028
 2998W        W 3995   3.218   6.519   6.725
 2999W        W 3996   2.018   6.063   4.654
 3000W        W 3997   4.579   5.935   1.305
 3001W        W 3998   2.144   6.501   0.674
 3002W        W 3999   6.265   2.631   3.675
 3003W        W 4000   4.870   2.283   5.687
 3004W        W 4001   0.623   4.331   2.920
 3005W        W 4002   3.781   5.408   0.117
 3006W        W 4003   5.835   5.722   5.967
 3007W        W 4004   6.895   5.878   7.702
 3008W        W 4005   4.385   3.239   6.181
 3009W        W 4006   1.250   6.879   2.467
 3010W        W 4007   7.892   4.878   6.074
 3011W        W 4008   5.598   0.850   5.321
 3012W        W 4009   6.924   6.080   5.903
 3013W        W 4010   3.385   2.758   5.777
 3014W        W 4011   5.129   2.256   2.132
 3015W        W 4012   4.436   2.855   4.687
 3016W        W 4013   6.219   1.215   1.547
 3017W        W 4014   3.078   3.418   3.409
 3018W        W 4015   0.991   0.650   3.349
 3019W        W 4016   0.583   1.389   0.833
 3020W        W 4017   0.640   5.371   3.105
 3021W        W 4018   1.353   6.671   5.382
 3022W        W 4019   7.432   4.750   4.768
 3023W        W 4020   4.490   1.942   5.719
 3024W        W 4021   7.186   1.349   4.448
 3025W        W 4022   7.877   7.208   6.333
 3026W        W 4023   0.824   6.121   3.815
 3027W        W 4024   6.662   6.119   6.364
 3028W        W 4025   3.810   1.474   0.363
 3029W        W 4026   6.349   0.731   3.310
 3030W        W 4027   3.671   2.325   6.068
 3031W        W 4028   7.180   5.622   5.827
 3032W        W 4029   3.382   0.990   4.147
 3033W        W 4030   1.056   1.454   5.275
 3034W        W 4031   7.478   2.780   2.379
 3035W        W 4032   3.389   1.712   0.218
 3036W        W 4033   3.581   6.748   5.484
 3037W        W 4034   1.115   6.417   4.997
 3038W        W 4035   4.553   5.730   6.495
 3039W        W 4036   7.551   4.402   4.401
 3040W        W 4037   7.329   0.321   2.807
 3041W        W 4038   1.908   7.003   1.396
 3042W        W 4039   5.989   6.504   4.809
 3043W        W 4040   5.780   5.807   6.450
 3044W        W 4041   3.481   4.625   1.653
 3045W        W 4042   5.053   2.092   6.318
 3046W        W 4043   6.140   3.958   6.669
 3047W        W 4044   5.382   7.334   6.710
 3048W        W 4045   6.476   6.854   6.378
 3049W        W 4046   6.360   3.495   1.022
 3050W        W 4047   2.869   2.328   3.071
 3051W        W 4048   4.626   3.333   1.219
 3052W        W 4049   6.301   6.914   4.824
 3053W        W 4050   4.325   3.746   1.246
 3054W        W 4051   6.120   4.909   5.348
 3055W        W 4052   1.870   3.101   6.882
 3056W        W 4053   5.995   2.690   5.729
 3057W        W 4054   5.146   7.249   0.718
 3058W        W 4055   1.551   6.695   4.919
 3059W        W 4056   7.570   2.587   4.229
 3060W        W 4057   2.999   2.802   1.436
 3061W        W 4058   5.670   6.335   2.031
 3062W        W 4059   3.570   3.452   1.684
 3063W        W 4060   5.235   0.977   0.399
 3064W        W 4061   4.878   3.656   4.750
 3065W        W 4062   2.915   5.067   2.333
 3066W        W 4063   6.028   7.251   1.007
 3067W        W 4064   2.202   3.416   0.507
 3068W        W 4065   1.817   2.678   7.129
 3069W        W 4066   6.749   7.839   4.196
 3070W        W 4067   7.455   2.894   3.819
 3071W        W 4068   0.909   4.474   5.245
 3072W        W 4069   0.312   5.322   4.601
 3073W        W 4070   1.011   4.859   3.785
 3074W        W 4071   7.007   2.038   6.896
 3075W        W 4072   5.326   5.158   3.510
 3076W        W 4073   3.503   1.705   1.106
 3077W        W 4074   3.210   2.184   0.381
 3078W        W 4075   6.760   3.992   4.478
 3079W        W 4076   4.901   4.490   6.513
 3080W        W 4077   3.008   3.100   2.138
 3081W        W 4078   6.235   2.264   5.812
 3082W        W 4079   5.286   2.797   2.110
 3083W        W 4080   1.014   2.804   7.473
 3084W        W 4081   2.524   7.204   0.805
 3085W        W 4082   5.233   6.828   2.686
 3086W        W 4083   0.872   2.326   7.318
 3087W        W 4084   5.866   2.877   3.427
 3088W        W 4085   6.108   7.349   6.119
 3089W        W 4086   4.829   7.246   5.313
 3090W        W 4087   3.950   6.897   2.548
 3091W        W 4088   3.278   4.624   5.160
 3092W        W 4089   5.945   7.352   2.038
 3093W        W 4090   6.418   3.587   2.828
 3094W        W 4091   4.166   2.906   4.070
 3095W        W 4092   4.601   4.332   4.701
 3096W        W 4093   7.115   2.541   3.776
 3097W        W 4094   4.432   3.755   4.978
 3098W        W 4095   7.530   4.809   0.706
 3099W        W 4096   2.250   1.428   6.674
 3100W        W 4097   6.578   4.636   5.285
 3101W        W 4098   2.573   4.519   7.101
 3102W        W 4099   5.992   2.507   0.021
 3103W        W 4100   2.127   3.512   7.036
 3104W        W 4101   2.289   6.568   7.523
 3105W        W 4102   2.611   3.322   5.438
 3106W        W 4103   6.771   0.258   3.904
 3107W        W 4104   6.213   1.740   0.633
 3108W        W 4105   1.618   6.514   3.202
 3109W        W 4106   1.845   3.450   6.523
 3110W        W 4107   4.079   3.414   4.865
 3111W        W 4108   6.459   0.204   2.075
 3112W        W 4109   6.985   0.148   6.282
 3113W        W 4110   3.897   2.236   4.245
 3114W        W 4111   5.130   6.380   6.271
 3115W        W 4112   1.329   4.053   2.722
 3116W        W 4113   2.641   0.513   2.446
 3117W        W 4114   4.777   7.320   6.067
 3118W        W 4115   6.292   5.178   4.362
 3119W        W 4116   6.125   1.735   1.448
 3120W        W 4117   0.825   2.470   0.318
 3121W        W 4118   1.823   6.619   5.504
 3122W        W 4119   1.939   2.948   0.437
 3123W        W 4120   4.500   4.690   5.119
 3124W        W 4121   0.653   6.295   2.062
 3125W        W 4122   2.417   2.734   4.846
 3126W        W 4123   0.056   2.787   2.477
 3127W        W 4124   2.349   3.089   3.490
 3128W        W 4125   4.763   3.246   6.537
 3129W        W 4126   0.064   6.439   1.987
 3130W        W 4127   0.212   4.002   2.896
 3131W        W 4128   4.506   5.881   2.620
 3132W        W 4129   2.528   1.253   3.622
 3133W        W 4130   0.934   5.051   7.329
 3134W        W 4131   0.136   3.407   6.711
 3135W        W 4132   4.389   6.790   2.766
 3136W        W 4133   0.112   2.533   4.335
 3137W        W 4134   4.729   5.175   5.795
 3138W        W 4135   7.997   6.748   4.769
 3139W        W 4136   7.940   6.199   5.885
 3140W        W 4137   7.312   3.877   4.600
 3141W        W 4138   2.457   6.385   2.465
 3142W        W 4139   4.690   2.833   6.864
 3143W        W 4140   6.959   1.776   1.300
 3144W        W 4141   5.109   1.798   4.032
 3145W        W 4142   2.619   3.147   1.777
 3146W        W 4143   4.440   1.161   5.896
 3147W        W 4144   7.098   3.435   2.338
 3148W        W 4145   1.735   6.384   6.395
 3149W        W 4146   3.605   3.333   3.484
 3150W        W 4147   4.094   2.284   2.108
 3151W        W 4148   2.542   1.428   1.652
 3152W        W 4149   2.639   1.159   5.399
 3153W        W 4150   1.838   4.644   6.367
 3154W        W 4151   2.139   1.811   5.037
 3155W        W 4152   5.046   1.393   2.517
 3156W        W 4153   7.186   6.511   6.058
 3157W        W 4154   7.182   6.079   6.355
 3158W        W 4155   5.428   1.539   7.056
 3159W        W 4156   6.270   4.117   4.588
 3160W        W 4157   3.170   5.766   4.809
 3161W        W 4158   5.358   1.851   6.662
 3162W        W 4159   5.094   4.706   0.653
 3163W        W 4160   6.225   6.863   7.030
 3164W        W 4161   6.687   7.106   2.868
 3165W        W 4162   0.991   3.532   5.651
 3166W        W 4163   6.958   1.782   4.243
 3167W        W 4164   6.982   4.026   2.924
 3168W        W 4165   7.208   3.919   2.217
 3169W        W 4166   3.421   7.271   5.399
 3170W        W 4167   1.412   1.349   5.651
 3171W        W 4168   2.417   6.524   6.175
 3172W        W 4169   6.136   4.273   7.088
 3173W        W 4170   3.391   6.979   3.407
 3174W        W 4171   1.749   3.803   4.521
 3175W        W 4172   1.231   6.258   4.506
 3176W        W 4173   7.914   1.969   6.437
 3177W        W 4174   5.775   1.222   6.838
 3178W        W 4175   4.665   6.212   3.544
 3179W        W 4176   0.054   3.422   5.673
 3180W        W 4177   5.061   5.266   4.516
 3181W        W 4178   0.918   6.145   2.821
 3182W        W 4179   2.434   6.265   7.912
 3183W        W 4180   6.854   0.355   2.971
 3184W        W 4181   2.168   4.379   1.265
 3185W        W 4182   5.174   6.227   4.797
 3186W        W 4183   0.656   2.120   2.346
 3187W        W 4184   2.436   0.239   2.860
 3188W        W 4185   6.649   1.829   6.266
 3189W        W 4186   2.191   6.664   2.149
 3190W        W 4187   0.874   6.524   2.502
 3191W        W 4188   6.346   4.643   4.512
 3192W        W 4189   3.202   5.388   1.435
 3193W        W 4190   3.310   3.235   2.575
 3194W        W 4191   7.498   4.020   6.240
 3195W        W 4192   5.533   2.846   6.712
 3196W        W 4193   1.794   4.578   7.644
 3197W        W 4194   6.802   4.794   4.635
 3198W        W 4195   2.021   2.665   6.626
 3199W        W 4196   2.070   7.255   2.918
 3200W        W 4197   7.307   6.704   3.406
 3201W        W 4198   4.562   2.257   2.621
 3202W        W 4199   3.708   3.061   2.310
 3203W        W 4200   1.802   3.561   0.782
 3204W        W 4201   6.571   1.354   6.488
 3205W        W 4202   3.204   2.304   5.874
 3206W        W 4203   1.892   1.152   4.208
 3207W        W 4204   5.725   3.694   3.980
 3208W        W 4205   4.162   4.630   0.191
 3209W        W 4206   6.912   2.067   0.169
 3210W        W 4207   4.724   3.545   3.742
 3211W        W 4208   3.151   5.894   1.347
 3212W        W 4209   6.552   4.595   0.308
 3213W        W 4210   6.201   6.354   6.289
 3214W        W 4211   3.431   4.148   5.355
 3215W        W 4212   1.103   6.166   6.024
 3216W        W 4213   4.590   2.801   2.746
 3217W        W 4214   7.185   4.255   1.362
 3218W        W 4215   0.599   3.106   4.699
 3219W        W 4216   2.943   2.926   7.445
 3220W        W 4217   5.348   4.524   3.065
 3221W        W 4218   5.227   7.322   2.835
 3222W        W 4219   7.018   1.635   6.568
 3223W        W 4220   3.302   2.898   3.530
 3224W        W 4221   5.311   1.353   4.193
 3225W        W 4222   7.332   1.681   1.635
 3226W        W 4223   3.416   4.960   1.294
 3227W        W 4224   1.711   5.871   7.626
 3228W        W 4225   5.228   2.584   0.907
 3229W        W 4226   4.810   0.601   6.458
 3230W        W 4227   5.876   1.938   1.833
 3231W        W 4228   5.455   1.430   2.149
   8.00000   8.00000   8.00000
