Martini system from ../2_Creating_coordinates/TYR-ILE-TYR_aa.pdb
 4203
    1TYR     BB    1   2.211   6.885   4.228 -0.0364 -0.0858 -0.2683
    1TYR    SC1    2   2.494   6.889   4.240 -0.2975  0.3782 -0.0263
    1TYR    SC2    3   2.723   7.018   4.175 -0.1302  0.1796  0.1492
    1TYR    SC3    4   2.708   6.876   4.405 -0.2847 -0.1606 -0.0605
    2ILE     BB    5   2.027   6.712   4.018  0.1122 -0.1833 -0.1287
    2ILE    SC1    6   1.991   6.916   3.788 -0.0718  0.0623  0.1101
    3TYR     BB    7   1.887   6.418   4.097 -0.1719  0.0957 -0.0964
    3TYR    SC1    8   1.911   6.294   4.351  0.2388 -0.0974 -0.1708
    3TYR    SC2    9   1.996   6.442   4.560 -0.2929 -0.0495  0.0324
    3TYR    SC3   10   1.839   6.227   4.603 -0.3522 -0.0831 -0.3174
    1TYR     BB   11   1.492   6.762   3.995 -0.2352 -0.0877 -0.2572
    1TYR    SC1   12   1.597   6.610   3.749 -0.1678 -0.0844 -0.1057
    1TYR    SC2   13   1.766   6.506   3.565  0.1024  0.3899 -0.1459
    1TYR    SC3   14   1.576   6.683   3.490  0.0338  0.3782 -0.0047
    2ILE     BB   15   1.406   7.044   3.905 -0.0028  0.0164  0.2038
    2ILE    SC1   16   1.567   7.153   3.663 -0.2403 -0.2367 -0.0770
    3TYR     BB   17   1.250   7.237   4.119 -0.0066  0.0853  0.1047
    3TYR    SC1   18   1.136   7.497   4.070  0.1808  0.1798 -0.2422
    3TYR    SC2   19   0.872   7.540   4.110  0.1977 -0.0023  0.1174
    3TYR    SC3   20   1.051   7.736   4.162  0.1439  0.0902 -0.0369
    1TYR     BB   21   7.181   5.974   3.100 -0.2859  0.0621 -0.3154
    1TYR    SC1   22   6.974   6.201   3.181  0.0238 -0.0897  0.1289
    1TYR    SC2   23   6.899   6.346   3.396  0.2516  0.2571 -0.0143
    1TYR    SC3   24   6.729   6.313   3.189  0.0492 -0.0375  0.1888
    2ILE     BB   25   7.407   6.141   2.897  0.1054 -0.0640 -0.1347
    2ILE    SC1   26   7.543   5.970   2.678 -0.1265 -0.2783 -0.1164
    3TYR     BB   27   7.323   6.459   2.725  0.1470  0.1204  0.3392
    3TYR    SC1   28   7.065   6.559   2.902  0.1557  0.0166 -0.0862
    3TYR    SC2   29   6.912   6.694   3.079  0.0693 -0.1117 -0.0618
    3TYR    SC3   30   6.813   6.630   2.836  0.0298 -0.3233  0.0076
    1TYR     BB   31   5.593   0.368   3.200  0.0080  0.1512  0.1081
    1TYR    SC1   32   5.630   0.649   3.046 -0.3512 -0.1776 -0.6274
    1TYR    SC2   33   5.746   0.829   2.882 -0.0913  0.2261 -0.0426
    1TYR    SC3   34   5.506   0.883   2.993 -0.2000  0.0201 -0.1694
    2ILE     BB   35   5.707   0.189   3.407 -0.0456  0.0392 -0.1771
    2ILE    SC1   36   5.578  -0.092   3.387 -0.1608  0.0922 -0.1841
    3TYR     BB   37   6.043   0.040   3.324 -0.1605 -0.1060  0.5514
    3TYR    SC1   38   6.163   0.245   3.121  0.1461  0.0303 -0.2083
    3TYR    SC2   39   6.288   0.397   2.936 -0.0989  0.1964 -0.2436
    3TYR    SC3   40   6.073   0.494   3.067  0.0350  0.0601  0.0917
    1TYR     BB   41   1.738   6.843   4.465 -0.1880  0.1867  0.2557
    1TYR    SC1   42   1.687   7.140   4.304 -0.0501  0.0019  0.0628
    1TYR    SC2   43   1.833   7.245   4.102 -0.2295 -0.0092 -0.0758
    1TYR    SC3   44   1.685   7.407   4.261  0.0659  0.0231  0.1794
    2ILE     BB   45   1.498   6.681   4.535 -0.0157  0.0648 -0.1210
    2ILE    SC1   46   1.286   6.904   4.497 -0.0576  0.0406 -0.0312
    3TYR     BB   47   1.396   6.433   4.413  0.1664 -0.0300  0.0976
    3TYR    SC1   48   1.133   6.396   4.657 -0.0429  0.0559 -0.0767
    3TYR    SC2   49   1.052   6.393   4.914  0.0173  0.2527 -0.0533
    3TYR    SC3   50   0.883   6.313   4.719 -0.0535  0.1711  0.0396
    1TYR     BB   51   2.390   6.771   3.621 -0.1599  0.1736  0.1831
    1TYR    SC1   52   2.270   6.634   3.411 -0.2195 -0.0724  0.0110
    1TYR    SC2   53   2.045   6.603   3.264 -0.1378 -0.3272 -0.0674
    1TYR    SC3   54   2.275   6.680   3.145 -0.2075  0.0650  0.0343
    2ILE     BB   55   2.689   6.793   3.672  0.1172  0.0178 -0.0977
    2ILE    SC1   56   2.818   6.511   3.669  0.2653  0.0738  0.2884
    3TYR     BB   57   2.879   7.086   3.638 -0.1432  0.0927 -0.0688
    3TYR    SC1   58   3.072   7.223   3.862 -0.2103  0.2448  0.1845
    3TYR    SC2   59   3.106   7.231   4.129 -0.2081  0.0180  0.1939
    3TYR    SC3   60   3.145   7.454   3.981  0.0658  0.0795  0.3490
    1TYR     BB   61   2.602   5.867   1.316  0.4252  0.3199  0.1657
    1TYR    SC1   62   2.295   5.892   1.420  0.3837  0.0288  0.1200
    1TYR    SC2   63   2.076   5.797   1.545  0.3390 -0.1231 -0.0677
    1TYR    SC3   64   2.057   6.018   1.391  0.3914  0.0565  0.1760
    2ILE     BB   65   2.697   6.178   1.203 -0.4212 -0.2944  0.0415
    2ILE    SC1   66   2.865   6.129   0.947 -0.0023  0.2342  0.1912
    3TYR     BB   67   2.929   6.448   1.327 -0.0799  0.2328  0.1500
    3TYR    SC1   68   2.820   6.672   1.447  0.3586  0.1200  0.3020
    3TYR    SC2   69   2.641   6.874   1.462 -0.2834 -0.3798 -0.0173
    3TYR    SC3   70   2.713   6.741   1.686  0.0123  0.0685  0.1699
    1TYR     BB   71   5.191   7.418   3.128  0.2020  0.0737  0.3337
    1TYR    SC1   72   5.064   7.655   3.275 -0.1027  0.1587 -0.0395
    1TYR    SC2   73   4.921   7.713   3.497  0.3174  0.0391  0.2776
    1TYR    SC3   74   5.170   7.814   3.466  0.4381 -0.2982  0.0727
    2ILE     BB   75   5.105   7.240   3.006 -0.0578  0.2182 -0.0375
    2ILE    SC1   76   5.041   7.136   2.721 -0.0899 -0.0430  0.0620
    3TYR     BB   77   5.103   6.908   3.159  0.0915  0.1672 -0.0363
    3TYR    SC1   78   4.808   6.800   3.137  0.0437  0.2153  0.0450
    3TYR    SC2   79   4.554   6.737   3.070  0.1765  0.0203 -0.3087
    3TYR    SC3   80   4.627   6.749   3.330 -0.1991  0.1156 -0.2010
    1TYR     BB   81   0.328   0.351   2.642 -0.2685  0.2488 -0.0294
    1TYR    SC1   82   0.527   0.314   2.390 -0.0567 -0.1886 -0.0735
    1TYR    SC2   83   0.778   0.300   2.291  0.0400  0.1471  0.1052
    1TYR    SC3   84   0.573   0.186   2.157  0.3135 -0.3460  0.0761
    2ILE     BB   85   0.420   0.543   2.903  0.2436  0.2092  0.1698
    2ILE    SC1   86   0.192   0.751   2.876 -0.0995 -0.1574  0.1330
    3TYR     BB   87   0.502   0.573   3.244  0.1738  0.2834 -0.1407
    3TYR    SC1   88   0.300   0.501   3.460  0.4101  0.2625 -0.1091
    3TYR    SC2   89   0.162   0.360   3.645  0.4249  0.0188 -0.2777
    3TYR    SC3   90   0.359   0.529   3.722  0.3685 -0.0087 -0.0673
    1TYR     BB   91   6.609   7.055   2.413 -0.2011 -0.0511 -0.1106
    1TYR    SC1   92   6.909   6.981   2.473 -0.0449  0.1237 -0.1301
    1TYR    SC2   93   7.136   7.054   2.346  0.1676 -0.0030  0.1617
    1TYR    SC3   94   7.148   6.949   2.595 -0.2025 -0.1517  0.1255
    2ILE     BB   95   6.444   6.878   2.618 -0.0073 -0.0714 -0.3053
    2ILE    SC1   96   6.473   6.631   2.432  0.2046 -0.1998 -0.1081
    3TYR     BB   97   6.421   6.920   2.930  0.4078  0.2885  0.0046
    3TYR    SC1   98   6.721   7.097   2.980 -0.0132 -0.2809  0.1847
    3TYR    SC2   99   6.975   7.174   2.930 -0.1041  0.0282  0.1719
    3TYR    SC3  100   6.898   7.122   3.183 -0.0789  0.1330  0.2018
    1TYR     BB  101   4.758   6.069   1.314  0.0108 -0.1237  0.2648
    1TYR    SC1  102   4.487   6.098   1.152  0.0528  0.0795 -0.4174
    1TYR    SC2  103   4.244   6.039   1.255  0.2408  0.0984  0.0752
    1TYR    SC3  104   4.263   6.177   1.024 -0.2110  0.0866  0.0189
    2ILE     BB  105   4.883   6.413   1.453 -0.0093  0.0853 -0.0386
    2ILE    SC1  106   5.045   6.345   1.709  0.0777 -0.1167 -0.1442
    3TYR     BB  107   4.927   6.714   1.328  0.0824  0.1557  0.0790
    3TYR    SC1  108   4.689   6.879   1.299 -0.1974 -0.0029  0.0590
    3TYR    SC2  109   4.603   7.112   1.194  0.2418  0.2069  0.1378
    3TYR    SC3  110   4.527   7.041   1.443 -0.1489  0.1016 -0.0027
    1TYR     BB  111   2.325   0.076   3.495 -0.3240 -0.0312  0.3284
    1TYR    SC1  112   2.371   0.262   3.691  0.2433 -0.2943 -0.0898
    1TYR    SC2  113   2.277   0.469   3.836 -0.4388 -0.4365 -0.2850
    1TYR    SC3  114   2.496   0.336   3.919 -0.0973  0.2158 -0.0468
    2ILE     BB  115   2.502  -0.127   3.252 -0.0353  0.0645  0.0865
    2ILE    SC1  116   2.463  -0.392   3.408 -0.0408  0.0881  0.1256
    3TYR     BB  117   2.830  -0.145   3.213 -0.1330  0.2152 -0.1144
    3TYR    SC1  118   3.058  -0.338   3.155  0.1970  0.4867 -0.1478
    3TYR    SC2  119   3.267  -0.497   3.215  0.0295  0.2583 -0.1549
    3TYR    SC3  120   3.126  -0.539   2.989 -0.4424 -0.0407  0.1724
    1TYR     BB  121   0.857   7.447   2.554 -0.1757  0.0086  0.2559
    1TYR    SC1  122   0.758   7.693   2.721 -0.0049 -0.3131  0.0318
    1TYR    SC2  123   0.826   7.937   2.812  0.0253 -0.2664 -0.1120
    1TYR    SC3  124   0.653   7.784   2.952 -0.1362 -0.0881 -0.1120
    2ILE     BB  125   1.037   7.285   2.602  0.0546 -0.1700 -0.2788
    2ILE    SC1  126   1.116   7.176   2.323 -0.0927 -0.0742 -0.3597
    3TYR     BB  127   1.010   6.986   2.732  0.1906  0.2107 -0.0320
    3TYR    SC1  128   0.853   6.915   2.997  0.3946  0.1126  0.0639
    3TYR    SC2  129   0.618   6.788   3.040  0.4751 -0.1985 -0.3355
    3TYR    SC3  130   0.823   6.757   3.214  0.1542  0.3040  0.1762
    1TYR     BB  131   1.973   7.030   2.588  0.1730 -0.0949 -0.0655
    1TYR    SC1  132   1.718   6.868   2.539 -0.1680 -0.2013 -0.0533
    1TYR    SC2  133   1.450   6.880   2.571 -0.1781  0.0343 -0.1982
    1TYR    SC3  134   1.561   6.676   2.434 -0.2548 -0.2162  0.0994
    2ILE     BB  135   2.165   6.965   2.725  0.0558 -0.0697 -0.0423
    2ILE    SC1  136   2.337   6.712   2.671  0.3076  0.1981 -0.5948
    3TYR     BB  137   2.364   7.128   2.912 -0.0685  0.0258 -0.2449
    3TYR    SC1  138   2.603   7.006   2.996 -0.0881  0.0910 -0.0397
    3TYR    SC2  139   2.794   6.820   2.957 -0.0172  0.1490  0.0277
    3TYR    SC3  140   2.729   6.896   3.207  0.1531  0.4173 -0.0040
    1TYR     BB  141   2.365   5.577   3.928  0.2042  0.1453  0.3460
    1TYR    SC1  142   2.110   5.601   3.783 -0.1523 -0.2751  0.0555
    1TYR    SC2  143   2.051   5.646   3.523 -0.2056 -0.0259  0.1077
    1TYR    SC3  144   1.870   5.527   3.684 -0.2805  0.0652  0.0922
    2ILE     BB  145   2.481   5.844   4.047  0.0846  0.0383 -0.1656
    2ILE    SC1  146   2.731   5.954   3.900  0.0765  0.1029 -0.1315
    3TYR     BB  147   2.219   5.991   4.175  0.1219 -0.1225  0.0144
    3TYR    SC1  148   1.957   5.832   4.241 -0.1823 -0.3100  0.0600
    3TYR    SC2  149   1.707   5.890   4.327 -0.1807  0.0147 -0.1358
    3TYR    SC3  150   1.746   5.692   4.147 -0.2862 -0.0814 -0.0548
    1TYR     BB  151   3.019   6.600   0.807 -0.0800 -0.0039 -0.1979
    1TYR    SC1  152   2.718   6.665   0.927 -0.0945  0.0243  0.0784
    1TYR    SC2  153   2.517   6.618   1.101 -0.3770  0.1111 -0.2124
    1TYR    SC3  154   2.598   6.871   1.054 -0.0837  0.0675  0.0189
    2ILE     BB  155   3.241   6.768   1.047  0.1995 -0.0547  0.0543
    2ILE    SC1  156   3.058   7.004   1.129  0.2123 -0.0275  0.0052
    3TYR     BB  157   3.361   6.615   1.251  0.1473 -0.4727  0.2493
    3TYR    SC1  158   3.418   6.342   1.053  0.1574  0.0207 -0.3296
    3TYR    SC2  159   3.335   6.092   0.992  0.3928 -0.1515  0.0164
    3TYR    SC3  160   3.570   6.184   0.895  0.2865 -0.0453 -0.1446
    1TYR     BB  161   4.905   0.160   1.851  0.3474 -0.1618  0.0991
    1TYR    SC1  162   4.860   0.437   1.705  0.0355  0.0204  0.1129
    1TYR    SC2  163   4.678   0.629   1.761  0.1759  0.1729  0.0559
    1TYR    SC3  164   4.806   0.629   1.523  0.1206 -0.0394  0.0232
    2ILE     BB  165   5.111   0.088   1.976  0.0487 -0.0229  0.2622
    2ILE    SC1  166   5.250  -0.182   1.915  0.2789  0.1595 -0.0612
    3TYR     BB  167   5.221   0.292   2.270  0.3425 -0.1754 -0.2128
    3TYR    SC1  168   5.142   0.583   2.149 -0.1913 -0.3357  0.0507
    3TYR    SC2  169   5.067   0.836   2.206 -0.0954 -0.4001  0.5137
    3TYR    SC3  170   5.067   0.750   1.951  0.1220  0.1456  0.3104
    1TYR     BB  171   0.823   0.212   1.192 -0.0448  0.2159  0.1091
    1TYR    SC1  172   0.594   0.005   1.103 -0.0948 -0.0750 -0.0832
    1TYR    SC2  173   0.449  -0.223   1.108  0.1247 -0.2188 -0.0797
    1TYR    SC3  174   0.409  -0.042   0.912 -0.2881 -0.0954  0.1043
    2ILE     BB  175   1.079  -0.031   1.034 -0.1415  0.1148  0.1224
    2ILE    SC1  176   1.189   0.165   0.820 -0.0278 -0.2289 -0.1469
    3TYR     BB  177   0.993  -0.276   0.964 -0.0910  0.2993  0.0627
    3TYR    SC1  178   0.721  -0.347   0.779  0.0956  0.3408 -0.4644
    3TYR    SC2  179   0.596  -0.289   0.546 -0.3373  0.0720 -0.3144
    3TYR    SC3  180   0.544  -0.522   0.673  0.0392  0.1254 -0.0399
    1TYR     BB  181   2.904   0.334   2.495  0.0780  0.1898  0.0670
    1TYR    SC1  182   2.776   0.591   2.517  0.0091  0.0862 -0.3227
    1TYR    SC2  183   2.564   0.755   2.547 -0.0119  0.0234 -0.1035
    1TYR    SC3  184   2.763   0.821   2.376 -0.2056  0.0830 -0.3123
    2ILE     BB  185   2.776   0.025   2.533  0.0266  0.1919 -0.1936
    2ILE    SC1  186   2.751  -0.090   2.247  0.0932 -0.0873 -0.0909
    3TYR     BB  187   2.739  -0.181   2.748  0.1166  0.5669  0.1255
    3TYR    SC1  188   2.846  -0.466   2.627  0.1623 -0.0576 -0.0344
    3TYR    SC2  189   3.016  -0.596   2.461 -0.3318 -0.3803 -0.3206
    3TYR    SC3  190   2.800  -0.724   2.561 -0.1910 -0.1182  0.3928
    1TYR     BB  191   6.409   6.973   1.534  0.1783  0.2476  0.3384
    1TYR    SC1  192   6.268   6.701   1.465 -0.0851  0.0960 -0.1842
    1TYR    SC2  193   6.379   6.565   1.260  0.1044  0.0960 -0.0841
    1TYR    SC3  194   6.190   6.448   1.412  0.0194  0.0684 -0.2098
    2ILE     BB  195   6.324   7.196   1.609  0.1711  0.0467 -0.1918
    2ILE    SC1  196   6.088   7.364   1.498  0.1100  0.1490  0.0800
    3TYR     BB  197   6.481   7.508   1.693  0.1841 -0.0711 -0.0263
    3TYR    SC1  198   6.603   7.767   1.733 -0.1003  0.1484  0.2049
    3TYR    SC2  199   6.734   7.934   1.900 -0.1869  0.2051  0.2175
    3TYR    SC3  200   6.558   8.033   1.721  0.0984  0.1738 -0.0929
    1TYR     BB  201   3.100   6.178   2.050 -0.1714  0.2614 -0.1539
    1TYR    SC1  202   3.267   6.184   2.337 -0.5339  0.2886 -0.1516
    1TYR    SC2  203   3.330   6.305   2.570 -0.2336 -0.3107  0.1068
    1TYR    SC3  204   3.498   6.123   2.463 -0.3444 -0.0290 -0.6160
    2ILE     BB  205   3.132   6.440   1.861 -0.2461 -0.0085  0.1572
    2ILE    SC1  206   3.155   6.650   2.088 -0.1495  0.1367  0.0158
    3TYR     BB  207   3.294   6.410   1.659  0.0046  0.1783 -0.1212
    3TYR    SC1  208   3.284   6.107   1.534  0.0194 -0.1101  0.2241
    3TYR    SC2  209   3.414   5.875   1.491  0.0622 -0.1735  0.6391
    3TYR    SC3  210   3.167   5.911   1.390  0.3106 -0.1202 -0.0086
    1TYR     BB  211   2.792   0.141   0.876 -0.0387 -0.1255 -0.1035
    1TYR    SC1  212   2.509   0.179   0.866 -0.0598  0.2746 -0.0624
    1TYR    SC2  213   2.268   0.117   0.971  0.0100  0.1797  0.0449
    1TYR    SC3  214   2.291   0.322   0.797 -0.2244 -0.0743 -0.2998
    2ILE     BB  215   2.801  -0.211   0.928 -0.0292 -0.0569  0.0652
    2ILE    SC1  216   2.726  -0.280   1.221  0.0629  0.0994  0.1269
    3TYR     BB  217   2.849  -0.478   0.695 -0.4007  0.0101  0.0088
    3TYR    SC1  218   3.153  -0.481   0.641  0.0314 -0.0447 -0.2178
    3TYR    SC2  219   3.312  -0.333   0.801 -0.3442  0.4493 -0.2726
    3TYR    SC3  220   3.417  -0.462   0.589  0.0123  0.5706 -0.1786
    1TYR     BB  221   0.828   0.358   1.705  0.1357 -0.2105  0.1917
    1TYR    SC1  222   0.833   0.632   1.529  0.1819 -0.3186  0.0050
    1TYR    SC2  223   0.741   0.874   1.453  0.0221 -0.2647  0.3470
    1TYR    SC3  224   0.852   0.708   1.271  0.2863  0.1277  0.1336
    2ILE     BB  225   0.998   0.145   1.799  0.2145 -0.1603  0.0301
    2ILE    SC1  226   1.098  -0.024   1.559 -0.1220  0.3777 -0.5248
    3TYR     BB  227   1.041  -0.067   2.021 -0.1264  0.4989 -0.0283
    3TYR    SC1  228   1.168   0.068   2.249  0.0918 -0.3513 -0.0120
    3TYR    SC2  229   1.168   0.167   2.500  0.0185 -0.2598 -0.0471
    3TYR    SC3  230   1.311   0.289   2.306  0.0851 -0.3375 -0.0476
    1TYR     BB  231   6.100   7.522   1.029 -0.0377  0.0577 -0.0190
    1TYR    SC1  232   6.107   7.808   0.933  0.3193  0.2393  0.2076
    1TYR    SC2  233   6.089   8.078   0.939  0.0004  0.2502 -0.3356
    1TYR    SC3  234   6.233   7.956   0.745 -0.1261  0.0271 -0.2936
    2ILE     BB  235   6.253   7.326   0.899  0.2232  0.3198  0.1415
    2ILE    SC1  236   6.317   7.320   0.596 -0.1388 -0.1146  0.0607
    3TYR     BB  237   6.216   7.025   1.028  0.1741  0.0638  0.0612
    3TYR    SC1  238   6.386   6.904   0.822  0.0504  0.1476  0.0440
    3TYR    SC2  239   6.449   6.669   0.705 -0.1720  0.1554 -0.0992
    3TYR    SC3  240   6.575   6.895   0.630 -0.0070  0.0952 -0.0106
    1TYR     BB  241   3.171   7.415   2.124 -0.2393 -0.2589  0.0090
    1TYR    SC1  242   3.399   7.203   2.093  0.1472  0.0303 -0.1177
    1TYR    SC2  243   3.486   6.960   2.169  0.0647  0.0496  0.0451
    1TYR    SC3  244   3.661   7.165   2.146  0.1874 -0.0894 -0.3843
    2ILE     BB  245   3.304   7.684   2.076 -0.4095  0.3252  0.2538
    2ILE    SC1  246   3.372   7.793   2.358  0.2183  0.4777  0.0616
    3TYR     BB  247   3.346   7.923   1.869  0.1613 -0.3856 -0.2060
    3TYR    SC1  248   3.606   8.055   1.973 -0.0329 -0.2915 -0.2131
    3TYR    SC2  249   3.850   8.164   1.928 -0.0714  0.0086  0.2253
    3TYR    SC3  250   3.743   8.169   2.177 -0.4364 -0.3174  0.0884
    1TYR     BB  251   3.597   6.297   3.038 -0.2307  0.0231 -0.1156
    1TYR    SC1  252   3.846   6.237   3.158  0.3022  0.1865  0.1519
    1TYR    SC2  253   3.948   6.040   3.311 -0.0115 -0.0772  0.0340
    1TYR    SC3  254   4.046   6.082   3.063  0.2749  0.1361  0.1765
    2ILE     BB  255   3.350   6.382   3.260  0.1719  0.0100 -0.1572
    2ILE    SC1  256   3.090   6.544   3.206  0.0958 -0.0800 -0.0650
    3TYR     BB  257   3.357   6.226   3.501  0.0251 -0.1223 -0.1022
    3TYR    SC1  258   3.578   6.151   3.726 -0.2697 -0.0904 -0.0370
    3TYR    SC2  259   3.727   6.118   3.949  0.0054  0.2157 -0.1654
    3TYR    SC3  260   3.812   6.018   3.713  0.0987  0.5259 -0.2700
    1TYR     BB  261   6.076   6.714   3.253 -0.0849 -0.0868  0.1362
    1TYR    SC1  262   6.067   6.600   3.546  0.1487 -0.0165 -0.1797
    1TYR    SC2  263   5.990   6.724   3.773  0.4888 -0.1162 -0.0010
    1TYR    SC3  264   6.022   6.456   3.770  0.2418 -0.1486 -0.2438
    2ILE     BB  265   6.277   6.440   3.050  0.3658 -0.3184 -0.1379
    2ILE    SC1  266   6.258   6.254   3.297  0.1310 -0.0488  0.0562
    3TYR     BB  267   6.368   6.425   2.807  0.1036  0.1292  0.0270
    3TYR    SC1  268   6.619   6.267   2.774 -0.2286  0.2481 -0.1797
    3TYR    SC2  269   6.865   6.219   2.672 -0.0657  0.4946  0.0756
    3TYR    SC3  270   6.745   6.035   2.829 -0.0493  0.3709 -0.0543
    1TYR     BB  271   7.491   7.489   2.260 -0.0983 -0.0607 -0.2271
    1TYR    SC1  272   7.334   7.746   2.213 -0.1030 -0.0809  0.0215
    1TYR    SC2  273   7.134   7.885   2.098 -0.1821 -0.1791  0.0394
    1TYR    SC3  274   7.251   7.979   2.322 -0.1149 -0.0527 -0.0475
    2ILE     BB  275   7.499   7.225   2.132  0.0108 -0.0521 -0.1372
    2ILE    SC1  276   7.313   7.193   1.886  0.0057 -0.3311 -0.1010
    3TYR     BB  277   7.781   7.104   2.053 -0.0473  0.2034  0.0195
    3TYR    SC1  278   8.042   7.221   2.155 -0.0252  0.0752 -0.0867
    3TYR    SC2  279   8.293   7.126   2.178 -0.1263 -0.1870 -0.0230
    3TYR    SC3  280   8.252   7.389   2.132  0.1578 -0.1452 -0.0598
    1TYR     BB  281   3.792   7.551   2.523 -0.2057  0.1705 -0.3327
    1TYR    SC1  282   3.798   7.782   2.676 -0.2069 -0.1413  0.2717
    1TYR    SC2  283   3.732   7.950   2.877 -0.2353 -0.0262  0.1681
    1TYR    SC3  284   3.655   8.005   2.625  0.0403 -0.0195  0.0806
    2ILE     BB  285   3.796   7.312   2.801 -0.2311  0.1491 -0.1109
    2ILE    SC1  286   3.724   7.047   2.657  0.0467  0.0952 -0.1577
    3TYR     BB  287   3.969   7.321   2.985  0.0868 -0.1202  0.0696
    3TYR    SC1  288   4.210   7.235   3.190  0.4197  0.1311  0.0977
    3TYR    SC2  289   4.263   7.366   3.420  0.1587  0.0255  0.2237
    3TYR    SC3  290   4.279   7.097   3.411 -0.1706  0.0006  0.2239
    1TYR     BB  291   5.991   6.440   2.243 -0.2929  0.0617 -0.0515
    1TYR    SC1  292   6.214   6.194   2.293  0.0590 -0.3993 -0.3381
    1TYR    SC2  293   6.480   6.151   2.299  0.1465  0.0899 -0.0674
    1TYR    SC3  294   6.321   6.038   2.485  0.1648 -0.1606 -0.1982
    2ILE     BB  295   5.975   6.674   2.410 -0.1568 -0.0362  0.0926
    2ILE    SC1  296   5.756   6.855   2.286  0.0347  0.1839  0.0677
    3TYR     BB  297   5.876   6.650   2.749 -0.2636 -0.1542  0.1631
    3TYR    SC1  298   5.860   6.326   2.768  0.3693  0.1625  0.1860
    3TYR    SC2  299   5.876   6.125   2.948  0.4794  0.0832  0.0897
    3TYR    SC3  300   5.932   6.078   2.689  0.0145  0.1197 -0.0283
    1TYR     BB  301   1.891   0.447   2.484 -0.0919 -0.0149 -0.0453
    1TYR    SC1  302   1.943   0.276   2.139 -0.0789 -0.2456  0.0088
    1TYR    SC2  303   2.043   0.099   1.961  0.5737  0.3559 -0.2851
    1TYR    SC3  304   2.004   0.356   1.889 -0.1670  0.4131  0.1742
    2ILE     BB  305   1.655   0.613   2.376  0.0429 -0.0393  0.0109
    2ILE    SC1  306   1.555   0.816   2.588  0.0960  0.1129 -0.1077
    3TYR     BB  307   1.637   0.675   2.073  0.3373 -0.0381 -0.0244
    3TYR    SC1  308   1.547   0.441   1.879 -0.4225 -0.1421 -0.4450
    3TYR    SC2  309   1.526   0.174   1.847 -0.2596 -0.1511 -0.4894
    3TYR    SC3  310   1.610   0.328   1.642  0.1664 -0.1324 -0.3123
    1TYR     BB  311   4.729   0.282   2.301 -0.2188  0.0104 -0.1732
    1TYR    SC1  312   4.812   0.487   2.580 -0.3138  0.3075 -0.2014
    1TYR    SC2  313   4.869   0.634   2.799  0.1069 -0.1159 -0.0035
    1TYR    SC3  314   4.618   0.541   2.760 -0.0416  0.2064  0.1357
    2ILE     BB  315   4.789   0.022   2.467  0.0647 -0.0295 -0.3582
    2ILE    SC1  316   4.949  -0.197   2.317  0.0831 -0.2720  0.0022
    3TYR     BB  317   4.778  -0.018   2.800 -0.0796 -0.1750  0.0477
    3TYR    SC1  318   4.727   0.190   2.989 -0.1743  0.0331 -0.1250
    3TYR    SC2  319   4.520   0.276   3.139 -0.1376  0.1839 -0.1587
    3TYR    SC3  320   4.763   0.389   3.167 -0.1175  0.1754 -0.2921
    1TYR     BB  321   2.103   0.802   2.021  0.0494 -0.2193  0.2446
    1TYR    SC1  322   2.068   0.891   2.275 -0.0242  0.0269 -0.1626
    1TYR    SC2  323   1.967   1.087   2.431  0.1036 -0.0565  0.0305
    1TYR    SC3  324   2.178   0.941   2.517 -0.0583 -0.3537 -0.0587
    2ILE     BB  325   2.029   0.815   1.691  0.1289  0.1608 -0.2221
    2ILE    SC1  326   1.903   1.098   1.701  0.0306  0.1235 -0.3664
    3TYR     BB  327   1.875   0.660   1.394 -0.2341 -0.2894 -0.0046
    3TYR    SC1  328   2.129   0.738   1.214  0.3281 -0.0568  0.0792
    3TYR    SC2  329   2.213   0.699   0.961 -0.0736 -0.0271 -0.0668
    3TYR    SC3  330   2.308   0.907   1.103  0.2360 -0.1052 -0.1499
    1TYR     BB  331   0.019   6.864   2.507 -0.0307  0.1426  0.0955
    1TYR    SC1  332  -0.151   6.716   2.333  0.0762 -0.1512  0.0656
    1TYR    SC2  333  -0.324   6.692   2.127 -0.1288  0.1258  0.1968
    1TYR    SC3  334  -0.092   6.554   2.125 -0.1324  0.1088 -0.2080
    2ILE     BB  335   0.317   6.806   2.448 -0.2791  0.1307 -0.2486
    2ILE    SC1  336   0.374   6.701   2.162 -0.0219  0.1655 -0.2127
    3TYR     BB  337   0.498   7.015   2.629 -0.1476 -0.2166 -0.3395
    3TYR    SC1  338   0.405   7.321   2.648 -0.1023 -0.0240  0.3184
    3TYR    SC2  339   0.288   7.530   2.772  0.0165  0.2276  0.0223
    3TYR    SC3  340   0.317   7.532   2.504  0.0979 -0.1347  0.0230
    1TYR     BB  341   7.322   7.435   3.095  0.1228 -0.0002 -0.1687
    1TYR    SC1  342   7.422   7.589   3.324 -0.0021 -0.0378 -0.0812
    1TYR    SC2  343   7.367   7.670   3.576  0.1565 -0.1749 -0.0003
    1TYR    SC3  344   7.623   7.629   3.500  0.1285  0.0834 -0.2538
    2ILE     BB  345   7.469   7.514   2.851  0.2745  0.1246 -0.0003
    2ILE    SC1  346   7.504   7.254   2.686 -0.0477  0.0557  0.0319
    3TYR     BB  347   7.510   7.824   2.677  0.1759 -0.1178 -0.1682
    3TYR    SC1  348   7.579   7.964   2.940 -0.0693 -0.2158 -0.1380
    3TYR    SC2  349   7.571   8.057   3.193  0.3209  0.1923 -0.2581
    3TYR    SC3  350   7.719   7.839   3.134  0.1438  0.0317 -0.1246
    1TYR     BB  351   0.886   6.207   2.934 -0.0357 -0.1667 -0.0020
    1TYR    SC1  352   0.664   6.284   3.156 -0.1119 -0.0619  0.0394
    1TYR    SC2  353   0.633   6.409   3.393  0.0601  0.0975 -0.0193
    1TYR    SC3  354   0.498   6.181   3.342 -0.1019  0.1480  0.1686
    2ILE     BB  355   1.076   6.438   2.846  0.0366 -0.4082  0.2165
    2ILE    SC1  356   1.308   6.320   2.678 -0.1920 -0.1635 -0.3023
    3TYR     BB  357   1.272   6.673   2.995  0.1090 -0.2326 -0.2128
    3TYR    SC1  358   1.566   6.691   2.962 -0.0030 -0.0298  0.0084
    3TYR    SC2  359   1.809   6.593   2.897  0.0642  0.1765 -0.0625
    3TYR    SC3  360   1.789   6.835   3.015 -0.1239  0.3430 -0.4184
    1TYR     BB  361   0.170   5.829   2.293 -0.1383  0.1424  0.2537
    1TYR    SC1  362   0.286   5.538   2.246  0.0371  0.1946  0.0927
    1TYR    SC2  363   0.410   5.299   2.225 -0.4505 -0.0757  0.1235
    1TYR    SC3  364   0.371   5.411   2.468 -0.1570  0.0800  0.1040
    2ILE     BB  365   0.070   5.994   2.041 -0.0140 -0.0135  0.3425
    2ILE    SC1  366  -0.041   5.851   1.789 -0.1653  0.0016  0.3993
    3TYR     BB  367   0.255   6.249   1.892 -0.1740  0.3816 -0.0716
    3TYR    SC1  368   0.279   6.181   1.608  0.2111 -0.0246 -0.0864
    3TYR    SC2  369   0.296   5.980   1.428  0.1431 -0.0148 -0.1041
    3TYR    SC3  370   0.085   6.149   1.423 -0.1176 -0.3053  0.2852
    1TYR     BB  371   1.323   6.275   3.936  0.1550  0.0243 -0.1281
    1TYR    SC1  372   1.225   6.262   3.630 -0.0477 -0.1479 -0.2853
    1TYR    SC2  373   1.114   6.140   3.416 -0.3913 -0.0388 -0.1769
    1TYR    SC3  374   1.143   6.409   3.418  0.3013 -0.0864 -0.3874
    2ILE     BB  375   1.315   5.975   4.076 -0.1663 -0.0341 -0.0871
    2ILE    SC1  376   1.360   5.770   3.849  0.1358  0.0208 -0.0818
    3TYR     BB  377   1.168   5.934   4.354  0.2247 -0.2697 -0.1528
    3TYR    SC1  378   1.340   5.962   4.617 -0.0242 -0.0016  0.0195
    3TYR    SC2  379   1.317   5.805   4.835  0.2349 -0.0838 -0.0080
    3TYR    SC3  380   1.461   6.033   4.847  0.2980 -0.1177 -0.1064
    1TYR     BB  381   3.126   5.758   2.457  0.2564 -0.2342  0.2910
    1TYR    SC1  382   3.159   5.915   2.724 -0.2372  0.0227 -0.1838
    1TYR    SC2  383   3.171   6.099   2.921  0.0139 -0.0256 -0.1489
    1TYR    SC3  384   3.011   5.882   2.948 -0.1590  0.1022 -0.1195
    2ILE     BB  385   2.866   5.724   2.283  0.1107  0.0859  0.2769
    2ILE    SC1  386   2.854   5.428   2.193  0.1917  0.1254  0.1330
    3TYR     BB  387   2.707   5.897   2.187 -0.2286  0.2819  0.1949
    3TYR    SC1  388   2.482   5.817   2.008  0.0696  0.0416  0.0485
    3TYR    SC2  389   2.231   5.725   1.969  0.1269 -0.2949  0.3989
    3TYR    SC3  390   2.441   5.597   1.858  0.1431  0.1699 -0.1652
    1TYR     BB  391   2.839   7.608   3.673  0.3435 -0.1818 -0.2248
    1TYR    SC1  392   2.910   7.837   3.826 -0.2894  0.2778  0.1890
    1TYR    SC2  393   2.934   8.102   3.867  0.3049  0.3556 -0.4385
    1TYR    SC3  394   3.153   7.944   3.873 -0.0315 -0.1323 -0.1157
    2ILE     BB  395   2.618   7.469   3.854  0.1248  0.1458 -0.2656
    2ILE    SC1  396   2.408   7.240   3.849 -0.1898  0.3948  0.3200
    3TYR     BB  397   2.698   7.503   4.132 -0.1159 -0.2047 -0.0465
    3TYR    SC1  398   2.722   7.769   4.233 -0.2022  0.2422 -0.1655
    3TYR    SC2  399   2.833   8.010   4.283 -0.2743  0.1938  0.2802
    3TYR    SC3  400   2.587   7.953   4.378 -0.2278 -0.0802  0.2448
    1TYR     BB  401   3.802   6.516   2.651 -0.1227  0.0139 -0.0325
    1TYR    SC1  402   3.918   6.223   2.586  0.0917  0.0106 -0.1842
    1TYR    SC2  403   4.049   5.988   2.575  0.0971  0.0136 -0.1841
    1TYR    SC3  404   3.998   6.124   2.348  0.1171  0.0252 -0.1817
    2ILE     BB  405   3.807   6.607   2.277 -0.2369  0.0688  0.0466
    2ILE    SC1  406   4.064   6.777   2.314 -0.1005 -0.0466 -0.3175
    3TYR     BB  407   3.608   6.449   2.079 -0.2838 -0.1150 -0.1401
    3TYR    SC1  408   3.665   6.161   1.967  0.0985  0.0556  0.1112
    3TYR    SC2  409   3.499   5.966   1.881  0.0985  0.2762 -0.4427
    3TYR    SC3  410   3.753   5.906   1.949 -0.0721  0.0011  0.0119
    1TYR     BB  411   2.216   6.789   1.813 -0.0272  0.1308  0.1191
    1TYR    SC1  412   2.001   7.003   1.949  0.0995 -0.3736  0.5334
    1TYR    SC2  413   1.947   7.246   2.053 -0.0766 -0.1110 -0.1099
    1TYR    SC3  414   1.759   7.053   2.059 -0.0277 -0.1552  0.1771
    2ILE     BB  415   2.168   7.001   1.495 -0.0026 -0.0571  0.1148
    2ILE    SC1  416   2.059   6.903   1.221  0.0942  0.2642 -0.0455
    3TYR     BB  417   2.258   7.336   1.382 -0.4532 -0.0774 -0.1887
    3TYR    SC1  418   2.204   7.648   1.388  0.2743 -0.1568  0.0123
    3TYR    SC2  419   2.269   7.910   1.404  0.3947 -0.1750 -0.1525
    3TYR    SC3  420   2.017   7.830   1.457  0.4405 -0.0735  0.2646
    1TYR     BB  421   1.505   7.626   3.721  0.0200  0.0333 -0.1473
    1TYR    SC1  422   1.237   7.549   3.656  0.1387 -0.1358  0.1817
    1TYR    SC2  423   1.184   7.421   3.424  0.0906  0.2230 -0.0153
    1TYR    SC3  424   0.994   7.439   3.615  0.2375 -0.3743  0.2160
    2ILE     BB  425   1.503   7.833   3.946 -0.3051  0.0454 -0.0403
    2ILE    SC1  426   1.574   7.875   4.245 -0.4136  0.1434 -0.0275
    3TYR     BB  427   1.333   8.107   3.864  0.1589 -0.1923 -0.2476
    3TYR    SC1  428   1.055   8.010   3.753  0.0465 -0.0734 -0.2875
    3TYR    SC2  429   0.790   8.054   3.771  0.0746 -0.0120  0.0825
    3TYR    SC3  430   0.885   7.802   3.780  0.0409 -0.0217  0.1863
    1TYR     BB  431   2.088   0.194   4.380 -0.2875 -0.1330 -0.0685
    1TYR    SC1  432   2.022   0.487   4.259 -0.4747 -0.2650  0.0683
    1TYR    SC2  433   1.898   0.586   4.040 -0.5407 -0.0495  0.1998
    1TYR    SC3  434   1.941   0.744   4.255 -0.0887 -0.1324  0.1829
    2ILE     BB  435   2.207  -0.029   4.155  0.1468 -0.2061  0.0777
    2ILE    SC1  436   1.983   0.037   3.951  0.0854 -0.2050  0.1451
    3TYR     BB  437   2.308  -0.292   4.354  0.1615 -0.0757  0.3630
    3TYR    SC1  438   2.059  -0.316   4.536  0.0205  0.3421  0.1476
    3TYR    SC2  439   1.883  -0.146   4.649 -0.0109  0.2570  0.2278
    3TYR    SC3  440   1.891  -0.404   4.728 -0.0775  0.1797 -0.0082
    1TYR     BB  441   2.988   0.695   3.427  0.3123  0.2409  0.0247
    1TYR    SC1  442   3.198   0.477   3.448  0.0560  0.1573 -0.0451
    1TYR    SC2  443   3.216   0.208   3.451 -0.3196  0.1258  0.2180
    1TYR    SC3  444   3.440   0.358   3.458 -0.1076 -0.1763  0.1697
    2ILE     BB  445   2.577   0.563   3.388 -0.0453 -0.0978  0.0399
    2ILE    SC1  446   2.735   0.327   3.265 -0.2217 -0.2004  0.0060
    3TYR     BB  447   2.265   0.538   3.298 -0.3332  0.0133  0.1214
    3TYR    SC1  448   2.137   0.777   3.471 -0.1744 -0.0669 -0.0782
    3TYR    SC2  449   2.007   1.014   3.479  0.3180  0.2163  0.0447
    3TYR    SC3  450   2.065   0.884   3.709  0.1706  0.0405 -0.0149
    1TYR     BB  451   4.522   7.486   2.065 -0.2178 -0.4336 -0.0109
    1TYR    SC1  452   4.578   7.213   2.171  0.4103  0.3184 -0.1888
    1TYR    SC2  453   4.746   7.002   2.196  0.0252 -0.0076 -0.2279
    1TYR    SC3  454   4.501   6.994   2.310 -0.0193  0.4030 -0.2764
    2ILE     BB  455   4.317   7.360   1.773 -0.0678 -0.2410 -0.1328
    2ILE    SC1  456   4.097   7.259   1.967 -0.0656 -0.0373 -0.0216
    3TYR     BB  457   4.227   7.541   1.573 -0.1642 -0.0936 -0.1667
    3TYR    SC1  458   4.477   7.692   1.465 -0.0953  0.1142 -0.0527
    3TYR    SC2  459   4.679   7.850   1.380 -0.1498  0.2434  0.0531
    3TYR    SC3  460   4.593   7.645   1.226  0.2081  0.0478  0.1016
    1TYR     BB  461   1.634   0.114   2.715 -0.3850  0.0741  0.1095
    1TYR    SC1  462   1.624  -0.085   2.444  0.0620  0.1202  0.0756
    1TYR    SC2  463   1.565  -0.313   2.311  0.4167 -0.1156  0.3029
    1TYR    SC3  464   1.623  -0.088   2.174  0.0719 -0.1567  0.0750
    2ILE     BB  465   1.568   0.382   2.900  0.1367 -0.1510 -0.0633
    2ILE    SC1  466   1.279   0.493   2.900  0.1449 -0.1273  0.0704
    3TYR     BB  467   1.852   0.589   2.998  0.3183 -0.2223  0.0045
    3TYR    SC1  468   1.672   0.837   3.071 -0.1977 -0.1727 -0.2643
    3TYR    SC2  469   1.630   1.075   3.192 -0.0609 -0.2215 -0.1172
    3TYR    SC3  470   1.422   0.908   3.147 -0.1035 -0.2434  0.1394
    1TYR     BB  471   2.885   5.415   2.754  0.1627  0.0409 -0.3052
    1TYR    SC1  472   2.681   5.651   2.747 -0.1601 -0.0635 -0.1621
    1TYR    SC2  473   2.550   5.779   2.946  0.1862  0.1543 -0.0641
    1TYR    SC3  474   2.586   5.900   2.707 -0.3338 -0.1514 -0.3211
    2ILE     BB  475   2.711   5.229   2.975 -0.2032 -0.1903  0.0854
    2ILE    SC1  476   2.821   5.157   3.255  0.1481 -0.2734 -0.0680
    3TYR     BB  477   2.372   5.331   3.043  0.0747  0.0007 -0.0641
    3TYR    SC1  478   2.300   5.311   3.331 -0.0378 -0.2523 -0.1874
    3TYR    SC2  479   2.423   5.187   3.537 -0.2738 -0.1671  0.0107
    3TYR    SC3  480   2.155   5.217   3.538 -0.2477  0.1230 -0.1520
    1TYR     BB  481   2.523   0.105   1.859  0.4310 -0.0830 -0.1306
    1TYR    SC1  482   2.433   0.260   2.119  0.0289  0.3031 -0.0526
    1TYR    SC2  483   2.406   0.466   2.291  0.1372  0.1990  0.0919
    1TYR    SC3  484   2.352   0.214   2.372  0.6000  0.0958  0.1111
    2ILE     BB  485   2.843   0.181   1.827  0.2765 -0.0062  0.1242
    2ILE    SC1  486   2.999  -0.042   1.679  0.0467 -0.0075 -0.1254
    3TYR     BB  487   2.877   0.461   1.984 -0.2575  0.1089  0.1570
    3TYR    SC1  488   3.028   0.642   1.832  0.1531 -0.4078 -0.3080
    3TYR    SC2  489   3.141   0.750   1.612  0.1584  0.3677  0.0316
    3TYR    SC3  490   3.257   0.783   1.853 -0.2626  0.2675  0.2609
    1TYR     BB  491   5.779   7.096   3.556  0.0567 -0.0065 -0.3890
    1TYR    SC1  492   5.908   7.377   3.690 -0.1186  0.0868 -0.0178
    1TYR    SC2  493   5.873   7.564   3.881 -0.1747  0.0871 -0.0285
    1TYR    SC3  494   6.116   7.530   3.770 -0.1223  0.0315  0.1006
    2ILE     BB  495   5.473   7.057   3.643 -0.0327 -0.0867 -0.1826
    2ILE    SC1  496   5.468   6.901   3.911 -0.0494 -0.1785 -0.2361
    3TYR     BB  497   5.221   7.211   3.562 -0.4467  0.0304  0.2423
    3TYR    SC1  498   5.249   7.463   3.759  0.1890  0.1537  0.0240
    3TYR    SC2  499   5.399   7.628   3.912  0.1762 -0.1474  0.3788
    3TYR    SC3  500   5.167   7.530   4.007 -0.1516  0.1340 -0.0778
    1TYR     BB  501   0.267   7.201   3.678  0.1830  0.1990 -0.0774
    1TYR    SC1  502   0.298   7.199   3.358 -0.2552 -0.3034  0.1888
    1TYR    SC2  503   0.191   7.359   3.169  0.1399 -0.1916  0.0469
    1TYR    SC3  504   0.288   7.117   3.101  0.2077 -0.1863  0.1231
    2ILE     BB  505   0.490   7.490   3.698 -0.3085  0.1581  0.1828
    2ILE    SC1  506   0.437   7.690   3.928  0.0986  0.1804  0.2670
    3TYR     BB  507   0.537   7.645   3.433  0.0937  0.1427  0.0258
    3TYR    SC1  508   0.806   7.832   3.354 -0.0580 -0.4315 -0.2288
    3TYR    SC2  509   1.076   7.828   3.358 -0.0479 -0.0942 -0.1469
    3TYR    SC3  510   0.947   8.038   3.250 -0.2703  0.0575  0.3718
    1TYR     BB  511   1.235   5.806   3.011  0.2290  0.1036  0.2726
    1TYR    SC1  512   1.299   5.480   2.920 -0.0133 -0.1777 -0.1011
    1TYR    SC2  513   1.403   5.231   2.934 -0.1538 -0.2252  0.2050
    1TYR    SC3  514   1.185   5.295   3.080 -0.0250  0.1234  0.2568
    2ILE     BB  515   0.927   5.750   3.223  0.2477  0.5160  0.1119
    2ILE    SC1  516   0.781   5.604   2.992  0.3049  0.1303  0.3099
    3TYR     BB  517   0.760   5.769   3.514  0.0917  0.3681  0.1951
    3TYR    SC1  518   0.845   5.930   3.733 -0.2205  0.0882  0.0122
    3TYR    SC2  519   0.781   6.177   3.821  0.0197  0.0588  0.2871
    3TYR    SC3  520   0.821   5.976   3.998 -0.2805 -0.2108  0.0630
    1TYR     BB  521   6.028   7.111   2.625  0.1220 -0.2114 -0.2478
    1TYR    SC1  522   6.204   7.389   2.673 -0.3257  0.0382 -0.3186
    1TYR    SC2  523   6.313   7.635   2.691  0.0948 -0.1416 -0.2616
    1TYR    SC3  524   6.467   7.416   2.725 -0.3315 -0.4170  0.0331
    2ILE     BB  525   5.894   7.059   2.948  0.1542 -0.2620  0.1128
    2ILE    SC1  526   6.045   7.211   3.172  0.2436  0.2124 -0.2481
    3TYR     BB  527   5.580   7.069   3.112  0.0917 -0.2123 -0.0289
    3TYR    SC1  528   5.552   6.760   3.212 -0.0156 -0.1239 -0.3144
    3TYR    SC2  529   5.463   6.615   3.421  0.0989  0.2378 -0.0020
    3TYR    SC3  530   5.626   6.502   3.239 -0.0552 -0.1029  0.0617
    1TYR     BB  531   7.069   0.322   2.818  0.1785  0.3633  0.0834
    1TYR    SC1  532   6.897   0.286   2.569 -0.0472 -0.2691 -0.1169
    1TYR    SC2  533   6.788   0.234   2.327 -0.0854 -0.1016 -0.1376
    1TYR    SC3  534   6.636   0.338   2.524  0.0444  0.1836 -0.1823
    2ILE     BB  535   6.954   0.079   3.054 -0.1836  0.2218 -0.0794
    2ILE    SC1  536   6.647   0.107   3.019 -0.2460 -0.1180  0.1383
    3TYR     BB  537   7.035   0.265   3.329  0.2610  0.0447  0.1255
    3TYR    SC1  538   6.781   0.468   3.378 -0.0191  0.1138 -0.0356
    3TYR    SC2  539   6.512   0.469   3.350 -0.0171 -0.0020 -0.0666
    3TYR    SC3  540   6.642   0.696   3.419 -0.1296  0.0380  0.0164
    1TYR     BB  541   2.847   7.034   2.031  0.1086 -0.1499 -0.1024
    1TYR    SC1  542   3.013   7.057   1.789 -0.0555 -0.0524 -0.0100
    1TYR    SC2  543   3.221   7.147   1.643  0.0814 -0.0644  0.1730
    1TYR    SC3  544   3.156   6.885   1.639  0.0042 -0.0446  0.0376
    2ILE     BB  545   2.563   7.113   2.027  0.3234 -0.1961 -0.0557
    2ILE    SC1  546   2.482   7.277   1.777 -0.1835 -0.1397  0.1325
    3TYR     BB  547   2.395   7.133   2.285 -0.2389  0.1289 -0.0094
    3TYR    SC1  548   2.284   7.364   2.409 -0.3765 -0.1880 -0.1624
    3TYR    SC2  549   2.058   7.512   2.404 -0.1331  0.2055 -0.0615
    3TYR    SC3  550   2.208   7.502   2.629  0.0462  0.0988 -0.1830
    1TYR     BB  551   7.401   6.445   3.296 -0.0181  0.3103  0.0832
    1TYR    SC1  552   7.473   6.689   3.130  0.3142  0.2282  0.1240
    1TYR    SC2  553   7.297   6.894   3.131 -0.0187 -0.0439 -0.0341
    1TYR    SC3  554   7.551   6.934   3.047 -0.0202  0.3384  0.1184
    2ILE     BB  555   7.582   6.156   3.388  0.0602 -0.0706 -0.2538
    2ILE    SC1  556   7.756   6.273   3.616 -0.0094  0.1062 -0.2894
    3TYR     BB  557   7.673   5.871   3.324  0.1378  0.0771  0.2029
    3TYR    SC1  558   7.874   5.910   3.025  0.1595  0.0062  0.0157
    3TYR    SC2  559   8.100   5.975   2.893 -0.0086  0.0494 -0.2597
    3TYR    SC3  560   7.980   5.738   2.846 -0.1304  0.1122 -0.2700
    1TYR     BB  561   1.188   7.611   2.937  0.0245  0.0315 -0.2070
    1TYR    SC1  562   0.944   7.431   3.065  0.1769 -0.1689 -0.4275
    1TYR    SC2  563   0.841   7.255   3.243  0.0600  0.1908 -0.1233
    1TYR    SC3  564   0.695   7.332   3.030  0.0990 -0.0464 -0.2400
    2ILE     BB  565   1.485   7.343   2.914 -0.0091 -0.0063 -0.0474
    2ILE    SC1  566   1.401   7.115   3.106 -0.0248  0.1828  0.1755
    3TYR     BB  567   1.798   7.330   2.928 -0.0148 -0.2833  0.0249
    3TYR    SC1  568   1.901   7.217   3.190 -0.1571 -0.0501  0.2042
    3TYR    SC2  569   1.980   7.283   3.439 -0.0697 -0.1422  0.2018
    3TYR    SC3  570   2.044   7.041   3.337 -0.0420 -0.0775  0.0630
    1TYR     BB  571   1.218   6.485   1.505 -0.1187  0.0013  0.0882
    1TYR    SC1  572   1.330   6.231   1.444  0.0221  0.3446  0.3399
    1TYR    SC2  573   1.550   6.087   1.383 -0.4081 -0.0805 -0.3854
    1TYR    SC3  574   1.375   5.996   1.568 -0.0023  0.2717  0.2129
    2ILE     BB  575   0.990   6.620   1.419 -0.1266  0.2438 -0.1697
    2ILE    SC1  576   0.690   6.641   1.491 -0.1110 -0.0431  0.0004
    3TYR     BB  577   1.072   6.692   1.088 -0.0083 -0.1518 -0.1100
    3TYR    SC1  578   1.349   6.557   1.049 -0.1822 -0.1668 -0.2838
    3TYR    SC2  579   1.493   6.349   0.955 -0.0292 -0.1417 -0.1129
    3TYR    SC3  580   1.617   6.553   1.080 -0.1883  0.0089 -0.1954
    1TYR     BB  581   0.750   7.075   3.676  0.1693  0.1908 -0.1341
    1TYR    SC1  582   0.657   7.078   3.951  0.1433 -0.1292 -0.1412
    1TYR    SC2  583   0.525   7.159   4.172  0.0494 -0.0112 -0.2384
    1TYR    SC3  584   0.729   6.983   4.193 -0.0439 -0.1024 -0.0732
    2ILE     BB  585   0.981   6.775   3.696  0.2127 -0.0745 -0.0763
    2ILE    SC1  586   1.175   6.926   3.506  0.2693 -0.0744 -0.0190
    3TYR     BB  587   0.991   6.663   3.864 -0.3237 -0.1625  0.1438
    3TYR    SC1  588   0.964   6.566   4.127 -0.2348  0.0797 -0.1990
    3TYR    SC2  589   0.871   6.341   4.244  0.0016 -0.0378 -0.2281
    3TYR    SC3  590   0.846   6.579   4.370  0.4455 -0.1879  0.1822
    1TYR     BB  591   3.745   7.566   0.978  0.5269  0.1625  0.5925
    1TYR    SC1  592   3.487   7.599   1.098  0.0619 -0.0692  0.0869
    1TYR    SC2  593   3.347   7.475   1.293 -0.0435  0.0932  0.1169
    1TYR    SC3  594   3.219   7.628   1.111  0.0863  0.1789  0.0960
    2ILE     BB  595   4.000   7.605   1.120 -0.0194 -0.1173 -0.0422
    2ILE    SC1  596   4.167   7.344   1.120 -0.0448 -0.1345 -0.1489
    3TYR     BB  597   4.178   7.866   1.088 -0.0112 -0.1838 -0.2587
    3TYR    SC1  598   4.211   8.007   1.389  0.4099 -0.0089  0.3195
    3TYR    SC2  599   4.135   8.165   1.595  0.4358  0.3013  0.0996
    3TYR    SC3  600   4.375   8.203   1.477  0.4277  0.1170  0.0190
    1TYR     BB  601   3.719   7.098   1.106  0.2144  0.0328  0.0516
    1TYR    SC1  602   3.860   7.103   0.860 -0.0420 -0.0118  0.1086
    1TYR    SC2  603   4.068   6.997   0.725 -0.1627 -0.2824  0.1271
    1TYR    SC3  604   3.855   7.096   0.591 -0.0258  0.0003  0.1080
    2ILE     BB  605   3.840   6.811   1.297  0.0188 -0.1331  0.0217
    2ILE    SC1  606   4.082   6.957   1.424  0.1488  0.0314 -0.3936
    3TYR     BB  607   3.897   6.496   1.091  0.0876 -0.3671 -0.1650
    3TYR    SC1  608   3.828   6.332   1.351  0.0790 -0.2147  0.0391
    3TYR    SC2  609   3.744   6.158   1.539  0.1283 -0.2951 -0.0127
    3TYR    SC3  610   3.808   6.411   1.609  0.3831 -0.3920  0.1231
    1TYR     BB  611   3.539   7.548   3.107 -0.0084 -0.2547 -0.0069
    1TYR    SC1  612   3.771   7.677   3.230 -0.0129 -0.0342  0.1468
    1TYR    SC2  613   3.923   7.759   3.437 -0.0846  0.0141  0.1810
    1TYR    SC3  614   4.012   7.790   3.184 -0.1257  0.2326  0.1917
    2ILE     BB  615   3.383   7.594   2.830  0.0966 -0.4424  0.2757
    2ILE    SC1  616   3.332   7.369   2.623 -0.0594 -0.0289 -0.1581
    3TYR     BB  617   3.110   7.761   2.932  0.0630 -0.0926  0.2841
    3TYR    SC1  618   3.185   8.016   2.957 -0.0352  0.3146 -0.0952
    3TYR    SC2  619   3.346   8.214   3.047 -0.1278  0.2527  0.2210
    3TYR    SC3  620   3.240   8.228   2.799  0.1710  0.4091  0.0961
    1TYR     BB  621   2.458   0.579   1.754 -0.0815  0.0849 -0.1449
    1TYR    SC1  622   2.581   0.849   1.909 -0.0380 -0.0302 -0.3163
    1TYR    SC2  623   2.753   1.051   1.959  0.2007 -0.2030 -0.4167
    1TYR    SC3  624   2.524   1.030   2.101  0.2609  0.0297 -0.2786
    2ILE     BB  625   2.657   0.569   1.453  0.1734  0.1192 -0.5737
    2ILE    SC1  626   2.679   0.878   1.429  0.0719  0.2008  0.1113
    3TYR     BB  627   2.835   0.357   1.375 -0.0847  0.5195  0.0766
    3TYR    SC1  628   3.099   0.406   1.285 -0.1367 -0.0874  0.3478
    3TYR    SC2  629   3.361   0.390   1.351 -0.1124  0.2540  0.3601
    3TYR    SC3  630   3.284   0.538   1.139 -0.3001  0.1793  0.3732
    1TYR     BB  631   3.916   0.012   1.982  0.1609 -0.1883  0.1405
    1TYR    SC1  632   4.169   0.212   1.988  0.1047  0.3522  0.1041
    1TYR    SC2  633   4.289   0.451   2.030  0.1714  0.3191  0.1044
    1TYR    SC3  634   4.405   0.269   1.868  0.2478  0.1898  0.2992
    2ILE     BB  635   3.756  -0.025   1.744 -0.1402  0.2116  0.1388
    2ILE    SC1  636   3.781   0.198   1.530  0.1261  0.1769  0.1297
    3TYR     BB  637   3.747  -0.315   1.542  0.0372  0.3312 -0.0130
    3TYR    SC1  638   3.703  -0.567   1.694 -0.1637  0.0044 -0.1252
    3TYR    SC2  639   3.569  -0.800   1.714 -0.0470 -0.0444  0.1390
    3TYR    SC3  640   3.818  -0.779   1.815 -0.1747  0.2837  0.4126
    1TYR     BB  641   4.560   7.155   2.789  0.2608  0.1071 -0.1066
    1TYR    SC1  642   4.620   7.245   3.069 -0.2283 -0.0327  0.3373
    1TYR    SC2  643   4.714   7.238   3.322 -0.4267 -0.0215  0.4136
    1TYR    SC3  644   4.629   7.471   3.216  0.4707  0.1772  0.0214
    2ILE     BB  645   4.358   7.373   2.591 -0.2038  0.2881  0.0373
    2ILE    SC1  646   4.125   7.228   2.447  0.0775  0.0742 -0.2202
    3TYR     BB  647   4.302   7.609   2.745  0.4733 -0.3366  0.0447
    3TYR    SC1  648   4.214   7.857   2.596  0.1998 -0.0628 -0.1871
    3TYR    SC2  649   4.308   8.090   2.497 -0.2113  0.3862  0.3853
    3TYR    SC3  650   4.070   7.994   2.414  0.0328  0.0510  0.0245
    1TYR     BB  651   0.201   6.764   3.464  0.2618  0.1220 -0.1397
    1TYR    SC1  652   0.388   6.691   3.724 -0.0245 -0.1308  0.3743
    1TYR    SC2  653   0.561   6.610   3.914  0.3451  0.4975  0.3386
    1TYR    SC3  654   0.347   6.761   3.981 -0.1110 -0.1091  0.3552
    2ILE     BB  655  -0.104   6.859   3.614 -0.3233 -0.0896 -0.0192
    2ILE    SC1  656  -0.157   6.655   3.841 -0.0680 -0.0448  0.0846
    3TYR     BB  657  -0.187   7.128   3.555  0.0918 -0.1398  0.0329
    3TYR    SC1  658  -0.488   7.207   3.555 -0.0429 -0.3732 -0.0775
    3TYR    SC2  659  -0.656   7.412   3.507  0.1855 -0.0979  0.2364
    3TYR    SC3  660  -0.738   7.203   3.656 -0.1635 -0.4267 -0.3656
    1TYR     BB  661   1.499   7.641   1.281 -0.0297  0.0671  0.1489
    1TYR    SC1  662   1.367   7.921   1.244 -0.0231 -0.0194 -0.3063
    1TYR    SC2  663   1.307   8.159   1.133 -0.1263  0.1146  0.0199
    1TYR    SC3  664   1.241   8.110   1.390 -0.1296 -0.2791 -0.0483
    2ILE     BB  665   1.699   7.636   1.097  0.2128 -0.1077 -0.4331
    2ILE    SC1  666   1.800   7.904   0.980 -0.1278  0.0903 -0.2928
    3TYR     BB  667   1.863   7.315   1.003 -0.2751 -0.0312 -0.2580
    3TYR    SC1  668   2.112   7.279   0.866  0.1862 -0.0380 -0.1519
    3TYR    SC2  669   2.352   7.173   0.928  0.1063 -0.2470 -0.1871
    3TYR    SC3  670   2.337   7.390   0.767  0.2732 -0.1831 -0.1194
    1TYR     BB  671   5.330   7.572   2.588 -0.2168 -0.1118 -0.1404
    1TYR    SC1  672   5.360   7.864   2.741  0.2663  0.2944  0.0936
    1TYR    SC2  673   5.344   8.130   2.782 -0.0739  0.3042 -0.0549
    1TYR    SC3  674   5.174   7.963   2.909 -0.1835  0.2060 -0.3219
    2ILE     BB  675   5.522   7.409   2.762 -0.1632  0.2053  0.0603
    2ILE    SC1  676   5.576   7.152   2.598  0.2636  0.2223  0.1598
    3TYR     BB  677   5.775   7.522   2.859  0.3418 -0.0905 -0.0650
    3TYR    SC1  678   5.840   7.793   2.768 -0.2852  0.1594 -0.0006
    3TYR    SC2  679   5.989   7.917   2.580  0.2137  0.1954  0.3917
    3TYR    SC3  680   5.792   8.051   2.705  0.0426  0.2464  0.0790
    1TYR     BB  681   2.376   6.288   2.465 -0.0194 -0.1386  0.0675
    1TYR    SC1  682   2.518   6.416   2.292  0.0452 -0.1098 -0.0697
    1TYR    SC2  683   2.554   6.676   2.231  0.4475 -0.1288  0.0479
    1TYR    SC3  684   2.701   6.487   2.107  0.1567 -0.3063 -0.0392
    2ILE     BB  685   2.028   6.421   2.417  0.1561 -0.0879 -0.0356
    2ILE    SC1  686   2.073   6.699   2.287 -0.1444 -0.0902 -0.1539
    3TYR     BB  687   1.793   6.240   2.504  0.0533  0.0515  0.0617
    3TYR    SC1  688   1.657   5.950   2.529  0.2747  0.1281  0.0077
    3TYR    SC2  689   1.614   5.778   2.733  0.3930 -0.0471 -0.1115
    3TYR    SC3  690   1.479   5.749   2.500 -0.0525  0.3965  0.0668
    1TYR     BB  691   1.640   6.852   1.537 -0.0223 -0.0629 -0.1419
    1TYR    SC1  692   1.470   6.985   1.317  0.1045 -0.1012 -0.2522
    1TYR    SC2  693   1.300   7.196   1.323  0.1049 -0.1042 -0.0157
    1TYR    SC3  694   1.423   7.128   1.093 -0.0034  0.0667 -0.1267
    2ILE     BB  695   1.683   6.642   1.640 -0.1550 -0.1550 -0.1254
    2ILE    SC1  696   1.833   6.424   1.479 -0.1157 -0.2058 -0.0209
    3TYR     BB  697   1.781   6.546   1.993  0.2579 -0.0228 -0.1238
    3TYR    SC1  698   1.590   6.353   2.034  0.1078 -0.2629 -0.0741
    3TYR    SC2  699   1.424   6.183   2.163 -0.2109  0.0116 -0.1028
    3TYR    SC3  700   1.354   6.283   1.922  0.1436 -0.0966 -0.2611
    1TYR     BB  701   7.365   7.109   0.467 -0.0421 -0.0278 -0.2659
    1TYR    SC1  702   7.095   7.235   0.484  0.0532  0.5418  0.1442
    1TYR    SC2  703   6.883   7.185   0.643 -0.0331 -0.3376 -0.1781
    1TYR    SC3  704   6.888   7.408   0.490 -0.3561  0.0729  0.3647
    2ILE     BB  705   7.628   7.248   0.638 -0.4570  0.2276 -0.4658
    2ILE    SC1  706   7.521   7.538   0.663 -0.2336  0.2692  0.3417
    3TYR     BB  707   7.699   7.180   0.940 -0.0711 -0.2211 -0.0620
    3TYR    SC1  708   7.623   7.184   1.223  0.1503  0.5489 -0.1307
    3TYR    SC2  709   7.688   7.086   1.466  0.0094  0.2409 -0.2107
    3TYR    SC3  710   7.508   7.286   1.444  0.0892  0.3309 -0.0582
    1TYR     BB  711   2.468   5.910   3.437  0.2795  0.1398  0.0985
    1TYR    SC1  712   2.643   5.675   3.431  0.0407  0.3480  0.4897
    1TYR    SC2  713   2.749   5.502   3.610 -0.0501 -0.4794 -0.1753
    1TYR    SC3  714   2.896   5.584   3.399 -0.1194  0.0383 -0.0405
    2ILE     BB  715   2.625   6.178   3.286  0.0698  0.0683 -0.1086
    2ILE    SC1  716   2.909   6.112   3.392 -0.0108 -0.2680 -0.0889
    3TYR     BB  717   2.640   6.369   2.995  0.1681 -0.3130  0.2038
    3TYR    SC1  718   2.818   6.323   2.737 -0.1911  0.1176 -0.2145
    3TYR    SC2  719   2.863   6.212   2.495 -0.4971  0.1725 -0.3017
    3TYR    SC3  720   2.861   6.481   2.522 -0.0666  0.1695 -0.1524
    1TYR     BB  721   6.437   7.504   2.224 -0.2610 -0.0836 -0.1850
    1TYR    SC1  722   6.269   7.274   2.150 -0.0936  0.1898 -0.0825
    1TYR    SC2  723   6.242   7.011   2.097  0.3547  0.0735  0.2015
    1TYR    SC3  724   6.030   7.176   2.069  0.1363 -0.2565 -0.2640
    2ILE     BB  725   6.266   7.797   2.185  0.1225 -0.0369 -0.2431
    2ILE    SC1  726   6.143   7.709   1.914  0.0341  0.0290 -0.2251
    3TYR     BB  727   6.288   8.084   2.219  0.0564 -0.1074 -0.0074
    3TYR    SC1  728   6.315   8.247   2.444 -0.1121 -0.2141  0.1024
    3TYR    SC2  729   6.191   8.388   2.638  0.1226 -0.3846  0.3848
    3TYR    SC3  730   6.424   8.477   2.535 -0.0009 -0.2951  0.1770
    1TYR     BB  731   7.465   0.361   1.436 -0.0061  0.0169 -0.4856
    1TYR    SC1  732   7.557   0.107   1.328 -0.2587 -0.1397 -0.0597
    1TYR    SC2  733   7.666   0.056   1.087 -0.2230 -0.0598 -0.0610
    1TYR    SC3  734   7.788  -0.031   1.311 -0.0051  0.2642 -0.0466
    2ILE     BB  735   7.145   0.300   1.564  0.1961 -0.1818 -0.1067
    2ILE    SC1  736   7.192  -0.001   1.622 -0.0346 -0.1609  0.2284
    3TYR     BB  737   6.962   0.376   1.336 -0.3408  0.0788  0.2561
    3TYR    SC1  738   7.057   0.250   1.070 -0.2055 -0.3831 -0.0629
    3TYR    SC2  739   7.117   0.133   0.834  0.1451 -0.1996 -0.0725
    3TYR    SC3  740   7.297   0.296   0.954 -0.1536 -0.0314  0.1639
    1TYR     BB  741   0.937   5.945   1.857  0.2156 -0.1791  0.1253
    1TYR    SC1  742   0.686   5.742   1.822 -0.2550 -0.1009  0.3074
    1TYR    SC2  743   0.423   5.687   1.789 -0.1787 -0.2583 -0.1178
    1TYR    SC3  744   0.610   5.533   1.669  0.0935  0.1388 -0.2285
    2ILE     BB  745   0.813   6.206   1.705  0.0732 -0.0520  0.0651
    2ILE    SC1  746   0.737   6.427   1.909 -0.3252  0.1295 -0.2604
    3TYR     BB  747   0.760   6.162   1.429 -0.0072 -0.0696 -0.0425
    3TYR    SC1  748   0.936   6.171   1.168 -0.0943 -0.0001 -0.0508
    3TYR    SC2  749   1.035   6.180   0.916  0.1034  0.3876  0.0295
    3TYR    SC3  750   1.162   6.037   1.107 -0.1336 -0.0379 -0.1143
    1TYR     BB  751   1.902   0.324   3.533 -0.1712 -0.0668 -0.2057
    1TYR    SC1  752   1.704   0.537   3.507  0.1793  0.2929  0.2025
    1TYR    SC2  753   1.468   0.547   3.377  0.1797 -0.2732  0.1251
    1TYR    SC3  754   1.543   0.752   3.537 -0.3381 -0.0609  0.1234
    2ILE     BB  755   1.872   0.169   3.240  0.0056 -0.1405  0.1589
    2ILE    SC1  756   1.591   0.038   3.251 -0.0074 -0.1107  0.1847
    3TYR     BB  757   2.033   0.089   3.047 -0.3085  0.2360 -0.3755
    3TYR    SC1  758   2.236   0.229   2.885 -0.0105 -0.0595 -0.0271
    3TYR    SC2  759   2.490   0.272   2.803 -0.1529  0.3805 -0.2781
    3TYR    SC3  760   2.315   0.477   2.815 -0.4356  0.1348  0.1398
    1TYR     BB  761   2.129   5.832   2.476 -0.1265  0.1052 -0.0956
    1TYR    SC1  762   2.331   5.600   2.399  0.3195 -0.1678 -0.0160
    1TYR    SC2  763   2.421   5.395   2.549  0.1254 -0.3450 -0.1347
    1TYR    SC3  764   2.371   5.358   2.287  0.1159 -0.1357 -0.1644
    2ILE     BB  765   2.077   5.894   2.829 -0.2233 -0.1597 -0.0041
    2ILE    SC1  766   2.135   6.197   2.852  0.1209 -0.2112 -0.1213
    3TYR     BB  767   1.989   5.735   3.072  0.2864 -0.1588 -0.0790
    3TYR    SC1  768   1.689   5.730   3.180 -0.1426 -0.2036 -0.1921
    3TYR    SC2  769   1.537   5.810   3.388  0.1520 -0.0398 -0.0318
    3TYR    SC3  770   1.541   5.550   3.316  0.0916 -0.1093  0.2054
    1TYR     BB  771   2.036   6.138   3.335 -0.0381 -0.2275 -0.0060
    1TYR    SC1  772   1.746   6.222   3.239 -0.1707 -0.2669 -0.0283
    1TYR    SC2  773   1.484   6.266   3.194 -0.0559  0.0842 -0.4440
    1TYR    SC3  774   1.639   6.166   2.998  0.1504  0.0028 -0.2447
    2ILE     BB  775   2.079   6.123   3.686 -0.1032 -0.1038  0.0266
    2ILE    SC1  776   1.809   6.041   3.814 -0.1425  0.1603  0.1201
    3TYR     BB  777   2.363   6.288   3.752  0.0850 -0.0473 -0.1785
    3TYR    SC1  778   2.418   6.456   4.015  0.4656  0.8433 -0.2989
    3TYR    SC2  779   2.641   6.432   4.165  0.1834 -0.1408  0.0587
    3TYR    SC3  780   2.398   6.425   4.283 -0.0524  0.0273 -0.3885
    1TYR     BB  781   2.708   6.125   1.730  0.1903 -0.0062 -0.3486
    1TYR    SC1  782   2.831   5.889   1.714 -0.0834  0.0768 -0.2875
    1TYR    SC2  783   2.843   5.619   1.715  0.0082  0.0727  0.1646
    1TYR    SC3  784   3.043   5.764   1.825 -0.2403  0.3075  0.3237
    2ILE     BB  785   2.419   6.279   1.771  0.1010 -0.1988  0.1313
    2ILE    SC1  786   2.363   6.389   1.487 -0.0043  0.0632  0.2498
    3TYR     BB  787   2.209   6.252   1.936  0.1723 -0.0817  0.0979
    3TYR    SC1  788   1.968   6.111   1.928  0.0490  0.1908 -0.0849
    3TYR    SC2  789   1.801   5.953   2.070  0.2763 -0.1570 -0.1893
    3TYR    SC3  790   1.750   6.004   1.810  0.1022  0.1074 -0.1084
    1TYR     BB  791   5.722   0.315   2.084 -0.1752 -0.1682  0.1387
    1TYR    SC1  792   5.711   0.065   2.239 -0.0338  0.0703 -0.3065
    1TYR    SC2  793   5.885  -0.108   2.351 -0.4099 -0.1477 -0.0278
    1TYR    SC3  794   5.677  -0.201   2.205 -0.4257  0.0932 -0.1645
    2ILE     BB  795   5.815   0.605   2.227  0.2059  0.6069  0.0907
    2ILE    SC1  796   5.545   0.685   2.357 -0.1546 -0.1250 -0.1392
    3TYR     BB  797   5.679   0.851   1.927  0.2023  0.0482 -0.0324
    3TYR    SC1  798   5.497   0.638   1.806 -0.1535  0.1475 -0.2224
    3TYR    SC2  799   5.544   0.496   1.582  0.0529 -0.1296 -0.0133
    3TYR    SC3  800   5.324   0.446   1.729 -0.1621  0.1558 -0.2238
    1TYR     BB  801   0.361   0.360   1.420  0.0581 -0.1933  0.2302
    1TYR    SC1  802   0.385   0.434   1.118 -0.1684 -0.3568  0.2525
    1TYR    SC2  803   0.489   0.368   0.878 -0.2732 -0.1566  0.1482
    1TYR    SC3  804   0.411   0.622   0.925 -0.3669 -0.2210  0.3535
    2ILE     BB  805   0.250   0.520   1.605 -0.3585  0.0228 -0.1604
    2ILE    SC1  806   0.411   0.550   1.868 -0.2230  0.0223 -0.2423
    3TYR     BB  807   0.119   0.802   1.542  0.2589  0.1727 -0.0036
    3TYR    SC1  808   0.293   1.001   1.636  0.1598 -0.2322 -0.1987
    3TYR    SC2  809   0.497   1.015   1.813  0.2892 -0.0194 -0.3586
    3TYR    SC3  810   0.468   1.207   1.625 -0.1273  0.0162 -0.2698
    1TYR     BB  811   6.905   6.850   1.904 -0.2419 -0.2549  0.1554
    1TYR    SC1  812   6.898   6.673   2.161 -0.2986 -0.1137  0.1418
    1TYR    SC2  813   6.992   6.527   2.368  0.2398 -0.1154 -0.0835
    1TYR    SC3  814   6.849   6.408   2.173  0.2313 -0.2342 -0.0060
    2ILE     BB  815   6.743   7.165   1.893 -0.0959 -0.0381 -0.0768
    2ILE    SC1  816   6.831   7.212   1.600  0.2260 -0.0739  0.0089
    3TYR     BB  817   6.873   7.414   2.053 -0.0285 -0.0954 -0.1392
    3TYR    SC1  818   6.931   7.435   2.329 -0.0239  0.3847 -0.1649
    3TYR    SC2  819   6.836   7.499   2.574 -0.1416 -0.0486 -0.0864
    3TYR    SC3  820   7.102   7.476   2.533 -0.1192  0.0774 -0.0144
    1TYR     BB  821   7.430   0.557   1.893  0.2092 -0.0548  0.4135
    1TYR    SC1  822   7.158   0.664   1.961 -0.0093  0.1031 -0.1120
    1TYR    SC2  823   6.945   0.755   2.099 -0.1995 -0.1349 -0.2390
    1TYR    SC3  824   6.916   0.679   1.842  0.0615 -0.0835 -0.2870
    2ILE     BB  825   7.607   0.681   2.115  0.3969 -0.1061 -0.1184
    2ILE    SC1  826   7.736   0.438   2.258 -0.0564 -0.2335  0.0977
    3TYR     BB  827   7.738   0.914   2.217 -0.2810 -0.2680 -0.2630
    3TYR    SC1  828   8.052   0.898   2.271 -0.0366  0.2373  0.2152
    3TYR    SC2  829   8.287   0.765   2.255 -0.3726 -0.4074  0.2299
    3TYR    SC3  830   8.170   0.804   2.495 -0.1696  0.1660  0.2563
    1TYR     BB  831   7.634   6.610   1.229 -0.1854 -0.1623  0.0397
    1TYR    SC1  832   7.719   6.627   1.484  0.3766  0.2463 -0.2700
    1TYR    SC2  833   7.878   6.650   1.701  0.0461 -0.1046  0.0253
    1TYR    SC3  834   7.619   6.728   1.714  0.1193  0.2485 -0.3782
    2ILE     BB  835   7.401   6.638   1.120  0.1927  0.2084  0.1325
    2ILE    SC1  836   7.338   6.794   0.860  0.2769  0.0196 -0.0044
    3TYR     BB  837   7.199   6.406   1.276 -0.1703  0.0429 -0.2559
    3TYR    SC1  838   7.268   6.357   1.545 -0.1735 -0.3347  0.1401
    3TYR    SC2  839   7.429   6.316   1.758  0.0491  0.3133  0.1244
    3TYR    SC3  840   7.172   6.388   1.796  0.0723  0.3704  0.1760
    1TYR     BB  841   4.819   7.360   1.709  0.2226  0.1177  0.0797
    1TYR    SC1  842   4.880   7.079   1.787  0.1039  0.1211 -0.0458
    1TYR    SC2  843   5.053   6.872   1.790 -0.2269 -0.1735  0.4025
    1TYR    SC3  844   4.789   6.826   1.759 -0.3070  0.1837  0.4995
    2ILE     BB  845   4.978   7.432   1.470  0.0868 -0.0015 -0.1537
    2ILE    SC1  846   5.130   7.184   1.363  0.0709 -0.1228  0.0976
    3TYR     BB  847   5.201   7.651   1.444 -0.0584 -0.0090  0.1606
    3TYR    SC1  848   5.107   7.923   1.348 -0.1593 -0.2052 -0.2334
    3TYR    SC2  849   4.991   8.042   1.135 -0.0983  0.0349 -0.1364
    3TYR    SC3  850   5.210   8.151   1.248 -0.0539 -0.1601 -0.0281
    1TYR     BB  851   4.128   6.377   1.978 -0.3876  0.0359 -0.0200
    1TYR    SC1  852   4.110   6.107   1.907 -0.0034  0.2177 -0.1691
    1TYR    SC2  853   4.200   5.855   1.939 -0.1143  0.2043  0.0581
    1TYR    SC3  854   4.148   5.949   1.691  0.0772  0.0583 -0.0407
    2ILE     BB  855   4.236   6.562   1.754 -0.1061 -0.0733  0.1482
    2ILE    SC1  856   4.336   6.823   1.888  0.0786 -0.1045  0.0753
    3TYR     BB  857   4.431   6.496   1.528 -0.0827 -0.1507  0.0223
    3TYR    SC1  858   4.383   6.598   1.210 -0.0335 -0.1190 -0.1054
    3TYR    SC2  859   4.354   6.717   0.970 -0.2117 -0.0946 -0.0736
    3TYR    SC3  860   4.554   6.541   1.009 -0.1096 -0.0102 -0.2029
    1TYR     BB  861   0.884   7.205   1.436  0.0523  0.1115  0.1812
    1TYR    SC1  862   0.712   7.033   1.200  0.3005 -0.0465 -0.2138
    1TYR    SC2  863   0.453   6.958   1.196  0.2061  0.2601 -0.1550
    1TYR    SC3  864   0.623   6.865   1.008  0.1191 -0.1513 -0.0429
    2ILE     BB  865   0.616   7.387   1.578  0.3115  0.1255  0.0226
    2ILE    SC1  866   0.484   7.116   1.650  0.3921  0.1020  0.0838
    3TYR     BB  867   0.571   7.610   1.682 -0.1627  0.2095  0.1019
    3TYR    SC1  868   0.280   7.659   1.789  0.0677  0.0539  0.0487
    3TYR    SC2  869   0.036   7.543   1.773  0.1028 -0.0429  0.1913
    3TYR    SC3  870   0.061   7.792   1.874  0.0516  0.0079  0.0801
    1TYR     BB  871   5.652   7.636   1.652 -0.1008 -0.0525  0.0763
    1TYR    SC1  872   5.822   7.808   1.497  0.2479  0.2510  0.2625
    1TYR    SC2  873   6.085   7.852   1.455  0.1923  0.2134 -0.1874
    1TYR    SC3  874   5.902   8.023   1.355  0.0333 -0.0157 -0.2993
    2ILE     BB  875   5.577   7.371   1.536 -0.0112  0.2009  0.3105
    2ILE    SC1  876   5.576   7.120   1.717 -0.1312  0.0906  0.1608
    3TYR     BB  877   5.592   7.341   1.225 -0.2147 -0.0591 -0.2762
    3TYR    SC1  878   5.629   7.647   1.072  0.2787  0.1727 -0.3703
    3TYR    SC2  879   5.451   7.805   0.945 -0.0203  0.0283 -0.1478
    3TYR    SC3  880   5.560   7.886   1.178  0.0915  0.0498 -0.2064
    1TYR     BB  881   0.952   1.108   1.808  0.1877 -0.2014  0.1521
    1TYR    SC1  882   1.240   1.295   1.756  0.0781 -0.0512  0.1763
    1TYR    SC2  883   1.455   1.333   1.598  0.0438 -0.0299  0.1343
    1TYR    SC3  884   1.279   1.534   1.637 -0.3211 -0.2292 -0.3608
    2ILE     BB  885   1.214   0.797   1.787  0.2550  0.3589  0.1825
    2ILE    SC1  886   1.474   0.829   1.622  0.2462  0.1930  0.1341
    3TYR     BB  887   1.097   0.596   2.010  0.0971 -0.2812  0.1431
    3TYR    SC1  888   1.121   0.742   2.256 -0.0291 -0.3764 -0.0917
    3TYR    SC2  889   1.025   0.924   2.431  0.1120 -0.0481 -0.3410
    3TYR    SC3  890   1.105   0.681   2.518  0.0578  0.0571  0.0249
    1TYR     BB  891   4.668   6.507   2.126 -0.1258 -0.2713  0.1634
    1TYR    SC1  892   4.752   6.548   2.433 -0.2744 -0.1050  0.0762
    1TYR    SC2  893   4.743   6.734   2.629  0.4317 -0.1595  0.1953
    1TYR    SC3  894   4.892   6.511   2.661  0.3723 -0.2892 -0.3173
    2ILE     BB  895   4.586   6.198   2.063  0.2056 -0.0753  0.0606
    2ILE    SC1  896   4.578   6.070   2.345 -0.1505 -0.3136 -0.0485
    3TYR     BB  897   4.627   6.108   1.798  0.0705  0.2018  0.0076
    3TYR    SC1  898   4.844   5.906   1.787 -0.1608 -0.1125  0.2260
    3TYR    SC2  899   5.073   5.851   1.919 -0.1078 -0.0472  0.1628
    3TYR    SC3  900   4.925   5.650   1.815 -0.0285 -0.0839  0.1200
    1TYR     BB  901   0.600   6.055   2.232 -0.0329  0.4585  0.1926
    1TYR    SC1  902   0.824   5.927   2.388  0.1337 -0.1337 -0.2048
    1TYR    SC2  903   1.004   5.847   2.573  0.1226 -0.0422 -0.1533
    1TYR    SC3  904   1.074   6.028   2.385  0.1585 -0.1966 -0.2918
    2ILE     BB  905   0.465   6.326   2.450 -0.0714  0.2523  0.0168
    2ILE    SC1  906   0.660   6.485   2.631  0.1156  0.0574 -0.0076
    3TYR     BB  907   0.172   6.331   2.520 -0.1553 -0.0232  0.0003
    3TYR    SC1  908   0.129   6.435   2.825 -0.3349  0.0026 -0.0251
    3TYR    SC2  909   0.232   6.636   2.973  0.1571  0.0680 -0.4229
    3TYR    SC3  910   0.232   6.384   3.070 -0.5345  0.2359  0.1135
    1TYR     BB  911   5.313   7.437   0.601 -0.0919  0.0634  0.1385
    1TYR    SC1  912   5.182   7.439   0.901  0.0823  0.1440  0.0333
    1TYR    SC2  913   5.019   7.639   0.980 -0.0382  0.0984 -0.0942
    1TYR    SC3  914   4.934   7.383   0.993  0.0874  0.0601 -0.0027
    2ILE     BB  915   5.610   7.379   0.704  0.0686  0.2285  0.1752
    2ILE    SC1  916   5.787   7.561   0.526  0.1297 -0.1941 -0.2215
    3TYR     BB  917   5.715   7.128   0.821  0.2043 -0.3186  0.0643
    3TYR    SC1  918   5.906   7.036   0.625  0.0146 -0.2114  0.0007
    3TYR    SC2  919   5.917   7.069   0.357  0.0239 -0.1347  0.0102
    3TYR    SC3  920   6.104   6.920   0.483 -0.0165 -0.2229 -0.0335
    1TYR     BB  921   5.820   6.931   1.342 -0.0851 -0.0001  0.2369
    1TYR    SC1  922   5.885   6.753   1.603  0.1956  0.0711 -0.0724
    1TYR    SC2  923   5.972   6.745   1.858 -0.1315 -0.0018  0.0431
    1TYR    SC3  924   5.891   6.518   1.736 -0.1575  0.0624 -0.0609
    2ILE     BB  925   5.474   6.772   1.221 -0.0439  0.1380  0.1190
    2ILE    SC1  926   5.429   6.621   1.488 -0.0926 -0.1452 -0.0436
    3TYR     BB  927   5.322   6.900   1.022 -0.2930 -0.0170 -0.1900
    3TYR    SC1  928   5.060   6.900   0.902 -0.0428 -0.2320  0.3567
    3TYR    SC2  929   4.808   6.878   0.809  0.0709  0.0944 -0.0688
    3TYR    SC3  930   4.969   7.074   0.717  0.4708 -0.0778  0.2278
    1TYR     BB  931   3.289   6.792   3.575  0.0641 -0.0431  0.0114
    1TYR    SC1  932   3.195   6.744   3.894  0.1284  0.3977  0.2703
    1TYR    SC2  933   3.255   6.744   4.158 -0.1243  0.1686  0.3331
    1TYR    SC3  934   2.998   6.720   4.077 -0.0743  0.4530  0.0646
    2ILE     BB  935   3.563   6.841   3.502 -0.0923 -0.1134 -0.1782
    2ILE    SC1  936   3.716   6.574   3.545  0.5841  0.2710 -0.0158
    3TYR     BB  937   3.728   7.128   3.491 -0.2187 -0.1099 -0.1472
    3TYR    SC1  938   3.590   7.354   3.577  0.3928 -0.1219 -0.2696
    3TYR    SC2  939   3.332   7.421   3.533  0.3443 -0.2625 -0.2048
    3TYR    SC3  940   3.499   7.598   3.650  0.1728 -0.3120  0.1290
    1TYR     BB  941   3.626   6.826   3.048  0.2546  0.2314  0.1091
    1TYR    SC1  942   3.399   6.757   2.816 -0.1686  0.1305  0.1411
    1TYR    SC2  943   3.146   6.703   2.737 -0.1391  0.1949 -0.0017
    1TYR    SC3  944   3.340   6.737   2.553 -0.0171  0.1044  0.1083
    2ILE     BB  945   3.924   6.824   3.029  0.0263  0.2645 -0.0471
    2ILE    SC1  946   4.065   6.632   3.228 -0.0849 -0.0304 -0.2439
    3TYR     BB  947   4.129   6.900   2.799 -0.1492 -0.1380 -0.3637
    3TYR    SC1  948   4.328   6.641   2.729  0.1537 -0.0523  0.2967
    3TYR    SC2  949   4.388   6.437   2.562  0.0360  0.2172 -0.0908
    3TYR    SC3  950   4.266   6.387   2.797  0.2046 -0.1733 -0.0771
    1TYR     BB  951   6.461   7.350   3.327  0.1175  0.2063 -0.1229
    1TYR    SC1  952   6.569   7.527   3.528 -0.0337 -0.1165 -0.0127
    1TYR    SC2  953   6.712   7.641   3.726 -0.3384  0.0838  0.0993
    1TYR    SC3  954   6.502   7.772   3.618 -0.0856  0.0508 -0.4732
    2ILE     BB  955   6.439   7.067   3.436  0.2877  0.2424  0.0565
    2ILE    SC1  956   6.356   7.030   3.732 -0.0066 -0.4508 -0.0877
    3TYR     BB  957   6.527   6.735   3.380  0.0243 -0.5269  0.0507
    3TYR    SC1  958   6.826   6.801   3.520  0.1187 -0.0273  0.1309
    3TYR    SC2  959   6.962   6.736   3.744  0.2391  0.0865  0.0917
    3TYR    SC3  960   7.093   6.767   3.509  0.1306  0.0885  0.0306
    1TYR     BB  961   6.781   6.459   1.576 -0.0121 -0.4177 -0.0721
    1TYR    SC1  962   6.602   6.510   1.795  0.2041  0.0289  0.3166
    1TYR    SC2  963   6.419   6.682   1.894  0.0297  0.0995 -0.1007
    1TYR    SC3  964   6.385   6.416   1.925 -0.0198  0.1194  0.0239
    2ILE     BB  965   6.882   6.775   1.423  0.0831 -0.3376  0.0909
    2ILE    SC1  966   7.167   6.882   1.481 -0.0864  0.1623  0.0622
    3TYR     BB  967   6.750   6.977   1.136 -0.0339  0.0635 -0.1727
    3TYR    SC1  968   6.856   6.757   0.948 -0.0856  0.1319  0.1640
    3TYR    SC2  969   6.775   6.504   0.996 -0.2694  0.1402 -0.0796
    3TYR    SC3  970   6.940   6.555   0.789  0.0111  0.1851  0.1463
    1TYR     BB  971   1.351   7.260   1.796 -0.0663  0.1981 -0.1535
    1TYR    SC1  972   1.642   7.344   1.728 -0.0305 -0.1070 -0.0521
    1TYR    SC2  973   1.773   7.296   1.497 -0.1132 -0.2056 -0.0798
    1TYR    SC3  974   1.876   7.468   1.678 -0.0215 -0.1685 -0.1662
    2ILE     BB  975   1.237   6.939   1.799  0.2710  0.0602 -0.0398
    2ILE    SC1  976   0.928   6.935   1.824  0.2878  0.0593  0.1945
    3TYR     BB  977   1.344   6.800   1.980  0.0839  0.0892  0.1036
    3TYR    SC1  978   1.157   6.664   2.218 -0.0732 -0.0764 -0.2300
    3TYR    SC2  979   1.003   6.470   2.326  0.1514 -0.1801 -0.0859
    3TYR    SC3  980   0.905   6.720   2.295  0.0225 -0.1910  0.1995
    1TYR     BB  981   5.243   6.533   2.115 -0.0400 -0.2976  0.1116
    1TYR    SC1  982   5.105   6.296   2.274  0.0282  0.2615  0.0438
    1TYR    SC2  983   5.033   6.114   2.459 -0.0790  0.1736 -0.0821
    1TYR    SC3  984   5.222   6.053   2.276  0.1000  0.2956  0.0572
    2ILE     BB  985   5.193   6.799   2.323 -0.1156 -0.3622 -0.0857
    2ILE    SC1  986   5.333   7.040   2.188  0.1578 -0.3523  0.2023
    3TYR     BB  987   5.316   6.742   2.652  0.0409 -0.1050  0.3246
    3TYR    SC1  988   5.408   6.463   2.642  0.0107 -0.1135  0.0491
    3TYR    SC2  989   5.397   6.203   2.712  0.1077 -0.0361  0.3725
    3TYR    SC3  990   5.522   6.276   2.484 -0.0636 -0.2835  0.1925
    1TYR     BB  991   6.502   0.394   1.207  0.0473  0.0857 -0.2405
    1TYR    SC1  992   6.551   0.529   0.964  0.0948 -0.0923  0.2037
    1TYR    SC2  993   6.472   0.707   0.776 -0.0460 -0.1222  0.2332
    1TYR    SC3  994   6.682   0.544   0.728  0.1536  0.1236  0.2471
    2ILE     BB  995   6.595   0.049   1.127 -0.1179 -0.0004  0.0612
    2ILE    SC1  996   6.629   0.025   0.819  0.2011  0.0290  0.0901
    3TYR     BB  997   6.754  -0.106   1.259  0.0844 -0.2201  0.0323
    3TYR    SC1  998   7.037  -0.212   1.162  0.0347 -0.3231  0.0961
    3TYR    SC2  999   7.159  -0.398   1.008  0.4385 -0.0642  0.0869
    3TYR    SC3 1000   7.293  -0.176   1.085 -0.0364  0.2455  0.0735
    4W        W 1001   3.697   3.952   1.410  0.0953 -0.2664 -0.0889
    5W        W 1002   2.943   4.630   1.340 -0.3434  0.0891 -0.2765
    6W        W 1003   3.533   1.302   0.675  0.2439 -0.2421 -0.2524
    7W        W 1004   1.000   4.056   6.970  0.3100  0.0674 -0.0003
    8W        W 1005   7.329   4.143   3.077 -0.0296  0.2920 -0.5415
    9W        W 1006   0.961   3.584   5.720 -0.2553  0.3431  0.2288
   10W        W 1007   4.398   4.853   1.436  0.3398  0.1807 -0.1974
   11W        W 1008   6.115   7.600   4.870 -0.1509  0.1974 -0.1900
   12W        W 1009   5.260   2.000   0.124  0.2141 -0.0194  0.0166
   13W        W 1010   1.191   3.131   3.941 -0.0017 -0.1632  0.2555
   14W        W 1011   4.680   0.382   0.167  0.0969 -0.1708 -0.1538
   15W        W 1012   5.970   5.520   0.812  0.2953 -0.1817  0.2091
   16W        W 1013   3.394   0.686   3.882  0.0796 -0.2421 -0.0218
   17W        W 1014   3.695   3.211   2.560  0.0267  0.1235  0.5438
   18W        W 1015   7.147   6.651   4.349 -0.2063  0.2018 -0.2269
   19W        W 1016   1.966   4.348   0.364  0.0243  0.4208  0.1168
   20W        W 1017   4.490   2.972   6.387 -0.0682  0.1627  0.1205
   21W        W 1018   7.310   5.255   6.957  0.2907 -0.2514  0.1137
   22W        W 1019   2.126   1.258   4.130 -0.0260 -0.2114  0.2822
   23W        W 1020   0.132   4.502   0.290  0.1333  0.1092  0.1218
   24W        W 1021   1.821   3.118   6.414 -0.2920 -0.1608 -0.3114
   25W        W 1022   4.744   2.245   5.282 -0.0066 -0.0295 -0.1947
   26W        W 1023   5.824   4.512   0.864 -0.2094 -0.0241 -0.2200
   27W        W 1024   3.029   1.315   5.672  0.0713  0.0522  0.1682
   28W        W 1025   1.762   6.591   5.936  0.0171  0.0218 -0.3145
   29W        W 1026   3.232   4.233   4.003  0.1168 -0.3201 -0.0855
   30W        W 1027   6.699   3.315   3.123 -0.1081  0.1161 -0.1584
   31W        W 1028   5.527   5.673   2.514  0.0241 -0.0072  0.1668
   32W        W 1029   5.962   4.311   3.573  0.0815 -0.1006  0.2622
   33W        W 1030   4.166   4.134   0.743  0.0156  0.3338  0.1070
   34W        W 1031   1.774   1.567   2.441  0.0194  0.6102  0.2598
   35W        W 1032   3.038   0.332   6.213  0.3037 -0.0139 -0.1062
   36W        W 1033   7.007   2.988   7.192 -0.2045 -0.2910  0.2035
   37W        W 1034   7.061   2.528   1.823  0.1742 -0.0767 -0.0583
   38W        W 1035   2.426   0.014   4.798 -0.1378  0.1800  0.0844
   39W        W 1036   6.620   1.296   1.528  0.0058  0.0408 -0.1903
   40W        W 1037   0.278   2.968   7.234 -0.0207 -0.1106  0.3192
   41W        W 1038   7.111   1.683   1.537  0.1787 -0.0174 -0.0617
   42W        W 1039   1.074   3.739   6.242  0.0163 -0.0333 -0.1610
   43W        W 1040   4.635   3.975   2.264  0.0467 -0.3797  0.1663
   44W        W 1041   2.282   3.893   4.378  0.2904 -0.3980 -0.0437
   45W        W 1042   3.509   1.292   6.929 -0.0734 -0.2047 -0.1685
   46W        W 1043   0.887   4.630   3.381  0.1426 -0.2035  0.2709
   47W        W 1044   0.044   2.317   0.711  0.1304  0.0122  0.1247
   48W        W 1045   4.006   5.744   7.579 -0.2016  0.1202 -0.1165
   49W        W 1046   1.503   7.395   0.708 -0.2851 -0.1035  0.2089
   50W        W 1047   0.443   2.041   5.105 -0.4062 -0.0673 -0.0142
   51W        W 1048   2.177   3.456   5.517  0.1562 -0.1907 -0.3275
   52W        W 1049   2.972   5.582   4.113 -0.0411 -0.1236  0.1187
   53W        W 1050   4.784   1.805   6.855 -0.3043 -0.0100  0.1873
   54W        W 1051   7.331   5.193   5.523 -0.2465  0.2644 -0.0735
   55W        W 1052   3.651   5.998   0.298  0.0710  0.1831  0.1274
   56W        W 1053   7.057   2.536   7.390 -0.2110 -0.5132 -0.2534
   57W        W 1054   5.217   4.549   0.223  0.0302 -0.3531 -0.0390
   58W        W 1055   4.899   4.563   4.317  0.0788  0.0054  0.3547
   59W        W 1056   2.913   3.016   1.382 -0.0126 -0.1611  0.0107
   60W        W 1057   4.077   4.743   2.408  0.0971 -0.1112  0.1579
   61W        W 1058   7.630   2.315   3.171 -0.1314  0.1556 -0.1824
   62W        W 1059   6.495   0.628   4.264 -0.0476 -0.0192  0.2013
   63W        W 1060   5.019   6.826   5.465  0.1888 -0.1983 -0.4416
   64W        W 1061   1.219   1.898   5.192  0.2397 -0.0259  0.0341
   65W        W 1062   7.028   0.796   1.007 -0.1602  0.2208  0.1787
   66W        W 1063   4.793   7.402   4.286  0.0267 -0.1775 -0.1637
   67W        W 1064   3.741   1.459   0.278 -0.2266 -0.1167  0.0319
   68W        W 1065   4.327   5.866   3.680  0.1083 -0.1297  0.0293
   69W        W 1066   4.462   4.746   0.887  0.1287  0.1058  0.1374
   70W        W 1067   3.360   2.048   0.664  0.0494  0.0583 -0.0279
   71W        W 1068   2.348   4.537   4.139  0.0625 -0.1203 -0.0924
   72W        W 1069   4.381   0.436   6.246  0.0046 -0.0972 -0.2358
   73W        W 1070   7.542   3.113   6.951 -0.2054  0.1930 -0.0637
   74W        W 1071   7.424   2.218   5.093  0.0354  0.0232  0.0092
   75W        W 1072   7.351   4.589   5.484  0.0772 -0.0492 -0.2216
   76W        W 1073   6.341   2.428   1.922 -0.1215  0.2213  0.1793
   77W        W 1074   5.802   0.451   7.166 -0.0482 -0.2731 -0.1666
   78W        W 1075   7.411   6.588   0.364 -0.1749 -0.1669  0.0559
   79W        W 1076   3.768   0.508   4.214 -0.0038  0.0973  0.0067
   80W        W 1077   0.056   0.914   0.614 -0.0897  0.0207 -0.1733
   81W        W 1078   6.448   1.761   4.761  0.1908  0.2057 -0.3367
   82W        W 1079   3.050   4.354   3.041  0.0819  0.1932 -0.1323
   83W        W 1080   1.993   0.166   5.027 -0.4493 -0.0156 -0.1528
   84W        W 1081   5.137   4.639   3.798  0.2782 -0.1974  0.4288
   85W        W 1082   0.885   1.589   6.102  0.0940  0.2799  0.2549
   86W        W 1083   3.867   5.628   2.311  0.1062  0.1002 -0.2309
   87W        W 1084   4.086   4.488   1.239  0.1212 -0.0139 -0.0031
   88W        W 1085   0.727   5.679   1.217 -0.0512 -0.0563  0.2483
   89W        W 1086   5.666   3.709   7.262 -0.0355 -0.1448 -0.1193
   90W        W 1087   6.994   3.003   1.848  0.0907 -0.0188  0.1519
   91W        W 1088   5.138   3.409   2.616  0.2342 -0.0896  0.0258
   92W        W 1089   6.714   4.693   4.102 -0.0545  0.1429 -0.1437
   93W        W 1090   4.484   4.602   7.273 -0.0247 -0.1582  0.3809
   94W        W 1091   6.061   6.768   5.595  0.2749  0.0531  0.2111
   95W        W 1092   2.229   1.999   1.339 -0.0242 -0.0916 -0.0882
   96W        W 1093   4.495   7.239   6.157  0.2969  0.1425  0.0420
   97W        W 1094   0.445   5.558   0.736  0.0270 -0.3624  0.0128
   98W        W 1095   6.143   3.320   2.327  0.0078  0.1083  0.0018
   99W        W 1096   3.382   5.489   2.170 -0.3691  0.3248 -0.1437
  100W        W 1097   0.178   3.654   3.060  0.2971 -0.2236 -0.3070
  101W        W 1098   5.357   2.741   1.055  0.0963  0.1967  0.1003
  102W        W 1099   5.261   6.610   0.068  0.1260 -0.2920 -0.0902
  103W        W 1100   3.150   0.798   4.732 -0.0379 -0.1146  0.1525
  104W        W 1101   3.479   7.497   6.471  0.1821 -0.2505 -0.2387
  105W        W 1102   3.208   3.409   3.816 -0.0797 -0.0840  0.0815
  106W        W 1103   6.526   2.087   5.096 -0.3375 -0.0149  0.3065
  107W        W 1104   6.067   6.322   0.410  0.2534 -0.3031  0.0202
  108W        W 1105   7.058   1.512   0.089  0.2587 -0.0696 -0.0733
  109W        W 1106   5.746   1.627   6.914  0.1696 -0.0988 -0.0839
  110W        W 1107   4.122   6.883   0.208 -0.0337 -0.1022 -0.1004
  111W        W 1108   1.656   3.521   7.312  0.3193 -0.0091 -0.0986
  112W        W 1109   7.180   5.390   5.080 -0.2020  0.1218  0.5124
  113W        W 1110   7.347   0.169   0.273 -0.1555 -0.0011 -0.0774
  114W        W 1111   0.772   6.133   6.269  0.0766  0.1358  0.0595
  115W        W 1112   5.226   1.159   0.162  0.1188 -0.3176 -0.1728
  116W        W 1113   7.344   0.754   7.306 -0.0652 -0.3488 -0.4056
  117W        W 1114   6.792   3.378   2.626  0.1840  0.0615  0.0101
  118W        W 1115   4.216   6.154   7.319  0.1907  0.1769  0.3296
  119W        W 1116   4.283   5.187   0.037 -0.0249 -0.1527 -0.1448
  120W        W 1117   4.364   6.233   4.128 -0.2326 -0.2518  0.0124
  121W        W 1118   0.065   1.781   5.316  0.0158 -0.0772 -0.0530
  122W        W 1119   4.487   6.449   4.592  0.0560  0.0511 -0.1207
  123W        W 1120   6.359   4.520   0.976 -0.3129 -0.2108 -0.2614
  124W        W 1121   3.342   5.305   3.653 -0.1722 -0.1786  0.0559
  125W        W 1122   3.052   5.036   2.078  0.0378 -0.1716  0.0280
  126W        W 1123   1.497   2.119   3.159  0.0329  0.1295  0.3646
  127W        W 1124   6.328   1.515   1.880  0.1797 -0.0304  0.0780
  128W        W 1125   5.144   4.706   6.506  0.2118 -0.0427 -0.1198
  129W        W 1126   0.871   2.288   6.328  0.2692 -0.1054  0.1530
  130W        W 1127   3.523   7.405   5.314 -0.0143 -0.2372  0.0970
  131W        W 1128   6.983   1.188   1.824  0.0523 -0.0645 -0.0710
  132W        W 1129   1.509   3.517   1.209  0.0086  0.1876  0.2441
  133W        W 1130   3.561   3.016   6.827  0.0383  0.1371  0.2787
  134W        W 1131   1.654   1.787   2.001  0.2634 -0.0744  0.0364
  135W        W 1132   1.021   0.167   4.672  0.0121  0.0112  0.0220
  136W        W 1133   4.247   6.654   5.588 -0.0078  0.2178 -0.1911
  137W        W 1134   3.994   5.180   5.067  0.0822 -0.1008 -0.2763
  138W        W 1135   6.132   5.929   1.290 -0.1618 -0.0171  0.1438
  139W        W 1136   2.548   5.114   4.095 -0.2132 -0.2078  0.1284
  140W        W 1137   6.997   4.282   0.266 -0.0764  0.2547  0.1559
  141W        W 1138   3.683   4.730   5.059 -0.0854  0.0800 -0.1402
  142W        W 1139   1.460   5.840   7.403  0.1968  0.0834 -0.1403
  143W        W 1140   3.520   0.802   0.706  0.1563  0.0344  0.1695
  144W        W 1141   5.913   4.242   1.320 -0.1346  0.3149  0.0915
  145W        W 1142   5.156   3.025   3.456 -0.1827  0.1488 -0.0683
  146W        W 1143   7.644   1.247   6.370  0.1696  0.1416  0.1029
  147W        W 1144   0.249   3.410   2.595 -0.4196  0.0540  0.0938
  148W        W 1145   4.433   3.994   4.762 -0.3862 -0.0279  0.0770
  149W        W 1146   0.017   7.406   0.127  0.1408 -0.0743  0.1672
  150W        W 1147   7.193   1.704   3.799  0.0574 -0.1011 -0.2218
  151W        W 1148   3.019   2.428   3.331  0.3749 -0.0413 -0.0578
  152W        W 1149   3.640   2.166   5.722  0.1080  0.1482 -0.0493
  153W        W 1150   2.228   1.034   3.028 -0.0271  0.0324 -0.4320
  154W        W 1151   1.307   3.270   0.817  0.0597 -0.0300 -0.2988
  155W        W 1152   5.390   6.035   3.168 -0.1470  0.0853 -0.0401
  156W        W 1153   3.773   0.169   5.580 -0.0160  0.1024  0.0140
  157W        W 1154   3.060   3.815   2.106  0.0860  0.2636  0.1437
  158W        W 1155   4.867   5.697   0.519 -0.2618 -0.0426 -0.0954
  159W        W 1156   3.018   1.097   3.718  0.0417  0.1682  0.0350
  160W        W 1157   5.119   2.597   5.031  0.0742 -0.0830  0.0719
  161W        W 1158   1.992   3.683   2.980  0.2862 -0.0188 -0.0445
  162W        W 1159   4.833   2.527   2.328 -0.0471 -0.1381 -0.0560
  163W        W 1160   7.205   2.584   2.834 -0.1872  0.2633 -0.1850
  164W        W 1161   7.456   2.658   7.107  0.0893 -0.0956  0.2718
  165W        W 1162   1.863   6.324   7.050 -0.1608  0.0363 -0.0757
  166W        W 1163   1.868   6.875   7.060 -0.4386  0.1815 -0.2183
  167W        W 1164   3.005   5.671   6.742 -0.1046 -0.1523 -0.0466
  168W        W 1165   6.423   2.036   3.282 -0.4065 -0.0464 -0.1714
  169W        W 1166   4.448   4.755   4.074 -0.1621  0.1691  0.4020
  170W        W 1167   4.449   2.891   1.291  0.1245  0.0803  0.1438
  171W        W 1168   6.438   5.676   1.545  0.2367  0.2712 -0.0463
  172W        W 1169   1.012   5.771   0.709  0.1006 -0.2523  0.0118
  173W        W 1170   4.030   2.745   7.550  0.0799 -0.1054 -0.0689
  174W        W 1171   0.694   3.451   6.274 -0.0573 -0.1160 -0.1639
  175W        W 1172   5.810   7.597   6.817 -0.1865  0.0742 -0.0879
  176W        W 1173   3.915   7.395   6.860 -0.0966  0.1683 -0.1420
  177W        W 1174   2.442   3.815   1.019 -0.0592  0.3985 -0.1885
  178W        W 1175   7.480   2.559   4.235  0.0594  0.0212  0.1307
  179W        W 1176   2.950   1.669   5.284 -0.2728 -0.1048  0.1076
  180W        W 1177   2.252   2.518   6.018  0.0913  0.0200  0.0276
  181W        W 1178   4.446   3.337   3.001 -0.2534  0.2346 -0.2896
  182W        W 1179   5.486   7.363   4.325 -0.3232 -0.0197 -0.0029
  183W        W 1180   5.265   6.847   5.001  0.1429  0.0783  0.0574
  184W        W 1181   1.242   6.487   0.524  0.4031  0.1217 -0.2947
  185W        W 1182   6.635   3.168   1.589 -0.2337 -0.1497  0.0051
  186W        W 1183   3.631   2.420   2.466  0.2645  0.2923  0.3278
  187W        W 1184   2.791   0.489   7.223 -0.2888  0.1691 -0.0986
  188W        W 1185   0.469   6.441   6.491  0.2793 -0.1598  0.0885
  189W        W 1186   1.500   1.990   3.988 -0.0868 -0.1379  0.1906
  190W        W 1187   0.096   5.966   4.541 -0.1374  0.0113  0.1511
  191W        W 1188   3.073   2.557   5.014  0.1218  0.4644  0.1611
  192W        W 1189   4.262   2.590   2.675  0.2676 -0.1325  0.1657
  193W        W 1190   4.712   4.105   7.156  0.1961  0.1674  0.1288
  194W        W 1191   2.955   5.213   5.395  0.2229 -0.0379  0.1390
  195W        W 1192   2.882   3.587   1.086 -0.2624  0.0179  0.0428
  196W        W 1193   2.523   2.403   3.218 -0.0463 -0.0196  0.4533
  197W        W 1194   2.597   0.941   0.635  0.2714 -0.0258 -0.0231
  198W        W 1195   5.398   6.048   5.583  0.1435 -0.0517  0.0594
  199W        W 1196   1.319   2.956   2.888  0.0212 -0.0387 -0.2749
  200W        W 1197   3.576   1.862   1.126  0.4946 -0.0739 -0.0028
  201W        W 1198   6.622   6.011   1.839 -0.1562  0.1632  0.0035
  202W        W 1199   6.964   7.599   7.219  0.0037  0.0067 -0.1944
  203W        W 1200   0.530   1.493   0.391 -0.0008  0.2859  0.1584
  204W        W 1201   1.082   5.110   7.090 -0.2342 -0.1438  0.2654
  205W        W 1202   6.327   2.120   0.375 -0.0465  0.0969 -0.0353
  206W        W 1203   4.770   4.313   7.623  0.0256  0.1312  0.0970
  207W        W 1204   7.155   4.571   6.606  0.0614  0.1806 -0.0011
  208W        W 1205   0.286   2.482   7.175  0.1392 -0.2277  0.1405
  209W        W 1206   0.482   4.532   3.070 -0.0076  0.3749 -0.2666
  210W        W 1207   0.720   5.700   5.382  0.1556 -0.2470 -0.1913
  211W        W 1208   4.728   1.166   7.630 -0.1927  0.1442 -0.0031
  212W        W 1209   3.687   4.163   5.660 -0.0483  0.1904 -0.2397
  213W        W 1210   3.288   2.051   2.413 -0.1084 -0.3690 -0.0962
  214W        W 1211   0.401   7.527   7.417  0.1608 -0.2208  0.2619
  215W        W 1212   3.266   3.297   7.574 -0.0512 -0.1042  0.1908
  216W        W 1213   3.756   3.307   6.185 -0.0903  0.1252  0.0255
  217W        W 1214   1.532   1.561   3.099  0.0460  0.0444  0.0456
  218W        W 1215   0.589   2.078   1.362  0.1036 -0.1083 -0.1119
  219W        W 1216   0.256   0.297   4.664  0.0645  0.0679 -0.2615
  220W        W 1217   6.389   7.535   5.813 -0.1096 -0.0248 -0.0843
  221W        W 1218   6.094   1.106   1.663 -0.0900  0.3059 -0.3111
  222W        W 1219   7.587   2.607   5.759  0.0130  0.0503  0.2166
  223W        W 1220   2.874   6.750   7.230 -0.1192 -0.1533  0.1211
  224W        W 1221   1.416   3.255   6.680 -0.0043  0.0669 -0.2855
  225W        W 1222   4.397   1.932   5.628  0.1360  0.2864 -0.2904
  226W        W 1223   0.663   5.902   4.534 -0.0930  0.1000  0.0908
  227W        W 1224   0.431   0.869   4.500  0.1227  0.2524 -0.1746
  228W        W 1225   4.122   7.104   5.786 -0.1616  0.2220  0.1322
  229W        W 1226   5.648   3.578   2.850  0.2024  0.0866  0.2953
  230W        W 1227   2.437   5.057   4.573  0.2145 -0.2045 -0.1102
  231W        W 1228   7.310   5.571   2.207 -0.1050 -0.0318  0.2789
  232W        W 1229   4.279   4.224   7.546  0.0223  0.1002 -0.0701
  233W        W 1230   7.531   4.128   1.385  0.1003 -0.0882  0.3278
  234W        W 1231   1.047   5.244   5.336 -0.0650 -0.2254  0.0221
  235W        W 1232   4.932   1.490   1.554 -0.1296  0.5961  0.1267
  236W        W 1233   2.005   3.115   2.634 -0.0045 -0.0796 -0.0772
  237W        W 1234   5.196   6.267   3.573  0.1126 -0.2458 -0.1211
  238W        W 1235   4.335   1.616   6.911  0.1298 -0.1101  0.1956
  239W        W 1236   2.343   3.283   0.839 -0.2261  0.0136 -0.1180
  240W        W 1237   7.406   3.677   2.750  0.0168 -0.2442 -0.4575
  241W        W 1238   0.648   4.846   3.805 -0.0770  0.0089  0.0531
  242W        W 1239   2.522   4.803   6.238  0.1566 -0.2816  0.0762
  243W        W 1240   5.482   0.356   0.524  0.0306 -0.1421  0.3052
  244W        W 1241   0.872   4.156   5.929  0.1336  0.1920  0.0617
  245W        W 1242   0.925   0.927   5.368 -0.1217 -0.5154 -0.0312
  246W        W 1243   4.048   1.198   6.949  0.1210 -0.1660  0.0085
  247W        W 1244   1.738   4.470   0.912 -0.0561 -0.2800 -0.5017
  248W        W 1245   3.286   1.851   6.504  0.3167  0.1043  0.1292
  249W        W 1246   1.698   1.887   5.152  0.0880  0.1979  0.0474
  250W        W 1247   3.192   3.614   2.543  0.0970  0.0501 -0.2645
  251W        W 1248   4.757   0.889   6.348  0.4071 -0.1678 -0.3519
  252W        W 1249   2.432   7.096   4.818  0.2522  0.1954 -0.2054
  253W        W 1250   7.498   0.272   6.545 -0.1488 -0.1988  0.1700
  254W        W 1251   6.607   0.661   5.073 -0.2605 -0.1501 -0.0670
  255W        W 1252   2.319   4.924   2.653 -0.3556 -0.1943  0.2508
  256W        W 1253   5.319   0.602   7.317  0.0080 -0.2877 -0.1840
  257W        W 1254   4.507   2.975   3.530  0.1356 -0.1237 -0.0537
  258W        W 1255   2.953   0.849   4.219 -0.1096  0.3266  0.2026
  259W        W 1256   7.169   4.211   0.862 -0.1699  0.2476  0.1478
  260W        W 1257   6.921   2.175   3.063  0.0222 -0.2256  0.0333
  261W        W 1258   0.833   1.758   3.582  0.1326  0.0601  0.5838
  262W        W 1259   3.104   4.782   6.338  0.1334  0.1479 -0.0045
  263W        W 1260   4.283   1.407   7.355  0.0041 -0.0085 -0.2642
  264W        W 1261   2.387   6.559   5.300  0.0459  0.2486  0.0246
  265W        W 1262   6.005   6.786   4.591 -0.2503  0.0715 -0.0910
  266W        W 1263   4.782   1.089   3.771  0.0641 -0.1638 -0.0605
  267W        W 1264   4.553   0.074   5.267 -0.1468 -0.0985  0.0633
  268W        W 1265   2.964   3.214   5.077  0.0441 -0.0038 -0.1225
  269W        W 1266   4.524   3.949   6.424 -0.1876  0.1448  0.0242
  270W        W 1267   2.634   7.382   6.994 -0.0123 -0.5883  0.0152
  271W        W 1268   1.728   2.894   3.711 -0.0493  0.3985 -0.2931
  272W        W 1269   0.443   2.068   3.264  0.3333  0.0788  0.1784
  273W        W 1270   4.501   3.685   7.421 -0.0772 -0.2006  0.1841
  274W        W 1271   0.350   1.561   4.186  0.0071 -0.1346 -0.0061
  275W        W 1272   1.006   5.059   4.634 -0.1105 -0.2664  0.2413
  276W        W 1273   2.375   0.119   7.343  0.2682 -0.0425 -0.2472
  277W        W 1274   6.219   3.868   7.019  0.2315 -0.0775  0.0383
  278W        W 1275   7.101   0.804   5.153  0.1837  0.0576 -0.0421
  279W        W 1276   0.149   1.216   2.613 -0.1448 -0.1130 -0.3223
  280W        W 1277   1.086   3.519   3.539  0.0220 -0.1006  0.1531
  281W        W 1278   6.055   1.742   3.059 -0.0193  0.0251 -0.1909
  282W        W 1279   0.628   2.535   5.072  0.2131  0.0811 -0.4064
  283W        W 1280   1.384   6.126   0.197 -0.0370  0.1056 -0.0580
  284W        W 1281   4.246   0.463   4.438  0.2290 -0.2861  0.1718
  285W        W 1282   5.818   6.333   5.443  0.3089 -0.0365 -0.0354
  286W        W 1283   3.482   1.267   1.653 -0.2969  0.0897 -0.4065
  287W        W 1284   6.220   1.912   5.512 -0.0467  0.1396  0.0089
  288W        W 1285   1.153   2.891   1.587  0.0697 -0.1467  0.0057
  289W        W 1286   0.076   4.740   2.196 -0.0763  0.4682 -0.4741
  290W        W 1287   5.817   3.413   6.446 -0.0615  0.0416 -0.0283
  291W        W 1288   3.640   2.916   5.195  0.2052  0.1060  0.0268
  292W        W 1289   1.206   2.666   2.418 -0.1543  0.0285  0.0499
  293W        W 1290   0.573   4.982   7.253  0.2051  0.2683  0.1015
  294W        W 1291   4.915   2.299   6.565 -0.3291 -0.2251 -0.0546
  295W        W 1292   4.019   2.093   0.912  0.1202 -0.0200  0.0265
  296W        W 1293   2.817   3.944   0.043  0.0661 -0.2971 -0.2687
  297W        W 1294   6.983   2.689   3.913 -0.3821  0.0960  0.2472
  298W        W 1295   5.133   2.803   4.178  0.2277  0.1415 -0.3005
  299W        W 1296   0.437   6.422   1.163 -0.0557  0.0087 -0.1651
  300W        W 1297   6.872   1.616   3.353  0.2317  0.0979 -0.2408
  301W        W 1298   4.746   3.742   5.119 -0.0526 -0.0200  0.1055
  302W        W 1299   0.254   7.434   5.375 -0.1603 -0.1167 -0.1130
  303W        W 1300   3.070   2.615   1.019  0.1300  0.0185 -0.2152
  304W        W 1301   5.530   2.704   6.441  0.2175 -0.0711 -0.0225
  305W        W 1302   7.475   0.056   4.420 -0.0051 -0.0836  0.1444
  306W        W 1303   2.027   0.589   6.684 -0.1496 -0.0560 -0.0687
  307W        W 1304   4.876   5.645   2.344  0.0030  0.1353 -0.0994
  308W        W 1305   0.694   2.458   7.480  0.1967 -0.0202  0.0686
  309W        W 1306   0.579   5.197   5.433  0.3256  0.1822  0.4917
  310W        W 1307   7.274   2.292   2.303  0.0038  0.0362  0.0741
  311W        W 1308   2.049   3.681   3.470  0.0665  0.0138  0.0601
  312W        W 1309   2.944   2.191   2.818  0.0081  0.2993 -0.2205
  313W        W 1310   2.117   5.200   5.327 -0.0924 -0.2284 -0.0695
  314W        W 1311   5.155   5.184   7.456 -0.0133 -0.1089 -0.2975
  315W        W 1312   0.369   3.280   4.193 -0.0836 -0.0592  0.0453
  316W        W 1313   1.215   2.944   0.452  0.2128 -0.1046  0.2531
  317W        W 1314   6.561   1.040   7.553  0.0689 -0.0160  0.0459
  318W        W 1315   3.496   3.887   1.864 -0.0300 -0.1551 -0.1660
  319W        W 1316   6.344   3.433   3.551 -0.0255 -0.0156  0.0317
  320W        W 1317   1.909   0.117   6.874 -0.1982  0.0785 -0.0262
  321W        W 1318   5.227   5.989   1.399 -0.5821  0.2719 -0.1635
  322W        W 1319   5.868   4.551   4.307 -0.1863 -0.0771  0.2421
  323W        W 1320   1.159   7.464   7.475 -0.2304  0.1263  0.1646
  324W        W 1321   4.537   2.021   0.841 -0.1866 -0.1193 -0.3921
  325W        W 1322   0.006   0.902   3.314 -0.5034 -0.1288 -0.0802
  326W        W 1323   1.400   2.556   4.012  0.0972  0.0758  0.1656
  327W        W 1324   1.052   1.316   0.574 -0.3503 -0.1339 -0.1518
  328W        W 1325   3.099   5.976   5.974 -0.2450  0.2041 -0.1189
  329W        W 1326   0.115   1.844   0.917 -0.0085 -0.1196  0.1250
  330W        W 1327   7.013   0.783   0.049  0.0167  0.1436 -0.0395
  331W        W 1328   2.957   4.532   0.800  0.1724  0.1036 -0.0852
  332W        W 1329   3.376   5.614   7.086 -0.2201 -0.0757  0.0549
  333W        W 1330   3.315   6.427   5.831 -0.0266  0.0816  0.2428
  334W        W 1331   5.077   3.890   1.652 -0.3011 -0.3646 -0.0876
  335W        W 1332   0.292   0.186   6.995  0.4715 -0.1755 -0.0815
  336W        W 1333   1.238   4.642   6.837  0.0222  0.2103  0.1295
  337W        W 1334   3.333   1.811   4.477  0.5946  0.0061 -0.1070
  338W        W 1335   0.192   3.223   0.103 -0.2998  0.2589  0.1634
  339W        W 1336   2.220   1.054   4.598 -0.0309 -0.0114  0.0639
  340W        W 1337   6.345   1.175   6.571 -0.2272  0.1779  0.1348
  341W        W 1338   0.997   4.737   7.438  0.0621  0.0977 -0.2521
  342W        W 1339   1.597   4.503   6.331  0.1195  0.1846  0.0531
  343W        W 1340   1.512   4.767   0.538 -0.3337  0.1195  0.0249
  344W        W 1341   5.534   6.056   5.047 -0.2204 -0.3031 -0.1833
  345W        W 1342   4.625   1.754   4.090 -0.4913  0.0061  0.1463
  346W        W 1343   0.964   0.763   4.443 -0.2227 -0.4083 -0.0747
  347W        W 1344   5.758   5.066   3.237 -0.1315 -0.0693 -0.0588
  348W        W 1345   0.752   5.463   3.944  0.1227  0.0047  0.0177
  349W        W 1346   1.766   1.036   0.324 -0.0443  0.0428  0.1263
  350W        W 1347   3.199   3.840   1.472  0.2331 -0.2932  0.3139
  351W        W 1348   6.493   7.413   7.364  0.0717 -0.0417 -0.0933
  352W        W 1349   1.475   6.994   4.932  0.0824  0.0083  0.4808
  353W        W 1350   7.446   2.946   1.695  0.0657 -0.0932 -0.1355
  354W        W 1351   5.530   4.748   3.522  0.2221 -0.0014 -0.0833
  355W        W 1352   2.865   5.542   7.408 -0.1814  0.5128  0.1896
  356W        W 1353   0.690   5.607   6.294  0.2859 -0.0389  0.0622
  357W        W 1354   4.979   6.803   4.578  0.0012  0.0244  0.0407
  358W        W 1355   1.426   2.020   1.573  0.2351  0.0119  0.0868
  359W        W 1356   7.292   3.614   6.371  0.0375 -0.0767 -0.0725
  360W        W 1357   1.139   4.213   6.399 -0.2334 -0.3601  0.2847
  361W        W 1358   2.585   2.438   2.526 -0.3961  0.3024  0.1311
  362W        W 1359   4.140   4.189   1.650  0.2024 -0.0938 -0.0029
  363W        W 1360   6.632   5.492   5.999  0.1755 -0.1411  0.2748
  364W        W 1361   6.147   5.835   4.596  0.0693 -0.0470 -0.1948
  365W        W 1362   1.613   4.532   1.436  0.2075  0.2876 -0.0667
  366W        W 1363   5.613   0.707   0.080 -0.1777  0.0394 -0.2263
  367W        W 1364   6.592   2.108   6.890 -0.0824  0.0708 -0.1851
  368W        W 1365   6.301   4.255   3.172  0.0617 -0.2739 -0.0631
  369W        W 1366   1.610   2.165   2.343  0.0784  0.0177 -0.1139
  370W        W 1367   6.149   0.867   5.097 -0.0060 -0.1651  0.0191
  371W        W 1368   2.028   7.625   0.531  0.1827 -0.1767 -0.3176
  372W        W 1369   2.904   5.032   3.743  0.1115  0.0833 -0.1543
  373W        W 1370   7.150   3.308   6.774 -0.1782 -0.1440 -0.2128
  374W        W 1371   1.241   1.656   5.692  0.0529 -0.0297 -0.1716
  375W        W 1372   3.731   1.559   6.531  0.2903 -0.1734 -0.1888
  376W        W 1373   1.344   1.799   3.535  0.0311  0.0894  0.2780
  377W        W 1374   3.411   0.161   4.786  0.0119  0.2221  0.0181
  378W        W 1375   2.363   1.758   2.282 -0.3320  0.0001  0.1160
  379W        W 1376   6.171   2.447   3.304  0.0945 -0.1767  0.0105
  380W        W 1377   1.266   4.869   2.643  0.0448  0.0397  0.2071
  381W        W 1378   4.294   1.498   4.829  0.0677  0.1986 -0.0069
  382W        W 1379   3.870   5.239   4.180 -0.1266 -0.0275 -0.3185
  383W        W 1380   5.683   1.245   4.215 -0.1001  0.0919  0.2280
  384W        W 1381   4.710   6.016   2.834 -0.0248  0.0031  0.2603
  385W        W 1382   3.204   4.782   4.226 -0.0968 -0.1189  0.6039
  386W        W 1383   1.790   1.198   5.985 -0.1296  0.3364  0.0965
  387W        W 1384   4.678   6.010   7.039 -0.1081 -0.2740 -0.0766
  388W        W 1385   0.408   5.346   6.957 -0.1806 -0.0731 -0.0476
  389W        W 1386   1.778   1.317   4.490 -0.1289  0.5771 -0.0116
  390W        W 1387   0.756   4.492   7.063 -0.0816 -0.2091 -0.0392
  391W        W 1388   3.317   0.989   7.409 -0.0572  0.0938 -0.1236
  392W        W 1389   4.802   6.131   4.343 -0.0452  0.0669 -0.2637
  393W        W 1390   5.033   5.180   2.865 -0.0681  0.0018 -0.0519
  394W        W 1391   4.674   6.445   5.532 -0.5755 -0.1084 -0.0260
  395W        W 1392   6.447   6.428   6.998  0.0728 -0.4504 -0.2338
  396W        W 1393   4.742   0.149   3.942  0.1860  0.0002 -0.1844
  397W        W 1394   5.129   6.733   6.034  0.1122 -0.1133 -0.2614
  398W        W 1395   7.468   3.800   0.958 -0.2109  0.0413  0.1019
  399W        W 1396   1.588   2.079   0.717  0.1317 -0.0501 -0.0465
  400W        W 1397   2.443   1.522   3.098 -0.1738 -0.1463  0.1116
  401W        W 1398   1.520   5.069   1.423  0.0915  0.1253  0.0013
  402W        W 1399   1.549   3.782   3.307 -0.2494 -0.3766  0.1422
  403W        W 1400   6.867   5.900   2.278  0.1436 -0.0693  0.0434
  404W        W 1401   6.415   2.550   6.610  0.1101 -0.1248 -0.0395
  405W        W 1402   1.319   5.573   6.951  0.0108  0.0323  0.2769
  406W        W 1403   7.083   3.508   7.267  0.2161  0.0685 -0.1452
  407W        W 1404   7.598   1.083   5.907 -0.2161 -0.0841 -0.0830
  408W        W 1405   6.375   3.026   1.139  0.2106 -0.0051  0.0163
  409W        W 1406   0.496   3.807   4.378 -0.0125 -0.1709 -0.0543
  410W        W 1407   0.043   4.558   2.686  0.1410  0.0204 -0.0064
  411W        W 1408   4.775   7.319   3.783 -0.0710  0.0303 -0.0602
  412W        W 1409   2.621   5.860   0.546  0.1311  0.1055  0.3090
  413W        W 1410   6.639   2.850   4.366 -0.1237 -0.1867  0.1303
  414W        W 1411   6.041   6.191   6.168  0.4276 -0.1091  0.0466
  415W        W 1412   5.472   2.761   7.387  0.1830  0.0397 -0.0708
  416W        W 1413   3.988   3.741   0.054 -0.1573  0.2845 -0.0959
  417W        W 1414   7.205   0.749   4.093 -0.2649  0.1751  0.0710
  418W        W 1415   2.930   6.084   4.397  0.0735  0.0904 -0.1571
  419W        W 1416   3.277   4.799   1.632  0.1136 -0.0915 -0.2295
  420W        W 1417   1.534   1.227   0.782 -0.1060 -0.1913  0.2683
  421W        W 1418   4.750   7.040   4.957 -0.4411  0.0705  0.2891
  422W        W 1419   3.423   2.639   0.393  0.0205  0.1822  0.1130
  423W        W 1420   0.993   0.598   5.779  0.2075 -0.1363 -0.2013
  424W        W 1421   4.577   0.560   1.061 -0.2356  0.3420 -0.1699
  425W        W 1422   1.707   4.874   1.794  0.1216 -0.0511 -0.0699
  426W        W 1423   4.624   4.978   3.616  0.1076 -0.1438  0.0528
  427W        W 1424   0.375   7.064   4.604  0.2452  0.0040 -0.4035
  428W        W 1425   3.913   1.968   4.492 -0.3032  0.0092  0.1594
  429W        W 1426   0.426   1.009   3.547  0.0183 -0.1326 -0.1244
  430W        W 1427   4.603   4.351   5.006 -0.3618 -0.1022  0.1690
  431W        W 1428   3.045   1.951   7.433  0.2591  0.0363 -0.2602
  432W        W 1429   3.650   4.307   4.284 -0.0017  0.4221  0.0829
  433W        W 1430   4.523   4.324   6.763  0.0075  0.0235  0.2516
  434W        W 1431   7.578   5.476   2.632 -0.0729  0.1346 -0.0662
  435W        W 1432   5.061   5.234   1.009 -0.0895  0.3369  0.1878
  436W        W 1433   4.065   2.193   5.368 -0.0333  0.0597  0.3847
  437W        W 1434   3.599   4.635   5.499  0.1858  0.2605 -0.0352
  438W        W 1435   4.418   0.864   5.693 -0.0903  0.3191  0.0237
  439W        W 1436   4.370   5.956   4.543  0.1924 -0.1347  0.0734
  440W        W 1437   3.146   2.550   2.567  0.2766  0.2638 -0.0692
  441W        W 1438   6.861   4.224   4.756  0.0975  0.0737 -0.2461
  442W        W 1439   2.717   4.650   3.376 -0.2591 -0.1734 -0.2177
  443W        W 1440   6.389   5.620   0.016  0.0022 -0.0552 -0.1170
  444W        W 1441   4.416   3.174   6.920 -0.0005 -0.0703  0.0050
  445W        W 1442   3.545   6.501   0.180 -0.1090  0.2011 -0.3412
  446W        W 1443   0.356   5.057   1.674  0.0280  0.0865  0.0705
  447W        W 1444   4.323   4.415   2.064  0.2732 -0.1458  0.1401
  448W        W 1445   2.758   4.758   6.758  0.1340 -0.0332  0.2343
  449W        W 1446   5.545   7.261   6.488 -0.2152 -0.4702  0.1144
  450W        W 1447   1.960   4.214   2.999 -0.2044 -0.1776 -0.2150
  451W        W 1448   7.538   0.062   7.380 -0.0880 -0.0502  0.0517
  452W        W 1449   6.021   5.249   0.397  0.1484 -0.0682  0.1174
  453W        W 1450   1.884   4.774   5.342  0.5021  0.1576 -0.2589
  454W        W 1451   3.588   1.911   5.281 -0.2736  0.1750  0.1207
  455W        W 1452   6.062   1.252   7.011  0.0029 -0.1634 -0.1008
  456W        W 1453   4.692   1.783   2.681  0.0714 -0.1148 -0.0516
  457W        W 1454   0.632   2.514   3.996  0.1780 -0.0094  0.0335
  458W        W 1455   7.618   3.748   2.313 -0.2722  0.0157 -0.0862
  459W        W 1456   3.846   4.617   3.400 -0.1244  0.2891  0.0885
  460W        W 1457   1.515   6.562   6.828  0.0377 -0.1643 -0.1310
  461W        W 1458   2.140   1.568   5.775 -0.0056  0.4095 -0.1354
  462W        W 1459   0.555   2.022   0.874 -0.2840 -0.2713 -0.1568
  463W        W 1460   1.741   6.109   6.209 -0.0350  0.4028 -0.2211
  464W        W 1461   6.568   2.846   0.367 -0.3552 -0.2878  0.1450
  465W        W 1462   4.674   2.545   1.868 -0.1201 -0.0020 -0.1250
  466W        W 1463   1.607   5.071   3.481  0.1299  0.0836 -0.0655
  467W        W 1464   1.802   7.508   6.422  0.1003  0.4147  0.2141
  468W        W 1465   7.462   5.043   0.312  0.0796  0.2076 -0.1749
  469W        W 1466   3.131   4.809   5.189 -0.0088  0.1330 -0.1166
  470W        W 1467   5.018   6.030   4.881 -0.1263  0.0707  0.3612
  471W        W 1468   3.638   0.884   2.702 -0.0812 -0.0060 -0.2504
  472W        W 1469   3.633   4.356   1.763 -0.0034  0.1415 -0.1003
  473W        W 1470   6.135   2.380   5.063  0.1274 -0.1880  0.3647
  474W        W 1471   3.042   4.861   2.910  0.3134 -0.2617 -0.1339
  475W        W 1472   2.112   1.463   7.307 -0.0881  0.2139  0.0140
  476W        W 1473   6.030   4.848   6.782  0.2478  0.1754 -0.3723
  477W        W 1474   3.369   1.411   5.232 -0.1165  0.1466 -0.1990
  478W        W 1475   0.087   1.754   2.998 -0.3039 -0.0155 -0.1405
  479W        W 1476   3.267   4.053   3.500 -0.0858 -0.4117 -0.0769
  480W        W 1477   5.897   1.517   5.538  0.3537 -0.0672 -0.1165
  481W        W 1478   2.886   0.596   6.647 -0.1118  0.0397  0.2833
  482W        W 1479   5.506   4.265   3.896 -0.0731 -0.0116 -0.1281
  483W        W 1480   5.185   3.720   3.655 -0.3680  0.0294  0.1058
  484W        W 1481   6.071   4.696   2.276 -0.0779  0.1432 -0.0101
  485W        W 1482   4.504   5.251   6.316  0.0839  0.0409  0.0525
  486W        W 1483   5.102   4.556   5.955 -0.0736  0.0934  0.3288
  487W        W 1484   5.534   1.467   3.759 -0.2040 -0.0299  0.2431
  488W        W 1485   0.352   1.011   0.116  0.2264 -0.0785  0.0588
  489W        W 1486   7.075   5.395   3.522  0.0015 -0.0733  0.0699
  490W        W 1487   7.596   1.921   2.218 -0.2113 -0.0555  0.3503
  491W        W 1488   3.090   3.446   0.673  0.1254  0.0793  0.1961
  492W        W 1489   2.136   4.379   5.575  0.2666 -0.0349 -0.0237
  493W        W 1490   1.623   7.318   7.413 -0.1256 -0.1110  0.5197
  494W        W 1491   5.772   2.498   4.670 -0.1670 -0.4147 -0.2901
  495W        W 1492   2.199   1.550   6.759 -0.1177 -0.0201  0.2738
  496W        W 1493   3.572   4.773   2.483 -0.0218  0.1136 -0.2225
  497W        W 1494   3.765   4.157   0.973  0.0115  0.2198 -0.1512
  498W        W 1495   1.006   1.812   1.309  0.0848 -0.1482  0.1052
  499W        W 1496   4.596   2.393   1.355 -0.1134  0.0545  0.0298
  500W        W 1497   5.767   4.112   0.597 -0.3060  0.0844  0.0068
  501W        W 1498   7.445   4.872   5.022 -0.1462 -0.0385  0.2609
  502W        W 1499   4.767   2.366   4.251 -0.1576  0.1988 -0.0988
  503W        W 1500   6.709   4.510   6.761  0.2199 -0.0095 -0.0073
  504W        W 1501   1.876   2.651   6.347  0.0479 -0.2980  0.0806
  505W        W 1502   6.199   3.777   1.528  0.2399 -0.0803  0.2576
  506W        W 1503   2.896   0.636   5.250 -0.0880 -0.1319 -0.1815
  507W        W 1504   5.261   4.994   6.901 -0.1783 -0.1771  0.0135
  508W        W 1505   4.238   1.541   2.945  0.0927  0.1585  0.2072
  509W        W 1506   4.137   0.476   5.434 -0.1218 -0.1035  0.0686
  510W        W 1507   5.124   1.013   1.407 -0.3959  0.1425  0.1674
  511W        W 1508   3.773   1.759   0.647 -0.0171 -0.2821 -0.1529
  512W        W 1509   7.473   3.175   2.753  0.0848  0.4721 -0.1453
  513W        W 1510   1.911   5.615   7.437 -0.1288 -0.2582 -0.1308
  514W        W 1511   5.879   3.276   7.497 -0.1708 -0.2010 -0.1423
  515W        W 1512   6.185   6.004   3.741 -0.0366 -0.0898 -0.3600
  516W        W 1513   6.444   3.961   1.053 -0.0855 -0.0378  0.1782
  517W        W 1514   5.291   4.279   3.456  0.5302  0.3446  0.1278
  518W        W 1515   5.134   4.911   5.193  0.0514 -0.0094 -0.2259
  519W        W 1516   7.344   1.172   2.917 -0.0860 -0.0809 -0.2260
  520W        W 1517   3.318   0.436   4.378  0.0588  0.0100  0.0049
  521W        W 1518   2.459   5.285   5.678 -0.0507 -0.1466 -0.0162
  522W        W 1519   0.488   6.706   4.941 -0.2894  0.3249  0.0447
  523W        W 1520   2.149   0.288   0.154 -0.0916  0.1942 -0.0461
  524W        W 1521   4.242   2.220   4.849 -0.0389 -0.0112 -0.1255
  525W        W 1522   4.181   5.547   2.755  0.5053 -0.0586  0.1289
  526W        W 1523   2.450   2.067   2.854 -0.1146 -0.0249  0.1109
  527W        W 1524   3.132   0.064   5.232 -0.0622  0.0180  0.0599
  528W        W 1525   5.384   7.256   5.507  0.1163 -0.0618 -0.0847
  529W        W 1526   4.787   7.543   0.475 -0.1876 -0.2504  0.4914
  530W        W 1527   2.676   1.200   2.683  0.1520 -0.0151  0.2296
  531W        W 1528   0.163   0.624   7.259 -0.1093 -0.1572 -0.0729
  532W        W 1529   5.461   3.976   5.066 -0.0363 -0.0729 -0.2008
  533W        W 1530   6.589   1.744   2.904  0.0511 -0.3236 -0.1304
  534W        W 1531   0.312   2.161   7.574  0.1218  0.2061 -0.3664
  535W        W 1532   0.424   0.201   5.722  0.0558 -0.1746  0.0198
  536W        W 1533   3.932   4.218   0.276 -0.1336  0.0226  0.1188
  537W        W 1534   6.294   4.202   7.450  0.2399 -0.1571 -0.1516
  538W        W 1535   0.026   7.051   5.090  0.1168  0.2698 -0.2612
  539W        W 1536   1.067   6.510   0.053 -0.0971 -0.1262  0.0782
  540W        W 1537   4.091   5.139   7.232 -0.2748 -0.2195  0.1186
  541W        W 1538   5.383   5.199   2.513 -0.2796 -0.0493  0.1391
  542W        W 1539   5.619   2.545   1.471  0.2375 -0.4083  0.0811
  543W        W 1540   1.137   1.674   2.083  0.1465  0.1389  0.3423
  544W        W 1541   7.405   6.893   7.611 -0.0367  0.2053 -0.1195
  545W        W 1542   4.262   4.266   3.301  0.0102  0.1359 -0.1774
  546W        W 1543   3.959   4.271   5.165 -0.0365  0.1506 -0.0487
  547W        W 1544   3.231   5.160   7.326 -0.0357  0.1563 -0.0622
  548W        W 1545   6.351   6.009   7.242 -0.1387 -0.3387 -0.2625
  549W        W 1546   0.219   5.475   5.672 -0.0719 -0.1026  0.3083
  550W        W 1547   5.038   1.358   6.280  0.0951  0.2796  0.2070
  551W        W 1548   3.647   2.686   1.807 -0.2267 -0.0522  0.3351
  552W        W 1549   1.799   5.959   0.995 -0.1593 -0.0142 -0.0104
  553W        W 1550   0.604   5.666   0.228 -0.1374  0.0030 -0.2528
  554W        W 1551   1.575   2.334   3.596 -0.1263 -0.2005 -0.0928
  555W        W 1552   4.613   5.478   5.736 -0.0617  0.4627 -0.0705
  556W        W 1553   3.654   6.571   3.994  0.0008  0.0366  0.0355
  557W        W 1554   5.009   0.338   0.591 -0.0592 -0.0311 -0.2067
  558W        W 1555   4.404   5.402   3.482 -0.2012 -0.2290  0.0252
  559W        W 1556   4.073   6.901   4.780 -0.0299  0.2421  0.0703
  560W        W 1557   6.722   1.513   6.500  0.1907 -0.0346 -0.3081
  561W        W 1558   0.049   1.164   1.238 -0.1261  0.0223 -0.0884
  562W        W 1559   2.591   1.458   0.560 -0.0908  0.1955 -0.0527
  563W        W 1560   4.942   5.226   6.555 -0.4169  0.0067  0.1195
  564W        W 1561   4.937   3.741   6.174  0.3529 -0.1562 -0.0264
  565W        W 1562   2.397   4.105   7.453 -0.0126  0.0382  0.2068
  566W        W 1563   3.896   7.251   6.327 -0.0307 -0.2950 -0.0372
  567W        W 1564   5.888   3.881   1.018 -0.0581 -0.0585  0.0423
  568W        W 1565   1.914   5.288   5.781  0.0910  0.0626 -0.2826
  569W        W 1566   3.240   2.352   6.446  0.2807 -0.0329  0.3034
  570W        W 1567   4.293   2.996   5.410 -0.1109 -0.1904  0.2642
  571W        W 1568   3.607   2.554   7.160  0.4062 -0.0090 -0.1594
  572W        W 1569   7.572   4.200   2.114 -0.3249 -0.0439 -0.0492
  573W        W 1570   7.217   4.558   2.265 -0.0205  0.0097 -0.2685
  574W        W 1571   7.428   5.511   3.093  0.3240 -0.0140 -0.1226
  575W        W 1572   2.349   3.917   5.720 -0.1128 -0.1073  0.3292
  576W        W 1573   0.939   5.074   4.164 -0.3905  0.1035 -0.1340
  577W        W 1574   6.863   5.668   1.343 -0.2292 -0.1014  0.2646
  578W        W 1575   6.407   4.026   2.733  0.3309  0.1693 -0.1115
  579W        W 1576   0.143   0.599   6.131  0.1786 -0.3134 -0.0655
  580W        W 1577   1.214   5.530   6.202  0.3908  0.1368 -0.0086
  581W        W 1578   0.840   1.059   7.002 -0.0325 -0.4356  0.1149
  582W        W 1579   7.342   5.495   1.063  0.4558 -0.3221 -0.3044
  583W        W 1580   3.103   6.765   0.355 -0.0217 -0.1764  0.0604
  584W        W 1581   5.552   1.565   0.074 -0.2821 -0.4028  0.0955
  585W        W 1582   0.073   5.818   0.971  0.1127  0.2831  0.0627
  586W        W 1583   6.806   3.157   7.620 -0.0241  0.0420  0.0176
  587W        W 1584   4.334   3.206   4.376 -0.0458  0.0461  0.0044
  588W        W 1585   1.501   1.567   0.411  0.1593  0.1174 -0.1478
  589W        W 1586   2.809   0.833   0.224 -0.1326 -0.0308  0.1872
  590W        W 1587   5.279   5.747   3.524  0.2523 -0.0808  0.0214
  591W        W 1588   4.093   4.159   7.002  0.3383  0.0277  0.1871
  592W        W 1589   3.863   1.657   7.085 -0.1140 -0.1230 -0.0268
  593W        W 1590   6.089   3.738   7.551 -0.0736 -0.1992 -0.0728
  594W        W 1591   7.459   1.445   5.594  0.3800  0.1308 -0.0703
  595W        W 1592   7.278   5.030   2.327 -0.1942 -0.0872  0.4154
  596W        W 1593   5.019   3.662   3.076  0.1651  0.3922  0.0835
  597W        W 1594   2.958   0.109   7.011 -0.0408 -0.0279 -0.0808
  598W        W 1595   0.879   4.870   2.954 -0.2778 -0.0633  0.4080
  599W        W 1596   6.932   0.521   5.560  0.2493 -0.1754  0.0992
  600W        W 1597   3.490   6.648   7.220  0.0106  0.0036 -0.1205
  601W        W 1598   4.873   2.889   4.632  0.3243 -0.3240 -0.0619
  602W        W 1599   4.764   7.539   4.808  0.0098  0.0919 -0.2442
  603W        W 1600   6.311   1.207   4.240  0.1281 -0.0957 -0.1999
  604W        W 1601   6.431   1.507   7.381 -0.1613  0.1796  0.0951
  605W        W 1602   5.573   0.974   0.499 -0.2142 -0.0462  0.1428
  606W        W 1603   4.582   5.167   3.050  0.2779  0.3916 -0.0573
  607W        W 1604   4.830   1.908   0.452  0.2619 -0.2005 -0.0861
  608W        W 1605   6.814   4.859   5.767  0.1387  0.2994 -0.2763
  609W        W 1606   4.211   1.371   6.441 -0.2105  0.0635 -0.0042
  610W        W 1607   4.184   4.189   4.173 -0.1813  0.2497 -0.1549
  611W        W 1608   0.220   2.395   1.171 -0.1010  0.0907  0.0206
  612W        W 1609   6.461   1.954   1.662 -0.1709  0.1499  0.1305
  613W        W 1610   0.887   2.616   0.423  0.3471 -0.1247 -0.2898
  614W        W 1611   0.820   6.684   6.230 -0.2619  0.2356  0.2329
  615W        W 1612   2.445   0.766   4.235  0.1013  0.0947  0.0151
  616W        W 1613   2.074   5.256   1.780 -0.1285  0.3120 -0.3089
  617W        W 1614   1.719   4.750   3.891 -0.1499 -0.2512  0.0653
  618W        W 1615   0.791   4.089   3.289 -0.2820 -0.2421 -0.0135
  619W        W 1616   0.478   5.063   4.902  0.0759 -0.0239  0.1064
  620W        W 1617   3.690   1.523   4.341  0.2722 -0.0604 -0.0291
  621W        W 1618   1.983   4.838   4.368 -0.0349 -0.0832  0.2548
  622W        W 1619   6.912   1.550   5.777 -0.1182  0.4706 -0.1813
  623W        W 1620   1.230   2.472   0.009 -0.2850  0.0330 -0.0819
  624W        W 1621   2.973   1.342   0.182 -0.1409  0.0911 -0.0606
  625W        W 1622   5.999   2.858   2.412  0.2293  0.1723  0.1299
  626W        W 1623   4.495   5.764   5.338 -0.0782 -0.4148 -0.0747
  627W        W 1624   1.689   1.449   7.019 -0.0202  0.0790  0.0355
  628W        W 1625   6.928   3.803   1.047 -0.2103 -0.2509 -0.0425
  629W        W 1626   1.154   6.933   6.890 -0.0891  0.1014  0.0684
  630W        W 1627   3.410   0.982   3.266 -0.0759  0.2365 -0.2023
  631W        W 1628   0.138   3.688   1.372 -0.0465  0.0593  0.3242
  632W        W 1629   3.090   7.250   6.728 -0.2535 -0.0316  0.1410
  633W        W 1630   2.039   1.176   5.440 -0.3229 -0.0254 -0.0134
  634W        W 1631   2.678   6.954   6.731  0.0188  0.0033  0.4166
  635W        W 1632   4.304   5.263   1.728 -0.3375 -0.0130 -0.0117
  636W        W 1633   6.612   3.781   7.457  0.1382 -0.1761 -0.0175
  637W        W 1634   7.168   5.345   6.454 -0.0045  0.0984  0.0002
  638W        W 1635   2.035   2.236   2.618 -0.4117 -0.0568  0.1721
  639W        W 1636   5.241   1.459   0.576  0.1067  0.3132 -0.0080
  640W        W 1637   2.126   0.535   7.196  0.0324 -0.3700  0.2122
  641W        W 1638   3.808   0.120   7.476  0.0663 -0.4182 -0.1604
  642W        W 1639   6.139   1.823   1.287 -0.3240  0.0410 -0.2883
  643W        W 1640   3.660   3.722   2.676 -0.1740 -0.0719  0.2262
  644W        W 1641   0.186   0.239   5.146 -0.1736 -0.1845  0.1586
  645W        W 1642   5.701   5.867   1.600 -0.0847 -0.0344 -0.0180
  646W        W 1643   5.541   1.126   0.978  0.1306  0.0431 -0.0303
  647W        W 1644   5.048   5.762   1.014  0.0893 -0.3503 -0.0147
  648W        W 1645   5.729   5.103   1.048  0.1793  0.0797  0.0713
  649W        W 1646   4.009   3.558   4.684 -0.1083 -0.0124  0.1112
  650W        W 1647   1.096   2.568   7.193  0.0493  0.3257 -0.0039
  651W        W 1648   3.300   0.064   5.673 -0.1509 -0.0424 -0.1754
  652W        W 1649   0.848   6.995   7.377 -0.0555 -0.0271  0.0948
  653W        W 1650   7.210   2.809   6.666 -0.2383  0.2042  0.0170
  654W        W 1651   5.779   0.534   5.676 -0.2271  0.2125 -0.0057
  655W        W 1652   3.128   6.437   4.746 -0.2240  0.3464  0.3380
  656W        W 1653   7.406   2.099   4.428 -0.0058  0.1350  0.1715
  657W        W 1654   4.255   3.269   5.937 -0.0054 -0.1698  0.3659
  658W        W 1655   5.574   0.393   6.128  0.0980 -0.1397 -0.1479
  659W        W 1656   7.153   2.350   5.553 -0.2669  0.1173 -0.2629
  660W        W 1657   6.194   5.081   1.664  0.3169 -0.1281 -0.4249
  661W        W 1658   3.978   1.077   3.033  0.0199 -0.0117  0.3254
  662W        W 1659   0.780   4.158   4.638 -0.0197 -0.1125 -0.1786
  663W        W 1660   7.581   0.764   0.142 -0.1372  0.3503  0.0283
  664W        W 1661   0.256   2.192   2.789 -0.5379 -0.1606  0.3374
  665W        W 1662   2.244   0.051   6.495  0.0505  0.1140  0.2448
  666W        W 1663   3.397   4.578   5.988  0.3375 -0.2759 -0.3122
  667W        W 1664   5.022   5.304   4.792  0.1383  0.3132 -0.0144
  668W        W 1665   3.112   3.246   6.613  0.1217 -0.2131  0.0486
  669W        W 1666   1.323   2.456   1.338  0.0811  0.4555 -0.2777
  670W        W 1667   5.930   2.953   5.614 -0.2954  0.2722 -0.0143
  671W        W 1668   3.546   2.292   4.493  0.3078  0.1775 -0.1886
  672W        W 1669   1.076   3.128   6.338  0.1580 -0.0705  0.2900
  673W        W 1670   0.545   3.111   2.902 -0.1962  0.2942 -0.3540
  674W        W 1671   6.788   5.099   6.877  0.1818  0.0515  0.1262
  675W        W 1672   0.334   6.157   4.936  0.1654  0.3168  0.1006
  676W        W 1673   6.674   6.373   7.454 -0.0661  0.2286  0.2549
  677W        W 1674   3.548   4.811   3.843 -0.1430 -0.1561  0.3288
  678W        W 1675   5.627   2.905   3.673 -0.1536 -0.0819  0.0592
  679W        W 1676   2.008   1.745   4.675  0.2190 -0.1816 -0.1453
  680W        W 1677   0.221   1.377   0.821  0.2557 -0.1292 -0.0199
  681W        W 1678   6.578   5.875   3.403 -0.0428  0.0304 -0.1971
  682W        W 1679   0.325   1.364   4.666 -0.1469  0.0865  0.2735
  683W        W 1680   1.150   7.026   0.128  0.5646  0.1326 -0.0158
  684W        W 1681   6.350   6.510   5.918  0.0609 -0.2075  0.1824
  685W        W 1682   5.553   1.931   0.530  0.1485 -0.1433 -0.1360
  686W        W 1683   0.667   2.389   4.481  0.1460 -0.1490 -0.1319
  687W        W 1684   2.889   2.227   0.692  0.1318  0.2072 -0.0747
  688W        W 1685   5.388   5.746   6.006 -0.0446 -0.0584 -0.0413
  689W        W 1686   7.040   4.907   3.755  0.2699 -0.2334 -0.5365
  690W        W 1687   3.161   6.805   6.846 -0.0560  0.2578  0.0568
  691W        W 1688   0.073   1.597   5.963  0.2239 -0.1036 -0.2260
  692W        W 1689   5.413   2.755   5.550 -0.1151 -0.0088 -0.1163
  693W        W 1690   6.629   5.490   3.815 -0.2885 -0.2173 -0.1705
  694W        W 1691   2.290   2.022   6.747  0.1071 -0.1858 -0.1551
  695W        W 1692   4.779   1.166   1.929  0.2369 -0.1355 -0.0355
  696W        W 1693   3.640   1.674   4.832  0.1594  0.0576  0.2007
  697W        W 1694   3.996   7.310   0.016  0.0557 -0.3992  0.0179
  698W        W 1695   0.387   3.854   0.958 -0.0586  0.1485 -0.2051
  699W        W 1696   0.333   1.275   3.062  0.0349  0.0398 -0.0085
  700W        W 1697   2.675   1.671   1.333 -0.0938 -0.0366 -0.2959
  701W        W 1698   2.515   3.324   1.316  0.2966  0.0732 -0.2321
  702W        W 1699   1.135   5.550   1.494  0.0051 -0.0954 -0.2176
  703W        W 1700   6.372   4.253   2.232  0.0743 -0.1963 -0.0308
  704W        W 1701   5.527   1.275   6.110  0.2679  0.1554  0.0421
  705W        W 1702   5.016   6.301   3.108 -0.1246  0.1007  0.0233
  706W        W 1703   5.320   4.405   2.705 -0.0757  0.0462 -0.2059
  707W        W 1704   0.068   5.242   5.255 -0.3851 -0.1505 -0.2845
  708W        W 1705   1.334   6.055   6.955  0.1994 -0.1232  0.0899
  709W        W 1706   6.417   5.705   6.818  0.0352  0.1933  0.0463
  710W        W 1707   6.574   7.541   4.478 -0.2601 -0.3661  0.1545
  711W        W 1708   4.816   2.199   7.099  0.0531  0.1137  0.1402
  712W        W 1709   3.511   3.088   5.722  0.1976  0.1059  0.1229
  713W        W 1710   1.961   0.701   5.225 -0.1543 -0.2245  0.2144
  714W        W 1711   1.763   4.433   4.564 -0.0643  0.0156  0.1521
  715W        W 1712   3.154   1.095   2.612 -0.0623  0.3111 -0.1396
  716W        W 1713   4.485   7.035   6.798 -0.2375  0.2209  0.1605
  717W        W 1714   1.921   3.821   3.902 -0.0724 -0.0059 -0.3821
  718W        W 1715   1.233   5.446   4.468 -0.0857 -0.2335  0.2774
  719W        W 1716   7.386   0.588   4.574 -0.1548 -0.1181  0.1460
  720W        W 1717   4.648   4.101   1.777  0.0924 -0.0552 -0.1148
  721W        W 1718   0.301   6.350   5.517 -0.0631 -0.2313 -0.1323
  722W        W 1719   6.261   0.340   6.848  0.2872  0.1976 -0.0177
  723W        W 1720   1.670   5.560   1.570 -0.2772 -0.0569  0.0706
  724W        W 1721   7.602   1.018   4.316  0.0923  0.1143 -0.1931
  725W        W 1722   2.389   3.943   6.768 -0.0582 -0.0725  0.0305
  726W        W 1723   0.716   3.091   0.289  0.1680  0.0919  0.1775
  727W        W 1724   2.390   2.969   6.235  0.0800 -0.3534 -0.0445
  728W        W 1725   6.316   3.530   2.784  0.4018  0.0193 -0.1266
  729W        W 1726   0.756   4.637   4.774  0.1306 -0.0837  0.0325
  730W        W 1727   7.100   4.287   7.001 -0.2477  0.0023 -0.1047
  731W        W 1728   1.156   5.666   0.148 -0.0155  0.0315 -0.0345
  732W        W 1729   5.242   2.558   3.724  0.0845 -0.1385  0.1945
  733W        W 1730   4.510   3.786   0.812 -0.0504  0.0040 -0.0028
  734W        W 1731   4.174   3.145   1.702 -0.0797 -0.0446 -0.2889
  735W        W 1732   4.241   1.191   0.254  0.1018 -0.1572  0.1327
  736W        W 1733   3.184   6.915   4.602 -0.4160  0.2127  0.0316
  737W        W 1734   2.846   0.795   2.989  0.0417  0.3238  0.0424
  738W        W 1735   3.395   2.850   2.256 -0.1680 -0.2117 -0.3450
  739W        W 1736   0.486   2.730   5.512  0.2850  0.1458  0.0083
  740W        W 1737   0.138   4.756   4.048 -0.3439  0.1270  0.0062
  741W        W 1738   1.494   2.209   6.141 -0.3305  0.2730  0.0937
  742W        W 1739   3.582   5.713   4.165 -0.0775  0.2671  0.2246
  743W        W 1740   5.406   4.812   2.983  0.0553  0.2289 -0.2620
  744W        W 1741   4.902   2.648   7.315 -0.2454  0.0725  0.1895
  745W        W 1742   6.033   5.584   7.175  0.4905  0.2243  0.0984
  746W        W 1743   3.682   6.167   7.227 -0.0515  0.0523 -0.0285
  747W        W 1744   2.239   6.672   6.818 -0.0028  0.1149  0.2241
  748W        W 1745   4.628   2.935   5.814  0.2053  0.0797  0.0063
  749W        W 1746   7.406   2.727   5.260 -0.2076  0.2437  0.1028
  750W        W 1747   5.712   1.611   1.044 -0.1265  0.1769  0.1313
  751W        W 1748   6.775   4.950   5.293  0.1728  0.3120  0.1227
  752W        W 1749   6.555   2.218   1.155 -0.2204 -0.0707  0.1125
  753W        W 1750   0.924   1.615   4.717 -0.3752  0.2740  0.0765
  754W        W 1751   1.364   1.783   2.630  0.2294 -0.0993 -0.0546
  755W        W 1752   1.709   3.439   5.276  0.0676  0.0243  0.0506
  756W        W 1753   4.480   4.043   3.798 -0.0548  0.1121  0.1191
  757W        W 1754   5.723   3.411   1.144 -0.2249  0.1935  0.1145
  758W        W 1755   1.231   3.369   1.697  0.4538  0.4156  0.1549
  759W        W 1756   0.671   0.566   4.817 -0.0342  0.0043 -0.1761
  760W        W 1757   0.151   7.483   4.844 -0.0662  0.2075  0.0012
  761W        W 1758   1.404   4.910   4.360  0.2658  0.0268 -0.0452
  762W        W 1759   4.998   4.679   7.312  0.0047  0.5935 -0.0938
  763W        W 1760   0.624   1.861   5.570 -0.1738 -0.0050 -0.1209
  764W        W 1761   4.718   6.776   6.389  0.0447 -0.2177  0.6065
  765W        W 1762   3.476   4.709   7.394  0.0974 -0.1191 -0.3362
  766W        W 1763   0.495   1.882   6.075 -0.4143  0.1218 -0.3377
  767W        W 1764   3.088   3.100   6.070 -0.2328  0.2967 -0.1940
  768W        W 1765   1.564   2.941   7.440 -0.0509  0.2283  0.1731
  769W        W 1766   2.827   1.704   2.666  0.0818 -0.1986 -0.2050
  770W        W 1767   6.075   1.980   2.077 -0.0121 -0.0653 -0.1994
  771W        W 1768   4.402   5.152   2.523 -0.3419  0.1318 -0.0224
  772W        W 1769   3.579   2.428   5.315 -0.2334 -0.3714 -0.1305
  773W        W 1770   3.582   1.736   2.153 -0.1256 -0.0323 -0.1320
  774W        W 1771   2.211   2.938   0.542  0.0297 -0.1318  0.3123
  775W        W 1772   1.330   2.575   3.183  0.0974 -0.2313 -0.2218
  776W        W 1773   5.903   0.781   6.062  0.0685 -0.0145  0.0165
  777W        W 1774   4.111   6.722   4.209 -0.0757  0.1479  0.2162
  778W        W 1775   4.107   3.971   2.144 -0.0544  0.0041 -0.1183
  779W        W 1776   4.547   6.132   4.982  0.0086  0.1481  0.2272
  780W        W 1777   0.236   4.172   6.898  0.1304 -0.2083  0.0199
  781W        W 1778   5.586   4.727   5.132 -0.2060  0.1394 -0.0888
  782W        W 1779   3.456   6.116   6.248 -0.0373 -0.1447  0.0086
  783W        W 1780   6.192   5.804   0.471  0.0265  0.0382  0.1225
  784W        W 1781   1.093   2.866   6.746  0.3167  0.1736 -0.1106
  785W        W 1782   5.799   2.461   3.700 -0.1172 -0.1106 -0.1201
  786W        W 1783   4.812   1.155   4.795 -0.1805 -0.0978  0.1693
  787W        W 1784   5.904   4.002   6.654  0.0385 -0.3122 -0.2104
  788W        W 1785   0.607   2.512   0.885 -0.0008  0.1217  0.0002
  789W        W 1786   3.266   1.764   1.508 -0.0396 -0.3008 -0.0131
  790W        W 1787   6.330   5.132   5.596  0.1694 -0.2724 -0.1828
  791W        W 1788   0.895   5.129   6.233  0.0151  0.0252  0.4614
  792W        W 1789   6.864   6.555   6.649 -0.0603  0.0552 -0.0547
  793W        W 1790   5.817   6.046   0.777  0.0938  0.1288  0.0984
  794W        W 1791   6.604   3.014   4.834 -0.0738 -0.1387 -0.3186
  795W        W 1792   6.808   4.234   3.060  0.2348 -0.1332 -0.4463
  796W        W 1793   3.796   5.854   1.160 -0.3093  0.2108  0.2584
  797W        W 1794   4.778   4.256   0.920  0.0598 -0.2360 -0.1989
  798W        W 1795   6.592   3.672   0.618  0.1262  0.1265 -0.2943
  799W        W 1796   4.975   5.745   7.431  0.0768  0.2612  0.0028
  800W        W 1797   3.033   4.602   2.498 -0.1385  0.2709 -0.2152
  801W        W 1798   3.965   0.493   5.947 -0.1444  0.2037 -0.0208
  802W        W 1799   2.312   2.248   5.577  0.0124 -0.0403 -0.1610
  803W        W 1800   5.576   6.432   0.623  0.0472 -0.1888  0.1026
  804W        W 1801   0.486   0.862   6.444  0.0009 -0.0511  0.0914
  805W        W 1802   7.046   5.928   3.658 -0.0446  0.1351 -0.1611
  806W        W 1803   7.574   1.576   4.425  0.1180 -0.1348  0.3815
  807W        W 1804   3.377   5.234   4.338 -0.3423 -0.2194  0.0297
  808W        W 1805   6.746   0.623   2.924  0.1649 -0.2482 -0.1547
  809W        W 1806   0.270   0.010   0.402 -0.1439 -0.1971 -0.2297
  810W        W 1807   1.379   5.305   7.447 -0.1937 -0.4298 -0.3372
  811W        W 1808   4.186   2.462   1.791 -0.1206  0.2386  0.0061
  812W        W 1809   6.911   4.437   5.419 -0.1390 -0.0072  0.0104
  813W        W 1810   0.566   4.779   2.120 -0.1498 -0.1063 -0.1550
  814W        W 1811   2.157   4.738   4.831  0.0184  0.2107 -0.0079
  815W        W 1812   5.677   5.436   3.607 -0.2989  0.4442  0.0271
  816W        W 1813   6.526   6.168   6.478  0.0720 -0.2886 -0.0262
  817W        W 1814   1.084   2.089   7.338 -0.3170  0.0187  0.1777
  818W        W 1815   5.833   1.986   0.151 -0.2179  0.1320 -0.0233
  819W        W 1816   2.517   2.228   3.717 -0.0152 -0.0302 -0.0380
  820W        W 1817   0.401   7.298   5.955 -0.1381  0.1109  0.1005
  821W        W 1818   1.024   2.016   5.891  0.1840  0.1768 -0.2999
  822W        W 1819   5.322   5.558   6.486  0.1767 -0.4335  0.3266
  823W        W 1820   5.099   2.197   2.004  0.0178 -0.2118  0.2293
  824W        W 1821   4.718   5.537   1.371  0.0612 -0.0427 -0.1371
  825W        W 1822   5.487   3.762   6.307  0.1405 -0.0293  0.2892
  826W        W 1823   6.707   1.435   4.471  0.1638  0.1260  0.1195
  827W        W 1824   0.841   3.650   7.207 -0.2914 -0.1122 -0.1321
  828W        W 1825   2.689   2.538   1.980 -0.2613 -0.0265 -0.0932
  829W        W 1826   5.485   1.657   6.513 -0.0120 -0.1749  0.0521
  830W        W 1827   6.957   1.860   4.308 -0.2518 -0.1097  0.0661
  831W        W 1828   6.580   1.914   0.009 -0.2886  0.0987 -0.1593
  832W        W 1829   3.951   3.466   2.993 -0.5359 -0.2866  0.0146
  833W        W 1830   4.340   0.936   6.672  0.1160  0.4046  0.3757
  834W        W 1831   6.021   5.587   1.819 -0.2982 -0.0542  0.1678
  835W        W 1832   1.762   3.531   4.701  0.2624  0.0105  0.1488
  836W        W 1833   6.239   7.094   5.994 -0.1954  0.1121 -0.1643
  837W        W 1834   0.768   0.214   0.069 -0.0905  0.1144  0.0389
  838W        W 1835   3.742   2.692   4.764 -0.0083 -0.0702 -0.1185
  839W        W 1836   5.328   1.682   1.909 -0.0106 -0.3347 -0.4057
  840W        W 1837   5.680   0.280   4.170 -0.1173 -0.1086  0.4207
  841W        W 1838   6.813   3.503   1.914  0.0027  0.1594  0.1854
  842W        W 1839   4.293   0.957   1.842 -0.0186  0.1137  0.0489
  843W        W 1840   4.645   3.429   2.483  0.0475 -0.2280 -0.2068
  844W        W 1841   0.437   5.132   5.990 -0.0396  0.0277 -0.0591
  845W        W 1842   1.887   5.102   7.450  0.0115 -0.1486  0.0527
  846W        W 1843   1.499   3.943   2.186  0.0252  0.2278 -0.1861
  847W        W 1844   6.068   6.068   6.702 -0.2582 -0.0151 -0.1268
  848W        W 1845   4.733   7.471   7.001  0.0410 -0.0003 -0.0553
  849W        W 1846   2.829   3.877   3.098 -0.2568 -0.4194 -0.2060
  850W        W 1847   3.202   6.179   6.761 -0.2742  0.1760  0.0259
  851W        W 1848   0.034   2.772   2.550  0.1302 -0.2841 -0.0522
  852W        W 1849   5.112   5.027   3.379 -0.0104  0.0622  0.1310
  853W        W 1850   6.439   3.546   4.871 -0.0457 -0.1275 -0.0509
  854W        W 1851   1.359   4.358   7.256  0.2733  0.0640  0.1959
  855W        W 1852   6.762   4.817   2.372 -0.2154  0.3949 -0.0096
  856W        W 1853   5.770   5.669   4.258  0.2817 -0.0054  0.0762
  857W        W 1854   5.054   5.946   6.692  0.0597  0.1353  0.0445
  858W        W 1855   0.276   2.809   2.048  0.0219 -0.0666  0.0773
  859W        W 1856   5.045   0.997   7.132  0.3234  0.1128  0.2468
  860W        W 1857   3.706   6.788   6.046  0.0310 -0.1134  0.0694
  861W        W 1858   6.454   4.571   2.685  0.0859  0.1133  0.1776
  862W        W 1859   2.930   3.225   3.052 -0.1264  0.2226  0.0087
  863W        W 1860   0.760   1.581   7.066  0.1445 -0.2281  0.0029
  864W        W 1861   7.218   4.529   1.783  0.1244 -0.1936 -0.4219
  865W        W 1862   3.259   0.727   2.326  0.3748 -0.2207  0.0063
  866W        W 1863   5.277   1.833   0.980 -0.0272  0.1270  0.2521
  867W        W 1864   4.012   1.489   1.978  0.0735  0.3328 -0.0447
  868W        W 1865   3.817   2.781   2.804 -0.0606  0.1252  0.2568
  869W        W 1866   3.831   3.119   4.462 -0.2294  0.0949  0.1854
  870W        W 1867   4.164   6.223   5.910 -0.0702 -0.0613  0.2324
  871W        W 1868   6.041   3.902   1.993  0.0041  0.1588 -0.5262
  872W        W 1869   5.466   3.267   7.252 -0.0461 -0.0134  0.0615
  873W        W 1870   4.440   3.904   0.235 -0.0307  0.0337  0.0447
  874W        W 1871   5.272   3.540   6.803  0.0195  0.2857 -0.3598
  875W        W 1872   2.417   6.102   6.923  0.1485 -0.1003  0.5560
  876W        W 1873   5.618   6.457   7.336  0.2429  0.2441 -0.3129
  877W        W 1874   6.675   5.047   2.867  0.1153 -0.0101 -0.0360
  878W        W 1875   4.081   5.831   4.142  0.0513 -0.1084  0.0301
  879W        W 1876   6.257   6.231   0.861  0.0280  0.2002 -0.1408
  880W        W 1877   2.045   7.436   0.052  0.0832  0.1805  0.0332
  881W        W 1878   6.054   7.444   0.032  0.0510  0.1878 -0.4232
  882W        W 1879   3.710   0.763   1.496 -0.0228 -0.0091  0.2072
  883W        W 1880   3.676   0.034   4.095  0.1335 -0.2205 -0.2247
  884W        W 1881   5.119   4.058   5.396  0.1690 -0.3164  0.0290
  885W        W 1882   3.894   5.654   7.061  0.1285 -0.0084  0.3596
  886W        W 1883   0.715   1.327   2.201  0.0130  0.0985 -0.1358
  887W        W 1884   2.333   6.072   5.418 -0.3959  0.0645  0.0044
  888W        W 1885   5.288   3.452   1.415  0.0236 -0.0069 -0.0093
  889W        W 1886   3.965   0.581   6.541  0.0712  0.2376  0.1150
  890W        W 1887   0.876   0.093   5.470  0.2130  0.0393 -0.1822
  891W        W 1888   3.775   3.040   3.245  0.1126  0.2332  0.1162
  892W        W 1889   2.780   7.341   4.592 -0.1409  0.0563  0.1290
  893W        W 1890   4.060   5.921   0.647 -0.4550 -0.0110  0.0197
  894W        W 1891   6.627   4.682   3.164  0.0110  0.0203 -0.2059
  895W        W 1892   4.809   4.772   4.774 -0.0870  0.0843 -0.1706
  896W        W 1893   5.457   6.752   6.341 -0.2922 -0.2414 -0.1720
  897W        W 1894   7.592   2.102   1.566 -0.0770  0.2994  0.0586
  898W        W 1895   4.880   7.378   5.341  0.1456 -0.0712  0.1215
  899W        W 1896   1.233   1.634   7.368 -0.0386 -0.1327 -0.1913
  900W        W 1897   6.741   5.163   4.646  0.4877 -0.1853 -0.0821
  901W        W 1898   2.017   3.050   1.121 -0.1466  0.1051 -0.5602
  902W        W 1899   6.438   6.117   0.135  0.0045  0.1113  0.2612
  903W        W 1900   2.989   2.109   3.708  0.1235 -0.0584  0.0117
  904W        W 1901   7.175   6.101   5.854 -0.0889  0.0624  0.1098
  905W        W 1902   7.541   1.177   7.039 -0.1258  0.0604  0.2170
  906W        W 1903   1.314   2.467   0.551 -0.3201 -0.1686 -0.0813
  907W        W 1904   4.071   1.796   2.323  0.1675 -0.0369 -0.1280
  908W        W 1905   0.412   4.007   0.327  0.0597 -0.2103  0.2088
  909W        W 1906   2.786   4.240   6.967  0.1357 -0.1237 -0.1442
  910W        W 1907   7.580   3.277   3.276  0.2829 -0.3345  0.2373
  911W        W 1908   1.315   0.703   6.136 -0.0683 -0.0474 -0.1039
  912W        W 1909   5.646   2.800   4.164 -0.0649  0.1758  0.0949
  913W        W 1910   1.784   5.822   6.988  0.0807 -0.0067  0.1732
  914W        W 1911   3.596   6.992   0.213 -0.1141 -0.1325  0.3237
  915W        W 1912   5.536   4.243   1.714 -0.0766 -0.0047  0.2299
  916W        W 1913   0.979   3.344   3.041 -0.0502  0.2444  0.0544
  917W        W 1914   7.581   6.736   4.743  0.1457  0.0703 -0.3594
  918W        W 1915   6.478   4.125   6.077  0.1653 -0.0771 -0.1390
  919W        W 1916   6.491   1.737   2.279 -0.2244  0.1965 -0.0266
  920W        W 1917   5.298   5.984   0.619 -0.1741 -0.3982 -0.1495
  921W        W 1918   4.388   3.664   4.263  0.1389 -0.1914 -0.4356
  922W        W 1919   4.654   5.527   2.755  0.0024  0.0978 -0.0144
  923W        W 1920   0.539   7.346   6.926 -0.2912 -0.0951  0.0907
  924W        W 1921   5.646   2.439   5.971  0.1844 -0.1562  0.1341
  925W        W 1922   5.131   2.351   1.524  0.3175 -0.2569  0.0168
  926W        W 1923   2.248   7.640   5.607  0.0159  0.1056 -0.0694
  927W        W 1924   4.374   0.829   3.919 -0.1031 -0.0299 -0.2221
  928W        W 1925   3.065   2.135   5.458  0.0988 -0.0140  0.0631
  929W        W 1926   5.879   2.836   1.019  0.2403  0.1208  0.0103
  930W        W 1927   3.792   6.389   5.668  0.2207 -0.0628  0.0860
  931W        W 1928   5.854   2.818   3.197  0.2441  0.1120  0.1443
  932W        W 1929   7.222   1.275   6.620 -0.0964  0.0134 -0.0975
  933W        W 1930   5.915   3.333   3.893  0.1097  0.1121 -0.1952
  934W        W 1931   3.832   5.000   1.535 -0.2500  0.0792 -0.2485
  935W        W 1932   7.026   1.815   6.704  0.2745 -0.0122 -0.2130
  936W        W 1933   5.747   4.160   0.073 -0.1529  0.1964  0.0155
  937W        W 1934   2.966   1.292   1.528  0.1087 -0.1404  0.3211
  938W        W 1935   1.817   2.616   2.268  0.2476 -0.2145  0.0163
  939W        W 1936   2.314   2.252   2.134  0.2006 -0.1796 -0.3062
  940W        W 1937   5.965   2.334   2.399 -0.1799 -0.2831  0.1119
  941W        W 1938   6.882   4.127   6.482 -0.2194  0.0642 -0.0041
  942W        W 1939   3.177   3.107   2.611 -0.1797 -0.0472 -0.1102
  943W        W 1940   4.046   2.628   3.547 -0.1627 -0.2181  0.1530
  944W        W 1941   6.282   4.377   6.453  0.2070 -0.0458  0.1226
  945W        W 1942   3.504   3.756   0.920 -0.2113  0.2220  0.1334
  946W        W 1943   1.715   5.679   5.223 -0.1872 -0.0780  0.0440
  947W        W 1944   4.635   2.946   2.594 -0.0237  0.1108  0.1869
  948W        W 1945   1.172   4.889   3.747  0.2435  0.2994  0.0181
  949W        W 1946   2.781   1.514   3.519 -0.2166  0.0310  0.0061
  950W        W 1947   6.383   3.359   0.157 -0.2885  0.0900  0.2009
  951W        W 1948   4.492   7.560   6.585 -0.0850  0.0872  0.1364
  952W        W 1949   4.403   2.029   4.364  0.2343 -0.0517 -0.3931
  953W        W 1950   3.732   3.784   0.469  0.2731  0.1185  0.2257
  954W        W 1951   2.054   4.770   0.600  0.1301  0.0217  0.0788
  955W        W 1952   1.198   3.461   5.245 -0.3790 -0.0541 -0.1273
  956W        W 1953   2.598   7.334   7.483  0.0380  0.2176 -0.3329
  957W        W 1954   5.438   0.189   6.571  0.0497 -0.1427  0.3582
  958W        W 1955   3.283   5.016   1.183  0.1412 -0.1798  0.4541
  959W        W 1956   7.307   1.708   0.544 -0.1488  0.2107 -0.1818
  960W        W 1957   2.130   4.467   2.563  0.0789 -0.1657 -0.0102
  961W        W 1958   5.261   5.126   6.136  0.1675  0.4122 -0.1936
  962W        W 1959   0.851   5.410   6.748 -0.3678 -0.1815  0.0230
  963W        W 1960   0.972   3.667   4.619 -0.0133  0.0211 -0.0468
  964W        W 1961   6.334   3.419   6.519 -0.0642 -0.0523 -0.1647
  965W        W 1962   4.888   5.563   3.205  0.1378  0.0232 -0.1223
  966W        W 1963   5.889   4.219   5.243  0.1327  0.0062 -0.0040
  967W        W 1964   5.067   1.863   6.394 -0.0327  0.0884  0.0346
  968W        W 1965   6.896   0.270   4.338  0.0158 -0.0998  0.1042
  969W        W 1966   0.066   0.401   0.595 -0.0968 -0.2614 -0.3096
  970W        W 1967   6.698   4.502   6.247 -0.1343 -0.0110 -0.2858
  971W        W 1968   7.323   4.810   5.927  0.0698  0.0461 -0.0912
  972W        W 1969   2.066   2.422   0.028  0.1368 -0.4432  0.1992
  973W        W 1970   3.709   4.221   6.170 -0.3744  0.0782  0.1196
  974W        W 1971   7.483   1.768   0.008  0.1897 -0.0048 -0.0615
  975W        W 1972   4.110   0.709   4.992  0.2287  0.0736  0.0613
  976W        W 1973   5.228   3.289   1.905  0.0383  0.1328 -0.0873
  977W        W 1974   6.578   1.084   1.041  0.2428 -0.1110 -0.0155
  978W        W 1975   3.261   5.189   6.664  0.2462  0.2976 -0.1360
  979W        W 1976   6.718   1.709   1.221  0.0712  0.0777 -0.0516
  980W        W 1977   5.955   1.558   4.605 -0.0839  0.3031 -0.4429
  981W        W 1978   3.837   1.884   3.191 -0.1240  0.1463 -0.2469
  982W        W 1979   4.641   3.064   7.352 -0.0183  0.2401  0.2423
  983W        W 1980   2.864   3.088   0.915  0.0846 -0.0276 -0.0120
  984W        W 1981   7.235   1.740   3.055  0.3446  0.0666  0.0230
  985W        W 1982   7.565   5.051   1.403 -0.0787 -0.1595  0.2152
  986W        W 1983   6.422   4.258   1.431  0.1157  0.2485 -0.1370
  987W        W 1984   3.898   2.891   2.226 -0.1740 -0.0726  0.3198
  988W        W 1985   5.224   0.412   3.970 -0.1626 -0.4120  0.1168
  989W        W 1986   2.068   7.012   5.645  0.0408  0.3382  0.0012
  990W        W 1987   5.014   4.368   6.890  0.1341 -0.0325  0.1485
  991W        W 1988   0.575   0.500   5.349  0.0432 -0.0546  0.1525
  992W        W 1989   0.367   1.619   1.268  0.0653  0.0345  0.0005
  993W        W 1990   4.382   5.586   7.237  0.0596  0.0423  0.0438
  994W        W 1991   4.116   7.522   5.395  0.2655 -0.1855 -0.0179
  995W        W 1992   6.714   2.616   1.502  0.1812 -0.1719  0.0849
  996W        W 1993   1.295   3.084   4.496  0.2355  0.0115 -0.2505
  997W        W 1994   6.992   1.988   0.922 -0.3580  0.0402  0.0943
  998W        W 1995   4.118   5.616   6.566 -0.0530  0.0968 -0.0874
  999W        W 1996   6.311   7.155   4.463  0.3881  0.1553  0.4007
 1000W        W 1997   6.119   4.327   4.651  0.0438  0.0791 -0.1269
 1001W        W 1998   6.369   6.312   5.428 -0.1471 -0.2923 -0.0190
 1002W        W 1999   4.691   3.077   1.824  0.0406  0.2283  0.0726
 1003W        W 2000   2.631   6.330   5.925  0.0901  0.1854  0.1169
 1004W        W 2001   2.489   1.947   0.455  0.0367 -0.0945 -0.1188
 1005W        W 2002   5.899   2.173   2.858 -0.2566 -0.2114  0.2542
 1006W        W 2003   7.628   3.470   7.305 -0.1357 -0.2661  0.0559
 1007W        W 2004   5.808   1.248   6.563  0.1348 -0.2566  0.1037
 1008W        W 2005   4.964   5.951   6.218 -0.2879 -0.0621  0.0476
 1009W        W 2006   3.565   5.633   0.696 -0.2056  0.1753  0.1341
 1010W        W 2007   4.869   0.635   7.437 -0.1455 -0.0280 -0.2330
 1011W        W 2008   4.692   2.029   1.790  0.3574  0.0075  0.2956
 1012W        W 2009   0.732   0.207   7.226  0.2069 -0.1024 -0.0143
 1013W        W 2010   0.385   4.688   6.747 -0.1792 -0.1064 -0.1072
 1014W        W 2011   5.384   2.335   4.124  0.0351  0.1459 -0.1751
 1015W        W 2012   6.794   3.723   4.339 -0.0760  0.1297  0.0837
 1016W        W 2013   6.282   0.689   6.376  0.0649  0.1350  0.1835
 1017W        W 2014   0.539   4.946   0.824 -0.2012 -0.0409 -0.1505
 1018W        W 2015   4.729   3.322   6.070  0.3576  0.1659  0.1694
 1019W        W 2016   7.105   3.207   6.239 -0.0105 -0.0265 -0.2010
 1020W        W 2017   3.980   3.878   3.814 -0.0096  0.0123 -0.0134
 1021W        W 2018   5.621   7.200   4.793 -0.2002 -0.1364  0.0955
 1022W        W 2019   2.998   7.412   6.060  0.3143 -0.4373 -0.1042
 1023W        W 2020   3.143   3.773   5.446 -0.0677  0.0494  0.6590
 1024W        W 2021   7.357   2.915   3.626  0.1518  0.0233 -0.0148
 1025W        W 2022   0.384   6.413   0.358 -0.2893 -0.2108  0.2893
 1026W        W 2023   1.990   3.011   5.274  0.0197 -0.0818  0.0623
 1027W        W 2024   7.484   1.860   6.751 -0.0618 -0.0745 -0.5021
 1028W        W 2025   1.386   3.575   4.178 -0.2200 -0.2011  0.0942
 1029W        W 2026   6.922   2.152   1.520  0.0433  0.2355 -0.1456
 1030W        W 2027   4.755   1.295   6.752 -0.0424  0.0728 -0.0371
 1031W        W 2028   0.399   3.291   6.739 -0.1529 -0.0518  0.0066
 1032W        W 2029   6.812   6.501   5.668  0.0002  0.0275 -0.2120
 1033W        W 2030   3.264   2.586   5.752 -0.0524 -0.0505 -0.0317
 1034W        W 2031   6.301   5.770   6.306  0.2163  0.1078  0.3008
 1035W        W 2032   3.407   5.760   3.244  0.2142 -0.1177  0.0447
 1036W        W 2033   6.701   2.637   2.962 -0.1778  0.2799  0.1153
 1037W        W 2034   7.325   1.134   0.323  0.0570  0.1065  0.0864
 1038W        W 2035   4.999   6.099   0.178 -0.1563 -0.2576 -0.4027
 1039W        W 2036   0.264   5.986   7.624 -0.2318  0.1403  0.1450
 1040W        W 2037   6.375   5.693   5.550  0.0712  0.1159  0.2424
 1041W        W 2038   1.808   4.041   7.195  0.1697  0.2917  0.1429
 1042W        W 2039   7.275   5.716   5.570 -0.2072  0.0194 -0.0474
 1043W        W 2040   1.878   0.320   5.520 -0.1373  0.0728 -0.0584
 1044W        W 2041   4.622   3.456   4.708 -0.1490  0.2673 -0.0780
 1045W        W 2042   0.275   4.315   4.785 -0.0186 -0.0774  0.0524
 1046W        W 2043   1.546   6.880   0.672 -0.5583  0.0162 -0.2536
 1047W        W 2044   2.372   3.960   2.904 -0.0905  0.1292  0.1746
 1048W        W 2045   1.623   2.542   0.937 -0.0869  0.1573 -0.2044
 1049W        W 2046   7.494   2.401   6.713  0.2994  0.1735 -0.1466
 1050W        W 2047   5.461   3.972   2.497 -0.1172  0.4503  0.0274
 1051W        W 2048   2.909   3.326   5.610 -0.2150 -0.0140  0.0298
 1052W        W 2049   0.904   2.153   4.888  0.1913 -0.0823  0.2521
 1053W        W 2050   2.641   2.231   1.178  0.1055  0.0250  0.0685
 1054W        W 2051   2.472   0.596   7.589 -0.3032  0.0337  0.0434
 1055W        W 2052   5.823   7.632   6.158  0.1087  0.0847 -0.0785
 1056W        W 2053   3.370   0.409   6.562 -0.1563  0.0900 -0.0160
 1057W        W 2054   1.242   3.167   7.150 -0.1254 -0.3237  0.0910
 1058W        W 2055   3.518   0.924   4.327 -0.0092  0.2673 -0.1881
 1059W        W 2056   1.580   6.623   0.164  0.0001  0.2185 -0.0662
 1060W        W 2057   4.494   7.396   5.703  0.2010 -0.1916 -0.1891
 1061W        W 2058   5.932   2.082   4.168  0.3294  0.2501  0.0185
 1062W        W 2059   2.475   3.585   7.573  0.1171  0.0726  0.2846
 1063W        W 2060   5.856   6.081   7.142 -0.0778 -0.0885  0.0876
 1064W        W 2061   6.107   6.077   1.752  0.0476  0.1682 -0.1587
 1065W        W 2062   5.107   1.955   4.978  0.2161  0.0045 -0.1199
 1066W        W 2063   0.277   5.187   0.460  0.1681  0.0079 -0.0282
 1067W        W 2064   6.605   4.549   0.365 -0.0311 -0.0221 -0.2398
 1068W        W 2065   0.803   0.153   0.612  0.1478 -0.3742 -0.0909
 1069W        W 2066   5.107   4.360   4.930  0.0471 -0.1346  0.0651
 1070W        W 2067   2.289   3.446   6.701 -0.1423 -0.2195 -0.0396
 1071W        W 2068   5.603   6.051   3.881 -0.0031 -0.2046  0.3859
 1072W        W 2069   4.973   0.105   5.656 -0.0207 -0.2562  0.1173
 1073W        W 2070   4.704   6.667   4.217  0.0434 -0.2110 -0.0680
 1074W        W 2071   4.102   6.247   4.837  0.3177 -0.0082  0.1004
 1075W        W 2072   2.138   4.192   0.850 -0.2682 -0.1943 -0.0026
 1076W        W 2073   7.077   4.924   1.463  0.1270  0.0458  0.2368
 1077W        W 2074   2.099   4.364   6.423 -0.0425 -0.0991 -0.2503
 1078W        W 2075   7.370   3.556   4.267  0.1485  0.2701 -0.0025
 1079W        W 2076   4.991   4.212   3.045  0.3636  0.2492 -0.1340
 1080W        W 2077   4.579   3.929   2.964 -0.1007 -0.0950 -0.0490
 1081W        W 2078   6.095   4.802   2.924  0.3327 -0.2311 -0.2356
 1082W        W 2079   1.726   0.466   0.380 -0.0766  0.2359 -0.1151
 1083W        W 2080   5.719   2.102   7.292 -0.1110 -0.1038  0.1432
 1084W        W 2081   3.696   5.114   3.388  0.0892 -0.1197  0.2183
 1085W        W 2082   6.813   4.145   2.457 -0.1284 -0.0311 -0.1773
 1086W        W 2083   1.868   2.309   1.908 -0.2549  0.3765 -0.1330
 1087W        W 2084   5.036   5.621   5.670 -0.1077 -0.0853 -0.1648
 1088W        W 2085   2.366   0.919   5.103 -0.0054 -0.0033  0.1228
 1089W        W 2086   4.735   2.682   3.068  0.1894 -0.4446  0.0052
 1090W        W 2087   1.866   5.245   3.124 -0.2167 -0.2679  0.0151
 1091W        W 2088   7.079   2.857   0.218 -0.2255 -0.0419  0.2692
 1092W        W 2089   6.976   5.811   5.111  0.2484 -0.0282  0.1591
 1093W        W 2090   5.043   2.800   6.484  0.2650 -0.0734  0.0071
 1094W        W 2091   3.692   6.054   6.733 -0.1013  0.0654 -0.0044
 1095W        W 2092   1.619   5.209   5.380 -0.1073 -0.1314  0.2408
 1096W        W 2093   6.210   4.816   4.579  0.0359 -0.1840  0.0940
 1097W        W 2094   4.535   2.649   0.017  0.3702 -0.1777  0.1924
 1098W        W 2095   1.996   2.375   3.110 -0.0125 -0.3063 -0.3439
 1099W        W 2096   1.589   2.774   6.783 -0.1188  0.2205 -0.0089
 1100W        W 2097   6.260   5.233   3.058 -0.3120 -0.0612 -0.0636
 1101W        W 2098   1.780   4.777   2.901  0.1832  0.0460  0.3546
 1102W        W 2099   3.931   5.513   3.155  0.1593 -0.2839  0.2029
 1103W        W 2100   3.274   5.189   2.535  0.0549  0.0243 -0.2841
 1104W        W 2101   5.711   2.979   6.052 -0.0106  0.2662 -0.1958
 1105W        W 2102   7.620   7.212   7.217 -0.2703  0.1397 -0.3919
 1106W        W 2103   6.342   5.018   5.014  0.1604 -0.0223  0.1548
 1107W        W 2104   0.888   4.528   2.495  0.0447  0.2625  0.0402
 1108W        W 2105   0.066   6.477   7.597 -0.0452  0.0520 -0.0353
 1109W        W 2106   2.671   3.394   2.204 -0.2107  0.1529  0.2451
 1110W        W 2107   4.308   5.587   0.374  0.0869  0.1230 -0.4782
 1111W        W 2108   5.060   1.475   5.032  0.3061 -0.4671  0.1656
 1112W        W 2109   5.999   3.875   3.068 -0.0840 -0.1787  0.2248
 1113W        W 2110   0.491   3.546   0.517 -0.1354  0.0967 -0.0753
 1114W        W 2111   2.615   4.316   1.626  0.2995 -0.0162  0.1771
 1115W        W 2112   6.354   2.909   3.289 -0.0052  0.1535  0.0481
 1116W        W 2113   2.859   4.963   0.109 -0.3333  0.2515  0.2253
 1117W        W 2114   1.586   3.014   2.309 -0.2385 -0.0787 -0.1035
 1118W        W 2115   4.185   5.513   1.288 -0.0599 -0.0659  0.1304
 1119W        W 2116   0.917   2.229   5.434 -0.0906 -0.0638 -0.1390
 1120W        W 2117   3.650   0.822   6.048  0.1386 -0.0641 -0.1337
 1121W        W 2118   7.059   1.256   1.292  0.0231 -0.1370  0.0345
 1122W        W 2119   1.504   2.086   5.582 -0.2189  0.2147  0.3490
 1123W        W 2120   4.254   0.836   7.542  0.1913 -0.6045  0.2385
 1124W        W 2121   4.884   0.221   6.781 -0.1053 -0.3733 -0.1235
 1125W        W 2122   5.468   7.170   6.014  0.1264 -0.0648  0.2420
 1126W        W 2123   6.617   3.198   6.160 -0.1971  0.3678 -0.0081
 1127W        W 2124   5.457   1.721   4.252 -0.1238 -0.0044  0.0200
 1128W        W 2125   4.784   2.426   0.447 -0.1069  0.1725  0.1530
 1129W        W 2126   2.062   1.641   6.264 -0.0811 -0.2290 -0.0054
 1130W        W 2127   6.459   1.303   2.656  0.1512  0.2373  0.0500
 1131W        W 2128   3.556   4.541   1.247 -0.3541 -0.1751  0.1847
 1132W        W 2129   4.768   6.298   7.426  0.2985  0.0500  0.1031
 1133W        W 2130   2.889   4.054   0.537  0.2932 -0.1539  0.0522
 1134W        W 2131   0.765   3.111   0.782  0.1627  0.1785  0.2587
 1135W        W 2132   0.243   4.740   1.213  0.1607 -0.0744 -0.2884
 1136W        W 2133   2.663   5.632   5.347 -0.0731  0.0676 -0.0937
 1137W        W 2134   2.184   6.042   7.377  0.0229  0.0276 -0.2656
 1138W        W 2135   4.581   1.549   1.187  0.0352  0.0322  0.0089
 1139W        W 2136   1.566   0.587   7.116 -0.2484  0.0766  0.0593
 1140W        W 2137   5.609   3.496   5.167  0.0160  0.3876 -0.1480
 1141W        W 2138   5.587   4.670   6.016 -0.1558  0.2359 -0.2949
 1142W        W 2139   4.532   5.647   0.907 -0.0399  0.0473 -0.1706
 1143W        W 2140   6.301   5.837   3.004 -0.0028 -0.0751  0.0774
 1144W        W 2141   3.984   6.421   0.561  0.0367  0.0282  0.1573
 1145W        W 2142   6.828   5.921   7.513 -0.1557 -0.1443  0.0116
 1146W        W 2143   4.028   4.388   6.507  0.0434 -0.0471 -0.0626
 1147W        W 2144   3.031   2.624   4.535  0.0353 -0.2348 -0.1856
 1148W        W 2145   5.979   3.797   4.802 -0.0244  0.0183 -0.2329
 1149W        W 2146   0.740   3.629   2.708  0.1086 -0.3470  0.0269
 1150W        W 2147   3.745   3.306   0.061 -0.0841 -0.0763 -0.3099
 1151W        W 2148   1.978   6.217   5.072  0.0275  0.0808 -0.0340
 1152W        W 2149   4.920   3.701   5.687  0.1877 -0.3385 -0.1948
 1153W        W 2150   1.470   4.862   7.283 -0.0633  0.5583  0.0530
 1154W        W 2151   0.010   5.567   7.226  0.0233 -0.3419  0.1828
 1155W        W 2152   0.724   7.387   0.118  0.1193 -0.3540  0.0021
 1156W        W 2153   6.035   2.041   4.668 -0.0948 -0.0730  0.2429
 1157W        W 2154   6.545   6.766   4.654  0.1737 -0.0796 -0.0846
 1158W        W 2155   3.694   2.343   0.030  0.6779 -0.1743  0.0840
 1159W        W 2156   5.632   4.366   4.764 -0.0042 -0.1582 -0.1442
 1160W        W 2157   6.960   0.460   4.805 -0.0503  0.1556 -0.2849
 1161W        W 2158   0.232   3.818   6.470  0.0223 -0.3000  0.4885
 1162W        W 2159   4.926   2.162   3.350  0.1398 -0.1141  0.0548
 1163W        W 2160   1.286   4.479   5.981  0.0861 -0.0595  0.2166
 1164W        W 2161   2.494   1.802   3.987 -0.2352  0.0315 -0.0842
 1165W        W 2162   5.068   1.003   5.918  0.0644  0.2743  0.0424
 1166W        W 2163   1.603   4.159   0.010  0.0604 -0.1512  0.3125
 1167W        W 2164   5.332   4.796   4.693  0.0516  0.2568  0.0670
 1168W        W 2165   0.802   1.266   3.247  0.0831 -0.1522  0.1739
 1169W        W 2166   1.785   2.570   5.833 -0.1482  0.0584 -0.0049
 1170W        W 2167   1.684   3.733   1.614 -0.4158 -0.2594 -0.2158
 1171W        W 2168   5.423   6.145   6.325  0.0089  0.2825 -0.0657
 1172W        W 2169   5.345   4.068   0.288  0.2745  0.0147 -0.0460
 1173W        W 2170   3.817   0.268   6.996 -0.1515 -0.0206  0.0912
 1174W        W 2171   3.690   5.222   5.741  0.0661  0.1328 -0.3371
 1175W        W 2172   6.428   2.212   2.779 -0.0702 -0.1062  0.2212
 1176W        W 2173   4.036   3.643   7.120 -0.0473 -0.1802 -0.0796
 1177W        W 2174   5.282   7.511   5.076  0.0359 -0.2391 -0.2013
 1178W        W 2175   0.366   5.758   6.676  0.1344  0.2821 -0.0130
 1179W        W 2176   4.415   5.807   3.166  0.0542 -0.0063  0.2257
 1180W        W 2177   7.487   2.717   6.234 -0.1579 -0.1112  0.1512
 1181W        W 2178   5.853   5.205   2.746  0.3187 -0.1724 -0.1697
 1182W        W 2179   1.091   2.784   0.980 -0.2516  0.1130  0.0767
 1183W        W 2180   5.286   1.010   2.574 -0.0005 -0.0436 -0.1434
 1184W        W 2181   7.373   5.901   6.649  0.1319 -0.1493  0.2017
 1185W        W 2182   7.627   3.757   3.518  0.1715 -0.0369 -0.3867
 1186W        W 2183   2.552   2.940   3.153  0.3473  0.0078  0.2753
 1187W        W 2184   1.340   1.244   6.195 -0.1400  0.0671  0.0107
 1188W        W 2185   0.866   5.443   2.137 -0.0379 -0.1551 -0.2469
 1189W        W 2186   3.498   7.336   5.958  0.3050 -0.0615  0.0730
 1190W        W 2187   2.399   6.259   0.663 -0.0268 -0.0171 -0.2195
 1191W        W 2188   3.858   5.552   5.350 -0.1437 -0.1093 -0.0632
 1192W        W 2189   2.233   3.867   1.559  0.0835 -0.1361  0.2265
 1193W        W 2190   6.854   3.015   3.529  0.0377 -0.1952 -0.1511
 1194W        W 2191   0.737   1.626   1.741  0.2257 -0.2888 -0.1585
 1195W        W 2192   5.929   1.552   7.383 -0.2900  0.0594  0.1564
 1196W        W 2193   3.363   0.931   6.540 -0.1940  0.0701 -0.0895
 1197W        W 2194   5.438   3.971   3.131  0.3041 -0.0642  0.2964
 1198W        W 2195   0.173   2.785   6.683  0.2715  0.0962  0.0982
 1199W        W 2196   7.419   2.154   1.104 -0.2820 -0.1350 -0.0024
 1200W        W 2197   1.643   2.446   2.766  0.1299  0.0556 -0.0948
 1201W        W 2198   1.905   4.158   6.005  0.1110 -0.4801  0.0407
 1202W        W 2199   3.211   1.014   1.185 -0.1278  0.0920 -0.0054
 1203W        W 2200   3.969   1.080   4.180 -0.0927  0.1059  0.1902
 1204W        W 2201   1.051   6.478   7.125 -0.0208 -0.0478  0.1828
 1205W        W 2202   0.364   3.719   7.060  0.2524  0.0902 -0.1905
 1206W        W 2203   3.774   0.677   7.454  0.1339  0.3111 -0.0019
 1207W        W 2204   0.115   3.146   5.520 -0.0359  0.0828  0.1257
 1208W        W 2205   0.738   1.794   6.569 -0.0082 -0.0063 -0.0444
 1209W        W 2206   7.622   5.243   6.025 -0.0335 -0.0772 -0.2108
 1210W        W 2207   5.028   0.440   6.346  0.3221 -0.1788  0.0133
 1211W        W 2208   3.979   3.611   1.739 -0.3458  0.0755 -0.3051
 1212W        W 2209   0.545   6.292   6.999  0.0334 -0.0648  0.2136
 1213W        W 2210   5.262   4.231   6.403  0.0250  0.0098 -0.0173
 1214W        W 2211   5.596   2.022   3.788 -0.1630 -0.1660 -0.0133
 1215W        W 2212   2.810   4.214   3.621 -0.0775  0.0369  0.0807
 1216W        W 2213   4.884   3.104   1.088 -0.1625 -0.1575  0.3867
 1217W        W 2214   5.532   7.351   0.184  0.0506 -0.1213  0.4045
 1218W        W 2215   1.955   3.708   2.046  0.0233 -0.1156 -0.1013
 1219W        W 2216   3.240   5.825   3.722 -0.2751  0.1464 -0.0293
 1220W        W 2217   6.438   0.080   5.246  0.1539  0.0984  0.1412
 1221W        W 2218   3.158   1.641   3.895  0.3019  0.1764 -0.1173
 1222W        W 2219   0.509   5.895   5.832  0.1112  0.1341  0.1430
 1223W        W 2220   4.962   6.564   0.437  0.3171 -0.2624  0.3428
 1224W        W 2221   6.794   2.914   0.889  0.2421 -0.1845  0.2549
 1225W        W 2222   3.017   4.696   7.253  0.0366 -0.0278 -0.1362
 1226W        W 2223   3.148   1.991   1.949  0.0366  0.0553  0.2371
 1227W        W 2224   3.173   1.277   4.258 -0.1807  0.0850 -0.0371
 1228W        W 2225   0.547   2.057   7.112  0.0564  0.0521 -0.1044
 1229W        W 2226   7.495   3.963   7.161 -0.0576  0.0262 -0.3190
 1230W        W 2227   4.017   7.594   0.541  0.1292  0.0583  0.0991
 1231W        W 2228   2.950   2.752   0.045  0.0671 -0.0884  0.2375
 1232W        W 2229   0.646   5.182   1.275  0.0748 -0.0183 -0.0618
 1233W        W 2230   5.562   6.143   0.152  0.2106  0.1089  0.0306
 1234W        W 2231   4.958   2.087   3.927  0.1356  0.0928 -0.1170
 1235W        W 2232   4.641   6.007   5.769 -0.1028 -0.3510  0.0624
 1236W        W 2233   4.308   1.320   3.890  0.1336 -0.0707 -0.0999
 1237W        W 2234   6.602   6.092   5.994 -0.2080 -0.0727 -0.0591
 1238W        W 2235   6.737   3.047   6.658 -0.0955 -0.1741  0.2042
 1239W        W 2236   0.829   4.685   1.233  0.0590 -0.0232 -0.1462
 1240W        W 2237   4.744   2.584   3.744  0.0552  0.3796 -0.0303
 1241W        W 2238   3.734   5.920   4.630  0.0418 -0.1270 -0.2411
 1242W        W 2239   6.147   4.385   0.234 -0.0060 -0.1683  0.0450
 1243W        W 2240   6.666   2.404   0.698 -0.1347  0.1130 -0.3108
 1244W        W 2241   4.730   0.568   3.685  0.0665 -0.0436  0.0649
 1245W        W 2242   4.275   2.481   0.442  0.2543 -0.1173 -0.0341
 1246W        W 2243   7.607   1.867   4.004  0.3143  0.1060  0.0744
 1247W        W 2244   2.749   4.662   4.431  0.2510 -0.1885  0.0986
 1248W        W 2245   4.432   4.485   4.539  0.0064 -0.2989  0.0994
 1249W        W 2246   2.220   3.403   5.014  0.1123 -0.1332 -0.3456
 1250W        W 2247   4.634   2.851   4.149  0.2028  0.0582  0.0048
 1251W        W 2248   4.563   4.627   5.857 -0.1234 -0.2934 -0.1050
 1252W        W 2249   3.251   0.544   5.753  0.1476  0.0504  0.0486
 1253W        W 2250   1.208   7.386   5.636 -0.0412 -0.1060  0.0311
 1254W        W 2251   1.940   4.274   4.100  0.0952  0.0484  0.1062
 1255W        W 2252   0.863   2.596   1.989 -0.0862 -0.1109 -0.1260
 1256W        W 2253   2.890   6.775   5.038  0.2259  0.0688  0.0409
 1257W        W 2254   7.332   1.945   5.776  0.1353 -0.1358  0.0717
 1258W        W 2255   5.498   2.990   2.380  0.1774  0.1854  0.2370
 1259W        W 2256   0.268   1.738   1.791 -0.2629  0.1631 -0.2417
 1260W        W 2257   2.288   1.023   5.822  0.0754  0.2351  0.0061
 1261W        W 2258   1.344   5.202   1.878 -0.2461 -0.2315 -0.3216
 1262W        W 2259   2.259   2.712   2.785 -0.2644 -0.2174 -0.0961
 1263W        W 2260   3.541   4.564   6.459  0.0440  0.1493  0.0294
 1264W        W 2261   3.704   3.303   0.674  0.0795  0.2941  0.2408
 1265W        W 2262   0.144   6.877   0.303 -0.0608 -0.4651  0.0840
 1266W        W 2263   0.114   1.401   2.140 -0.2073  0.4014 -0.1715
 1267W        W 2264   0.360   4.390   4.283  0.1033 -0.0369 -0.5782
 1268W        W 2265   0.128   5.898   0.481  0.1222 -0.0761  0.1471
 1269W        W 2266   5.142   2.913   5.935  0.2633  0.1588  0.1489
 1270W        W 2267   6.766   0.096   6.277 -0.2612  0.1397 -0.0704
 1271W        W 2268   6.555   5.598   2.602 -0.2298 -0.0699 -0.0513
 1272W        W 2269   2.068   5.913   0.518  0.1592 -0.2251  0.1942
 1273W        W 2270   6.647   5.354   6.473  0.4272 -0.0004  0.4084
 1274W        W 2271   0.564   0.396   4.284  0.2258  0.1473  0.1212
 1275W        W 2272   3.629   2.868   0.876  0.0394 -0.0258  0.4080
 1276W        W 2273   0.540   3.450   3.372 -0.1097 -0.0289 -0.4421
 1277W        W 2274   0.350   4.447   3.622  0.0545  0.0221 -0.0818
 1278W        W 2275   2.256   4.683   1.870 -0.2428 -0.3539  0.4919
 1279W        W 2276   7.020   4.828   0.039  0.0626  0.2540  0.1661
 1280W        W 2277   6.602   5.469   5.046  0.3686 -0.4177  0.0534
 1281W        W 2278   6.762   0.299   6.892  0.1358 -0.1121  0.0747
 1282W        W 2279   4.038   6.205   0.126  0.0148 -0.1243  0.0570
 1283W        W 2280   1.773   2.786   0.242  0.0740 -0.1762  0.0033
 1284W        W 2281   5.239   5.700   5.229 -0.0453 -0.0711  0.0506
 1285W        W 2282   3.875   1.360   2.508 -0.1867  0.0261  0.1069
 1286W        W 2283   0.296   1.697   2.492  0.0412 -0.0256 -0.1005
 1287W        W 2284   3.373   5.327   3.086 -0.0530 -0.0063 -0.3127
 1288W        W 2285   0.777   6.309   5.755 -0.0435 -0.2377 -0.0403
 1289W        W 2286   7.193   2.085   3.475 -0.0192  0.1221 -0.0113
 1290W        W 2287   3.200   3.973   6.898  0.0785 -0.0584  0.0036
 1291W        W 2288   7.516   4.128   0.511 -0.0044  0.1373  0.1649
 1292W        W 2289   6.227   4.373   6.928 -0.2360  0.0415  0.2892
 1293W        W 2290   4.771   1.300   0.548 -0.2298  0.1850  0.0152
 1294W        W 2291   3.428   3.554   4.484  0.1769 -0.1088  0.0135
 1295W        W 2292   7.385   6.949   6.883  0.1900 -0.1310 -0.0615
 1296W        W 2293   4.063   1.800   5.088 -0.2063 -0.2263 -0.5893
 1297W        W 2294   0.529   4.834   2.606  0.3055 -0.1079  0.1094
 1298W        W 2295   2.260   5.503   4.458  0.1653  0.6521 -0.0446
 1299W        W 2296   4.879   0.756   4.118 -0.2395  0.0330 -0.1203
 1300W        W 2297   6.171   6.644   5.049 -0.0528 -0.4470  0.1021
 1301W        W 2298   2.223   4.228   2.004  0.0272 -0.1651 -0.2076
 1302W        W 2299   3.041   1.118   0.711  0.0144  0.0796  0.0257
 1303W        W 2300   4.551   2.060   3.646  0.0577 -0.0368 -0.0430
 1304W        W 2301   3.490   6.860   5.538 -0.1196 -0.0929  0.1146
 1305W        W 2302   3.186   3.301   2.165 -0.1033 -0.0607  0.2413
 1306W        W 2303   2.672   4.484   0.086  0.0347 -0.1510 -0.3044
 1307W        W 2304   5.707   4.797   1.784  0.0399 -0.2234 -0.1001
 1308W        W 2305   0.415   5.435   7.482  0.0440  0.0035  0.2465
 1309W        W 2306   0.959   2.840   5.251  0.2395  0.2141  0.2220
 1310W        W 2307   5.775   5.788   6.343  0.0087 -0.2273  0.1216
 1311W        W 2308   6.641   2.355   4.097  0.0982  0.1712  0.2525
 1312W        W 2309   2.380   1.255   1.506 -0.1124 -0.1019 -0.0327
 1313W        W 2310   3.886   3.308   5.438 -0.1094  0.0168  0.2286
 1314W        W 2311   5.153   2.448   4.565  0.1971  0.1962 -0.1397
 1315W        W 2312   1.746   3.899   4.382  0.1864 -0.4082 -0.2020
 1316W        W 2313   0.864   6.157   0.424 -0.2913 -0.0677  0.1852
 1317W        W 2314   6.829   1.647   1.900 -0.1064  0.0074  0.1217
 1318W        W 2315   6.833   5.534   1.862 -0.1959  0.1106 -0.0352
 1319W        W 2316   3.509   2.866   7.594  0.2176  0.1662  0.0607
 1320W        W 2317   4.464   0.325   7.330 -0.3133  0.0412 -0.1952
 1321W        W 2318   2.952   4.323   4.753  0.3547 -0.0806  0.1447
 1322W        W 2319   5.413   5.206   4.434  0.1456 -0.0397 -0.1225
 1323W        W 2320   6.091   3.785   5.303  0.1201 -0.0554  0.0405
 1324W        W 2321   4.358   5.332   4.009 -0.1371 -0.2947  0.1295
 1325W        W 2322   7.635   3.533   0.443  0.1659 -0.0344  0.0769
 1326W        W 2323   7.324   1.182   0.847  0.3873  0.2708  0.3471
 1327W        W 2324   2.009   2.698   7.258  0.1342 -0.3032 -0.1943
 1328W        W 2325   0.976   7.284   4.542  0.0045 -0.2015 -0.1354
 1329W        W 2326   5.412   3.484   3.304  0.2067  0.1369  0.0812
 1330W        W 2327   2.986   1.145   5.114  0.0146 -0.1788  0.4516
 1331W        W 2328   4.787   4.063   4.401 -0.0201 -0.0933  0.1974
 1332W        W 2329   1.669   1.212   2.773 -0.0296 -0.2384 -0.0303
 1333W        W 2330   5.046   1.227   3.400  0.0862 -0.1306 -0.0795
 1334W        W 2331   1.742   1.408   3.650 -0.3109  0.1142 -0.1101
 1335W        W 2332   3.713   4.714   6.893 -0.0061  0.1099 -0.2649
 1336W        W 2333   2.694   3.790   7.194 -0.0736  0.1443 -0.1154
 1337W        W 2334   3.659   0.831   6.991  0.0253 -0.3039 -0.2450
 1338W        W 2335   3.521   5.605   6.545  0.0701 -0.1495 -0.0706
 1339W        W 2336   3.630   3.606   5.754 -0.0234 -0.3334  0.0451
 1340W        W 2337   1.684   5.621   0.274 -0.3791  0.0420  0.2458
 1341W        W 2338   2.100   1.161   0.732  0.0204 -0.0342 -0.0046
 1342W        W 2339   4.460   0.228   0.677  0.1631  0.0231 -0.0563
 1343W        W 2340   4.035   1.162   0.730 -0.0787  0.0470  0.0170
 1344W        W 2341   1.682   3.005   0.674  0.0657  0.1307 -0.0459
 1345W        W 2342   7.067   0.118   5.774  0.0535 -0.0302  0.4743
 1346W        W 2343   6.213   2.379   7.635  0.0805  0.1439 -0.2681
 1347W        W 2344   4.587   2.105   2.283 -0.3122 -0.0604 -0.0916
 1348W        W 2345   4.382   1.191   3.282 -0.1524 -0.3238 -0.3201
 1349W        W 2346   6.992   7.492   4.164 -0.1824  0.0182 -0.1147
 1350W        W 2347   5.209   3.775   4.238  0.1884  0.1655  0.2461
 1351W        W 2348   5.420   6.055   4.314 -0.0204  0.0055  0.0901
 1352W        W 2349   1.219   3.328   7.632 -0.3108  0.1341  0.1357
 1353W        W 2350   4.130   0.654   7.096  0.1580  0.0577 -0.2511
 1354W        W 2351   5.327   1.380   2.966 -0.3293  0.1151 -0.0719
 1355W        W 2352   1.102   7.467   0.412  0.1064  0.1817  0.1494
 1356W        W 2353   2.120   1.364   2.118 -0.0383  0.0490 -0.2769
 1357W        W 2354   1.805   4.657   3.364  0.0045  0.2077 -0.0568
 1358W        W 2355   7.513   2.899   7.548 -0.2173 -0.1933 -0.0293
 1359W        W 2356   5.043   3.338   7.522  0.1749  0.0508 -0.1069
 1360W        W 2357   3.656   4.305   3.790 -0.0597 -0.1161  0.1250
 1361W        W 2358   2.796   4.579   3.904 -0.1475  0.3995 -0.0566
 1362W        W 2359   7.333   0.576   5.850 -0.0446 -0.1622 -0.2079
 1363W        W 2360   2.565   3.889   4.792  0.1002  0.1058  0.2165
 1364W        W 2361   1.208   4.851   5.115 -0.4475  0.2393 -0.0926
 1365W        W 2362   6.085   0.793   3.455  0.0468  0.1151  0.2267
 1366W        W 2363   3.272   5.565   0.308  0.2441 -0.2700 -0.0013
 1367W        W 2364   2.173   3.698   7.174 -0.2263 -0.0773 -0.1779
 1368W        W 2365   3.829   3.832   4.286 -0.0228  0.0103 -0.2809
 1369W        W 2366   0.585   4.433   0.750  0.1022 -0.0293  0.0475
 1370W        W 2367   6.403   5.179   4.174  0.2401  0.0713  0.2618
 1371W        W 2368   6.177   5.516   3.548  0.2016 -0.0441 -0.1062
 1372W        W 2369   0.249   1.628   6.494  0.2902 -0.1541 -0.0814
 1373W        W 2370   5.382   2.852   4.651 -0.2590  0.0779  0.2774
 1374W        W 2371   5.709   6.523   4.998 -0.0055 -0.0700 -0.1458
 1375W        W 2372   7.087   4.551   3.313 -0.2312 -0.1087 -0.2095
 1376W        W 2373   2.768   4.801   5.582 -0.3008  0.3850 -0.2451
 1377W        W 2374   7.074   4.395   3.819 -0.1773 -0.1030 -0.0074
 1378W        W 2375   7.051   7.591   4.691  0.1094  0.1444  0.4096
 1379W        W 2376   3.248   5.611   5.385  0.2573 -0.1090 -0.1134
 1380W        W 2377   3.929   2.877   0.389 -0.0536  0.0263  0.3214
 1381W        W 2378   4.571   2.620   5.024  0.0910 -0.1684 -0.1283
 1382W        W 2379   1.192   0.381   0.318 -0.2968 -0.0496 -0.0244
 1383W        W 2380   4.028   5.178   2.147 -0.0271  0.1561 -0.2478
 1384W        W 2381   5.260   7.613   6.182 -0.2285  0.3229 -0.2043
 1385W        W 2382   2.718   3.673   5.220  0.1024  0.1007  0.2189
 1386W        W 2383   5.461   4.949   5.609 -0.0134 -0.0845 -0.4881
 1387W        W 2384   6.418   0.917   4.631 -0.1759  0.0410  0.1846
 1388W        W 2385   1.820   1.858   3.530  0.0421 -0.0747 -0.0654
 1389W        W 2386   7.299   0.814   1.424  0.0642 -0.0990 -0.1990
 1390W        W 2387   4.546   0.821   2.241  0.2076 -0.0862  0.0468
 1391W        W 2388   5.815   5.042   4.769 -0.0703  0.1688 -0.2109
 1392W        W 2389   0.424   5.667   4.936  0.1135  0.0238  0.2140
 1393W        W 2390   1.267   6.027   6.355  0.0550  0.1563 -0.1726
 1394W        W 2391   7.212   1.759   5.325 -0.2383 -0.2131  0.2490
 1395W        W 2392   1.327   5.251   5.800 -0.3645 -0.0310  0.0136
 1396W        W 2393   1.670   7.345   5.155 -0.1572  0.0467  0.0165
 1397W        W 2394   0.940   0.633   0.726  0.1019  0.0175  0.1416
 1398W        W 2395   1.356   4.378   2.415 -0.0817  0.3020 -0.2804
 1399W        W 2396   6.858   1.156   3.135 -0.2189  0.1484  0.0932
 1400W        W 2397   1.455   6.341   7.376  0.0830  0.0438 -0.1354
 1401W        W 2398   1.833   3.455   0.796  0.1659  0.1215 -0.1501
 1402W        W 2399   1.117   2.646   4.821  0.2889 -0.1867 -0.1968
 1403W        W 2400   5.882   5.967   5.759 -0.2859 -0.0317 -0.0694
 1404W        W 2401   7.246   3.217   5.389 -0.0059  0.1300 -0.1358
 1405W        W 2402   5.195   0.128   4.498  0.3023 -0.1232 -0.0715
 1406W        W 2403   3.241   4.991   5.715  0.1351  0.0929 -0.1353
 1407W        W 2404   7.385   5.698   6.121 -0.0353 -0.0744 -0.1660
 1408W        W 2405   6.948   5.596   0.779  0.1029  0.3629  0.1010
 1409W        W 2406   6.829   3.548   3.717  0.1727  0.1725  0.1224
 1410W        W 2407   0.137   2.052   5.714  0.0072 -0.2639 -0.1429
 1411W        W 2408   3.722   1.645   3.681 -0.0511 -0.1989  0.1059
 1412W        W 2409   0.461   1.320   6.159  0.3528  0.1100 -0.0995
 1413W        W 2410   1.566   2.316   6.644  0.1723  0.5766  0.0320
 1414W        W 2411   2.102   7.399   7.189 -0.2177 -0.1142  0.0687
 1415W        W 2412   2.039   5.393   6.622 -0.1007 -0.1772 -0.0294
 1416W        W 2413   6.216   2.534   4.157  0.2325  0.0194  0.0520
 1417W        W 2414   2.328   5.991   4.667  0.0032 -0.1941  0.2091
 1418W        W 2415   4.955   3.033   2.232 -0.0288  0.0646 -0.1106
 1419W        W 2416   1.702   0.275   6.141  0.1767  0.1162  0.0623
 1420W        W 2417   0.021   6.151   7.147 -0.0728  0.3426  0.0056
 1421W        W 2418   2.700   3.338   6.911  0.0321 -0.0126  0.0883
 1422W        W 2419   6.511   5.767   0.895 -0.3868  0.0307  0.1031
 1423W        W 2420   1.643   3.408   3.668 -0.2927 -0.2105  0.0973
 1424W        W 2421   6.278   5.154   7.352 -0.2384  0.0934 -0.1372
 1425W        W 2422   6.133   4.747   3.384 -0.0769 -0.3440  0.1274
 1426W        W 2423   3.526   5.110   6.243  0.2653  0.1571  0.3646
 1427W        W 2424   0.415   1.089   7.249  0.3136 -0.4672  0.1943
 1428W        W 2425   2.396   4.280   6.039  0.2053 -0.0405  0.1908
 1429W        W 2426   1.472   6.854   7.374  0.3006  0.1095  0.0835
 1430W        W 2427   2.244   6.638   5.908 -0.1593  0.3018 -0.0749
 1431W        W 2428   2.594   0.852   3.795 -0.1628 -0.4892 -0.2604
 1432W        W 2429   3.810   0.655   3.250  0.3317  0.0511  0.1775
 1433W        W 2430   1.013   1.585   0.179  0.3224 -0.0454 -0.2456
 1434W        W 2431   6.339   2.750   6.098 -0.3649  0.1721  0.3242
 1435W        W 2432   0.194   5.889   6.231 -0.3882  0.3043  0.1973
 1436W        W 2433   1.792   1.676   0.831 -0.0904  0.0064  0.3031
 1437W        W 2434   6.641   5.703   4.566  0.0441  0.2776 -0.2047
 1438W        W 2435   4.333   3.468   6.441  0.2096 -0.0183 -0.3243
 1439W        W 2436   1.302   2.440   1.883 -0.0772  0.1125  0.0721
 1440W        W 2437   5.596   3.489   2.331  0.0035  0.2969 -0.1297
 1441W        W 2438   3.333   4.012   5.980 -0.2423  0.3156  0.0385
 1442W        W 2439   6.821   0.998   0.555 -0.3400  0.0410 -0.0054
 1443W        W 2440   5.609   3.050   1.492  0.0090  0.2761  0.0294
 1444W        W 2441   6.168   1.338   1.256 -0.1962  0.0564 -0.1376
 1445W        W 2442   6.053   6.760   7.001 -0.1766 -0.2955  0.2979
 1446W        W 2443   0.016   6.030   5.793  0.3206  0.3493 -0.0998
 1447W        W 2444   1.909   4.239   3.593  0.1122  0.3394  0.0011
 1448W        W 2445   5.738   5.118   7.124  0.0810 -0.4153  0.0652
 1449W        W 2446   6.901   3.638   0.175 -0.3359 -0.1800 -0.1049
 1450W        W 2447   5.581   2.139   6.465 -0.0801 -0.2072  0.0567
 1451W        W 2448   6.811   1.766   7.142  0.0522 -0.1174  0.0766
 1452W        W 2449   4.866   6.519   4.975  0.2303  0.0431 -0.2518
 1453W        W 2450   4.793   6.790   7.606 -0.1767  0.0009 -0.1677
 1454W        W 2451   2.445   0.479   6.463  0.1939  0.3603 -0.1792
 1455W        W 2452   1.738   1.349   6.516  0.0995  0.0658 -0.1931
 1456W        W 2453   7.420   3.561   1.871  0.0745  0.0483 -0.1861
 1457W        W 2454   6.784   2.374   0.239 -0.0213 -0.1579  0.1355
 1458W        W 2455   1.164   1.319   2.871  0.0463  0.1546 -0.0096
 1459W        W 2456   0.581   1.682   2.934 -0.0504 -0.0319 -0.2234
 1460W        W 2457   2.497   1.240   6.989  0.0349  0.0386  0.1655
 1461W        W 2458   3.965   3.991   2.935 -0.3486 -0.0371 -0.4033
 1462W        W 2459   7.348   3.696   5.309 -0.0337 -0.0303  0.2645
 1463W        W 2460   4.086   2.592   0.961 -0.0602  0.0521  0.1171
 1464W        W 2461   0.758   2.178   2.912 -0.0688  0.0908  0.0194
 1465W        W 2462   6.417   1.819   4.251  0.2359 -0.0971 -0.2958
 1466W        W 2463   2.038   3.522   1.290  0.0162  0.1820  0.2721
 1467W        W 2464   7.360   7.463   6.852  0.0337  0.0268 -0.2118
 1468W        W 2465   2.650   1.259   5.990  0.5251 -0.3459  0.0127
 1469W        W 2466   2.644   3.119   0.376  0.1528  0.1700 -0.0187
 1470W        W 2467   0.264   1.507   7.518  0.1891  0.0561  0.1369
 1471W        W 2468   0.223   2.363   4.804 -0.0923 -0.1669  0.3368
 1472W        W 2469   0.516   6.077   0.827 -0.0659 -0.0355 -0.1881
 1473W        W 2470   1.755   3.238   1.567  0.1370 -0.2381 -0.1300
 1474W        W 2471   1.292   5.294   2.368 -0.1604  0.0082  0.5456
 1475W        W 2472   0.508   3.366   4.654 -0.0720 -0.1512 -0.1617
 1476W        W 2473   2.422   2.463   6.471 -0.1389  0.0435 -0.2263
 1477W        W 2474   2.521   5.823   5.877 -0.1306  0.1304  0.1241
 1478W        W 2475   1.676   2.086   1.181  0.2439  0.1168 -0.3460
 1479W        W 2476   1.304   0.246   5.825 -0.1477 -0.3024 -0.3801
 1480W        W 2477   5.523   3.727   4.642 -0.1177 -0.1536  0.1414
 1481W        W 2478   4.418   6.481   0.067 -0.0619 -0.3720 -0.0330
 1482W        W 2479   5.468   1.912   1.458 -0.2138 -0.1044 -0.4662
 1483W        W 2480   1.277   4.362   5.161 -0.1737  0.1624 -0.0892
 1484W        W 2481   4.334   4.672   0.234 -0.1683 -0.1558 -0.3216
 1485W        W 2482   3.580   3.397   4.943 -0.0958 -0.3454 -0.2421
 1486W        W 2483   1.437   4.391   1.939  0.3380 -0.0006  0.0973
 1487W        W 2484   0.689   3.963   1.580 -0.0407  0.0586 -0.1099
 1488W        W 2485   2.313   6.067   6.259 -0.1992 -0.0262  0.0740
 1489W        W 2486   4.324   0.946   4.544 -0.1634  0.1581 -0.1284
 1490W        W 2487   1.794   6.326   0.572  0.2963 -0.4614  0.1200
 1491W        W 2488   1.052   3.051   5.690 -0.0799 -0.3150 -0.0784
 1492W        W 2489   2.012   4.984   1.355  0.0053 -0.0212 -0.3460
 1493W        W 2490   2.469   7.028   5.392  0.0540  0.0782  0.5258
 1494W        W 2491   1.578   6.989   5.537 -0.0507  0.0428  0.1058
 1495W        W 2492   0.930   0.842   3.463 -0.0368 -0.0821  0.2242
 1496W        W 2493   5.512   1.003   6.918 -0.1361 -0.0896  0.0666
 1497W        W 2494   5.872   2.619   1.954  0.2405  0.3795 -0.1116
 1498W        W 2495   2.427   2.916   7.583 -0.0321  0.1130  0.1230
 1499W        W 2496   4.247   2.250   7.638 -0.0994  0.1127 -0.0916
 1500W        W 2497   6.670   5.201   1.538  0.2593  0.2673  0.1703
 1501W        W 2498   0.700   6.806   0.265  0.0165 -0.2296 -0.0205
 1502W        W 2499   3.596   0.234   6.140  0.0685 -0.1322 -0.1655
 1503W        W 2500   1.448   6.540   6.344 -0.0745 -0.2113  0.0384
 1504W        W 2501   2.234   7.397   5.196 -0.0747 -0.1003  0.1344
 1505W        W 2502   4.560   4.347   0.508  0.0887  0.1635  0.3409
 1506W        W 2503   5.772   3.198   1.980 -0.3206 -0.1932 -0.1782
 1507W        W 2504   6.551   6.948   5.602  0.0977  0.1122  0.2785
 1508W        W 2505   7.126   2.216   7.020 -0.0910  0.1499 -0.2581
 1509W        W 2506   2.953   1.431   2.255  0.1282  0.0764 -0.1978
 1510W        W 2507   7.099   1.211   7.296  0.0829 -0.1097  0.2275
 1511W        W 2508   2.876   6.090   5.500 -0.1644  0.1238 -0.4263
 1512W        W 2509   6.109   2.726   1.548 -0.0767 -0.3213 -0.0431
 1513W        W 2510   1.037   7.402   6.998  0.1465 -0.1337 -0.1947
 1514W        W 2511   6.457   3.894   6.568 -0.2061  0.3275 -0.0178
 1515W        W 2512   1.539   7.300   6.867 -0.1331  0.2235 -0.0840
 1516W        W 2513   3.014   1.641   6.104 -0.1401  0.0905  0.0669
 1517W        W 2514   0.580   2.897   6.412  0.0931  0.1210 -0.2215
 1518W        W 2515   1.305   1.016   7.259 -0.2842  0.0809 -0.2174
 1519W        W 2516   0.309   2.131   6.655 -0.0913  0.0454  0.0649
 1520W        W 2517   4.395   5.631   2.303 -0.1303  0.1127  0.1335
 1521W        W 2518   1.055   0.683   6.537  0.0591 -0.1296 -0.2186
 1522W        W 2519   4.902   2.414   0.986 -0.0161 -0.0988  0.2431
 1523W        W 2520   3.642   4.106   6.661 -0.0074 -0.3529  0.1585
 1524W        W 2521   4.604   5.790   4.066  0.0938 -0.0356  0.2545
 1525W        W 2522   7.495   5.533   3.664 -0.2355  0.2737 -0.2857
 1526W        W 2523   3.981   6.509   6.979  0.1254  0.3814 -0.1184
 1527W        W 2524   0.307   6.339   6.053 -0.0452 -0.1017 -0.2097
 1528W        W 2525   2.730   6.419   0.351  0.2081 -0.1410  0.0745
 1529W        W 2526   2.511   3.444   5.898  0.0088 -0.2006  0.0053
 1530W        W 2527   7.141   5.906   1.811 -0.2853  0.0034 -0.0363
 1531W        W 2528   4.546   3.290   0.787 -0.4542  0.0977 -0.0428
 1532W        W 2529   6.539   7.156   0.162  0.0182 -0.2346 -0.0017
 1533W        W 2530   6.114   1.114   2.173  0.0790 -0.4324 -0.0516
 1534W        W 2531   3.966   4.970   1.069  0.3702 -0.1105  0.1815
 1535W        W 2532   1.056   5.876   5.892 -0.0727  0.2214  0.2748
 1536W        W 2533   4.548   1.950   3.107  0.2603  0.1220 -0.1511
 1537W        W 2534   2.385   4.374   4.630 -0.1423 -0.1317  0.0997
 1538W        W 2535   2.075   6.457   6.375  0.1159  0.6523 -0.3113
 1539W        W 2536   3.588   5.462   4.861  0.1876  0.1090 -0.0550
 1540W        W 2537   7.446   4.915   6.481  0.1116 -0.0931 -0.1510
 1541W        W 2538   2.905   6.942   6.285 -0.4403  0.1198  0.0871
 1542W        W 2539   1.626   3.338   0.301 -0.1238 -0.0817 -0.1982
 1543W        W 2540   0.537   0.656   6.963 -0.0522 -0.1012  0.1306
 1544W        W 2541   7.567   2.813   3.141  0.2467 -0.0084 -0.2627
 1545W        W 2542   2.172   1.817   1.844  0.0963 -0.0694 -0.2720
 1546W        W 2543   7.354   0.718   2.633 -0.1119  0.1728 -0.0499
 1547W        W 2544   2.663   6.265   7.466 -0.0259  0.1019  0.0198
 1548W        W 2545   4.220   1.671   3.453  0.2505  0.2470 -0.1732
 1549W        W 2546   1.308   6.324   5.860 -0.1384  0.0707 -0.2515
 1550W        W 2547   7.169   0.749   6.821  0.4221  0.0020 -0.0380
 1551W        W 2548   5.901   0.339   5.111  0.2502 -0.1041 -0.0558
 1552W        W 2549   2.683   2.416   4.172 -0.1594  0.1425 -0.0080
 1553W        W 2550   4.779   4.852   6.847 -0.0819  0.2472 -0.0045
 1554W        W 2551   4.796   5.927   3.495  0.1065 -0.0970  0.2353
 1555W        W 2552   6.865   0.211   0.247 -0.2293  0.0177  0.0548
 1556W        W 2553   2.694   0.410   0.417  0.1447 -0.1186 -0.1274
 1557W        W 2554   6.935   2.122   4.883 -0.0361  0.1054 -0.1629
 1558W        W 2555   1.722   1.150   7.460  0.0487  0.1742  0.0127
 1559W        W 2556   3.725   2.479   3.937  0.0764  0.0468 -0.0037
 1560W        W 2557   4.653   3.403   0.247  0.2439  0.0282 -0.2689
 1561W        W 2558   1.861   2.390   5.329  0.2044  0.0129 -0.1442
 1562W        W 2559   1.070   2.241   0.975  0.0973 -0.1642 -0.1706
 1563W        W 2560   2.838   3.418   4.188  0.0239 -0.1481  0.0012
 1564W        W 2561   1.996   3.229   3.289 -0.1743  0.0972 -0.2333
 1565W        W 2562   5.084   1.942   2.439  0.1064  0.0174 -0.2079
 1566W        W 2563   3.953   1.320   5.207  0.0472 -0.0041 -0.0138
 1567W        W 2564   3.824   5.571   1.593  0.4316 -0.1651  0.2068
 1568W        W 2565   1.999   2.161   6.372 -0.1150 -0.0302 -0.0921
 1569W        W 2566   7.041   3.814   6.834  0.0774 -0.0557  0.5232
 1570W        W 2567   2.764   5.023   2.448  0.0964  0.0227 -0.2234
 1571W        W 2568   2.654   2.264   7.589  0.2075  0.1453  0.0402
 1572W        W 2569   5.491   1.740   5.277  0.1483  0.0824 -0.1962
 1573W        W 2570   1.254   5.695   5.447  0.0626  0.0991  0.1075
 1574W        W 2571   0.958   2.878   7.533 -0.3494  0.1097 -0.2498
 1575W        W 2572   4.666   2.699   6.834 -0.1412 -0.1849 -0.2158
 1576W        W 2573   7.580   4.996   2.950 -0.1459 -0.0950 -0.1013
 1577W        W 2574   5.023   2.897   1.489 -0.1065  0.1274  0.1673
 1578W        W 2575   2.716   1.156   4.561 -0.1983 -0.0473 -0.4494
 1579W        W 2576   7.605   5.500   6.611  0.2220  0.2876  0.1202
 1580W        W 2577   0.380   7.027   7.469  0.2701 -0.2018 -0.5357
 1581W        W 2578   2.386   4.722   5.283  0.0709 -0.0986 -0.3169
 1582W        W 2579   5.407   4.023   6.861  0.2966 -0.0929  0.1597
 1583W        W 2580   4.087   3.821   5.596 -0.2582  0.1833  0.0181
 1584W        W 2581   6.663   6.758   5.133 -0.0191  0.1652 -0.0609
 1585W        W 2582   2.124   6.385   1.035 -0.1566  0.5145 -0.0403
 1586W        W 2583   7.037   6.350   0.176  0.1846 -0.2836 -0.1377
 1587W        W 2584   6.717   2.463   5.884  0.1331  0.0641 -0.2853
 1588W        W 2585   6.479   4.792   7.060 -0.4903 -0.1512  0.0587
 1589W        W 2586   2.678   5.426   0.855  0.1209 -0.1311  0.0513
 1590W        W 2587   1.059   0.589   7.108 -0.1110 -0.3706 -0.1921
 1591W        W 2588   1.230   2.549   5.799  0.1196  0.4372 -0.1215
 1592W        W 2589   3.215   3.453   7.065 -0.0748 -0.0190 -0.2229
 1593W        W 2590   5.915   6.663   0.920  0.1210 -0.0664 -0.0580
 1594W        W 2591   1.851   3.137   7.013 -0.1575  0.0406 -0.0328
 1595W        W 2592   4.844   4.893   6.183 -0.0826  0.1947  0.1982
 1596W        W 2593   4.611   5.118   7.260 -0.2409 -0.1662  0.1976
 1597W        W 2594   5.235   5.626   0.231  0.1253 -0.1435  0.1851
 1598W        W 2595   2.102   7.101   0.407  0.5047  0.2357  0.1861
 1599W        W 2596   6.849   0.731   6.051 -0.0131  0.3158 -0.1443
 1600W        W 2597   2.510   3.862   3.487  0.3716  0.3662 -0.0891
 1601W        W 2598   5.966   2.416   0.435  0.2276  0.0804 -0.3040
 1602W        W 2599   4.084   0.621   0.675 -0.0957 -0.0212  0.2268
 1603W        W 2600   5.045   3.041   6.951  0.3205  0.2528 -0.1021
 1604W        W 2601   1.044   3.403   0.437  0.1993  0.0288  0.1051
 1605W        W 2602   5.212   2.726   1.943  0.2592 -0.1012  0.0560
 1606W        W 2603   5.155   3.579   5.272  0.0248 -0.0365  0.2577
 1607W        W 2604   1.224   1.268   4.428 -0.2709 -0.0696 -0.0589
 1608W        W 2605   6.494   4.864   6.528 -0.2453  0.3073 -0.2320
 1609W        W 2606   4.420   4.741   6.397  0.1199 -0.2054 -0.3103
 1610W        W 2607   6.182   5.284   6.359  0.0169  0.0815 -0.1062
 1611W        W 2608   1.032   0.897   4.016  0.2749  0.2468  0.1464
 1612W        W 2609   4.208   6.703   6.155  0.0301  0.4734  0.2946
 1613W        W 2610   6.101   2.357   1.039 -0.0500  0.0024  0.0663
 1614W        W 2611   7.482   7.130   6.408 -0.0729 -0.0559 -0.2731
 1615W        W 2612   5.302   6.415   4.709 -0.0907 -0.0657  0.3018
 1616W        W 2613   7.618   1.810   3.504  0.1009 -0.4099  0.0464
 1617W        W 2614   0.889   1.367   1.339  0.3807  0.1875 -0.0194
 1618W        W 2615   2.522   0.319   5.165 -0.0055 -0.0568  0.0424
 1619W        W 2616   1.100   2.088   2.250  0.2324  0.1348  0.1625
 1620W        W 2617   5.277   2.334   0.685 -0.0958 -0.2956 -0.1159
 1621W        W 2618   3.469   5.193   5.284 -0.1132 -0.0792 -0.2053
 1622W        W 2619   1.714   2.722   5.011  0.2506 -0.1608  0.3343
 1623W        W 2620   2.630   2.885   6.702 -0.0862 -0.2617 -0.1584
 1624W        W 2621   4.725   0.055   6.159  0.1885 -0.0600 -0.1022
 1625W        W 2622   3.025   4.072   1.001 -0.1594  0.0216  0.0887
 1626W        W 2623   1.275   7.432   6.130 -0.0358 -0.2083  0.0162
 1627W        W 2624   4.324   7.641   0.135  0.0632 -0.0084 -0.0664
 1628W        W 2625   6.461   6.627   0.208 -0.1954  0.0412  0.1312
 1629W        W 2626   1.855   4.047   1.253  0.1934  0.0494 -0.0257
 1630W        W 2627   6.483   7.194   6.392 -0.1212 -0.3105 -0.1577
 1631W        W 2628   1.058   3.076   2.126  0.3667 -0.0493  0.0492
 1632W        W 2629   3.786   3.429   1.290  0.1115 -0.0717  0.1158
 1633W        W 2630   4.575   6.167   6.510 -0.5157  0.0337  0.1021
 1634W        W 2631   4.019   2.471   4.368 -0.1502  0.1220  0.0591
 1635W        W 2632   1.057   4.554   0.256 -0.3103  0.1925 -0.4897
 1636W        W 2633   0.471   6.785   5.855  0.2351 -0.5523 -0.0070
 1637W        W 2634   6.721   1.326   2.223  0.0786  0.1973  0.0609
 1638W        W 2635   7.394   0.488   5.326  0.1089  0.0336  0.0553
 1639W        W 2636   5.868   7.230   5.750  0.1407  0.0906  0.1651
 1640W        W 2637   4.106   3.400   0.427  0.1698  0.0314 -0.1575
 1641W        W 2638   6.900   7.296   6.035 -0.3545  0.0631 -0.1861
 1642W        W 2639   6.807   6.055   7.033 -0.0191  0.0389  0.0438
 1643W        W 2640   0.147   0.631   5.567 -0.3205 -0.3786  0.1581
 1644W        W 2641   2.633   4.521   2.798 -0.1137 -0.1520  0.0320
 1645W        W 2642   0.090   3.921   5.095  0.0831 -0.0807 -0.1728
 1646W        W 2643   6.643   2.263   7.340  0.1451  0.0386  0.0889
 1647W        W 2644   0.661   2.977   1.650 -0.3496 -0.0534  0.0603
 1648W        W 2645   7.310   2.226   0.307 -0.2390 -0.0513 -0.0876
 1649W        W 2646   5.757   1.142   2.490  0.1497  0.1521 -0.5310
 1650W        W 2647   6.835   5.432   5.546  0.4183  0.0609 -0.2454
 1651W        W 2648   4.628   2.528   6.148  0.0299  0.1533  0.0685
 1652W        W 2649   3.094   2.647   6.851 -0.0745  0.0306  0.1935
 1653W        W 2650   4.467   4.694   2.728 -0.1920 -0.0989 -0.0276
 1654W        W 2651   6.012   2.842   0.195 -0.0720 -0.0389  0.2279
 1655W        W 2652   6.807   0.499   3.886  0.0010 -0.2271  0.2521
 1656W        W 2653   6.178   4.805   0.594 -0.0803  0.3416 -0.0316
 1657W        W 2654   7.349   5.906   1.350 -0.1379 -0.0775  0.3501
 1658W        W 2655   0.004   3.942   6.040 -0.3044 -0.0026  0.1869
 1659W        W 2656   5.678   5.746   0.406 -0.1921  0.1368 -0.2759
 1660W        W 2657   4.940   3.894   2.637 -0.0379 -0.1309  0.0848
 1661W        W 2658   0.586   3.197   5.777 -0.1818  0.2332 -0.1064
 1662W        W 2659   0.965   5.618   7.297 -0.0132  0.0484 -0.0800
 1663W        W 2660   5.967   7.092   4.122  0.1037 -0.0106  0.2607
 1664W        W 2661   6.036   6.029   5.008 -0.1850 -0.1001 -0.1834
 1665W        W 2662   6.703   4.089   4.011  0.2336 -0.0277  0.1516
 1666W        W 2663   7.070   0.444   6.432 -0.0011 -0.1564 -0.1235
 1667W        W 2664   5.744   2.474   7.604 -0.1586  0.2558 -0.0988
 1668W        W 2665   2.504   4.766   1.447  0.1384  0.0813  0.0723
 1669W        W 2666   1.324   4.761   3.192  0.1201 -0.1969  0.0339
 1670W        W 2667   7.537   5.643   4.295  0.1381  0.1086  0.0056
 1671W        W 2668   0.181   3.694   5.638  0.0114  0.1074  0.1798
 1672W        W 2669   3.526   0.269   0.679 -0.0386 -0.1305 -0.0629
 1673W        W 2670   5.032   0.868   0.704 -0.0225 -0.0603 -0.0761
 1674W        W 2671   5.502   5.375   0.665  0.3498 -0.0231  0.0760
 1675W        W 2672   5.493   4.495   7.008  0.0542  0.0765 -0.1171
 1676W        W 2673   0.247   1.644   7.004  0.1897  0.0849 -0.3542
 1677W        W 2674   6.534   3.815   3.194  0.1757 -0.0870  0.0478
 1678W        W 2675   2.315   2.211   7.267 -0.0188 -0.0899  0.0265
 1679W        W 2676   3.003   1.433   3.070 -0.0481  0.0680 -0.0365
 1680W        W 2677   1.581   0.006   0.217  0.1446 -0.2778 -0.1648
 1681W        W 2678   7.287   6.102   2.235 -0.0110  0.2261  0.2622
 1682W        W 2679   0.790   2.003   0.375 -0.1496 -0.2361 -0.1149
 1683W        W 2680   2.726   2.152   5.079  0.0534 -0.0664  0.2575
 1684W        W 2681   5.443   6.434   6.831 -0.0115  0.1971  0.1714
 1685W        W 2682   5.654   0.688   3.736 -0.2194 -0.0022  0.3979
 1686W        W 2683   0.323   4.953   3.336 -0.1166 -0.1701 -0.0512
 1687W        W 2684   6.266   0.047   6.367  0.2269 -0.1815  0.2675
 1688W        W 2685   6.577   2.577   3.607  0.1514  0.3555  0.1467
 1689W        W 2686   0.552   1.499   5.129 -0.1377 -0.2773 -0.0407
 1690W        W 2687   5.304   3.442   5.968  0.0236 -0.0537 -0.1945
 1691W        W 2688   7.215   2.601   0.644  0.0861 -0.1834  0.0593
 1692W        W 2689   6.623   3.165   2.228  0.0647 -0.2010  0.1657
 1693W        W 2690   6.402   1.633   6.830 -0.3531 -0.1472  0.2191
 1694W        W 2691   6.841   2.361   2.547  0.1995  0.2672  0.3278
 1695W        W 2692   2.510   3.839   6.231  0.0445 -0.1682  0.4543
 1696W        W 2693   5.050   3.915   4.765 -0.1771  0.0073  0.0417
 1697W        W 2694   1.486   5.248   3.966  0.0289 -0.0142  0.1148
 1698W        W 2695   4.934   5.491   6.138  0.0169  0.0961  0.6338
 1699W        W 2696   1.989   5.686   6.163  0.0708  0.0927 -0.3701
 1700W        W 2697   2.300   3.431   1.772 -0.0626  0.0419 -0.2952
 1701W        W 2698   1.101   5.210   1.091 -0.0748  0.1586 -0.2460
 1702W        W 2699   6.648   5.566   7.221  0.2075  0.2292 -0.2746
 1703W        W 2700   5.779   1.309   5.057  0.3234  0.1049  0.0100
 1704W        W 2701   6.711   1.565   5.228 -0.1851  0.1882  0.1348
 1705W        W 2702   3.551   2.599   3.367  0.0340  0.2092  0.2264
 1706W        W 2703   3.188   2.448   7.395 -0.3398  0.2156 -0.0218
 1707W        W 2704   3.953   2.386   3.079  0.0604 -0.3256  0.0797
 1708W        W 2705   1.789   4.697   5.862  0.1616  0.2166 -0.0686
 1709W        W 2706   4.454   7.165   7.391 -0.0916 -0.4120  0.3164
 1710W        W 2707   3.938   3.331   6.740  0.2992  0.2699 -0.0159
 1711W        W 2708   4.271   0.904   6.157 -0.0924 -0.1149  0.1363
 1712W        W 2709   0.769   3.527   3.987 -0.1689 -0.1977 -0.3312
 1713W        W 2710   1.554   3.919   5.045  0.1170  0.3010  0.1750
 1714W        W 2711   3.573   7.126   3.965  0.1198  0.3241 -0.1520
 1715W        W 2712   4.298   1.666   6.032 -0.0069 -0.0308 -0.1364
 1716W        W 2713   6.679   6.155   0.608  0.1074 -0.6342 -0.2215
 1717W        W 2714   3.809   5.425   0.331  0.1241  0.5153  0.2304
 1718W        W 2715   3.668   3.267   7.246  0.1388  0.0391  0.1585
 1719W        W 2716   0.249   2.932   6.023 -0.3069 -0.1261  0.0065
 1720W        W 2717   4.885   2.934   0.185 -0.1159  0.0661 -0.1137
 1721W        W 2718   3.150   4.589   0.267  0.1767  0.2021 -0.0974
 1722W        W 2719   7.081   2.009   7.490  0.2362  0.1085 -0.0623
 1723W        W 2720   5.340   5.099   1.979  0.0259  0.2704 -0.0505
 1724W        W 2721   4.199   7.584   7.199 -0.0639  0.1655  0.0168
 1725W        W 2722   3.492   2.781   4.252 -0.1427 -0.0810  0.1248
 1726W        W 2723   4.466   6.749   0.488  0.0989 -0.0670  0.0830
 1727W        W 2724   7.315   4.194   2.630  0.0621  0.2556 -0.0763
 1728W        W 2725   2.737   0.899   5.648 -0.0019 -0.2451  0.2493
 1729W        W 2726   1.018   2.146   6.862 -0.0175 -0.1238  0.1682
 1730W        W 2727   5.951   0.678   0.536 -0.1765  0.0942  0.1696
 1731W        W 2728   2.742   7.398   5.616 -0.1409  0.0388  0.0588
 1732W        W 2729   5.954   1.997   3.467  0.0029  0.3703 -0.0948
 1733W        W 2730   5.957   1.851   5.105  0.0968  0.1193 -0.0005
 1734W        W 2731   6.385   3.907   4.516  0.1520 -0.0851 -0.0169
 1735W        W 2732   0.971   4.173   7.562  0.4007 -0.1720 -0.1218
 1736W        W 2733   7.169   3.656   0.590 -0.1093  0.3143  0.3366
 1737W        W 2734   7.461   4.062   6.604  0.1473  0.0142  0.1309
 1738W        W 2735   2.186   4.714   3.696 -0.0632  0.0820 -0.1696
 1739W        W 2736   0.943   3.151   2.611 -0.2232 -0.0897  0.4922
 1740W        W 2737   4.508   3.412   5.536 -0.0611 -0.1479 -0.1555
 1741W        W 2738   7.550   0.169   5.681 -0.0668 -0.0904 -0.1936
 1742W        W 2739   5.696   4.474   6.560  0.0045 -0.2278  0.0069
 1743W        W 2740   0.768   6.548   0.714  0.0760  0.0469  0.0101
 1744W        W 2741   2.679   0.671   4.764 -0.0211  0.2029  0.0341
 1745W        W 2742   3.571   6.565   6.676 -0.2486 -0.1113 -0.1650
 1746W        W 2743   0.632   4.100   2.818 -0.1230 -0.2324 -0.3127
 1747W        W 2744   6.055   0.368   3.686 -0.1286  0.0702 -0.0967
 1748W        W 2745   6.944   6.333   6.217 -0.1173  0.1920 -0.2308
 1749W        W 2746   3.545   1.937   7.356  0.0354  0.1141 -0.0384
 1750W        W 2747   3.137   6.349   7.581  0.1008 -0.2456 -0.1391
 1751W        W 2748   6.812   3.509   6.471  0.2874 -0.1491 -0.0994
 1752W        W 2749   2.904   4.102   5.191  0.0227  0.1557 -0.1941
 1753W        W 2750   1.610   1.709   6.123 -0.1302 -0.0184  0.1954
 1754W        W 2751   0.416   2.616   2.996  0.1990 -0.3660 -0.0386
 1755W        W 2752   4.182   1.950   0.417  0.0228  0.1128  0.1070
 1756W        W 2753   1.485   4.255   3.196  0.0876 -0.1345 -0.0910
 1757W        W 2754   4.390   1.300   2.284 -0.0529 -0.2164 -0.1161
 1758W        W 2755   2.967   4.112   2.576  0.1292  0.0970 -0.1189
 1759W        W 2756   0.715   4.762   5.264  0.1431  0.0379  0.2963
 1760W        W 2757   4.174   4.429   3.774 -0.0313  0.0077  0.0209
 1761W        W 2758   1.540   1.145   5.281  0.0976 -0.2421  0.0766
 1762W        W 2759   3.164   1.484   1.074 -0.0847 -0.1492  0.0424
 1763W        W 2760   0.873   3.657   0.049 -0.0711 -0.2408 -0.0977
 1764W        W 2761   4.433   2.983   0.418 -0.3224  0.2376 -0.0134
 1765W        W 2762   7.096   4.765   7.070  0.1587 -0.0296 -0.0547
 1766W        W 2763   6.144   1.923   7.195  0.0681 -0.1378  0.1710
 1767W        W 2764   2.113   7.279   6.706  0.0775 -0.0921 -0.0658
 1768W        W 2765   0.973   0.860   2.925  0.2399 -0.0008 -0.1645
 1769W        W 2766   6.071   7.269   7.086 -0.2766 -0.1897  0.0340
 1770W        W 2767   0.821   4.057   1.055  0.0491 -0.1075 -0.0420
 1771W        W 2768   4.778   3.942   3.457 -0.0257 -0.3062  0.4203
 1772W        W 2769   7.156   3.240   2.314  0.2228 -0.1353  0.1742
 1773W        W 2770   1.055   2.693   3.702  0.1156  0.0934  0.0950
 1774W        W 2771   6.925   3.255   0.484 -0.2420  0.1477  0.0537
 1775W        W 2772   6.922   1.946   6.203 -0.0662  0.2188 -0.1672
 1776W        W 2773   2.087   6.618   0.297 -0.1833  0.0096  0.0570
 1777W        W 2774   7.355   2.530   1.427  0.0688 -0.0940 -0.1084
 1778W        W 2775   4.853   5.211   2.147 -0.0500  0.4886  0.1804
 1779W        W 2776   7.568   3.573   6.756 -0.2649 -0.0007 -0.2247
 1780W        W 2777   1.260   1.339   2.398 -0.1771 -0.0362 -0.3875
 1781W        W 2778   6.092   7.116   4.905 -0.1800  0.1823 -0.2361
 1782W        W 2779   0.916   0.988   0.212 -0.4771 -0.4758  0.4698
 1783W        W 2780   7.521   4.564   6.927 -0.2055 -0.0674  0.0164
 1784W        W 2781   7.403   4.981   1.847 -0.1686 -0.0540  0.0629
 1785W        W 2782   4.928   3.176   2.985 -0.0801 -0.3446  0.1418
 1786W        W 2783   0.350   2.472   6.300 -0.0255  0.2337  0.1919
 1787W        W 2784   5.185   6.634   7.223 -0.1476  0.0828  0.3479
 1788W        W 2785   7.424   4.179   3.541 -0.1547  0.0182 -0.2681
 1789W        W 2786   0.404   1.035   4.034  0.0152 -0.3476  0.1755
 1790W        W 2787   2.097   4.980   2.236 -0.0231 -0.0606  0.1377
 1791W        W 2788   7.639   4.553   3.226 -0.0623  0.1792 -0.3724
 1792W        W 2789   0.077   4.868   4.578  0.0672  0.2280 -0.0433
 1793W        W 2790   7.317   1.645   7.188  0.0897 -0.2736  0.0038
 1794W        W 2791   3.376   4.325   5.122 -0.1938 -0.1717 -0.1665
 1795W        W 2792   2.862   1.841   0.218  0.1435  0.0124  0.1051
 1796W        W 2793   0.666   0.067   5.027 -0.0169 -0.0087 -0.3461
 1797W        W 2794   1.541   3.988   2.759 -0.3589  0.1446  0.1203
 1798W        W 2795   2.053   2.874   1.685 -0.0339 -0.3187  0.0284
 1799W        W 2796   6.481   4.006   0.236  0.2128 -0.1187 -0.0085
 1800W        W 2797   2.844   5.091   5.980 -0.1864 -0.2348  0.2954
 1801W        W 2798   7.252   5.046   0.872  0.1304 -0.1019 -0.1626
 1802W        W 2799   4.509   0.988   7.143 -0.4333 -0.2663 -0.0714
 1803W        W 2800   3.496   7.259   4.460  0.0337  0.2587 -0.0517
 1804W        W 2801   6.300   1.464   0.690 -0.3108 -0.4203  0.1667
 1805W        W 2802   6.273   1.437   5.153  0.0128 -0.0652  0.0707
 1806W        W 2803   0.938   5.450   4.938  0.1300  0.1380  0.1831
 1807W        W 2804   7.314   6.181   5.351 -0.1455 -0.4091 -0.0050
 1808W        W 2805   3.011   5.466   1.240 -0.1080  0.1455 -0.0470
 1809W        W 2806   7.157   5.285   2.734 -0.1193  0.2546  0.1918
 1810W        W 2807   0.622   7.236   4.998 -0.0133  0.0432 -0.0943
 1811W        W 2808   1.942   1.299   4.964  0.0854  0.0949  0.1005
 1812W        W 2809   7.531   2.459   1.954 -0.1419 -0.0814 -0.0105
 1813W        W 2810   5.746   5.364   7.567  0.2613 -0.1686  0.2282
 1814W        W 2811   6.545   4.005   1.857 -0.1864  0.1760  0.1609
 1815W        W 2812   4.658   0.552   5.452 -0.0355 -0.0726  0.2025
 1816W        W 2813   1.622   4.688   0.054  0.2793  0.0677  0.0523
 1817W        W 2814   5.344   4.600   2.091  0.0243  0.2814  0.0641
 1818W        W 2815   2.443   4.091   2.466  0.0125  0.3663 -0.0166
 1819W        W 2816   5.314   3.067   5.163 -0.1056 -0.1432 -0.0028
 1820W        W 2817   5.712   4.405   3.196 -0.0844 -0.0015  0.4188
 1821W        W 2818   5.014   1.339   1.053 -0.0438  0.1854  0.0773
 1822W        W 2819   2.941   3.827   3.892 -0.0361  0.1469 -0.0887
 1823W        W 2820   1.305   3.876   7.375 -0.0322 -0.1961  0.1073
 1824W        W 2821   6.004   2.417   6.396  0.2467 -0.1565  0.1190
 1825W        W 2822   3.264   1.442   3.479 -0.1464 -0.1145 -0.1663
 1826W        W 2823   5.636   3.757   3.938  0.4187  0.1361 -0.3403
 1827W        W 2824   1.967   4.018   2.480  0.0452 -0.1212 -0.1630
 1828W        W 2825   5.337   5.478   7.038 -0.0707 -0.1941  0.1672
 1829W        W 2826   0.756   2.394   2.455  0.0221  0.1656  0.2005
 1830W        W 2827   4.715   3.875   1.307 -0.0775  0.0615 -0.3241
 1831W        W 2828   0.200   2.736   3.785 -0.2004  0.1552 -0.1729
 1832W        W 2829   2.788   3.240   7.403  0.1069  0.2584  0.1748
 1833W        W 2830   0.367   3.699   7.560 -0.1796  0.1988 -0.0110
 1834W        W 2831   7.339   3.294   0.115 -0.2272  0.0580  0.0844
 1835W        W 2832   2.031   2.308   3.768 -0.0423 -0.1480  0.1185
 1836W        W 2833   7.143   6.338   3.945  0.0335  0.0330 -0.0502
 1837W        W 2834   4.244   2.882   3.094  0.0052 -0.0082 -0.3366
 1838W        W 2835   3.567   6.945   4.995  0.0671 -0.0200 -0.2309
 1839W        W 2836   3.721   2.553   6.107  0.0038  0.1414  0.1304
 1840W        W 2837   4.003   7.393   3.794  0.0599 -0.2005 -0.1167
 1841W        W 2838   2.638   3.615   0.619 -0.0121 -0.0212  0.0514
 1842W        W 2839   3.465   4.500   4.716 -0.0344 -0.0558  0.2687
 1843W        W 2840   7.291   5.115   4.520  0.2386 -0.0677 -0.1817
 1844W        W 2841   5.767   3.177   4.695 -0.0302  0.0438 -0.0774
 1845W        W 2842   1.306   4.723   1.135  0.1688  0.0137 -0.2040
 1846W        W 2843   3.241   3.815   4.976  0.0481  0.0920  0.2240
 1847W        W 2844   0.563   1.938   2.144 -0.1521 -0.2547 -0.0904
 1848W        W 2845   0.853   5.253   7.630  0.3179  0.1931  0.0449
 1849W        W 2846   5.440   6.894   0.484 -0.2501 -0.0475 -0.0483
 1850W        W 2847   0.556   3.797   5.976  0.0475 -0.0825  0.0021
 1851W        W 2848   4.847   2.244   2.810  0.2605 -0.2066 -0.1514
 1852W        W 2849   5.240   2.573   3.175 -0.2119  0.1488  0.0718
 1853W        W 2850   5.406   1.415   1.397  0.0889 -0.1475  0.0150
 1854W        W 2851   1.235   4.582   4.682  0.0788  0.1030 -0.3149
 1855W        W 2852   6.023   2.221   1.522  0.1778  0.1229 -0.0344
 1856W        W 2853   5.889   3.314   3.302  0.3349  0.1555 -0.0738
 1857W        W 2854   5.147   7.211   4.664  0.0832  0.1612  0.0147
 1858W        W 2855   7.195   3.292   0.939 -0.1151  0.1255 -0.1315
 1859W        W 2856   4.419   0.236   5.755 -0.1539 -0.0435  0.2613
 1860W        W 2857   1.761   3.542   2.544 -0.1823 -0.0231 -0.0918
 1861W        W 2858   7.427   7.330   5.893 -0.0578  0.1084  0.3378
 1862W        W 2859   7.371   1.063   4.780  0.1979 -0.2970 -0.2884
 1863W        W 2860   5.672   0.930   1.392 -0.1881 -0.0199 -0.3072
 1864W        W 2861   1.496   3.155   4.937 -0.0439  0.0237 -0.1322
 1865W        W 2862   2.200   5.180   0.854  0.2076 -0.0092  0.0778
 1866W        W 2863   1.818   7.064   6.106  0.0980  0.2398 -0.0555
 1867W        W 2864   2.414   3.636   3.967 -0.1185 -0.0083  0.3691
 1868W        W 2865   2.732   5.216   6.490 -0.0055 -0.0147 -0.1813
 1869W        W 2866   4.124   4.966   3.576  0.0801 -0.0207  0.1758
 1870W        W 2867   4.590   0.611   4.885  0.0837 -0.4479 -0.0894
 1871W        W 2868   6.297   5.089   1.104  0.1862 -0.0158  0.1772
 1872W        W 2869   6.782   4.430   1.988  0.1366 -0.1506 -0.1106
 1873W        W 2870   1.309   4.081   4.554  0.2943  0.0924  0.1062
 1874W        W 2871   6.462   3.017   2.742  0.1282  0.0596  0.0580
 1875W        W 2872   5.468   6.875   4.435 -0.1150  0.3016 -0.5189
 1876W        W 2873   1.776   5.310   7.014 -0.1588 -0.0521  0.3871
 1877W        W 2874   2.740   3.288   3.660 -0.0466 -0.1367 -0.0572
 1878W        W 2875   5.178   2.302   5.522 -0.1762 -0.1056 -0.0014
 1879W        W 2876   7.384   0.327   7.013 -0.0866 -0.4406  0.0534
 1880W        W 2877   0.013   4.774   0.675 -0.2065  0.3230 -0.1603
 1881W        W 2878   1.984   1.414   3.201  0.0189 -0.2122 -0.1142
 1882W        W 2879   4.371   1.570   0.688 -0.1880  0.2610  0.1433
 1883W        W 2880   3.661   3.954   4.767 -0.1275  0.2067 -0.0692
 1884W        W 2881   7.046   2.758   4.930  0.1760  0.0094  0.1109
 1885W        W 2882   5.900   5.057   5.869 -0.0504  0.0593  0.1882
 1886W        W 2883   4.688   5.406   4.412 -0.1564 -0.0586 -0.1528
 1887W        W 2884   2.819   0.123   7.572 -0.0007  0.1273 -0.0376
 1888W        W 2885   5.435   0.500   4.851 -0.4389 -0.0826  0.1099
 1889W        W 2886   3.450   2.069   3.501 -0.3065 -0.1327 -0.2539
 1890W        W 2887   4.818   1.735   5.945 -0.0943  0.1319 -0.0013
 1891W        W 2888   2.351   3.163   7.165 -0.0454 -0.2160  0.5647
 1892W        W 2889   3.272   3.074   3.451 -0.0900  0.1649  0.0685
 1893W        W 2890   1.991   1.761   4.064  0.0970  0.3816  0.1034
 1894W        W 2891   2.528   5.707   6.557  0.0178  0.0287  0.2756
 1895W        W 2892   6.479   7.364   4.019  0.1580 -0.0357 -0.1744
 1896W        W 2893   5.439   5.381   3.069  0.2776 -0.2392 -0.0962
 1897W        W 2894   2.848   4.652   1.900  0.2919  0.0984  0.1206
 1898W        W 2895   3.587   4.265   7.136 -0.1950  0.2546 -0.1282
 1899W        W 2896   4.633   1.589   6.404 -0.0077  0.0506  0.0254
 1900W        W 2897   5.266   2.524   6.891  0.0579 -0.1385 -0.0786
 1901W        W 2898   5.318   4.998   1.397 -0.0310 -0.0199  0.4268
 1902W        W 2899   2.247   4.861   3.134  0.1067 -0.0744 -0.0571
 1903W        W 2900   5.640   2.948   6.870  0.1233 -0.0337 -0.2124
 1904W        W 2901   6.276   2.758   5.344  0.1081  0.0795 -0.1189
 1905W        W 2902   6.788   2.066   3.737  0.2235  0.0376  0.0467
 1906W        W 2903   2.719   4.956   1.019 -0.3562 -0.1334 -0.1746
 1907W        W 2904   1.520   1.089   3.992  0.2950  0.0027  0.1121
 1908W        W 2905   0.933   4.348   2.016 -0.0596 -0.0462  0.2774
 1909W        W 2906   7.047   4.181   1.414  0.1876 -0.3574 -0.1592
 1910W        W 2907   2.343   1.062   0.216  0.0307  0.1131 -0.0127
 1911W        W 2908   7.306   4.707   4.138  0.2386 -0.1503 -0.0973
 1912W        W 2909   6.896   0.828   4.521 -0.2084 -0.0829 -0.0658
 1913W        W 2910   0.171   2.388   5.326  0.0547 -0.4932 -0.0172
 1914W        W 2911   6.942   5.223   4.161 -0.0186  0.1973  0.0675
 1915W        W 2912   1.511   3.467   2.078 -0.2033 -0.0475  0.1479
 1916W        W 2913   1.027   3.887   5.028 -0.2398  0.0392 -0.0574
 1917W        W 2914   0.540   4.106   7.324  0.0248 -0.0140  0.1061
 1918W        W 2915   5.129   0.679   0.199 -0.0495  0.4223 -0.1748
 1919W        W 2916   4.484   1.088   0.910 -0.1366  0.0738  0.2969
 1920W        W 2917   5.625   7.543   7.262  0.1535 -0.0521 -0.0186
 1921W        W 2918   5.515   4.746   7.479 -0.2469  0.0757 -0.1857
 1922W        W 2919   2.655   6.094   5.065  0.1251 -0.1173  0.2271
 1923W        W 2920   6.100   3.271   1.494  0.0363  0.0756  0.2381
 1924W        W 2921   2.853   2.932   2.265 -0.4072  0.0950 -0.1065
 1925W        W 2922   2.555   7.061   5.960  0.0849 -0.0051  0.2075
 1926W        W 2923   2.698   2.221   6.986  0.0019 -0.0504  0.2363
 1927W        W 2924   5.726   3.564   1.634  0.2823 -0.2195 -0.0566
 1928W        W 2925   1.915   3.149   5.828  0.2450 -0.1364 -0.1565
 1929W        W 2926   0.995   6.888   4.896 -0.1476  0.5336 -0.0143
 1930W        W 2927   5.674   2.621   2.771  0.1376  0.1343 -0.0331
 1931W        W 2928   5.758   7.466   5.217  0.1231 -0.0270 -0.0625
 1932W        W 2929   3.626   5.703   2.764  0.0720  0.1801 -0.2446
 1933W        W 2930   5.985   5.985   7.618  0.1974  0.0358  0.4706
 1934W        W 2931   1.980   3.945   5.341 -0.3156  0.0186  0.0013
 1935W        W 2932   4.335   4.740   3.204  0.1195  0.1593 -0.2789
 1936W        W 2933   5.049   6.782   3.688  0.0389 -0.0379 -0.0289
 1937W        W 2934   3.693   0.493   0.263  0.1453 -0.0769 -0.1207
 1938W        W 2935   5.332   1.755   7.284 -0.1530  0.0241  0.0668
 1939W        W 2936   4.966   0.257   5.084  0.3361 -0.0875 -0.1215
 1940W        W 2937   1.293   2.012   0.244  0.0716 -0.1959 -0.1701
 1941W        W 2938   2.398   6.980   7.170  0.2781 -0.2249  0.3981
 1942W        W 2939   5.732   2.749   5.159 -0.0872 -0.0141 -0.0274
 1943W        W 2940   0.814   1.253   7.477 -0.2045  0.0462 -0.0495
 1944W        W 2941   3.603   1.338   5.629 -0.2337  0.6293 -0.2020
 1945W        W 2942   1.212   1.885   6.386 -0.1380  0.0861 -0.1357
 1946W        W 2943   4.790   1.507   7.247  0.0406 -0.0581  0.1709
 1947W        W 2944   6.066   2.035   6.703  0.1861 -0.1275 -0.2196
 1948W        W 2945   5.564   3.660   0.525 -0.3083  0.0944  0.0471
 1949W        W 2946   4.601   1.270   6.032 -0.1771 -0.0803 -0.1105
 1950W        W 2947   3.439   2.893   6.356  0.3137 -0.3886 -0.1602
 1951W        W 2948   7.630   5.358   4.734  0.0700  0.1203 -0.0426
 1952W        W 2949   2.415   5.396   6.151  0.2123  0.2974  0.1758
 1953W        W 2950   5.783   4.277   2.210  0.0653 -0.2491 -0.1861
 1954W        W 2951   3.210   4.455   6.837 -0.3137 -0.3461 -0.2654
 1955W        W 2952   5.870   3.756   3.522 -0.0149 -0.1450  0.0419
 1956W        W 2953   2.016   3.473   4.243  0.2392  0.1726 -0.2333
 1957W        W 2954   4.136   5.767   4.948  0.3883 -0.1500  0.5820
 1958W        W 2955   5.098   0.159   7.293  0.2276  0.1350 -0.0144
 1959W        W 2956   7.216   0.620   0.520  0.0101  0.1981  0.0935
 1960W        W 2957   6.935   0.080   5.187 -0.5429 -0.1165  0.4199
 1961W        W 2958   7.535   7.413   3.967  0.0934 -0.1777  0.2747
 1962W        W 2959   2.244   3.541   2.490  0.0723 -0.1222  0.3517
 1963W        W 2960   4.146   1.827   3.962 -0.0137  0.0161  0.1271
 1964W        W 2961   3.458   7.019   6.411 -0.4253  0.2566 -0.1471
 1965W        W 2962   2.252   5.198   7.108 -0.0191  0.2090 -0.0941
 1966W        W 2963   4.844   1.204   2.435  0.3669  0.1584  0.1733
 1967W        W 2964   1.587   2.938   5.567  0.1780  0.1466  0.0515
 1968W        W 2965   7.555   0.701   1.024  0.1219  0.0321 -0.0792
 1969W        W 2966   6.308   5.137   2.522  0.0044 -0.1429  0.2520
 1970W        W 2967   6.082   3.259   5.224 -0.1523  0.1350  0.0538
 1971W        W 2968   7.284   0.256   3.975  0.0622  0.0293  0.0707
 1972W        W 2969   3.285   0.072   7.420  0.2517  0.0226 -0.0004
 1973W        W 2970   0.666   2.984   3.833  0.1754  0.0099 -0.2201
 1974W        W 2971   1.767   7.438   5.652 -0.0755  0.0367  0.0900
 1975W        W 2972   6.885   2.858   2.537  0.0899  0.0769  0.1602
 1976W        W 2973   7.569   2.747   0.985 -0.0709 -0.1092 -0.0357
 1977W        W 2974   3.302   0.512   7.113 -0.0001 -0.0029  0.0943
 1978W        W 2975   3.284   4.434   2.134 -0.0688  0.3478  0.0223
 1979W        W 2976   6.453   5.155   2.050 -0.0823 -0.0679  0.1686
 1980W        W 2977   0.891   2.952   3.351 -0.2558  0.1171 -0.1880
 1981W        W 2978   6.875   3.442   5.082 -0.3284  0.4623 -0.2399
 1982W        W 2979   5.175   2.427   6.131  0.2660  0.0017 -0.0539
 1983W        W 2980   0.885   3.348   6.787 -0.0819  0.1287 -0.1742
 1984W        W 2981   5.033   7.004   4.126  0.1975  0.0715  0.1447
 1985W        W 2982   5.852   1.593   1.623  0.2135  0.1544  0.2028
 1986W        W 2983   4.083   5.368   0.802 -0.2810 -0.2517 -0.1700
 1987W        W 2984   7.257   3.550   1.361  0.1310  0.0373  0.4164
 1988W        W 2985   1.833   3.671   6.766  0.1940  0.2679  0.0177
 1989W        W 2986   1.942   1.030   6.929 -0.0868 -0.0143 -0.0788
 1990W        W 2987   1.679   3.196   4.090  0.0842 -0.2065 -0.0142
 1991W        W 2988   4.798   6.148   0.777 -0.3207 -0.1533 -0.0491
 1992W        W 2989   6.381   0.952   3.034 -0.1280 -0.0658 -0.1934
 1993W        W 2990   7.475   5.084   3.460  0.0498  0.4549 -0.1485
 1994W        W 2991   4.178   2.291   5.835 -0.1681 -0.2979 -0.0135
 1995W        W 2992   4.168   3.121   2.611  0.1474 -0.1855 -0.0510
 1996W        W 2993   3.687   3.192   1.878 -0.0364 -0.0941 -0.1947
 1997W        W 2994   6.021   4.643   5.003 -0.3542  0.1521 -0.2350
 1998W        W 2995   5.342   3.182   6.390 -0.1135 -0.0567 -0.0430
 1999W        W 2996   3.855   0.957   0.218 -0.1046  0.1471  0.0528
 2000W        W 2997   3.890   6.557   5.209 -0.1149  0.4086  0.2211
 2001W        W 2998   1.648   5.290   6.202 -0.0924 -0.0596  0.0121
 2002W        W 2999   5.549   0.683   0.901 -0.0932  0.4495  0.0410
 2003W        W 3000   6.043   5.515   5.860  0.0175  0.0278  0.0137
 2004W        W 3001   7.395   3.628   5.799 -0.1744  0.1682 -0.0558
 2005W        W 3002   6.420   0.366   4.670  0.2812 -0.1402 -0.0079
 2006W        W 3003   3.811   1.003   1.931  0.1755  0.1394 -0.4620
 2007W        W 3004   3.899   1.186   4.660 -0.0368 -0.1021  0.0889
 2008W        W 3005   0.703   1.261   2.714 -0.0908  0.3409 -0.0331
 2009W        W 3006   5.424   4.418   5.507  0.2497  0.3434  0.1840
 2010W        W 3007   6.689   0.812   1.424  0.0474  0.0325 -0.0837
 2011W        W 3008   2.839   3.499   1.738 -0.0856  0.0374 -0.2312
 2012W        W 3009   0.755   2.561   1.416  0.2480  0.0237  0.2598
 2013W        W 3010   3.148   6.497   6.330  0.0993 -0.0995  0.0852
 2014W        W 3011   7.452   1.081   1.835 -0.3619 -0.0066  0.2681
 2015W        W 3012   4.961   3.628   2.136 -0.0030  0.0629  0.1219
 2016W        W 3013   2.162   1.828   0.018  0.2619 -0.2377  0.1492
 2017W        W 3014   0.083   1.365   5.094 -0.0632 -0.0938 -0.1100
 2018W        W 3015   1.718   0.880   4.825 -0.0630 -0.1004 -0.1657
 2019W        W 3016   4.955   4.556   5.456 -0.0965  0.1350 -0.0234
 2020W        W 3017   3.466   5.638   5.985 -0.2828  0.1040  0.0389
 2021W        W 3018   6.103   0.706   0.058  0.2197 -0.0843 -0.0406
 2022W        W 3019   5.222   0.525   5.757 -0.1330  0.1720  0.0248
 2023W        W 3020   2.736   3.858   1.437 -0.0353 -0.2296  0.0585
 2024W        W 3021   3.399   2.245   1.621  0.1107  0.2041  0.1609
 2025W        W 3022   6.124   1.835   2.567 -0.0706  0.3920  0.3128
 2026W        W 3023   3.420   1.231   2.166  0.2573  0.0272 -0.1637
 2027W        W 3024   2.074   5.239   4.850 -0.1804  0.3452 -0.3735
 2028W        W 3025   1.390   4.451   3.675 -0.2594  0.0737  0.2847
 2029W        W 3026   7.204   0.709   3.130  0.1639  0.1205  0.1437
 2030W        W 3027   1.825   5.128   0.339  0.0315 -0.1723  0.1066
 2031W        W 3028   5.112   4.548   1.645  0.0379  0.2145 -0.0682
 2032W        W 3029   3.348   3.311   5.374  0.0778 -0.0538 -0.0462
 2033W        W 3030   7.440   6.286   6.302 -0.1293  0.1230  0.2083
 2034W        W 3031   7.418   3.141   5.853 -0.0429  0.1364  0.3263
 2035W        W 3032   0.170   6.622   7.129 -0.1915  0.0853  0.1215
 2036W        W 3033   1.830   6.851   6.513  0.2160  0.1616  0.1940
 2037W        W 3034   4.146   3.098   4.949  0.1824 -0.4358  0.1749
 2038W        W 3035   5.918   1.205   0.134 -0.0440  0.2245  0.1183
 2039W        W 3036   4.666   4.468   3.522  0.0188 -0.3132 -0.1873
 2040W        W 3037   3.626   4.596   0.240 -0.0759  0.1147  0.1341
 2041W        W 3038   3.632   3.450   3.508  0.2683  0.1103  0.2161
 2042W        W 3039   6.074   3.804   6.257  0.0739  0.0985  0.0929
 2043W        W 3040   6.367   1.417   3.196 -0.0021  0.2697  0.1860
 2044W        W 3041   0.907   5.944   5.006  0.1390  0.0880 -0.1034
 2045W        W 3042   5.014   2.814   0.625  0.0732 -0.0375  0.0133
 2046W        W 3043   3.714   2.561   6.655  0.0065  0.0506  0.1262
 2047W        W 3044   4.804   5.031   1.690 -0.2741 -0.0528  0.0714
 2048W        W 3045   6.820   5.230   1.091 -0.0914 -0.2321 -0.1890
 2049W        W 3046   0.382   6.212   4.121  0.0028 -0.2637  0.0154
 2050W        W 3047   5.547   6.968   6.919 -0.1067 -0.3394  0.1808
 2051W        W 3048   5.419   3.815   1.991  0.4149  0.1542  0.1465
 2052W        W 3049   7.062   3.003   1.345  0.2974 -0.0465  0.2121
 2053W        W 3050   0.895   7.161   6.039 -0.2631  0.0034 -0.0235
 2054W        W 3051   6.891   5.580   3.051 -0.2159  0.0220 -0.0046
 2055W        W 3052   2.755   7.433   5.114  0.0482 -0.0208 -0.0302
 2056W        W 3053   5.356   3.304   3.846 -0.1141  0.0153  0.1822
 2057W        W 3054   1.045   3.585   2.143 -0.0943 -0.1470 -0.1748
 2058W        W 3055   0.569   2.871   2.471 -0.1748 -0.0174 -0.2304
 2059W        W 3056   3.710   3.576   2.190  0.2143 -0.2175  0.1028
 2060W        W 3057   1.705   5.311   4.462 -0.1666  0.0574  0.2954
 2061W        W 3058   2.266   2.620   5.151  0.1224 -0.0555  0.2250
 2062W        W 3059   5.403   5.532   3.984 -0.2684  0.0065 -0.1426
 2063W        W 3060   7.547   1.365   3.892  0.2556 -0.2081 -0.1384
 2064W        W 3061   6.980   7.148   6.532 -0.1176  0.1685  0.0745
 2065W        W 3062   2.716   2.090   1.706  0.1126  0.0230  0.0765
 2066W        W 3063   5.158   6.481   4.162 -0.0248  0.0511 -0.1074
 2067W        W 3064   1.625   6.098   5.425  0.0911 -0.2943  0.1480
 2068W        W 3065   2.229   1.140   6.425 -0.0530 -0.1027  0.1559
 2069W        W 3066   2.769   1.058   7.450 -0.2169 -0.0071  0.6263
 2070W        W 3067   1.952   4.781   7.088  0.0470 -0.2320 -0.0588
 2071W        W 3068   4.375   6.595   5.109 -0.1555 -0.1095  0.0818
 2072W        W 3069   5.287   2.015   5.924 -0.0255  0.1703 -0.0611
 2073W        W 3070   3.294   2.822   3.010 -0.1519 -0.2175 -0.1370
 2074W        W 3071   5.338   6.255   1.059 -0.0550 -0.2998 -0.0677
 2075W        W 3072   4.080   5.027   0.483 -0.1187 -0.0115  0.0303
 2076W        W 3073   2.353   4.131   3.844 -0.0168  0.3945  0.1350
 2077W        W 3074   1.787   2.508   1.462  0.2634 -0.3428 -0.1481
 2078W        W 3075   6.066   4.115   4.048 -0.4325  0.0652 -0.3118
 2079W        W 3076   1.737   1.839   6.596 -0.2685  0.3342  0.1529
 2080W        W 3077   4.017   3.718   6.087  0.0142 -0.1732 -0.1865
 2081W        W 3078   0.412   1.227   6.752  0.1990 -0.0798  0.0077
 2082W        W 3079   6.004   1.145   3.813 -0.1880  0.0703  0.2001
 2083W        W 3080   4.455   1.916   7.303  0.3481  0.1298  0.0964
 2084W        W 3081   5.493   0.072   5.769 -0.0880 -0.1863 -0.1272
 2085W        W 3082   4.075   3.192   3.601  0.2580  0.0771 -0.0818
 2086W        W 3083   3.803   0.103   4.529 -0.3974 -0.1847 -0.1489
 2087W        W 3084   1.389   4.133   1.094  0.0980  0.0402 -0.2024
 2088W        W 3085   4.158   4.374   5.609 -0.0572 -0.0439 -0.0047
 2089W        W 3086   0.787   5.167   3.355 -0.0560  0.0257  0.0880
 2090W        W 3087   1.431   5.303   4.928  0.2898  0.0248 -0.0241
 2091W        W 3088   6.110   1.688   6.366  0.0125  0.0277  0.2910
 2092W        W 3089   3.913   0.219   5.042 -0.2507 -0.1237 -0.0254
 2093W        W 3090   7.494   3.050   4.072  0.2602  0.2317 -0.0253
 2094W        W 3091   2.764   1.937   3.288 -0.0151  0.0106  0.0839
 2095W        W 3092   6.323   3.929   3.629 -0.1045 -0.0425  0.0098
 2096W        W 3093   5.035   6.316   5.809 -0.1098 -0.0580 -0.0400
 2097W        W 3094   0.842   4.484   4.228 -0.2401 -0.2156 -0.0450
 2098W        W 3095   2.876   0.210   4.804  0.1205  0.1572 -0.0119
 2099W        W 3096   4.183   6.069   6.800  0.1748  0.1505 -0.1289
 2100W        W 3097   6.948   6.045   1.003 -0.2850  0.1353 -0.2915
 2101W        W 3098   2.312   4.843   5.766 -0.0487  0.0401  0.0065
 2102W        W 3099   7.194   6.086   4.343  0.1647 -0.0660 -0.0390
 2103W        W 3100   0.658   2.482   3.445  0.4561  0.1203 -0.1769
 2104W        W 3101   2.929   2.502   1.505  0.1211  0.1734 -0.1863
 2105W        W 3102   2.745   2.042   6.413  0.0011 -0.2270  0.0193
 2106W        W 3103   7.204   7.090   4.086  0.1105 -0.1038 -0.0191
 2107W        W 3104   6.937   6.843   0.063  0.1383 -0.3483  0.3055
 2108W        W 3105   5.420   0.884   4.392 -0.0575  0.0133 -0.3276
 2109W        W 3106   4.390   0.147   3.580 -0.1888  0.1346 -0.1142
 2110W        W 3107   5.621   0.043   4.712 -0.1233  0.0332  0.1029
 2111W        W 3108   1.455   0.242   4.918  0.1637  0.1309  0.0526
 2112W        W 3109   2.507   1.490   0.051  0.0271 -0.1154  0.3784
 2113W        W 3110   6.568   6.892   7.339 -0.2867 -0.2869  0.0199
 2114W        W 3111   5.418   0.305   5.310 -0.1363  0.1581 -0.2525
 2115W        W 3112   6.211   7.269   5.388 -0.1402 -0.1578  0.0348
 2116W        W 3113   1.381   1.576   1.099 -0.0429 -0.1515  0.0172
 2117W        W 3114   4.274   3.632   5.172  0.1304 -0.1226  0.1844
 2118W        W 3115   2.499   3.109   5.381 -0.2219  0.1501 -0.1464
 2119W        W 3116   3.816   0.830   3.747 -0.3243 -0.0567 -0.2230
 2120W        W 3117   5.458   2.511   2.324  0.2967  0.3475 -0.2684
 2121W        W 3118   4.137   1.857   6.464 -0.0768  0.2260 -0.2243
 2122W        W 3119   6.059   1.060   0.814  0.0795 -0.3624 -0.2672
 2123W        W 3120   4.509   6.953   4.572 -0.1227 -0.1106  0.2774
 2124W        W 3121   4.332   6.551   6.658  0.0952 -0.0967  0.0096
 2125W        W 3122   7.039   4.280   4.301 -0.3016  0.0177 -0.2529
 2126W        W 3123   3.138   7.612   4.425  0.1963 -0.1899 -0.2273
 2127W        W 3124   7.131   3.641   3.229 -0.1803 -0.0646 -0.1064
 2128W        W 3125   0.914   2.108   1.747 -0.1400 -0.0840  0.0349
 2129W        W 3126   5.192   1.767   3.558 -0.1428 -0.0773  0.1399
 2130W        W 3127   0.450   2.077   3.770  0.1123  0.0585  0.0570
 2131W        W 3128   4.536   7.022   5.389  0.2938  0.0511  0.2702
 2132W        W 3129   3.157   3.135   4.425  0.3283  0.2122 -0.0956
 2133W        W 3130   2.931   5.255   4.496  0.2434 -0.1830  0.1577
 2134W        W 3131   1.735   0.814   0.805 -0.4039  0.0310 -0.1636
 2135W        W 3132   7.145   6.712   5.355 -0.1756 -0.2475  0.1615
 2136W        W 3133   3.802   2.361   0.530 -0.2118  0.0225 -0.0167
 2137W        W 3134   3.153   2.858   5.380 -0.0422  0.0510  0.1114
 2138W        W 3135   5.602   2.810   0.578  0.2859  0.0822  0.3015
 2139W        W 3136   2.723   2.870   5.840  0.1614  0.0971  0.1049
 2140W        W 3137   3.978   6.874   6.662 -0.2268 -0.0820  0.2390
 2141W        W 3138   5.763   2.422   6.832 -0.3011  0.0919 -0.0991
 2142W        W 3139   0.485   4.150   5.648  0.1390  0.0603  0.0092
 2143W        W 3140   0.470   5.229   2.922  0.0955 -0.3192 -0.3376
 2144W        W 3141   2.543   1.591   6.381  0.1246  0.1951 -0.1753
 2145W        W 3142   0.441   6.446   4.549  0.2615 -0.0747  0.0970
 2146W        W 3143   0.174   7.478   6.578 -0.1813 -0.1737  0.0315
 2147W        W 3144   1.602   3.987   6.454 -0.0356  0.2784 -0.0427
 2148W        W 3145   3.288   0.964   5.466 -0.1820  0.2534 -0.1031
 2149W        W 3146   7.580   4.202   4.111 -0.2089  0.2510 -0.4281
 2150W        W 3147   0.207   5.227   4.258  0.0870  0.1093  0.1931
 2151W        W 3148   6.224   4.712   3.982  0.2452  0.1591  0.3262
 2152W        W 3149   3.077   7.234   7.245  0.2856 -0.2387 -0.0227
 2153W        W 3150   7.077   5.579   4.614 -0.1610 -0.1666 -0.0864
 2154W        W 3151   2.663   1.038   6.538 -0.2504  0.1025  0.1242
 2155W        W 3152   4.207   1.981   1.866 -0.2774 -0.1486 -0.2679
 2156W        W 3153   4.758   0.563   5.960  0.0412  0.3054  0.2960
 2157W        W 3154   3.695   0.641   4.681 -0.1422 -0.0396 -0.2020
 2158W        W 3155   1.922   2.062   5.867  0.1361 -0.0801  0.2980
 2159W        W 3156   3.994   1.807   7.614  0.1413  0.2806  0.2419
 2160W        W 3157   4.025   1.231   1.493  0.3374  0.2551  0.0510
 2161W        W 3158   2.473   6.526   4.768  0.3182 -0.1298  0.1842
 2162W        W 3159   6.329   0.786   3.854  0.3321 -0.3784 -0.0152
 2163W        W 3160   0.867   1.288   6.520  0.0370 -0.1601 -0.0718
 2164W        W 3161   4.393   7.220   4.042  0.3985 -0.0502  0.0468
 2165W        W 3162   3.950   5.514   3.663  0.0859 -0.0161  0.2316
 2166W        W 3163   0.646   5.370   4.483 -0.2171  0.1920 -0.4495
 2167W        W 3164   0.857   1.703   2.524  0.1206  0.0971  0.1557
 2168W        W 3165   6.981   1.485   2.701  0.0569 -0.0906  0.1232
 2169W        W 3166   3.943   1.773   5.633 -0.2833 -0.2170  0.1238
 2170W        W 3167   3.369   1.476   7.485 -0.0521  0.0455 -0.3131
 2171W        W 3168   5.493   0.927   5.717 -0.2106  0.1361 -0.0798
 2172W        W 3169   4.788   5.381   0.090 -0.1202  0.0895 -0.0331
 2173W        W 3170   1.564   5.669   6.548 -0.1164  0.2075  0.1433
 2174W        W 3171   0.597   0.630   0.367 -0.2563  0.1357  0.0969
 2175W        W 3172   5.273   1.478   2.417  0.2136  0.2757 -0.3766
 2176W        W 3173   5.942   4.267   2.717 -0.2317 -0.1253  0.2716
 2177W        W 3174   6.277   2.713   0.731  0.3254  0.1698  0.1924
 2178W        W 3175   4.637   6.872   5.860 -0.2342 -0.1851  0.1231
 2179W        W 3176   2.923   2.709   0.498 -0.2440 -0.2107  0.1084
 2180W        W 3177   3.929   4.742   6.172 -0.2011  0.1438 -0.2734
 2181W        W 3178   1.910   6.569   5.497 -0.0223  0.1322 -0.0458
 2182W        W 3179   2.445   0.256   6.884 -0.1602 -0.0396 -0.0217
 2183W        W 3180   4.943   1.600   0.069 -0.0161 -0.2153 -0.0233
 2184W        W 3181   4.708   3.094   5.071 -0.1586 -0.2217 -0.1090
 2185W        W 3182   0.987   4.935   5.707  0.0886  0.1811  0.1076
 2186W        W 3183   7.070   5.511   7.633 -0.2813 -0.1120  0.2346
 2187W        W 3184   5.561   4.966   6.528  0.0009 -0.1474  0.0000
 2188W        W 3185   5.655   2.133   1.863  0.1669  0.1028  0.2066
 2189W        W 3186   0.740   1.290   4.370  0.2531 -0.1262  0.2279
 2190W        W 3187   3.663   6.794   4.397  0.1209 -0.0028  0.0321
 2191W        W 3188   1.410   0.084   5.375  0.1049 -0.2730 -0.3369
 2192W        W 3189   0.579   6.539   7.459  0.0066 -0.1904  0.0316
 2193W        W 3190   3.290   3.336   1.590  0.0526  0.1426 -0.3435
 2194W        W 3191   1.063   2.193   3.369 -0.0633 -0.2466  0.2650
 2195W        W 3192   0.551   1.062   0.611 -0.2877  0.2572 -0.1482
 2196W        W 3193   4.581   4.359   1.379 -0.2553 -0.0201  0.0048
 2197W        W 3194   0.523   5.802   7.170  0.0747  0.1046 -0.2505
 2198W        W 3195   5.612   3.325   5.604  0.4650  0.2268  0.1184
 2199W        W 3196   7.370   4.506   4.664 -0.2520  0.0096  0.1865
 2200W        W 3197   1.852   3.045   4.557 -0.2122 -0.1780  0.3666
 2201W        W 3198   2.911   5.913   0.080 -0.0974 -0.0708 -0.2305
 2202W        W 3199   2.912   4.383   6.063 -0.3595 -0.1287  0.2361
 2203W        W 3200   2.163   4.803   0.088 -0.2707  0.0290  0.1392
 2204W        W 3201   1.344   2.490   5.281 -0.2777 -0.3071  0.0333
 2205W        W 3202   1.861   0.764   5.717  0.1918  0.0231 -0.0073
 2206W        W 3203   0.691   3.789   6.624 -0.0292 -0.2693 -0.1141
 2207W        W 3204   5.883   5.906   2.146  0.1965  0.2156 -0.0756
 2208W        W 3205   5.726   5.360   6.233  0.1640  0.1703 -0.1353
 2209W        W 3206   3.588   5.406   7.516  0.1874 -0.1870  0.4244
 2210W        W 3207   1.177   6.199   5.404 -0.0464  0.1957 -0.2006
 2211W        W 3208   0.866   4.600   6.222 -0.0807 -0.0937 -0.2552
 2212W        W 3209   3.471   4.006   2.332 -0.0944  0.0662 -0.5148
 2213W        W 3210   6.400   3.189   0.679 -0.2057 -0.0465 -0.0400
 2214W        W 3211   5.392   1.245   7.321  0.0764 -0.0582  0.0587
 2215W        W 3212   7.371   4.480   7.489 -0.0449 -0.0862  0.1131
 2216W        W 3213   0.522   4.885   4.339 -0.3805 -0.0462 -0.1712
 2217W        W 3214   4.996   0.791   5.167 -0.2793  0.0658  0.1110
 2218W        W 3215   2.144   2.712   4.662 -0.3509  0.0446  0.2476
 2219W        W 3216   0.097   3.596   4.593 -0.0561 -0.0154  0.2029
 2220W        W 3217   0.354   5.191   6.502  0.1573 -0.0329  0.1128
 2221W        W 3218   3.942   7.042   5.318  0.2036 -0.0675 -0.2318
 2222W        W 3219   4.132   0.853   1.172 -0.1748  0.1021  0.1880
 2223W        W 3220   2.935   6.623   5.513  0.1221  0.3774  0.0781
 2224W        W 3221   5.956   0.251   0.246 -0.2955  0.0046 -0.2141
 2225W        W 3222   2.307   1.547   1.041 -0.0725 -0.1659  0.3194
 2226W        W 3223   1.969   3.801   7.637 -0.1115 -0.1081 -0.0004
 2227W        W 3224   7.042   3.724   2.360  0.1510  0.2607  0.0816
 2228W        W 3225   6.537   3.752   2.292 -0.0422 -0.1505  0.0068
 2229W        W 3226   3.913   0.887   5.576 -0.0754  0.3541 -0.1830
 2230W        W 3227   4.945   3.853   0.077 -0.0167  0.1085 -0.1466
 2231W        W 3228   6.020   7.098   6.611 -0.1665 -0.0400  0.0277
 2232W        W 3229   6.038   1.251   5.997 -0.0950 -0.3019  0.0570
 2233W        W 3230   1.070   4.847   2.162 -0.1415  0.1214 -0.0911
 2234W        W 3231   2.266   5.764   0.933  0.2103  0.1496  0.2603
 2235W        W 3232   1.523   2.988   1.254  0.2363 -0.1639  0.2051
 2236W        W 3233   2.632   7.550   0.389 -0.1029  0.1392 -0.0111
 2237W        W 3234   0.896   0.033   6.026  0.3946  0.3254  0.2368
 2238W        W 3235   3.330   3.219   1.100 -0.0147  0.0619  0.1121
 2239W        W 3236   3.155   4.368   5.609 -0.1605 -0.2615 -0.1683
 2240W        W 3237   6.487   5.041   6.049 -0.1822  0.3233 -0.3838
 2241W        W 3238   4.000   2.970   7.112 -0.4079 -0.0845  0.0336
 2242W        W 3239   5.422   3.103   3.023 -0.2285  0.0425 -0.1152
 2243W        W 3240   3.095   7.108   5.392  0.1465 -0.1038  0.2619
 2244W        W 3241   4.061   0.885   2.367  0.0194  0.1050  0.1284
 2245W        W 3242   0.782   1.333   3.847  0.1519 -0.0416  0.2970
 2246W        W 3243   1.478   4.230   0.480  0.2283  0.1146  0.2388
 2247W        W 3244   1.897   2.042   0.338  0.1658 -0.0032  0.1252
 2248W        W 3245   3.376   5.895   7.557  0.1386 -0.0643 -0.2540
 2249W        W 3246   3.182   2.191   4.173 -0.0661 -0.0368 -0.0783
 2250W        W 3247   3.214   2.548   3.796 -0.4534  0.0605  0.1603
 2251W        W 3248   2.482   5.629   7.096 -0.0727 -0.1975  0.0819
 2252W        W 3249   2.012   2.231   4.852  0.0969  0.0822 -0.1330
 2253W        W 3250   2.426   3.420   4.564  0.1144 -0.0376 -0.2032
 2254W        W 3251   5.910   5.101   4.280  0.1198  0.1863  0.0897
 2255W        W 3252   4.102   5.785   5.736  0.1063  0.3810 -0.4636
 2256W        W 3253   4.122   7.623   6.057  0.1800 -0.0933  0.1053
 2257W        W 3254   3.547   2.403   0.974 -0.0382  0.0381 -0.1980
 2258W        W 3255   4.930   1.927   1.343  0.0049 -0.0364 -0.0813
 2259W        W 3256   3.032   1.382   6.548 -0.1377  0.0903  0.1101
 2260W        W 3257   0.278   2.997   0.587  0.0857 -0.0254  0.1520
 2261W        W 3258   3.323   3.916   3.007  0.1598  0.2871  0.2337
 2262W        W 3259   6.015   4.424   1.782  0.1660  0.1769  0.1374
 2263W        W 3260   1.718   5.016   0.957 -0.0729 -0.2694  0.3622
 2264W        W 3261   6.625   5.337   3.345  0.2576  0.0763  0.3064
 2265W        W 3262   7.009   2.480   1.087 -0.0964 -0.1385  0.1305
 2266W        W 3263   2.778   2.361   5.824  0.1699  0.1048  0.2468
 2267W        W 3264   6.682   1.214   6.049  0.3220 -0.2086  0.1636
 2268W        W 3265   5.519   6.204   1.911  0.1247 -0.1208 -0.0717
 2269W        W 3266   4.889   3.149   3.890 -0.3178  0.4670 -0.0989
 2270W        W 3267   4.804   6.526   6.906  0.1124 -0.0014 -0.1129
 2271W        W 3268   4.802   2.183   7.590  0.2619  0.1348  0.1436
 2272W        W 3269   3.937   2.938   6.423  0.4273  0.0803  0.1899
 2273W        W 3270   6.950   6.677   7.147 -0.3237 -0.0007  0.4016
 2274W        W 3271   4.386   5.821   6.133 -0.3155 -0.0306  0.0260
 2275W        W 3272   5.207   1.482   6.942  0.1436  0.2061 -0.3846
 2276W        W 3273   3.636   1.965   4.059 -0.1368  0.0767  0.0783
 2277W        W 3274   2.369   3.917   0.316  0.0471  0.2509  0.0757
 2278W        W 3275   7.438   1.577   2.557  0.1071  0.0265  0.0876
 2279W        W 3276   1.790   2.839   3.058  0.1067  0.0397 -0.2698
 2280W        W 3277   5.628   0.784   5.214 -0.3443  0.1058 -0.1458
 2281W        W 3278   6.547   0.579   0.241  0.2741 -0.2542 -0.2128
 2282W        W 3279   1.010   3.213   1.246  0.0946 -0.0502  0.0387
 2283W        W 3280   5.308   4.071   5.910  0.0798  0.0409  0.0655
 2284W        W 3281   7.136   1.370   4.242 -0.3383  0.1767  0.0877
 2285W        W 3282   3.087   5.712   0.775  0.4003  0.1865 -0.0130
 2286W        W 3283   2.617   1.293   4.066 -0.1094 -0.1094  0.0701
 2287W        W 3284   3.856   4.970   0.061 -0.2675  0.2162  0.1551
 2288W        W 3285   1.862   2.684   4.144  0.0318 -0.0687 -0.3820
 2289W        W 3286   1.415   3.944   5.961  0.0998  0.0470  0.3459
 2290W        W 3287   2.045   6.777   0.770 -0.0292  0.1193  0.2600
 2291W        W 3288   6.885   0.994   2.652 -0.1498 -0.3369 -0.0024
 2292W        W 3289   7.568   2.358   3.683  0.0791  0.1262  0.1876
 2293W        W 3290   5.935   1.636   4.001  0.0303 -0.0609  0.2215
 2294W        W 3291   0.625   4.828   0.356 -0.5474 -0.1301  0.1519
 2295W        W 3292   5.011   4.154   3.914 -0.3232  0.0253  0.1819
 2296W        W 3293   2.279   4.978   6.670  0.0841 -0.2506  0.0801
 2297W        W 3294   3.908   1.761   1.540 -0.0104  0.1288  0.0640
 2298W        W 3295   0.229   3.204   1.671 -0.0383 -0.1128  0.4327
 2299W        W 3296   5.975   0.802   6.821  0.3336  0.1746 -0.2011
 2300W        W 3297   2.330   2.824   2.253  0.2021  0.3840 -0.0912
 2301W        W 3298   3.764   0.533   1.065  0.5436 -0.2912 -0.0378
 2302W        W 3299   0.096   0.724   4.926 -0.3259  0.0730  0.3334
 2303W        W 3300   2.609   1.573   1.889  0.1361  0.1494 -0.0895
 2304W        W 3301   1.177   4.718   1.708 -0.2397 -0.0845  0.0087
 2305W        W 3302   7.630   0.524   4.176 -0.1020 -0.1289  0.0062
 2306W        W 3303   3.133   2.862   1.816 -0.0958  0.2166 -0.0902
 2307W        W 3304   2.960   5.602   6.241 -0.0470  0.2177  0.0578
 2308W        W 3305   3.989   2.121   3.582 -0.0059 -0.0587 -0.0220
 2309W        W 3306   4.267   3.704   2.675  0.3968 -0.2931  0.2004
 2310W        W 3307   7.119   5.644   4.037 -0.1281  0.1305  0.0010
 2311W        W 3308   5.254   1.003   3.883  0.3937  0.3665  0.0435
 2312W        W 3309   5.513   5.453   5.649 -0.2107 -0.1928 -0.0769
 2313W        W 3310   0.412   2.304   1.833 -0.2697 -0.1322  0.2107
 2314W        W 3311   3.647   6.474   4.790  0.1378 -0.0011 -0.1700
 2315W        W 3312   1.119   3.869   3.023 -0.0536 -0.0362  0.1903
 2316W        W 3313   3.983   2.230   7.179  0.0353 -0.3244  0.1084
 2317W        W 3314   3.419   2.297   2.977 -0.0720 -0.0860 -0.1326
 2318W        W 3315   3.468   3.799   3.900 -0.2456  0.0830  0.1275
 2319W        W 3316   7.449   2.606   4.739 -0.2595 -0.2596 -0.3474
 2320W        W 3317   5.275   4.303   7.419 -0.0786  0.0750  0.0099
 2321W        W 3318   6.475   5.073   0.280  0.1898  0.1169  0.0742
 2322W        W 3319   4.033   1.564   1.028  0.1284  0.1165 -0.0551
 2323W        W 3320   7.116   5.279   5.944 -0.1849  0.0983 -0.0391
 2324W        W 3321   2.472   4.376   0.555  0.1795 -0.0809 -0.0958
 2325W        W 3322   5.040   6.430   6.453  0.0627  0.2119 -0.1633
 2326W        W 3323   6.109   3.674   0.493  0.1772 -0.0697  0.0460
 2327W        W 3324   5.646   7.026   7.447 -0.0571  0.0354 -0.0566
 2328W        W 3325   6.665   4.118   7.017  0.1202  0.1269 -0.0290
 2329W        W 3326   3.088   6.240   3.969  0.0340 -0.0971 -0.0880
 2330W        W 3327   6.713   2.155   2.082 -0.3672 -0.1462 -0.1747
 2331W        W 3328   3.288   3.824   0.297 -0.1552  0.0933  0.0507
 2332W        W 3329   6.463   5.318   0.660  0.0661 -0.2304 -0.1855
 2333W        W 3330   1.633   4.958   2.317 -0.0379 -0.0699  0.0465
 2334W        W 3331   5.925   0.438   4.612  0.2155  0.2160  0.1617
 2335W        W 3332   6.253   6.668   4.173  0.1033 -0.0472 -0.0793
 2336W        W 3333   1.308   1.113   5.757  0.2360  0.4399  0.1843
 2337W        W 3334   6.510   0.927   1.981  0.1255  0.0826  0.0740
 2338W        W 3335   1.949   5.435   1.182  0.2002 -0.3373 -0.2706
 2339W        W 3336   3.380   4.144   0.642 -0.1682 -0.0228  0.3458
 2340W        W 3337   0.905   2.716   2.849  0.1475  0.5064  0.1136
 2341W        W 3338   1.525   2.645   4.558 -0.0513 -0.0404 -0.0439
 2342W        W 3339   6.077   4.715   1.326 -0.0991 -0.1223  0.2478
 2343W        W 3340   0.046   3.064   4.537  0.3438 -0.1557 -0.1062
 2344W        W 3341   2.052   5.942   6.630  0.1292  0.0485 -0.1252
 2345W        W 3342   4.450   2.538   5.497  0.1341 -0.0458  0.0194
 2346W        W 3343   6.123   0.346   6.007 -0.2218  0.0252  0.0879
 2347W        W 3344   5.395   3.942   0.867 -0.3628 -0.1700 -0.0580
 2348W        W 3345   0.558   3.416   1.305  0.0370  0.0793  0.2017
 2349W        W 3346   1.669   4.821   4.858 -0.0033 -0.0704  0.0709
 2350W        W 3347   4.014   6.875   3.772  0.0303  0.0454  0.0014
 2351W        W 3348   3.113   2.088   1.141  0.1531  0.2060  0.3468
 2352W        W 3349   6.677   3.638   1.413  0.0992 -0.2829 -0.0256
 2353W        W 3350   4.855   5.470   6.956  0.0371 -0.2384  0.0696
 2354W        W 3351   3.541   6.667   0.678  0.0776  0.3000  0.2031
 2355W        W 3352   4.833   3.414   1.479 -0.3715 -0.1883  0.0650
 2356W        W 3353   2.768   4.172   4.256  0.4378  0.1342 -0.3760
 2357W        W 3354   0.835   3.151   4.360 -0.3623  0.3027  0.0409
 2358W        W 3355   6.842   5.148   7.385 -0.0284  0.0582 -0.0281
 2359W        W 3356   2.270   1.400   3.643  0.1344  0.0615  0.0190
 2360W        W 3357   0.431   2.344   0.428  0.0561 -0.2546 -0.1320
 2361W        W 3358   5.842   1.246   3.026 -0.0018 -0.0832  0.1586
 2362W        W 3359   6.843   3.909   5.181 -0.1023  0.4606  0.0335
 2363W        W 3360   1.352   1.228   0.099 -0.0175 -0.1537 -0.0004
 2364W        W 3361   3.200   4.572   3.523 -0.0800 -0.1086  0.2218
 2365W        W 3362   7.122   2.531   3.371  0.2672 -0.2455 -0.0784
 2366W        W 3363   0.120   4.155   7.582  0.2108  0.1202  0.2436
 2367W        W 3364   5.679   6.524   4.139  0.1356 -0.1223  0.1645
 2368W        W 3365   0.146   3.313   3.721 -0.0469  0.3452 -0.2247
 2369W        W 3366   3.447   1.914   0.219  0.1514 -0.0363  0.1290
 2370W        W 3367   7.214   1.574   4.776  0.0500  0.1363 -0.2565
 2371W        W 3368   1.862   1.285   1.164 -0.0302 -0.0515  0.0611
 2372W        W 3369   4.203   3.387   2.160 -0.3393 -0.0578 -0.2001
 2373W        W 3370   3.639   3.803   5.298  0.1744 -0.0702  0.1417
 2374W        W 3371   7.548   5.982   3.941 -0.0154 -0.1081 -0.0129
 2375W        W 3372   1.407   7.100   6.453  0.3907 -0.0407  0.1227
 2376W        W 3373   6.031   5.082   3.766 -0.0245 -0.2816  0.1570
 2377W        W 3374   0.338   1.511   3.660  0.5847  0.0542 -0.6172
 2378W        W 3375   3.538   1.247   3.907  0.0564  0.0336  0.0598
 2379W        W 3376   0.273   2.341   2.329  0.1084 -0.3027  0.1086
 2380W        W 3377   1.116   1.837   0.698  0.2720 -0.0470  0.0390
 2381W        W 3378   7.275   6.366   6.849 -0.0045 -0.0869  0.1491
 2382W        W 3379   5.333   1.192   1.992  0.0297  0.1149 -0.0740
 2383W        W 3380   6.527   7.498   6.819  0.1440 -0.0765  0.3518
 2384W        W 3381   1.234   3.702   6.737  0.0791  0.2749  0.1652
 2385W        W 3382   1.457   5.575   1.084 -0.0381 -0.2946  0.1598
 2386W        W 3383   6.469   3.148   3.968 -0.0706  0.0828 -0.1233
 2387W        W 3384   5.095   3.453   0.391 -0.2546  0.1183 -0.0925
 2388W        W 3385   7.493   1.388   3.339 -0.0310  0.0983  0.2833
 2389W        W 3386   2.535   4.293   1.055  0.0260  0.0222 -0.1211
 2390W        W 3387   0.143   4.940   5.623 -0.0117  0.0885  0.1231
 2391W        W 3388   1.872   0.141   7.396  0.1496 -0.0106 -0.0363
 2392W        W 3389   1.450   0.564   5.505 -0.1937 -0.0223 -0.0948
 2393W        W 3390   2.012   2.445   0.561  0.0126  0.1060  0.1863
 2394W        W 3391   1.865   3.866   0.517 -0.1570  0.3580 -0.3424
 2395W        W 3392   1.834   6.139   0.074 -0.1670  0.1490  0.0741
 2396W        W 3393   0.622   0.499   6.085  0.1265 -0.0197 -0.0256
 2397W        W 3394   0.619   6.768   6.920  0.0153  0.2830 -0.0669
 2398W        W 3395   6.426   0.031   0.280 -0.1120 -0.2479 -0.2005
 2399W        W 3396   5.062   3.579   0.980  0.3175  0.1410 -0.2241
 2400W        W 3397   2.448   0.766   6.915 -0.2792  0.1673 -0.3214
 2401W        W 3398   2.277   5.624   5.061 -0.2542  0.2510  0.0500
 2402W        W 3399   0.308   5.784   3.705 -0.2042  0.0429  0.0140
 2403W        W 3400   7.419   5.173   3.969  0.0072 -0.0536 -0.2122
 2404W        W 3401   4.557   1.635   5.219  0.1368 -0.1544 -0.0867
 2405W        W 3402   3.129   1.601   0.536 -0.3841 -0.0401 -0.2848
 2406W        W 3403   7.067   4.640   2.843 -0.1112 -0.0450  0.1092
 2407W        W 3404   0.750   2.977   7.097 -0.2267  0.0622  0.3236
 2408W        W 3405   6.298   4.454   5.405 -0.5019  0.1799  0.0989
 2409W        W 3406   1.982   5.234   4.034 -0.1427  0.1295 -0.0177
 2410W        W 3407   4.363   5.073   5.870  0.2322 -0.2795  0.2468
 2411W        W 3408   1.406   0.109   7.022 -0.0588  0.0625 -0.2438
 2412W        W 3409   7.464   3.090   0.547 -0.2089 -0.1861  0.2167
 2413W        W 3410   5.865   3.274   0.653  0.1340  0.0516 -0.1229
 2414W        W 3411   0.036   6.921   5.591  0.2171 -0.0565  0.3627
 2415W        W 3412   6.092   3.988   5.768  0.0911  0.3990  0.1267
 2416W        W 3413   6.802   7.376   5.518 -0.1588 -0.1791  0.1587
 2417W        W 3414   7.542   1.004   5.377 -0.1103  0.2906  0.0367
 2418W        W 3415   7.392   2.136   2.760  0.2681 -0.0872  0.3261
 2419W        W 3416   4.750   1.383   3.031  0.0238 -0.3645 -0.0815
 2420W        W 3417   5.570   2.184   1.094 -0.0520  0.4821  0.1910
 2421W        W 3418   5.315   3.221   0.787 -0.4593  0.0845  0.4880
 2422W        W 3419   0.574   4.645   5.817  0.3383 -0.0803 -0.1428
 2423W        W 3420   4.177   2.595   6.826  0.1015 -0.2229  0.0780
 2424W        W 3421   5.977   2.822   7.308  0.1188 -0.0748 -0.1415
 2425W        W 3422   1.594   2.386   7.143  0.1475 -0.2543  0.0966
 2426W        W 3423   6.912   3.841   2.821  0.2963 -0.2207 -0.2264
 2427W        W 3424   6.967   3.254   4.095  0.3253 -0.1762  0.2592
 2428W        W 3425   0.665   2.864   4.740 -0.2196 -0.0884  0.1405
 2429W        W 3426   5.020   3.241   5.603  0.1325  0.1003  0.0221
 2430W        W 3427   4.324   3.691   3.346 -0.0129  0.1760  0.0651
 2431W        W 3428   2.259   0.993   7.346 -0.1505 -0.3298  0.2355
 2432W        W 3429   0.833   5.100   1.799 -0.1828  0.0242 -0.0997
 2433W        W 3430   5.841   5.935   3.396 -0.4209 -0.0768 -0.3307
 2434W        W 3431   0.175   4.772   6.187 -0.0877  0.0061 -0.0090
 2435W        W 3432   3.464   7.587   6.989 -0.1896 -0.1903  0.0588
 2436W        W 3433   6.897   5.620   6.763  0.0658 -0.1274 -0.1409
 2437W        W 3434   6.411   5.693   2.147  0.1351 -0.4164 -0.0914
 2438W        W 3435   0.617   3.224   7.480  0.1271 -0.1131 -0.3805
 2439W        W 3436   2.285   6.959   6.331  0.5408 -0.2666 -0.2300
 2440W        W 3437   2.699   3.292   6.395 -0.0493 -0.1263 -0.3188
 2441W        W 3438   0.524   0.864   5.748  0.1346  0.1059 -0.1174
 2442W        W 3439   5.158   3.851   7.244 -0.0748  0.0751 -0.2131
 2443W        W 3440   5.684   5.309   1.623 -0.1020  0.0569  0.0007
 2444W        W 3441   1.093   4.370   0.805  0.0253  0.2788  0.5236
 2445W        W 3442   0.661   2.547   6.766 -0.1237 -0.0532  0.1541
 2446W        W 3443   3.729   6.027   5.158 -0.0685 -0.2975  0.0799
 2447W        W 3444   6.538   4.000   5.556 -0.2782 -0.0613  0.4274
 2448W        W 3445   3.208   0.566   0.009 -0.4922 -0.1281  0.1502
 2449W        W 3446   0.583   4.513   7.620  0.0342 -0.0276 -0.0653
 2450W        W 3447   0.299   5.234   3.758  0.0356  0.1430 -0.1116
 2451W        W 3448   2.469   6.849   0.022  0.0830  0.0300 -0.0787
 2452W        W 3449   0.396   2.975   3.372  0.1108  0.2937  0.0647
 2453W        W 3450   4.090   2.339   2.265  0.0643  0.6185  0.2835
 2454W        W 3451   6.730   1.518   3.961 -0.0138 -0.0535  0.0091
 2455W        W 3452   2.952   2.157   4.611 -0.3776 -0.2739  0.1391
 2456W        W 3453   5.428   3.285   4.346 -0.1543  0.3086 -0.2134
 2457W        W 3454   4.053   5.084   2.992 -0.5137  0.2585 -0.1186
 2458W        W 3455   0.386   2.768   4.377 -0.1171  0.0783  0.1950
 2459W        W 3456   7.349   6.261   4.862  0.0189 -0.0847  0.0006
 2460W        W 3457   2.192   1.470   2.668  0.0942 -0.3112 -0.0968
 2461W        W 3458   6.294   4.571   5.962 -0.0135 -0.1295  0.2174
 2462W        W 3459   4.593   5.632   4.839 -0.0927 -0.2007  0.2091
 2463W        W 3460   5.579   1.107   3.447  0.0241 -0.2536 -0.2681
 2464W        W 3461   5.421   2.152   3.343  0.2010  0.0714 -0.0622
 2465W        W 3462   5.216   2.545   0.169  0.0591 -0.1286 -0.2658
 2466W        W 3463   0.312   1.373   5.543 -0.1766 -0.0452  0.1748
 2467W        W 3464   2.591   0.664   6.056 -0.1114 -0.3041 -0.0142
 2468W        W 3465   1.544   3.466   6.222 -0.1336 -0.0228 -0.2056
 2469W        W 3466   0.926   6.755   5.638  0.1014 -0.0069 -0.1958
 2470W        W 3467   5.224   7.231   7.363 -0.0791  0.1039 -0.0360
 2471W        W 3468   7.410   4.340   6.201 -0.1907 -0.3024 -0.1621
 2472W        W 3469   1.592   2.819   1.852 -0.0387  0.2430 -0.0402
 2473W        W 3470   6.241   2.720   4.671  0.2761 -0.2330  0.4139
 2474W        W 3471   3.198   3.088   0.381  0.0481  0.0238 -0.2258
 2475W        W 3472   3.238   1.856   3.121 -0.1940  0.0905  0.1266
 2476W        W 3473   1.423   1.945   6.996 -0.2047  0.1319  0.1716
 2477W        W 3474   2.209   2.218   4.307  0.0104  0.1573 -0.0719
 2478W        W 3475   1.395   3.781   0.233  0.0417 -0.1137 -0.2155
 2479W        W 3476   0.827   7.072   6.545 -0.2208 -0.1313 -0.2711
 2480W        W 3477   3.441   4.673   0.756 -0.1736 -0.2704 -0.1671
 2481W        W 3478   5.795   4.219   6.187 -0.1885  0.2311  0.3480
 2482W        W 3479   3.691   1.055   1.073 -0.1184 -0.0396 -0.0970
 2483W        W 3480   5.238   6.417   5.322  0.1111  0.2111 -0.0233
 2484W        W 3481   4.917   2.767   5.466 -0.0889  0.1569 -0.3106
 2485W        W 3482   4.945   5.028   5.676  0.0300  0.0362  0.2868
 2486W        W 3483   4.149   0.452   0.159 -0.2480 -0.0692 -0.3634
 2487W        W 3484   5.879   0.384   6.545  0.3397 -0.1664 -0.0356
 2488W        W 3485   1.002   4.038   4.120  0.2213 -0.0538  0.1337
 2489W        W 3486   6.835   5.329   2.341  0.0405  0.0937 -0.0043
 2490W        W 3487   2.128   0.693   0.510 -0.0117  0.1500  0.1299
 2491W        W 3488   6.696   2.694   2.100 -0.1804 -0.1535  0.1467
 2492W        W 3489   4.586   2.067   6.311  0.1836 -0.1591  0.0647
 2493W        W 3490   3.266   4.979   4.784  0.0486 -0.0496 -0.0232
 2494W        W 3491   6.710   5.971   4.084  0.2695  0.1384  0.1638
 2495W        W 3492   4.460   3.704   6.886 -0.0796 -0.5161  0.1384
 2496W        W 3493   7.180   4.638   0.539  0.0111  0.1667 -0.1194
 2497W        W 3494   5.048   1.502   3.976 -0.1846  0.2429  0.0030
 2498W        W 3495   4.895   7.330   6.424  0.1153 -0.1907  0.2225
 2499W        W 3496   1.805   1.900   2.876  0.1619  0.1543  0.1773
 2500W        W 3497   6.224   3.502   1.029  0.3512 -0.1303  0.1823
 2501W        W 3498   2.469   3.452   3.069  0.2032 -0.0162  0.2228
 2502W        W 3499   3.023   3.614   6.110 -0.0609  0.2779  0.2541
 2503W        W 3500   5.684   5.707   4.755 -0.0993  0.1831 -0.3491
 2504W        W 3501   6.241   5.340   4.592 -0.1469  0.0083  0.0382
 2505W        W 3502   3.745   3.870   3.345  0.1040 -0.1445 -0.0327
 2506W        W 3503   6.614   0.305   7.447 -0.0022 -0.0479  0.3361
 2507W        W 3504   4.298   3.456   1.244 -0.1415 -0.1941  0.1667
 2508W        W 3505   3.430   6.230   4.382  0.3159 -0.0681  0.1357
 2509W        W 3506   6.278   3.498   1.894 -0.0618  0.0357 -0.2142
 2510W        W 3507   0.599   3.202   5.222  0.0331 -0.0130 -0.2247
 2511W        W 3508   4.501   3.631   1.821  0.0061  0.0043  0.1582
 2512W        W 3509   3.388   2.770   1.379 -0.1171  0.1632 -0.0979
 2513W        W 3510   3.660   1.702   6.054  0.2073  0.0978 -0.0289
 2514W        W 3511   4.282   0.629   3.459  0.1758 -0.0987 -0.0185
 2515W        W 3512   2.036   3.216   7.611 -0.0611  0.2115 -0.0404
 2516W        W 3513   2.915   2.715   6.301  0.3754 -0.0834  0.3366
 2517W        W 3514   2.707   3.595   2.679 -0.2015 -0.2707 -0.2635
 2518W        W 3515   6.800   0.977   6.481 -0.4486  0.0080  0.0599
 2519W        W 3516   3.622   5.145   0.716  0.0889  0.1857  0.5397
 2520W        W 3517   7.268   5.477   1.606 -0.1570 -0.0011  0.1221
 2521W        W 3518   3.064   5.443   4.945  0.2344  0.3818  0.2788
 2522W        W 3519   5.966   1.509   3.492  0.3188  0.2509 -0.0938
 2523W        W 3520   3.233   6.904   7.545  0.0366 -0.1785 -0.1612
 2524W        W 3521   2.013   3.218   2.130 -0.1559 -0.1351  0.0486
 2525W        W 3522   0.668   0.690   7.504 -0.1509 -0.1371 -0.1019
 2526W        W 3523   3.615   0.970   5.064  0.3835  0.0939 -0.0201
 2527W        W 3524   6.718   5.717   0.367  0.0789  0.1630  0.0723
 2528W        W 3525   4.020   7.258   4.367  0.5478 -0.0383 -0.1068
 2529W        W 3526   0.399   4.267   1.330  0.0546  0.0681 -0.1390
 2530W        W 3527   5.137   1.041   6.607  0.0915  0.0569  0.0004
 2531W        W 3528   4.454   1.629   0.172  0.2592 -0.0242  0.3095
 2532W        W 3529   1.061   1.425   5.199  0.2096  0.1675 -0.0871
 2533W        W 3530   7.202   6.842   5.895 -0.1993 -0.0886  0.1068
 2534W        W 3531   1.349   1.776   4.415 -0.1442 -0.0418  0.3718
 2535W        W 3532   5.277   2.034   6.836  0.0527  0.1064 -0.1915
 2536W        W 3533   6.368   6.664   6.422 -0.0690 -0.0890 -0.0220
 2537W        W 3534   4.869   3.482   7.106 -0.1647 -0.1263  0.3433
 2538W        W 3535   2.764   1.798   0.885 -0.2263 -0.1834 -0.1334
 2539W        W 3536   4.822   1.637   2.091 -0.0528  0.3551  0.2503
 2540W        W 3537   7.359   3.120   4.878  0.0945 -0.2430 -0.2162
 2541W        W 3538   7.196   6.738   6.374 -0.0931 -0.1193  0.1427
 2542W        W 3539   1.332   0.883   0.484  0.1834  0.1216 -0.0567
 2543W        W 3540   1.438   1.432   4.851  0.0000 -0.1711 -0.1777
 2544W        W 3541   2.941   1.568   4.747 -0.0270 -0.0038  0.1522
 2545W        W 3542   3.459   3.373   3.013  0.4907  0.0975 -0.1327
 2546W        W 3543   7.288   1.566   2.021  0.0912  0.2241  0.2236
 2547W        W 3544   1.213   0.177   6.383  0.4585 -0.3562  0.2272
 2548W        W 3545   0.186   4.508   5.292  0.0447 -0.0087 -0.1797
 2549W        W 3546   6.886   4.065   3.552 -0.1267  0.0111  0.0916
 2550W        W 3547   4.972   1.832   5.483 -0.3604 -0.2826  0.2528
 2551W        W 3548   7.177   1.295   5.191  0.0337 -0.0397 -0.3669
 2552W        W 3549   1.169   2.243   4.418  0.3539 -0.1785 -0.0377
 2553W        W 3550   1.802   1.701   1.496 -0.0244 -0.2350 -0.1129
 2554W        W 3551   0.044   2.089   6.264  0.2725  0.3376 -0.0412
 2555W        W 3552   5.330   1.112   4.826  0.2527  0.1888 -0.1481
 2556W        W 3553   4.099   3.109   0.898 -0.0080  0.1369  0.1354
 2557W        W 3554   2.553   2.416   4.685 -0.2195 -0.1338  0.1886
 2558W        W 3555   3.435   5.987   5.612 -0.1330  0.1557 -0.2669
 2559W        W 3556   5.692   2.049   5.616  0.3772 -0.0993  0.0317
 2560W        W 3557   2.209   2.800   5.656 -0.1856  0.0424  0.1659
 2561W        W 3558   4.812   4.176   5.814 -0.1300 -0.0507 -0.1305
 2562W        W 3559   3.929   6.598   7.463 -0.4695  0.0179 -0.4186
 2563W        W 3560   6.897   4.937   1.915  0.1184 -0.1926 -0.3308
 2564W        W 3561   4.389   2.807   2.201 -0.4221  0.0497  0.2724
 2565W        W 3562   7.565   1.583   1.495 -0.1630 -0.2028  0.0645
 2566W        W 3563   0.885   1.058   6.101  0.1064  0.1341 -0.6053
 2567W        W 3564   5.801   4.172   7.168  0.2377 -0.1489  0.0267
 2568W        W 3565   0.170   6.713   0.751  0.3531  0.2648 -0.1485
 2569W        W 3566   7.265   2.283   6.156 -0.1898 -0.1865 -0.1449
 2570W        W 3567   3.768   2.183   1.968  0.0301 -0.1278  0.1286
 2571W        W 3568   6.334   1.035   0.398 -0.4818  0.0214  0.3628
 2572W        W 3569   3.615   4.825   2.985  0.1383 -0.0204 -0.1138
 2573W        W 3570   6.651   2.544   5.096 -0.2866  0.0182  0.0267
 2574W        W 3571   4.020   0.399   3.849 -0.1697 -0.1636  0.1743
 2575W        W 3572   3.369   1.279   6.170 -0.1968  0.4562 -0.0644
 2576W        W 3573   7.439   7.279   4.605 -0.3145  0.0612  0.0503
 2577W        W 3574   1.969   4.449   7.457  0.3203  0.1860  0.0488
 2578W        W 3575   6.045   2.978   6.528 -0.0432 -0.0949  0.0860
 2579W        W 3576   1.027   6.440   6.637  0.0020  0.0888 -0.2194
 2580W        W 3577   4.667   1.251   4.235  0.0575  0.2056  0.0608
 2581W        W 3578   2.832   6.104   6.406  0.1025  0.0113 -0.4714
 2582W        W 3579   2.373   0.640   5.504 -0.2583  0.1437 -0.1617
 2583W        W 3580   2.581   6.582   6.372 -0.2417  0.0271 -0.1177
 2584W        W 3581   5.165   1.346   4.427 -0.1706  0.0148  0.4614
 2585W        W 3582   1.351   5.314   0.572 -0.1039  0.1563 -0.0559
 2586W        W 3583   2.599   4.914   0.549  0.0906  0.0865  0.2576
 2587W        W 3584   7.149   5.791   2.639  0.0324 -0.2002  0.3656
 2588W        W 3585   5.057   5.221   0.529 -0.2747 -0.1548 -0.1593
 2589W        W 3586   6.629   7.264   4.956 -0.2566 -0.0202 -0.1778
 2590W        W 3587   6.428   3.046   5.716 -0.0024  0.1005  0.1231
 2591W        W 3588   4.781   4.436   6.312 -0.2981 -0.0777 -0.0930
 2592W        W 3589   4.806   4.392   2.568  0.1914  0.0617  0.0327
 2593W        W 3590   7.112   7.447   0.051 -0.1229 -0.0694  0.1219
 2594W        W 3591   2.159   0.299   6.010  0.2989 -0.0280  0.2118
 2595W        W 3592   2.404   1.555   4.425  0.2167  0.1298  0.0611
 2596W        W 3593   7.008   2.460   4.419 -0.1473  0.0812  0.3131
 2597W        W 3594   0.767   1.559   0.908 -0.2413 -0.2999  0.1972
 2598W        W 3595   5.881   4.590   5.633  0.0948 -0.1372  0.2097
 2599W        W 3596   2.383   2.021   6.019 -0.3411  0.0988 -0.0245
 2600W        W 3597   2.150   2.511   1.059 -0.0573  0.0309  0.1257
 2601W        W 3598   7.162   6.014   0.513 -0.0231  0.1926  0.0591
 2602W        W 3599   4.339   2.750   4.609  0.1499  0.1607 -0.0752
 2603W        W 3600   6.298   0.608   7.261 -0.1119  0.6038 -0.0682
 2604W        W 3601   2.866   1.800   6.825 -0.2390 -0.0127 -0.2034
 2605W        W 3602   4.213   2.036   2.740  0.0632  0.1374 -0.0134
 2606W        W 3603   0.428   4.228   1.917  0.1142 -0.0103 -0.0522
 2607W        W 3604   1.327   6.813   5.955  0.0002 -0.1662  0.0567
 2608W        W 3605   2.786   0.096   6.585  0.0228 -0.4267  0.3310
 2609W        W 3606   4.471   3.770   5.926  0.2700 -0.0334  0.0739
 2610W        W 3607   5.436   3.100   0.125  0.2048 -0.0804  0.0448
 2611W        W 3608   7.185   7.099   5.020 -0.1672  0.3682  0.1364
 2612W        W 3609   7.236   7.581   6.357 -0.3026  0.3813 -0.0093
 2613W        W 3610   6.074   3.460   5.657 -0.2146 -0.0542  0.1555
 2614W        W 3611   4.925   3.891   6.753 -0.0109 -0.0003  0.0619
 2615W        W 3612   3.881   2.345   1.414 -0.1115  0.3900 -0.1286
 2616W        W 3613   1.582   4.269   5.592 -0.3255 -0.1451 -0.1607
 2617W        W 3614   0.559   3.348   2.163 -0.1059  0.0883 -0.3892
 2618W        W 3615   0.053   6.531   5.167  0.6661  0.0938  0.1397
 2619W        W 3616   4.139   6.379   3.655 -0.0511  0.1609 -0.1834
 2620W        W 3617   5.489   5.630   1.997 -0.3244 -0.0030 -0.0664
 2621W        W 3618   2.101   5.691   5.590 -0.1241  0.4191  0.0390
 2622W        W 3619   5.946   3.166   2.799  0.3687  0.1666  0.2170
 2623W        W 3620   5.846   5.599   3.043 -0.0320 -0.0734 -0.2202
 2624W        W 3621   1.298   3.961   3.702 -0.2152  0.1197 -0.1027
 2625W        W 3622   0.805   6.101   7.484 -0.1917 -0.1265  0.1727
 2626W        W 3623   4.219   1.540   4.350  0.2174  0.0518 -0.5207
 2627W        W 3624   3.224   2.122   6.008  0.0746 -0.3518  0.2480
 2628W        W 3625   2.192   4.332   7.023 -0.1728  0.0392  0.0484
 2629W        W 3626   6.500   2.293   4.602 -0.1259  0.2939 -0.1212
 2630W        W 3627   0.700   4.227   5.175  0.0854  0.1123 -0.2053
 2631W        W 3628   4.435   2.410   3.336  0.1163  0.1595  0.2915
 2632W        W 3629   7.509   4.009   4.622 -0.0698  0.0296 -0.1632
 2633W        W 3630   4.784   0.679   6.808  0.2573  0.0916  0.0163
 2634W        W 3631   4.907   6.034   5.376  0.3078 -0.3930  0.0884
 2635W        W 3632   4.469   4.718   5.391 -0.1284 -0.0099 -0.0919
 2636W        W 3633   3.260   2.420   2.074 -0.0403  0.3108  0.2431
 2637W        W 3634   6.965   3.333   4.610 -0.0948 -0.0465  0.0021
 2638W        W 3635   5.229   6.103   7.216  0.0101  0.1849 -0.0935
 2639W        W 3636   4.016   3.669   0.830 -0.1382 -0.2847 -0.1962
 2640W        W 3637   6.097   0.595   1.801  0.0480 -0.1910 -0.0213
 2641W        W 3638   1.323   5.242   6.598 -0.4072 -0.1486 -0.1657
 2642W        W 3639   6.005   0.133   5.513 -0.0459  0.2720 -0.1316
 2643W        W 3640   4.586   7.149   0.269  0.2876  0.0681 -0.2365
 2644W        W 3641   2.306   2.404   1.609 -0.1612 -0.1511 -0.1757
 2645W        W 3642   0.425   0.962   5.226  0.3448  0.1532  0.1207
 2646W        W 3643   6.692   3.360   1.029 -0.0491  0.0707  0.1992
 2647W        W 3644   5.916   2.428   5.497  0.1442 -0.0200  0.1047
 2648W        W 3645   6.854   0.773   7.202  0.3603  0.3544 -0.1208
 2649W        W 3646   4.009   5.111   6.516  0.0388  0.1906  0.0743
 2650W        W 3647   5.749   1.490   2.126 -0.0437  0.0129 -0.0300
 2651W        W 3648   5.447   3.605   0.034  0.0590 -0.0348 -0.2111
 2652W        W 3649   7.263   0.568   3.583 -0.2259  0.2107 -0.1267
 2653W        W 3650   2.005   2.403   6.901  0.1350  0.1453  0.1032
 2654W        W 3651   0.875   4.295   3.718 -0.0022  0.0527  0.1601
 2655W        W 3652   6.014   0.959   5.547  0.0796 -0.0902 -0.3227
 2656W        W 3653   1.949   0.686   0.015 -0.1320 -0.2189  0.1412
 2657W        W 3654   2.920   2.906   4.068 -0.3432  0.0992 -0.1586
 2658W        W 3655   6.869   4.567   1.084  0.1673 -0.2820  0.1109
 2659W        W 3656   7.235   4.211   5.086 -0.2022  0.1870  0.1498
 2660W        W 3657   4.337   1.989   1.323  0.1174  0.1012  0.0032
 2661W        W 3658   4.607   1.084   1.409  0.0658  0.2505  0.0567
 2662W        W 3659   0.361   0.328   6.522  0.1423 -0.1789 -0.1447
 2663W        W 3660   1.225   1.527   6.825  0.1137 -0.1174 -0.1003
 2664W        W 3661   7.621   3.161   6.402  0.4473 -0.0329 -0.1940
 2665W        W 3662   6.925   5.723   6.264 -0.1341 -0.2300 -0.3332
 2666W        W 3663   6.576   4.598   4.924  0.0811 -0.0791  0.1000
 2667W        W 3664   3.363   1.569   2.599  0.0738 -0.3843  0.2125
 2668W        W 3665   6.016   0.772   4.200  0.0730 -0.1846 -0.4509
 2669W        W 3666   7.613   6.647   6.592  0.2818 -0.0325  0.0085
 2670W        W 3667   6.015   1.944   0.716  0.0239 -0.1592 -0.1140
 2671W        W 3668   4.012   4.910   5.520 -0.0720 -0.1483 -0.1375
 2672W        W 3669   2.159   3.286   3.744  0.0326 -0.2322 -0.1408
 2673W        W 3670   0.062   1.433   0.342 -0.2097  0.1145 -0.0317
 2674W        W 3671   4.417   6.657   7.194 -0.0076  0.3566 -0.1621
 2675W        W 3672   1.252   6.659   5.268  0.1506  0.0389  0.1291
 2676W        W 3673   4.156   2.362   6.325 -0.1170  0.0751  0.1856
 2677W        W 3674   2.452   5.742   0.010 -0.1640  0.0127  0.2643
 2678W        W 3675   2.737   1.814   5.726 -0.2459  0.2341 -0.2396
 2679W        W 3676   1.328   4.878   6.226  0.2359  0.1983  0.0006
 2680W        W 3677   4.668   5.662   6.537 -0.3457  0.0471  0.0842
 2681W        W 3678   3.444   4.290   2.715  0.0393  0.0118  0.1424
 2682W        W 3679   6.711   4.186   0.672  0.0833  0.2360 -0.2216
 2683W        W 3680   4.438   2.452   7.214 -0.2642  0.0248 -0.0836
 2684W        W 3681   6.503   3.497   5.383  0.0818 -0.0574  0.0654
 2685W        W 3682   5.590   6.402   5.868 -0.0278 -0.1298  0.4184
 2686W        W 3683   4.773   6.355   3.793  0.3200 -0.0068 -0.2720
 2687W        W 3684   1.043   4.380   2.960  0.1349  0.0591  0.2412
 2688W        W 3685   3.368   0.998   0.272  0.1164 -0.0148 -0.1321
 2689W        W 3686   0.314   4.083   3.272 -0.2016  0.1322  0.2130
 2690W        W 3687   3.470   3.698   7.405  0.1522  0.0020 -0.1836
 2691W        W 3688   6.368   0.824   5.890 -0.0244  0.0639  0.0430
 2692W        W 3689   6.803   1.192   4.855  0.0135  0.0020 -0.1406
 2693W        W 3690   1.328   5.720   2.011 -0.0965 -0.2034 -0.0262
 2694W        W 3691   0.006   3.212   2.205  0.0968 -0.0702 -0.0168
 2695W        W 3692   4.133   0.592   2.910 -0.2346  0.1864  0.1212
 2696W        W 3693   1.444   5.932   0.647 -0.1163 -0.3700  0.1629
 2697W        W 3694   2.260   1.866   5.196  0.1669  0.0028 -0.1430
 2698W        W 3695   6.646   3.559   6.925 -0.1495  0.0550 -0.0325
 2699W        W 3696   2.674   2.826   4.911  0.1176 -0.2999 -0.1733
 2700W        W 3697   3.180   4.298   1.630  0.1334  0.0182  0.3125
 2701W        W 3698   2.158   2.894   6.712  0.0634 -0.0177  0.0443
 2702W        W 3699   6.167   0.828   1.251 -0.0445 -0.0795  0.2596
 2703W        W 3700   6.941   7.113   4.542 -0.0897 -0.1050 -0.0979
 2704W        W 3701   6.270   2.181   3.766  0.0526 -0.1185 -0.1645
 2705W        W 3702   0.186   3.490   6.097 -0.3371  0.1614  0.1235
 2706W        W 3703   3.957   4.711   4.204  0.0323 -0.0115 -0.0077
 2707W        W 3704   5.410   4.690   4.219  0.1991 -0.0677 -0.0833
 2708W        W 3705   2.128   1.597   0.460 -0.3650 -0.0819 -0.0640
 2709W        W 3706   5.586   2.033   2.335  0.3516  0.0138  0.6231
 2710W        W 3707   6.828   1.470   0.806  0.1770  0.1891  0.1374
 2711W        W 3708   0.488   6.857   5.380 -0.1445  0.1942 -0.0126
 2712W        W 3709   5.076   6.933   6.683  0.0470 -0.0854  0.6097
 2713W        W 3710   2.194   4.701   1.031 -0.1006 -0.0207 -0.1392
 2714W        W 3711   4.228   4.800   6.877 -0.2821  0.1350 -0.0557
 2715W        W 3712   1.875   4.371   5.116  0.0290 -0.1704  0.3015
 2716W        W 3713   4.878   4.782   0.578 -0.2088  0.0823 -0.0213
 2717W        W 3714   4.793   4.552   2.004  0.1438  0.4109  0.3764
 2718W        W 3715   4.759   3.388   3.468 -0.2078  0.1647 -0.0540
 2719W        W 3716   0.936   3.248   4.884 -0.0546 -0.0043  0.0457
 2720W        W 3717   5.167   0.727   3.399  0.4012  0.2840  0.1797
 2721W        W 3718   0.361   5.723   4.177 -0.1005  0.0697  0.1986
 2722W        W 3719   7.312   1.612   1.039 -0.2475 -0.2890 -0.0248
 2723W        W 3720   7.273   3.641   4.829 -0.1319  0.1214  0.0956
 2724W        W 3721   0.763   3.503   1.750 -0.0038  0.4233 -0.0470
 2725W        W 3722   3.202   2.965   7.197  0.0453  0.0772 -0.1598
 2726W        W 3723   3.962   1.287   6.020  0.1430 -0.1776  0.0195
 2727W        W 3724   2.028   3.918   4.841 -0.0978  0.0044  0.1557
 2728W        W 3725   5.260   4.268   4.435 -0.0884  0.4670  0.1678
 2729W        W 3726   0.499   3.824   2.315  0.0251 -0.2045  0.1244
 2730W        W 3727   3.331   5.079   0.232 -0.0125  0.1264 -0.0324
 2731W        W 3728   7.477   6.230   0.872 -0.0991  0.1382  0.1302
 2732W        W 3729   3.166   6.224   0.465  0.0422 -0.0315 -0.1240
 2733W        W 3730   4.199   3.932   1.229 -0.1965  0.0641  0.1892
 2734W        W 3731   4.821   6.973   7.126 -0.1733  0.0501 -0.0361
 2735W        W 3732   3.117   2.299   0.249  0.1604 -0.0618  0.0975
 2736W        W 3733   6.940   4.692   4.552 -0.2198 -0.3527  0.3206
 2737W        W 3734   1.475   3.397   5.694  0.0657  0.3644 -0.2309
 2738W        W 3735   0.444   4.334   2.401  0.0750  0.1354  0.3081
 2739W        W 3736   7.358   1.716   6.260 -0.0841 -0.3295 -0.0101
 2740W        W 3737   7.621   5.478   0.079 -0.1370 -0.1370  0.0385
 2741W        W 3738   0.245   4.945   7.614  0.0464 -0.0847 -0.0237
 2742W        W 3739   3.107   5.136   0.683 -0.3160 -0.1226 -0.3251
 2743W        W 3740   4.667   0.228   4.427 -0.3245 -0.4485 -0.3146
 2744W        W 3741   6.430   1.706   3.629  0.2544  0.1496  0.1341
 2745W        W 3742   5.391   4.898   0.754 -0.0874  0.1386  0.0232
 2746W        W 3743   6.507   2.759   7.408  0.3219 -0.2058  0.2386
 2747W        W 3744   2.316   6.154   0.166 -0.0827 -0.4450 -0.0342
 2748W        W 3745   7.621   0.845   3.790 -0.1318 -0.0144 -0.0204
 2749W        W 3746   3.084   0.080   0.508 -0.0489 -0.0643 -0.2450
 2750W        W 3747   5.134   3.380   4.793 -0.0302 -0.1699 -0.0570
 2751W        W 3748   0.856   5.263   0.532 -0.0063  0.0744  0.2422
 2752W        W 3749   3.558   4.996   2.000 -0.4757  0.0860 -0.1182
 2753W        W 3750   1.006   2.702   4.285  0.1105  0.2414  0.2136
 2754W        W 3751   4.011   4.688   1.850 -0.0533 -0.1429  0.3886
 2755W        W 3752   7.059   4.011   7.478 -0.2239  0.1779  0.0069
 2756W        W 3753   4.414   1.079   5.200 -0.1436  0.1414  0.0617
 2757W        W 3754   5.053   7.215   0.196  0.1346  0.2955 -0.0352
 2758W        W 3755   6.301   0.567   5.472  0.0250  0.0070  0.0234
 2759W        W 3756   4.381   1.012   2.739  0.1357  0.0004 -0.0427
 2760W        W 3757   4.338   0.345   6.791  0.1042  0.0207  0.0500
 2761W        W 3758   1.888   5.698   4.722 -0.0268 -0.2752 -0.1185
 2762W        W 3759   2.528   2.740   0.869 -0.2468  0.0891 -0.0755
 2763W        W 3760   0.432   2.930   1.153  0.0365  0.1017  0.2020
 2764W        W 3761   6.484   5.949   5.095  0.2254 -0.0776 -0.2194
 2765W        W 3762   3.441   3.681   6.411 -0.1702 -0.0542  0.0778
 2766W        W 3763   7.559   3.140   1.285  0.4064  0.0461 -0.1336
 2767W        W 3764   6.410   2.592   2.443 -0.1741 -0.0053  0.1561
 2768W        W 3765   3.760   2.192   4.907  0.0611 -0.1819  0.0045
 2769W        W 3766   0.107   4.441   5.801 -0.1163 -0.1112  0.0448
 2770W        W 3767   3.966   6.349   6.426  0.0652  0.0881  0.0532
 2771W        W 3768   6.064   3.033   4.303  0.2663 -0.1873  0.4015
 2772W        W 3769   5.079   5.958   3.936 -0.0241 -0.0418 -0.0205
 2773W        W 3770   2.116   0.730   6.192  0.2109 -0.2561  0.2737
 2774W        W 3771   4.862   4.782   1.226  0.0528 -0.2603  0.0890
 2775W        W 3772   2.809   2.668   2.874  0.2261 -0.1819 -0.0161
 2776W        W 3773   2.792   0.271   5.596 -0.0459  0.3326 -0.0457
 2777W        W 3774   0.025   5.397   1.885 -0.1278  0.1250  0.0960
 2778W        W 3775   3.173   6.928   5.866  0.0474  0.0099 -0.0191
 2779W        W 3776   4.575   5.181   0.576  0.1368 -0.0283  0.0721
 2780W        W 3777   2.241   1.944   3.277 -0.3030 -0.0650  0.2968
 2781W        W 3778   7.067   3.021   3.034  0.0903  0.2715  0.7241
 2782W        W 3779   0.250   4.557   7.265  0.2040 -0.0075 -0.0379
 2783W        W 3780   0.397   4.257   6.209  0.1723  0.0021  0.0304
 2784W        W 3781   7.356   5.507   0.535 -0.0629 -0.0332  0.1652
 2785W        W 3782   2.170   3.480   0.401  0.0157 -0.0313  0.1782
 2786W        W 3783   2.766   6.443   6.810  0.1390  0.0611 -0.4068
 2787W        W 3784   6.148   3.200   6.073  0.3457 -0.2099  0.1201
 2788W        W 3785   4.538   5.181   1.066  0.2228 -0.1585 -0.0578
 2789W        W 3786   5.479   6.781   5.598  0.1754  0.0571  0.1205
 2790W        W 3787   7.046   6.636   4.849  0.0856  0.3113  0.0766
 2791W        W 3788   1.886   5.332   2.629 -0.1494  0.1194 -0.0113
 2792W        W 3789   6.241   5.251   6.888  0.0683 -0.2569 -0.2710
 2793W        W 3790   1.418   7.382   4.647 -0.1098  0.0308 -0.0561
 2794W        W 3791   7.170   3.879   3.932 -0.3074 -0.3909  0.0580
 2795W        W 3792   4.825   1.238   5.469 -0.2727 -0.2221 -0.0095
 2796W        W 3793   5.924   6.754   6.115  0.2998  0.0780  0.3468
 2797W        W 3794   2.685   2.749   3.601 -0.0273  0.1538  0.0144
 2798W        W 3795   6.223   4.149   0.672 -0.0250 -0.3179 -0.0110
 2799W        W 3796   2.726   1.196   1.098 -0.2774  0.0602  0.3059
 2800W        W 3797   4.177   4.711   4.936 -0.0880  0.0291  0.3752
 2801W        W 3798   6.414   2.116   6.338  0.2407  0.2186 -0.0768
 2802W        W 3799   6.459   2.336   5.510  0.2163  0.0705  0.0915
 2803W        W 3800   0.940   3.949   0.528  0.1396 -0.1842  0.0334
 2804W        W 3801   0.500   3.844   3.664  0.2644 -0.0182  0.1484
 2805W        W 3802   1.231   1.222   3.514  0.1759  0.1506  0.0120
 2806W        W 3803   4.696   1.550   3.581  0.0161  0.1810 -0.0493
 2807W        W 3804   7.441   5.786   4.958  0.1889 -0.1261 -0.1792
 2808W        W 3805   6.242   2.914   1.980 -0.1915 -0.0162 -0.0970
 2809W        W 3806   7.484   6.469   5.717  0.0547  0.0685  0.1108
 2810W        W 3807   3.118   0.594   0.575 -0.0693 -0.0085 -0.0941
 2811W        W 3808   2.494   1.723   7.157  0.3821 -0.0549 -0.0320
 2812W        W 3809   1.283   2.625   6.317  0.0711  0.0189 -0.0764
 2813W        W 3810   5.269   7.423   6.828  0.0131  0.1230  0.1231
 2814W        W 3811   2.714   2.665   7.253  0.0616 -0.2651  0.1442
 2815W        W 3812   4.149   2.880   4.023  0.1301 -0.1047  0.2065
 2816W        W 3813   5.931   3.805   2.506 -0.4164  0.1922  0.0469
 2817W        W 3814   3.783   4.401   2.264  0.1032  0.0838  0.0552
 2818W        W 3815   7.526   2.400   7.542  0.0564  0.2537 -0.0985
 2819W        W 3816   2.511   1.902   4.746 -0.0619  0.1684 -0.0620
 2820W        W 3817   2.471   3.793   2.026 -0.0130  0.0037 -0.0224
 2821W        W 3818   6.603   0.309   5.864  0.2287 -0.0768  0.0050
 2822W        W 3819   0.128   3.370   0.920  0.1063  0.0907  0.1557
 2823W        W 3820   6.848   6.284   5.178 -0.0571 -0.0540  0.2644
 2824W        W 3821   6.747   6.770   6.090  0.5229  0.0091  0.1348
 2825W        W 3822   6.000   5.450   1.312 -0.0624  0.0347 -0.1365
 2826W        W 3823   3.763   5.229   2.611  0.1492  0.0745 -0.3367
 2827W        W 3824   6.806   1.276   6.907  0.0164 -0.0103  0.1282
 2828W        W 3825   2.856   3.519   0.197 -0.0799  0.0809 -0.1025
 2829W        W 3826   5.555   5.911   6.798 -0.0829 -0.0212 -0.0322
 2830W        W 3827   4.875   5.395   3.798  0.2719 -0.3593 -0.1255
 2831W        W 3828   4.239   6.198   5.402  0.2408  0.1509  0.1190
 2832W        W 3829   5.884   5.224   2.151 -0.2899 -0.1034 -0.1748
 2833W        W 3830   0.825   1.335   5.605 -0.2057  0.1519 -0.1882
 2834W        W 3831   5.151   1.824   2.998  0.0495 -0.0925 -0.0796
 2835W        W 3832   1.645   1.985   7.558  0.2750  0.0429  0.1903
 2836W        W 3833   0.135   1.928   0.406 -0.1012  0.1069 -0.0986
 2837W        W 3834   1.262   0.301   7.443 -0.1657 -0.0060 -0.2238
 2838W        W 3835   5.781   5.450   6.734 -0.1478  0.0524 -0.2105
 2839W        W 3836   6.585   1.175   3.599 -0.1795  0.2029 -0.0972
 2840W        W 3837   4.469   2.159   6.768 -0.1638 -0.0616  0.1810
 2841W        W 3838   2.423   2.808   1.351  0.0986 -0.0281 -0.1182
 2842W        W 3839   4.081   3.870   6.548  0.1135 -0.2041  0.3732
 2843W        W 3840   1.648   1.227   2.092  0.0210  0.1033 -0.0337
 2844W        W 3841   2.847   3.930   5.789  0.2729 -0.0848  0.2002
 2845W        W 3842   4.792   2.305   5.779 -0.1663  0.1312  0.1125
 2846W        W 3843   3.959   4.356   4.655  0.2228 -0.0598  0.3631
 2847W        W 3844   4.336   5.253   5.400 -0.2881  0.0691 -0.0831
 2848W        W 3845   3.215   4.000   4.455  0.0615  0.2078  0.1763
 2849W        W 3846   5.293   1.539   5.750 -0.3471 -0.0376  0.0294
 2850W        W 3847   2.147   4.413   1.417 -0.0824  0.1320 -0.0237
 2851W        W 3848   7.113   0.329   7.503  0.1153  0.0733  0.1052
 2852W        W 3849   6.141   1.638   0.226  0.1499  0.0277 -0.3957
 2853W        W 3850   7.117   7.149   7.276  0.0521 -0.5183 -0.0423
 2854W        W 3851   3.324   1.763   5.661 -0.0850 -0.1108  0.0119
 2855W        W 3852   7.032   4.393   5.904  0.1178  0.1360  0.0137
 2856W        W 3853   3.829   1.057   6.474 -0.2909 -0.3750 -0.1263
 2857W        W 3854   6.984   1.860   2.364  0.2288 -0.0990  0.1450
 2858W        W 3855   5.762   6.312   1.277 -0.1996 -0.0443  0.0540
 2859W        W 3856   7.057   3.960   5.612  0.0314  0.1856 -0.1230
 2860W        W 3857   0.505   1.094   1.128 -0.2203 -0.3760 -0.0207
 2861W        W 3858   2.631   4.296   6.513  0.1086 -0.1882 -0.1179
 2862W        W 3859   1.803   4.509   2.224 -0.2874 -0.0109  0.0616
 2863W        W 3860   6.383   6.282   4.752 -0.1491  0.4248  0.0978
 2864W        W 3861   3.387   6.458   5.293 -0.1927  0.2021  0.0540
 2865W        W 3862   1.606   5.697   5.816 -0.0092  0.1817 -0.2591
 2866W        W 3863   2.044   4.981   6.156  0.1595 -0.1256  0.1110
 2867W        W 3864   3.224   7.327   4.916 -0.0227 -0.0638  0.0541
 2868W        W 3865   2.312   5.285   7.569 -0.0110 -0.0636 -0.2550
 2869W        W 3866   7.300   3.408   3.804 -0.0163 -0.0655  0.0476
 2870W        W 3867   7.369   5.067   7.398 -0.2039 -0.0020  0.1611
 2871W        W 3868   3.853   3.384   4.007 -0.3432 -0.1647 -0.0123
 2872W        W 3869   7.343   0.835   6.284  0.0687  0.1017 -0.0082
 2873W        W 3870   6.152   6.435   7.439  0.1473 -0.0414 -0.5137
 2874W        W 3871   7.100   1.128   3.643  0.3492  0.0521 -0.1702
 2875W        W 3872   3.975   4.498   2.912 -0.3676  0.1584 -0.1004
 2876W        W 3873   6.362   3.343   7.274 -0.2734  0.0311 -0.2725
 2877W        W 3874   3.918   0.101   6.524 -0.1526  0.0600  0.0654
 2878W        W 3875   1.835   1.500   0.116 -0.1178  0.1574  0.0916
 2879W        W 3876   1.249   0.854   4.965 -0.0690 -0.0303 -0.0013
 2880W        W 3877   2.533   2.965   1.806  0.1333 -0.2096  0.2375
 2881W        W 3878   2.557   4.595   2.326 -0.0915 -0.0061  0.0713
 2882W        W 3879   0.628   7.489   6.416 -0.0764 -0.1788 -0.1207
 2883W        W 3880   2.488   2.506   0.358 -0.0546 -0.0224 -0.3770
 2884W        W 3881   6.678   1.087   5.364 -0.1949 -0.0925 -0.2058
 2885W        W 3882   3.099   4.265   7.389 -0.0374  0.0547  0.0082
 2886W        W 3883   1.710   1.545   5.560  0.2251 -0.2425  0.0863
 2887W        W 3884   6.544   4.385   4.451  0.0248 -0.0592  0.1740
 2888W        W 3885   2.684   5.652   4.725  0.0699 -0.1954  0.1555
 2889W        W 3886   1.241   5.013   0.162  0.0584 -0.0172 -0.2341
 2890W        W 3887   1.471   2.248   4.874  0.1515  0.1070 -0.2210
 2891W        W 3888   2.913   3.742   6.554  0.0082  0.1852  0.3934
 2892W        W 3889   0.152   3.712   4.022 -0.0078  0.2466  0.0615
 2893W        W 3890   4.429   5.253   6.825  0.1092 -0.2100 -0.1698
 2894W        W 3891   5.461   5.027   0.260 -0.0753 -0.0540  0.0931
 2895W        W 3892   0.206   7.037   6.775 -0.3271  0.2001  0.1284
 2896W        W 3893   2.991   0.990   6.973  0.3253  0.2070  0.0290
 2897W        W 3894   4.841   4.707   3.054  0.0448 -0.1904 -0.0425
 2898W        W 3895   0.652   4.301   6.667 -0.0667  0.2942  0.1064
 2899W        W 3896   4.730   0.873   3.239 -0.1437  0.0494  0.0293
 2900W        W 3897   4.847   4.896   0.098  0.1073  0.1235  0.1115
 2901W        W 3898   5.532   2.081   4.555  0.2083 -0.2188  0.0015
 2902W        W 3899   2.104   0.586   4.752  0.1876  0.1100 -0.0321
 2903W        W 3900   4.439   3.286   3.908  0.0527  0.1257  0.2378
 2904W        W 3901   6.681   6.915   4.165  0.0706 -0.3053 -0.1235
 2905W        W 3902   1.044   4.007   2.533  0.0449  0.0286 -0.0588
 2906W        W 3903   5.597   3.905   5.545 -0.0352  0.3260  0.3464
 2907W        W 3904   2.596   3.112   2.646 -0.1452  0.1385  0.1978
 2908W        W 3905   6.008   7.556   4.380  0.2523  0.0104 -0.0243
 2909W        W 3906   3.890   1.247   3.492 -0.0145 -0.1313 -0.0173
 2910W        W 3907   6.666   6.453   4.303  0.0163  0.0426 -0.0434
 2911W        W 3908   1.668   7.158   0.235 -0.0011  0.0726  0.2049
 2912W        W 3909   6.121   6.984   7.536 -0.0727  0.1654 -0.2877
 2913W        W 3910   4.343   4.991   4.515 -0.0248 -0.0575 -0.2365
 2914W        W 3911   5.590   5.334   5.135 -0.1864  0.2791  0.2383
 2915W        W 3912   6.028   6.131   4.211 -0.1883  0.1259  0.1645
 2916W        W 3913   4.174   2.809   6.024 -0.0028  0.0891  0.2694
 2917W        W 3914   5.113   4.316   1.222  0.0567  0.2656 -0.0353
 2918W        W 3915   3.123   3.571   3.359  0.1396  0.0430 -0.1969
 2919W        W 3916   3.575   4.138   7.634 -0.0597 -0.3375 -0.4216
 2920W        W 3917   0.109   5.195   0.931 -0.0338 -0.0879  0.0784
 2921W        W 3918   3.564   7.059   6.992 -0.1750  0.0261 -0.0753
 2922W        W 3919   1.068   1.762   3.148 -0.3216  0.0466  0.3478
 2923W        W 3920   1.035   6.973   0.670 -0.0830 -0.2813  0.0224
 2924W        W 3921   6.781   4.422   7.399 -0.3527 -0.2866 -0.5796
 2925W        W 3922   0.096   4.297   0.970  0.0892 -0.0418 -0.1101
 2926W        W 3923   2.764   5.432   0.326  0.1257 -0.3124 -0.1170
 2927W        W 3924   5.051   4.842   2.467  0.0830 -0.1514 -0.1544
 2928W        W 3925   5.792   6.660   0.149  0.1339 -0.1915 -0.3492
 2929W        W 3926   4.726   2.253   4.730 -0.2882  0.0472  0.3787
 2930W        W 3927   6.810   6.001   5.546  0.3829  0.0102  0.2125
 2931W        W 3928   5.268   2.307   7.311 -0.0612  0.2740  0.3644
 2932W        W 3929   6.869   2.741   6.275  0.1119  0.1425  0.0682
 2933W        W 3930   7.169   2.923   4.422  0.0530  0.0615  0.3132
 2934W        W 3931   2.726   5.195   6.993 -0.3238 -0.3745 -0.0866
 2935W        W 3932   4.422   6.159   0.432 -0.2077  0.0297 -0.0601
 2936W        W 3933   4.522   5.913   7.640 -0.0969  0.0146  0.0318
 2937W        W 3934   2.546   5.161   5.102 -0.0746 -0.2908  0.1906
 2938W        W 3935   7.525   4.126   5.503 -0.1705  0.1914 -0.0018
 2939W        W 3936   4.848   3.344   6.541 -0.1017  0.1275 -0.1219
 2940W        W 3937   7.378   4.611   1.155  0.0294 -0.2636 -0.1336
 2941W        W 3938   1.263   1.063   1.131 -0.0170  0.3453 -0.5234
 2942W        W 3939   2.528   6.896   0.526  0.0183 -0.0439  0.3989
 2943W        W 3940   6.047   5.607   2.524  0.2861  0.0129  0.0506
 2944W        W 3941   5.931   0.920   7.313  0.4252 -0.0199  0.0364
 2945W        W 3942   0.111   6.158   6.665 -0.4064 -0.0726  0.0931
 2946W        W 3943   0.842   5.399   5.757 -0.0449  0.1567  0.0367
 2947W        W 3944   1.772   5.469   2.135 -0.0965 -0.3010 -0.1307
 2948W        W 3945   4.542   5.156   4.940 -0.2686  0.2728 -0.0466
 2949W        W 3946   1.917   6.892   5.122 -0.0020  0.0072 -0.1079
 2950W        W 3947   2.236   5.486   0.383  0.0433 -0.0655  0.1003
 2951W        W 3948   0.418   6.925   6.309 -0.1606 -0.6136 -0.1934
 2952W        W 3949   5.764   1.705   6.013  0.0530 -0.2156 -0.1587
 2953W        W 3950   0.149   5.476   1.379 -0.1588  0.1959 -0.1978
 2954W        W 3951   2.863   1.743   4.303  0.1558  0.1060  0.1031
 2955W        W 3952   3.825   7.391   4.868  0.0705  0.2560 -0.0076
 2956W        W 3953   0.781   1.791   4.192  0.1700 -0.0786  0.0496
 2957W        W 3954   5.549   5.773   7.409  0.0662  0.1340  0.0318
 2958W        W 3955   0.655   1.785   7.546 -0.1582  0.0963 -0.0745
 2959W        W 3956   3.509   4.355   3.203 -0.0753  0.2223  0.1613
 2960W        W 3957   7.594   2.667   0.344  0.0139 -0.0090  0.0320
 2961W        W 3958   1.793   5.477   0.718 -0.3575  0.0013  0.0019
 2962W        W 3959   7.587   6.431   4.301 -0.1584  0.0206  0.1658
 2963W        W 3960   4.213   4.244   2.580  0.0768  0.0432  0.3745
 2964W        W 3961   3.656   2.093   6.309  0.1392 -0.0465 -0.2018
 2965W        W 3962   2.708   4.767   4.925 -0.1035 -0.1108  0.3208
 2966W        W 3963   5.657   1.629   2.702  0.1427  0.0097  0.0899
 2967W        W 3964   5.758   4.093   4.389  0.0904  0.0372  0.2976
 2968W        W 3965   6.837   1.903   0.417  0.0375 -0.1563 -0.1288
 2969W        W 3966   2.681   2.562   5.417  0.1548  0.2539 -0.1307
 2970W        W 3967   4.314   1.385   5.586  0.0431  0.0349 -0.2534
 2971W        W 3968   2.591   2.879   4.459 -0.4393 -0.3294  0.0549
 2972W        W 3969   4.729   7.569   7.518 -0.1774 -0.1118 -0.4429
 2973W        W 3970   6.228   2.416   7.086  0.1442  0.0779  0.2926
 2974W        W 3971   3.182   6.016   5.042  0.0101  0.0456 -0.3028
 2975W        W 3972   7.221   2.032   1.904  0.0254 -0.1232 -0.2143
 2976W        W 3973   0.094   0.123   6.109  0.0461 -0.1929  0.0577
 2977W        W 3974   5.521   0.799   6.458 -0.3840  0.1012  0.1183
 2978W        W 3975   2.446   4.206   5.160  0.1088 -0.0365 -0.1863
 2979W        W 3976   6.273   0.218   4.094  0.1297 -0.2230 -0.0492
 2980W        W 3977   1.587   3.372   3.034  0.1788 -0.0393  0.2892
 2981W        W 3978   4.590   6.400   6.093  0.1334  0.1531  0.0434
 2982W        W 3979   2.959   3.564   4.668  0.1316  0.0458  0.0843
 2983W        W 3980   2.856   5.068   1.543 -0.0632 -0.2016 -0.5693
 2984W        W 3981   3.688   2.005   6.810  0.1581 -0.0449 -0.1231
 2985W        W 3982   6.091   5.449   5.074 -0.0202 -0.0335 -0.0877
 2986W        W 3983   5.334   1.206   5.372 -0.0611  0.1683  0.1370
 2987W        W 3984   3.051   7.333   0.150 -0.3605 -0.0906  0.1771
 2988W        W 3985   0.819   1.017   4.859  0.2858 -0.3211  0.0503
 2989W        W 3986   4.330   0.130   4.805 -0.0141  0.3021 -0.2600
 2990W        W 3987   1.482   0.980   6.798 -0.0840 -0.2023  0.0172
 2991W        W 3988   6.809   1.984   5.542 -0.0153 -0.0883  0.2143
 2992W        W 3989   3.340   2.960   4.832  0.2152  0.0388 -0.1069
 2993W        W 3990   6.502   0.732   6.828  0.1793  0.2263  0.0498
 2994W        W 3991   5.738   1.442   0.567 -0.1033 -0.0484  0.2317
 2995W        W 3992   5.150   2.792   2.683 -0.2124  0.1145  0.3460
 2996W        W 3993   0.265   2.270   4.220  0.2402  0.1694 -0.0139
 2997W        W 3994   3.668   1.968   2.691  0.0624  0.1510  0.0688
 2998W        W 3995   0.716   7.260   5.519  0.0544 -0.0348 -0.0853
 2999W        W 3996   6.061   4.657   7.314 -0.0943  0.2944  0.0500
 3000W        W 3997   2.751   4.202   2.096  0.1060 -0.1881  0.0269
 3001W        W 3998   0.169   2.905   5.029 -0.1035 -0.1861  0.0663
 3002W        W 3999   6.895   3.803   6.076  0.2477  0.2551 -0.0106
 3003W        W 4000   4.499   6.295   3.258 -0.0668 -0.2899 -0.0279
 3004W        W 4001   1.187   1.556   3.998 -0.1275 -0.0410 -0.1272
 3005W        W 4002   5.457   1.609   4.781  0.3250  0.0801  0.0397
 3006W        W 4003   6.582   6.114   1.304 -0.0620  0.2024  0.0138
 3007W        W 4004   0.131   4.585   1.713  0.1268  0.1339  0.0221
 3008W        W 4005   6.385   4.139   5.036  0.0837 -0.1876  0.1770
 3009W        W 4006   1.919   1.915   7.085  0.0612 -0.5560 -0.2396
 3010W        W 4007   3.908   5.929   6.256 -0.0237  0.0655  0.1999
 3011W        W 4008   2.618   1.055   3.330 -0.1114  0.2130 -0.1670
 3012W        W 4009   2.328   4.333   3.292 -0.1263 -0.2193  0.1306
 3013W        W 4010   6.025   2.131   5.966 -0.1452 -0.1272 -0.1782
 3014W        W 4011   5.558   0.206   7.630  0.0622 -0.1924 -0.1383
 3015W        W 4012   3.787   4.927   4.581 -0.0256  0.3580 -0.0792
 3016W        W 4013   4.020   5.462   4.563 -0.1749  0.1404 -0.2695
 3017W        W 4014   1.504   0.501   6.598 -0.2949  0.0645 -0.2531
 3018W        W 4015   3.673   2.951   3.736  0.0856 -0.1990 -0.3489
 3019W        W 4016   3.931   6.323   4.395  0.2750  0.1963 -0.0915
 3020W        W 4017   6.781   1.016   4.037 -0.2356  0.0903  0.1311
 3021W        W 4018   6.332   2.925   6.935  0.1270  0.0559  0.0395
 3022W        W 4019   6.504   1.894   0.793  0.0138  0.1094  0.0364
 3023W        W 4020   6.430   3.667   5.975  0.1115 -0.0305 -0.0507
 3024W        W 4021   6.173   2.647   2.847 -0.0273 -0.0028  0.0543
 3025W        W 4022   6.975   2.339   6.573 -0.0836 -0.2033  0.0317
 3026W        W 4023   0.487   1.957   4.590  0.0995 -0.0056  0.3629
 3027W        W 4024   7.602   2.046   7.190  0.0903 -0.0059 -0.0683
 3028W        W 4025   7.546   1.215   7.513  0.2618  0.0560 -0.1323
 3029W        W 4026   5.279   0.582   6.822 -0.1199  0.1011 -0.3741
 3030W        W 4027   6.997   2.823   5.751  0.3158  0.4587 -0.0859
 3031W        W 4028   4.025   5.370   6.097 -0.0928  0.0361 -0.0631
 3032W        W 4029   1.365   4.445   4.147  0.3457  0.0192  0.0157
 3033W        W 4030   5.977   3.320   6.941 -0.1195 -0.0300  0.0047
 3034W        W 4031   6.497   3.376   4.418  0.0256  0.0875  0.0736
 3035W        W 4032   1.716   0.877   6.390  0.1027 -0.1357 -0.3950
 3036W        W 4033   4.519   4.004   5.440  0.2409  0.0608 -0.1964
 3037W        W 4034   0.324   2.743   0.020 -0.1466  0.0890 -0.0378
 3038W        W 4035   5.660   4.752   2.522 -0.0509 -0.1040  0.1459
 3039W        W 4036   2.527   5.065   1.913  0.1192  0.2689  0.0283
 3040W        W 4037   5.870   6.530   6.644  0.3270  0.0225  0.3534
 3041W        W 4038   2.627   0.121   6.051  0.2695 -0.4247  0.1297
 3042W        W 4039   4.214   3.269   7.604  0.0752  0.1130  0.1456
 3043W        W 4040   5.831   5.749   5.334 -0.1720  0.0366  0.0489
 3044W        W 4041   0.276   5.434   3.306 -0.1269 -0.3551  0.2227
 3045W        W 4042   5.095   4.127   2.176  0.0355 -0.4279 -0.4411
 3046W        W 4043   2.912   5.525   5.761 -0.1285  0.1495 -0.1257
 3047W        W 4044   6.020   4.899   0.066 -0.0735  0.1062  0.0598
 3048W        W 4045   1.207   3.974   1.779 -0.4066 -0.2563  0.0781
 3049W        W 4046   6.497   6.933   6.835 -0.0049 -0.0779 -0.2226
 3050W        W 4047   6.511   4.969   3.661  0.1960  0.1046  0.0601
 3051W        W 4048   5.029   1.984   4.447  0.0414 -0.1176 -0.1002
 3052W        W 4049   1.868   4.160   1.728  0.0451  0.2214 -0.2812
 3053W        W 4050   2.057   6.163   5.790  0.1982  0.1757  0.3651
 3054W        W 4051   0.974   4.402   5.549  0.1707 -0.2478 -0.1702
 3055W        W 4052   0.854   3.609   0.926  0.3042  0.1105  0.2329
 3056W        W 4053   6.935   5.161   0.388 -0.0101 -0.0792 -0.1422
 3057W        W 4054   1.173   2.289   2.736 -0.1153 -0.0825  0.1491
 3058W        W 4055   6.885   6.173   4.675 -0.1739 -0.3122 -0.1129
 3059W        W 4056   0.754   6.414   5.300 -0.0329  0.1088  0.0157
 3060W        W 4057   5.720   4.589   0.408 -0.0612  0.0196  0.0016
 3061W        W 4058   7.148   1.246   6.137  0.1608 -0.0212  0.3679
 3062W        W 4059   4.880   5.342   5.299  0.1809 -0.1456  0.1146
 3063W        W 4060   5.146   5.764   2.835  0.2316 -0.1372  0.0520
 3064W        W 4061   6.908   3.404   5.737  0.3469 -0.2011 -0.2305
 3065W        W 4062   0.561   7.537   4.524 -0.2741 -0.1858 -0.1395
 3066W        W 4063   3.501   0.521   5.303 -0.1862 -0.3490  0.2347
 3067W        W 4064   5.845   0.986   4.685 -0.0129  0.1894 -0.2487
 3068W        W 4065   7.329   7.457   5.371 -0.4073 -0.2110 -0.0659
 3069W        W 4066   1.049   0.480   5.221 -0.1156 -0.1732 -0.1345
 3070W        W 4067   6.546   6.361   3.727 -0.0758 -0.1573 -0.0933
 3071W        W 4068   3.415   1.251   4.732 -0.1240  0.0261  0.1283
 3072W        W 4069   5.514   5.699   1.077 -0.4951 -0.0097 -0.1079
 3073W        W 4070   3.866   2.961   1.378 -0.0681 -0.3997  0.0304
 3074W        W 4071   5.788   6.291   4.583 -0.0317  0.0935 -0.1043
 3075W        W 4072   5.158   0.029   0.168  0.1026  0.1915  0.1686
 3076W        W 4073   0.191   2.681   1.576 -0.1505 -0.0327  0.0114
 3077W        W 4074   1.751   4.379   6.821 -0.1438  0.0184  0.0654
 3078W        W 4075   6.417   1.387   5.618 -0.2055  0.2147 -0.1022
 3079W        W 4076   6.396   3.672   4.030 -0.2877 -0.1812 -0.0575
 3080W        W 4077   7.157   3.996   1.925  0.0302 -0.2304  0.1511
 3081W        W 4078   5.590   1.663   3.271 -0.2109  0.1200  0.3274
 3082W        W 4079   3.206   4.176   6.392 -0.5105 -0.0008  0.1493
 3083W        W 4080   0.096   5.916   5.322 -0.2130  0.1374  0.1524
 3084W        W 4081   6.936   4.907   6.303 -0.0053 -0.2439  0.2526
 3085W        W 4082   5.733   6.986   5.210 -0.1878  0.2594 -0.2361
 3086W        W 4083   7.168   2.221   4.002  0.1648 -0.0985 -0.2119
 3087W        W 4084   6.696   4.901   0.751 -0.0671 -0.3459 -0.1578
 3088W        W 4085   4.499   6.795   3.760 -0.1000 -0.4026 -0.0471
 3089W        W 4086   1.766   4.893   6.624  0.0046  0.2334 -0.2302
 3090W        W 4087   2.632   4.355   5.572  0.1972 -0.0584  0.2232
 3091W        W 4088   4.981   0.683   4.613 -0.0808  0.2129  0.0718
 3092W        W 4089   1.954   6.909   7.548  0.0124  0.1830  0.2443
 3093W        W 4090   4.011   4.602   0.660  0.0509 -0.0309 -0.4656
 3094W        W 4091   6.511   1.770   5.986  0.2282  0.1450  0.2751
 3095W        W 4092   5.952   5.040   5.359 -0.0427  0.1097  0.1269
 3096W        W 4093   1.374   3.782   0.723  0.0542  0.2019 -0.1415
 3097W        W 4094   2.210   7.410   6.081 -0.0721 -0.2606 -0.1088
 3098W        W 4095   0.633   3.691   5.361  0.3434 -0.1016 -0.1762
 3099W        W 4096   2.224   6.509   7.359  0.1431 -0.0400 -0.2965
 3100W        W 4097   0.544   2.302   5.795  0.2122 -0.2205 -0.1518
 3101W        W 4098   2.144   3.551   6.222  0.0268  0.2200  0.0137
 3102W        W 4099   7.031   5.048   3.173  0.1484  0.0399 -0.2395
 3103W        W 4100   7.400   5.969   0.102  0.1802 -0.0182  0.1549
 3104W        W 4101   0.082   0.770   6.789  0.2943 -0.0205  0.0633
 3105W        W 4102   3.600   3.674   6.905 -0.1352  0.1426 -0.1550
 3106W        W 4103   6.785   2.639   6.939 -0.3449  0.3424 -0.1590
 3107W        W 4104   2.409   1.442   4.922  0.1032 -0.0537 -0.0139
 3108W        W 4105   6.601   1.445   0.257  0.0861  0.6250  0.0542
 3109W        W 4106   7.385   3.794   0.112  0.2023 -0.1629  0.2004
 3110W        W 4107   3.308   5.388   1.677 -0.1412 -0.1689 -0.2659
 3111W        W 4108   4.918   3.296   4.328  0.3482  0.0701  0.0422
 3112W        W 4109   0.021   6.985   4.242 -0.1755  0.0500 -0.1767
 3113W        W 4110   1.066   4.861   0.695  0.2942 -0.0420 -0.1646
 3114W        W 4111   3.559   1.411   2.990 -0.2359 -0.4333  0.1327
 3115W        W 4112   2.467   5.280   1.350  0.7050 -0.0464 -0.1190
 3116W        W 4113   6.293   5.673   4.156 -0.1575 -0.1749  0.0843
 3117W        W 4114   0.003   6.743   6.070 -0.1077 -0.2639 -0.0919
 3118W        W 4115   0.055   1.884   4.823 -0.0024 -0.1551  0.0194
 3119W        W 4116   2.463   4.762   7.250  0.0002  0.2115  0.0072
 3120W        W 4117   0.813   0.282   6.754 -0.1355 -0.0510  0.1163
 3121W        W 4118   5.999   4.771   6.311  0.2868 -0.1607  0.1311
 3122W        W 4119   1.505   0.754   4.416  0.3347  0.2365 -0.1268
 3123W        W 4120   1.471   0.741   7.639 -0.0279  0.1381 -0.0080
 3124W        W 4121   0.824   5.251   2.610 -0.0767 -0.3377  0.1671
 3125W        W 4122   7.237   6.280   7.329  0.1658  0.0405  0.1188
 3126W        W 4123   5.379   2.217   2.790 -0.1467 -0.1055 -0.1232
 3127W        W 4124   4.451   7.246   0.744 -0.0836 -0.2160 -0.1327
 3128W        W 4125   3.807   1.215   7.400  0.2466 -0.2412  0.0205
 3129W        W 4126   6.490   4.755   7.567  0.0630 -0.1167  0.0724
 3130W        W 4127   1.731   2.236   4.369 -0.0496 -0.1001 -0.1173
 3131W        W 4128   1.146   5.429   3.600  0.0130  0.2128 -0.1341
 3132W        W 4129   7.395   0.217   4.925 -0.1937  0.1297 -0.0645
 3133W        W 4130   4.411   1.443   1.694  0.2398  0.1110 -0.1956
 3134W        W 4131   2.919   1.493   7.298 -0.0379  0.0190 -0.0575
 3135W        W 4132   5.203   4.405   0.704  0.1324 -0.0045  0.1732
 3136W        W 4133   6.749   2.988   5.356 -0.3000  0.3693  0.0119
 3137W        W 4134   5.247   5.483   1.448  0.0971 -0.1780 -0.0931
 3138W        W 4135   1.405   4.729   5.540 -0.1062  0.0543  0.0320
 3139W        W 4136   5.472   3.944   1.352  0.1027  0.2639  0.1664
 3140W        W 4137   5.557   5.050   3.922 -0.1428  0.0456 -0.1057
 3141W        W 4138   7.312   1.123   2.295  0.1783  0.2791  0.0852
 3142W        W 4139   3.492   7.613   0.245  0.1317  0.3266  0.1041
 3143W        W 4140   4.721   1.733   4.709 -0.0311  0.0777 -0.0026
 3144W        W 4141   7.461   4.655   3.668  0.0271 -0.2895  0.1868
 3145W        W 4142   1.621   6.505   4.956 -0.0310  0.1386 -0.1250
 3146W        W 4143   1.077   4.280   1.410  0.0496 -0.4334 -0.0673
 3147W        W 4144   0.523   3.819   4.890 -0.2406  0.4753 -0.0666
 3148W        W 4145   0.126   3.433   5.080  0.0472 -0.1182  0.1584
 3149W        W 4146   4.462   4.911   2.070  0.1476  0.0969  0.4387
 3150W        W 4147   3.058   0.906   6.131  0.1731 -0.0383  0.3446
 3151W        W 4148   4.903   3.889   0.559 -0.0394 -0.1403  0.1230
 3152W        W 4149   3.512   7.298   7.469 -0.1434 -0.1248 -0.3296
 3153W        W 4150   2.187   2.037   0.854  0.0027 -0.0874 -0.0936
 3154W        W 4151   4.953   7.269   5.893 -0.1083  0.0747  0.0096
 3155W        W 4152   2.333   2.656   3.939  0.0522 -0.0599  0.0618
 3156W        W 4153   1.080   7.422   5.113  0.1366 -0.0026  0.0430
 3157W        W 4154   4.055   2.603   5.155  0.0080 -0.1542  0.0482
 3158W        W 4155   0.874   2.735   6.023 -0.1247  0.0474 -0.1218
 3159W        W 4156   2.527   1.356   5.458 -0.0916  0.0627  0.1479
 3160W        W 4157   5.167   5.656   4.461 -0.0834  0.0198  0.1704
 3161W        W 4158   2.780   0.675   0.986 -0.1531 -0.0676  0.0474
 3162W        W 4159   1.184   3.951   5.494 -0.1595  0.0787 -0.0139
 3163W        W 4160   1.275   3.565   2.622 -0.0069  0.0633  0.1994
 3164W        W 4161   7.092   1.014   5.662  0.0677  0.1206  0.1508
 3165W        W 4162   2.632   7.322   6.407 -0.1224  0.0914  0.4681
 3166W        W 4163   6.135   0.084   7.291 -0.0917  0.1362 -0.4484
 3167W        W 4164   1.095   3.723   1.370  0.0926  0.2061 -0.3957
 3168W        W 4165   0.266   3.704   1.899  0.2990 -0.1873  0.0322
 3169W        W 4166   4.256   0.054   4.120 -0.0050 -0.2721  0.2100
 3170W        W 4167   4.567   0.809   0.452  0.1803 -0.3890 -0.0366
 3171W        W 4168   0.179   4.058   2.754  0.2260  0.0388 -0.0510
 3172W        W 4169   1.013   2.103   3.883 -0.2836  0.0094 -0.2172
 3173W        W 4170   3.273   5.785   4.558  0.0220 -0.1472  0.0485
 3174W        W 4171   5.929   3.625   4.332 -0.0896  0.0448 -0.2853
 3175W        W 4172   6.538   4.728   1.535  0.0475 -0.3526 -0.2062
 3176W        W 4173   3.898   2.687   5.638  0.3437  0.0939 -0.3325
 3177W        W 4174   4.030   7.023   7.178  0.1797 -0.1462  0.3105
 3178W        W 4175   2.231   3.060   4.177 -0.4195 -0.0503  0.1748
 3179W        W 4176   4.562   2.751   0.827 -0.0831  0.1273  0.0709
 3180W        W 4177   4.338   7.272   4.988  0.0985 -0.0412 -0.1197
 3181W        W 4178   1.794   3.764   5.729 -0.1051  0.0379 -0.1847
 3182W        W 4179   3.662   5.373   1.143 -0.0115  0.2462 -0.2305
 3183W        W 4180   4.803   3.641   3.967  0.0727  0.0921 -0.1393
 3184W        W 4181   0.890   5.968   6.744 -0.0659 -0.3267 -0.1459
 3185W        W 4182   5.599   2.240   5.126 -0.1062  0.1375 -0.4295
 3186W        W 4183   2.106   2.744   3.480 -0.0071  0.1455 -0.1628
 3187W        W 4184   7.257   2.788   2.219  0.0998  0.1268  0.2186
 3188W        W 4185   0.861   4.894   6.642 -0.1943  0.1667  0.1841
 3189W        W 4186   7.225   5.769   7.113 -0.1340 -0.0029 -0.0768
 3190W        W 4187   5.573   4.594   1.316 -0.3389 -0.5086 -0.0011
 3191W        W 4188   3.285   2.083   4.959 -0.2308 -0.1936  0.1073
 3192W        W 4189   2.772   2.083   2.223  0.3475 -0.0275 -0.1802
 3193W        W 4190   4.263   4.269   6.069  0.0489  0.2007  0.0351
 3194W        W 4191   0.270   0.334   7.643 -0.3113 -0.2384  0.6820
 3195W        W 4192   1.400   3.060   3.369  0.2323  0.0030 -0.5676
 3196W        W 4193   3.623   5.187   7.036  0.0810  0.5069  0.1867
 3197W        W 4194   6.124   2.837   3.782  0.0303 -0.2162 -0.2003
 3198W        W 4195   1.503   2.935   6.029 -0.1693  0.0860  0.1677
 3199W        W 4196   5.028   5.040   4.161  0.1423 -0.0232  0.2795
 3200W        W 4197   4.015   4.587   7.354  0.0188 -0.1153 -0.1741
 3201W        W 4198   2.965   5.923   7.168  0.0748  0.1985  0.0228
 3202W        W 4199   0.072   5.003   7.055  0.0712 -0.2812  0.1704
 3203W        W 4200   3.211   2.140   6.919  0.1279 -0.0488 -0.0525
 3204W        W 4201   0.625   4.613   1.666  0.1405  0.0415 -0.0040
 3205W        W 4202   6.479   4.406   3.606  0.1017  0.3350 -0.1855
 3206W        W 4203   4.357   2.374   3.985 -0.1216 -0.0526 -0.0174
   7.64394   7.64394   7.64394
