Martini system from ../2_Creating_coordinates/TYR-ALA-TYR_aa.pdb
 4142
    1TYR     BB    1   0.794   5.956   5.044 -0.1154  0.2922 -0.0610
    1TYR    SC1    2   0.651   6.187   5.219  0.1036  0.2406 -0.0961
    1TYR    SC2    3   0.405   6.297   5.240  0.0040  0.0052  0.0209
    1TYR    SC3    4   0.592   6.348   5.428 -0.0280  0.0067  0.0524
    2ALA     BB    5   0.610   5.813   4.844  0.0138  0.1756  0.0798
    3TYR     BB    6   0.610   5.796   4.538  0.2868 -0.1060 -0.0978
    3TYR    SC1    7   0.862   5.791   4.417  0.0608  0.3782 -0.2403
    3TYR    SC2    8   0.999   5.946   4.243  0.3760  0.2947 -0.0768
    3TYR    SC3    9   1.116   5.865   4.472  0.2505 -0.2440 -0.1869
    1TYR     BB   10   2.886   0.622   6.253 -0.0637  0.0459 -0.1267
    1TYR    SC1   11   2.724   0.882   6.340  0.3032 -0.0654  0.0194
    1TYR    SC2   12   2.488   0.981   6.423  0.2352 -0.3504  0.1821
    1TYR    SC3   13   2.633   1.115   6.240 -0.1075 -0.2289 -0.0133
    2ALA     BB   14   2.887   0.401   6.229 -0.0296  0.3883 -0.1672
    3TYR     BB   15   3.058   0.094   6.318  0.0378 -0.2159 -0.0075
    3TYR    SC1   16   3.189  -0.133   6.168  0.4281 -0.0533  0.2760
    3TYR    SC2   17   3.345  -0.329   6.068  0.1048 -0.1738 -0.0182
    3TYR    SC3   18   3.106  -0.277   5.955 -0.0635  0.0206  0.4034
    1TYR     BB   19   4.365   2.520   3.681  0.0484 -0.3765  0.0704
    1TYR    SC1   20   4.046   2.547   3.664  0.1695 -0.1081  0.1569
    1TYR    SC2   21   3.848   2.497   3.488  0.2765 -0.3019  0.0870
    1TYR    SC3   22   3.807   2.458   3.752 -0.0448  0.4423  0.1791
    2ALA     BB   23   4.540   2.791   3.675  0.0798  0.1492  0.1210
    3TYR     BB   24   4.701   2.931   3.805  0.3052 -0.0807  0.0112
    3TYR    SC1   25   4.756   2.984   4.098  0.1528  0.2729 -0.1009
    3TYR    SC2   26   4.619   3.104   4.298 -0.0004 -0.1714  0.0764
    3TYR    SC3   27   4.866   3.004   4.344  0.0366 -0.1201 -0.0075
    1TYR     BB   28   5.958   3.536   2.437  0.4960 -0.1277 -0.0908
    1TYR    SC1   29   5.756   3.321   2.540  0.0451  0.1610  0.2387
    1TYR    SC2   30   5.635   3.268   2.775 -0.1550 -0.0300  0.0978
    1TYR    SC3   31   5.782   3.078   2.654 -0.0644  0.0632  0.0601
    2ALA     BB   32   5.783   3.816   2.305  0.1172  0.1949  0.1251
    3TYR     BB   33   5.553   3.942   2.121  0.0455  0.1624  0.2154
    3TYR    SC1   34   5.351   4.143   2.227 -0.0191  0.1689 -0.0766
    3TYR    SC2   35   5.150   4.224   2.388  0.2046 -0.1878  0.4173
    3TYR    SC3   36   5.273   4.402   2.226 -0.1972  0.1327  0.4422
    1TYR     BB   37   2.920   0.033   5.052  0.1986 -0.1499 -0.1567
    1TYR    SC1   38   3.057  -0.181   4.869  0.1821 -0.0046  0.0232
    1TYR    SC2   39   3.216  -0.395   4.825  0.0232 -0.1284  0.0380
    1TYR    SC3   40   3.265  -0.161   4.698  0.1226 -0.2102 -0.0771
    2ALA     BB   41   2.833   0.086   5.251 -0.0219  0.3851 -0.1193
    3TYR     BB   42   2.552   0.311   5.344  0.1937  0.0360  0.3548
    3TYR    SC1   43   2.656   0.571   5.279 -0.4246  0.1801 -0.0860
    3TYR    SC2   44   2.611   0.836   5.302 -0.2216  0.2269 -0.2001
    3TYR    SC3   45   2.823   0.747   5.161 -0.0653  0.0130  0.1524
    1TYR     BB   46   1.886   1.131   5.602 -0.0792  0.0624 -0.0286
    1TYR    SC1   47   1.822   0.920   5.816  0.0645 -0.0222 -0.0299
    1TYR    SC2   48   1.841   0.652   5.849  0.0924 -0.0066  0.0863
    1TYR    SC3   49   1.668   0.795   6.000  0.2155  0.0658  0.1608
    2ALA     BB   50   2.097   1.139   5.298 -0.0028  0.1753 -0.0759
    3TYR     BB   51   1.918   1.195   4.983 -0.0000  0.0054 -0.0660
    3TYR    SC1   52   1.671   1.278   5.087  0.0122 -0.1712 -0.0726
    3TYR    SC2   53   1.554   1.384   5.306  0.2430  0.1999 -0.1170
    3TYR    SC3   54   1.402   1.287   5.105  0.0277  0.0045  0.1305
    1TYR     BB   55   1.447   7.212   6.894 -0.2702  0.0354  0.0688
    1TYR    SC1   56   1.651   7.361   7.043  0.4574 -0.1441 -0.0009
    1TYR    SC2   57   1.763   7.444   7.274  0.1611  0.0694  0.0744
    1TYR    SC3   58   1.817   7.574   7.043  0.0575  0.1834  0.1134
    2ALA     BB   59   1.134   7.086   6.835  0.0977 -0.0603 -0.2745
    3TYR     BB   60   1.066   6.823   6.914  0.2006 -0.2032  0.0733
    3TYR    SC1   61   0.789   6.680   6.878 -0.1624  0.0694  0.3869
    3TYR    SC2   62   0.538   6.682   6.779  0.0467  0.1384 -0.1892
    3TYR    SC3   63   0.591   6.551   7.009 -0.4481 -0.1666 -0.2301
    1TYR     BB   64   4.511   3.897   3.102 -0.3718  0.2491 -0.0814
    1TYR    SC1   65   4.387   4.108   2.913  0.2803  0.3559  0.1899
    1TYR    SC2   66   4.430   4.331   2.768 -0.1429  0.3169 -0.0153
    1TYR    SC3   67   4.219   4.173   2.712  0.0300 -0.0287  0.2616
    2ALA     BB   68   4.290   3.733   3.244 -0.0569  0.0112  0.0231
    3TYR     BB   69   4.125   3.566   3.487  0.1558 -0.3141 -0.0190
    3TYR    SC1   70   3.847   3.639   3.472 -0.1840 -0.1840  0.1926
    3TYR    SC2   71   3.769   3.892   3.414 -0.1870 -0.1964  0.1416
    3TYR    SC3   72   3.639   3.750   3.604 -0.1580 -0.1446  0.2006
    1TYR     BB   73   1.258   7.426   5.907 -0.1906 -0.1821  0.1061
    1TYR    SC1   74   1.561   7.381   5.888  0.0220  0.1641  0.0872
    1TYR    SC2   75   1.789   7.236   5.892 -0.1136 -0.0538  0.0918
    1TYR    SC3   76   1.794   7.493   5.811  0.1621 -0.0027  0.2570
    2ALA     BB   77   1.110   7.732   5.899 -0.0392  0.2572  0.0275
    3TYR     BB   78   0.914   7.831   5.666  0.0923 -0.0246 -0.1119
    3TYR    SC1   79   1.083   7.913   5.396  0.0178 -0.0780 -0.0263
    3TYR    SC2   80   1.003   8.071   5.193 -0.1397 -0.1463 -0.0189
    3TYR    SC3   81   1.258   7.983   5.202  0.0119  0.2717  0.0857
    1TYR     BB   82   2.439   5.225   5.102  0.0302  0.0678 -0.1156
    1TYR    SC1   83   2.708   5.201   5.288 -0.0307 -0.1568  0.0803
    1TYR    SC2   84   2.959   5.293   5.251 -0.0655 -0.0557  0.0904
    1TYR    SC3   85   2.901   5.145   5.469 -0.0690  0.1272  0.2170
    2ALA     BB   86   2.483   5.518   5.038 -0.2015  0.2279  0.4044
    3TYR     BB   87   2.338   5.765   4.882 -0.0367 -0.2218 -0.2814
    3TYR    SC1   88   2.318   5.765   4.602  0.3449  0.2986 -0.0184
    3TYR    SC2   89   2.193   5.876   4.390 -0.1450  0.0791  0.1361
    3TYR    SC3   90   2.233   5.609   4.398 -0.0029  0.1024  0.2625
    1TYR     BB   91   3.081   6.983   5.607  0.0276  0.1466  0.1594
    1TYR    SC1   92   2.955   6.692   5.453  0.0812  0.2806 -0.1478
    1TYR    SC2   93   3.010   6.602   5.204  0.2411  0.2974 -0.1203
    1TYR    SC3   94   2.825   6.476   5.356  0.2194  0.2227 -0.2075
    2ALA     BB   95   3.296   6.964   5.712  0.1286  0.1101 -0.1826
    3TYR     BB   96   3.527   6.890   5.845 -0.1289 -0.2007  0.1842
    3TYR    SC1   97   3.606   6.633   6.047 -0.3858 -0.1776 -0.2174
    3TYR    SC2   98   3.706   6.598   6.296 -0.0967  0.1289 -0.2820
    3TYR    SC3   99   3.595   6.390   6.164 -0.1694 -0.0595  0.0634
    1TYR     BB  100   1.535   5.711   6.035  0.1760 -0.1266  0.1985
    1TYR    SC1  101   1.667   5.465   6.027  0.5559  0.3129  0.4080
    1TYR    SC2  102   1.855   5.328   5.890 -0.0470 -0.0334 -0.1499
    1TYR    SC3  103   1.761   5.231   6.124  0.0126 -0.2070 -0.1958
    2ALA     BB  104   1.228   5.640   5.920 -0.4259 -0.0842  0.0283
    3TYR     BB  105   1.085   5.793   5.813 -0.0192 -0.1691  0.0255
    3TYR    SC1  106   1.058   6.028   5.588  0.3636  0.0411  0.0086
    3TYR    SC2  107   1.220   6.245   5.591  0.1195  0.2337 -0.1782
    3TYR    SC3  108   1.058   6.200   5.380  0.4409 -0.3489 -0.3286
    1TYR     BB  109   1.578   5.441   5.290  0.0707 -0.0066 -0.3083
    1TYR    SC1  110   1.785   5.240   5.389 -0.1542 -0.1576 -0.0891
    1TYR    SC2  111   2.010   5.091   5.404 -0.1916 -0.2687 -0.4852
    1TYR    SC3  112   1.785   5.007   5.526 -0.0123 -0.1240 -0.0297
    2ALA     BB  113   1.551   5.653   5.534  0.1043 -0.5170  0.2214
    3TYR     BB  114   1.563   5.929   5.554  0.1361  0.0435 -0.1521
    3TYR    SC1  115   1.637   6.089   5.297  0.2194  0.1018 -0.1236
    3TYR    SC2  116   1.480   6.256   5.153 -0.0090  0.0558  0.0640
    3TYR    SC3  117   1.738   6.216   5.081 -0.0229  0.2912 -0.1306
    1TYR     BB  118   1.983   7.346   4.129 -0.1313 -0.1289  0.1760
    1TYR    SC1  119   2.230   7.468   4.006 -0.2115  0.2844 -0.2983
    1TYR    SC2  120   2.323   7.685   3.875 -0.2091  0.4140 -0.0878
    1TYR    SC3  121   2.493   7.530   4.017 -0.2157  0.2885 -0.2136
    2ALA     BB  122   1.893   7.233   4.352 -0.0948 -0.0581  0.4467
    3TYR     BB  123   1.598   7.227   4.434  0.1125 -0.0833 -0.0041
    3TYR    SC1  124   1.509   6.948   4.425 -0.1402 -0.0974  0.0523
    3TYR    SC2  125   1.560   6.686   4.385 -0.0356 -0.1101  0.2523
    3TYR    SC3  126   1.323   6.763   4.491 -0.0486 -0.1273  0.2359
    1TYR     BB  127   2.804   5.753   6.111  0.2268  0.2604 -0.6169
    1TYR    SC1  128   2.848   5.452   6.038  0.0054 -0.0851 -0.1326
    1TYR    SC2  129   2.840   5.202   5.937  0.3917 -0.1082 -0.1221
    1TYR    SC3  130   2.979   5.252   6.164  0.6266  0.1750 -0.3194
    2ALA     BB  131   2.533   5.873   6.117 -0.1361 -0.0693  0.2495
    3TYR     BB  132   2.430   6.038   5.931  0.2204 -0.1477  0.0128
    3TYR    SC1  133   2.314   6.325   5.961  0.0631  0.1784 -0.0314
    3TYR    SC2  134   2.115   6.490   6.041  0.0565  0.1461  0.0197
    3TYR    SC3  135   2.367   6.529   6.130  0.0010 -0.0535  0.2807
    1TYR     BB  136   4.487   2.568   4.207  0.0757  0.1605  0.0789
    1TYR    SC1  137   4.230   2.372   4.165  0.0545  0.1746 -0.1671
    1TYR    SC2  138   4.043   2.209   4.060 -0.0206  0.0473  0.1514
    1TYR    SC3  139   3.969   2.442   4.174  0.0140  0.0042  0.2637
    2ALA     BB  140   4.683   2.384   3.995 -0.1222 -0.2618  0.0849
    3TYR     BB  141   4.934   2.500   3.847 -0.0343 -0.1035  0.1305
    3TYR    SC1  142   4.933   2.565   3.553 -0.0174 -0.0557 -0.3166
    3TYR    SC2  143   5.050   2.445   3.342 -0.0652 -0.2714 -0.2248
    3TYR    SC3  144   4.781   2.458   3.357 -0.0691  0.2510 -0.4513
    1TYR     BB  145   2.798   6.277   6.230  0.0172 -0.2560  0.3605
    1TYR    SC1  146   3.066   6.149   6.231 -0.0394 -0.3099 -0.0630
    1TYR    SC2  147   3.287   6.064   6.361 -0.0508 -0.2838 -0.0263
    1TYR    SC3  148   3.283   6.070   6.091  0.0358 -0.1736 -0.0263
    2ALA     BB  149   2.813   6.520   6.455 -0.0916 -0.1088 -0.1613
    3TYR     BB  150   2.687   6.655   6.559  0.0203 -0.1314  0.0018
    3TYR    SC1  151   2.595   6.948   6.575 -0.0588  0.0667  0.3753
    3TYR    SC2  152   2.517   7.134   6.754 -0.0646  0.0671  0.3724
    3TYR    SC3  153   2.423   7.142   6.501  0.4671  0.4842  0.1631
    1TYR     BB  154   1.688   1.474   6.231 -0.1254 -0.2632 -0.0455
    1TYR    SC1  155   1.914   1.255   6.226 -0.2015  0.0556 -0.0548
    1TYR    SC2  156   2.113   1.155   6.074 -0.0074  0.1692  0.1188
    1TYR    SC3  157   1.983   0.995   6.248  0.2291  0.1861  0.3178
    2ALA     BB  158   1.499   1.314   5.916 -0.0725  0.1016  0.4290
    3TYR     BB  159   1.307   1.167   5.750 -0.1884 -0.2166  0.1333
    3TYR    SC1  160   1.258   0.868   5.762 -0.2527  0.1872 -0.0728
    3TYR    SC2  161   1.186   0.614   5.704  0.4709  0.0322 -0.4246
    3TYR    SC3  162   1.242   0.684   5.959 -0.5240  0.0966 -0.1740
    1TYR     BB  163   1.049   6.729   5.915 -0.0123  0.3728  0.1748
    1TYR    SC1  164   1.365   6.717   5.920 -0.0966  0.1511 -0.2543
    1TYR    SC2  165   1.629   6.703   5.973 -0.1790  0.0375  0.1674
    1TYR    SC3  166   1.506   6.943   5.965 -0.0717  0.0890 -0.0060
    2ALA     BB  167   0.931   6.700   5.650  0.1586  0.0313 -0.3068
    3TYR     BB  168   0.995   6.719   5.387  0.3391  0.1312 -0.0846
    3TYR    SC1  169   0.712   6.728   5.238  0.1440 -0.4040 -0.0503
    3TYR    SC2  170   0.460   6.799   5.172  0.2465  0.0938  0.0433
    3TYR    SC3  171   0.610   6.658   4.998 -0.0007  0.0334 -0.1283
    1TYR     BB  172   5.351   4.773   2.649  0.1224 -0.0560  0.3848
    1TYR    SC1  173   5.052   4.665   2.625  0.3175 -0.2292 -0.2092
    1TYR    SC2  174   4.857   4.509   2.522  0.0328 -0.1020  0.1122
    1TYR    SC3  175   4.816   4.774   2.553  0.3575 -0.0264 -0.0456
    2ALA     BB  176   5.623   4.585   2.522 -0.1562 -0.0817  0.2277
    3TYR     BB  177   5.734   4.290   2.503 -0.1959 -0.2255 -0.4613
    3TYR    SC1  178   6.039   4.242   2.523 -0.0842 -0.0114  0.4140
    3TYR    SC2  179   6.211   4.042   2.466 -0.1967 -0.0447  0.1770
    3TYR    SC3  180   6.299   4.296   2.479 -0.1264 -0.0622  0.0614
    1TYR     BB  181   1.085   7.530   7.211  0.1088  0.0820  0.0064
    1TYR    SC1  182   0.922   7.477   6.942  0.0577 -0.0485  0.0159
    1TYR    SC2  183   0.990   7.543   6.689  0.0464 -0.3299 -0.0649
    1TYR    SC3  184   0.733   7.561   6.769  0.0027 -0.5013 -0.1608
    2ALA     BB  185   1.186   7.308   7.363  0.2379 -0.0342  0.0477
    3TYR     BB  186   1.281   7.037   7.349 -0.4240 -0.3997 -0.1062
    3TYR    SC1  187   1.615   7.003   7.409  0.0638  0.0480 -0.1302
    3TYR    SC2  188   1.840   7.092   7.529 -0.0354 -0.1599  0.2263
    3TYR    SC3  189   1.854   6.978   7.285  0.1830  0.1984  0.0611
    1TYR     BB  190   1.725   0.809   5.293  0.3252  0.0168 -0.0669
    1TYR    SC1  191   1.964   0.652   5.424  0.3033 -0.1636  0.1262
    1TYR    SC2  192   2.119   0.462   5.538  0.2549 -0.0326  0.4219
    1TYR    SC3  193   2.228   0.696   5.459  0.2772 -0.0998  0.2466
    2ALA     BB  194   1.455   0.871   5.329 -0.1488 -0.0357  0.1738
    3TYR     BB  195   1.127   0.886   5.318  0.1722 -0.2431  0.2360
    3TYR    SC1  196   0.892   0.853   5.465  0.0434 -0.0668 -0.0157
    3TYR    SC2  197   0.767   0.658   5.604 -0.1623 -0.0211 -0.1313
    3TYR    SC3  198   0.787   0.906   5.708  0.1795 -0.1189  0.0557
    1TYR     BB  199   2.497   7.358   5.121 -0.2366 -0.0951 -0.0343
    1TYR    SC1  200   2.747   7.236   5.211  0.0851 -0.0141  0.2365
    1TYR    SC2  201   2.809   6.982   5.142  0.1111  0.1423 -0.3893
    1TYR    SC3  202   3.006   7.162   5.188  0.0970  0.0237  0.2481
    2ALA     BB  203   2.437   7.613   4.940 -0.1003  0.0771  0.2916
    3TYR     BB  204   2.201   7.772   4.985  0.0846  0.0091  0.0632
    3TYR    SC1  205   2.186   8.110   5.044 -0.0888 -0.1981 -0.1767
    3TYR    SC2  206   2.057   8.341   4.990 -0.0640 -0.1769 -0.1456
    3TYR    SC3  207   2.323   8.342   5.034 -0.1170 -0.1565  0.2131
    1TYR     BB  208   1.368   5.910   3.762  0.0277  0.1565 -0.3869
    1TYR    SC1  209   1.075   5.973   3.694 -0.1977  0.0957 -0.1573
    1TYR    SC2  210   0.839   5.869   3.773 -0.3034  0.1663 -0.3692
    1TYR    SC3  211   0.845   6.058   3.581 -0.0928  0.3539 -0.1853
    2ALA     BB  212   1.469   5.833   4.073  0.3350 -0.0046  0.1552
    3TYR     BB  213   1.706   5.895   4.369  0.2300 -0.1139  0.1220
    3TYR    SC1  214   1.527   6.103   4.538 -0.3176  0.1661  0.0563
    3TYR    SC2  215   1.318   6.271   4.511 -0.2296  0.2541 -0.0976
    3TYR    SC3  216   1.517   6.329   4.685 -0.2372  0.2697 -0.0942
    1TYR     BB  217   4.393   4.866   3.875 -0.1681  0.2201  0.0766
    1TYR    SC1  218   4.226   4.717   3.743  0.3126  0.0075 -0.0578
    1TYR    SC2  219   3.984   4.599   3.764  0.4119 -0.1510  0.3020
    1TYR    SC3  220   4.136   4.558   3.545  0.0291  0.1339 -0.0377
    2ALA     BB  221   4.713   4.800   3.947  0.0332  0.6471  0.0117
    3TYR     BB  222   4.900   4.571   4.190  0.2941 -0.3038 -0.1685
    3TYR    SC1  223   4.888   4.669   4.446 -0.0167  0.2582 -0.1157
    3TYR    SC2  224   5.002   4.684   4.691  0.2385  0.1014 -0.2203
    3TYR    SC3  225   4.852   4.889   4.599 -0.0246  0.0822  0.1427
    1TYR     BB  226   2.791   7.317   7.202  0.0851 -0.2884 -0.1487
    1TYR    SC1  227   2.701   7.386   7.523  0.1812 -0.0768 -0.0074
    1TYR    SC2  228   2.758   7.291   7.769 -0.1693  0.0213  0.1183
    1TYR    SC3  229   2.734   7.557   7.729  0.0782  0.0191 -0.0693
    2ALA     BB  230   2.801   7.072   7.111 -0.1772  0.1229 -0.0205
    3TYR     BB  231   2.862   6.818   7.083 -0.2925  0.2486  0.0771
    3TYR    SC1  232   2.756   6.542   7.068 -0.0337  0.2332 -0.2868
    3TYR    SC2  233   2.851   6.308   6.972 -0.0579 -0.1167  0.4596
    3TYR    SC3  234   2.585   6.344   7.000 -0.0764  0.1504  0.0417
    1TYR     BB  235   2.403   0.486   6.255  0.0326  0.2639  0.0794
    1TYR    SC1  236   2.322   0.544   6.542 -0.3426 -0.6915 -0.2235
    1TYR    SC2  237   2.263   0.489   6.800  0.3297 -0.1659  0.0839
    1TYR    SC3  238   2.248   0.743   6.709 -0.2721 -0.3861 -0.5420
    2ALA     BB  239   2.291   0.619   6.084 -0.1051 -0.0249  0.1085
    3TYR     BB  240   2.414   0.821   5.899  0.1059  0.3478  0.0508
    3TYR    SC1  241   2.705   0.766   5.834 -0.2083 -0.0090 -0.0843
    3TYR    SC2  242   2.887   0.707   5.643  0.2071 -0.4964  0.4191
    3TYR    SC3  243   2.945   0.890   5.832 -0.3365  0.2462 -0.0645
    1TYR     BB  244   4.910   3.348   4.824  0.1462  0.0016  0.4158
    1TYR    SC1  245   5.070   3.482   5.049 -0.1817 -0.2087  0.3190
    1TYR    SC2  246   5.131   3.644   5.256  0.0793 -0.1098  0.1705
    1TYR    SC3  247   5.225   3.699   5.009 -0.3308 -0.1543 -0.0059
    2ALA     BB  248   4.654   3.319   4.748 -0.3618 -0.2479 -0.0069
    3TYR     BB  249   4.413   3.363   4.639 -0.1226  0.0296  0.0822
    3TYR    SC1  250   4.204   3.498   4.831 -0.1749  0.1203  0.1042
    3TYR    SC2  251   4.144   3.490   5.095 -0.0249 -0.0639  0.1359
    3TYR    SC3  252   4.089   3.711   4.950  0.1342  0.1435  0.3808
    1TYR     BB  253   1.851   7.510   5.320  0.1545  0.1008 -0.0410
    1TYR    SC1  254   1.750   7.750   5.131 -0.0697  0.0236  0.1300
    1TYR    SC2  255   1.753   7.999   5.027 -0.2364 -0.0337 -0.0177
    1TYR    SC3  256   1.743   7.785   4.863  0.0001 -0.1429  0.1052
    2ALA     BB  257   2.137   7.604   5.407  0.2527 -0.1168  0.1762
    3TYR     BB  258   2.280   7.598   5.641  0.1498 -0.2450  0.0750
    3TYR    SC1  259   2.505   7.392   5.675  0.0419 -0.1567 -0.0041
    3TYR    SC2  260   2.611   7.152   5.610  0.0236 -0.1687  0.0103
    3TYR    SC3  261   2.773   7.359   5.672  0.0459 -0.1216 -0.1963
    1TYR     BB  262   1.513   7.382   3.953  0.1456 -0.2235 -0.1676
    1TYR    SC1  263   1.467   7.688   3.951 -0.0161  0.0039 -0.0716
    1TYR    SC2  264   1.312   7.908   3.974 -0.0091 -0.0124  0.1661
    1TYR    SC3  265   1.524   7.909   3.806  0.0371  0.1893  0.2218
    2ALA     BB  266   1.183   7.283   3.978 -0.2662 -0.1809 -0.1733
    3TYR     BB  267   0.912   7.347   4.018 -0.2941  0.0062  0.1972
    3TYR    SC1  268   0.669   7.159   4.115 -0.1302  0.1515 -0.0127
    3TYR    SC2  269   0.505   6.966   4.023 -0.0274 -0.0669  0.2446
    3TYR    SC3  270   0.438   7.106   4.243 -0.0840  0.1727  0.0801
    1TYR     BB  271   1.533   0.220   6.117 -0.2729 -0.0957  0.2162
    1TYR    SC1  272   1.552   0.290   5.801 -0.2291 -0.2615 -0.2032
    1TYR    SC2  273   1.544   0.434   5.573 -0.1477 -0.0466 -0.0735
    1TYR    SC3  274   1.747   0.262   5.617 -0.1303 -0.0421 -0.1359
    2ALA     BB  275   1.496   0.022   6.276 -0.2984  0.0280 -0.1946
    3TYR     BB  276   1.551  -0.042   6.562  0.2811  0.0897 -0.1757
    3TYR    SC1  277   1.483   0.133   6.784  0.1271  0.0001 -0.2023
    3TYR    SC2  278   1.519   0.378   6.892 -0.0339  0.0531 -0.2646
    3TYR    SC3  279   1.281   0.254   6.916  0.0208 -0.0622 -0.3052
    1TYR     BB  280   4.187   2.647   3.144 -0.0024  0.0173 -0.1209
    1TYR    SC1  281   4.056   2.879   3.366  0.2285 -0.1203 -0.1118
    1TYR    SC2  282   4.173   3.101   3.465  0.2455 -0.2235  0.1091
    1TYR    SC3  283   3.948   3.006   3.579 -0.1532  0.0520 -0.3952
    2ALA     BB  284   4.427   2.795   3.005 -0.0132  0.2067  0.3810
    3TYR     BB  285   4.746   2.828   3.038 -0.2815 -0.3993 -0.2004
    3TYR    SC1  286   4.927   2.942   3.285  0.0645  0.1075 -0.2558
    3TYR    SC2  287   4.994   3.124   3.472 -0.1967  0.0065 -0.0562
    3TYR    SC3  288   5.163   2.921   3.414  0.0474  0.2431 -0.2011
    1TYR     BB  289   4.358   3.783   4.315  0.0903  0.0181  0.1687
    1TYR    SC1  290   4.078   3.851   4.355  0.0491  0.1171 -0.0996
    1TYR    SC2  291   3.817   3.912   4.324  0.0421  0.2489  0.1811
    1TYR    SC3  292   3.901   3.794   4.551  0.1838 -0.0696 -0.0286
    2ALA     BB  293   4.566   3.966   4.263 -0.2235 -0.1147 -0.0344
    3TYR     BB  294   4.694   4.194   4.451  0.0067 -0.1009 -0.0109
    3TYR    SC1  295   4.498   4.458   4.444 -0.5827 -0.1228 -0.1225
    3TYR    SC2  296   4.439   4.718   4.402  0.1624  0.1661  0.3573
    3TYR    SC3  297   4.427   4.615   4.651  0.0939 -0.2075  0.2081
    1TYR     BB  298   3.123   0.289   5.859 -0.2527  0.1641  0.0397
    1TYR    SC1  299   3.398   0.170   5.907  0.0075 -0.3810 -0.0484
    1TYR    SC2  300   3.564   0.144   6.118 -0.0055  0.0701  0.0313
    1TYR    SC3  301   3.662   0.134   5.867  0.0360 -0.2946  0.0546
    2ALA     BB  302   2.863   0.206   5.762 -0.2306 -0.2236  0.1287
    3TYR     BB  303   2.601   0.295   5.880  0.2910  0.4041  0.0357
    3TYR    SC1  304   2.549   0.055   6.094 -0.0919 -0.1729 -0.3705
    3TYR    SC2  305   2.700  -0.168   6.101  0.2272  0.0260  0.3992
    3TYR    SC3  306   2.441  -0.177   6.178  0.0110 -0.1816 -0.2606
    1TYR     BB  307   2.104   6.345   6.915 -0.1018  0.0561 -0.3249
    1TYR    SC1  308   2.067   6.502   6.639 -0.0008 -0.2453 -0.2282
    1TYR    SC2  309   1.953   6.605   6.418  0.0872  0.3328 -0.0251
    1TYR    SC3  310   2.184   6.708   6.510  0.1504 -0.0227  0.2382
    2ALA     BB  311   2.142   6.028   6.853  0.2856  0.2953  0.1006
    3TYR     BB  312   2.114   5.767   6.854  0.0590  0.1164 -0.0276
    3TYR    SC1  313   1.929   5.637   6.604  0.0524  0.2474  0.0693
    3TYR    SC2  314   1.734   5.549   6.440  0.1519  0.0095  0.0733
    3TYR    SC3  315   1.975   5.617   6.339  0.1596  0.0240  0.1015
    1TYR     BB  316   2.104   6.345   4.139 -0.0185  0.3575 -0.0708
    1TYR    SC1  317   2.017   6.095   3.988  0.4156 -0.1058  0.1249
    1TYR    SC2  318   1.976   5.828   3.980  0.0225 -0.0535  0.1129
    1TYR    SC3  319   1.857   5.989   3.798  0.1600  0.1433  0.1919
    2ALA     BB  320   2.435   6.261   4.148  0.3598  0.0250  0.1878
    3TYR     BB  321   2.692   6.161   4.111  0.1512 -0.0460 -0.0501
    3TYR    SC1  322   2.931   6.308   4.194  0.0615 -0.0289  0.0937
    3TYR    SC2  323   3.058   6.540   4.248  0.1710 -0.0950  0.1245
    3TYR    SC3  324   3.116   6.319   4.391  0.0256 -0.1282  0.1336
    1TYR     BB  325   4.992   3.777   4.580  0.2218 -0.1161 -0.2906
    1TYR    SC1  326   5.073   3.886   4.317  0.1028 -0.1335  0.1250
    1TYR    SC2  327   5.143   3.782   4.078 -0.0085 -0.0453  0.0525
    1TYR    SC3  328   5.047   4.034   4.092  0.0394 -0.0340  0.1965
    2ALA     BB  329   4.728   3.825   4.773 -0.1535 -0.0592  0.0086
    3TYR     BB  330   4.610   3.762   4.997 -0.2656 -0.1358 -0.1754
    3TYR    SC1  331   4.620   3.547   5.204 -0.0504 -0.1008 -0.0199
    3TYR    SC2  332   4.509   3.400   5.401  0.1521 -0.1920  0.0297
    3TYR    SC3  333   4.777   3.429   5.390  0.1485 -0.2353 -0.2661
    1TYR     BB  334   4.923   5.131   3.553  0.0450 -0.2651 -0.1973
    1TYR    SC1  335   4.646   5.258   3.647 -0.0526  0.1871  0.2052
    1TYR    SC2  336   4.517   5.491   3.601 -0.4913 -0.1574 -0.5426
    1TYR    SC3  337   4.377   5.261   3.618 -0.0799 -0.3941  0.2524
    2ALA     BB  338   5.214   5.138   3.597 -0.0666  0.1261 -0.1546
    3TYR     BB  339   5.354   5.343   3.705 -0.0958 -0.1597  0.1107
    3TYR    SC1  340   5.495   5.366   3.955 -0.1976  0.2784  0.1142
    3TYR    SC2  341   5.563   5.330   4.214  0.2328  0.0586 -0.0162
    3TYR    SC3  342   5.684   5.522   4.069  0.0836  0.0997 -0.0887
    1TYR     BB  343   1.505   6.602   5.453 -0.0041 -0.1405  0.2082
    1TYR    SC1  344   1.465   6.909   5.451  0.1975  0.0970  0.2390
    1TYR    SC2  345   1.289   7.072   5.576  0.1072 -0.0442  0.2986
    1TYR    SC3  346   1.526   7.169   5.490 -0.1272  0.2303 -0.0728
    2ALA     BB  347   1.739   6.469   5.582  0.2484  0.1550  0.1072
    3TYR     BB  348   2.014   6.319   5.505  0.0928  0.2195 -0.3087
    3TYR    SC1  349   2.239   6.517   5.579  0.0569  0.0068 -0.0471
    3TYR    SC2  350   2.344   6.749   5.668  0.0726  0.0355 -0.1394
    3TYR    SC3  351   2.505   6.538   5.622  0.0907  0.0780 -0.2757
    1TYR     BB  352   2.315   5.439   6.034  0.1088  0.1112 -0.2198
    1TYR    SC1  353   2.297   5.189   5.825 -0.0330  0.2435 -0.2363
    1TYR    SC2  354   2.372   4.957   5.708  0.0879  0.1431  0.0298
    1TYR    SC3  355   2.152   4.964   5.864  0.0488  0.2243 -0.0280
    2ALA     BB  356   2.463   5.315   6.343 -0.1948  0.0061  0.0747
    3TYR     BB  357   2.457   5.560   6.536  0.0831  0.0325 -0.1908
    3TYR    SC1  358   2.804   5.542   6.597  0.2975 -0.2603 -0.3517
    3TYR    SC2  359   2.993   5.734   6.612  0.2024 -0.1852  0.0858
    3TYR    SC3  360   2.965   5.556   6.813 -0.5003  0.1135  0.2901
    1TYR     BB  361   1.835   6.473   3.585  0.0516 -0.1858 -0.1314
    1TYR    SC1  362   2.113   6.379   3.647 -0.0374 -0.2254  0.4643
    1TYR    SC2  363   2.239   6.172   3.528 -0.0349  0.0334 -0.0165
    1TYR    SC3  364   2.374   6.332   3.699  0.1269 -0.0226 -0.0897
    2ALA     BB  365   1.668   6.465   3.858 -0.2208  0.1498 -0.2530
    3TYR     BB  366   1.562   6.319   4.087 -0.0808  0.4345  0.1627
    3TYR    SC1  367   1.278   6.374   4.102  0.0159  0.1459 -0.1399
    3TYR    SC2  368   1.027   6.380   4.202 -0.0012 -0.1879 -0.1488
    3TYR    SC3  369   1.067   6.337   3.938  0.0580  0.2782 -0.2257
    1TYR     BB  370   2.082   5.265   4.789  0.1477 -0.1101 -0.2164
    1TYR    SC1  371   1.915   5.073   4.920 -0.3335 -0.2174 -0.2846
    1TYR    SC2  372   1.846   4.858   5.069 -0.1947  0.1223  0.3122
    1TYR    SC3  373   1.662   4.981   4.914 -0.3475 -0.2407  0.1940
    2ALA     BB  374   1.877   5.546   4.852  0.2413  0.1948 -0.1935
    3TYR     BB  375   1.818   5.728   4.879 -0.0714 -0.2701 -0.0705
    3TYR    SC1  376   1.484   5.834   4.973 -0.2532 -0.2151 -0.1044
    3TYR    SC2  377   1.256   5.941   4.876 -0.1360  0.1248 -0.0209
    3TYR    SC3  378   1.271   5.866   5.135 -0.0687  0.3782  0.0528
    1TYR     BB  379   5.972   4.314   4.548 -0.0945 -0.1532 -0.0615
    1TYR    SC1  380   5.763   4.441   4.705  0.1960 -0.1930 -0.2113
    1TYR    SC2  381   5.806   4.671   4.839  0.2757 -0.3950  0.1244
    1TYR    SC3  382   5.555   4.576   4.812  0.2261 -0.2044 -0.1377
    2ALA     BB  383   6.021   4.390   4.245  0.1163  0.0044 -0.1387
    3TYR     BB  384   5.979   4.566   3.916 -0.2253 -0.3394 -0.1845
    3TYR    SC1  385   6.064   4.487   3.654 -0.4418  0.1203 -0.0084
    3TYR    SC2  386   6.161   4.320   3.465 -0.2492 -0.0653  0.2462
    3TYR    SC3  387   6.118   4.580   3.406 -0.3707 -0.1581 -0.1014
    1TYR     BB  388   3.795   4.110   3.911 -0.1138 -0.0953  0.2020
    1TYR    SC1  389   3.585   4.233   3.789  0.0454 -0.0570 -0.2291
    1TYR    SC2  390   3.350   4.351   3.850  0.0171 -0.2361  0.0281
    1TYR    SC3  391   3.500   4.445   3.646 -0.1290  0.0727  0.0573
    2ALA     BB  392   4.080   4.011   3.860  0.0502  0.0325 -0.1704
    3TYR     BB  393   4.243   4.047   3.563  0.0302 -0.4719 -0.0664
    3TYR    SC1  394   4.096   4.207   3.299 -0.1089  0.0697  0.3615
    3TYR    SC2  395   4.171   4.414   3.143 -0.1909 -0.0282  0.1884
    3TYR    SC3  396   3.935   4.291   3.099 -0.0785 -0.2518  0.1945
    1TYR     BB  397   4.682   4.556   3.492 -0.1965 -0.1267  0.1635
    1TYR    SC1  398   4.612   4.822   3.357  0.0155  0.1063 -0.0503
    1TYR    SC2  399   4.358   4.912   3.341 -0.0110  0.0791  0.1718
    1TYR    SC3  400   4.563   5.065   3.251 -0.1208 -0.0016 -0.2421
    2ALA     BB  401   4.618   4.374   3.674  0.1901  0.1410  0.1343
    3TYR     BB  402   4.480   4.285   3.956  0.0085  0.0039  0.0882
    3TYR    SC1  403   4.249   4.431   4.082 -0.0020  0.1074 -0.0658
    3TYR    SC2  404   4.109   4.314   4.280  0.1355  0.0732  0.0128
    3TYR    SC3  405   4.062   4.572   4.216 -0.1331 -0.0061 -0.1267
    1TYR     BB  406   5.236   2.466   4.398  0.0640  0.3911  0.0238
    1TYR    SC1  407   5.293   2.191   4.479 -0.1549 -0.2166 -0.1993
    1TYR    SC2  408   5.483   2.040   4.597 -0.0818  0.0097 -0.0207
    1TYR    SC3  409   5.223   1.974   4.623 -0.0530 -0.0624  0.0923
    2ALA     BB  410   4.933   2.483   4.423  0.2352  0.0397 -0.3508
    3TYR     BB  411   4.763   2.188   4.420 -0.1744 -0.3152  0.0524
    3TYR    SC1  412   4.466   2.172   4.489 -0.0909 -0.1394  0.2179
    3TYR    SC2  413   4.251   2.307   4.582 -0.1579  0.2052 -0.3784
    3TYR    SC3  414   4.226   2.050   4.505 -0.2680  0.1397 -0.1338
    1TYR     BB  415   4.340   3.483   3.950 -0.2240  0.1704  0.0888
    1TYR    SC1  416   4.530   3.681   3.804 -0.0896 -0.1964  0.0668
    1TYR    SC2  417   4.660   3.768   3.584 -0.0867  0.1854  0.2095
    1TYR    SC3  418   4.736   3.854   3.829 -0.3966  0.1558  0.3215
    2ALA     BB  419   4.333   3.225   3.911 -0.5523 -0.1584  0.2212
    3TYR     BB  420   4.225   2.921   4.027 -0.1282  0.0627 -0.1343
    3TYR    SC1  421   3.908   2.937   4.028 -0.2223  0.0809  0.2255
    3TYR    SC2  422   3.683   2.925   4.177 -0.3526 -0.0805  0.0233
    3TYR    SC3  423   3.668   2.909   3.908 -0.1011 -0.0382  0.0037
    1TYR     BB  424   5.250   2.908   4.620 -0.0803 -0.2227 -0.0524
    1TYR    SC1  425   5.497   2.866   4.482 -0.0722 -0.2074 -0.2312
    1TYR    SC2  426   5.650   2.776   4.279  0.1981 -0.2472 -0.0168
    1TYR    SC3  427   5.728   2.992   4.422  0.0061 -0.2140  0.0410
    2ALA     BB  428   5.260   2.952   4.877 -0.1048  0.0401  0.1924
    3TYR     BB  429   5.269   3.027   5.163 -0.0509  0.0994 -0.0688
    3TYR    SC1  430   4.962   3.006   5.250 -0.1020 -0.1413 -0.0150
    3TYR    SC2  431   4.735   2.962   5.389 -0.0885 -0.0741  0.0289
    3TYR    SC3  432   4.727   2.977   5.120 -0.1173 -0.1881  0.0228
    1TYR     BB  433   5.861   4.977   3.437  0.2165 -0.0021  0.2895
    1TYR    SC1  434   5.668   5.136   3.220 -0.0721 -0.0711 -0.0858
    1TYR    SC2  435   5.685   5.335   3.038 -0.0188  0.2661  0.2708
    1TYR    SC3  436   5.447   5.275   3.149 -0.1045 -0.1245 -0.0899
    2ALA     BB  437   5.689   4.981   3.676  0.1387  0.0325  0.0843
    3TYR     BB  438   5.582   4.850   3.933  0.0621 -0.0325 -0.0683
    3TYR    SC1  439   5.353   4.686   3.884  0.0985 -0.2536  0.4382
    3TYR    SC2  440   5.245   4.440   3.858  0.3864 -0.3476 -0.0098
    3TYR    SC3  441   5.138   4.649   3.725  0.3925 -0.3168  0.0337
    1TYR     BB  442   2.338   6.780   3.908 -0.2655  0.0668 -0.0982
    1TYR    SC1  443   2.390   6.817   3.596  0.2807 -0.3152  0.3203
    1TYR    SC2  444   2.526   6.820   3.363  0.0967 -0.1434  0.2103
    1TYR    SC3  445   2.272   6.729   3.370 -0.0154  0.1611  0.2712
    2ALA     BB  446   2.027   6.817   3.893 -0.1669  0.0071 -0.3611
    3TYR     BB  447   1.768   6.940   3.980  0.1123  0.1651  0.2780
    3TYR    SC1  448   1.581   6.922   3.714  0.1365 -0.2116 -0.3197
    3TYR    SC2  449   1.337   6.859   3.617  0.0480 -0.2738 -0.0669
    3TYR    SC3  450   1.506   7.011   3.471 -0.2245 -0.0455 -0.1570
    1TYR     BB  451   1.044   7.209   4.512  0.1800 -0.1830  0.0405
    1TYR    SC1  452   0.768   7.343   4.558 -0.3396 -0.2343 -0.1714
    1TYR    SC2  453   0.571   7.245   4.714 -0.3027 -0.0464 -0.0025
    1TYR    SC3  454   0.628   7.509   4.719  0.0090 -0.1097  0.0153
    2ALA     BB  455   1.236   7.341   4.701  0.0561 -0.2015 -0.0670
    3TYR     BB  456   1.423   7.435   4.915  0.3112  0.1010 -0.1426
    3TYR    SC1  457   1.334   7.512   5.197  0.1659 -0.1767  0.1565
    3TYR    SC2  458   1.154   7.474   5.395 -0.2120  0.4959 -0.0218
    3TYR    SC3  459   1.388   7.598   5.448  0.1212 -0.1570  0.1595
    1TYR     BB  460   0.139   6.928   4.741 -0.1690 -0.2199  0.4940
    1TYR    SC1  461   0.035   6.780   4.959  0.1182 -0.2665  0.1033
    1TYR    SC2  462   0.067   6.580   5.137  0.0931 -0.2321  0.1466
    1TYR    SC3  463  -0.146   6.746   5.156  0.2055 -0.0927  0.2168
    2ALA     BB  464   0.109   7.172   4.604 -0.0342  0.2938  0.0667
    3TYR     BB  465   0.091   7.425   4.435  0.0254 -0.0767  0.2160
    3TYR    SC1  466   0.309   7.525   4.251 -0.0985  0.0022 -0.2538
    3TYR    SC2  467   0.559   7.627   4.263 -0.1434  0.0870  0.1105
    3TYR    SC3  468   0.457   7.546   4.026  0.2668 -0.0540 -0.0289
    1TYR     BB  469   2.126   0.114   4.512 -0.1659  0.1058  0.1040
    1TYR    SC1  470   2.007   0.194   4.229  0.0081  0.0002 -0.1718
    1TYR    SC2  471   1.925   0.239   3.976 -0.3669  0.1828 -0.0279
    1TYR    SC3  472   2.005   0.445   4.130  0.1273  0.0411 -0.0740
    2ALA     BB  473   2.425   0.055   4.449  0.0317 -0.2101  0.0152
    3TYR     BB  474   2.701  -0.055   4.525  0.0887 -0.1186 -0.0934
    3TYR    SC1  475   2.943   0.093   4.402 -0.1554  0.1820 -0.0979
    3TYR    SC2  476   3.114   0.299   4.373 -0.0018  0.0885  0.1070
    3TYR    SC3  477   3.161   0.066   4.245 -0.0580  0.1095  0.0471
    1TYR     BB  478   0.385   6.623   4.334  0.0974  0.1053 -0.0794
    1TYR    SC1  479   0.441   6.346   4.270  0.2055 -0.0168  0.0637
    1TYR    SC2  480   0.615   6.162   4.175  0.0676 -0.1237  0.0139
    1TYR    SC3  481   0.372   6.085   4.265  0.1330 -0.0056  0.3065
    2ALA     BB  482   0.615   6.733   4.528  0.1736 -0.0495 -0.0756
    3TYR     BB  483   0.872   6.772   4.535  0.0682  0.0042  0.3532
    3TYR    SC1  484   0.975   6.819   4.252 -0.3178  0.4868  0.1574
    3TYR    SC2  485   0.873   6.738   4.016  0.0493  0.0487  0.1327
    3TYR    SC3  486   1.132   6.813   4.032  0.1409 -0.2968  0.4535
    1TYR     BB  487   5.266   2.922   2.898  0.0883  0.3031  0.0226
    1TYR    SC1  488   5.358   2.955   2.618  0.4559  0.3325  0.0275
    1TYR    SC2  489   5.360   2.938   2.349  0.4676  0.0469  0.0417
    1TYR    SC3  490   5.286   3.169   2.469  0.0736  0.0601 -0.2008
    2ALA     BB  491   5.341   2.659   3.009  0.3164  0.1681  0.0387
    3TYR     BB  492   5.476   2.462   2.921 -0.0664  0.4079 -0.3695
    3TYR    SC1  493   5.538   2.200   3.102  0.1497  0.0819 -0.3271
    3TYR    SC2  494   5.540   1.950   3.205 -0.3951  0.2920  0.2854
    3TYR    SC3  495   5.746   2.118   3.254 -0.0571  0.0088 -0.0741
    1TYR     BB  496   1.067   0.294   6.405  0.0900 -0.0547 -0.2799
    1TYR    SC1  497   0.908   0.449   6.201  0.0447  0.0465  0.2188
    1TYR    SC2  498   0.842   0.691   6.101 -0.0112 -0.1105 -0.1455
    1TYR    SC3  499   0.688   0.477   6.047  0.0505 -0.2363  0.1532
    2ALA     BB  500   1.331   0.548   6.437  0.3834  0.0500  0.2474
    3TYR     BB  501   1.385   0.801   6.383 -0.2133  0.1358  0.0573
    3TYR    SC1  502   1.154   0.965   6.287 -0.1508 -0.0324  0.0127
    3TYR    SC2  503   1.019   1.098   6.095  0.2352 -0.1554 -0.3630
    3TYR    SC3  504   1.134   1.234   6.298 -0.3441 -0.0405 -0.0855
    1TYR     BB  505   6.209   2.767   3.855 -0.0612 -0.2151  0.0933
    1TYR    SC1  506   6.465   2.647   3.779 -0.2424 -0.0192  0.0158
    1TYR    SC2  507   6.604   2.653   3.547 -0.3992  0.0319 -0.0783
    1TYR    SC3  508   6.578   2.421   3.684 -0.2264  0.0211 -0.0621
    2ALA     BB  509   6.031   2.498   3.894 -0.1161 -0.0397  0.1393
    3TYR     BB  510   5.971   2.294   3.736  0.2094  0.1712 -0.1487
    3TYR    SC1  511   6.127   2.074   3.690  0.0971  0.2272  0.2975
    3TYR    SC2  512   6.185   1.868   3.525  0.1123  0.3182  0.1872
    3TYR    SC3  513   6.276   1.867   3.780 -0.0967  0.0703  0.2675
    1TYR     BB  514   6.125   3.861   3.305  0.2881  0.0413  0.0567
    1TYR    SC1  515   6.426   3.990   3.353  0.1663  0.1219 -0.1669
    1TYR    SC2  516   6.693   3.959   3.327  0.2158  0.3050  0.0769
    1TYR    SC3  517   6.593   4.194   3.412 -0.0102  0.1735  0.1855
    2ALA     BB  518   5.961   3.913   3.554 -0.0109 -0.1360 -0.2504
    3TYR     BB  519   5.939   4.020   3.830  0.0482 -0.3499 -0.0404
    3TYR    SC1  520   6.112   3.913   4.052  0.1363  0.0282 -0.4174
    3TYR    SC2  521   6.201   3.686   4.168 -0.3781  0.0866  0.1538
    3TYR    SC3  522   6.237   3.923   4.292 -0.0171  0.3134 -0.3440
    1TYR     BB  523   2.651   6.060   6.608 -0.0437 -0.0666 -0.0202
    1TYR    SC1  524   2.608   5.895   6.877 -0.0804 -0.1012  0.0920
    1TYR    SC2  525   2.768   5.897   7.095  0.3284 -0.0187 -0.1941
    1TYR    SC3  526   2.608   5.685   7.047 -0.0752  0.1246  0.3823
    2ALA     BB  527   2.378   6.204   6.471 -0.1982 -0.0409 -0.0435
    3TYR     BB  528   2.198   6.070   6.390  0.2048 -0.1075  0.0909
    3TYR    SC1  529   1.891   6.100   6.449 -0.1276  0.1126 -0.3074
    3TYR    SC2  530   1.639   6.004   6.424 -0.0906 -0.0976  0.0555
    3TYR    SC3  531   1.694   6.194   6.608  0.0975 -0.4030  0.3295
    1TYR     BB  532   0.016   0.180   5.129 -0.1807  0.0132  0.1821
    1TYR    SC1  533  -0.026   0.493   5.175  0.0621 -0.1042 -0.0165
    1TYR    SC2  534  -0.226   0.666   5.228 -0.1625 -0.2930 -0.2180
    1TYR    SC3  535  -0.011   0.749   5.088 -0.0316 -0.0560  0.1050
    2ALA     BB  536   0.256   0.130   4.930 -0.1479  0.1331  0.1130
    3TYR     BB  537   0.228   0.260   4.658  0.1371  0.0396 -0.1414
    3TYR    SC1  538   0.187   0.567   4.681 -0.0377 -0.0100 -0.4378
    3TYR    SC2  539   0.320   0.802   4.689 -0.1763  0.0893  0.5805
    3TYR    SC3  540   0.074   0.790   4.578  0.1140  0.2097 -0.1473
    1TYR     BB  541   3.179   5.551   5.722 -0.1578  0.0379 -0.2248
    1TYR    SC1  542   3.325   5.619   5.978 -0.3635 -0.4304  0.1246
    1TYR    SC2  543   3.252   5.615   6.237 -0.1640  0.2102  0.2104
    1TYR    SC3  544   3.510   5.658   6.170 -0.2341  0.1809 -0.0962
    2ALA     BB  545   3.069   5.867   5.655  0.0579  0.4183  0.2732
    3TYR     BB  546   2.875   6.065   5.686  0.0307 -0.0667  0.4273
    3TYR    SC1  547   3.037   6.323   5.740  0.0968  0.2581 -0.0705
    3TYR    SC2  548   3.070   6.544   5.891 -0.1075  0.1383  0.1581
    3TYR    SC3  549   3.283   6.430   5.772  0.0411  0.3011  0.2618
    1TYR     BB  550   2.804   5.939   4.562  0.1945  0.0113 -0.0971
    1TYR    SC1  551   3.082   6.004   4.766 -0.1838 -0.1095  0.1404
    1TYR    SC2  552   3.289   6.156   4.847 -0.1739 -0.0515  0.0082
    1TYR    SC3  553   3.256   5.909   4.949  0.1474 -0.1888 -0.2017
    2ALA     BB  554   2.654   6.158   4.649 -0.0252  0.0932 -0.0710
    3TYR     BB  555   2.733   6.402   4.869 -0.0139  0.1617  0.3179
    3TYR    SC1  556   3.036   6.505   4.785  0.1293 -0.5476  0.1572
    3TYR    SC2  557   3.101   6.767   4.787 -0.5794 -0.3428 -0.0114
    3TYR    SC3  558   3.291   6.582   4.740 -0.0195  0.1107  0.2958
    1TYR     BB  559   1.719   7.118   6.376 -0.2468 -0.2108  0.1498
    1TYR    SC1  560   1.386   7.131   6.399 -0.1360 -0.0351  0.1359
    1TYR    SC2  561   1.181   7.065   6.237 -0.0669 -0.2530  0.1326
    1TYR    SC3  562   1.162   7.281   6.398 -0.3085 -0.2851  0.1524
    2ALA     BB  563   1.876   7.067   6.573 -0.2094 -0.3678 -0.3628
    3TYR     BB  564   1.997   7.131   6.820  0.1499  0.0349 -0.0682
    3TYR    SC1  565   2.147   6.931   7.013 -0.0840  0.2210  0.3917
    3TYR    SC2  566   2.203   6.710   7.157 -0.1191  0.1556  0.3062
    3TYR    SC3  567   2.380   6.801   6.975 -0.2806 -0.0501  0.0359
    1TYR     BB  568   3.173   6.837   6.219  0.0701  0.0642 -0.1625
    1TYR    SC1  569   3.257   6.639   6.480 -0.0506 -0.3275 -0.0283
    1TYR    SC2  570   3.346   6.421   6.611 -0.2857 -0.2810  0.2214
    1TYR    SC3  571   3.252   6.632   6.750 -0.0633 -0.0151 -0.0152
    2ALA     BB  572   2.878   6.916   6.136  0.0139  0.2167  0.0372
    3TYR     BB  573   2.680   6.906   6.014 -0.0807  0.1823  0.1906
    3TYR    SC1  574   2.412   7.017   6.067 -0.2773 -0.1796  0.0059
    3TYR    SC2  575   2.211   7.130   5.927 -0.2267  0.1294  0.1715
    3TYR    SC3  576   2.159   7.002   6.159 -0.2416  0.1378  0.1728
    1TYR     BB  577   1.918   6.661   5.151  0.1643 -0.2188  0.1191
    1TYR    SC1  578   1.942   6.900   5.337  0.0036  0.2486 -0.1293
    1TYR    SC2  579   2.074   7.077   5.493  0.2293 -0.1656  0.1780
    1TYR    SC3  580   1.895   6.907   5.603  0.0104 -0.1328 -0.1108
    2ALA     BB  581   1.666   6.688   5.011  0.1991 -0.2246 -0.2439
    3TYR     BB  582   1.580   6.951   4.895 -0.0438  0.1653  0.1080
    3TYR    SC1  583   1.771   7.143   4.891 -0.1545  0.0292  0.0733
    3TYR    SC2  584   1.909   7.369   4.837 -0.0900  0.0552  0.3307
    3TYR    SC3  585   2.024   7.171   4.981  0.0423 -0.3703 -0.3057
    1TYR     BB  586   3.465   6.668   5.324  0.0520  0.0550 -0.2057
    1TYR    SC1  587   3.422   6.352   5.306  0.3454  0.0230 -0.3690
    1TYR    SC2  588   3.433   6.083   5.285  0.4014 -0.0112  0.0038
    1TYR    SC3  589   3.196   6.206   5.328  0.4162 -0.0334  0.1554
    2ALA     BB  590   3.435   6.868   5.182 -0.1396  0.0910 -0.1717
    3TYR     BB  591   3.571   7.203   5.150 -0.0371  0.1945  0.0137
    3TYR    SC1  592   3.440   7.325   5.360  0.0352 -0.0377  0.0142
    3TYR    SC2  593   3.251   7.507   5.428  0.1420  0.0581  0.0588
    3TYR    SC3  594   3.428   7.419   5.613  0.2603  0.1120 -0.0269
    1TYR     BB  595   2.344   7.476   7.076 -0.4349  0.1400 -0.0832
    1TYR    SC1  596   2.277   7.270   7.311 -0.1509 -0.0704 -0.1906
    1TYR    SC2  597   2.382   7.062   7.447  0.0613  0.0409 -0.1795
    1TYR    SC3  598   2.288   7.277   7.580  0.5173  0.2692 -0.2008
    2ALA     BB  599   2.484   7.750   7.133 -0.2780  0.3211 -0.1896
    3TYR     BB  600   2.731   7.898   7.211  0.3074  0.1862 -0.0240
    3TYR    SC1  601   2.986   7.756   7.383 -0.2475 -0.1095  0.0396
    3TYR    SC2  602   3.125   7.615   7.568 -0.1080  0.0253  0.0402
    3TYR    SC3  603   3.242   7.686   7.335 -0.2018  0.0738  0.0068
    1TYR     BB  604   1.965   7.278   3.648 -0.2184  0.0196 -0.1823
    1TYR    SC1  605   2.285   7.219   3.671  0.0684 -0.0513 -0.2991
    1TYR    SC2  606   2.552   7.259   3.683  0.0290  0.2290 -0.2560
    1TYR    SC3  607   2.425   7.270   3.445  0.0478  0.1448 -0.2704
    2ALA     BB  608   1.867   7.539   3.589  0.2208 -0.2660 -0.1272
    3TYR     BB  609   2.017   7.736   3.486 -0.0483 -0.0976 -0.1942
    3TYR    SC1  610   2.139   8.040   3.597  0.2126  0.2549 -0.1385
    3TYR    SC2  611   2.258   8.280   3.564  0.1124  0.3531  0.1713
    3TYR    SC3  612   2.296   8.141   3.792  0.0044  0.1685  0.0795
    1TYR     BB  613   5.688   1.884   3.731  0.1720 -0.0579  0.3782
    1TYR    SC1  614   5.740   1.778   4.026 -0.2398 -0.2128 -0.0097
    1TYR    SC2  615   5.716   1.749   4.293  0.2089 -0.1716  0.0448
    1TYR    SC3  616   5.720   1.531   4.134  0.1931 -0.2113  0.0982
    2ALA     BB  617   5.487   1.807   3.652 -0.2341  0.1037  0.3388
    3TYR     BB  618   5.259   2.032   3.616  0.1144  0.0029  0.1275
    3TYR    SC1  619   5.384   2.318   3.554  0.0705 -0.0708 -0.2915
    3TYR    SC2  620   5.572   2.493   3.472 -0.0675  0.0964 -0.2600
    3TYR    SC3  621   5.363   2.580   3.618  0.0258 -0.1484  0.0326
    1TYR     BB  622   5.896   3.876   2.834  0.2156 -0.1015 -0.1839
    1TYR    SC1  623   6.005   3.588   2.909  0.1712  0.1462  0.3236
    1TYR    SC2  624   5.937   3.386   3.074 -0.0099 -0.0325  0.0401
    1TYR    SC3  625   6.122   3.347   2.881  0.2391  0.1896  0.2258
    2ALA     BB  626   5.570   3.802   2.755 -0.3138  0.0231 -0.0201
    3TYR     BB  627   5.411   3.630   2.666 -0.1186  0.2479  0.0667
    3TYR    SC1  628   5.160   3.676   2.474 -0.3438  0.1631  0.0811
    3TYR    SC2  629   4.937   3.592   2.348 -0.2397  0.1673 -0.1108
    3TYR    SC3  630   5.074   3.804   2.253  0.0044 -0.0101 -0.1664
    1TYR     BB  631   0.821   6.437   6.422  0.2001 -0.1227 -0.0612
    1TYR    SC1  632   1.024   6.323   6.641 -0.4736 -0.0848 -0.1650
    1TYR    SC2  633   1.222   6.353   6.822 -0.3333  0.3732 -0.3752
    1TYR    SC3  634   1.201   6.123   6.682 -0.2995  0.1038  0.0387
    2ALA     BB  635   0.789   6.748   6.391  0.0389 -0.0108  0.1762
    3TYR     BB  636   0.763   7.068   6.527 -0.0534 -0.2025 -0.3514
    3TYR    SC1  637   0.507   7.187   6.472  0.1962  0.0645  0.1005
    3TYR    SC2  638   0.241   7.215   6.503  0.1670 -0.2473  0.1604
    3TYR    SC3  639   0.393   7.432   6.454 -0.0703 -0.0382  0.3133
    1TYR     BB  640   5.737   2.931   3.790 -0.1958 -0.1346 -0.1118
    1TYR    SC1  641   5.445   2.943   3.945  0.1719  0.1288  0.0061
    1TYR    SC2  642   5.226   2.845   4.069  0.2283 -0.3780 -0.2594
    1TYR    SC3  643   5.203   3.050   3.894  0.0412 -0.1455  0.0260
    2ALA     BB  644   5.657   3.056   3.558 -0.2178 -0.2055  0.1072
    3TYR     BB  645   5.623   3.001   3.212 -0.2499  0.0579 -0.1243
    3TYR    SC1  646   5.845   2.869   3.038  0.0283 -0.3092 -0.1454
    3TYR    SC2  647   6.082   2.915   2.917  0.2635 -0.3916  0.2636
    3TYR    SC3  648   5.925   2.712   2.834  0.2207 -0.1977 -0.1589
    1TYR     BB  649   2.058   6.263   4.668 -0.0951 -0.2196  0.2156
    1TYR    SC1  650   1.939   6.594   4.587 -0.0692  0.0963 -0.2282
    1TYR    SC2  651   2.001   6.853   4.630 -0.1714  0.1043 -0.1218
    1TYR    SC3  652   2.040   6.743   4.386  0.4845  0.0406 -0.0104
    2ALA     BB  653   2.200   6.257   4.862 -0.0945 -0.0546  0.0414
    3TYR     BB  654   2.324   6.318   5.083  0.0803 -0.1545 -0.3585
    3TYR    SC1  655   2.429   6.636   5.128 -0.2184 -0.1347  0.0991
    3TYR    SC2  656   2.417   6.875   5.254 -0.0264  0.1146 -0.3286
    3TYR    SC3  657   2.329   6.852   5.000 -0.0850 -0.2879 -0.2803
    1TYR     BB  658   2.874   5.751   5.131 -0.0009  0.4831 -0.1012
    1TYR    SC1  659   2.949   5.587   4.863  0.3700 -0.0160  0.0205
    1TYR    SC2  660   3.086   5.527   4.638  0.0622  0.4295 -0.3064
    1TYR    SC3  661   2.837   5.428   4.675  0.2140  0.1333 -0.0162
    2ALA     BB  662   2.714   6.010   5.197 -0.0355 -0.0439  0.2058
    3TYR     BB  663   2.480   6.032   5.450 -0.2908  0.0874  0.1005
    3TYR    SC1  664   2.521   5.753   5.565 -0.0829  0.0504  0.2013
    3TYR    SC2  665   2.409   5.510   5.535 -0.1480  0.1057 -0.0224
    3TYR    SC3  666   2.655   5.532   5.644 -0.2082 -0.0446  0.1509
    1TYR     BB  667   1.470   5.494   4.597  0.5593  0.0280 -0.0129
    1TYR    SC1  668   1.258   5.448   4.320 -0.0377  0.2909  0.0592
    1TYR    SC2  669   1.077   5.440   4.119 -0.0823 -0.4244  0.0940
    1TYR    SC3  670   1.329   5.354   4.077  0.0652 -0.0806  0.2238
    2ALA     BB  671   1.313   5.386   4.815 -0.0512  0.2155  0.2547
    3TYR     BB  672   0.975   5.509   4.807 -0.1348  0.1789 -0.0296
    3TYR    SC1  673   0.943   5.488   5.110 -0.1289  0.1112 -0.0130
    3TYR    SC2  674   1.088   5.347   5.288  0.1584  0.1577 -0.2011
    3TYR    SC3  675   0.962   5.573   5.365 -0.2911 -0.1737  0.0990
    1TYR     BB  676   1.673   6.283   7.157  0.1093 -0.3078 -0.0214
    1TYR    SC1  677   1.553   6.045   7.009  0.0101  0.0980 -0.0995
    1TYR    SC2  678   1.581   5.811   6.877  0.1470 -0.1114  0.2805
    1TYR    SC3  679   1.367   5.851   7.037 -0.1098  0.2086 -0.1179
    2ALA     BB  680   1.607   6.541   7.079  0.2649  0.1050 -0.2006
    3TYR     BB  681   1.593   6.778   6.857 -0.3487  0.0226 -0.0446
    3TYR    SC1  682   1.503   6.701   6.570 -0.0774  0.3627 -0.2326
    3TYR    SC2  683   1.487   6.504   6.385 -0.2295  0.4021 -0.2631
    3TYR    SC3  684   1.283   6.679   6.414 -0.3636  0.1927  0.1738
    1TYR     BB  685   5.475   4.037   3.663  0.0001  0.1676  0.0636
    1TYR    SC1  686   5.322   3.735   3.637 -0.0534 -0.0084  0.0486
    1TYR    SC2  687   5.107   3.603   3.542 -0.0199  0.0521 -0.1163
    1TYR    SC3  688   5.292   3.472   3.689  0.0392 -0.0996 -0.3197
    2ALA     BB  689   5.581   4.267   3.565  0.0313  0.0071  0.2878
    3TYR     BB  690   5.593   4.547   3.488 -0.0843  0.2804 -0.1035
    3TYR    SC1  691   5.371   4.645   3.328  0.0181 -0.2463 -0.3100
    3TYR    SC2  692   5.316   4.770   3.095 -0.1876  0.1297 -0.0725
    3TYR    SC3  693   5.124   4.745   3.284  0.0182 -0.0243  0.1230
    1TYR     BB  694   5.721   3.574   3.927 -0.1124 -0.2085  0.1367
    1TYR    SC1  695   5.633   3.805   4.117 -0.1161  0.2055 -0.0594
    1TYR    SC2  696   5.510   3.812   4.358 -0.0615  0.1784 -0.0305
    1TYR    SC3  697   5.731   3.962   4.315  0.0754 -0.0043  0.0180
    2ALA     BB  698   5.795   3.357   4.091  0.1476  0.2928  0.2531
    3TYR     BB  699   6.018   3.223   4.116  0.6581  0.5184  0.1856
    3TYR    SC1  700   6.326   3.198   4.065 -0.0246 -0.0510  0.1312
    3TYR    SC2  701   6.526   3.024   4.117 -0.0180 -0.0415  0.1376
    3TYR    SC3  702   6.582   3.267   4.014 -0.0316 -0.0636  0.0775
    1TYR     BB  703   2.366   7.110   4.335  0.0644  0.0673 -0.0761
    1TYR    SC1  704   2.592   7.102   4.162 -0.1228  0.1355 -0.3484
    1TYR    SC2  705   2.793   6.970   4.039 -0.0783  0.0428 -0.1813
    1TYR    SC3  706   2.839   7.211   4.150 -0.0269 -0.0318 -0.0383
    2ALA     BB  707   2.414   7.225   4.645  0.0452  0.0115 -0.0152
    3TYR     BB  708   2.688   7.072   4.676  0.1178 -0.1182  0.0344
    3TYR    SC1  709   2.668   6.809   4.533 -0.2092  0.3668 -0.5059
    3TYR    SC2  710   2.609   6.647   4.325 -0.1876 -0.1096 -0.1628
    3TYR    SC3  711   2.457   6.641   4.548  0.0711  0.0256  0.0241
    1TYR     BB  712   0.777   7.126   5.967  0.2700 -0.0594  0.2091
    1TYR    SC1  713   0.767   7.406   6.073 -0.0986  0.0266 -0.0420
    1TYR    SC2  714   0.803   7.523   6.314  0.2241 -0.1262 -0.0092
    1TYR    SC3  715   0.669   7.653   6.119  0.0484  0.0410  0.2168
    2ALA     BB  716   0.788   7.143   5.638  0.1755 -0.0198 -0.1413
    3TYR     BB  717   0.667   7.214   5.426  0.0493  0.1131 -0.0015
    3TYR    SC1  718   0.743   7.483   5.283  0.0081 -0.1373 -0.2240
    3TYR    SC2  719   0.647   7.734   5.256  0.0918 -0.0868 -0.0675
    3TYR    SC3  720   0.859   7.654   5.110  0.0752 -0.0611 -0.1058
    1TYR     BB  721   0.499   0.561   5.102 -0.1411  0.3061  0.2654
    1TYR    SC1  722   0.483   0.862   5.102 -0.0686 -0.2961 -0.0470
    1TYR    SC2  723   0.367   1.105   5.085  0.1702 -0.1687  0.0898
    1TYR    SC3  724   0.634   1.085   5.121  0.1846 -0.4547 -0.1395
    2ALA     BB  725   0.629   0.443   4.866 -0.2097 -0.1106  0.3418
    3TYR     BB  726   0.728   0.367   4.606 -0.0544 -0.3417  0.0655
    3TYR    SC1  727   0.572   0.463   4.354 -0.2432 -0.0113  0.1334
    3TYR    SC2  728   0.518   0.445   4.090  0.1592  0.1833  0.0285
    3TYR    SC3  729   0.347   0.574   4.255 -0.3678 -0.3864 -0.0271
    1TYR     BB  730   0.377   7.497   5.683 -0.3484 -0.2021 -0.1851
    1TYR    SC1  731   0.323   7.312   5.911  0.3742  0.0494 -0.0688
    1TYR    SC2  732   0.338   7.127   6.107 -0.1544 -0.0713 -0.1226
    1TYR    SC3  733   0.107   7.261   6.065  0.1923  0.5742 -0.1255
    2ALA     BB  734   0.308   7.756   5.625  0.0008 -0.2751  0.0558
    3TYR     BB  735   0.396   8.026   5.659  0.0985  0.3184  0.1348
    3TYR    SC1  736   0.252   8.338   5.515 -0.2568 -0.2354 -0.0358
    3TYR    SC2  737   0.078   8.544   5.516 -0.1425 -0.1374  0.0622
    3TYR    SC3  738   0.343   8.592   5.524 -0.1169 -0.2902  0.1825
    1TYR     BB  739   5.781   4.308   3.086  0.2201  0.2364  0.4996
    1TYR    SC1  740   5.902   4.554   2.940 -0.1022  0.0385 -0.0940
    1TYR    SC2  741   6.117   4.705   2.879 -0.1414  0.0559 -0.1920
    1TYR    SC3  742   5.881   4.823   2.934 -0.0796  0.0462  0.1131
    2ALA     BB  743   5.511   4.213   3.052  0.1562  0.3119 -0.1410
    3TYR     BB  744   5.322   4.293   2.802  0.0882 -0.2002 -0.1278
    3TYR    SC1  745   5.048   4.377   2.919  0.1761  0.0676 -0.1345
    3TYR    SC2  746   4.870   4.561   3.004  0.2615  0.0050  0.1982
    3TYR    SC3  747   4.809   4.299   3.020  0.1198 -0.0067 -0.3201
    1TYR     BB  748   4.016   3.308   4.377  0.0508  0.0170  0.1275
    1TYR    SC1  749   3.913   3.337   4.107 -0.1538 -0.0165  0.0229
    1TYR    SC2  750   3.860   3.367   3.844  0.3916  0.2287 -0.0763
    1TYR    SC3  751   3.848   3.580   4.009 -0.1587  0.0383  0.1597
    2ALA     BB  752   4.039   3.083   4.558  0.0841  0.0213  0.1958
    3TYR     BB  753   4.129   2.832   4.568 -0.4015  0.2248  0.1943
    3TYR    SC1  754   4.415   2.764   4.644 -0.0439 -0.4417 -0.2930
    3TYR    SC2  755   4.672   2.817   4.705 -0.1772  0.1371 -0.1608
    3TYR    SC3  756   4.572   2.569   4.745  0.2760 -0.0245  0.0594
    1TYR     BB  757   3.031   7.589   6.888 -0.3026 -0.0631  0.1864
    1TYR    SC1  758   3.032   7.345   6.703  0.3380  0.0593  0.0361
    1TYR    SC2  759   3.025   7.078   6.664 -0.2126  0.0679 -0.0162
    1TYR    SC3  760   2.966   7.246   6.461 -0.1803  0.2198  0.0980
    2ALA     BB  761   3.218   7.773   6.852  0.1958  0.0600  0.1713
    3TYR     BB  762   3.232   8.048   6.699  0.0182 -0.0796  0.1478
    3TYR    SC1  763   2.965   8.207   6.737 -0.1230 -0.0337  0.2237
    3TYR    SC2  764   2.864   8.413   6.879 -0.3336  0.0730 -0.0693
    3TYR    SC3  765   2.698   8.249   6.743 -0.1360  0.0251 -0.2581
    1TYR     BB  766   0.479   6.735   5.866  0.0486  0.1809  0.1219
    1TYR    SC1  767   0.307   6.664   6.173 -0.3030  0.0247  0.1844
    1TYR    SC2  768   0.308   6.549   6.417  0.1107  0.0081  0.1849
    1TYR    SC3  769   0.220   6.802   6.388 -0.0225 -0.0190  0.3323
    2ALA     BB  770   0.428   6.861   5.620 -0.1209  0.0705 -0.2940
    3TYR     BB  771   0.212   7.033   5.596 -0.2938 -0.0443  0.0538
    3TYR    SC1  772   0.179   7.169   5.304  0.0221  0.0265 -0.1709
    3TYR    SC2  773   0.295   7.286   5.091 -0.0952  0.2200 -0.1315
    3TYR    SC3  774   0.026   7.272   5.106 -0.0845  0.0470 -0.0791
    1TYR     BB  775   5.741   2.920   4.969 -0.1295 -0.0371  0.1275
    1TYR    SC1  776   5.739   2.686   4.794 -0.1230  0.2357 -0.1508
    1TYR    SC2  777   5.589   2.468   4.742 -0.0611  0.0990  0.2096
    1TYR    SC3  778   5.847   2.440   4.817  0.1360  0.3285 -0.3252
    2ALA     BB  779   5.985   3.166   4.765  0.2617 -0.1691  0.1135
    3TYR     BB  780   6.214   3.107   4.582  0.0216 -0.0562 -0.2027
    3TYR    SC1  781   6.250   2.842   4.451  0.2838 -0.2086  0.1167
    3TYR    SC2  782   6.062   2.678   4.347 -0.0268  0.2510 -0.0920
    3TYR    SC3  783   6.264   2.576   4.496 -0.0163 -0.3454 -0.4737
    1TYR     BB  784   6.065   3.432   3.612  0.2123 -0.0097  0.2101
    1TYR    SC1  785   6.282   3.615   3.747  0.0874  0.4718 -0.0013
    1TYR    SC2  786   6.552   3.614   3.764  0.0948 -0.1742  0.1546
    1TYR    SC3  787   6.418   3.848   3.762  0.6364  0.1596  0.3131
    2ALA     BB  788   6.181   3.155   3.530  0.2502 -0.1069 -0.2612
    3TYR     BB  789   6.155   3.027   3.395 -0.0446 -0.1305 -0.3345
    3TYR    SC1  790   6.135   2.693   3.402 -0.0596  0.2415 -0.2259
    3TYR    SC2  791   6.028   2.483   3.270  0.1302  0.0425 -0.0743
    3TYR    SC3  792   6.260   2.453   3.404 -0.0396  0.2427  0.2832
    1TYR     BB  793   4.773   3.947   2.672  0.0753 -0.1742 -0.0394
    1TYR    SC1  794   4.558   3.744   2.632 -0.0030  0.1528  0.0596
    1TYR    SC2  795   4.400   3.542   2.549  0.0118  0.1487  0.0412
    1TYR    SC3  796   4.306   3.723   2.726  0.0481  0.0390  0.1746
    2ALA     BB  797   4.994   3.863   2.869 -0.1753  0.1506  0.0506
    3TYR     BB  798   5.078   3.846   3.073 -0.1941 -0.0714 -0.1403
    3TYR    SC1  799   5.069   3.986   3.306 -0.0627  0.1336 -0.0957
    3TYR    SC2  800   5.113   4.243   3.377 -0.6113  0.2139  0.0181
    3TYR    SC3  801   4.986   4.076   3.547  0.0002 -0.2392  0.0740
    1TYR     BB  802   6.480   3.478   3.284  0.3438 -0.3898 -0.0247
    1TYR    SC1  803   6.688   3.259   3.424 -0.0297 -0.0352  0.0024
    1TYR    SC2  804   6.668   3.081   3.626  0.2869  0.0618  0.1274
    1TYR    SC3  805   6.893   3.229   3.598  0.2846 -0.0054 -0.3449
    2ALA     BB  806   6.562   3.568   2.972 -0.1051 -0.1708 -0.0754
    3TYR     BB  807   6.427   3.760   2.858 -0.0932  0.0274  0.0541
    3TYR    SC1  808   6.363   4.054   2.933  0.0339  0.0174 -0.0579
    3TYR    SC2  809   6.248   4.280   3.027 -0.2967 -0.1136 -0.1311
    3TYR    SC3  810   6.481   4.293   2.891 -0.0758  0.1317  0.2506
    1TYR     BB  811   4.811   3.379   2.810  0.2791 -0.0794 -0.0104
    1TYR    SC1  812   4.794   3.113   2.583 -0.1759 -0.1059 -0.5672
    1TYR    SC2  813   4.878   3.001   2.352 -0.1760 -0.0655 -0.5868
    1TYR    SC3  814   4.855   2.850   2.574  0.1834 -0.0304 -0.5174
    2ALA     BB  815   5.033   3.325   2.962 -0.3964  0.1814 -0.0473
    3TYR     BB  816   5.235   3.306   3.138 -0.2436 -0.0657 -0.0377
    3TYR    SC1  817   5.465   3.536   3.146 -0.1072  0.1027  0.0646
    3TYR    SC2  818   5.558   3.751   3.280 -0.1523  0.1052  0.0923
    3TYR    SC3  819   5.645   3.504   3.345 -0.1134  0.1134  0.0720
    1TYR     BB  820   5.292   3.367   4.272 -0.2960  0.2454 -0.1990
    1TYR    SC1  821   5.043   3.383   4.104 -0.1401 -0.1809 -0.0287
    1TYR    SC2  822   4.783   3.458   4.116 -0.0208  0.2656 -0.0193
    1TYR    SC3  823   4.897   3.401   3.877 -0.2540 -0.4800  0.0144
    2ALA     BB  824   5.277   3.404   4.538 -0.0246 -0.0382 -0.2810
    3TYR     BB  825   5.492   3.354   4.690  0.0774 -0.2054 -0.3621
    3TYR    SC1  826   5.600   3.423   4.967  0.1841 -0.3926 -0.3918
    3TYR    SC2  827   5.829   3.465   5.103 -0.0950  0.3954 -0.0914
    3TYR    SC3  828   5.610   3.375   5.232  0.0386 -0.4979 -0.4041
    1TYR     BB  829   2.053   0.149   6.076  0.1210 -0.0911  0.0368
    1TYR    SC1  830   1.945   0.338   6.278  0.1668  0.0393 -0.1203
    1TYR    SC2  831   1.854   0.379   6.529  0.1729 -0.1137 -0.0915
    1TYR    SC3  832   1.842   0.578   6.346  0.0843 -0.0298  0.0036
    2ALA     BB  833   1.991  -0.123   6.303  0.4747  0.1996 -0.0995
    3TYR     BB  834   2.089  -0.082   6.621 -0.1019  0.0533 -0.2323
    3TYR    SC1  835   2.387   0.005   6.595 -0.2306 -0.2998  0.1083
    3TYR    SC2  836   2.631  -0.110   6.588 -0.1450 -0.1125 -0.1239
    3TYR    SC3  837   2.606   0.151   6.652 -0.3125 -0.1891  0.1447
    1TYR     BB  838   5.977   5.001   4.448  0.0489  0.2943  0.0178
    1TYR    SC1  839   6.059   5.119   4.178  0.3677 -0.0132  0.3580
    1TYR    SC2  840   6.085   5.057   3.917  0.2609  0.1949  0.2949
    1TYR    SC3  841   6.168   5.298   4.007  0.5308  0.0315  0.5043
    2ALA     BB  842   5.705   4.844   4.411 -0.2859 -0.0667  0.4005
    3TYR     BB  843   5.436   4.846   4.455 -0.0850  0.0176  0.0489
    3TYR    SC1  844   5.255   5.011   4.310 -0.2241 -0.2017 -0.0035
    3TYR    SC2  845   5.009   5.116   4.277 -0.2389 -0.2593 -0.0797
    3TYR    SC3  846   5.152   5.037   4.062  0.1715  0.4997 -0.1291
    1TYR     BB  847   4.325   3.262   3.011  0.0527 -0.1230 -0.1234
    1TYR    SC1  848   4.516   3.315   3.260 -0.1371 -0.2268  0.0023
    1TYR    SC2  849   4.623   3.344   3.506 -0.2414  0.0800  0.0161
    1TYR    SC3  850   4.743   3.457   3.293 -0.3590  0.1478 -0.0155
    2ALA     BB  851   3.985   3.270   3.026  0.1005  0.1734  0.1745
    3TYR     BB  852   3.887   3.367   2.744  0.4538  0.1041 -0.1256
    3TYR    SC1  853   3.853   3.661   2.756 -0.1410 -0.1968 -0.1945
    3TYR    SC2  854   3.931   3.844   2.939  0.2964 -0.2936 -0.2685
    3TYR    SC3  855   3.765   3.915   2.739  0.1674 -0.0761 -0.0901
    1TYR     BB  856   1.386   0.797   4.862 -0.0490 -0.0358  0.1850
    1TYR    SC1  857   1.689   0.732   4.735  0.1749 -0.0907  0.0657
    1TYR    SC2  858   1.874   0.550   4.659  0.2463 -0.0301  0.0928
    1TYR    SC3  859   1.883   0.801   4.560  0.2339 -0.0008  0.1654
    2ALA     BB  860   1.193   0.585   4.789 -0.0141 -0.1173  0.1741
    3TYR     BB  861   1.233   0.297   4.713  0.1766 -0.2574 -0.0196
    3TYR    SC1  862   1.445   0.268   4.544 -0.1818  0.1352 -0.0090
    3TYR    SC2  863   1.596   0.090   4.409  0.0631  0.3541 -0.0343
    3TYR    SC3  864   1.610   0.353   4.347 -0.3376  0.3814 -0.0386
    1TYR     BB  865   2.022   5.799   5.849  0.1574 -0.1544  0.2521
    1TYR    SC1  866   2.044   5.760   5.539  0.2730  0.0185 -0.0802
    1TYR    SC2  867   2.015   5.884   5.302  0.0572 -0.0444 -0.0895
    1TYR    SC3  868   2.046   5.616   5.311  0.1982 -0.0278 -0.0524
    2ALA     BB  869   1.876   6.026   5.943 -0.0766 -0.0585 -0.2735
    3TYR     BB  870   1.646   6.209   5.956  0.3666 -0.0709 -0.2684
    3TYR    SC1  871   1.338   6.155   6.013  0.0308  0.0576  0.1223
    3TYR    SC2  872   1.095   6.262   6.062  0.0232  0.0507  0.1000
    3TYR    SC3  873   1.199   6.079   6.231  0.0405  0.1003  0.1433
    1TYR     BB  874   5.219   4.279   4.549 -0.1286 -0.0515 -0.0184
    1TYR    SC1  875   5.358   4.334   4.327 -0.0407 -0.4554  0.0371
    1TYR    SC2  876   5.458   4.195   4.118  0.1168 -0.4344  0.0968
    1TYR    SC3  877   5.567   4.432   4.187 -0.2389 -0.2049 -0.0938
    2ALA     BB  878   5.362   4.113   4.751 -0.0666  0.1097 -0.2309
    3TYR     BB  879   5.677   3.917   4.846 -0.1049 -0.1630  0.0023
    3TYR    SC1  880   5.886   3.788   4.706  0.1624  0.0813 -0.1536
    3TYR    SC2  881   5.947   3.589   4.534  0.3277  0.0247 -0.0329
    3TYR    SC3  882   6.105   3.635   4.748  0.0810  0.0404  0.1513
    1TYR     BB  883   0.860   6.233   4.691  0.2134 -0.0462  0.1978
    1TYR    SC1  884   0.536   6.268   4.745 -0.0318 -0.0707  0.3290
    1TYR    SC2  885   0.304   6.391   4.805 -0.0392  0.2407 -0.2451
    1TYR    SC3  886   0.302   6.157   4.671 -0.0127 -0.0044  0.1621
    2ALA     BB  887   1.039   6.428   4.884  0.2450 -0.0339 -0.2671
    3TYR     BB  888   1.192   6.651   4.921 -0.0281 -0.0366 -0.0283
    3TYR    SC1  889   1.081   6.923   4.959  0.2700 -0.0401  0.2388
    3TYR    SC2  890   1.075   7.129   5.133  0.1758 -0.0380  0.2334
    3TYR    SC3  891   0.855   7.067   4.989  0.2974  0.0589 -0.0009
    1TYR     BB  892   5.928   2.172   4.407  0.2038  0.3087  0.0199
    1TYR    SC1  893   6.203   2.124   4.324  0.1307 -0.1516  0.0722
    1TYR    SC2  894   6.387   2.148   4.128 -0.0924 -0.1566 -0.1450
    1TYR    SC3  895   6.466   2.104   4.383  0.2046 -0.1107 -0.2235
    2ALA     BB  896   5.757   2.306   4.238 -0.2660 -0.0886  0.2013
    3TYR     BB  897   5.572   2.388   3.998  0.0188  0.3814 -0.0112
    3TYR    SC1  898   5.364   2.134   4.049 -0.3131 -0.0265 -0.1094
    3TYR    SC2  899   5.109   2.052   4.087 -0.2281 -0.0950  0.4164
    3TYR    SC3  900   5.313   1.878   4.117 -0.1110 -0.1267 -0.3172
    4W        W  901   2.900   2.710   0.375  0.2990  0.2159  0.1588
    5W        W  902   5.784   1.261   1.239 -0.0880 -0.2371 -0.2380
    6W        W  903   7.085   3.615   3.265  0.1564 -0.1500 -0.2631
    7W        W  904   3.856   6.390   5.655  0.2196 -0.3534 -0.1652
    8W        W  905   6.469   3.485   7.427  0.4155  0.1753 -0.0777
    9W        W  906   4.814   5.024   5.515 -0.1531 -0.0265 -0.2351
   10W        W  907   6.090   0.795   6.252  0.1451  0.1500  0.0653
   11W        W  908   7.432   1.118   3.101  0.0393  0.2381  0.1281
   12W        W  909   1.324   4.952   2.217  0.0413  0.0811  0.1347
   13W        W  910   0.261   4.084   2.987 -0.3039 -0.1767  0.0238
   14W        W  911   4.837   2.773   6.811  0.0981  0.1731  0.0021
   15W        W  912   5.411   1.551   7.233 -0.0984 -0.2557  0.2012
   16W        W  913   2.518   5.891   3.208 -0.0748 -0.2413  0.0786
   17W        W  914   1.722   3.211   1.990  0.1395  0.0213 -0.0385
   18W        W  915   4.597   3.149   0.963 -0.0710 -0.3076  0.1892
   19W        W  916   2.883   4.287   2.930  0.2227 -0.0931 -0.1215
   20W        W  917   6.719   1.143   6.964 -0.2862 -0.0019 -0.1103
   21W        W  918   3.638   2.570   4.561  0.0587  0.0672  0.0841
   22W        W  919   3.849   2.214   1.549  0.2786 -0.0901  0.3338
   23W        W  920   5.284   1.841   6.059  0.0353 -0.4538 -0.1364
   24W        W  921   3.807   7.163   7.208 -0.0244  0.0716 -0.2510
   25W        W  922   4.644   0.363   6.641 -0.0720  0.0672 -0.2033
   26W        W  923   3.564   5.751   7.601 -0.1149 -0.1107 -0.2878
   27W        W  924   3.683   0.327   7.402 -0.1192 -0.2249 -0.1257
   28W        W  925   1.781   0.672   3.712  0.1867 -0.1665  0.1660
   29W        W  926   0.137   5.668   4.278  0.0903 -0.2134 -0.0859
   30W        W  927   4.089   4.958   1.892  0.0475  0.2378 -0.0958
   31W        W  928   3.206   7.128   3.825  0.1120 -0.2232  0.1148
   32W        W  929   2.339   7.457   0.396 -0.0926 -0.1566 -0.1989
   33W        W  930   5.269   7.189   6.354  0.1008 -0.2269  0.2181
   34W        W  931   7.293   0.828   7.619 -0.0416 -0.0411 -0.2403
   35W        W  932   1.327   7.330   2.132  0.1039 -0.1150 -0.1208
   36W        W  933   4.119   5.884   1.660  0.2438  0.1538  0.1355
   37W        W  934   6.985   5.773   1.372  0.0775 -0.0886 -0.2001
   38W        W  935   0.648   1.757   1.672 -0.0804  0.1118 -0.2592
   39W        W  936   7.261   2.821   2.531 -0.2507 -0.1010 -0.1303
   40W        W  937   3.157   3.631   6.714  0.1266 -0.2668  0.3823
   41W        W  938   4.048   0.297   2.468  0.1680 -0.2284 -0.1162
   42W        W  939   1.357   6.076   7.510 -0.0964  0.3023 -0.2787
   43W        W  940   3.099   5.941   3.111  0.1204 -0.3621 -0.0212
   44W        W  941   7.161   4.226   7.382 -0.0033  0.1450 -0.1761
   45W        W  942   6.017   6.416   0.219 -0.0117 -0.3271  0.1010
   46W        W  943   6.180   0.767   3.948  0.0551  0.0737  0.3257
   47W        W  944   0.880   6.223   0.524 -0.1654 -0.2538  0.0247
   48W        W  945   5.189   1.087   2.841 -0.2163 -0.3747  0.1433
   49W        W  946   1.125   4.427   5.034 -0.1427 -0.0147  0.2273
   50W        W  947   0.439   1.617   4.881  0.1709 -0.1584 -0.2803
   51W        W  948   7.355   3.780   3.660  0.2910  0.2076 -0.0580
   52W        W  949   1.198   6.903   2.457 -0.1516 -0.3023  0.1450
   53W        W  950   6.509   5.584   2.651 -0.2562  0.3139  0.2826
   54W        W  951   4.365   0.033   3.710  0.0518 -0.3646 -0.3748
   55W        W  952   1.532   1.136   2.323  0.3469 -0.0716 -0.0571
   56W        W  953   1.351   7.488   3.517  0.1967 -0.0913  0.1702
   57W        W  954   3.138   3.373   6.207 -0.2392  0.1132 -0.0622
   58W        W  955   3.415   3.493   1.952 -0.1159 -0.0254  0.3246
   59W        W  956   1.354   7.122   0.612 -0.0195 -0.2406  0.1537
   60W        W  957   6.124   1.401   5.109 -0.0195 -0.0631  0.2385
   61W        W  958   4.496   3.781   6.717 -0.3365 -0.0875  0.0097
   62W        W  959   0.271   3.949   1.059 -0.0132 -0.0217 -0.0306
   63W        W  960   5.257   0.855   7.109  0.0946  0.0553  0.1158
   64W        W  961   3.014   4.249   6.082  0.1454 -0.0641  0.0909
   65W        W  962   2.369   2.279   7.414  0.1873  0.2779 -0.2552
   66W        W  963   6.320   2.459   0.101  0.0099 -0.0649 -0.0698
   67W        W  964   3.534   4.869   4.900 -0.2284 -0.0132  0.2544
   68W        W  965   5.677   0.190   0.174  0.1065  0.0544 -0.0261
   69W        W  966   6.668   3.721   5.300 -0.1914  0.0574 -0.2075
   70W        W  967   0.496   2.158   4.917  0.1506 -0.1213  0.0870
   71W        W  968   4.899   5.737   4.951  0.1957 -0.0515  0.1162
   72W        W  969   1.519   0.191   0.315  0.1682  0.2939 -0.1383
   73W        W  970   3.137   2.540   4.948 -0.1785 -0.1726 -0.2256
   74W        W  971   3.698   1.661   2.232 -0.0430 -0.0673  0.3840
   75W        W  972   7.076   7.223   5.953 -0.0102  0.0681  0.0370
   76W        W  973   0.347   0.883   6.025  0.0537  0.0880  0.1909
   77W        W  974   4.307   1.269   5.932  0.1079  0.1039 -0.0331
   78W        W  975   2.191   3.926   3.718 -0.0338  0.1570 -0.3011
   79W        W  976   6.497   2.812   3.105  0.1149  0.3782 -0.2889
   80W        W  977   2.076   3.448   1.348  0.0745 -0.2299  0.1306
   81W        W  978   2.296   0.782   2.295 -0.1503 -0.0945  0.3763
   82W        W  979   7.106   1.203   5.204  0.1795 -0.1553  0.0458
   83W        W  980   7.451   7.138   7.564  0.0406 -0.0631  0.0471
   84W        W  981   2.663   7.198   1.686 -0.3802 -0.1428 -0.2379
   85W        W  982   6.555   2.361   6.599  0.3569  0.2216  0.1750
   86W        W  983   3.560   1.073   0.927 -0.0648  0.0227 -0.0448
   87W        W  984   1.993   1.946   0.069 -0.1860  0.2918  0.2517
   88W        W  985   5.211   1.627   1.975  0.2161 -0.1499 -0.0157
   89W        W  986   4.911   4.007   0.949  0.0231 -0.0796 -0.1186
   90W        W  987   0.339   3.657   1.860  0.1586 -0.0362 -0.1887
   91W        W  988   0.199   7.441   7.509 -0.0808  0.0074 -0.1956
   92W        W  989   0.105   4.191   1.995  0.2519 -0.0260 -0.1454
   93W        W  990   3.528   4.718   0.518  0.0581  0.3069 -0.0063
   94W        W  991   4.456   7.210   0.583  0.2305 -0.2140 -0.0728
   95W        W  992   6.272   1.007   7.475  0.1096  0.2055 -0.1571
   96W        W  993   3.137   1.682   3.185 -0.1378 -0.4137  0.1392
   97W        W  994   6.792   2.003   1.279 -0.0018 -0.0010 -0.1667
   98W        W  995   4.349   7.607   1.383  0.0750  0.0743 -0.1937
   99W        W  996   4.685   7.028   3.008 -0.4187 -0.0620  0.4371
  100W        W  997   5.369   6.037   0.913 -0.2369 -0.1328 -0.0079
  101W        W  998   2.413   3.305   7.088 -0.2801 -0.0324 -0.1241
  102W        W  999   6.215   7.061   6.251 -0.2149  0.0225  0.2316
  103W        W 1000   4.550   1.768   5.272  0.1623  0.0747 -0.4250
  104W        W 1001   7.406   6.140   4.794 -0.1700  0.2483 -0.2268
  105W        W 1002   2.897   4.625   6.482  0.3701 -0.0178  0.1908
  106W        W 1003   0.543   4.322   7.186 -0.0749 -0.3715 -0.1359
  107W        W 1004   0.007   6.561   5.600  0.0366  0.3688 -0.3674
  108W        W 1005   2.532   6.741   1.982 -0.0391  0.3342 -0.0677
  109W        W 1006   1.803   4.448   1.697  0.0678  0.3871 -0.0271
  110W        W 1007   0.685   5.023   5.401  0.0150 -0.0093 -0.3217
  111W        W 1008   2.978   6.346   7.493  0.0306 -0.0803 -0.1652
  112W        W 1009   2.640   1.971   4.306  0.0642 -0.2075 -0.0532
  113W        W 1010   1.744   7.059   2.430 -0.1411 -0.1211 -0.0512
  114W        W 1011   0.294   6.127   1.433  0.1128 -0.1628 -0.0547
  115W        W 1012   1.235   1.486   1.284 -0.2361  0.0279  0.1184
  116W        W 1013   0.806   6.901   7.331  0.0468 -0.0450  0.1792
  117W        W 1014   0.880   6.107   7.132 -0.0966  0.2600 -0.0770
  118W        W 1015   1.458   1.396   7.546 -0.1984  0.0550  0.2549
  119W        W 1016   6.590   1.410   7.475 -0.1674  0.2934  0.0385
  120W        W 1017   1.545   2.357   7.589 -0.1951 -0.0415  0.1673
  121W        W 1018   3.332   6.227   3.971  0.1461 -0.2478 -0.1366
  122W        W 1019   2.896   4.766   2.583 -0.1563  0.1340 -0.0743
  123W        W 1020   2.606   3.061   4.036  0.1278 -0.5744  0.0599
  124W        W 1021   6.532   0.777   4.412 -0.2357 -0.3908  0.0833
  125W        W 1022   2.662   4.254   0.545  0.2718 -0.0578  0.0134
  126W        W 1023   3.523   1.600   4.092 -0.0873  0.0385 -0.2491
  127W        W 1024   7.515   2.847   1.653  0.1355 -0.2076  0.0773
  128W        W 1025   2.314   6.345   2.516  0.0338  0.0454 -0.0089
  129W        W 1026   5.257   5.894   0.295  0.0104 -0.1235 -0.1865
  130W        W 1027   6.170   0.653   1.558  0.2298 -0.2469  0.2865
  131W        W 1028   0.868   2.127   6.526  0.1007  0.0551 -0.0695
  132W        W 1029   7.030   4.897   5.696 -0.2413 -0.0377  0.1148
  133W        W 1030   0.337   1.745   5.885 -0.2682 -0.2087  0.2479
  134W        W 1031   1.639   1.249   7.069 -0.0148 -0.0622  0.3506
  135W        W 1032   4.170   1.871   3.659  0.2687 -0.2515  0.0157
  136W        W 1033   7.040   6.797   1.560  0.0513 -0.1129  0.3014
  137W        W 1034   6.714   5.408   5.787 -0.0978  0.0838 -0.0984
  138W        W 1035   2.135   1.229   2.108 -0.2631  0.1202  0.1369
  139W        W 1036   2.570   5.916   0.633 -0.1401 -0.0570  0.1815
  140W        W 1037   5.001   0.136   2.726  0.0567 -0.1528  0.0541
  141W        W 1038   3.143   7.362   1.724 -0.0187 -0.0625 -0.1424
  142W        W 1039   4.070   5.522   4.442 -0.2295  0.1040 -0.2718
  143W        W 1040   4.497   6.772   5.111  0.0922  0.1282 -0.0918
  144W        W 1041   1.794   3.894   3.138 -0.2722 -0.1047 -0.5340
  145W        W 1042   5.681   1.688   6.472  0.0575 -0.2418 -0.2608
  146W        W 1043   3.577   0.849   5.138  0.0357 -0.0425 -0.1297
  147W        W 1044   2.987   1.853   2.760  0.1001 -0.0593  0.0367
  148W        W 1045   5.729   3.898   5.354  0.3377  0.1311  0.0459
  149W        W 1046   4.036   5.644   7.299  0.1272 -0.0334  0.1389
  150W        W 1047   1.380   4.256   6.602  0.2942  0.1507  0.2971
  151W        W 1048   0.701   0.352   1.680  0.0008 -0.0558  0.0093
  152W        W 1049   2.262   7.141   0.761 -0.1334  0.3314  0.1348
  153W        W 1050   2.954   0.941   7.487 -0.0346 -0.2401  0.3510
  154W        W 1051   5.864   7.297   0.008 -0.1741 -0.2454  0.0120
  155W        W 1052   5.728   4.474   0.365  0.0045 -0.2173  0.5045
  156W        W 1053   6.896   6.465   2.942  0.2013  0.0158  0.0436
  157W        W 1054   0.962   7.389   0.671 -0.3083 -0.0128 -0.2011
  158W        W 1055   2.212   5.243   3.993 -0.4403  0.1715  0.1837
  159W        W 1056   7.496   4.455   2.497  0.0890 -0.0080  0.0472
  160W        W 1057   6.020   5.953   4.769 -0.0684  0.1674 -0.1116
  161W        W 1058   2.257   6.086   7.392  0.1808 -0.0450 -0.0812
  162W        W 1059   3.046   6.800   3.282 -0.1981  0.0843  0.1730
  163W        W 1060   4.387   1.992   7.081  0.1400  0.1685  0.1387
  164W        W 1061   1.151   5.415   7.056 -0.0395  0.3775  0.1659
  165W        W 1062   5.322   2.453   6.137 -0.0899 -0.0044  0.2065
  166W        W 1063   5.648   2.590   5.811 -0.1794  0.0613  0.2199
  167W        W 1064   2.292   3.269   3.697 -0.0177 -0.0814 -0.5310
  168W        W 1065   7.005   0.667   4.299  0.1865  0.1031 -0.0911
  169W        W 1066   7.383   0.193   2.674 -0.1225  0.1371  0.3450
  170W        W 1067   5.705   0.397   5.644  0.0148 -0.0947 -0.2286
  171W        W 1068   2.201   1.939   3.855 -0.0786  0.2076  0.0013
  172W        W 1069   6.497   1.572   1.170 -0.1042  0.1414  0.1177
  173W        W 1070   3.372   1.210   4.381 -0.1366  0.1075 -0.1364
  174W        W 1071   7.620   4.557   5.516 -0.2601 -0.2221 -0.2100
  175W        W 1072   4.399   2.678   6.303 -0.2419 -0.2031  0.2307
  176W        W 1073   0.099   4.155   1.495 -0.0876 -0.0191 -0.0864
  177W        W 1074   2.175   6.932   1.725 -0.0132 -0.0294  0.1195
  178W        W 1075   1.081   2.392   0.528 -0.0144 -0.1108  0.2334
  179W        W 1076   6.714   6.231   3.372  0.2807  0.2217  0.1044
  180W        W 1077   1.994   2.586   0.053  0.1376  0.0535 -0.0409
  181W        W 1078   4.048   2.513   4.959 -0.3070  0.0635 -0.0992
  182W        W 1079   5.485   7.550   2.515  0.2238  0.1978 -0.3277
  183W        W 1080   3.334   5.128   5.791  0.2891  0.0867 -0.0668
  184W        W 1081   6.571   4.552   7.491  0.4898  0.4609 -0.1447
  185W        W 1082   0.156   2.764   2.361  0.0490 -0.2492  0.2874
  186W        W 1083   0.741   2.054   5.969  0.0043 -0.0635 -0.0294
  187W        W 1084   1.128   4.852   0.369  0.0531  0.0204  0.1012
  188W        W 1085   1.758   4.610   2.162  0.1670  0.0296  0.1352
  189W        W 1086   0.496   3.273   6.120  0.2938 -0.3618 -0.2301
  190W        W 1087   5.489   4.995   6.312 -0.1705  0.0612 -0.3021
  191W        W 1088   0.035   4.191   6.278  0.1056 -0.3106 -0.2147
  192W        W 1089   4.622   1.446   1.277 -0.0955  0.1771  0.0745
  193W        W 1090   1.536   1.128   1.461 -0.0863 -0.1201  0.4035
  194W        W 1091   4.200   6.244   0.599  0.2969 -0.1666  0.1138
  195W        W 1092   3.518   2.815   1.048  0.0372 -0.0483 -0.1121
  196W        W 1093   5.541   2.039   2.548 -0.1949 -0.0776  0.0185
  197W        W 1094   2.331   3.767   0.370  0.0005  0.0354  0.0838
  198W        W 1095   7.448   0.020   1.822 -0.0844  0.1242  0.1501
  199W        W 1096   1.521   5.477   7.526  0.1660 -0.2140  0.3309
  200W        W 1097   1.991   0.332   0.553 -0.3109 -0.0260  0.2167
  201W        W 1098   3.206   3.499   0.113 -0.2064 -0.3848 -0.1316
  202W        W 1099   6.877   0.656   6.965 -0.2728  0.2560 -0.0214
  203W        W 1100   5.698   5.985   2.273  0.0381  0.1874  0.1367
  204W        W 1101   6.743   6.488   1.984 -0.4486 -0.0230 -0.1170
  205W        W 1102   0.486   3.538   3.626 -0.1532  0.0834 -0.2315
  206W        W 1103   5.108   0.936   2.339 -0.3773  0.1333 -0.2252
  207W        W 1104   4.590   7.453   2.707 -0.0857 -0.1815  0.1452
  208W        W 1105   5.205   2.749   5.615 -0.2185  0.2975 -0.1373
  209W        W 1106   6.973   5.880   2.704 -0.0895 -0.0792  0.0519
  210W        W 1107   4.044   2.039   6.740 -0.0611 -0.0782 -0.0276
  211W        W 1108   2.438   5.133   1.705  0.2082 -0.1804  0.1585
  212W        W 1109   5.001   7.312   4.846  0.0779  0.2788 -0.0721
  213W        W 1110   3.721   4.042   1.410 -0.2469  0.0745 -0.1621
  214W        W 1111   0.042   6.660   6.850 -0.1409  0.0333  0.1121
  215W        W 1112   6.770   6.113   0.049  0.1913  0.0915 -0.0832
  216W        W 1113   3.083   3.345   1.618 -0.1134 -0.2701 -0.2391
  217W        W 1114   2.555   4.633   3.234 -0.2717  0.0591 -0.0715
  218W        W 1115   6.483   0.939   5.125 -0.0307  0.1559  0.0759
  219W        W 1116   3.724   1.516   6.854  0.1267 -0.2806 -0.1266
  220W        W 1117   2.985   1.560   2.364  0.3971 -0.1164 -0.1814
  221W        W 1118   3.256   7.581   2.149 -0.1967 -0.1087  0.0552
  222W        W 1119   3.896   7.528   5.393  0.0984 -0.1304 -0.1844
  223W        W 1120   4.388   3.213   1.431  0.0932 -0.0623 -0.1780
  224W        W 1121   1.429   7.334   0.166  0.1533  0.4942  0.1256
  225W        W 1122   0.688   2.238   1.271 -0.0294 -0.0740  0.0627
  226W        W 1123   6.095   1.556   0.310  0.2618  0.1308 -0.2195
  227W        W 1124   4.705   6.114   0.626  0.1292  0.0342 -0.0773
  228W        W 1125   2.571   5.042   2.901 -0.1039 -0.1651  0.1130
  229W        W 1126   4.180   0.072   5.811 -0.0990 -0.0989  0.0512
  230W        W 1127   5.512   2.500   1.291  0.0151  0.0743 -0.0985
  231W        W 1128   3.486   0.689   3.063  0.2162 -0.1442 -0.1703
  232W        W 1129   5.084   0.554   6.726  0.0971  0.0004  0.0996
  233W        W 1130   4.630   1.200   3.406 -0.0200  0.1115 -0.2461
  234W        W 1131   2.939   2.069   3.389  0.1674  0.0767 -0.1099
  235W        W 1132   3.827   0.512   6.982  0.0399 -0.0441 -0.1184
  236W        W 1133   6.083   4.798   1.063  0.2122  0.2148  0.1512
  237W        W 1134   1.190   0.393   3.439  0.1419  0.0060  0.2658
  238W        W 1135   3.074   6.871   0.952  0.2222 -0.1516  0.2471
  239W        W 1136   0.420   5.596   2.964  0.0405  0.0983  0.2510
  240W        W 1137   6.290   6.864   2.233 -0.0315  0.1588 -0.0409
  241W        W 1138   6.479   1.116   1.704 -0.1104  0.0055 -0.3246
  242W        W 1139   2.258   2.093   5.780  0.1928 -0.1289 -0.2111
  243W        W 1140   2.906   4.193   6.729 -0.1086 -0.1797  0.0102
  244W        W 1141   2.412   2.213   0.323  0.1277 -0.4196  0.1932
  245W        W 1142   5.013   6.701   2.259 -0.0948 -0.0284 -0.1604
  246W        W 1143   3.168   4.371   0.367  0.4248 -0.1541 -0.1284
  247W        W 1144   7.104   0.118   2.228 -0.2541  0.0767  0.2559
  248W        W 1145   3.828   7.308   5.990 -0.1163  0.2125  0.4385
  249W        W 1146   0.502   5.079   2.922  0.1307  0.0328  0.0892
  250W        W 1147   4.679   6.171   1.432 -0.1093  0.3294 -0.4557
  251W        W 1148   5.004   6.263   7.271 -0.3563 -0.1202  0.0266
  252W        W 1149   5.279   0.280   4.870 -0.0439 -0.1803  0.0586
  253W        W 1150   4.977   5.088   2.947 -0.4896  0.0347 -0.0275
  254W        W 1151   6.637   6.846   5.929  0.1926  0.1316 -0.0902
  255W        W 1152   7.447   6.015   1.707  0.1757  0.0476  0.5018
  256W        W 1153   3.509   7.547   6.528  0.2644  0.5061 -0.0968
  257W        W 1154   6.507   0.254   3.152 -0.2350  0.1772  0.2462
  258W        W 1155   4.390   7.288   3.300  0.1490 -0.3357 -0.0053
  259W        W 1156   7.086   0.600   6.321  0.0362  0.1903  0.0782
  260W        W 1157   4.379   3.583   5.879 -0.2115  0.1993  0.2038
  261W        W 1158   3.126   3.128   5.630  0.1523 -0.3674 -0.1652
  262W        W 1159   1.242   0.644   0.095 -0.1448  0.0281  0.0783
  263W        W 1160   0.288   4.598   2.237  0.2441 -0.0215  0.0212
  264W        W 1161   0.187   2.151   5.667 -0.2111 -0.0302 -0.0212
  265W        W 1162   0.547   4.709   5.822  0.3112 -0.2658  0.0185
  266W        W 1163   1.806   0.678   1.566 -0.3661  0.1497 -0.2091
  267W        W 1164   2.065   0.903   7.208  0.2533 -0.1658  0.1283
  268W        W 1165   7.203   1.116   7.137  0.0444 -0.0004  0.0136
  269W        W 1166   7.043   6.206   4.495 -0.3435 -0.0559 -0.1314
  270W        W 1167   0.975   2.487   7.550 -0.2016  0.0390 -0.1585
  271W        W 1168   4.829   7.231   6.119  0.3270  0.1037 -0.0170
  272W        W 1169   1.642   3.471   5.512  0.1567  0.2947  0.2027
  273W        W 1170   0.139   2.212   1.002  0.3698  0.1345 -0.1511
  274W        W 1171   3.027   0.980   3.934 -0.2603 -0.0742 -0.1210
  275W        W 1172   4.155   6.856   2.320  0.0791  0.0415 -0.1898
  276W        W 1173   4.960   5.730   1.435 -0.3413  0.0254 -0.3269
  277W        W 1174   0.607   6.931   1.690 -0.1529 -0.1110 -0.3015
  278W        W 1175   2.816   4.748   5.769 -0.1062 -0.0818  0.0221
  279W        W 1176   2.123   3.649   5.217 -0.0009  0.0275 -0.1288
  280W        W 1177   7.075   4.548   3.489  0.0095  0.0591  0.0318
  281W        W 1178   0.091   0.149   3.876 -0.1292 -0.2267 -0.0450
  282W        W 1179   7.485   3.304   2.399  0.2030 -0.1912 -0.1226
  283W        W 1180   1.659   6.460   0.668  0.1033  0.3072 -0.1089
  284W        W 1181   1.384   2.536   3.596 -0.1784 -0.0654  0.1189
  285W        W 1182   5.915   6.016   7.489 -0.1118  0.0900  0.0227
  286W        W 1183   7.415   6.996   6.541  0.0074  0.0743  0.0094
  287W        W 1184   1.746   3.956   6.502 -0.3642 -0.1021 -0.2522
  288W        W 1185   1.658   4.209   3.528  0.0201 -0.2479  0.0780
  289W        W 1186   0.796   0.880   7.094 -0.2856  0.1524  0.2641
  290W        W 1187   0.396   5.727   7.037 -0.3159  0.0245 -0.2310
  291W        W 1188   1.196   4.164   3.773  0.1056  0.0746 -0.0075
  292W        W 1189   0.327   7.158   1.308  0.0869 -0.1454 -0.2136
  293W        W 1190   0.412   3.410   0.045  0.0054 -0.0759 -0.1586
  294W        W 1191   6.067   4.827   7.081 -0.1543 -0.0413 -0.2455
  295W        W 1192   3.049   3.016   3.180 -0.2248 -0.2855  0.0515
  296W        W 1193   3.246   2.964   2.029  0.0884 -0.0146  0.1298
  297W        W 1194   0.430   2.190   3.561 -0.2278  0.2263 -0.2046
  298W        W 1195   5.974   2.195   1.122  0.0023  0.1100 -0.2182
  299W        W 1196   0.757   2.799   0.315  0.0973  0.0336  0.1808
  300W        W 1197   4.549   5.810   7.255 -0.0330  0.1552  0.3883
  301W        W 1198   2.671   1.162   0.352 -0.1707 -0.1581  0.2118
  302W        W 1199   7.318   3.889   4.175 -0.0762 -0.0557  0.1406
  303W        W 1200   5.107   2.316   0.930 -0.3850  0.0892 -0.2399
  304W        W 1201   7.104   1.598   2.224 -0.0369 -0.0046 -0.2722
  305W        W 1202   3.414   6.521   1.126 -0.1742 -0.0055  0.0472
  306W        W 1203   6.737   0.434   4.786  0.1110 -0.1997  0.0274
  307W        W 1204   0.404   4.565   2.861  0.2074 -0.1182  0.1704
  308W        W 1205   3.170   1.510   4.908  0.1615  0.3419 -0.0593
  309W        W 1206   3.326   1.306   2.044  0.0638 -0.0174  0.0650
  310W        W 1207   7.575   2.050   4.206  0.3002  0.0455  0.0405
  311W        W 1208   4.256   3.040   2.574  0.0122  0.4542  0.1549
  312W        W 1209   6.717   4.676   2.193  0.0025 -0.1297  0.0701
  313W        W 1210   3.681   3.668   0.093  0.1027  0.6059  0.0396
  314W        W 1211   3.701   2.303   2.490  0.2081  0.1684 -0.0307
  315W        W 1212   6.841   4.320   6.996  0.5627  0.2357  0.1245
  316W        W 1213   7.305   2.344   1.652 -0.1336  0.0252 -0.2964
  317W        W 1214   6.216   0.682   3.076  0.1006  0.0947 -0.0609
  318W        W 1215   4.836   6.464   5.444 -0.2713 -0.1320 -0.2809
  319W        W 1216   6.802   7.252   1.381 -0.0913  0.0903  0.1781
  320W        W 1217   0.221   1.617   0.401  0.0716 -0.3226 -0.1111
  321W        W 1218   3.460   2.624   0.499  0.1385 -0.0736  0.1297
  322W        W 1219   0.858   6.633   2.783 -0.3735 -0.1962 -0.0488
  323W        W 1220   6.838   2.637   5.357 -0.1228  0.1766 -0.0037
  324W        W 1221   0.660   1.208   7.416 -0.1662  0.3716 -0.0353
  325W        W 1222   0.967   7.135   0.236 -0.0026  0.1542 -0.0672
  326W        W 1223   5.917   2.506   0.358 -0.2975  0.1522 -0.3080
  327W        W 1224   0.631   3.703   4.713  0.1733  0.0443  0.2036
  328W        W 1225   2.675   5.062   4.026 -0.4221  0.0458 -0.0951
  329W        W 1226   4.466   4.969   1.212  0.0861 -0.0015 -0.0254
  330W        W 1227   1.368   0.614   2.918  0.1537  0.0457 -0.0187
  331W        W 1228   4.139   1.808   1.362  0.0268 -0.2137 -0.1516
  332W        W 1229   6.919   4.090   1.130  0.1730 -0.1474  0.0531
  333W        W 1230   7.451   5.525   1.419 -0.1367  0.2227 -0.3823
  334W        W 1231   0.937   2.044   2.210  0.0462  0.0324  0.2265
  335W        W 1232   4.484   7.218   4.648  0.0585 -0.1769  0.1153
  336W        W 1233   3.728   3.512   0.790 -0.2436  0.0339  0.0009
  337W        W 1234   6.635   5.918   1.725  0.2261  0.1601  0.0337
  338W        W 1235   1.857   5.616   2.476  0.4030 -0.1584  0.0873
  339W        W 1236   6.020   0.833   4.575 -0.0537  0.0151  0.0465
  340W        W 1237   0.559   4.170   0.663  0.1029  0.1928  0.1826
  341W        W 1238   7.581   4.605   1.321 -0.2087 -0.1143 -0.1527
  342W        W 1239   3.075   1.488   0.082 -0.0199  0.2674 -0.1163
  343W        W 1240   4.912   1.420   7.547  0.0852  0.0103 -0.2875
  344W        W 1241   1.817   6.554   2.582  0.1622  0.1862  0.4404
  345W        W 1242   3.345   5.797   3.668 -0.0532  0.3245  0.3306
  346W        W 1243   4.982   3.221   1.325  0.0888 -0.0553  0.1742
  347W        W 1244   6.518   7.055   4.476  0.0360 -0.1526  0.0871
  348W        W 1245   2.356   1.933   5.016  0.2522 -0.1970 -0.0463
  349W        W 1246   1.598   1.798   1.515 -0.0247  0.1731  0.0752
  350W        W 1247   7.382   7.596   4.743 -0.1720  0.1890 -0.2761
  351W        W 1248   0.780   1.007   6.600  0.1446 -0.3900  0.0085
  352W        W 1249   7.198   3.826   0.609  0.0239 -0.1323  0.0518
  353W        W 1250   0.866   4.806   1.588  0.2700  0.1389 -0.0044
  354W        W 1251   0.335   3.293   4.782  0.0963  0.2617 -0.0962
  355W        W 1252   4.540   0.293   3.337 -0.3541 -0.0680  0.0116
  356W        W 1253   1.840   4.459   0.209 -0.1191  0.2965 -0.2276
  357W        W 1254   0.435   0.377   1.198  0.2597 -0.2775 -0.0323
  358W        W 1255   4.793   1.073   5.865  0.2279  0.2721  0.0190
  359W        W 1256   7.587   7.007   2.446  0.2600 -0.0300 -0.0547
  360W        W 1257   6.200   6.389   3.822 -0.0375  0.1351 -0.0639
  361W        W 1258   4.670   0.509   1.495 -0.0196 -0.2442  0.0438
  362W        W 1259   3.787   1.151   1.828 -0.3818  0.1835 -0.1226
  363W        W 1260   6.597   5.780   3.108  0.0744  0.0491  0.1906
  364W        W 1261   5.612   1.140   4.438 -0.1821 -0.2668 -0.3060
  365W        W 1262   1.874   2.151   6.662 -0.0336 -0.0106 -0.1673
  366W        W 1263   5.828   5.501   4.926 -0.3046 -0.2951  0.2520
  367W        W 1264   6.710   3.899   4.193 -0.0541  0.3078  0.0807
  368W        W 1265   6.071   6.238   5.609 -0.0709  0.0212  0.1997
  369W        W 1266   1.374   0.235   0.905  0.0684  0.0581  0.2014
  370W        W 1267   0.352   2.604   1.339  0.2459  0.1210 -0.3121
  371W        W 1268   6.367   5.917   0.984  0.1519  0.0859  0.1713
  372W        W 1269   6.597   6.427   0.815  0.0648  0.1878  0.1666
  373W        W 1270   3.066   2.465   5.821  0.0179 -0.1761  0.0895
  374W        W 1271   0.635   6.086   1.009  0.0436  0.1051  0.0402
  375W        W 1272   4.768   5.326   7.424 -0.0816 -0.0310 -0.0431
  376W        W 1273   4.725   0.832   6.993  0.3636 -0.0103 -0.2366
  377W        W 1274   3.720   4.314   2.428 -0.0217  0.1911  0.2478
  378W        W 1275   0.688   3.650   6.529 -0.0589 -0.1324 -0.1387
  379W        W 1276   0.693   4.053   3.830  0.2210 -0.2796 -0.3918
  380W        W 1277   0.466   1.157   0.349 -0.0467 -0.1340 -0.0413
  381W        W 1278   6.640   0.000   7.614  0.0288 -0.2177 -0.2232
  382W        W 1279   2.389   1.081   0.767  0.2477  0.4678 -0.0664
  383W        W 1280   4.766   0.249   3.825 -0.2899  0.1476 -0.0470
  384W        W 1281   2.778   6.195   2.302  0.0603  0.1072  0.0151
  385W        W 1282   7.296   6.933   5.630 -0.2947  0.1427 -0.1158
  386W        W 1283   7.541   0.968   6.344  0.3358 -0.1922 -0.0471
  387W        W 1284   5.373   1.611   5.348  0.0577  0.2073  0.1972
  388W        W 1285   7.360   3.984   2.592 -0.0505  0.1020 -0.0955
  389W        W 1286   0.957   4.715   3.013  0.1353  0.2515  0.1013
  390W        W 1287   0.211   4.048   4.878 -0.0085  0.4056 -0.0066
  391W        W 1288   6.315   0.438   3.627  0.1961 -0.1100  0.3068
  392W        W 1289   5.795   2.959   0.662 -0.2427 -0.0902  0.0700
  393W        W 1290   5.980   0.764   5.132  0.1699  0.1373  0.0762
  394W        W 1291   5.938   0.051   2.346 -0.1212 -0.4427  0.2864
  395W        W 1292   7.298   3.208   2.947  0.3029  0.1021 -0.1661
  396W        W 1293   0.500   3.533   3.077 -0.0840 -0.3309  0.1514
  397W        W 1294   3.553   3.346   6.868 -0.0025  0.2256  0.1545
  398W        W 1295   0.018   1.257   7.345 -0.0412 -0.2365 -0.1809
  399W        W 1296   2.878   5.552   3.357 -0.1088  0.3410 -0.1063
  400W        W 1297   4.430   5.161   4.682  0.2579  0.0975 -0.1566
  401W        W 1298   3.731   2.434   3.003 -0.0715  0.0095 -0.0213
  402W        W 1299   6.975   1.351   1.826 -0.0718  0.1812  0.0956
  403W        W 1300   6.469   5.146   2.347 -0.0727  0.4922 -0.1012
  404W        W 1301   4.826   3.356   0.386 -0.1374  0.0692 -0.0396
  405W        W 1302   7.414   7.015   4.257  0.0587 -0.0605  0.0544
  406W        W 1303   4.495   3.581   0.729 -0.0205 -0.0720 -0.2845
  407W        W 1304   3.027   3.322   2.747 -0.0193 -0.3596  0.1837
  408W        W 1305   7.482   0.359   4.343  0.0761  0.4682  0.0401
  409W        W 1306   2.897   5.136   1.568  0.0675 -0.1807  0.1448
  410W        W 1307   6.379   2.426   5.393 -0.3460 -0.1283  0.1224
  411W        W 1308   7.528   2.521   4.513 -0.0075 -0.1143  0.2855
  412W        W 1309   1.683   0.245   2.786  0.2256  0.4791  0.0743
  413W        W 1310   3.520   6.163   0.797 -0.1378 -0.0845  0.0805
  414W        W 1311   2.332   1.427   5.005  0.3977 -0.2050  0.0703
  415W        W 1312   6.800   6.968   3.006  0.0595 -0.3123 -0.1838
  416W        W 1313   4.879   4.149   1.942 -0.1842  0.0076 -0.2990
  417W        W 1314   2.775   6.427   0.347 -0.1277 -0.1331  0.1399
  418W        W 1315   0.060   6.035   5.753 -0.0348 -0.0566 -0.0761
  419W        W 1316   0.325   2.169   7.139  0.0446  0.1155  0.1581
  420W        W 1317   0.198   4.490   0.423  0.2566  0.1723  0.0557
  421W        W 1318   1.759   2.025   7.148 -0.1315  0.3488 -0.1282
  422W        W 1319   6.263   6.057   6.349  0.0028 -0.1382  0.3092
  423W        W 1320   6.237   5.337   7.014 -0.1261 -0.2598  0.2009
  424W        W 1321   5.144   7.114   0.004  0.3438 -0.0761  0.1632
  425W        W 1322   1.617   1.831   3.831 -0.1013 -0.0129  0.2851
  426W        W 1323   6.062   2.793   2.386  0.1534 -0.2953 -0.1386
  427W        W 1324   6.023   2.338   5.736 -0.0391 -0.1397 -0.0441
  428W        W 1325   3.037   3.885   0.439 -0.1435 -0.0924  0.0618
  429W        W 1326   3.933   2.782   5.337 -0.1588  0.0526  0.1032
  430W        W 1327   0.688   3.832   5.573  0.1804 -0.0265  0.2206
  431W        W 1328   7.082   2.944   1.415  0.2179  0.1599  0.2898
  432W        W 1329   6.003   6.887   5.342 -0.0491  0.0538 -0.1316
  433W        W 1330   6.198   5.355   5.830 -0.0882 -0.1103  0.0002
  434W        W 1331   5.611   1.263   0.031 -0.1461  0.1971 -0.2671
  435W        W 1332   6.915   0.252   7.272  0.0440  0.0939  0.2330
  436W        W 1333   7.111   1.595   4.747  0.0415  0.4797  0.0344
  437W        W 1334   6.183   0.492   2.386  0.1469 -0.1164  0.2336
  438W        W 1335   3.957   7.358   6.728  0.1168  0.1353  0.0639
  439W        W 1336   1.680   4.033   5.496 -0.0468  0.1521  0.1954
  440W        W 1337   6.027   7.490   5.892  0.1328 -0.2101  0.0834
  441W        W 1338   4.941   2.190   5.998  0.2243 -0.0736 -0.0542
  442W        W 1339   4.693   4.444   1.037 -0.1932 -0.2325  0.1446
  443W        W 1340   5.672   5.885   4.386  0.1122  0.2572  0.1506
  444W        W 1341   3.861   3.595   7.207  0.0037  0.0846  0.0187
  445W        W 1342   0.765   2.760   2.945 -0.0234  0.2679 -0.0687
  446W        W 1343   0.556   6.245   5.992  0.0511  0.0940  0.0145
  447W        W 1344   5.256   5.393   7.172 -0.0453 -0.2447 -0.0448
  448W        W 1345   1.497   3.131   0.508 -0.2952  0.1151  0.0955
  449W        W 1346   2.924   0.872   3.238  0.1084  0.1409  0.3458
  450W        W 1347   5.858   7.183   4.820  0.1632 -0.2741  0.0464
  451W        W 1348   3.470   7.588   3.302 -0.3147  0.1720 -0.2974
  452W        W 1349   3.346   6.650   7.278  0.1863 -0.2144  0.0615
  453W        W 1350   0.142   5.373   2.583  0.2026  0.0387 -0.1575
  454W        W 1351   6.594   6.519   4.516  0.1274 -0.1389 -0.1950
  455W        W 1352   4.455   2.224   6.042  0.1081 -0.1399  0.1792
  456W        W 1353   2.049   5.859   1.945  0.1556 -0.0577 -0.0367
  457W        W 1354   4.883   5.140   0.295 -0.5377  0.2370  0.4653
  458W        W 1355   2.691   0.371   4.107 -0.0986  0.2252 -0.1940
  459W        W 1356   0.579   1.958   0.784 -0.1323 -0.3745 -0.1418
  460W        W 1357   3.197   6.019   1.524 -0.0873  0.0718 -0.0965
  461W        W 1358   6.816   1.401   6.517 -0.1884 -0.0472  0.0040
  462W        W 1359   4.442   6.301   1.932  0.0428 -0.0687 -0.1719
  463W        W 1360   2.549   3.491   2.175  0.1886  0.3072 -0.0590
  464W        W 1361   1.512   2.495   7.118 -0.0012 -0.1226  0.1797
  465W        W 1362   2.771   0.445   4.746  0.1076 -0.1671 -0.0025
  466W        W 1363   4.682   0.002   0.351  0.2986  0.0992  0.0717
  467W        W 1364   1.997   2.377   0.558  0.1227  0.3063  0.0926
  468W        W 1365   5.361   2.970   7.227 -0.1377  0.0643  0.0490
  469W        W 1366   4.133   2.199   2.870 -0.2762 -0.0829 -0.1535
  470W        W 1367   4.148   4.530   7.058  0.1584 -0.1633  0.1316
  471W        W 1368   4.728   6.973   5.601 -0.2546  0.1728 -0.3273
  472W        W 1369   6.658   5.937   0.551  0.2262  0.0657 -0.0729
  473W        W 1370   6.012   1.046   0.279  0.0082 -0.0168  0.2139
  474W        W 1371   2.040   5.535   0.025  0.2134  0.2784 -0.2385
  475W        W 1372   0.143   1.575   4.350 -0.0428  0.3304 -0.0048
  476W        W 1373   7.119   0.846   3.488 -0.0700  0.1244  0.1862
  477W        W 1374   2.850   1.301   5.285  0.1152  0.2926  0.0850
  478W        W 1375   7.474   7.147   2.004 -0.0243  0.2218  0.0958
  479W        W 1376   6.821   4.986   6.443 -0.0264  0.1318 -0.0417
  480W        W 1377   1.927   2.470   5.045  0.1430 -0.0855  0.1847
  481W        W 1378   3.719   4.426   5.956  0.1140  0.0759 -0.0551
  482W        W 1379   4.802   5.683   0.369 -0.1268 -0.1576  0.0063
  483W        W 1380   4.453   5.453   1.225 -0.1111 -0.2543 -0.0569
  484W        W 1381   3.850   4.519   4.649 -0.0269 -0.0987  0.3977
  485W        W 1382   3.568   4.819   0.061  0.0581 -0.0646 -0.0570
  486W        W 1383   4.075   3.989   5.888 -0.4131  0.0123 -0.6825
  487W        W 1384   3.838   0.953   3.675  0.0270  0.2579 -0.0793
  488W        W 1385   1.284   5.478   2.382 -0.1793 -0.0479  0.1128
  489W        W 1386   3.103   0.975   2.358  0.1613 -0.2410 -0.3711
  490W        W 1387   6.825   2.152   6.250  0.2940  0.1708  0.3045
  491W        W 1388   1.070   2.420   6.143  0.1986 -0.4016  0.3631
  492W        W 1389   1.803   6.861   0.368 -0.0110 -0.1970 -0.2440
  493W        W 1390   1.798   4.711   3.519 -0.1575  0.1465  0.1442
  494W        W 1391   6.689   4.487   5.544  0.3724 -0.0911  0.2816
  495W        W 1392   6.604   6.506   5.022  0.0406 -0.2348  0.1523
  496W        W 1393   3.282   3.092   6.560  0.1719  0.1129 -0.0650
  497W        W 1394   3.312   7.041   2.423  0.3452 -0.5813 -0.1843
  498W        W 1395   4.311   2.740   7.515  0.3097 -0.1215 -0.1863
  499W        W 1396   2.691   3.059   0.789 -0.0386  0.1144  0.2736
  500W        W 1397   2.638   4.135   3.399  0.2302  0.3225  0.0978
  501W        W 1398   7.364   4.283   6.795 -0.2763  0.1984  0.1139
  502W        W 1399   5.383   0.399   0.518 -0.2176 -0.1577  0.0444
  503W        W 1400   4.697   6.677   1.409  0.2464 -0.1184 -0.1740
  504W        W 1401   5.678   6.010   5.149 -0.2067 -0.0185 -0.0070
  505W        W 1402   7.516   4.409   3.004  0.0936 -0.2884 -0.1040
  506W        W 1403   2.094   5.630   3.499  0.3072 -0.2187 -0.0159
  507W        W 1404   1.256   5.158   6.210 -0.0285  0.2141  0.0009
  508W        W 1405   3.991   6.797   3.711  0.1194 -0.0900  0.2057
  509W        W 1406   5.456   3.911   6.197  0.2529 -0.1170  0.0139
  510W        W 1407   2.219   1.303   0.289  0.2505 -0.0486 -0.1439
  511W        W 1408   3.845   4.882   0.865  0.4426  0.0101 -0.1124
  512W        W 1409   2.582   3.219   2.602 -0.2097  0.2898  0.3935
  513W        W 1410   7.600   4.736   1.809 -0.0585  0.1764 -0.0503
  514W        W 1411   4.769   4.512   1.574  0.1528  0.0348  0.0600
  515W        W 1412   5.691   6.566   5.553  0.1711 -0.1496 -0.0779
  516W        W 1413   2.892   1.682   6.292  0.0866 -0.0405 -0.1716
  517W        W 1414   6.111   7.071   2.888  0.2510 -0.0421  0.0049
  518W        W 1415   4.226   7.601   0.819 -0.0437  0.0887  0.2115
  519W        W 1416   3.741   6.335   4.887 -0.2112 -0.1617 -0.1574
  520W        W 1417   3.794   4.881   5.801 -0.2058  0.2140 -0.0233
  521W        W 1418   3.631   6.234   2.248  0.1477  0.3072  0.2763
  522W        W 1419   4.792   0.474   0.502 -0.0455  0.0940 -0.1253
  523W        W 1420   1.784   7.026   0.896 -0.0767 -0.0898  0.4846
  524W        W 1421   3.137   4.776   3.943  0.3651  0.2968 -0.1547
  525W        W 1422   7.566   1.767   4.743 -0.0625 -0.3547  0.1216
  526W        W 1423   7.490   6.075   0.630 -0.0979  0.1284 -0.1392
  527W        W 1424   6.186   5.992   1.517 -0.0254  0.1373  0.1472
  528W        W 1425   1.904   2.704   3.564 -0.0265  0.0123  0.0443
  529W        W 1426   2.859   1.869   5.243 -0.0405  0.2266 -0.1102
  530W        W 1427   5.738   5.590   2.612 -0.0830 -0.0783 -0.2935
  531W        W 1428   4.544   5.433   5.154 -0.0927  0.2927 -0.1159
  532W        W 1429   1.568   0.626   0.610 -0.1806 -0.0643 -0.0925
  533W        W 1430   7.336   4.485   3.970  0.1808 -0.1194 -0.0594
  534W        W 1431   7.548   4.798   3.566 -0.2029  0.1430  0.0226
  535W        W 1432   7.622   0.294   6.788  0.0015 -0.0087 -0.0796
  536W        W 1433   6.160   5.544   1.723 -0.1038  0.4267  0.0789
  537W        W 1434   2.914   6.489   1.265  0.0253 -0.0437  0.2608
  538W        W 1435   4.470   1.329   0.821 -0.1129 -0.2069 -0.3096
  539W        W 1436   3.505   4.264   1.757 -0.0388  0.2195 -0.3256
  540W        W 1437   7.504   2.561   5.843  0.0021 -0.1620 -0.0520
  541W        W 1438   7.494   4.109   0.092  0.2071  0.0976  0.0801
  542W        W 1439   5.150   0.973   6.177  0.2136 -0.3557 -0.2150
  543W        W 1440   4.219   6.570   1.496  0.0165  0.0389  0.0778
  544W        W 1441   0.060   5.554   7.386 -0.1304  0.1904 -0.1529
  545W        W 1442   0.909   7.000   3.514  0.5004 -0.0061 -0.2117
  546W        W 1443   6.461   7.534   5.628  0.0099  0.1281 -0.0984
  547W        W 1444   2.012   4.497   6.227 -0.1771  0.1387  0.0765
  548W        W 1445   3.270   1.809   3.638  0.1828  0.1923  0.1765
  549W        W 1446   6.656   6.967   7.162 -0.0558 -0.1441 -0.2108
  550W        W 1447   6.741   1.969   3.462  0.0845 -0.0841 -0.2131
  551W        W 1448   1.134   6.502   7.371  0.4756 -0.0761 -0.4031
  552W        W 1449   0.369   2.650   3.330  0.2397 -0.1443 -0.1855
  553W        W 1450   2.750   6.683   2.434  0.4862 -0.0397 -0.2853
  554W        W 1451   5.138   0.356   1.669  0.1662 -0.0007 -0.0412
  555W        W 1452   2.573   2.751   1.221 -0.0498 -0.0755  0.2512
  556W        W 1453   1.206   4.568   6.189 -0.1750 -0.0572  0.1364
  557W        W 1454   3.757   1.721   1.700 -0.5816  0.1250 -0.0332
  558W        W 1455   4.677   3.227   6.868  0.0283 -0.1090 -0.1164
  559W        W 1456   2.986   0.941   1.844 -0.0232 -0.0665  0.2388
  560W        W 1457   1.272   4.475   2.628 -0.1871  0.2522  0.3135
  561W        W 1458   4.964   2.756   1.152 -0.3470  0.2297 -0.1859
  562W        W 1459   4.085   1.506   5.294 -0.0686  0.1229 -0.1644
  563W        W 1460   5.828   1.574   3.348  0.0946  0.0506  0.0683
  564W        W 1461   6.166   7.123   3.418 -0.0934  0.0403  0.0940
  565W        W 1462   7.424   7.466   5.637 -0.2942 -0.2563 -0.2062
  566W        W 1463   3.968   1.611   2.660  0.0434  0.1289  0.0073
  567W        W 1464   3.792   4.377   6.752 -0.1748 -0.2930  0.0327
  568W        W 1465   5.162   4.557   6.191  0.0629 -0.0623  0.1143
  569W        W 1466   2.369   5.856   2.333  0.2063  0.1130 -0.3272
  570W        W 1467   5.228   5.445   0.529 -0.1283  0.3512 -0.0572
  571W        W 1468   1.423   0.193   7.447  0.0481  0.2137 -0.0922
  572W        W 1469   5.376   4.319   5.301 -0.0149 -0.2674  0.0733
  573W        W 1470   6.399   6.311   2.895 -0.1990  0.0635 -0.1877
  574W        W 1471   2.886   1.310   6.651  0.1524  0.0946  0.2252
  575W        W 1472   2.706   2.803   6.734  0.0728  0.1064  0.0772
  576W        W 1473   3.804   6.742   1.366  0.2746 -0.0646  0.3453
  577W        W 1474   3.923   4.656   2.758 -0.0611 -0.1465 -0.2811
  578W        W 1475   2.076   6.665   1.290  0.0446 -0.1499 -0.0516
  579W        W 1476   6.519   5.581   1.381  0.0390 -0.0638 -0.1334
  580W        W 1477   5.949   3.362   7.384  0.2220  0.0655 -0.0106
  581W        W 1478   3.266   4.257   1.303  0.1621 -0.0035 -0.1789
  582W        W 1479   0.219   0.655   3.794  0.4381  0.1326 -0.3429
  583W        W 1480   2.498   3.294   5.427  0.2203  0.0841  0.3516
  584W        W 1481   2.055   0.437   3.094 -0.0340  0.0589 -0.0217
  585W        W 1482   1.642   1.316   3.306  0.0149 -0.0823  0.2423
  586W        W 1483   7.346   6.005   3.185  0.1913  0.2060  0.1835
  587W        W 1484   2.181   1.674   4.415 -0.1717 -0.2977 -0.0259
  588W        W 1485   6.995   4.339   2.517  0.1366  0.1999 -0.1623
  589W        W 1486   1.667   4.444   5.255 -0.0478 -0.1474 -0.1054
  590W        W 1487   2.929   3.489   4.008  0.0748  0.0005 -0.2102
  591W        W 1488   7.234   1.861   1.827 -0.0998 -0.0629  0.0105
  592W        W 1489   3.928   5.089   3.667 -0.4724  0.1934  0.3020
  593W        W 1490   0.480   2.914   5.177 -0.1904  0.0071 -0.1152
  594W        W 1491   2.047   0.410   1.900  0.0033  0.0674 -0.0186
  595W        W 1492   1.951   3.899   0.131  0.0195 -0.0449  0.0483
  596W        W 1493   7.167   7.545   1.110 -0.1534 -0.3832 -0.0990
  597W        W 1494   3.385   2.349   3.517 -0.0341 -0.0433  0.1506
  598W        W 1495   5.673   6.618   6.851 -0.2382 -0.0898 -0.2428
  599W        W 1496   5.716   1.970   2.098 -0.3175  0.2833 -0.1993
  600W        W 1497   4.715   1.065   2.623 -0.2393 -0.3568 -0.0108
  601W        W 1498   5.333   5.191   6.725 -0.0199  0.1800 -0.2037
  602W        W 1499   0.203   1.602   1.693  0.1790  0.0818 -0.2049
  603W        W 1500   6.436   5.066   6.157 -0.1393  0.1305 -0.0290
  604W        W 1501   2.953   2.288   1.159 -0.0911  0.0435 -0.0613
  605W        W 1502   0.433   3.069   4.268  0.2500  0.0806  0.0518
  606W        W 1503   6.440   3.240   1.142  0.2397 -0.1795 -0.1197
  607W        W 1504   4.305   4.699   0.683 -0.3762  0.1708 -0.1930
  608W        W 1505   6.234   6.825   4.862 -0.0245  0.0292  0.0363
  609W        W 1506   4.324   6.400   6.024 -0.0367  0.1157  0.1294
  610W        W 1507   0.568   2.913   1.946 -0.1770  0.2684  0.3470
  611W        W 1508   5.756   0.154   4.667  0.1687 -0.1791  0.0293
  612W        W 1509   7.176   5.959   6.645 -0.0847 -0.2827  0.0180
  613W        W 1510   7.343   1.407   6.295 -0.1768 -0.2477  0.0677
  614W        W 1511   4.867   3.412   7.452 -0.2545 -0.0175  0.0644
  615W        W 1512   3.047   4.329   4.214  0.1637  0.2376  0.0679
  616W        W 1513   7.182   5.558   0.951 -0.2806  0.2706  0.1238
  617W        W 1514   3.272   0.096   1.313 -0.1967 -0.2658 -0.1485
  618W        W 1515   0.644   5.087   0.272  0.0794 -0.0527 -0.0193
  619W        W 1516   2.827   0.045   1.563  0.2670 -0.0418  0.2963
  620W        W 1517   3.811   6.299   3.915  0.1055  0.3004 -0.2639
  621W        W 1518   3.782   6.999   2.609  0.0591  0.0797 -0.2652
  622W        W 1519   1.436   2.041   3.416  0.1821 -0.0712  0.0528
  623W        W 1520   0.315   1.984   2.629  0.1192  0.4320  0.1793
  624W        W 1521   0.912   2.195   3.641  0.2445  0.0273 -0.0067
  625W        W 1522   6.078   5.635   6.576 -0.1069  0.0096 -0.0067
  626W        W 1523   4.716   2.317   1.814 -0.1529 -0.3081  0.1068
  627W        W 1524   0.956   0.730   2.656  0.2411 -0.0617 -0.2753
  628W        W 1525   6.110   2.828   5.803 -0.1165 -0.0301 -0.0633
  629W        W 1526   5.608   4.209   5.756  0.2377 -0.1594  0.2618
  630W        W 1527   6.424   0.050   1.361 -0.1095  0.1355 -0.1202
  631W        W 1528   7.556   1.753   0.915 -0.0308  0.0090 -0.1589
  632W        W 1529   6.232   0.076   3.944 -0.1135 -0.0657  0.4118
  633W        W 1530   7.219   2.477   3.007 -0.2143 -0.1007 -0.0227
  634W        W 1531   1.349   0.176   2.381  0.1195  0.1934  0.1221
  635W        W 1532   3.852   1.176   2.964  0.1464 -0.1838  0.0257
  636W        W 1533   7.611   5.171   3.205  0.0129  0.1448  0.1126
  637W        W 1534   3.712   6.488   2.695  0.0346  0.2096  0.0583
  638W        W 1535   0.621   4.153   2.027  0.0771  0.0434 -0.0702
  639W        W 1536   2.791   4.275   5.515  0.3086  0.1038  0.3058
  640W        W 1537   3.655   2.979   5.732 -0.1069 -0.1092 -0.0401
  641W        W 1538   4.874   6.198   0.170 -0.4798  0.1879  0.2392
  642W        W 1539   5.017   3.493   0.867  0.2040  0.2613 -0.0910
  643W        W 1540   1.671   6.983   1.369  0.0487 -0.1386 -0.2387
  644W        W 1541   5.432   0.994   1.065 -0.0152  0.1015  0.0727
  645W        W 1542   1.163   3.067   2.949  0.3095 -0.1830  0.0849
  646W        W 1543   7.523   2.177   3.259 -0.1432 -0.0133 -0.2546
  647W        W 1544   0.466   0.646   2.712  0.0745  0.1161  0.0274
  648W        W 1545   2.400   3.675   4.041  0.2775 -0.1983 -0.1513
  649W        W 1546   0.548   3.978   1.562  0.0480 -0.2662 -0.0231
  650W        W 1547   4.920   0.402   7.190  0.1765  0.2109 -0.0569
  651W        W 1548   4.676   7.112   0.152  0.0570 -0.2089 -0.1910
  652W        W 1549   5.727   1.287   2.698 -0.2254 -0.3262 -0.2329
  653W        W 1550   5.806   5.972   3.326 -0.1185  0.0632 -0.1313
  654W        W 1551   7.123   7.271   2.364  0.0690 -0.0190 -0.1826
  655W        W 1552   6.810   0.145   0.429  0.3846  0.2271 -0.0884
  656W        W 1553   4.157   6.022   6.976 -0.2229  0.2154  0.3732
  657W        W 1554   4.638   1.857   0.775  0.1855 -0.1323  0.1984
  658W        W 1555   0.708   3.925   2.858  0.0776 -0.0869 -0.0001
  659W        W 1556   6.940   5.406   6.212 -0.2491  0.3174 -0.0949
  660W        W 1557   5.693   1.912   7.356  0.1489 -0.2901  0.1133
  661W        W 1558   3.489   6.795   3.034 -0.0034 -0.0155 -0.0874
  662W        W 1559   1.776   7.548   2.245  0.2874 -0.3630  0.0067
  663W        W 1560   6.854   6.521   7.369  0.0246 -0.0506  0.1906
  664W        W 1561   5.007   4.666   0.137 -0.1169 -0.1847  0.3448
  665W        W 1562   4.384   6.530   0.192 -0.0247 -0.0521  0.1270
  666W        W 1563   4.659   2.105   0.294 -0.2370 -0.0388  0.0907
  667W        W 1564   7.388   5.887   7.227 -0.1197 -0.0357 -0.1218
  668W        W 1565   6.379   3.573   1.648 -0.0985 -0.2752  0.0495
  669W        W 1566   1.138   5.725   0.638 -0.1546  0.0421  0.1781
  670W        W 1567   3.270   4.502   5.700 -0.3295  0.1694  0.2469
  671W        W 1568   2.454   2.750   3.578  0.3313  0.3386 -0.2432
  672W        W 1569   3.041   0.464   0.954  0.0390 -0.2873  0.2012
  673W        W 1570   5.781   1.151   5.439  0.0876 -0.3456  0.1357
  674W        W 1571   2.877   6.595   3.756 -0.0497 -0.1705  0.0712
  675W        W 1572   1.616   4.782   5.978  0.2206  0.2196 -0.0640
  676W        W 1573   0.432   1.998   3.108  0.0774  0.1411  0.2479
  677W        W 1574   3.410   2.732   5.346 -0.1659 -0.3044 -0.1907
  678W        W 1575   4.490   6.010   2.343 -0.0227 -0.1908  0.0034
  679W        W 1576   6.199   3.722   5.279 -0.0344  0.1315 -0.0319
  680W        W 1577   2.086   4.552   4.782 -0.1877 -0.0747 -0.1701
  681W        W 1578   2.701   2.400   7.070 -0.4446 -0.1919  0.0929
  682W        W 1579   0.908   3.450   0.923  0.0078 -0.3747 -0.0091
  683W        W 1580   7.042   3.495   3.968 -0.1327  0.1033  0.1869
  684W        W 1581   2.487   0.228   2.739 -0.0584 -0.4564 -0.3854
  685W        W 1582   3.760   1.163   2.322  0.1622 -0.0823 -0.1049
  686W        W 1583   1.757   2.367   4.004  0.2461  0.0011  0.2998
  687W        W 1584   4.836   2.673   5.964 -0.1293 -0.3401 -0.0480
  688W        W 1585   4.361   0.782   3.592  0.1805 -0.0741 -0.2398
  689W        W 1586   7.183   7.376   6.814 -0.2323  0.1900 -0.0276
  690W        W 1587   2.309   1.204   4.473 -0.0944  0.2355  0.0261
  691W        W 1588   5.251   2.127   2.149 -0.2180 -0.0109  0.1833
  692W        W 1589   3.784   0.431   5.489 -0.0437 -0.1162 -0.0369
  693W        W 1590   6.812   1.747   4.308  0.1659  0.1058 -0.1505
  694W        W 1591   7.476   2.737   3.633  0.3028  0.1709  0.0438
  695W        W 1592   5.178   1.037   4.618 -0.3783  0.2501  0.1481
  696W        W 1593   0.709   7.538   1.123 -0.4428  0.0662 -0.1015
  697W        W 1594   3.783   7.405   0.491  0.2490  0.2061  0.2249
  698W        W 1595   4.713   1.150   2.164  0.2909  0.1654  0.0586
  699W        W 1596   5.579   1.595   2.330  0.1566  0.4647  0.0691
  700W        W 1597   7.534   5.745   0.244  0.0957 -0.1987  0.2607
  701W        W 1598   6.053   5.628   1.196 -0.1156  0.4586  0.0781
  702W        W 1599   1.328   1.680   6.567 -0.2260 -0.1802 -0.1993
  703W        W 1600   0.411   0.092   7.118  0.2623  0.0974 -0.0062
  704W        W 1601   1.522   0.455   1.927  0.0517 -0.2072  0.0148
  705W        W 1602   3.455   4.216   3.205 -0.0297 -0.0467 -0.1859
  706W        W 1603   6.163   4.378   0.574 -0.1047  0.0652  0.1074
  707W        W 1604   6.034   4.847   2.374  0.0484  0.1808  0.1535
  708W        W 1605   1.150   3.928   1.997  0.0644  0.0004 -0.0604
  709W        W 1606   5.400   5.452   4.663 -0.1522  0.0998 -0.0289
  710W        W 1607   6.823   3.376   1.437  0.0722  0.1736 -0.0479
  711W        W 1608   0.285   5.762   6.099  0.0408 -0.0257 -0.1273
  712W        W 1609   3.454   3.661   3.078 -0.1707 -0.3242 -0.0567
  713W        W 1610   2.754   5.219   7.164 -0.2861 -0.1696 -0.0534
  714W        W 1611   4.827   4.144   7.540 -0.0608  0.1452 -0.2168
  715W        W 1612   4.095   1.194   0.504  0.3383 -0.1230 -0.0094
  716W        W 1613   3.871   6.324   1.816 -0.3073  0.1451  0.1359
  717W        W 1614   6.272   6.729   7.424  0.0472 -0.1370  0.2612
  718W        W 1615   5.996   1.697   1.098  0.1255 -0.3362  0.0275
  719W        W 1616   3.676   4.486   5.316 -0.0701 -0.1014  0.1409
  720W        W 1617   5.201   5.146   5.949  0.2010  0.1492 -0.0089
  721W        W 1618   7.175   1.165   1.019 -0.0480  0.1926  0.0093
  722W        W 1619   1.495   2.959   5.459 -0.1734 -0.0919 -0.2052
  723W        W 1620   2.369   5.475   0.440  0.2256  0.0038  0.1291
  724W        W 1621   3.286   1.899   0.939  0.1205  0.1007 -0.3032
  725W        W 1622   2.772   3.485   0.368 -0.1099  0.2555 -0.2245
  726W        W 1623   4.534   5.272   2.706 -0.1747  0.0027  0.0844
  727W        W 1624   1.033   0.223   1.303  0.2293 -0.0769 -0.3370
  728W        W 1625   0.329   3.984   3.444  0.0580  0.0044 -0.0865
  729W        W 1626   6.495   5.905   5.737 -0.2629 -0.0505  0.0330
  730W        W 1627   6.236   5.595   0.571  0.0174 -0.2318  0.2872
  731W        W 1628   3.059   0.619   2.750  0.2093 -0.1003  0.0320
  732W        W 1629   7.072   3.420   7.266 -0.0432  0.2135  0.0530
  733W        W 1630   5.522   6.185   7.126 -0.0302 -0.0113  0.1464
  734W        W 1631   5.366   2.230   5.617  0.0196 -0.2987 -0.1863
  735W        W 1632   3.943   3.936   0.969  0.1548  0.3313  0.2963
  736W        W 1633   4.904   1.626   3.827 -0.0014 -0.0074  0.0750
  737W        W 1634   7.507   0.749   5.891  0.0148 -0.1270  0.0014
  738W        W 1635   4.725   1.864   2.054  0.4808  0.0624  0.0456
  739W        W 1636   1.872   4.466   5.715 -0.0645 -0.1559 -0.0820
  740W        W 1637   5.597   6.496   1.086 -0.0576 -0.0936  0.1050
  741W        W 1638   0.116   2.153   7.592  0.2869  0.0325 -0.4842
  742W        W 1639   5.364   2.098   5.103  0.1573  0.0766 -0.0424
  743W        W 1640   7.114   5.042   1.988  0.1373  0.2249  0.1034
  744W        W 1641   3.978   5.962   6.053 -0.1443  0.0090 -0.0833
  745W        W 1642   4.112   0.945   5.149 -0.1683 -0.1730 -0.1747
  746W        W 1643   4.763   4.348   0.495 -0.2077 -0.0908  0.0824
  747W        W 1644   5.233   7.114   7.037 -0.2730  0.0743 -0.0903
  748W        W 1645   1.921   1.348   0.755 -0.1830  0.1558 -0.0206
  749W        W 1646   3.517   6.969   0.200 -0.2056  0.1637  0.0089
  750W        W 1647   2.616   3.098   1.561 -0.1779  0.1523  0.0138
  751W        W 1648   2.850   3.076   0.045  0.1776  0.1732 -0.0311
  752W        W 1649   0.877   2.668   3.421 -0.1563 -0.0361 -0.1250
  753W        W 1650   5.671   3.552   0.814  0.1098 -0.0222 -0.0923
  754W        W 1651   5.547   7.583   3.523  0.0745  0.0197 -0.3039
  755W        W 1652   1.902   1.930   6.187 -0.1277  0.0968 -0.1814
  756W        W 1653   1.287   4.827   0.866 -0.0580  0.0137  0.0383
  757W        W 1654   7.013   0.094   1.582  0.0605  0.1155 -0.0263
  758W        W 1655   2.977   3.815   6.297  0.0829  0.0635  0.2003
  759W        W 1656   7.531   1.607   2.979  0.2408 -0.1242  0.2365
  760W        W 1657   3.127   5.494   1.297  0.3831 -0.3869  0.0184
  761W        W 1658   6.124   7.368   7.013 -0.3619 -0.1040  0.1060
  762W        W 1659   5.806   4.460   7.238 -0.0393 -0.0216 -0.0112
  763W        W 1660   2.426   4.834   7.125  0.3960 -0.0991  0.2331
  764W        W 1661   4.465   1.012   6.405 -0.1359 -0.0220  0.0063
  765W        W 1662   0.803   5.379   5.779  0.0268 -0.1069  0.2169
  766W        W 1663   4.343   5.619   5.986  0.0441  0.1947 -0.1874
  767W        W 1664   6.452   4.175   5.220  0.1307 -0.0978  0.1175
  768W        W 1665   3.044   4.160   0.821  0.0650  0.1770 -0.2671
  769W        W 1666   5.984   1.526   7.427 -0.1505  0.0646 -0.1409
  770W        W 1667   3.328   6.516   0.219  0.1828 -0.1129 -0.0140
  771W        W 1668   4.856   3.039   6.396  0.1079  0.0240  0.1506
  772W        W 1669   4.320   4.238   0.192 -0.0029 -0.1674  0.2374
  773W        W 1670   2.332   4.654   6.624 -0.1900  0.1497 -0.0628
  774W        W 1671   3.875   4.105   5.152 -0.0591  0.0236 -0.2971
  775W        W 1672   7.182   6.170   6.208 -0.0935 -0.1838  0.0656
  776W        W 1673   0.227   1.085   2.857 -0.1990 -0.2359 -0.0491
  777W        W 1674   4.167   5.290   0.823  0.2914  0.0315  0.1761
  778W        W 1675   3.108   0.907   0.342  0.0374  0.1174  0.1778
  779W        W 1676   5.410   3.092   1.067 -0.2199 -0.0674  0.0641
  780W        W 1677   4.072   0.037   7.291 -0.0575 -0.2267 -0.2702
  781W        W 1678   2.834   1.264   4.405  0.1118  0.0049  0.0954
  782W        W 1679   0.567   7.094   3.128  0.1302 -0.0706  0.1571
  783W        W 1680   1.771   2.094   1.895 -0.0990  0.0293  0.2724
  784W        W 1681   3.323   5.342   0.131 -0.0521 -0.0189  0.4520
  785W        W 1682   2.758   1.931   3.838 -0.0188  0.0186  0.4086
  786W        W 1683   5.623   2.575   1.844  0.0579  0.0485 -0.1507
  787W        W 1684   6.410   4.010   0.140  0.0249 -0.2097  0.0198
  788W        W 1685   0.293   3.019   2.791  0.1398 -0.0858  0.0247
  789W        W 1686   5.631   4.087   0.027 -0.1311 -0.1269  0.0738
  790W        W 1687   7.189   1.788   2.691  0.3923 -0.0941  0.3058
  791W        W 1688   2.290   3.862   6.411 -0.0884 -0.1903 -0.1512
  792W        W 1689   5.096   6.313   6.648  0.3039 -0.1041 -0.3310
  793W        W 1690   5.322   1.664   2.792  0.1990  0.0138  0.0602
  794W        W 1691   2.333   2.839   0.268 -0.2823  0.1285  0.0811
  795W        W 1692   0.440   6.052   3.260 -0.0110 -0.2466 -0.0196
  796W        W 1693   2.933   7.623   0.845  0.1297 -0.1309 -0.1123
  797W        W 1694   6.223   1.359   0.820  0.0050  0.0296  0.1884
  798W        W 1695   4.822   1.715   4.278  0.0685 -0.1655 -0.2610
  799W        W 1696   6.531   1.836   6.562 -0.0036  0.1405 -0.2521
  800W        W 1697   5.621   2.489   2.441  0.2966  0.0055 -0.0835
  801W        W 1698   3.716   7.038   4.035 -0.2309 -0.3041 -0.0373
  802W        W 1699   5.586   0.430   3.350  0.0755 -0.3562 -0.2403
  803W        W 1700   3.019   4.977   4.831  0.1574  0.0600  0.2192
  804W        W 1701   3.030   5.731   7.440 -0.1539 -0.0756 -0.0128
  805W        W 1702   2.103   3.183   5.896 -0.0322 -0.0539 -0.2398
  806W        W 1703   1.395   3.611   2.813 -0.1001  0.1827 -0.3340
  807W        W 1704   4.015   5.867   2.185 -0.0905  0.0177 -0.2702
  808W        W 1705   6.083   0.381   4.312  0.0140  0.0451  0.0688
  809W        W 1706   6.789   2.825   1.047  0.1622 -0.1428 -0.0644
  810W        W 1707   4.906   4.040   5.399  0.0950  0.0778  0.1369
  811W        W 1708   4.777   6.591   0.534 -0.3937  0.0006  0.0087
  812W        W 1709   0.522   5.987   1.866 -0.2621 -0.0864 -0.0549
  813W        W 1710   5.143   1.455   1.477  0.0945 -0.1185 -0.1626
  814W        W 1711   0.626   1.306   5.938 -0.0229 -0.1334  0.0003
  815W        W 1712   1.521   1.858   7.607 -0.2091  0.0502  0.0866
  816W        W 1713   1.051   5.234   3.128 -0.0169  0.1028  0.2317
  817W        W 1714   3.609   5.192   0.491  0.1361  0.1247 -0.1409
  818W        W 1715   4.599   6.269   6.770 -0.4335  0.0269  0.1403
  819W        W 1716   6.052   5.538   0.010  0.0156  0.2825  0.0280
  820W        W 1717   0.138   6.380   0.959  0.1489 -0.1299  0.0258
  821W        W 1718   5.919   3.083   1.183  0.4027  0.1409 -0.0838
  822W        W 1719   6.824   3.665   6.806  0.3152 -0.2796 -0.1760
  823W        W 1720   5.646   6.029   5.625  0.0799 -0.0454 -0.2158
  824W        W 1721   2.993   7.295   1.265 -0.0122 -0.4039 -0.2268
  825W        W 1722   0.029   2.962   4.995  0.1097  0.3138  0.1201
  826W        W 1723   7.333   2.276   5.400  0.1650  0.0374 -0.1531
  827W        W 1724   3.572   1.150   0.426  0.1346  0.3228  0.1269
  828W        W 1725   0.930   7.328   2.642 -0.2910  0.1316  0.0150
  829W        W 1726   1.281   3.184   5.063  0.1450  0.0938 -0.1240
  830W        W 1727   6.245   5.108   0.459 -0.0449  0.1003 -0.2181
  831W        W 1728   6.520   6.076   4.734 -0.0591  0.2586  0.2264
  832W        W 1729   6.843   2.700   6.325 -0.0259  0.0139  0.1280
  833W        W 1730   5.023   6.156   3.135 -0.0470 -0.4301 -0.2221
  834W        W 1731   5.044   1.502   5.834 -0.0406  0.1327 -0.1491
  835W        W 1732   2.489   1.647   2.178  0.0257  0.3046  0.1168
  836W        W 1733   6.272   0.211   6.944 -0.1972  0.2279 -0.0358
  837W        W 1734   4.259   7.238   5.576 -0.1457  0.2111 -0.4365
  838W        W 1735   4.026   0.184   4.435 -0.2754 -0.0106  0.3272
  839W        W 1736   7.078   3.108   4.964 -0.0191  0.1861  0.1706
  840W        W 1737   1.276   1.603   0.386 -0.0538 -0.2298 -0.1311
  841W        W 1738   2.673   6.006   0.105  0.0448 -0.1807 -0.1552
  842W        W 1739   6.096   3.360   0.728  0.0408 -0.0641  0.2173
  843W        W 1740   0.737   1.420   6.913  0.1569  0.2450  0.0773
  844W        W 1741   7.287   6.385   7.082 -0.2694 -0.0565  0.0649
  845W        W 1742   6.088   2.269   7.208 -0.0322 -0.2727  0.0622
  846W        W 1743   3.287   2.383   1.883  0.2375 -0.0635 -0.0018
  847W        W 1744   3.539   6.577   4.321 -0.2958  0.0216 -0.0645
  848W        W 1745   5.909   7.369   3.793  0.2094  0.1611  0.0306
  849W        W 1746   7.588   0.674   2.635  0.1324  0.1328 -0.0403
  850W        W 1747   4.904   7.564   7.465  0.1452  0.0071  0.0671
  851W        W 1748   7.247   7.545   0.576 -0.1056  0.0633  0.0942
  852W        W 1749   2.341   4.249   0.137  0.1561 -0.1201  0.1793
  853W        W 1750   1.608   4.797   1.385 -0.2265 -0.0342 -0.1851
  854W        W 1751   5.004   6.304   2.672 -0.2293 -0.1274 -0.0272
  855W        W 1752   0.049   6.983   3.070 -0.1620  0.0789 -0.0581
  856W        W 1753   1.383   3.997   5.086 -0.2008  0.0025 -0.3410
  857W        W 1754   6.060   7.426   5.282  0.2160 -0.0273 -0.1777
  858W        W 1755   0.268   3.110   3.292  0.0690  0.0319  0.1520
  859W        W 1756   7.321   3.121   0.077 -0.3657  0.0512  0.3313
  860W        W 1757   7.064   2.865   3.264  0.2080 -0.0693 -0.2084
  861W        W 1758   1.110   0.152   2.996 -0.0560  0.4442 -0.2464
  862W        W 1759   6.404   3.916   5.695  0.1152  0.1148 -0.1298
  863W        W 1760   5.886   6.835   3.807  0.0802  0.0614 -0.0975
  864W        W 1761   5.834   4.856   0.620 -0.2477  0.6145  0.2270
  865W        W 1762   3.784   5.044   5.312 -0.0168  0.1490 -0.3955
  866W        W 1763   3.736   2.155   2.042 -0.1791  0.0768  0.2007
  867W        W 1764   3.480   0.726   4.491  0.0999 -0.0783 -0.2218
  868W        W 1765   0.519   2.460   6.436  0.0488  0.1264 -0.2280
  869W        W 1766   4.206   0.748   6.716 -0.1169 -0.2393  0.3878
  870W        W 1767   1.968   5.148   2.864  0.0881  0.1076 -0.0537
  871W        W 1768   7.482   0.836   4.048  0.0379  0.0130  0.0967
  872W        W 1769   3.623   4.042   5.578 -0.0257  0.1001  0.0357
  873W        W 1770   6.714   1.568   6.094  0.2835  0.1398  0.1943
  874W        W 1771   4.618   6.995   4.239  0.2611 -0.2235 -0.0282
  875W        W 1772   6.155   2.600   6.790  0.3482  0.2804  0.2521
  876W        W 1773   0.523   0.329   7.579  0.1236 -0.1730  0.2290
  877W        W 1774   5.801   5.630   7.168 -0.4947 -0.1690  0.0486
  878W        W 1775   2.533   3.610   1.587  0.0917  0.0376  0.0561
  879W        W 1776   1.043   0.104   4.309  0.4182 -0.0260  0.0084
  880W        W 1777   6.506   5.896   6.801 -0.1031 -0.1182  0.1652
  881W        W 1778   1.039   3.798   1.507  0.0836  0.3747  0.0698
  882W        W 1779   0.459   1.483   5.486 -0.3296  0.1405  0.0533
  883W        W 1780   0.097   1.139   0.753  0.1995  0.5129 -0.0768
  884W        W 1781   3.695   6.394   6.981 -0.1237 -0.2237  0.0819
  885W        W 1782   5.011   0.090   6.376  0.2500  0.0854  0.3556
  886W        W 1783   2.142   2.470   1.038  0.0080  0.0310  0.0335
  887W        W 1784   1.782   5.070   0.992 -0.2419 -0.1756  0.1038
  888W        W 1785   6.103   3.245   6.040  0.2714  0.3472 -0.1392
  889W        W 1786   0.026   3.260   1.900 -0.0766 -0.1069 -0.2956
  890W        W 1787   2.196   3.244   1.859  0.2308  0.0632  0.0515
  891W        W 1788   5.628   5.808   1.338 -0.0891  0.0377 -0.0100
  892W        W 1789   0.251   0.270   2.446 -0.0755  0.1382  0.0047
  893W        W 1790   3.848   3.316   6.082  0.0784  0.0767  0.2152
  894W        W 1791   0.168   2.797   6.246  0.1408  0.0254 -0.0960
  895W        W 1792   3.747   7.262   3.007 -0.0973 -0.2595 -0.0571
  896W        W 1793   6.386   4.170   1.628 -0.2319 -0.0408  0.1948
  897W        W 1794   0.230   6.243   7.104 -0.0504  0.0309 -0.0728
  898W        W 1795   0.460   3.669   5.154  0.3417  0.2352 -0.1505
  899W        W 1796   3.525   1.864   2.915  0.0994 -0.1833  0.0640
  900W        W 1797   3.285   1.667   5.389  0.0986  0.1523  0.2355
  901W        W 1798   6.827   6.945   4.892 -0.0354 -0.1222 -0.1535
  902W        W 1799   4.067   1.713   3.116  0.0510 -0.0652 -0.3935
  903W        W 1800   3.028   2.691   0.850 -0.0654 -0.2114 -0.2197
  904W        W 1801   3.922   2.849   0.451  0.1825 -0.1567 -0.0144
  905W        W 1802   7.424   2.470   0.279  0.2886 -0.3057 -0.1634
  906W        W 1803   5.466   6.810   3.557  0.1245  0.1390  0.3421
  907W        W 1804   2.463   1.537   6.668  0.0959  0.2613  0.1552
  908W        W 1805   4.663   3.605   1.217 -0.0638 -0.2174  0.2834
  909W        W 1806   2.459   1.643   6.032  0.0407  0.0880  0.0947
  910W        W 1807   4.765   4.755   5.944 -0.1337 -0.0049 -0.0063
  911W        W 1808   0.521   3.051   6.568 -0.0489 -0.4579  0.0783
  912W        W 1809   0.370   1.674   7.492 -0.0060 -0.1079 -0.0508
  913W        W 1810   2.942   3.973   7.231  0.1049 -0.2289  0.1403
  914W        W 1811   2.166   4.602   5.348  0.0977  0.2466 -0.2178
  915W        W 1812   4.406   7.127   3.783  0.0881  0.3393 -0.0730
  916W        W 1813   1.614   0.331   3.270  0.0546  0.0554  0.0305
  917W        W 1814   2.337   3.212   4.900  0.5511 -0.4260 -0.1832
  918W        W 1815   6.805   5.330   4.902  0.1635  0.1301  0.0782
  919W        W 1816   4.212   4.527   6.028  0.0579 -0.0751 -0.0777
  920W        W 1817   3.558   3.167   0.215 -0.2044 -0.1113 -0.3249
  921W        W 1818   6.864   5.305   0.468 -0.1985 -0.0206 -0.1811
  922W        W 1819   2.922   5.252   2.496  0.2515 -0.2371  0.2782
  923W        W 1820   7.367   6.364   2.635  0.3766 -0.0243 -0.2481
  924W        W 1821   6.062   4.082   2.013 -0.3226 -0.2580 -0.1067
  925W        W 1822   0.532   4.962   2.417  0.1996  0.1993 -0.3252
  926W        W 1823   0.685   1.979   5.520  0.0276  0.2761  0.0279
  927W        W 1824   0.770   3.130   3.903 -0.2143  0.0843 -0.0333
  928W        W 1825   5.037   1.331   0.799 -0.1393 -0.1250 -0.1771
  929W        W 1826   4.335   0.438   7.140  0.4102 -0.0034  0.5075
  930W        W 1827   7.361   1.451   0.594  0.0202  0.0776 -0.0442
  931W        W 1828   0.798   3.619   7.012 -0.2308 -0.0993 -0.2037
  932W        W 1829   1.808   3.166   3.802 -0.0389 -0.2529  0.1218
  933W        W 1830   5.195   5.683   4.261  0.1368 -0.0505  0.1138
  934W        W 1831   5.831   2.170   1.603 -0.0109  0.1564 -0.0344
  935W        W 1832   3.125   3.019   4.150  0.1344  0.2572 -0.0423
  936W        W 1833   5.651   5.171   5.839  0.0348  0.0525  0.0561
  937W        W 1834   6.062   2.349   2.180 -0.0111  0.0696 -0.0109
  938W        W 1835   0.135   2.142   6.220 -0.1231 -0.2620 -0.2183
  939W        W 1836   2.106   6.663   0.749  0.0211 -0.1370 -0.1845
  940W        W 1837   7.063   0.571   2.485  0.1064 -0.2455 -0.1060
  941W        W 1838   1.703   2.731   2.766  0.1553  0.0582 -0.0065
  942W        W 1839   6.573   3.417   2.501 -0.0096  0.0770  0.0481
  943W        W 1840   4.828   1.379   5.402 -0.2996  0.0133  0.0439
  944W        W 1841   1.670   3.982   0.515  0.0071 -0.3070  0.0278
  945W        W 1842   5.497   2.759   0.283  0.1911 -0.1040  0.0479
  946W        W 1843   2.745   1.962   6.680  0.0790  0.0593 -0.2639
  947W        W 1844   4.054   7.195   4.411  0.1412 -0.0119 -0.3468
  948W        W 1845   6.548   4.450   1.155  0.0708 -0.1926  0.3819
  949W        W 1846   4.456   7.522   6.548  0.1247  0.0174  0.1571
  950W        W 1847   6.278   4.958   6.667  0.3276  0.1073  0.0234
  951W        W 1848   4.677   0.877   4.428  0.1123 -0.0234 -0.1002
  952W        W 1849   6.619   0.679   6.206  0.1646 -0.1846 -0.0444
  953W        W 1850   3.028   4.731   3.086 -0.1265 -0.1319  0.0078
  954W        W 1851   5.568   0.355   0.967  0.1326 -0.0417  0.0437
  955W        W 1852   2.263   7.570   3.079 -0.2351 -0.1031 -0.0661
  956W        W 1853   6.576   6.755   6.430  0.2709 -0.1425 -0.1221
  957W        W 1854   0.747   0.444   3.114 -0.2417  0.0732  0.2867
  958W        W 1855   6.269   5.262   0.966 -0.7588 -0.0171 -0.1845
  959W        W 1856   4.899   5.887   6.427 -0.1067 -0.3045  0.2194
  960W        W 1857   0.499   2.440   5.435  0.1616 -0.1021 -0.0464
  961W        W 1858   2.401   2.445   1.955 -0.0736 -0.0615  0.1409
  962W        W 1859   0.179   5.893   0.966 -0.0901 -0.0969 -0.1457
  963W        W 1860   5.777   7.075   5.774 -0.0721 -0.0209  0.0949
  964W        W 1861   0.293   0.654   0.774 -0.1241 -0.3012  0.1151
  965W        W 1862   1.550   2.350   6.271 -0.3650 -0.0247  0.2546
  966W        W 1863   4.128   1.850   5.702 -0.0841  0.0372  0.0538
  967W        W 1864   2.870   6.354   1.722 -0.0290  0.1748  0.0472
  968W        W 1865   6.455   7.306   6.593  0.0204  0.0037 -0.0535
  969W        W 1866   1.415   4.093   1.557  0.0166 -0.0363 -0.4363
  970W        W 1867   7.126   0.297   6.746  0.2954 -0.2519 -0.3759
  971W        W 1868   2.426   2.419   6.636  0.1207 -0.0548 -0.2607
  972W        W 1869   2.445   1.722   0.201  0.1242 -0.0751 -0.0318
  973W        W 1870   1.220   2.080   5.649 -0.1778  0.0985  0.1153
  974W        W 1871   2.620   6.975   1.173  0.2560 -0.2672  0.0243
  975W        W 1872   3.994   6.855   6.858 -0.0926  0.0173  0.2546
  976W        W 1873   6.021   3.837   7.581 -0.0191  0.1278  0.3292
  977W        W 1874   1.129   6.307   1.800 -0.4051 -0.0033  0.0307
  978W        W 1875   1.547   6.923   2.900 -0.0858 -0.2796 -0.0346
  979W        W 1876   6.439   4.310   3.966  0.2794  0.0283  0.0903
  980W        W 1877   6.000   1.300   5.855  0.0598  0.0974  0.0923
  981W        W 1878   1.192   3.030   3.613  0.1959 -0.3420  0.1334
  982W        W 1879   5.048   4.139   5.910  0.2550  0.0063  0.1046
  983W        W 1880   1.939   3.573   3.489  0.2683 -0.1993 -0.2720
  984W        W 1881   6.776   6.241   6.559 -0.0762 -0.1731 -0.0295
  985W        W 1882   5.372   6.752   4.034 -0.3063  0.1515  0.4178
  986W        W 1883   3.569   5.042   1.920  0.1386 -0.1355  0.0048
  987W        W 1884   1.644   4.048   1.967  0.1393  0.1991 -0.0144
  988W        W 1885   3.095   6.899   0.433 -0.0496 -0.0614 -0.0605
  989W        W 1886   3.790   2.441   0.168 -0.3437 -0.0455  0.3017
  990W        W 1887   0.843   6.060   1.454 -0.0758  0.4474 -0.2830
  991W        W 1888   5.242   5.915   2.462  0.0335 -0.0874 -0.2079
  992W        W 1889   5.693   5.723   6.213 -0.2319  0.1382 -0.0711
  993W        W 1890   7.084   3.806   5.079  0.0208 -0.0837 -0.0438
  994W        W 1891   6.269   1.914   5.410  0.3071  0.1271  0.1878
  995W        W 1892   6.686   5.055   4.043  0.0919 -0.2862 -0.2881
  996W        W 1893   1.575   3.172   5.958  0.0791 -0.1768  0.0949
  997W        W 1894   1.865   6.155   2.283  0.0407 -0.0527 -0.0365
  998W        W 1895   4.955   0.557   1.035 -0.0548 -0.1652 -0.0805
  999W        W 1896   2.373   1.963   1.811 -0.1581  0.0262 -0.3013
 1000W        W 1897   7.295   3.347   1.577  0.1217  0.4484 -0.0558
 1001W        W 1898   5.557   4.260   6.530 -0.0988 -0.0527  0.0336
 1002W        W 1899   0.721   2.921   1.126  0.1310 -0.1101  0.1371
 1003W        W 1900   2.022   2.090   5.320  0.0027  0.1672 -0.1247
 1004W        W 1901   3.125   4.478   7.452  0.0673  0.0231  0.2938
 1005W        W 1902   4.085   0.407   3.849 -0.3743 -0.2477  0.1101
 1006W        W 1903   2.086   3.091   3.298 -0.1732 -0.0857 -0.0194
 1007W        W 1904   6.658   4.851   5.135  0.0453  0.0565 -0.0522
 1008W        W 1905   6.177   2.734   0.923  0.0365 -0.2987  0.0779
 1009W        W 1906   3.383   7.210   0.812 -0.0074 -0.4091 -0.0287
 1010W        W 1907   7.512   3.062   5.890  0.3019 -0.1193 -0.2256
 1011W        W 1908   0.790   3.939   1.102 -0.2020 -0.2986  0.2302
 1012W        W 1909   3.066   6.408   0.727  0.2662 -0.0487  0.0416
 1013W        W 1910   1.925   0.406   1.136 -0.1270 -0.2498 -0.1015
 1014W        W 1911   0.959   1.150   0.230 -0.2781  0.0355 -0.1906
 1015W        W 1912   4.004   4.910   0.287  0.2085  0.2115 -0.2402
 1016W        W 1913   0.670   6.578   3.289 -0.1102  0.3429  0.3292
 1017W        W 1914   3.460   3.501   4.317  0.0194  0.0735  0.1063
 1018W        W 1915   1.740   5.015   1.870  0.0891  0.0721 -0.0631
 1019W        W 1916   0.991   3.451   6.063  0.0763  0.0949  0.2607
 1020W        W 1917   0.422   3.247   0.942  0.0195 -0.3484  0.0469
 1021W        W 1918   3.498   0.559   1.060  0.0534 -0.0640 -0.0564
 1022W        W 1919   5.797   6.412   1.577  0.2714 -0.1347 -0.1144
 1023W        W 1920   1.491   2.846   4.089  0.0906 -0.2575  0.2984
 1024W        W 1921   0.619   3.733   2.339  0.1130  0.2684 -0.1108
 1025W        W 1922   4.297   3.870   5.465 -0.0508  0.1287  0.2629
 1026W        W 1923   3.206   2.370   4.466  0.0777  0.0819 -0.0573
 1027W        W 1924   0.989   4.948   2.581  0.1898  0.0751 -0.0859
 1028W        W 1925   6.258   4.672   1.484 -0.0628  0.1115 -0.0652
 1029W        W 1926   3.317   3.941   2.215  0.2038 -0.0576  0.0649
 1030W        W 1927   0.614   5.309   7.368  0.1531 -0.2096  0.3274
 1031W        W 1928   5.090   1.882   0.100 -0.0553 -0.1747  0.1638
 1032W        W 1929   2.310   5.312   6.948 -0.0447  0.1311 -0.0640
 1033W        W 1930   0.224   0.192   0.344 -0.0326  0.0716 -0.2815
 1034W        W 1931   0.949   1.522   2.137 -0.2150 -0.0300 -0.0969
 1035W        W 1932   2.135   4.087   4.509 -0.1039 -0.1581 -0.2543
 1036W        W 1933   7.012   4.087   5.486 -0.1465  0.0324  0.2086
 1037W        W 1934   2.823   2.075   4.760  0.0624 -0.4581  0.0628
 1038W        W 1935   2.876   2.070   2.148 -0.0210  0.0647  0.0137
 1039W        W 1936   6.909   2.769   0.526  0.1487 -0.3821 -0.1792
 1040W        W 1937   3.874   1.405   7.346  0.2801 -0.1509  0.2526
 1041W        W 1938   5.740   6.419   4.141  0.5448  0.0749  0.1428
 1042W        W 1939   5.465   3.633   0.304  0.3519 -0.0155  0.1167
 1043W        W 1940   7.308   0.810   0.634  0.1863 -0.0716  0.1029
 1044W        W 1941   0.771   4.582   3.703 -0.0975 -0.0058 -0.1853
 1045W        W 1942   0.190   1.673   6.328  0.0143 -0.0689 -0.1690
 1046W        W 1943   5.551   1.465   5.883 -0.0103  0.0506 -0.1997
 1047W        W 1944   2.511   3.365   1.069  0.0501 -0.0335  0.0171
 1048W        W 1945   5.419   3.015   1.592  0.0917  0.0274 -0.1972
 1049W        W 1946   5.911   3.805   5.906 -0.1581  0.1013 -0.1772
 1050W        W 1947   0.465   1.818   2.105  0.0546 -0.3006  0.0070
 1051W        W 1948   5.861   5.168   7.391  0.2566 -0.1355  0.1456
 1052W        W 1949   1.356   3.842   3.394  0.0799 -0.0502  0.0190
 1053W        W 1950   2.516   0.260   0.505 -0.0364 -0.3907 -0.1269
 1054W        W 1951   7.307   0.377   0.366  0.0182  0.1255 -0.1238
 1055W        W 1952   1.032   5.043   7.479 -0.2071  0.1075 -0.0120
 1056W        W 1953   3.807   6.511   0.313  0.1904 -0.0524  0.0568
 1057W        W 1954   1.111   4.001   2.522  0.1391  0.2038  0.2708
 1058W        W 1955   4.734   7.289   1.991  0.1126  0.1257  0.0483
 1059W        W 1956   3.040   5.043   2.039 -0.2016  0.3510  0.2091
 1060W        W 1957   3.499   5.746   2.243  0.1949  0.2071  0.2002
 1061W        W 1958   1.833   3.095   0.124  0.0375 -0.0915  0.1833
 1062W        W 1959   0.412   5.448   5.246  0.2522 -0.2461  0.1761
 1063W        W 1960   7.232   7.128   3.313  0.0239  0.0895  0.1561
 1064W        W 1961   1.452   4.970   7.185  0.0847  0.0168 -0.1840
 1065W        W 1962   6.658   4.184   2.042  0.1494 -0.0885 -0.1441
 1066W        W 1963   1.071   6.782   1.932 -0.0843 -0.2354  0.2253
 1067W        W 1964   0.357   1.844   3.960 -0.0715 -0.1744 -0.0006
 1068W        W 1965   4.776   2.335   1.297 -0.1128 -0.1554 -0.2778
 1069W        W 1966   5.927   2.690   5.371 -0.3435 -0.0976 -0.2484
 1070W        W 1967   7.157   6.471   5.720  0.1073  0.2890  0.0834
 1071W        W 1968   3.460   6.203   7.450 -0.1651  0.2089 -0.3120
 1072W        W 1969   5.340   7.484   4.515  0.1192 -0.0976 -0.0312
 1073W        W 1970   6.514   5.761   3.951  0.0208  0.2776 -0.0798
 1074W        W 1971   3.943   4.979   4.529 -0.1717  0.2123 -0.3382
 1075W        W 1972   6.716   2.280   7.510  0.3341 -0.2131  0.0334
 1076W        W 1973   2.186   3.020   2.825  0.0213  0.1213 -0.0575
 1077W        W 1974   6.395   2.896   7.524 -0.1135 -0.0427  0.2419
 1078W        W 1975   7.187   5.665   4.922  0.2088  0.1365  0.1155
 1079W        W 1976   5.152   3.161   6.812 -0.3479  0.2333  0.0502
 1080W        W 1977   1.121   4.957   3.572 -0.0674  0.3948  0.0345
 1081W        W 1978   3.148   5.989   0.328 -0.0916  0.2898  0.1723
 1082W        W 1979   2.086   5.046   6.433  0.2061  0.2329 -0.3202
 1083W        W 1980   0.023   4.978   2.222  0.0305 -0.1723 -0.0322
 1084W        W 1981   5.510   6.729   1.793 -0.1508  0.2592  0.1135
 1085W        W 1982   0.567   7.147   6.988  0.4044 -0.1773  0.0570
 1086W        W 1983   1.002   3.555   3.707 -0.1011  0.1468  0.0853
 1087W        W 1984   1.370   1.655   4.738  0.2609 -0.0335  0.2800
 1088W        W 1985   0.507   4.813   7.167 -0.1892 -0.0876 -0.1013
 1089W        W 1986   2.832   5.002   3.507  0.0603  0.0317  0.1165
 1090W        W 1987   6.766   3.610   0.914 -0.0509  0.0895  0.2298
 1091W        W 1988   0.816   1.720   2.574 -0.0828  0.1093 -0.4565
 1092W        W 1989   7.203   4.804   4.342 -0.1921  0.0183  0.0713
 1093W        W 1990   5.966   5.128   5.392  0.2174  0.2185 -0.1336
 1094W        W 1991   2.242   6.395   0.342  0.0784  0.1273 -0.1886
 1095W        W 1992   1.024   2.869   5.300 -0.0136 -0.0034  0.0045
 1096W        W 1993   1.154   5.496   3.596 -0.1239 -0.1412  0.0659
 1097W        W 1994   6.366   5.044   7.459 -0.2371  0.1781 -0.0675
 1098W        W 1995   0.383   1.223   6.358 -0.1260 -0.1727  0.1698
 1099W        W 1996   2.827   3.097   3.605  0.4030  0.0728  0.2678
 1100W        W 1997   3.279   6.270   3.515  0.0580 -0.0702  0.3013
 1101W        W 1998   4.629   1.771   5.837 -0.0968  0.0366 -0.0427
 1102W        W 1999   2.658   3.643   3.611  0.4785  0.0331  0.1325
 1103W        W 2000   2.660   2.805   2.870  0.1308 -0.1646 -0.1205
 1104W        W 2001   2.451   6.854   0.337 -0.0724 -0.1851 -0.0111
 1105W        W 2002   3.457   3.204   2.938 -0.3867  0.1653  0.3991
 1106W        W 2003   5.020   7.116   0.525  0.3434 -0.0692 -0.1601
 1107W        W 2004   1.628   3.572   4.993  0.0829 -0.1149 -0.1247
 1108W        W 2005   1.116   2.837   7.095 -0.0350 -0.1361 -0.0266
 1109W        W 2006   3.681   0.266   0.287  0.1167  0.1207 -0.0928
 1110W        W 2007   5.298   6.799   6.613 -0.0877  0.0383  0.0408
 1111W        W 2008   5.596   6.180   6.535  0.3386 -0.1273  0.1766
 1112W        W 2009   4.903   1.524   2.953 -0.2134  0.0479  0.0040
 1113W        W 2010   5.951   3.893   6.758 -0.0489  0.0317 -0.6067
 1114W        W 2011   7.563   1.177   0.256 -0.1275  0.2329  0.3199
 1115W        W 2012   2.313   3.545   2.848  0.1225  0.2510  0.1715
 1116W        W 2013   3.527   0.455   1.599  0.0739  0.4508 -0.1802
 1117W        W 2014   1.269   4.010   1.078  0.0752  0.0062 -0.0370
 1118W        W 2015   7.243   7.335   2.827 -0.3326  0.0976 -0.0858
 1119W        W 2016   1.027   1.616   7.475  0.0783  0.1818  0.0061
 1120W        W 2017   5.866   0.825   1.025  0.0627  0.1993 -0.1536
 1121W        W 2018   5.215   3.809   7.505 -0.0975 -0.0265 -0.1965
 1122W        W 2019   3.400   3.267   1.088  0.0502  0.0949 -0.1056
 1123W        W 2020   0.212   6.855   0.745 -0.0775 -0.0514 -0.0420
 1124W        W 2021   6.445   6.259   7.318 -0.0518 -0.0748 -0.2629
 1125W        W 2022   7.032   6.252   0.448  0.4693 -0.0747 -0.0039
 1126W        W 2023   4.302   5.909   3.575  0.2678  0.0065 -0.0219
 1127W        W 2024   6.813   3.006   7.283 -0.1445  0.2237 -0.2519
 1128W        W 2025   1.603   2.099   4.383 -0.2761  0.0287 -0.4721
 1129W        W 2026   2.127   4.170   0.710  0.2631  0.4450  0.2612
 1130W        W 2027   4.116   0.532   7.585 -0.3695 -0.1553  0.1237
 1131W        W 2028   0.812   7.074   1.057 -0.2408  0.0755 -0.0070
 1132W        W 2029   6.549   4.891   0.798 -0.3165 -0.0309  0.3176
 1133W        W 2030   1.495   3.348   3.320 -0.0052 -0.1801  0.0874
 1134W        W 2031   2.760   1.827   0.882  0.0516 -0.0142 -0.0944
 1135W        W 2032   6.713   5.125   7.010  0.0823 -0.2822 -0.0504
 1136W        W 2033   0.613   2.230   0.315  0.0212  0.2366 -0.1309
 1137W        W 2034   2.463   1.673   5.495 -0.0493  0.1269  0.0768
 1138W        W 2035   5.164   4.453   0.788  0.0478 -0.1561  0.2544
 1139W        W 2036   1.822   3.128   4.417  0.0343 -0.2942  0.0376
 1140W        W 2037   4.103   6.435   6.623 -0.1235 -0.1482  0.1929
 1141W        W 2038   3.148   3.972   3.499  0.1157  0.0803 -0.2369
 1142W        W 2039   4.337   1.833   6.321  0.0387  0.1666  0.1792
 1143W        W 2040   5.762   6.759   0.064 -0.0035 -0.0451 -0.4198
 1144W        W 2041   3.648   3.509   1.456  0.1182  0.1393 -0.2468
 1145W        W 2042   2.176   2.081   3.046  0.0434  0.1888  0.0512
 1146W        W 2043   7.307   6.278   5.263  0.1729 -0.1842  0.2054
 1147W        W 2044   7.274   2.133   1.123  0.0850 -0.1793 -0.0377
 1148W        W 2045   2.767   5.203   0.625  0.1430  0.2978  0.0946
 1149W        W 2046   5.778   5.826   0.385  0.1673  0.0573 -0.0554
 1150W        W 2047   3.369   3.352   3.862 -0.1796 -0.0946  0.0772
 1151W        W 2048   1.765   4.701   2.690  0.2096 -0.1430  0.3065
 1152W        W 2049   3.861   7.090   1.053  0.3847  0.3227 -0.0897
 1153W        W 2050   2.595   3.019   2.072  0.0535  0.0481  0.0042
 1154W        W 2051   1.247   3.343   7.081  0.0184 -0.0610 -0.1233
 1155W        W 2052   2.390   2.450   4.939  0.2857 -0.0614  0.0978
 1156W        W 2053   4.087   3.943   7.515 -0.4462 -0.0303 -0.1171
 1157W        W 2054   4.217   6.383   3.499  0.0425 -0.0924 -0.1510
 1158W        W 2055   6.165   5.862   5.347  0.1846 -0.1101  0.2421
 1159W        W 2056   2.049   4.035   5.982  0.0992  0.1706 -0.1546
 1160W        W 2057   6.396   7.405   3.057 -0.1713  0.0439 -0.0495
 1161W        W 2058   5.125   2.446   2.559  0.0949  0.2023  0.2238
 1162W        W 2059   3.302   1.561   7.159 -0.0872 -0.1838  0.0826
 1163W        W 2060   1.172   1.260   6.900  0.1774  0.0055  0.1423
 1164W        W 2061   7.079   0.190   5.019 -0.2105 -0.2500 -0.0849
 1165W        W 2062   4.509   4.718   0.238 -0.1177  0.1726  0.0237
 1166W        W 2063   0.068   0.118   0.858 -0.2659 -0.1765 -0.2048
 1167W        W 2064   5.282   4.086   6.938 -0.1280 -0.0492  0.1292
 1168W        W 2065   4.475   4.283   5.215  0.0072  0.1601  0.0192
 1169W        W 2066   4.431   7.519   4.245  0.0941  0.1451 -0.1821
 1170W        W 2067   3.949   5.606   1.307  0.3090 -0.0077  0.0665
 1171W        W 2068   2.633   2.846   7.237 -0.0447 -0.1540  0.0760
 1172W        W 2069   6.759   0.199   0.984  0.2119 -0.0651 -0.1363
 1173W        W 2070   7.039   4.616   2.948 -0.1023  0.2853  0.2336
 1174W        W 2071   1.561   1.432   1.916  0.2939  0.1616 -0.4925
 1175W        W 2072   3.751   1.511   1.269  0.0329 -0.3593  0.5102
 1176W        W 2073   5.800   1.742   5.537 -0.1489 -0.0961 -0.3127
 1177W        W 2074   2.870   6.039   3.620  0.0991 -0.1029  0.2811
 1178W        W 2075   6.115   2.758   1.902  0.3344 -0.1636  0.0299
 1179W        W 2076   6.611   4.207   6.092 -0.1547 -0.0179 -0.1415
 1180W        W 2077   4.420   4.819   2.840  0.1192  0.1240 -0.3929
 1181W        W 2078   6.633   7.211   2.171 -0.1424 -0.0468 -0.2218
 1182W        W 2079   1.556   1.714   0.953  0.1627 -0.0746 -0.3435
 1183W        W 2080   5.142   3.442   6.141 -0.1132  0.0917  0.2007
 1184W        W 2081   1.762   5.363   7.046  0.1803 -0.1578 -0.2318
 1185W        W 2082   1.604   3.537   7.615 -0.1346  0.1223  0.2428
 1186W        W 2083   6.471   3.932   1.199 -0.0548  0.1823  0.1680
 1187W        W 2084   7.376   4.204   5.189  0.0028  0.3063  0.3182
 1188W        W 2085   1.081   0.589   4.317 -0.0073 -0.1774  0.1313
 1189W        W 2086   4.982   3.856   0.382  0.0587  0.0756  0.1073
 1190W        W 2087   1.031   3.498   3.170 -0.0914 -0.0063  0.3096
 1191W        W 2088   3.670   6.686   2.137 -0.2082  0.0557 -0.0091
 1192W        W 2089   7.383   4.961   5.287 -0.3220  0.1337  0.0378
 1193W        W 2090   4.881   5.772   0.896  0.0357 -0.1382  0.2202
 1194W        W 2091   2.448   3.816   4.830  0.1579 -0.2793  0.0131
 1195W        W 2092   4.488   1.317   5.009  0.2329 -0.3161 -0.1826
 1196W        W 2093   4.718   4.552   6.605  0.1431  0.0518  0.1920
 1197W        W 2094   0.457   4.129   4.397  0.0914 -0.2750  0.2749
 1198W        W 2095   0.607   0.829   1.785  0.1155 -0.0598  0.0574
 1199W        W 2096   4.427   1.372   2.979  0.0804 -0.2169 -0.1728
 1200W        W 2097   1.976   1.595   5.311  0.4130 -0.0765  0.2817
 1201W        W 2098   2.279   6.841   2.625  0.2889  0.1479  0.0769
 1202W        W 2099   6.128   6.553   0.839  0.1744  0.3279  0.1642
 1203W        W 2100   7.598   2.143   2.071 -0.2095 -0.1208 -0.0540
 1204W        W 2101   5.821   5.484   3.573  0.0924  0.0184 -0.2372
 1205W        W 2102   0.230   3.282   5.389 -0.0015  0.0015 -0.1714
 1206W        W 2103   6.066   7.347   4.339 -0.1335 -0.0981  0.4096
 1207W        W 2104   0.746   2.821   6.185  0.0379 -0.0749  0.0663
 1208W        W 2105   4.527   6.504   2.993  0.3823  0.0351 -0.3151
 1209W        W 2106   4.258   6.891   7.363 -0.3293 -0.2489  0.2007
 1210W        W 2107   5.825   3.427   6.868 -0.2845 -0.0076  0.1268
 1211W        W 2108   4.899   2.918   0.597  0.0827 -0.0323 -0.2552
 1212W        W 2109   6.662   4.894   1.284 -0.0113 -0.0541  0.4087
 1213W        W 2110   4.644   5.415   6.393 -0.1885 -0.1506  0.0783
 1214W        W 2111   3.812   6.153   1.339  0.0882 -0.1355  0.3250
 1215W        W 2112   3.600   2.828   3.251 -0.2459 -0.1617  0.0763
 1216W        W 2113   0.595   7.599   2.975 -0.1135 -0.4089  0.1772
 1217W        W 2114   4.406   5.162   0.391  0.3587 -0.6475  0.1389
 1218W        W 2115   2.299   1.943   6.497  0.2633  0.0916  0.2137
 1219W        W 2116   6.875   6.302   2.468  0.0292  0.1355 -0.0550
 1220W        W 2117   5.040   4.781   2.099 -0.2068  0.0531 -0.0405
 1221W        W 2118   4.148   5.562   5.478  0.1154  0.3933 -0.0053
 1222W        W 2119   3.530   0.245   4.564 -0.1179  0.2625 -0.0028
 1223W        W 2120   3.743   7.236   2.125  0.1206  0.0271 -0.0101
 1224W        W 2121   4.865   3.699   5.785 -0.2959  0.0762 -0.1970
 1225W        W 2122   2.054   1.683   2.635  0.1879  0.0031  0.3306
 1226W        W 2123   4.456   0.849   3.016 -0.2622  0.2181  0.0452
 1227W        W 2124   2.788   4.054   3.833  0.0295  0.1743  0.1801
 1228W        W 2125   5.361   6.256   7.610 -0.1366  0.1427  0.0770
 1229W        W 2126   3.021   4.212   1.893  0.2081 -0.3517  0.2327
 1230W        W 2127   6.502   1.178   3.926  0.0722 -0.2972  0.1406
 1231W        W 2128   7.596   3.109   4.499 -0.1226  0.1589 -0.1720
 1232W        W 2129   2.532   0.336   1.069 -0.3503  0.2060  0.0549
 1233W        W 2130   5.823   0.511   1.895  0.2090 -0.0906 -0.1185
 1234W        W 2131   7.193   0.595   4.749  0.0194 -0.0320 -0.1873
 1235W        W 2132   7.023   6.278   1.556  0.2851 -0.0060  0.0181
 1236W        W 2133   3.402   0.708   6.184  0.3029  0.3306  0.2674
 1237W        W 2134   4.246   5.641   3.971  0.0071 -0.0635  0.1094
 1238W        W 2135   4.504   0.819   0.781 -0.0307 -0.3076 -0.2720
 1239W        W 2136   3.572   3.703   5.183 -0.0432  0.0628 -0.1710
 1240W        W 2137   0.365   7.311   1.935  0.0585 -0.1826 -0.0432
 1241W        W 2138   7.331   3.859   6.446  0.1118 -0.0112  0.0260
 1242W        W 2139   2.117   2.317   1.541  0.0775 -0.3657  0.0376
 1243W        W 2140   4.080   6.878   0.563  0.4273  0.1185 -0.1018
 1244W        W 2141   4.359   3.238   2.071  0.1124 -0.0416  0.0313
 1245W        W 2142   7.622   1.385   1.254  0.1611  0.0046  0.2494
 1246W        W 2143   5.601   2.151   6.887 -0.3552  0.2100  0.0169
 1247W        W 2144   1.918   6.042   0.202  0.1929  0.0034 -0.1977
 1248W        W 2145   2.548   4.298   6.281 -0.1882 -0.3105  0.2442
 1249W        W 2146   4.573   6.823   6.084  0.0983 -0.0485  0.1435
 1250W        W 2147   7.043   4.835   0.547 -0.2168  0.0188  0.2976
 1251W        W 2148   3.134   5.003   7.417 -0.0807 -0.2505  0.0404
 1252W        W 2149   2.579   0.507   3.139 -0.2588 -0.3311  0.1360
 1253W        W 2150   6.626   1.666   1.702  0.1089 -0.2569 -0.0727
 1254W        W 2151   5.313   5.514   1.107  0.0223  0.1851  0.0738
 1255W        W 2152   2.442   1.188   5.653 -0.0077  0.0046  0.0354
 1256W        W 2153   2.703   1.603   4.767  0.0903 -0.5643 -0.1021
 1257W        W 2154   5.627   7.156   4.119 -0.1560  0.1124 -0.1713
 1258W        W 2155   3.586   3.292   3.401 -0.1641  0.0648 -0.0205
 1259W        W 2156   4.758   1.236   4.099 -0.4762 -0.0898 -0.1573
 1260W        W 2157   0.065   5.722   4.812 -0.3231  0.1072  0.0124
 1261W        W 2158   6.755   5.722   4.472  0.2650 -0.0016 -0.3614
 1262W        W 2159   1.667   3.992   6.987 -0.0149 -0.1186 -0.3212
 1263W        W 2160   4.939   3.907   1.527 -0.2943  0.2167 -0.1383
 1264W        W 2161   7.133   1.907   3.177 -0.0115 -0.2222  0.1276
 1265W        W 2162   6.023   6.868   1.758  0.0992 -0.0711 -0.0163
 1266W        W 2163   6.148   5.082   1.910 -0.2802  0.0185 -0.2215
 1267W        W 2164   0.281   0.868   7.498 -0.2792  0.0963 -0.0792
 1268W        W 2165   4.261   2.251   0.953 -0.2483 -0.0290 -0.2799
 1269W        W 2166   6.924   3.945   2.908 -0.1174 -0.1507 -0.0995
 1270W        W 2167   2.327   3.259   4.394  0.2548  0.0392 -0.0790
 1271W        W 2168   7.567   1.364   2.041  0.0392 -0.2121  0.3670
 1272W        W 2169   2.309   5.854   1.046  0.0481  0.1566  0.1824
 1273W        W 2170   0.576   5.557   4.092 -0.0490 -0.1079  0.1655
 1274W        W 2171   1.021   3.113   2.196  0.1130 -0.1183 -0.0545
 1275W        W 2172   5.061   2.600   2.104  0.1219  0.1317  0.0538
 1276W        W 2173   3.528   2.507   6.246  0.2342 -0.0675 -0.0929
 1277W        W 2174   5.963   1.296   2.241 -0.0188  0.1060 -0.0433
 1278W        W 2175   7.198   6.522   4.066 -0.1956 -0.3282  0.2419
 1279W        W 2176   0.112   6.135   6.510  0.0926 -0.0118 -0.2491
 1280W        W 2177   1.726   2.030   2.555 -0.0937  0.3010 -0.1285
 1281W        W 2178   5.600   6.626   6.147 -0.1214 -0.0640  0.1619
 1282W        W 2179   1.600   0.866   4.181 -0.0962 -0.1135  0.2472
 1283W        W 2180   5.660   3.828   7.202 -0.2281 -0.0310  0.0083
 1284W        W 2181   1.335   3.044   1.142 -0.1547  0.0491  0.1094
 1285W        W 2182   2.112   4.274   3.284  0.0047 -0.3412  0.4125
 1286W        W 2183   0.259   3.634   5.757 -0.0357 -0.1601 -0.2051
 1287W        W 2184   2.617   6.639   2.902  0.1194 -0.0902 -0.3187
 1288W        W 2185   3.033   0.365   1.915  0.4026  0.3775  0.2188
 1289W        W 2186   2.625   1.280   3.225  0.3783  0.2571  0.2449
 1290W        W 2187   4.855   6.849   4.703  0.0692  0.2518 -0.0711
 1291W        W 2188   1.527   1.214   6.564 -0.0336 -0.0067  0.1474
 1292W        W 2189   6.622   1.793   2.328 -0.2812 -0.0391  0.1226
 1293W        W 2190   5.663   1.739   0.202  0.2228  0.2093 -0.0977
 1294W        W 2191   1.139   3.560   5.339  0.0332  0.2024  0.0754
 1295W        W 2192   6.059   3.583   1.163 -0.1187  0.1544 -0.2996
 1296W        W 2193   0.593   1.702   3.548 -0.3336  0.1434  0.0624
 1297W        W 2194   6.154   3.187   1.662  0.0396  0.5083  0.0746
 1298W        W 2195   3.923   2.871   2.241 -0.2594 -0.0228  0.2532
 1299W        W 2196   2.762   5.586   2.859 -0.1477  0.0708 -0.1553
 1300W        W 2197   0.259   2.714   0.865  0.1846  0.1604  0.0068
 1301W        W 2198   3.827   5.174   6.724 -0.0455  0.2316  0.1040
 1302W        W 2199   1.319   0.985   1.919 -0.1102 -0.1349  0.3204
 1303W        W 2200   0.834   3.510   1.940  0.1711 -0.2325 -0.0451
 1304W        W 2201   4.473   3.166   0.081 -0.2996 -0.0679  0.3563
 1305W        W 2202   5.668   6.282   0.570 -0.0731  0.0218 -0.0294
 1306W        W 2203   0.280   1.618   6.999 -0.0527  0.2467  0.1339
 1307W        W 2204   2.423   5.803   3.862  0.3451  0.1016  0.0181
 1308W        W 2205   0.305   4.554   3.366 -0.3310 -0.0327 -0.3319
 1309W        W 2206   4.368   5.564   0.106  0.1259 -0.3222 -0.0127
 1310W        W 2207   0.710   6.572   0.981 -0.1378  0.0926 -0.2785
 1311W        W 2208   0.764   0.926   4.164 -0.0418  0.0671 -0.0157
 1312W        W 2209   5.358   0.746   1.920 -0.0553 -0.2386  0.0057
 1313W        W 2210   0.612   4.808   4.714  0.0154 -0.2500 -0.0163
 1314W        W 2211   0.383   5.219   6.032 -0.2775  0.1802 -0.1535
 1315W        W 2212   0.198   0.303   2.957 -0.0437 -0.2061  0.2425
 1316W        W 2213   4.643   5.124   2.249  0.3074  0.6519 -0.0555
 1317W        W 2214   1.596   2.864   3.234 -0.1871 -0.0570 -0.2196
 1318W        W 2215   0.797   5.346   6.329  0.0903  0.2326  0.1664
 1319W        W 2216   5.431   1.237   6.762 -0.1483 -0.1572 -0.1783
 1320W        W 2217   6.619   7.360   6.066 -0.0052 -0.1109  0.0518
 1321W        W 2218   6.115   6.385   5.090 -0.0656 -0.1363  0.0108
 1322W        W 2219   0.750   0.756   7.606 -0.2076 -0.2141 -0.0462
 1323W        W 2220   0.840   0.900   4.652 -0.0166  0.0356 -0.1368
 1324W        W 2221   7.005   3.265   5.964 -0.1420  0.1286 -0.0445
 1325W        W 2222   5.014   1.726   5.002  0.1511  0.3000  0.0728
 1326W        W 2223   2.877   0.615   1.504  0.1243  0.1295 -0.0075
 1327W        W 2224   4.387   5.697   0.675  0.0517 -0.0785 -0.0441
 1328W        W 2225   0.904   2.939   4.799 -0.1382 -0.0128  0.1548
 1329W        W 2226   6.873   7.490   3.139  0.2331  0.1679  0.1263
 1330W        W 2227   6.974   6.012   4.049 -0.0520  0.2356  0.1364
 1331W        W 2228   6.882   6.701   3.451 -0.2135 -0.0028 -0.2059
 1332W        W 2229   1.923   6.461   1.773  0.1653 -0.0399 -0.1956
 1333W        W 2230   6.568   4.993   5.597  0.2625  0.2347  0.1124
 1334W        W 2231   0.554   1.337   1.388 -0.2038  0.0290 -0.1084
 1335W        W 2232   4.852   5.405   6.878 -0.1992  0.1158  0.0792
 1336W        W 2233   7.436   6.748   3.549 -0.0907 -0.0050 -0.0738
 1337W        W 2234   2.291   3.791   3.231  0.1594 -0.2880 -0.1055
 1338W        W 2235   5.239   4.682   6.751 -0.0761  0.0293  0.1649
 1339W        W 2236   5.079   0.211   3.449  0.1954 -0.0710  0.1847
 1340W        W 2237   3.090   3.935   5.700  0.0372  0.3023  0.2238
 1341W        W 2238   0.328   1.820   1.217  0.3328 -0.0326  0.1194
 1342W        W 2239   3.637   5.309   0.982 -0.2825  0.1497 -0.0070
 1343W        W 2240   2.948   4.442   5.053 -0.5754  0.1462 -0.2188
 1344W        W 2241   7.457   7.548   6.418 -0.0120 -0.1658 -0.0882
 1345W        W 2242   3.464   0.123   5.090 -0.0291 -0.0493 -0.0656
 1346W        W 2243   0.423   6.982   2.639  0.2186 -0.1937 -0.0838
 1347W        W 2244   1.971   1.480   7.489  0.2785  0.1506 -0.0331
 1348W        W 2245   1.478   6.502   1.481  0.0647  0.1551 -0.2597
 1349W        W 2246   0.411   3.769   7.321 -0.3047  0.0080  0.2823
 1350W        W 2247   6.396   4.724   4.330 -0.2361 -0.0254  0.1111
 1351W        W 2248   5.643   2.464   7.345  0.2572 -0.0754  0.0291
 1352W        W 2249   2.922   4.611   1.235 -0.0891  0.0862  0.0420
 1353W        W 2250   6.135   4.853   5.822 -0.1333 -0.2615  0.0291
 1354W        W 2251   0.046   4.745   6.000 -0.0876 -0.1426 -0.2436
 1355W        W 2252   6.826   5.843   6.303 -0.0003 -0.2286 -0.1226
 1356W        W 2253   1.507   4.035   4.127 -0.0654  0.4423 -0.1318
 1357W        W 2254   6.314   4.508   4.865  0.0445 -0.2108  0.1584
 1358W        W 2255   6.243   0.413   4.842 -0.0173  0.0253 -0.0994
 1359W        W 2256   0.265   6.960   7.369 -0.1347  0.0971 -0.2945
 1360W        W 2257   5.068   4.729   1.276 -0.1818  0.2017  0.0487
 1361W        W 2258   6.149   1.481   1.520  0.0540 -0.0134 -0.2092
 1362W        W 2259   0.519   5.770   2.521 -0.1697 -0.0448 -0.1303
 1363W        W 2260   5.281   3.467   1.686  0.0388  0.0800  0.1489
 1364W        W 2261   6.318   1.749   4.679 -0.0245  0.0850 -0.0624
 1365W        W 2262   2.423   1.704   1.291  0.0262 -0.0330 -0.0948
 1366W        W 2263   4.216   1.352   2.100  0.2500  0.3167 -0.0726
 1367W        W 2264   2.114   1.449   3.099 -0.2013  0.2138 -0.2725
 1368W        W 2265   6.859   1.655   3.854  0.0153 -0.0768 -0.1682
 1369W        W 2266   7.200   6.826   2.766 -0.1056 -0.0753  0.1098
 1370W        W 2267   5.731   4.388   0.837  0.0800 -0.1766  0.1797
 1371W        W 2268   4.265   2.893   6.774  0.0262  0.1428 -0.0820
 1372W        W 2269   5.969   0.456   6.628 -0.3587 -0.0737  0.1296
 1373W        W 2270   2.515   7.476   1.144 -0.3458  0.3552  0.1972
 1374W        W 2271   3.726   4.600   1.398  0.3022 -0.0907 -0.0074
 1375W        W 2272   5.237   6.366   5.782 -0.0848 -0.0837 -0.1830
 1376W        W 2273   4.894   0.617   2.929 -0.0882 -0.1379  0.0521
 1377W        W 2274   4.258   0.795   2.307 -0.1043  0.1755  0.1808
 1378W        W 2275   7.135   4.437   6.316  0.1930  0.0306 -0.1008
 1379W        W 2276   6.164   5.045   4.960  0.0678 -0.1343  0.1476
 1380W        W 2277   4.615   1.703   3.344  0.3901 -0.1434  0.2384
 1381W        W 2278   0.556   2.661   3.874 -0.1831  0.0635  0.3183
 1382W        W 2279   0.187   4.378   3.938 -0.1093 -0.2790  0.2845
 1383W        W 2280   7.365   0.594   3.056 -0.0225  0.2447  0.2686
 1384W        W 2281   0.562   2.241   1.771  0.0537 -0.0366 -0.2087
 1385W        W 2282   5.837   3.283   0.291 -0.2034 -0.1429 -0.1569
 1386W        W 2283   3.023   6.892   1.546 -0.0913  0.0872 -0.0530
 1387W        W 2284   2.974   3.077   1.186  0.6058 -0.0099  0.2622
 1388W        W 2285   4.096   1.435   6.535  0.0294 -0.1343  0.2414
 1389W        W 2286   5.744   7.076   6.289  0.1384  0.0358 -0.0518
 1390W        W 2287   5.132   7.180   1.239  0.2087 -0.0701 -0.0174
 1391W        W 2288   1.265   2.512   4.386 -0.0337  0.0815  0.0594
 1392W        W 2289   1.368   2.570   5.752 -0.0235 -0.1202  0.0423
 1393W        W 2290   3.417   4.320   4.851  0.0082  0.0011 -0.1560
 1394W        W 2291   4.471   4.921   6.302  0.3330  0.0390 -0.0007
 1395W        W 2292   7.074   4.605   5.254 -0.0865  0.2573 -0.0684
 1396W        W 2293   4.336   2.249   7.567 -0.0711 -0.1210  0.0156
 1397W        W 2294   0.931   1.680   3.199  0.1641 -0.0963  0.1810
 1398W        W 2295   6.609   7.609   1.837 -0.1583  0.1696 -0.1381
 1399W        W 2296   3.439   3.846   1.075  0.3871 -0.1749 -0.2235
 1400W        W 2297   3.021   3.371   2.231 -0.0411  0.0630  0.1788
 1401W        W 2298   1.749   2.740   1.174 -0.0767 -0.1072 -0.0817
 1402W        W 2299   5.191   6.333   0.503  0.2326  0.0356  0.0347
 1403W        W 2300   6.303   3.499   6.641  0.1366 -0.0007 -0.0153
 1404W        W 2301   5.530   3.274   6.444 -0.5186  0.1053 -0.0029
 1405W        W 2302   6.768   7.180   3.513 -0.1269 -0.3370  0.1760
 1406W        W 2303   0.860   6.624   0.198  0.0624  0.3188  0.2138
 1407W        W 2304   1.025   0.488   7.273 -0.0864 -0.1857 -0.4191
 1408W        W 2305   3.432   7.201   6.886  0.1168 -0.1267  0.2077
 1409W        W 2306   1.570   2.077   0.419  0.3385 -0.0479 -0.1325
 1410W        W 2307   4.171   6.766   4.718 -0.2144  0.1188  0.1106
 1411W        W 2308   4.065   1.680   0.821 -0.1061 -0.3270  0.0687
 1412W        W 2309   2.085   2.896   4.051 -0.1429  0.0018 -0.1673
 1413W        W 2310   7.175   4.831   2.462  0.4417 -0.3925  0.1593
 1414W        W 2311   1.054   2.269   1.619 -0.0860 -0.1381  0.0236
 1415W        W 2312   5.836   6.221   6.086 -0.2575  0.1883  0.1964
 1416W        W 2313   7.265   0.472   1.697  0.1947  0.1787  0.2084
 1417W        W 2314   3.339   4.252   7.041  0.1013 -0.3604  0.0277
 1418W        W 2315   5.000   6.461   1.730 -0.1536  0.0026 -0.0259
 1419W        W 2316   6.983   6.758   5.341  0.1834 -0.0039  0.2072
 1420W        W 2317   7.276   1.254   5.702  0.0450  0.2085 -0.2445
 1421W        W 2318   0.828   2.261   3.126  0.1082  0.0619  0.0019
 1422W        W 2319   7.004   6.773   2.308  0.2403  0.1112 -0.2672
 1423W        W 2320   4.426   5.946   6.351 -0.0616 -0.1359  0.1090
 1424W        W 2321   6.534   5.355   6.596 -0.0362  0.1914  0.3919
 1425W        W 2322   0.711   6.904   0.576  0.0526  0.0764  0.0576
 1426W        W 2323   3.058   4.953   0.310 -0.3661 -0.0955 -0.1206
 1427W        W 2324   6.538   0.163   2.302 -0.1909  0.1099  0.2270
 1428W        W 2325   7.529   0.199   1.345 -0.0430 -0.0539 -0.0654
 1429W        W 2326   3.482   0.642   0.543  0.0450 -0.0905 -0.3620
 1430W        W 2327   3.536   4.431   0.936 -0.1462  0.0561  0.0303
 1431W        W 2328   6.945   6.018   7.154  0.0379  0.1041 -0.0438
 1432W        W 2329   1.219   4.778   6.718  0.0211 -0.0639  0.0023
 1433W        W 2330   5.097   1.109   3.697  0.2561 -0.0168 -0.3230
 1434W        W 2331   2.448   4.551   1.480  0.2152  0.0562 -0.1173
 1435W        W 2332   2.004   1.975   1.177  0.0223 -0.4234  0.1836
 1436W        W 2333   6.773   1.210   1.349 -0.1475 -0.2043 -0.1620
 1437W        W 2334   6.935   0.701   5.254 -0.0227 -0.0378  0.1202
 1438W        W 2335   1.225   5.623   6.499  0.0980 -0.0671  0.0202
 1439W        W 2336   6.982   6.793   4.489  0.0358  0.1963  0.2545
 1440W        W 2337   3.748   5.705   4.077 -0.0971 -0.0854 -0.2124
 1441W        W 2338   3.274   1.699   5.991 -0.1358  0.2803  0.0002
 1442W        W 2339   6.319   7.496   4.821  0.0703  0.0626  0.2537
 1443W        W 2340   4.613   0.014   7.029 -0.1814 -0.1862  0.1355
 1444W        W 2341   7.182   1.957   0.632  0.0714 -0.0417 -0.1430
 1445W        W 2342   5.305   6.744   0.253  0.3309  0.0102  0.0124
 1446W        W 2343   5.798   0.374   3.795 -0.3332  0.2720  0.2014
 1447W        W 2344   0.060   5.522   5.650 -0.0153 -0.1982  0.0508
 1448W        W 2345   0.430   4.539   1.702 -0.0457 -0.1101 -0.1131
 1449W        W 2346   2.550   1.477   2.747 -0.2656  0.1335  0.2247
 1450W        W 2347   2.946   2.164   0.567 -0.0456 -0.2263  0.1699
 1451W        W 2348   0.068   4.038   0.620  0.2962 -0.1441 -0.1207
 1452W        W 2349   1.058   1.930   0.712  0.1861  0.1039 -0.0670
 1453W        W 2350   0.812   1.742   1.196 -0.0735 -0.1451  0.0555
 1454W        W 2351   6.895   1.634   0.344 -0.0836 -0.0069 -0.1175
 1455W        W 2352   2.805   3.292   4.471  0.2217  0.0071  0.0887
 1456W        W 2353   1.546   1.855   5.196  0.1957 -0.0352  0.1141
 1457W        W 2354   6.913   2.202   2.724  0.2190  0.0641  0.0523
 1458W        W 2355   0.506   6.482   7.535 -0.3179  0.0175  0.1245
 1459W        W 2356   2.021   5.413   1.658  0.3737 -0.0626 -0.2189
 1460W        W 2357   5.876   0.620   7.080 -0.0084 -0.0467  0.0469
 1461W        W 2358   6.527   6.725   2.646  0.2353  0.1132 -0.0249
 1462W        W 2359   3.987   7.474   3.990 -0.1611  0.0353 -0.1142
 1463W        W 2360   5.715   2.874   6.885  0.0500  0.3807  0.0307
 1464W        W 2361   5.953   1.045   1.706 -0.0543 -0.0521 -0.1434
 1465W        W 2362   4.435   6.648   3.910  0.0941  0.0876  0.1741
 1466W        W 2363   7.026   5.323   5.325 -0.0526  0.1380 -0.4256
 1467W        W 2364   3.413   5.298   2.314  0.1312  0.1368 -0.1954
 1468W        W 2365   4.259   7.278   2.008  0.3853  0.2207 -0.0611
 1469W        W 2366   6.164   6.618   1.361 -0.2895 -0.0292  0.1387
 1470W        W 2367   6.806   7.420   4.796  0.2709 -0.3249 -0.0837
 1471W        W 2368   6.952   6.050   0.922 -0.3636  0.1354 -0.3200
 1472W        W 2369   7.246   5.755   5.411  0.1692  0.0120 -0.1290
 1473W        W 2370   4.388   4.106   0.686  0.0898 -0.2148  0.1180
 1474W        W 2371   0.360   2.731   4.584 -0.1562 -0.2011  0.0023
 1475W        W 2372   3.871   2.993   6.452 -0.0198  0.0627 -0.6321
 1476W        W 2373   2.509   7.378   2.514  0.0679 -0.1756 -0.3573
 1477W        W 2374   7.192   1.677   1.350  0.0696  0.0038 -0.0149
 1478W        W 2375   2.515   1.427   4.051 -0.2225  0.2011  0.1757
 1479W        W 2376   0.865   0.568   0.998 -0.1925 -0.1075 -0.1215
 1480W        W 2377   2.417   6.342   1.075  0.2729 -0.0977  0.1382
 1481W        W 2378   5.783   5.307   1.461  0.0091 -0.2695  0.2788
 1482W        W 2379   3.211   2.155   6.306 -0.1529 -0.0162 -0.0349
 1483W        W 2380   7.295   6.116   0.023 -0.1145  0.1090  0.2322
 1484W        W 2381   6.214   0.854   5.657  0.0472  0.0014  0.0289
 1485W        W 2382   4.300   6.170   5.557 -0.0486 -0.1052 -0.1714
 1486W        W 2383   1.985   7.418   2.646  0.2976 -0.1528 -0.1032
 1487W        W 2384   6.593   1.668   5.116  0.1903 -0.1323  0.0153
 1488W        W 2385   0.676   5.604   0.800  0.2912 -0.3923  0.0926
 1489W        W 2386   7.489   6.591   4.530 -0.2231 -0.2790  0.2031
 1490W        W 2387   3.864   4.089   6.381  0.1019  0.2291 -0.2538
 1491W        W 2388   2.842   7.615   2.972 -0.0442 -0.2209 -0.2510
 1492W        W 2389   3.360   3.661   7.232 -0.1813 -0.0495  0.0270
 1493W        W 2390   0.334   4.897   1.402 -0.3378 -0.3055 -0.0166
 1494W        W 2391   5.229   0.007   0.287  0.0436  0.0487  0.2591
 1495W        W 2392   7.576   3.376   4.030  0.3325  0.0460 -0.2471
 1496W        W 2393   2.630   2.127   6.149  0.0743 -0.0234  0.0374
 1497W        W 2394   7.385   1.253   2.572  0.0150 -0.0502 -0.2087
 1498W        W 2395   3.613   2.038   5.746  0.3325 -0.0201  0.1559
 1499W        W 2396   1.569   0.241   1.478 -0.1121  0.1496 -0.4086
 1500W        W 2397   5.991   4.826   0.085  0.3655  0.1171  0.2775
 1501W        W 2398   0.772   3.279   5.128 -0.2481 -0.3322  0.2497
 1502W        W 2399   6.421   1.263   4.743  0.0932 -0.2436 -0.3502
 1503W        W 2400   2.792   7.175   0.695 -0.1764  0.4152  0.0332
 1504W        W 2401   5.204   7.166   2.178  0.0591 -0.1448 -0.1946
 1505W        W 2402   0.788   0.065   2.103 -0.0490  0.2356 -0.0293
 1506W        W 2403   0.008   0.511   6.358  0.1080  0.1581 -0.1426
 1507W        W 2404   6.630   3.475   4.458  0.0638  0.0607  0.2199
 1508W        W 2405   4.118   6.328   2.441 -0.0542 -0.2197  0.0761
 1509W        W 2406   6.364   7.234   7.519 -0.0108  0.3171  0.1687
 1510W        W 2407   3.026   1.358   3.525 -0.0634 -0.2502 -0.1201
 1511W        W 2408   4.785   6.051   3.977 -0.1248 -0.1430 -0.2395
 1512W        W 2409   1.559   1.177   3.783  0.0316  0.1021  0.2387
 1513W        W 2410   1.256   4.518   7.583  0.1070  0.1284  0.0139
 1514W        W 2411   4.879   1.003   1.165 -0.0237  0.0062  0.3138
 1515W        W 2412   5.485   2.200   0.153 -0.1795 -0.2229 -0.2315
 1516W        W 2413   5.663   6.314   4.689 -0.3528 -0.2345  0.0662
 1517W        W 2414   2.743   6.123   2.768  0.4016 -0.0073  0.2211
 1518W        W 2415   0.436   4.517   6.299 -0.3294 -0.0340  0.0327
 1519W        W 2416   3.797   2.090   4.762  0.0527  0.1854 -0.1832
 1520W        W 2417   6.465   0.592   1.108  0.0577 -0.0102  0.0830
 1521W        W 2418   4.745   0.868   7.467  0.1502  0.2107 -0.3627
 1522W        W 2419   1.775   4.746   0.649  0.0267  0.0335  0.0294
 1523W        W 2420   6.910   4.229   4.904  0.1696 -0.2304 -0.0334
 1524W        W 2421   6.848   2.681   1.825 -0.0666  0.2292  0.1567
 1525W        W 2422   3.780   0.271   2.951  0.1105 -0.2628  0.1351
 1526W        W 2423   6.566   3.147   6.291  0.1713  0.2365 -0.1240
 1527W        W 2424   6.237   6.882   0.287 -0.0989  0.0276  0.3103
 1528W        W 2425   0.839   0.300   3.791  0.0352  0.0361  0.1675
 1529W        W 2426   0.755   4.398   2.498 -0.1670  0.0523  0.1801
 1530W        W 2427   0.667   1.027   0.816  0.0636  0.0361 -0.0744
 1531W        W 2428   4.195   5.063   2.418 -0.0540  0.1181 -0.0631
 1532W        W 2429   4.571   0.376   0.011 -0.0420  0.1295 -0.1461
 1533W        W 2430   1.653   4.158   2.491  0.2330  0.0415 -0.0561
 1534W        W 2431   3.748   2.054   3.323  0.2653 -0.0472  0.0039
 1535W        W 2432   6.154   6.674   5.950 -0.1192 -0.0347 -0.1548
 1536W        W 2433   5.498   7.597   6.060 -0.2268 -0.3104 -0.0958
 1537W        W 2434   0.701   4.377   1.305 -0.3533 -0.3305  0.1238
 1538W        W 2435   1.806   3.103   6.463 -0.0896 -0.0021 -0.1445
 1539W        W 2436   7.116   4.923   3.803  0.0514  0.2749 -0.0436
 1540W        W 2437   4.333   3.168   6.239 -0.3750  0.0784  0.0455
 1541W        W 2438   4.206   1.945   2.380  0.0938  0.1301  0.0675
 1542W        W 2439   2.735   0.699   0.617  0.3072  0.1153  0.0257
 1543W        W 2440   1.506   0.673   1.146 -0.1264 -0.2432 -0.0931
 1544W        W 2441   3.483   2.513   7.231 -0.1640  0.1451 -0.1907
 1545W        W 2442   2.280   0.932   3.036 -0.1270 -0.1595 -0.1165
 1546W        W 2443   3.425   6.685   3.772  0.2328  0.0502 -0.2224
 1547W        W 2444   4.424   4.061   1.198 -0.0944  0.2638 -0.2330
 1548W        W 2445   4.364   0.737   5.861  0.0928 -0.3626  0.1329
 1549W        W 2446   3.312   1.986   2.451  0.0678  0.0133 -0.4828
 1550W        W 2447   1.594   4.165   7.517  0.1906  0.2579 -0.1820
 1551W        W 2448   2.592   1.148   2.239 -0.0907 -0.1499  0.0110
 1552W        W 2449   1.462   1.164   0.407  0.0546 -0.1464 -0.0535
 1553W        W 2450   3.309   1.176   5.465 -0.1115  0.0975  0.5767
 1554W        W 2451   4.523   6.393   7.330 -0.0481 -0.0351 -0.0071
 1555W        W 2452   3.168   3.528   4.774 -0.2548 -0.0218  0.3784
 1556W        W 2453   0.694   0.846   3.650  0.3912 -0.2819 -0.0303
 1557W        W 2454   5.921   6.236   2.885 -0.1631  0.1727  0.2109
 1558W        W 2455   3.172   5.754   4.179 -0.0665 -0.2733 -0.3692
 1559W        W 2456   5.851   7.110   2.463 -0.1082 -0.0688 -0.3046
 1560W        W 2457   6.504   3.329   4.960  0.2169  0.0842 -0.0086
 1561W        W 2458   6.795   5.081   0.052  0.0366  0.2607  0.0637
 1562W        W 2459   3.268   3.840   3.985  0.3149 -0.4833 -0.3669
 1563W        W 2460   7.254   5.149   6.653 -0.3320 -0.1860  0.3367
 1564W        W 2461   4.047   6.690   3.089  0.4710  0.0943 -0.0865
 1565W        W 2462   4.448   0.353   1.034 -0.1767  0.1321  0.1433
 1566W        W 2463   7.562   4.868   2.866 -0.3136 -0.1907  0.5190
 1567W        W 2464   1.179   4.163   3.016 -0.0277  0.0083 -0.1358
 1568W        W 2465   3.632   0.000   7.012 -0.2400  0.0982 -0.3367
 1569W        W 2466   6.735   5.767   5.310  0.1282 -0.2680  0.1103
 1570W        W 2467   1.343   5.179   5.719 -0.0506 -0.0135 -0.0742
 1571W        W 2468   7.328   4.391   0.518 -0.0863 -0.1802 -0.0802
 1572W        W 2469   3.798   2.030   1.051  0.1942  0.1135 -0.0076
 1573W        W 2470   0.845   4.465   5.407  0.4573 -0.3722 -0.0291
 1574W        W 2471   7.091   3.654   0.097  0.0912 -0.1735 -0.0941
 1575W        W 2472   0.258   0.762   3.279  0.3060 -0.1165 -0.2070
 1576W        W 2473   7.296   5.472   3.535 -0.3965 -0.0320 -0.0458
 1577W        W 2474   6.594   5.426   1.926 -0.4238 -0.0173 -0.1816
 1578W        W 2475   0.080   1.437   3.867  0.1399  0.2010 -0.3158
 1579W        W 2476   5.346   5.507   2.207 -0.0192 -0.0639 -0.0473
 1580W        W 2477   3.410   4.566   2.737 -0.2571 -0.1780  0.0345
 1581W        W 2478   6.578   0.144   5.205  0.1816 -0.1531  0.2866
 1582W        W 2479   4.067   0.617   3.173  0.3320 -0.0715  0.1157
 1583W        W 2480   7.346   0.918   2.043 -0.0397  0.0636  0.2292
 1584W        W 2481   1.450   3.522   6.343  0.0513  0.2279 -0.1631
 1585W        W 2482   6.718   4.667   6.002  0.0394  0.1055 -0.2299
 1586W        W 2483   7.327   0.020   0.074  0.0721  0.0323  0.1833
 1587W        W 2484   6.156   4.577   1.965 -0.1938  0.0267  0.0122
 1588W        W 2485   3.870   2.482   0.760 -0.0612  0.2849  0.0361
 1589W        W 2486   2.676   7.557   2.037 -0.1749 -0.0342 -0.3034
 1590W        W 2487   5.229   1.460   0.328 -0.3419  0.0286  0.0921
 1591W        W 2488   3.605   5.419   1.538  0.0219  0.2532 -0.1554
 1592W        W 2489   3.280   3.800   1.567 -0.1112 -0.1526  0.1802
 1593W        W 2490   7.511   5.392   5.138 -0.1454 -0.1703 -0.1219
 1594W        W 2491   4.233   1.034   4.606  0.0479 -0.3272  0.0506
 1595W        W 2492   1.287   1.553   3.590  0.3043  0.1599 -0.0850
 1596W        W 2493   7.124   6.548   4.875 -0.2196 -0.1114 -0.0869
 1597W        W 2494   3.284   4.071   2.726 -0.1714  0.2069 -0.1589
 1598W        W 2495   6.414   0.724   2.006 -0.3760 -0.2400 -0.0836
 1599W        W 2496   5.071   7.277   2.701  0.1966  0.4002  0.2091
 1600W        W 2497   6.883   4.309   0.165 -0.2274  0.0025 -0.1787
 1601W        W 2498   2.181   7.200   2.178 -0.1321 -0.2322 -0.2083
 1602W        W 2499   2.294   0.172   2.270  0.1394  0.1675 -0.2336
 1603W        W 2500   6.664   2.541   4.828 -0.3301  0.0793 -0.2333
 1604W        W 2501   5.849   1.741   2.902 -0.0276 -0.2785  0.1766
 1605W        W 2502   2.686   5.506   1.044  0.0383 -0.1397  0.3495
 1606W        W 2503   3.468   3.211   7.372 -0.1549 -0.3418  0.0246
 1607W        W 2504   2.233   5.821   2.814 -0.3167  0.2641  0.0304
 1608W        W 2505   2.255   4.859   3.673  0.2361  0.3553  0.1690
 1609W        W 2506   2.766   0.518   0.041  0.2837  0.2695 -0.0666
 1610W        W 2507   5.072   2.406   0.403  0.0305 -0.1889  0.0372
 1611W        W 2508   0.915   3.917   5.072 -0.0365 -0.1938 -0.1535
 1612W        W 2509   2.850   6.817   7.601 -0.0245 -0.2167  0.3196
 1613W        W 2510   4.513   1.769   7.563 -0.3722  0.2721  0.0057
 1614W        W 2511   1.073   0.267   0.543  0.1484 -0.1476 -0.2628
 1615W        W 2512   2.096   1.176   3.551 -0.1168 -0.1598 -0.2518
 1616W        W 2513   3.982   0.670   1.759 -0.0150  0.1449 -0.1228
 1617W        W 2514   0.256   5.212   4.344 -0.0997 -0.1377 -0.0133
 1618W        W 2515   1.130   6.753   3.160  0.0067  0.1634 -0.0702
 1619W        W 2516   3.258   7.269   2.950 -0.1762  0.0549  0.1013
 1620W        W 2517   5.471   3.973   1.604 -0.2629  0.0913  0.1233
 1621W        W 2518   3.023   5.691   2.326 -0.0923  0.1414 -0.0708
 1622W        W 2519   0.698   1.157   2.570 -0.1311  0.2706  0.1563
 1623W        W 2520   0.508   4.614   4.234 -0.1384 -0.3058  0.0450
 1624W        W 2521   4.662   1.433   6.211 -0.4798  0.0178  0.0569
 1625W        W 2522   0.664   0.984   3.079  0.1509 -0.2522  0.1526
 1626W        W 2523   7.226   1.894   6.083  0.1261 -0.2267  0.2584
 1627W        W 2524   0.637   1.347   3.900 -0.0247  0.0514  0.0678
 1628W        W 2525   4.123   7.394   2.442 -0.3781  0.1375 -0.0699
 1629W        W 2526   1.628   3.974   4.671 -0.2592  0.1286  0.1594
 1630W        W 2527   2.062   4.744   3.077 -0.2217  0.0560 -0.2614
 1631W        W 2528   2.820   3.885   4.423  0.1300  0.3034  0.2659
 1632W        W 2529   6.369   7.233   3.938  0.1439  0.0181  0.2538
 1633W        W 2530   2.829   2.450   7.601 -0.0966  0.2685 -0.1767
 1634W        W 2531   5.052   6.880   5.188  0.0982 -0.2263  0.0929
 1635W        W 2532   3.205   2.069   7.209  0.1122 -0.0761 -0.0879
 1636W        W 2533   4.452   1.909   4.052 -0.1453 -0.1127 -0.4474
 1637W        W 2534   3.750   6.450   3.446 -0.2699  0.0845 -0.1191
 1638W        W 2535   0.401   3.639   0.594 -0.2269  0.2039  0.0644
 1639W        W 2536   1.682   3.171   1.479 -0.1347  0.0637 -0.0187
 1640W        W 2537   5.933   7.531   6.533  0.0262 -0.0728 -0.1124
 1641W        W 2538   5.229   5.488   6.353  0.1501  0.4035  0.3085
 1642W        W 2539   6.689   1.638   7.023  0.0314 -0.1335  0.1610
 1643W        W 2540   1.354   1.921   6.110  0.1085 -0.3815  0.0604
 1644W        W 2541   4.155   7.547   2.951  0.0867 -0.1165  0.2881
 1645W        W 2542   6.194   0.857   0.698  0.0381  0.1902  0.1587
 1646W        W 2543   2.640   4.610   3.807 -0.3653  0.5611 -0.0891
 1647W        W 2544   3.504   2.732   6.781 -0.1083  0.1087 -0.1271
 1648W        W 2545   4.258   2.436   0.464  0.0678 -0.2816  0.0274
 1649W        W 2546   1.223   6.267   1.053 -0.0150 -0.0020  0.0486
 1650W        W 2547   6.332   1.643   4.182  0.0300  0.3509  0.0876
 1651W        W 2548   4.273   1.893   1.822  0.3393 -0.0168  0.0004
 1652W        W 2549   5.915   6.449   7.236 -0.0342 -0.0835  0.1861
 1653W        W 2550   5.533   4.937   7.106 -0.1165  0.1744 -0.0566
 1654W        W 2551   0.557   0.194   0.710  0.1803 -0.0201 -0.1430
 1655W        W 2552   6.987   7.282   0.254 -0.1293 -0.1672 -0.2452
 1656W        W 2553   3.497   3.044   2.437 -0.3641  0.0994 -0.0347
 1657W        W 2554   4.805   1.343   4.649 -0.0054 -0.1687  0.1573
 1658W        W 2555   3.997   5.510   0.410 -0.1401 -0.2309 -0.0568
 1659W        W 2556   1.562   4.255   6.057 -0.3372  0.0719 -0.0895
 1660W        W 2557   3.101   2.819   7.040 -0.0092  0.0270 -0.3109
 1661W        W 2558   0.257   4.418   6.765 -0.4537  0.1134 -0.2293
 1662W        W 2559   4.844   0.614   1.974 -0.0941  0.1506 -0.0471
 1663W        W 2560   2.004   1.618   1.671 -0.2544  0.0347  0.1282
 1664W        W 2561   4.591   4.617   2.058  0.0656 -0.0658  0.2176
 1665W        W 2562   1.438   2.420   1.942  0.0458 -0.0615 -0.0757
 1666W        W 2563   7.150   7.117   3.794 -0.0299  0.0674  0.2259
 1667W        W 2564   0.688   3.254   0.472 -0.1408 -0.1021  0.1101
 1668W        W 2565   6.910   2.298   0.369 -0.1444 -0.1785  0.2794
 1669W        W 2566   2.150   2.947   7.362  0.0728 -0.1645 -0.3605
 1670W        W 2567   0.225   2.585   1.883 -0.1875  0.0936 -0.0575
 1671W        W 2568   0.830   2.719   4.381  0.1908  0.0040  0.3041
 1672W        W 2569   0.090   5.922   5.255 -0.0894 -0.2220  0.2053
 1673W        W 2570   5.305   2.031   1.641 -0.5898  0.1783 -0.1030
 1674W        W 2571   5.588   3.370   5.939 -0.0994  0.1953 -0.1688
 1675W        W 2572   1.298   3.436   1.835 -0.3318  0.0716  0.2722
 1676W        W 2573   1.831   0.765   2.706 -0.0018  0.4820 -0.1876
 1677W        W 2574   1.907   2.625   6.620 -0.0596 -0.0798  0.2603
 1678W        W 2575   5.871   0.986   3.465  0.0516  0.2032 -0.0070
 1679W        W 2576   3.873   0.553   5.960 -0.1039 -0.4310  0.2086
 1680W        W 2577   6.778   4.507   1.650  0.0996  0.0508 -0.4204
 1681W        W 2578   6.001   7.243   0.663 -0.0652 -0.0665 -0.0777
 1682W        W 2579   3.590   2.527   5.760 -0.1811  0.0685  0.2834
 1683W        W 2580   3.969   1.690   4.139  0.2042 -0.3455  0.1773
 1684W        W 2581   5.250   5.042   0.921  0.3033 -0.0196 -0.0325
 1685W        W 2582   5.604   5.131   2.509 -0.3392 -0.2022  0.1309
 1686W        W 2583   2.479   2.258   3.556 -0.0393 -0.0088  0.0986
 1687W        W 2584   3.373   2.566   4.024  0.2734 -0.2379  0.0163
 1688W        W 2585   1.638   4.362   3.035 -0.1260 -0.1760 -0.1396
 1689W        W 2586   0.776   5.877   6.345  0.0135 -0.1784 -0.3291
 1690W        W 2587   2.890   1.397   5.815 -0.2373  0.0848 -0.0396
 1691W        W 2588   4.777   2.062   3.648  0.0830 -0.1538 -0.0327
 1692W        W 2589   6.243   1.099   1.238 -0.0275 -0.0883 -0.0756
 1693W        W 2590   3.590   5.399   4.463 -0.1672 -0.0595 -0.0708
 1694W        W 2591   6.194   4.639   5.330  0.2210  0.2260  0.0040
 1695W        W 2592   0.285   6.792   3.504 -0.0804 -0.2432  0.0633
 1696W        W 2593   0.398   6.619   1.326  0.1145 -0.2425  0.0859
 1697W        W 2594   3.775   0.832   7.415  0.1168 -0.0394  0.3343
 1698W        W 2595   1.262   6.766   1.061  0.0862 -0.1472 -0.3404
 1699W        W 2596   3.971   2.223   6.131  0.1325 -0.2842  0.0774
 1700W        W 2597   7.091   3.017   2.106 -0.1383  0.0654 -0.0884
 1701W        W 2598   6.373   0.766   7.000  0.2208 -0.1379 -0.1727
 1702W        W 2599   0.721   2.015   7.425  0.3188  0.0447 -0.0185
 1703W        W 2600   3.546   6.711   0.702 -0.2431 -0.3976 -0.0448
 1704W        W 2601   0.747   6.744   2.303  0.1562 -0.2048 -0.2363
 1705W        W 2602   2.366   3.835   1.209 -0.1706  0.0891  0.0936
 1706W        W 2603   1.865   2.773   5.986  0.1298  0.1982 -0.0571
 1707W        W 2604   4.251   4.560   1.546 -0.1547 -0.0891  0.0963
 1708W        W 2605   1.717   7.469   3.127 -0.2532 -0.2307 -0.0963
 1709W        W 2606   2.679   3.745   6.854  0.1015  0.0109  0.1706
 1710W        W 2607   4.467   6.705   6.922  0.0482  0.3695 -0.0584
 1711W        W 2608   1.002   4.643   7.161  0.0818  0.0960  0.0737
 1712W        W 2609   5.246   2.570   7.005  0.0342  0.0240 -0.0388
 1713W        W 2610   4.645   1.896   1.520 -0.3081 -0.2941 -0.0422
 1714W        W 2611   0.062   2.762   4.144 -0.0254 -0.0460  0.0241
 1715W        W 2612   0.793   2.675   1.581  0.0511  0.0666  0.2169
 1716W        W 2613   1.155   3.980   6.232 -0.1259  0.0856 -0.2333
 1717W        W 2614   0.284   6.513   2.471  0.0572 -0.0464 -0.0743
 1718W        W 2615   6.466   2.465   0.607 -0.0043  0.0840 -0.0642
 1719W        W 2616   0.884   1.859   7.002 -0.2013  0.1583 -0.2072
 1720W        W 2617   0.118   5.655   3.376  0.0346 -0.0289 -0.1435
 1721W        W 2618   1.157   6.589   0.602 -0.1659 -0.0987  0.2677
 1722W        W 2619   4.626   2.539   0.791 -0.0726  0.0415  0.1534
 1723W        W 2620   7.168   4.455   5.809  0.4124  0.1432 -0.0175
 1724W        W 2621   5.926   1.895   5.001 -0.0254 -0.2696  0.0733
 1725W        W 2622   4.937   1.057   6.613  0.1831 -0.0540 -0.0901
 1726W        W 2623   1.348   5.816   3.282  0.0218  0.2199 -0.1104
 1727W        W 2624   2.595   3.757   5.398 -0.2559  0.0047 -0.2024
 1728W        W 2625   4.486   5.826   4.436 -0.1970 -0.2017  0.0954
 1729W        W 2626   2.209   3.996   1.625 -0.1547 -0.0151  0.2017
 1730W        W 2627   4.592   5.760   1.750  0.1119 -0.2930 -0.0863
 1731W        W 2628   0.901   2.546   2.175 -0.0363 -0.1781  0.3450
 1732W        W 2629   5.256   0.101   4.014 -0.1055  0.1367  0.1081
 1733W        W 2630   1.190   0.113   1.785 -0.2994  0.1093  0.1165
 1734W        W 2631   2.737   5.889   1.947  0.0752 -0.1298 -0.1262
 1735W        W 2632   6.196   1.973   2.485 -0.0278 -0.0072 -0.0554
 1736W        W 2633   7.594   1.030   3.580 -0.1571  0.0688  0.0822
 1737W        W 2634   6.614   3.229   0.670  0.2697 -0.6095  0.2529
 1738W        W 2635   2.084   4.936   1.370 -0.2404  0.1186  0.1706
 1739W        W 2636   1.180   5.741   1.766 -0.1799 -0.1086  0.1689
 1740W        W 2637   2.705   2.538   4.482  0.0058 -0.0730  0.0393
 1741W        W 2638   0.514   7.268   3.638 -0.1082 -0.3522 -0.0291
 1742W        W 2639   4.761   0.637   2.449  0.1722 -0.0842  0.3297
 1743W        W 2640   3.904   4.961   7.172  0.1396 -0.2168  0.7122
 1744W        W 2641   4.107   0.223   6.758  0.0437  0.2775  0.2034
 1745W        W 2642   6.595   0.717   2.705  0.1140  0.2787 -0.0305
 1746W        W 2643   6.882   1.831   7.431  0.0198 -0.0277 -0.2016
 1747W        W 2644   2.418   4.418   5.776  0.1257  0.1867 -0.1061
 1748W        W 2645   2.164   6.102   1.471  0.0173 -0.0488 -0.0189
 1749W        W 2646   4.888   2.461   6.395 -0.0152  0.0346 -0.0483
 1750W        W 2647   7.404   2.618   2.070  0.1636  0.1230  0.1084
 1751W        W 2648   3.303   2.982   4.605  0.0093 -0.3263 -0.1039
 1752W        W 2649   1.898   3.595   6.179  0.2821  0.2054 -0.4444
 1753W        W 2650   3.889   3.461   2.295 -0.1388  0.0210  0.2665
 1754W        W 2651   4.003   6.865   1.827 -0.3266  0.1204 -0.0710
 1755W        W 2652   7.444   5.340   4.619  0.1632 -0.0669  0.0748
 1756W        W 2653   5.444   5.959   2.899 -0.1613 -0.1125  0.2014
 1757W        W 2654   0.984   4.319   4.162 -0.3067 -0.1349  0.2779
 1758W        W 2655   6.926   1.641   5.623 -0.0313 -0.0412  0.2331
 1759W        W 2656   1.864   3.733   2.679 -0.0707  0.1890  0.3347
 1760W        W 2657   2.452   5.325   3.580  0.1311  0.1109 -0.0642
 1761W        W 2658   2.101   5.271   2.103 -0.1958 -0.1853  0.1073
 1762W        W 2659   3.782   7.456   4.794  0.0668  0.1249 -0.0061
 1763W        W 2660   6.354   0.188   6.315  0.2892 -0.0102 -0.0167
 1764W        W 2661   6.426   6.752   3.191 -0.0732 -0.0559 -0.1837
 1765W        W 2662   7.494   5.592   2.919 -0.3173  0.0309 -0.0222
 1766W        W 2663   3.661   2.369   5.197  0.0356  0.0707  0.1195
 1767W        W 2664   6.522   2.933   6.759  0.0498 -0.2510 -0.2474
 1768W        W 2665   5.551   0.749   6.719 -0.0059 -0.1895 -0.2910
 1769W        W 2666   6.244   2.239   6.171  0.2405 -0.4002  0.2005
 1770W        W 2667   2.334   5.409   3.098  0.0013  0.1728  0.4427
 1771W        W 2668   6.194   6.271   3.370  0.0526  0.0015  0.1890
 1772W        W 2669   7.092   2.163   2.196  0.0088  0.0775 -0.0517
 1773W        W 2670   1.145   7.022   1.494  0.0256  0.3345  0.0111
 1774W        W 2671   4.661   3.573   6.268 -0.1564 -0.1397 -0.2266
 1775W        W 2672   4.548   1.328   7.256  0.0036 -0.0306 -0.0991
 1776W        W 2673   5.814   7.004   7.222 -0.1931 -0.2659  0.2792
 1777W        W 2674   7.223   0.021   3.679  0.0888 -0.1700  0.0964
 1778W        W 2675   6.204   6.757   4.231  0.1143  0.0454  0.1267
 1779W        W 2676   6.988   2.813   3.777 -0.0243 -0.0203 -0.4264
 1780W        W 2677   5.737   0.080   6.940 -0.1060  0.0906 -0.1460
 1781W        W 2678   4.057   3.070   0.883  0.0428  0.2008  0.0812
 1782W        W 2679   2.536   4.979   2.213  0.1035 -0.4915  0.1187
 1783W        W 2680   4.801   2.927   7.390  0.0797 -0.0218 -0.1173
 1784W        W 2681   7.173   4.876   6.178  0.2447  0.0504  0.0913
 1785W        W 2682   5.582   1.340   3.714  0.1801  0.2215  0.0609
 1786W        W 2683   2.839   1.706   1.805 -0.1607  0.2007 -0.1398
 1787W        W 2684   7.043   4.311   4.375  0.4412  0.0094  0.2754
 1788W        W 2685   5.096   6.762   2.790  0.4384 -0.3623 -0.0596
 1789W        W 2686   2.651   0.974   4.741 -0.0274  0.0352 -0.0234
 1790W        W 2687   5.697   6.780   4.474 -0.0199  0.0710 -0.1818
 1791W        W 2688   0.594   1.879   4.422  0.0852  0.5483 -0.0938
 1792W        W 2689   1.748   0.779   6.800  0.0573 -0.0719 -0.1718
 1793W        W 2690   4.408   7.190   6.934  0.1923 -0.3346 -0.0593
 1794W        W 2691   6.306   5.788   7.241 -0.0597  0.0357 -0.1738
 1795W        W 2692   4.785   0.653   6.243 -0.1615 -0.1820  0.0184
 1796W        W 2693   5.354   6.464   5.156  0.2232 -0.0395  0.0825
 1797W        W 2694   3.224   2.279   3.027 -0.1698  0.0414 -0.0278
 1798W        W 2695   2.053   3.322   2.424 -0.1265 -0.0516 -0.1062
 1799W        W 2696   0.670   7.387   7.439  0.2115  0.2900  0.0665
 1800W        W 2697   4.085   5.215   6.302  0.0835 -0.1483 -0.1858
 1801W        W 2698   1.856   1.657   4.829  0.1723  0.2446  0.0030
 1802W        W 2699   1.832   6.540   0.002  0.2730  0.0698 -0.0705
 1803W        W 2700   6.971   4.806   7.262 -0.3177  0.0619 -0.2187
 1804W        W 2701   1.808   6.493   3.102 -0.0774  0.5182 -0.2439
 1805W        W 2702   1.917   2.585   5.523 -0.1301 -0.0331 -0.2254
 1806W        W 2703   5.286   5.245   0.012 -0.0798 -0.2432  0.1360
 1807W        W 2704   3.978   3.847   0.413 -0.0091 -0.0825 -0.2804
 1808W        W 2705   5.327   0.557   3.796 -0.1345 -0.2311  0.0681
 1809W        W 2706   1.995   3.612   4.678  0.2104  0.1166 -0.0834
 1810W        W 2707   5.165   1.903   0.616 -0.1991  0.2006  0.0272
 1811W        W 2708   5.573   7.557   5.496  0.0062 -0.2729 -0.1594
 1812W        W 2709   3.544   6.160   3.046  0.2864  0.2218  0.1483
 1813W        W 2710   5.422   1.531   1.038 -0.1140  0.4108 -0.0552
 1814W        W 2711   4.647   4.767   5.120 -0.1732  0.1422 -0.0429
 1815W        W 2712   4.947   6.237   2.194 -0.1333 -0.0243  0.2293
 1816W        W 2713   0.094   6.893   1.629 -0.0794 -0.0080  0.0119
 1817W        W 2714   7.571   3.741   5.319 -0.1325 -0.3734 -0.0517
 1818W        W 2715   2.086   4.197   7.281  0.0934  0.0127  0.0070
 1819W        W 2716   1.394   1.637   4.237 -0.1421  0.1638  0.1273
 1820W        W 2717   3.187   1.076   7.027  0.2171  0.0403 -0.1091
 1821W        W 2718   4.111   3.975   6.910 -0.0067  0.0123 -0.1503
 1822W        W 2719   3.109   1.192   6.246 -0.1856  0.0423  0.0369
 1823W        W 2720   5.983   6.635   2.600  0.2833  0.1687  0.4858
 1824W        W 2721   4.306   5.558   3.189 -0.1076 -0.2622  0.0160
 1825W        W 2722   6.151   5.996   2.038  0.0083 -0.0027 -0.0513
 1826W        W 2723   6.268   3.889   0.705  0.0933 -0.1883  0.3134
 1827W        W 2724   0.607   3.542   1.320 -0.0017 -0.1983 -0.0914
 1828W        W 2725   2.983   0.772   4.397 -0.0339 -0.0314 -0.0104
 1829W        W 2726   3.673   4.848   4.011  0.3149  0.1788  0.1154
 1830W        W 2727   3.559   4.346   4.281 -0.0288  0.0659  0.3504
 1831W        W 2728   3.501   4.076   0.551 -0.2623 -0.2151 -0.0776
 1832W        W 2729   5.436   6.501   3.116 -0.2600 -0.1514 -0.0257
 1833W        W 2730   1.957   0.970   1.078  0.1134 -0.0872  0.0300
 1834W        W 2731   2.170   4.106   5.528  0.1166 -0.0922  0.5028
 1835W        W 2732   3.778   2.041   0.477 -0.2268  0.1194 -0.3196
 1836W        W 2733   5.670   2.353   0.768  0.0721  0.3855 -0.0716
 1837W        W 2734   0.740   5.174   3.801 -0.1453  0.1593 -0.1144
 1838W        W 2735   3.895   3.104   1.344  0.3108  0.5431 -0.1345
 1839W        W 2736   5.553   5.668   7.556  0.1650 -0.0567 -0.0505
 1840W        W 2737   1.179   5.114   1.237 -0.3829 -0.0113 -0.0194
 1841W        W 2738   3.770   5.744   4.787 -0.0103  0.1759  0.0996
 1842W        W 2739   5.187   1.114   5.111  0.4571 -0.1361 -0.0415
 1843W        W 2740   2.422   0.891   1.837 -0.0117  0.0575  0.0117
 1844W        W 2741   4.384   0.498   5.231  0.0532 -0.2394  0.0196
 1845W        W 2742   6.061   2.038   0.045  0.0087 -0.0138 -0.1964
 1846W        W 2743   4.625   1.528   6.703 -0.2933 -0.0679 -0.0577
 1847W        W 2744   4.951   6.626   3.259  0.0238  0.1171  0.0400
 1848W        W 2745   1.069   4.971   4.924 -0.2669  0.3118  0.0106
 1849W        W 2746   4.112   4.779   5.096 -0.2163  0.2506  0.2368
 1850W        W 2747   1.098   4.830   4.074  0.2188  0.1178 -0.1818
 1851W        W 2748   3.726   2.600   1.809 -0.1373  0.0066 -0.1130
 1852W        W 2749   0.726   3.357   5.635  0.1047  0.0809  0.2063
 1853W        W 2750   6.418   0.379   0.615 -0.0856 -0.0491 -0.2421
 1854W        W 2751   6.636   2.364   2.190  0.1613 -0.1482  0.2279
 1855W        W 2752   0.874   3.491   7.486  0.0433  0.0893  0.2532
 1856W        W 2753   7.485   4.068   5.702 -0.0571  0.0887 -0.0923
 1857W        W 2754   3.908   4.772   6.355  0.0261  0.4450 -0.1438
 1858W        W 2755   6.312   2.197   4.928  0.0592  0.0331  0.0195
 1859W        W 2756   2.724   4.733   1.823  0.2727  0.3103 -0.1751
 1860W        W 2757   7.167   1.572   6.985 -0.2503  0.1460 -0.0762
 1861W        W 2758   1.027   1.609   5.885 -0.2996  0.0869  0.0677
 1862W        W 2759   7.266   5.316   7.151 -0.0682  0.1030 -0.1977
 1863W        W 2760   4.141   3.142   5.681 -0.0796 -0.2718  0.2549
 1864W        W 2761   5.797   3.932   0.509 -0.0356  0.1245 -0.1405
 1865W        W 2762   5.290   6.159   1.421 -0.2605  0.1153  0.1959
 1866W        W 2763   2.909   3.724   1.917 -0.1016  0.0880 -0.1533
 1867W        W 2764   3.604   5.919   5.704  0.0024 -0.3543 -0.1202
 1868W        W 2765   3.949   4.330   1.919  0.0567  0.0799 -0.1524
 1869W        W 2766   6.357   3.043   5.355 -0.0991 -0.1720  0.2025
 1870W        W 2767   5.113   7.582   0.792 -0.0457 -0.0131  0.0604
 1871W        W 2768   2.239   0.629   0.823 -0.2132 -0.0455 -0.3058
 1872W        W 2769   5.708   0.004   4.189  0.2375  0.0124 -0.1287
 1873W        W 2770   0.959   5.214   0.725  0.4055  0.1365  0.1808
 1874W        W 2771   3.487   0.846   6.649  0.1203 -0.2612  0.1246
 1875W        W 2772   5.123   5.894   6.947 -0.1057  0.0928  0.1679
 1876W        W 2773   1.390   2.697   0.270  0.0831  0.3958  0.0287
 1877W        W 2774   7.160   3.519   4.496  0.0050 -0.2630  0.0758
 1878W        W 2775   6.237   1.337   7.078  0.0321 -0.2348 -0.1940
 1879W        W 2776   4.227   2.808   1.683  0.2226  0.0159  0.1509
 1880W        W 2777   2.734   2.269   5.413 -0.0400 -0.1774 -0.2343
 1881W        W 2778   6.708   1.739   2.893  0.0160 -0.0590 -0.1357
 1882W        W 2779   2.161   7.227   1.282 -0.1490  0.1898 -0.0976
 1883W        W 2780   4.566   5.773   6.768  0.1497  0.0551  0.1869
 1884W        W 2781   2.113   4.423   3.841  0.0150 -0.4796  0.2689
 1885W        W 2782   5.121   2.564   1.623  0.1835  0.1656 -0.1350
 1886W        W 2783   4.320   7.313   6.071 -0.0129 -0.0004 -0.1416
 1887W        W 2784   0.680   6.467   1.911 -0.1918 -0.3279 -0.0348
 1888W        W 2785   6.938   0.812   1.655  0.2264  0.0233  0.1158
 1889W        W 2786   6.663   5.883   2.238 -0.0205 -0.2368  0.0169
 1890W        W 2787   7.487   2.615   1.215  0.0133 -0.1136 -0.0239
 1891W        W 2788   1.076   3.156   6.607  0.0682 -0.3523  0.4017
 1892W        W 2789   0.966   2.327   5.293  0.0069  0.1117  0.0729
 1893W        W 2790   4.732   5.371   5.898  0.2475 -0.0255  0.0313
 1894W        W 2791   4.184   2.527   2.437 -0.0072  0.0218  0.2208
 1895W        W 2792   6.782   3.634   6.243  0.2849 -0.0947 -0.0661
 1896W        W 2793   6.758   6.877   0.061 -0.0003 -0.0876 -0.1182
 1897W        W 2794   1.293   2.290   2.483  0.3432  0.0458 -0.3340
 1898W        W 2795   1.210   0.592   1.539 -0.1128 -0.0610 -0.1697
 1899W        W 2796   5.347   2.727   0.778  0.1576 -0.0602  0.0414
 1900W        W 2797   2.563   4.801   4.850 -0.5497 -0.0600 -0.1117
 1901W        W 2798   3.770   3.820   1.926 -0.1462  0.1576 -0.0175
 1902W        W 2799   0.513   6.406   3.753 -0.0219 -0.1691 -0.2581
 1903W        W 2800   4.913   0.975   1.664 -0.0784  0.0178 -0.0464
 1904W        W 2801   5.255   7.203   3.763 -0.0109  0.0757  0.1930
 1905W        W 2802   5.491   7.496   4.998  0.1815  0.0169  0.0219
 1906W        W 2803   1.465   3.573   4.447  0.0519 -0.2398  0.1936
 1907W        W 2804   6.133   0.081   0.281  0.2251  0.0918  0.0927
 1908W        W 2805   4.254   0.004   4.958 -0.0097 -0.4311 -0.1643
 1909W        W 2806   2.895   3.955   4.999  0.5076 -0.1120  0.1074
 1910W        W 2807   7.536   4.695   6.520  0.3262 -0.1462  0.0217
 1911W        W 2808   3.921   2.623   1.252  0.3170  0.1253  0.2753
 1912W        W 2809   3.957   2.486   6.541  0.0041 -0.0604 -0.0011
 1913W        W 2810   5.707   4.653   5.319  0.0502  0.1398  0.1569
 1914W        W 2811   6.150   4.403   6.786  0.2320 -0.2323 -0.0223
 1915W        W 2812   5.318   3.209   0.558 -0.0884 -0.2264  0.3015
 1916W        W 2813   6.550   4.682   7.008 -0.0351  0.0687 -0.1771
 1917W        W 2814   2.302   4.747   4.238  0.0320 -0.0129 -0.1234
 1918W        W 2815   3.546   6.049   4.457 -0.2925 -0.1320  0.2587
 1919W        W 2816   6.148   1.226   4.307 -0.1140 -0.0094  0.0904
 1920W        W 2817   4.591   4.126   6.184  0.0269  0.0738  0.1999
 1921W        W 2818   4.405   2.151   3.295  0.0411  0.0673 -0.0021
 1922W        W 2819   1.318   2.795   1.605  0.4337  0.0677 -0.2152
 1923W        W 2820   6.933   5.495   3.956 -0.4058  0.1396  0.0416
 1924W        W 2821   2.572   4.273   4.697  0.1364  0.0494 -0.2993
 1925W        W 2822   6.425   6.671   5.478  0.2597  0.2238 -0.2386
 1926W        W 2823   3.951   5.042   1.408  0.1480  0.2866 -0.1183
 1927W        W 2824   7.366   3.159   5.393  0.0735  0.0946 -0.1966
 1928W        W 2825   3.991   0.441   1.238 -0.1495  0.1472  0.1484
 1929W        W 2826   4.210   2.061   5.095 -0.0334  0.3189  0.0167
 1930W        W 2827   0.480   5.342   4.740  0.1686 -0.3215 -0.0432
 1931W        W 2828   2.643   2.323   3.007  0.3409  0.1165  0.2787
 1932W        W 2829   3.231   7.040   4.381  0.2077  0.1899 -0.0861
 1933W        W 2830   1.290   7.359   1.130 -0.1888  0.1105  0.1101
 1934W        W 2831   2.971   2.898   2.445 -0.0592  0.2516 -0.2117
 1935W        W 2832   3.735   6.018   6.496  0.1783  0.1217  0.0977
 1936W        W 2833   6.373   1.015   3.462 -0.5651 -0.3362 -0.0955
 1937W        W 2834   3.974   0.759   0.798 -0.3552  0.3274 -0.1913
 1938W        W 2835   7.417   5.362   4.083  0.0864 -0.1805 -0.0312
 1939W        W 2836   0.185   5.246   6.941  0.0954 -0.0242 -0.1886
 1940W        W 2837   2.212   2.754   4.543 -0.2212 -0.2653  0.1150
 1941W        W 2838   6.108   5.581   4.396  0.2227 -0.0586 -0.3278
 1942W        W 2839   6.915   6.782   0.578 -0.2593 -0.1565 -0.0685
 1943W        W 2840   0.992   1.374   4.840  0.2422 -0.1032 -0.3379
 1944W        W 2841   1.500   7.423   1.592 -0.0313  0.0292  0.0583
 1945W        W 2842   6.529   1.131   2.972  0.0477  0.0431  0.2715
 1946W        W 2843   7.601   3.111   1.222 -0.0671  0.0567 -0.0376
 1947W        W 2844   2.174   3.640   5.756 -0.0106  0.2368 -0.0690
 1948W        W 2845   2.622   5.466   2.092  0.1871  0.2166  0.2690
 1949W        W 2846   0.503   3.982   6.837  0.2424 -0.2834 -0.3972
 1950W        W 2847   6.392   6.506   6.859  0.1130  0.2838  0.0859
 1951W        W 2848   5.696   1.083   4.915  0.0227  0.1295 -0.2605
 1952W        W 2849   0.269   4.136   2.476 -0.0249  0.0167  0.0526
 1953W        W 2850   2.681   5.026   1.129 -0.0674  0.3662  0.4118
 1954W        W 2851   6.094   4.358   0.031  0.1049  0.4153 -0.1548
 1955W        W 2852   2.976   2.710   1.572 -0.0321 -0.0208 -0.4142
 1956W        W 2853   0.041   2.098   0.537  0.2289  0.3159 -0.0939
 1957W        W 2854   5.995   6.131   6.887 -0.0509 -0.3881  0.1649
 1958W        W 2855   7.142   1.335   0.014 -0.0244 -0.0501  0.2479
 1959W        W 2856   4.809   5.480   4.491  0.0663 -0.1899 -0.0395
 1960W        W 2857   4.777   7.101   7.275  0.0042  0.3146  0.1673
 1961W        W 2858   2.056   4.308   1.254 -0.4931  0.2405  0.0651
 1962W        W 2859   2.632   6.678   0.797  0.1233 -0.0370  0.0859
 1963W        W 2860   5.304   4.326   7.404 -0.0305  0.0017  0.3762
 1964W        W 2861   4.704   3.175   5.895  0.0483 -0.0100 -0.0370
 1965W        W 2862   7.533   0.464   2.191 -0.0660  0.1999  0.0615
 1966W        W 2863   6.780   0.247   5.961  0.2153 -0.0585  0.2099
 1967W        W 2864   0.217   4.509   4.995 -0.0231  0.0894 -0.1884
 1968W        W 2865   2.381   0.647   4.502 -0.0782 -0.1265  0.0608
 1969W        W 2866   5.205   3.329   5.651  0.0695  0.0258  0.0972
 1970W        W 2867   6.871   2.322   0.885 -0.3307  0.1243 -0.1300
 1971W        W 2868   6.937   2.486   1.342  0.0191  0.1007 -0.2356
 1972W        W 2869   2.435   3.486   6.176 -0.1302 -0.2200  0.0446
 1973W        W 2870   7.056   2.282   5.830  0.1454 -0.0212  0.0708
 1974W        W 2871   0.138   0.147   6.089  0.0194  0.0295 -0.1652
 1975W        W 2872   4.907   4.995   6.429  0.0059  0.2269  0.0373
 1976W        W 2873   4.843   3.836   7.136  0.3431 -0.1821 -0.2947
 1977W        W 2874   3.651   7.587   2.511  0.2017 -0.0271  0.3134
 1978W        W 2875   4.553   1.584   2.392 -0.0197 -0.2121 -0.3855
 1979W        W 2876   3.210   6.069   2.002 -0.0376  0.1302  0.0236
 1980W        W 2877   7.239   4.301   1.583  0.1254 -0.0803  0.2973
 1981W        W 2878   4.155   1.296   1.520 -0.0631 -0.2074 -0.2293
 1982W        W 2879   4.818   7.552   3.141 -0.0123  0.2353 -0.0443
 1983W        W 2880   5.637   0.197   1.566 -0.4821 -0.0041  0.0037
 1984W        W 2881   6.971   7.270   4.363 -0.2130 -0.0067  0.0034
 1985W        W 2882   6.081   3.071   6.576  0.3945 -0.1475  0.1402
 1986W        W 2883   2.068   2.226   4.581  0.2244  0.0170 -0.2499
 1987W        W 2884   4.059   6.868   5.967  0.1849  0.1680 -0.0750
 1988W        W 2885   4.088   1.512   4.722  0.1629 -0.1224  0.3248
 1989W        W 2886   4.873   1.761   7.149  0.2049  0.1867 -0.0553
 1990W        W 2887   3.266   1.858   1.906 -0.0689 -0.0428 -0.1669
 1991W        W 2888   5.099   1.432   2.426  0.2644 -0.0638 -0.2363
 1992W        W 2889   5.322   6.183   4.203  0.1236  0.2656 -0.1351
 1993W        W 2890   6.317   3.839   6.171 -0.1992 -0.0758  0.0912
 1994W        W 2891   6.911   6.707   6.787  0.1168  0.0606  0.0129
 1995W        W 2892   6.747   2.372   3.164 -0.4012  0.0308  0.5505
 1996W        W 2893   5.686   4.379   1.931  0.1827  0.0315 -0.2152
 1997W        W 2894   6.983   0.713   1.169  0.0372 -0.0446  0.0832
 1998W        W 2895   3.222   4.681   1.644 -0.3178  0.1485  0.0692
 1999W        W 2896   4.281   5.769   4.953 -0.1336 -0.0585  0.0813
 2000W        W 2897   6.329   7.350   2.533  0.1019  0.0235 -0.0904
 2001W        W 2898   3.283   2.059   4.872 -0.0612 -0.1048  0.0825
 2002W        W 2899   7.522   2.848   3.108 -0.0161  0.1394  0.2342
 2003W        W 2900   5.704   3.467   1.459  0.1463  0.1371  0.1928
 2004W        W 2901   3.226   0.502   4.855 -0.1212 -0.0231 -0.1492
 2005W        W 2902   3.889   0.780   0.301  0.2014  0.2621  0.0173
 2006W        W 2903   7.322   2.407   6.279 -0.0709 -0.0772  0.0473
 2007W        W 2904   2.782   2.910   4.973 -0.2636  0.0092  0.0556
 2008W        W 2905   0.288   4.983   6.503  0.1664 -0.0682  0.1120
 2009W        W 2906   2.161   2.985   1.008 -0.1371 -0.0829 -0.0633
 2010W        W 2907   2.528   0.714   7.240 -0.2364  0.3464 -0.1104
 2011W        W 2908   2.000   7.484   1.806  0.0793  0.0073 -0.2052
 2012W        W 2909   2.575   2.544   0.783 -0.0632  0.4348  0.0462
 2013W        W 2910   1.003   6.017   2.635 -0.0150  0.2036  0.3933
 2014W        W 2911   0.034   4.580   7.453 -0.1610  0.2002 -0.0714
 2015W        W 2912   6.485   1.553   3.307  0.0323  0.0221  0.0908
 2016W        W 2913   1.916   2.205   3.538 -0.0963 -0.1910  0.0624
 2017W        W 2914   3.449   5.330   4.969  0.3207 -0.3615 -0.0582
 2018W        W 2915   2.398   2.695   5.780  0.0403  0.0693 -0.0426
 2019W        W 2916   3.244   0.449   0.019 -0.2665 -0.0196  0.0699
 2020W        W 2917   0.873   3.373   4.338  0.0284  0.1271  0.0319
 2021W        W 2918   0.452   4.984   1.916 -0.0878  0.0494 -0.0393
 2022W        W 2919   4.668   1.451   1.776 -0.0159  0.1171  0.0998
 2023W        W 2920   2.744   5.086   6.645 -0.0061  0.1668  0.0991
 2024W        W 2921   2.489   4.835   6.177 -0.1105  0.0146  0.0887
 2025W        W 2922   1.842   2.716   1.793 -0.2577  0.1238 -0.2628
 2026W        W 2923   0.127   6.265   0.169  0.0785 -0.1338  0.0640
 2027W        W 2924   7.476   4.858   7.050 -0.0780 -0.2191 -0.2072
 2028W        W 2925   7.290   7.082   4.735 -0.0980 -0.0800 -0.2886
 2029W        W 2926   2.292   3.834   2.445  0.0259  0.0837  0.1665
 2030W        W 2927   0.228   3.143   0.437  0.0351 -0.1632  0.1780
 2031W        W 2928   1.511   3.177   2.554 -0.2865  0.0839 -0.1076
 2032W        W 2929   4.518   6.817   1.937 -0.0702 -0.1414  0.2961
 2033W        W 2930   0.219   5.025   5.552  0.2634  0.0193  0.1529
 2034W        W 2931   1.916   1.708   2.164 -0.2608  0.2270 -0.4095
 2035W        W 2932   2.111   0.967   4.091 -0.2406  0.0747  0.1753
 2036W        W 2933   1.898   3.476   0.457 -0.0820 -0.1248  0.0193
 2037W        W 2934   4.032   2.350   5.587 -0.2676 -0.1341  0.2305
 2038W        W 2935   7.192   4.098   2.132  0.1736 -0.0987  0.0028
 2039W        W 2936   6.432   1.301   2.179 -0.0098 -0.1454 -0.0511
 2040W        W 2937   4.060   6.217   4.450 -0.2187 -0.0546 -0.1196
 2041W        W 2938   4.522   1.876   2.854  0.0653  0.2001  0.1697
 2042W        W 2939   3.680   5.847   7.065 -0.1907 -0.0842 -0.0577
 2043W        W 2940   7.535   6.824   1.147  0.1079  0.2455 -0.1053
 2044W        W 2941   2.277   0.799   0.118 -0.1957 -0.1277 -0.1109
 2045W        W 2942   3.929   5.846   0.830 -0.3724 -0.1593  0.2347
 2046W        W 2943   3.269   6.553   2.478  0.3985  0.0085 -0.0516
 2047W        W 2944   7.573   1.774   2.377 -0.0262 -0.1607  0.4489
 2048W        W 2945   4.549   5.992   3.151 -0.0412 -0.1801  0.2060
 2049W        W 2946   3.355   0.780   3.536  0.0529 -0.2013  0.1237
 2050W        W 2947   5.358   5.647   5.784 -0.0266  0.0105 -0.2648
 2051W        W 2948   1.498   2.684   0.744  0.0180  0.0048  0.0044
 2052W        W 2949   1.092   3.043   5.791 -0.2595 -0.1059  0.1160
 2053W        W 2950   4.270   5.067   7.507  0.0173 -0.1996  0.0257
 2054W        W 2951   0.282   4.146   5.386  0.1982  0.2794  0.0684
 2055W        W 2952   5.748   5.548   5.450  0.3514  0.2834 -0.0667
 2056W        W 2953   2.998   7.355   2.549  0.0904  0.1020  0.1972
 2057W        W 2954   6.948   0.077   5.572 -0.0174  0.0948 -0.2651
 2058W        W 2955   3.864   5.408   2.002  0.0110 -0.2169 -0.1485
 2059W        W 2956   1.798   4.386   4.349 -0.2981  0.0744 -0.4005
 2060W        W 2957   6.779   2.089   5.345  0.0926  0.0175  0.2121
 2061W        W 2958   2.596   4.720   5.339 -0.1985 -0.2356 -0.1414
 2062W        W 2959   5.721   0.979   3.986  0.4160  0.0694  0.2121
 2063W        W 2960   7.260   1.939   3.783  0.0138 -0.1536  0.1176
 2064W        W 2961   4.112   4.426   1.065 -0.0055 -0.1320  0.0983
 2065W        W 2962   6.703   5.488   7.314  0.0042  0.0677 -0.1244
 2066W        W 2963   3.318   2.584   2.321  0.1323 -0.1938  0.1776
 2067W        W 2964   5.352   0.425   2.832 -0.1972  0.0678  0.2932
 2068W        W 2965   0.303   0.162   1.973 -0.0758 -0.2511 -0.2060
 2069W        W 2966   7.099   2.681   4.625  0.0377  0.1832  0.0153
 2070W        W 2967   4.649   7.386   0.981 -0.1776  0.1110  0.0316
 2071W        W 2968   4.374   4.712   5.572 -0.0679  0.1309 -0.0188
 2072W        W 2969   4.312   6.711   5.567  0.2228 -0.0843 -0.4655
 2073W        W 2970   6.434   6.984   0.778  0.2466  0.1017 -0.0522
 2074W        W 2971   0.168   2.850   7.489 -0.1275  0.1689 -0.2547
 2075W        W 2972   4.540   5.252   4.169  0.2170 -0.0118 -0.1436
 2076W        W 2973   2.398   5.378   2.585  0.0693  0.1125  0.0359
 2077W        W 2974   6.088   1.214   3.052  0.0205  0.0999 -0.0641
 2078W        W 2975   0.722   5.703   0.294 -0.2267 -0.3709  0.1207
 2079W        W 2976   3.346   2.293   0.139  0.1190 -0.1617  0.1269
 2080W        W 2977   0.793   0.467   6.821 -0.0216  0.1117  0.1801
 2081W        W 2978   7.478   3.472   4.881 -0.2170  0.3233 -0.1286
 2082W        W 2979   6.760   3.807   0.421  0.2418  0.2396  0.0571
 2083W        W 2980   4.309   6.957   1.120 -0.3480 -0.0970  0.1092
 2084W        W 2981   1.274   4.390   2.132 -0.6378  0.0590  0.1043
 2085W        W 2982   3.595   1.570   0.783  0.2172  0.2198  0.1375
 2086W        W 2983   3.214   3.117   5.102  0.3195 -0.0003  0.1683
 2087W        W 2984   0.781   2.198   4.120 -0.1502  0.0222  0.1749
 2088W        W 2985   5.261   5.002   1.618  0.2860 -0.1668  0.0985
 2089W        W 2986   3.052   0.953   0.899 -0.2580 -0.0687 -0.0711
 2090W        W 2987   1.489   5.184   6.655  0.3370  0.0195  0.1080
 2091W        W 2988   2.475   1.294   7.488  0.0271 -0.4655 -0.0425
 2092W        W 2989   7.362   0.055   7.145  0.1021  0.1584 -0.1184
 2093W        W 2990   4.864   7.311   6.717 -0.0425  0.2149 -0.1522
 2094W        W 2991   2.535   4.391   2.280 -0.0181 -0.0154  0.0464
 2095W        W 2992   3.880   0.959   6.347 -0.1871 -0.0952 -0.4116
 2096W        W 2993   7.559   0.834   6.888  0.0962 -0.0164 -0.0080
 2097W        W 2994   6.419   6.823   3.670  0.0478  0.2714 -0.1922
 2098W        W 2995   2.001   1.477   3.956 -0.0798 -0.1398 -0.0800
 2099W        W 2996   0.851   5.736   3.112  0.1248  0.0033  0.3102
 2100W        W 2997   1.162   3.542   2.343 -0.1328  0.1495 -0.1774
 2101W        W 2998   2.975   1.223   2.831 -0.2869 -0.1274 -0.1239
 2102W        W 2999   1.707   1.278   2.780  0.0620  0.0057 -0.3551
 2103W        W 3000   4.366   1.458   4.362  0.1850 -0.0403  0.2699
 2104W        W 3001   2.863   2.778   5.445  0.0622  0.2431 -0.1899
 2105W        W 3002   4.213   5.142   5.782 -0.4614 -0.0164  0.0109
 2106W        W 3003   3.204   5.358   0.761  0.0461  0.1782  0.1356
 2107W        W 3004   2.631   0.864   2.687 -0.0092  0.0092  0.0219
 2108W        W 3005   0.077   7.428   3.415  0.3506 -0.2115  0.2460
 2109W        W 3006   6.132   5.471   2.280 -0.2168  0.1952 -0.0729
 2110W        W 3007   5.382   5.468   1.667  0.0456 -0.1416  0.0445
 2111W        W 3008   2.602   0.853   4.106 -0.0219  0.1488  0.2506
 2112W        W 3009   7.265   5.328   5.832  0.2171 -0.1129 -0.1220
 2113W        W 3010   5.903   3.592   6.348  0.2297  0.2253  0.1472
 2114W        W 3011   4.710   6.326   3.564  0.1206  0.1560  0.0502
 2115W        W 3012   0.899   2.386   4.794 -0.1735 -0.1656  0.1173
 2116W        W 3013   1.401   2.695   6.677  0.0618  0.2974  0.0242
 2117W        W 3014   7.619   0.410   7.543 -0.1391 -0.0687 -0.0704
 2118W        W 3015   5.725   4.368   1.446 -0.1562  0.2295  0.1593
 2119W        W 3016   7.058   1.853   6.541 -0.1264 -0.0554  0.0503
 2120W        W 3017   7.133   1.017   6.680 -0.4419 -0.1185  0.1362
 2121W        W 3018   3.276   4.044   0.034 -0.2395  0.1312  0.0655
 2122W        W 3019   2.091   4.176   2.072  0.1674 -0.0079  0.1869
 2123W        W 3020   0.647   4.976   3.362  0.0013 -0.1173  0.0517
 2124W        W 3021   7.195   5.585   1.973 -0.3161 -0.1682  0.0292
 2125W        W 3022   2.476   1.619   3.568 -0.0590 -0.1463 -0.0582
 2126W        W 3023   7.371   5.260   0.057  0.1859  0.0765 -0.1448
 2127W        W 3024   1.554   4.497   4.797  0.0044  0.1137 -0.0840
 2128W        W 3025   6.964   0.481   0.051  0.1226  0.0446 -0.2315
 2129W        W 3026   5.882   6.463   2.055 -0.3746 -0.0560 -0.1804
 2130W        W 3027   6.855   2.148   3.942 -0.0575  0.1212 -0.2383
 2131W        W 3028   5.682   3.959   1.156  0.0121  0.1069  0.1323
 2132W        W 3029   7.344   6.468   6.553 -0.1223 -0.1947  0.2979
 2133W        W 3030   5.573   5.655   6.670  0.2343  0.2725  0.0842
 2134W        W 3031   5.456   3.481   2.106  0.4351  0.1772 -0.2275
 2135W        W 3032   6.982   5.252   1.531 -0.3601  0.0802 -0.0026
 2136W        W 3033   4.729   2.146   5.017 -0.1580  0.1948  0.2652
 2137W        W 3034   1.210   1.279   2.987  0.0687 -0.1011  0.0158
 2138W        W 3035   4.373   6.031   0.140  0.1718 -0.0921  0.1503
 2139W        W 3036   0.407   4.858   3.799  0.1692  0.0039 -0.0923
 2140W        W 3037   4.383   6.284   4.914  0.1615 -0.0491 -0.0966
 2141W        W 3038   7.252   6.647   0.144  0.1746  0.0927 -0.2612
 2142W        W 3039   0.993   4.407   0.848 -0.1948  0.1957  0.0824
 2143W        W 3040   2.229   6.255   3.019  0.0004 -0.0043  0.1252
 2144W        W 3041   4.517   0.415   4.224 -0.1762 -0.0113  0.1101
 2145W        W 3042   6.872   3.830   1.640  0.2475 -0.1886 -0.1265
 2146W        W 3043   4.248   4.860   6.711  0.0175  0.1795 -0.3136
 2147W        W 3044   4.255   4.369   6.560 -0.2010 -0.1271 -0.2552
 2148W        W 3045   7.230   1.564   4.163 -0.0453  0.0768 -0.1034
 2149W        W 3046   4.744   5.332   0.726  0.2006  0.2268 -0.4069
 2150W        W 3047   6.190   7.365   2.056 -0.0662  0.2155 -0.1641
 2151W        W 3048   5.753   2.844   6.219 -0.1027  0.0436  0.0564
 2152W        W 3049   4.079   5.670   6.638 -0.1629  0.0764 -0.0512
 2153W        W 3050   6.554   2.529   5.849 -0.1199  0.0379 -0.2707
 2154W        W 3051   0.160   4.949   0.300  0.2779  0.2809 -0.1877
 2155W        W 3052   4.246   5.719   2.666 -0.1563 -0.0231  0.1114
 2156W        W 3053   7.256   1.488   3.497 -0.1059  0.3604 -0.2472
 2157W        W 3054   1.661   4.745   6.466  0.1133  0.2289  0.0335
 2158W        W 3055   5.055   0.641   5.118  0.0759  0.0557 -0.5114
 2159W        W 3056   1.432   0.636   2.413 -0.0801 -0.2441  0.1905
 2160W        W 3057   6.935   1.603   0.901 -0.0270 -0.2163 -0.3293
 2161W        W 3058   2.089   3.695   1.983  0.3377 -0.1503 -0.0897
 2162W        W 3059   5.044   4.946   7.287  0.1178 -0.2811  0.3557
 2163W        W 3060   5.708   4.559   6.120  0.0329  0.0063  0.0729
 2164W        W 3061   7.194   1.758   5.183 -0.3104  0.0334 -0.1019
 2165W        W 3062   4.812   7.262   3.545 -0.1314 -0.1301  0.1897
 2166W        W 3063   6.231   0.272   1.886 -0.0769  0.1711  0.0113
 2167W        W 3064   3.953   6.693   5.196  0.2947 -0.1400 -0.0815
 2168W        W 3065   4.874   7.420   4.039 -0.1950 -0.0124 -0.1118
 2169W        W 3066   4.551   4.218   5.698  0.0395 -0.1799  0.1216
 2170W        W 3067   3.055   5.912   0.972  0.1199 -0.0471  0.0055
 2171W        W 3068   1.161   7.239   3.107  0.1255 -0.0573 -0.1180
 2172W        W 3069   0.146   0.681   0.313  0.0815  0.2252 -0.0269
 2173W        W 3070   0.917   2.675   6.624  0.1587  0.2314 -0.1036
 2174W        W 3071   6.873   4.052   6.449  0.0858 -0.0141  0.1340
 2175W        W 3072   3.503   0.872   4.054  0.0587 -0.1070  0.1791
 2176W        W 3073   3.875   0.962   5.627  0.0660  0.2743 -0.2995
 2177W        W 3074   1.086   4.566   4.565 -0.0798  0.0390 -0.1806
 2178W        W 3075   6.768   6.915   4.042 -0.2890 -0.0891 -0.0067
 2179W        W 3076   5.889   6.936   1.108 -0.3698 -0.0536 -0.0065
 2180W        W 3077   6.858   7.618   2.638 -0.1461 -0.0973  0.0822
 2181W        W 3078   3.397   4.989   1.227 -0.0518  0.2543 -0.3868
 2182W        W 3079   5.420   4.758   5.705  0.1148  0.0657  0.0555
 2183W        W 3080   0.050   4.133   7.249 -0.0356  0.1657  0.1948
 2184W        W 3081   5.242   7.499   1.782 -0.1117  0.3666  0.1256
 2185W        W 3082   4.814   5.461   3.165  0.0351 -0.0584 -0.0531
 2186W        W 3083   7.444   3.246   3.535 -0.1506 -0.0822  0.2419
 2187W        W 3084   3.980   1.879   7.520 -0.1974  0.0918 -0.0043
 2188W        W 3085   4.388   2.960   0.527  0.3822  0.1471 -0.1027
 2189W        W 3086   7.429   7.266   1.453  0.2549  0.1227 -0.0957
 2190W        W 3087   2.549   0.141   3.428 -0.2819  0.0120 -0.0696
 2191W        W 3088   2.767   3.032   6.080  0.0378 -0.0457  0.0315
 2192W        W 3089   2.507   1.088   6.954 -0.0420  0.1947  0.1323
 2193W        W 3090   2.814   1.381   7.163 -0.1140  0.0657 -0.2625
 2194W        W 3091   4.655   0.870   4.966 -0.0320  0.1679  0.0239
 2195W        W 3092   6.493   1.836   0.707  0.3477  0.2240 -0.0589
 2196W        W 3093   0.680   2.480   0.837  0.1244  0.0971  0.0972
 2197W        W 3094   5.922   6.724   3.243 -0.0364  0.0431  0.1159
 2198W        W 3095   6.296   7.090   5.680  0.0053 -0.2847 -0.2039
 2199W        W 3096   3.533   1.389   6.415  0.0440 -0.1288  0.4056
 2200W        W 3097   5.077   6.784   6.143  0.0232 -0.1473  0.0168
 2201W        W 3098   2.179   1.151   2.638  0.4212 -0.2048  0.1364
 2202W        W 3099   0.929   1.550   4.341  0.2907 -0.2282 -0.4173
 2203W        W 3100   0.681   3.810   6.056  0.3567 -0.1012 -0.3235
 2204W        W 3101   6.527   5.136   4.547 -0.2768 -0.4157 -0.1231
 2205W        W 3102   2.788   0.602   3.618 -0.3071 -0.1250 -0.0986
 2206W        W 3103   4.604   4.971   1.701 -0.0700 -0.1727  0.1190
 2207W        W 3104   4.489   1.068   5.458  0.0981  0.0701 -0.1201
 2208W        W 3105   7.099   3.602   5.594 -0.0208  0.2344 -0.1298
 2209W        W 3106   0.489   2.477   7.499  0.4087  0.2283  0.2189
 2210W        W 3107   5.749   5.213   0.986  0.0575  0.2307 -0.0706
 2211W        W 3108   5.013   5.239   4.951  0.1599  0.5037  0.0831
 2212W        W 3109   2.257   4.695   7.586  0.2651 -0.0969 -0.1540
 2213W        W 3110   1.265   2.893   6.221 -0.0367 -0.1878 -0.1775
 2214W        W 3111   2.967   3.784   1.196 -0.0418 -0.0889 -0.0650
 2215W        W 3112   7.475   6.825   6.054  0.2981  0.0296  0.0801
 2216W        W 3113   4.913   4.224   4.927 -0.0043  0.1663 -0.1920
 2217W        W 3114   3.218   1.419   1.106  0.1902 -0.0200  0.0068
 2218W        W 3115   7.326   4.511   4.753 -0.6014  0.1786 -0.0599
 2219W        W 3116   6.166   5.954   2.586  0.0673  0.2004  0.3434
 2220W        W 3117   0.776   7.423   1.648 -0.0641  0.0095  0.0678
 2221W        W 3118   0.658   3.008   7.501  0.1323  0.2286  0.1557
 2222W        W 3119   6.264   5.640   3.464  0.1663 -0.1818  0.1553
 2223W        W 3120   2.114   2.899   2.213  0.0270 -0.1463  0.2509
 2224W        W 3121   2.443   1.390   1.754 -0.0979  0.2379  0.1093
 2225W        W 3122   6.857   1.239   4.295 -0.0635  0.4890 -0.1615
 2226W        W 3123   3.534   3.586   6.395  0.2204  0.0373  0.1170
 2227W        W 3124   4.022   6.678   4.245  0.1299  0.1604  0.1414
 2228W        W 3125   4.410   0.998   1.799  0.0118 -0.0902  0.2506
 2229W        W 3126   3.184   2.071   4.064 -0.0158 -0.5159 -0.1661
 2230W        W 3127   6.009   7.417   1.637  0.4020  0.2743  0.1746
 2231W        W 3128   0.827   4.702   2.088 -0.1222  0.1163 -0.1702
 2232W        W 3129   5.500   7.207   0.354  0.1518  0.1173 -0.1156
 2233W        W 3130   6.263   2.911   0.453 -0.0181  0.2422 -0.1113
 2234W        W 3131   6.965   5.575   6.872 -0.1543 -0.0329 -0.0439
 2235W        W 3132   6.933   6.103   4.967  0.1579 -0.2509 -0.1202
 2236W        W 3133   7.549   3.494   0.866 -0.4583  0.0731 -0.1329
 2237W        W 3134   4.853   1.900   6.436  0.3043  0.0518 -0.2512
 2238W        W 3135   0.411   1.974   6.643 -0.3629 -0.1862 -0.4485
 2239W        W 3136   5.752   0.328   5.162  0.0067 -0.0308 -0.0197
 2240W        W 3137   6.501   1.298   0.389  0.0302 -0.1438 -0.0157
 2241W        W 3138   3.523   2.204   6.785 -0.2685  0.0752 -0.2223
 2242W        W 3139   6.387   3.721   2.137  0.0557 -0.0928  0.1263
 2243W        W 3140   3.364   2.449   1.393 -0.4166  0.0265 -0.0640
 2244W        W 3141   6.658   1.169   0.862 -0.3476 -0.0752 -0.1728
 2245W        W 3142   5.520   1.194   2.071  0.0749 -0.1128 -0.1158
 2246W        W 3143   0.017   3.726   2.233  0.2381  0.2832  0.2384
 2247W        W 3144   4.220   0.481   6.291 -0.0158 -0.0663  0.0902
 2248W        W 3145   0.190   6.431   1.864  0.0917 -0.0197 -0.1742
 2249W        W 3146   1.580   2.230   0.921  0.4155  0.1565  0.1359
 2250W        W 3147   5.243   1.047   5.639 -0.0992  0.2058  0.1651
 2251W        W 3148   5.348   6.966   4.816 -0.0011 -0.2081 -0.4009
 2252W        W 3149   6.672   0.356   3.968  0.4021 -0.3157  0.0389
 2253W        W 3150   6.854   7.590   6.455  0.1519  0.2337  0.0953
 2254W        W 3151   2.032   7.089   3.176  0.2067 -0.3164  0.0262
 2255W        W 3152   4.632   7.291   5.220 -0.0335  0.1071  0.3372
 2256W        W 3153   4.223   2.998   5.034  0.1928  0.0506 -0.2350
 2257W        W 3154   6.707   4.218   0.696  0.4255  0.0550 -0.1258
 2258W        W 3155   1.468   5.283   2.777 -0.3103 -0.0084 -0.2674
 2259W        W 3156   2.233   2.873   6.873 -0.2022 -0.1488  0.2826
 2260W        W 3157   0.893   0.942   2.158  0.0984  0.1185  0.0919
 2261W        W 3158   3.408   5.414   7.216 -0.1862 -0.0784 -0.2750
 2262W        W 3159   1.701   2.631   4.547  0.1728  0.1803 -0.0652
 2263W        W 3160   2.167   2.898   1.500  0.0157 -0.1379  0.3792
 2264W        W 3161   6.947   1.104   0.423  0.0772  0.4037  0.2924
 2265W        W 3162   1.407   5.947   2.252  0.0688 -0.0237 -0.0866
 2266W        W 3163   7.393   4.233   1.002 -0.0836  0.2539 -0.1185
 2267W        W 3164   6.548   2.899   2.352 -0.2317  0.0243  0.0236
 2268W        W 3165   3.984   2.397   7.230 -0.1847 -0.0054  0.0979
 2269W        W 3166   5.501   1.119   1.581  0.0197  0.0026 -0.0261
 2270W        W 3167   6.690   6.416   3.902 -0.0086  0.0934  0.0176
 2271W        W 3168   5.510   0.301   6.472 -0.0282  0.0524  0.1454
 2272W        W 3169   0.883   6.137   0.028 -0.1018 -0.0449 -0.1302
 2273W        W 3170   5.276   2.975   6.037 -0.0797 -0.1980  0.2521
 2274W        W 3171   3.923   5.571   3.561  0.0288 -0.0410 -0.1515
 2275W        W 3172   1.612   6.068   1.792  0.0933  0.4557  0.1916
 2276W        W 3173   3.703   1.995   3.817  0.1244 -0.0799  0.4731
 2277W        W 3174   3.008   4.461   3.480  0.2129 -0.2689 -0.1210
 2278W        W 3175   6.553   3.885   4.785 -0.0075 -0.2752 -0.1784
 2279W        W 3176   6.684   6.805   1.158 -0.1331  0.0123  0.2570
 2280W        W 3177   3.776   0.899   1.346 -0.4285 -0.1251  0.4197
 2281W        W 3178   1.347   2.717   4.944 -0.0124 -0.3349 -0.1238
 2282W        W 3179   1.856   3.019   4.891 -0.1986  0.1083 -0.0347
 2283W        W 3180   4.516   6.447   0.988 -0.0787  0.3541 -0.1308
 2284W        W 3181   0.421   0.888   1.219 -0.0752 -0.0888 -0.3303
 2285W        W 3182   2.235   0.158   1.466  0.1540  0.0892  0.0260
 2286W        W 3183   0.825   5.294   2.218  0.2527  0.3693 -0.2049
 2287W        W 3184   3.902   6.019   5.238  0.1651  0.1452 -0.1623
 2288W        W 3185   6.552   6.946   1.716  0.0342 -0.1989 -0.0997
 2289W        W 3186   6.641   4.951   1.800  0.2306 -0.1744  0.0185
 2290W        W 3187   0.544   1.504   2.930  0.0555 -0.0136  0.1732
 2291W        W 3188   0.280   1.289   3.308 -0.0460 -0.2662 -0.2591
 2292W        W 3189   3.600   1.655   4.593 -0.1290 -0.0878 -0.1444
 2293W        W 3190   2.596   1.809   3.098  0.0755  0.1067 -0.0925
 2294W        W 3191   7.246   5.754   4.441  0.1617  0.1011  0.1631
 2295W        W 3192   2.366   2.832   5.278 -0.1799 -0.0783  0.2584
 2296W        W 3193   3.744   0.141   2.049 -0.0882  0.2080  0.1539
 2297W        W 3194   2.740   4.052   0.057 -0.2842 -0.0424 -0.2087
 2298W        W 3195   0.888   5.824   2.145 -0.0611  0.2257 -0.0048
 2299W        W 3196   6.989   0.185   4.427  0.0145  0.0412 -0.0142
 2300W        W 3197   0.028   2.928   6.725  0.0825  0.0833 -0.0009
 2301W        W 3198   2.332   0.238   7.574 -0.3216 -0.1079 -0.0290
 2302W        W 3199   4.045   6.214   7.407  0.0702  0.0586  0.3385
 2303W        W 3200   5.333   2.803   6.513  0.1555 -0.2819 -0.1525
 2304W        W 3201   1.819   0.980   0.041 -0.2731 -0.3425 -0.1732
 2305W        W 3202   3.355   1.399   1.573 -0.1698 -0.0123  0.0380
 2306W        W 3203   5.251   0.812   3.291  0.1896  0.0891  0.2728
 2307W        W 3204   5.082   0.476   4.399 -0.1569 -0.1094  0.1466
 2308W        W 3205   7.443   1.682   5.652  0.1484 -0.0953 -0.1404
 2309W        W 3206   6.907   4.179   3.754 -0.0915  0.4809  0.0947
 2310W        W 3207   5.629   7.600   0.654 -0.2742  0.1768  0.0513
 2311W        W 3208   6.675   5.574   0.918 -0.0559  0.1038 -0.0072
 2312W        W 3209   1.153   6.445   2.442  0.3497  0.1259  0.1111
 2313W        W 3210   1.286   2.051   2.908  0.0742  0.1712  0.2120
 2314W        W 3211   3.205   2.774   7.572  0.2151 -0.0347  0.1945
 2315W        W 3212   3.024   1.464   4.018  0.4652  0.0950 -0.0142
 2316W        W 3213   1.793   1.652   6.783 -0.3253 -0.1210 -0.1568
 2317W        W 3214   3.581   5.845   1.761 -0.0586 -0.0702 -0.1628
 2318W        W 3215   4.854   5.838   2.802 -0.1264 -0.0809  0.0732
 2319W        W 3216   0.815   0.239   2.556  0.0118  0.0652 -0.1306
 2320W        W 3217   1.947   0.936   0.503 -0.4489 -0.1520 -0.4093
 2321W        W 3218   1.841   0.499   0.080 -0.3959 -0.2267  0.3166
 2322W        W 3219   3.826   1.074   6.934  0.1262  0.2907  0.0353
 2323W        W 3220   5.068   2.517   4.905 -0.1180  0.2836 -0.1372
 2324W        W 3221   6.444   1.119   5.988 -0.1732 -0.0971 -0.2332
 2325W        W 3222   0.171   3.902   3.919 -0.0708 -0.1369 -0.0379
 2326W        W 3223   5.831   1.568   6.922  0.2951 -0.1899  0.2737
 2327W        W 3224   3.442   1.961   1.444 -0.0938  0.2579 -0.4455
 2328W        W 3225   7.438   3.630   6.000 -0.2767  0.2056  0.0125
 2329W        W 3226   2.193   4.903   2.503  0.0035 -0.0274  0.2957
 2330W        W 3227   0.860   1.286   3.489 -0.0021  0.0137 -0.1030
 2331W        W 3228   1.290   3.024   4.490 -0.3975 -0.0634  0.0435
 2332W        W 3229   3.164   0.417   5.378  0.1062  0.4501  0.0040
 2333W        W 3230   4.568   6.532   2.507 -0.2444  0.4062  0.0313
 2334W        W 3231   5.463   1.285   3.164 -0.0030  0.1994  0.1270
 2335W        W 3232   0.122   2.745   5.459  0.1007  0.0496 -0.1069
 2336W        W 3233   4.971   2.021   3.108 -0.0179  0.0044  0.1735
 2337W        W 3234   0.264   2.631   0.363  0.0419  0.0512 -0.1164
 2338W        W 3235   4.219   1.895   0.332 -0.2093  0.0569  0.0412
 2339W        W 3236   7.063   5.657   0.012  0.0140 -0.0430  0.0136
 2340W        W 3237   2.751   3.583   7.476  0.1503  0.1208 -0.2652
 2341W        W 3238   7.555   7.514   2.313 -0.1632  0.0858  0.0207
 2342W        W 3239   7.039   2.686   0.054 -0.1799  0.3546  0.4627
 2343W        W 3240   2.820   3.826   2.443 -0.1047  0.0335 -0.1402
 2344W        W 3241   7.212   3.691   1.217  0.4228 -0.1685 -0.0036
 2345W        W 3242   2.372   3.292   0.089 -0.0188 -0.2815  0.3030
 2346W        W 3243   6.708   6.325   6.016 -0.0147  0.0771 -0.1943
 2347W        W 3244   1.016   1.430   0.837 -0.2546 -0.1233 -0.0470
 2348W        W 3245   5.221   4.438   1.720 -0.1316 -0.3661  0.0024
 2349W        W 3246   0.372   7.616   1.526 -0.0851  0.1501 -0.2907
 2350W        W 3247   0.078   6.314   3.486 -0.0370  0.3739 -0.1637
 2351W        W 3248   3.461   4.702   7.094 -0.0051 -0.0778  0.2511
 2352W        W 3249   4.826   0.647   5.612  0.0692 -0.1620 -0.2390
 2353W        W 3250   2.482   6.548   1.508  0.0659 -0.0062  0.3140
 2354W        W 3251   6.555   6.305   1.366 -0.1112  0.0639  0.0655
 2355W        W 3252   0.834   2.420   7.068 -0.1287 -0.1213  0.2687
 2356W        W 3253   0.005   2.320   6.702  0.0407  0.2076  0.1632
 2357W        W 3254   1.244   0.744   3.865  0.0652 -0.1051  0.1194
 2358W        W 3255   7.014   2.382   6.702  0.1041 -0.1366 -0.1150
 2359W        W 3256   6.564   0.471   6.639 -0.2617  0.0207 -0.3692
 2360W        W 3257   0.246   6.525   3.019 -0.0628 -0.0113  0.0279
 2361W        W 3258   0.562   6.141   6.698  0.0444  0.4032 -0.2828
 2362W        W 3259   2.331   3.313   0.564  0.0871 -0.1443 -0.3594
 2363W        W 3260   1.861   3.364   2.991 -0.2425  0.4176 -0.4303
 2364W        W 3261   0.909   6.541   1.414  0.1442  0.0672 -0.0975
 2365W        W 3262   3.695   4.336   0.089  0.1745 -0.0613 -0.2535
 2366W        W 3263   2.267   4.656   0.970  0.1491 -0.0869  0.1395
 2367W        W 3264   6.518   7.236   5.173  0.2105  0.3936 -0.0792
 2368W        W 3265   6.088   1.416   3.757  0.3108 -0.1326 -0.2173
 2369W        W 3266   4.523   2.744   2.083  0.0723  0.3141  0.2173
 2370W        W 3267   4.090   3.907   2.332  0.1395 -0.2520  0.3497
 2371W        W 3268   5.500   4.678   7.601 -0.0962  0.0059 -0.0941
 2372W        W 3269   2.542   0.412   1.776 -0.1638 -0.0539 -0.0637
 2373W        W 3270   1.686   7.482   0.675 -0.1201 -0.0112 -0.1696
 2374W        W 3271   3.808   5.673   3.060  0.2620 -0.4022  0.0755
 2375W        W 3272   6.509   3.468   5.874 -0.2936 -0.2102  0.1047
 2376W        W 3273   2.875   2.592   2.109 -0.2826 -0.3091  0.2785
 2377W        W 3274   5.232   6.525   4.577  0.3468 -0.0541 -0.1501
 2378W        W 3275   2.437   6.518   7.506 -0.1431 -0.3186 -0.5926
 2379W        W 3276   0.123   5.034   7.417 -0.2619 -0.3081 -0.2478
 2380W        W 3277   4.954   5.496   3.900 -0.1660  0.2212 -0.0084
 2381W        W 3278   6.651   0.422   1.541 -0.1873  0.4365 -0.3365
 2382W        W 3279   4.013   2.777   5.995 -0.1434  0.1140 -0.3293
 2383W        W 3280   2.091   6.042   0.671  0.1623 -0.1278  0.3387
 2384W        W 3281   5.637   7.181   6.750  0.0905 -0.1630  0.1491
 2385W        W 3282   2.695   6.382   3.285  0.3133 -0.0493  0.2913
 2386W        W 3283   6.208   3.208   2.167 -0.1055 -0.0234 -0.1398
 2387W        W 3284   7.309   2.911   6.325  0.0021  0.2736  0.0334
 2388W        W 3285   4.053   6.143   3.015 -0.0295 -0.0703 -0.1313
 2389W        W 3286   5.977   3.898   1.565 -0.1518  0.0157 -0.1861
 2390W        W 3287   4.069   1.174   1.058  0.1743  0.3436 -0.2806
 2391W        W 3288   3.299   2.873   6.061 -0.0055 -0.0325  0.2515
 2392W        W 3289   7.316   2.506   0.748  0.3024 -0.1541 -0.0217
 2393W        W 3290   0.459   0.298   6.524  0.0066 -0.1576  0.1840
 2394W        W 3291   3.537   5.720   0.551  0.1748 -0.1248 -0.1242
 2395W        W 3292   3.760   1.041   4.704 -0.2048 -0.0867  0.1667
 2396W        W 3293   4.444   2.512   7.105 -0.3236 -0.0972  0.0366
 2397W        W 3294   1.910   1.662   3.473  0.0708 -0.0389  0.3373
 2398W        W 3295   2.718   4.695   0.728 -0.3708  0.0390 -0.0096
 2399W        W 3296   4.468   3.731   0.204  0.3959  0.1002  0.2213
 2400W        W 3297   1.379   5.766   2.802  0.1985 -0.1634  0.4750
 2401W        W 3298   6.720   3.001   4.568  0.0380  0.0316  0.1918
 2402W        W 3299   2.249   5.351   1.191  0.0562  0.0861 -0.3849
 2403W        W 3300   7.489   6.181   4.245  0.1290  0.2665  0.3785
 2404W        W 3301   4.319   0.443   0.525  0.2361  0.1271  0.0011
 2405W        W 3302   6.618   4.642   0.342 -0.2912 -0.0466  0.1178
 2406W        W 3303   0.834   3.875   3.415 -0.2702 -0.1612 -0.2305
 2407W        W 3304   4.782   0.695   3.424 -0.1123 -0.2549 -0.0603
 2408W        W 3305   6.542   4.698   2.637  0.1235  0.2012  0.1641
 2409W        W 3306   4.256   0.200   1.824 -0.2652 -0.2073  0.1801
 2410W        W 3307   1.017   6.268   3.127  0.0072 -0.0703 -0.1019
 2411W        W 3308   5.925   1.462   4.633 -0.1402 -0.0316 -0.1924
 2412W        W 3309   4.834   6.841   0.969  0.0705  0.3246 -0.1481
 2413W        W 3310   2.343   1.215   1.242 -0.3049 -0.2437  0.0492
 2414W        W 3311   2.788   3.282   6.569  0.1260  0.1453 -0.1790
 2415W        W 3312   7.168   4.796   1.553  0.1033  0.0071  0.0342
 2416W        W 3313   0.005   2.268   3.771 -0.1461 -0.1606 -0.0199
 2417W        W 3314   7.480   4.759   0.788  0.1434 -0.0319 -0.0210
 2418W        W 3315   3.509   5.765   1.115 -0.2397 -0.0550  0.1430
 2419W        W 3316   7.165   4.561   2.019  0.1045 -0.0726 -0.0800
 2420W        W 3317   4.399   7.357   7.461 -0.2207  0.0035  0.0134
 2421W        W 3318   1.271   3.316   4.055 -0.1164  0.0093  0.0482
 2422W        W 3319   5.745   3.053   2.136 -0.2117  0.0540 -0.0992
 2423W        W 3320   0.386   4.167   0.019 -0.0444  0.0067  0.0693
 2424W        W 3321   7.031   2.173   4.417  0.0608 -0.2247  0.1486
 2425W        W 3322   0.978   1.748   3.911  0.0118 -0.0142  0.3915
 2426W        W 3323   3.411   2.967   1.506 -0.1653  0.0353 -0.0261
 2427W        W 3324   1.206   2.017   1.189 -0.1278 -0.1586 -0.0267
 2428W        W 3325   7.102   1.165   3.870 -0.1557  0.0499  0.2387
 2429W        W 3326   5.049   0.093   5.869 -0.1601  0.0865  0.1286
 2430W        W 3327   4.352   0.553   4.685  0.2803  0.3356 -0.2239
 2431W        W 3328   7.034   5.536   3.115 -0.1826 -0.1971  0.2067
 2432W        W 3329   0.498   5.697   1.302 -0.0711 -0.1256 -0.0351
 2433W        W 3330   0.850   5.701   6.815 -0.1677 -0.1668  0.2313
 2434W        W 3331   1.343   2.157   4.902 -0.0222  0.0549  0.0377
 2435W        W 3332   4.809   6.364   6.214  0.0915  0.1130  0.1285
 2436W        W 3333   2.050   1.185   6.758  0.0448  0.1743 -0.2304
 2437W        W 3334   7.286   3.858   7.023  0.3960  0.1788  0.1028
 2438W        W 3335   3.571   5.550   5.351 -0.2051  0.0228 -0.1732
 2439W        W 3336   2.579   3.252   3.142  0.0241 -0.0550 -0.0012
 2440W        W 3337   1.500   0.684   7.281 -0.0965  0.2708 -0.4197
 2441W        W 3338   6.349   7.192   1.212 -0.3373  0.1063  0.2700
 2442W        W 3339   1.922   7.548   0.161  0.2575 -0.1240 -0.1606
 2443W        W 3340   1.790   3.297   0.921  0.3697  0.1714  0.0360
 2444W        W 3341   5.231   0.024   6.950  0.1352  0.0680 -0.0258
 2445W        W 3342   0.159   0.971   2.289 -0.1567  0.1405 -0.0206
 2446W        W 3343   1.908   3.559   4.077  0.0999  0.3049  0.4031
 2447W        W 3344   1.450   4.431   7.034 -0.1162  0.0878 -0.0623
 2448W        W 3345   7.188   4.990   4.844  0.0285 -0.0507 -0.2498
 2449W        W 3346   4.657   6.995   2.424 -0.1396 -0.0889 -0.1960
 2450W        W 3347   6.034   3.367   5.567  0.1427 -0.1684 -0.1638
 2451W        W 3348   5.932   1.046   6.734  0.0907 -0.1658  0.0520
 2452W        W 3349   3.457   2.333   0.897 -0.1964 -0.1859 -0.1095
 2453W        W 3350   5.123   7.069   4.360 -0.2659  0.2005 -0.0035
 2454W        W 3351   2.968   5.381   3.817 -0.0609  0.0630  0.1560
 2455W        W 3352   1.778   6.078   2.784 -0.1333 -0.0452 -0.0294
 2456W        W 3353   0.679   5.210   1.262 -0.2255  0.1176 -0.0362
 2457W        W 3354   3.648   3.398   4.802  0.1595  0.1736 -0.0039
 2458W        W 3355   1.676   3.537   6.775  0.2092 -0.2040 -0.2384
 2459W        W 3356   3.717   2.915   4.905 -0.0270 -0.2063 -0.1472
 2460W        W 3357   3.679   3.221   5.287 -0.3043 -0.0891  0.1306
 2461W        W 3358   4.401   0.402   2.811 -0.0118 -0.1466 -0.0037
 2462W        W 3359   0.083   6.796   0.267 -0.2648  0.0081 -0.2913
 2463W        W 3360   5.090   6.967   1.725  0.0707  0.0260 -0.0308
 2464W        W 3361   1.153   4.075   4.628 -0.2540 -0.0244  0.2123
 2465W        W 3362   0.229   1.075   4.248  0.1651  0.4111  0.1729
 2466W        W 3363   6.529   1.894   0.189  0.0364 -0.2017 -0.0484
 2467W        W 3364   3.857   2.991   7.042 -0.0096  0.0215 -0.1633
 2468W        W 3365   4.211   2.345   1.977 -0.0912 -0.2799 -0.0240
 2469W        W 3366   4.834   4.825   0.676 -0.0134 -0.0631  0.0846
 2470W        W 3367   4.854   5.636   2.315  0.0790 -0.2956 -0.1136
 2471W        W 3368   1.462   2.388   5.298  0.1000  0.1050 -0.3184
 2472W        W 3369   6.269   6.062   4.268  0.1129 -0.2879 -0.1941
 2473W        W 3370   1.695   1.751   3.029  0.1748 -0.2787 -0.0114
 2474W        W 3371   4.953   5.556   5.492 -0.3834  0.2731 -0.1865
 2475W        W 3372   1.825   6.293   1.100 -0.1161 -0.0176  0.0622
 2476W        W 3373   4.918   6.636   7.549 -0.1874 -0.3125 -0.1679
 2477W        W 3374   6.756   7.503   6.979 -0.0469 -0.0281 -0.0898
 2478W        W 3375   2.626   7.141   2.943 -0.4185  0.0460 -0.2849
 2479W        W 3376   7.198   2.216   7.549 -0.3389  0.1019  0.2836
 2480W        W 3377   6.941   7.122   6.423  0.2654 -0.0658  0.2212
 2481W        W 3378   5.273   6.022   4.719 -0.1756 -0.1968 -0.2718
 2482W        W 3379   1.062   2.642   3.963  0.0156 -0.2881  0.1164
 2483W        W 3380   0.414   7.304   0.810  0.1458  0.1941 -0.0975
 2484W        W 3381   5.178   1.006   7.557 -0.2056  0.0307  0.0052
 2485W        W 3382   0.753   5.074   4.326  0.1414  0.2560  0.1574
 2486W        W 3383   6.226   2.758   4.967 -0.4002 -0.0778  0.0360
 2487W        W 3384   2.492   2.201   1.277 -0.1990  0.0390 -0.0300
 2488W        W 3385   3.356   4.970   3.500 -0.0142 -0.0590  0.2414
 2489W        W 3386   0.900   7.576   3.424  0.0560  0.3700  0.1139
 2490W        W 3387   6.129   0.303   5.412 -0.1278 -0.2163 -0.0494
 2491W        W 3388   3.108   3.481   3.488 -0.1243  0.0884  0.2597
 2492W        W 3389   5.613   3.039   5.579 -0.2946  0.0491 -0.1044
 2493W        W 3390   0.481   1.256   2.053  0.2088 -0.2314  0.2193
 2494W        W 3391   2.705   1.875   7.218 -0.3580  0.2384  0.2848
 2495W        W 3392   3.715   1.843   5.203 -0.0773 -0.0192 -0.1609
 2496W        W 3393   6.686   0.742   3.246 -0.1136 -0.2709  0.3469
 2497W        W 3394   4.070   4.322   5.558 -0.1074 -0.2764 -0.0491
 2498W        W 3395   6.819   1.218   3.468  0.0292  0.0139  0.0566
 2499W        W 3396   4.687   1.547   0.418 -0.2282  0.0931  0.0498
 2500W        W 3397   5.284   4.206   0.379  0.1454 -0.2413 -0.0680
 2501W        W 3398   2.722   6.033   1.368 -0.1580 -0.0180  0.0416
 2502W        W 3399   5.701   1.082   7.223  0.0396 -0.0059 -0.1560
 2503W        W 3400   4.272   6.181   4.024  0.0118 -0.0087 -0.1440
 2504W        W 3401   2.693   5.535   4.202  0.2049 -0.3860 -0.1608
 2505W        W 3402   5.633   1.127   6.268 -0.1346  0.2184  0.3273
 2506W        W 3403   3.932   1.554   6.072  0.1783 -0.2119 -0.1065
 2507W        W 3404   3.777   6.007   3.510 -0.5125 -0.0612  0.0702
 2508W        W 3405   6.572   1.914   5.790  0.0325  0.1046 -0.1041
 2509W        W 3406   3.663   1.897   7.159 -0.2483 -0.0038  0.0006
 2510W        W 3407   6.737   2.151   7.011 -0.1392  0.2892 -0.2462
 2511W        W 3408   2.267   4.633   0.458 -0.2419 -0.1204 -0.0349
 2512W        W 3409   4.079   7.237   1.537  0.1205 -0.1790 -0.1946
 2513W        W 3410   1.554   6.604   2.178  0.1180 -0.0028 -0.3681
 2514W        W 3411   1.999   3.176   5.399  0.1913  0.0623  0.2404
 2515W        W 3412   0.433   2.704   6.975  0.1134 -0.0367 -0.0503
 2516W        W 3413   3.672   7.487   7.584  0.1253  0.0320 -0.1999
 2517W        W 3414   5.983   6.165   1.095 -0.2393  0.1194 -0.0092
 2518W        W 3415   6.508   2.797   1.425  0.0225  0.2389  0.0614
 2519W        W 3416   7.205   2.458   4.089  0.0076  0.0885 -0.0862
 2520W        W 3417   4.001   5.380   5.040  0.2840  0.4491 -0.3377
 2521W        W 3418   6.116   6.908   6.731 -0.0018  0.3068  0.2864
 2522W        W 3419   7.243   6.256   3.642  0.0466 -0.1041  0.3377
 2523W        W 3420   1.022   3.836   4.203 -0.3194 -0.2473  0.0529
 2524W        W 3421   6.232   3.758   7.113 -0.1701  0.4669  0.3600
 2525W        W 3422   6.298   1.985   1.409 -0.0500 -0.2001  0.1795
 2526W        W 3423   7.018   2.546   7.159  0.2061  0.0304  0.0498
 2527W        W 3424   4.452   4.101   1.793 -0.0058  0.0260  0.0014
 2528W        W 3425   4.571   4.591   7.368 -0.3170  0.0871 -0.1560
 2529W        W 3426   3.328   3.904   4.549 -0.3250  0.0699 -0.2952
 2530W        W 3427   5.161   4.771   5.150  0.0795 -0.0833 -0.3563
 2531W        W 3428   3.305   7.400   0.348  0.2869  0.0211  0.1390
 2532W        W 3429   6.809   3.871   2.402 -0.1240 -0.0648  0.2548
 2533W        W 3430   1.932   3.365   7.290 -0.2660 -0.2764  0.1717
 2534W        W 3431   3.599   2.152   4.259 -0.1999  0.2305 -0.0126
 2535W        W 3432   3.187   1.715   6.720 -0.1708  0.1389  0.0319
 2536W        W 3433   6.229   4.567   6.222 -0.2677 -0.2180  0.0617
 2537W        W 3434   1.568   5.368   1.508 -0.2111 -0.0281 -0.1759
 2538W        W 3435   4.769   3.444   1.727 -0.0818  0.2603  0.0496
 2539W        W 3436   4.000   7.101   0.170  0.2821 -0.1940 -0.0624
 2540W        W 3437   2.551   3.980   2.027  0.0455  0.0997  0.2263
 2541W        W 3438   4.056   4.611   7.520  0.1990  0.1664 -0.0324
 2542W        W 3439   5.753   0.832   5.849 -0.0127 -0.2299  0.1547
 2543W        W 3440   5.268   5.497   2.725  0.1747 -0.0248 -0.1643
 2544W        W 3441   4.245   5.383   1.624  0.1350  0.2501 -0.5170
 2545W        W 3442   4.843   0.750   3.991 -0.0638 -0.1012  0.1362
 2546W        W 3443   5.552   6.948   2.862 -0.0702  0.0608 -0.1731
 2547W        W 3444   3.695   1.523   5.641 -0.2089 -0.2392  0.0280
 2548W        W 3445   0.349   1.087   6.998 -0.2177 -0.1249  0.2331
 2549W        W 3446   0.676   4.294   3.224 -0.0325  0.1399 -0.0279
 2550W        W 3447   4.383   5.527   2.096 -0.1024 -0.0966 -0.0025
 2551W        W 3448   0.667   4.664   0.589  0.3422  0.0790  0.1249
 2552W        W 3449   6.152   6.410   4.608  0.0642  0.2841  0.3468
 2553W        W 3450   2.882   2.605   6.283  0.3417  0.3343 -0.0250
 2554W        W 3451   5.735   0.766   2.397  0.0441  0.1404 -0.3059
 2555W        W 3452   5.742   6.852   0.581  0.0168  0.5340 -0.1822
 2556W        W 3453   7.129   3.347   0.491 -0.2812  0.0877  0.0135
 2557W        W 3454   0.396   3.137   1.502 -0.0681 -0.0647  0.1380
 2558W        W 3455   4.873   0.109   1.274 -0.0973  0.0674  0.0262
 2559W        W 3456   7.607   6.372   6.063  0.1559 -0.0563 -0.0110
 2560W        W 3457   5.056   4.129   6.506  0.0596 -0.3827  0.0460
 2561W        W 3458   3.585   7.432   4.302  0.1633 -0.1205 -0.2260
 2562W        W 3459   5.814   5.226   6.742 -0.2284 -0.0072 -0.1698
 2563W        W 3460   6.794   4.683   4.677 -0.1397 -0.2961  0.0431
 2564W        W 3461   0.446   5.937   7.509  0.1655  0.0405  0.0209
 2565W        W 3462   5.034   6.381   0.984  0.0391  0.2162 -0.2698
 2566W        W 3463   0.987   4.169   6.951  0.2453  0.5007 -0.4607
 2567W        W 3464   1.750   2.218   5.817  0.2794 -0.2064 -0.1480
 2568W        W 3465   0.857   5.497   2.698 -0.1361  0.3923  0.1601
 2569W        W 3466   1.611   5.969   0.811  0.0909 -0.2384  0.4678
 2570W        W 3467   4.325   2.349   1.497  0.1120 -0.0190  0.1618
 2571W        W 3468   5.163   2.580   7.523 -0.0635 -0.0064  0.0523
 2572W        W 3469   6.255   1.911   1.984 -0.0639  0.0120  0.2663
 2573W        W 3470   7.288   0.394   0.927 -0.2425 -0.0155  0.1273
 2574W        W 3471   6.319   2.338   1.681  0.0170  0.2230 -0.1794
 2575W        W 3472   1.766   3.717   1.588 -0.0386 -0.2353 -0.0277
 2576W        W 3473   7.250   2.129   7.051  0.1069 -0.1715 -0.2033
 2577W        W 3474   5.901   0.443   0.591 -0.3055  0.2344 -0.5728
 2578W        W 3475   6.736   2.513   4.291 -0.2136  0.0177  0.2608
 2579W        W 3476   7.034   0.938   2.847  0.2789  0.0226 -0.1061
 2580W        W 3477   1.145   2.765   2.572 -0.5569 -0.1221 -0.2438
 2581W        W 3478   3.278   5.603   2.786 -0.0561  0.0848  0.1047
 2582W        W 3479   0.837   5.109   6.768 -0.2097 -0.0161  0.0515
 2583W        W 3480   1.391   5.906   1.375 -0.0765 -0.0869  0.0689
 2584W        W 3481   6.420   5.379   5.283 -0.2095 -0.0254  0.0392
 2585W        W 3482   7.552   3.561   0.318  0.1096 -0.5997  0.1337
 2586W        W 3483   6.775   1.355   2.549  0.1577  0.0028 -0.2433
 2587W        W 3484   1.737   0.812   3.202  0.1463  0.0695 -0.0738
 2588W        W 3485   0.521   7.009   0.138  0.1086 -0.3493  0.1213
 2589W        W 3486   2.935   7.291   3.388 -0.1566  0.0340 -0.0409
 2590W        W 3487   5.100   5.160   2.421 -0.0265  0.0322 -0.0756
 2591W        W 3488   5.469   5.927   3.799  0.0856  0.2102 -0.2305
 2592W        W 3489   4.792   2.280   7.389 -0.0992 -0.1116  0.4374
 2593W        W 3490   5.170   0.829   0.641 -0.0478  0.1175  0.1619
 2594W        W 3491   5.974   2.651   1.422 -0.2046  0.2008 -0.1848
 2595W        W 3492   0.412   6.465   0.524 -0.1637  0.2458 -0.3509
 2596W        W 3493   7.352   7.544   4.119 -0.0161  0.3259  0.1207
 2597W        W 3494   0.531   5.847   5.588 -0.2658 -0.0526  0.2814
 2598W        W 3495   5.267   3.519   7.094  0.1399  0.1140 -0.2327
 2599W        W 3496   0.068   7.319   7.002  0.1958  0.1143 -0.0698
 2600W        W 3497   1.991   5.151   3.378 -0.0624 -0.2887 -0.0754
 2601W        W 3498   1.199   4.471   3.384 -0.0876 -0.0274 -0.1314
 2602W        W 3499   0.878   2.620   5.724  0.0930 -0.0473  0.1887
 2603W        W 3500   5.521   0.676   4.715  0.0577 -0.3208 -0.0908
 2604W        W 3501   2.625   3.752   0.783 -0.1424 -0.0780  0.1388
 2605W        W 3502   6.857   3.241   5.386  0.0063  0.1895 -0.1095
 2606W        W 3503   4.864   6.802   3.719  0.1597 -0.3873 -0.0542
 2607W        W 3504   4.369   3.596   7.196  0.0588  0.0863 -0.1609
 2608W        W 3505   5.032   0.035   2.268 -0.2564 -0.2771 -0.0124
 2609W        W 3506   5.679   7.171   3.274 -0.3745 -0.2072  0.1940
 2610W        W 3507   6.382   5.578   4.854 -0.0747  0.0835  0.0865
 2611W        W 3508   2.101   2.416   2.634  0.0479 -0.0910 -0.1058
 2612W        W 3509   0.926   3.232   1.465 -0.2009  0.0618 -0.0796
 2613W        W 3510   2.758   0.614   2.241  0.3048  0.3167 -0.2196
 2614W        W 3511   0.752   4.144   6.466 -0.1365  0.0290  0.1469
 2615W        W 3512   3.326   0.573   7.132 -0.1277  0.0549  0.1186
 2616W        W 3513   7.237   6.182   2.158  0.3112  0.1408  0.0525
 2617W        W 3514   7.093   5.746   0.523  0.1611 -0.0174 -0.2810
 2618W        W 3515   1.682   5.490   3.749 -0.0923  0.1844  0.0928
 2619W        W 3516   0.376   2.297   4.431 -0.0080  0.2138 -0.0151
 2620W        W 3517   1.682   5.628   0.412 -0.0445 -0.0291  0.1653
 2621W        W 3518   1.966   1.825   0.715 -0.1656 -0.0387  0.1251
 2622W        W 3519   5.265   3.670   1.228 -0.0993 -0.0234  0.1736
 2623W        W 3520   5.505   0.162   2.066 -0.1239 -0.1569  0.1845
 2624W        W 3521   5.893   7.498   2.821  0.0960  0.1777 -0.0846
 2625W        W 3522   5.282   0.874   4.178 -0.1215  0.2135 -0.0718
 2626W        W 3523   5.976   6.534   6.443 -0.2042 -0.0360 -0.2257
 2627W        W 3524   1.515   5.163   0.557 -0.1026 -0.1578  0.2021
 2628W        W 3525   7.030   1.425   3.029 -0.3207 -0.0578 -0.1769
 2629W        W 3526   0.349   5.440   0.130  0.2693 -0.2961 -0.3831
 2630W        W 3527   1.773   7.505   1.193 -0.1305 -0.0404 -0.2731
 2631W        W 3528   2.739   3.438   4.993 -0.2103 -0.4614  0.2797
 2632W        W 3529   0.145   4.712   4.521 -0.0003 -0.1069 -0.1949
 2633W        W 3530   2.684   4.580   0.179 -0.2442 -0.1735  0.3451
 2634W        W 3531   1.299   3.803   7.331 -0.2190  0.1296 -0.3094
 2635W        W 3532   5.977   5.238   6.273  0.0461  0.3077 -0.3427
 2636W        W 3533   1.439   7.368   2.694 -0.1981  0.2134  0.0214
 2637W        W 3534   5.744   6.732   4.965 -0.1240 -0.0013 -0.0547
 2638W        W 3535   3.794   5.343   2.644  0.4032 -0.2035  0.2244
 2639W        W 3536   7.385   6.478   3.131 -0.2113 -0.2370  0.1837
 2640W        W 3537   4.887   5.846   5.898 -0.2045 -0.1985 -0.0391
 2641W        W 3538   7.388   5.728   6.129 -0.1324 -0.0206  0.0820
 2642W        W 3539   1.244   0.935   3.387 -0.0210  0.1617 -0.1225
 2643W        W 3540   5.271   6.804   0.792  0.2342  0.2239  0.0045
 2644W        W 3541   5.275   4.251   1.222 -0.0280  0.1721 -0.1274
 2645W        W 3542   3.068   3.605   5.317  0.1310 -0.0275  0.2054
 2646W        W 3543   5.400   6.323   2.072 -0.2111  0.0237 -0.2184
 2647W        W 3544   3.411   3.578   2.553 -0.2781  0.1635  0.0161
 2648W        W 3545   5.091   3.122   1.960  0.1914  0.2633  0.3333
 2649W        W 3546   6.492   2.586   7.141 -0.0850 -0.0232  0.0888
 2650W        W 3547   3.297   2.731   2.878 -0.0151 -0.1628 -0.0643
 2651W        W 3548   1.458   4.587   3.845  0.1547  0.2427 -0.0982
 2652W        W 3549   6.385   1.048   6.557 -0.3583  0.0765 -0.1048
 2653W        W 3550   5.083   3.018   0.133  0.0022 -0.2185 -0.0966
 2654W        W 3551   7.359   3.975   3.135  0.1004  0.0851  0.0551
 2655W        W 3552   1.406   1.696   7.095  0.2004 -0.3090 -0.0372
 2656W        W 3553   3.654   0.345   4.117  0.0983 -0.2476 -0.1364
 2657W        W 3554   4.459   2.253   6.600  0.0791  0.3388 -0.0745
 2658W        W 3555   5.971   2.247   2.843  0.0064 -0.2547  0.1185
 2659W        W 3556   5.365   6.729   7.349 -0.0290  0.1483  0.0698
 2660W        W 3557   5.165   1.741   6.771 -0.0056  0.1185  0.2151
 2661W        W 3558   0.883   1.852   4.975  0.2748 -0.0866  0.4178
 2662W        W 3559   0.780   4.837   6.240  0.1510 -0.1863 -0.0398
 2663W        W 3560   3.363   1.167   3.201  0.1835 -0.0633 -0.1308
 2664W        W 3561   5.149   7.078   3.244 -0.1586  0.0021 -0.0753
 2665W        W 3562   5.460   2.590   5.232 -0.1016  0.0416  0.1149
 2666W        W 3563   7.433   5.096   1.181 -0.0333  0.0635 -0.2989
 2667W        W 3564   4.750   0.167   1.851 -0.0518  0.0058  0.3018
 2668W        W 3565   7.496   1.765   7.326  0.0124 -0.2573 -0.0921
 2669W        W 3566   1.095   2.027   4.463  0.2844 -0.0946  0.1646
 2670W        W 3567   3.827   6.994   5.529 -0.1343 -0.2251  0.1715
 2671W        W 3568   6.230   2.714   6.291  0.0005 -0.1245 -0.0700
 2672W        W 3569   3.287   4.784   4.453  0.1211 -0.1872  0.3258
 2673W        W 3570   2.951   1.748   1.340  0.2815 -0.1936  0.1431
 2674W        W 3571   2.977   4.312   2.417  0.2997  0.2290  0.1367
 2675W        W 3572   1.813   0.851   2.031  0.0145 -0.0406  0.1164
 2676W        W 3573   7.418   2.319   2.578  0.1242 -0.0545  0.0839
 2677W        W 3574   2.852   1.918   5.761 -0.0192 -0.1195 -0.0701
 2678W        W 3575   1.818   6.037   3.336  0.1002  0.1598  0.0788
 2679W        W 3576   6.450   7.343   0.373 -0.4628 -0.0688 -0.0972
 2680W        W 3577   4.838   6.168   4.484 -0.2422  0.2219 -0.2285
 2681W        W 3578   4.480   0.105   2.323 -0.0723  0.1561 -0.3408
 2682W        W 3579   6.071   2.026   0.563  0.0103  0.0248 -0.1402
 2683W        W 3580   1.437   6.116   0.358  0.1076 -0.0831 -0.1952
 2684W        W 3581   3.836   5.278   7.547  0.0939 -0.0885  0.1185
 2685W        W 3582   1.223   3.760   6.752 -0.1375  0.1762  0.0065
 2686W        W 3583   6.557   4.283   4.481 -0.5289 -0.2885  0.0633
 2687W        W 3584   1.799   5.843   7.373  0.1227  0.3408  0.1998
 2688W        W 3585   0.413   2.311   2.277 -0.2100 -0.1538 -0.1207
 2689W        W 3586   6.804   0.675   0.698 -0.0035  0.1716 -0.1242
 2690W        W 3587   5.126   1.577   3.398  0.0054  0.1741  0.1241
 2691W        W 3588   1.758   4.698   7.377 -0.0303 -0.0759 -0.0080
 2692W        W 3589   2.511   1.975   2.624 -0.1285  0.2693  0.3948
 2693W        W 3590   7.297   4.723   0.098  0.0878 -0.1661  0.0390
 2694W        W 3591   7.603   4.893   4.070 -0.2410 -0.0724  0.0747
 2695W        W 3592   0.239   3.541   6.753  0.1004  0.3597 -0.1404
 2696W        W 3593   0.471   7.438   2.418  0.0623  0.0911  0.2141
 2697W        W 3594   6.463   2.400   1.146 -0.3010  0.5049  0.2776
 2698W        W 3595   0.508   3.645   4.175  0.2279 -0.0150  0.2816
 2699W        W 3596   3.553   7.058   3.438 -0.1427 -0.0129 -0.4619
 2700W        W 3597   4.915   4.523   5.543  0.2518  0.2582  0.0868
 2701W        W 3598   5.728   1.582   1.784  0.2433 -0.0334 -0.0295
 2702W        W 3599   5.729   2.062   6.073 -0.0148 -0.0962  0.0161
 2703W        W 3600   3.472   5.068   2.851  0.1389  0.1369  0.1830
 2704W        W 3601   2.006   5.520   0.806 -0.2069 -0.3234  0.0585
 2705W        W 3602   2.509   2.669   2.417 -0.0175  0.0909  0.0449
 2706W        W 3603   1.762   3.909   1.140 -0.2387  0.4644 -0.1992
 2707W        W 3604   5.600   4.849   2.055 -0.1673 -0.0692 -0.2650
 2708W        W 3605   0.066   1.949   5.252 -0.2734 -0.0433  0.1109
 2709W        W 3606   0.665   5.511   1.765  0.2826 -0.0605 -0.0955
 2710W        W 3607   3.740   4.770   3.270 -0.0742  0.1729  0.0075
 2711W        W 3608   7.364   2.199   4.860  0.2286 -0.1365 -0.1727
 2712W        W 3609   1.059   2.905   0.725 -0.0317 -0.0161 -0.2324
 2713W        W 3610   7.534   1.335   6.732 -0.4175 -0.1653 -0.1743
 2714W        W 3611   1.602   3.627   2.240 -0.0752 -0.0548  0.0816
 2715W        W 3612   7.465   6.429   1.449  0.2346  0.1594 -0.1384
 2716W        W 3613   6.048   5.817   5.867 -0.2034 -0.3184  0.1953
 2717W        W 3614   1.873   1.452   1.245  0.3190  0.3437  0.0544
 2718W        W 3615   5.482   1.998   1.159 -0.0692 -0.4445  0.1076
 2719W        W 3616   3.827   7.618   1.172  0.0381  0.1216  0.1783
 2720W        W 3617   1.183   3.117   0.054 -0.0047  0.0358 -0.1952
 2721W        W 3618   2.898   2.656   3.930 -0.3423  0.2811  0.1666
 2722W        W 3619   3.120   6.388   2.965  0.2519 -0.1079 -0.1108
 2723W        W 3620   5.966   0.094   3.228  0.0401  0.0262  0.0184
 2724W        W 3621   5.206   0.497   6.036 -0.3168 -0.1346 -0.0373
 2725W        W 3622   2.947   1.963   0.031  0.1079 -0.0393  0.1479
 2726W        W 3623   4.261   7.026   6.447 -0.1374  0.1550 -0.0641
 2727W        W 3624   0.503   1.282   4.576 -0.3759 -0.1030  0.0792
 2728W        W 3625   5.614   5.077   4.987  0.0931 -0.0785  0.2258
 2729W        W 3626   0.843   7.199   2.125  0.2665  0.1029  0.0467
 2730W        W 3627   1.852   5.738   1.248 -0.0022 -0.1530  0.0230
 2731W        W 3628   0.907   4.028   7.471  0.2490  0.1330  0.0193
 2732W        W 3629   2.628   5.588   1.551 -0.0800  0.1402 -0.2848
 2733W        W 3630   6.736   3.197   0.151  0.1643  0.3751 -0.0012
 2734W        W 3631   3.161   5.568   1.824 -0.1389 -0.1479 -0.0701
 2735W        W 3632   6.037   1.995   6.614  0.2444 -0.1721 -0.0217
 2736W        W 3633   6.982   5.873   5.827  0.0248  0.0244  0.0080
 2737W        W 3634   0.005   1.254   4.766  0.1812  0.2082  0.2884
 2738W        W 3635   3.499   1.139   5.910  0.3711 -0.0611 -0.0935
 2739W        W 3636   6.584   4.701   3.672 -0.2863  0.2301  0.2675
 2740W        W 3637   2.140   2.414   6.164 -0.0595  0.0302  0.1299
 2741W        W 3638   4.957   2.194   6.857 -0.1862  0.1094 -0.0058
 2742W        W 3639   1.573   4.387   0.917 -0.1497 -0.2717 -0.0429
 2743W        W 3640   0.712   3.806   0.231 -0.1430 -0.3015 -0.0384
 2744W        W 3641   3.779   0.614   2.278 -0.1040  0.3642 -0.3588
 2745W        W 3642   0.702   1.680   0.289  0.0830 -0.3180  0.1041
 2746W        W 3643   3.472   7.006   1.771 -0.2786  0.3041 -0.2641
 2747W        W 3644   6.277   6.387   1.778  0.1015  0.0791 -0.0752
 2748W        W 3645   4.685   2.642   0.192  0.0686  0.0242  0.2201
 2749W        W 3646   2.054   5.083   7.380  0.1248 -0.1426 -0.2771
 2750W        W 3647   3.941   3.611   5.545  0.0103  0.1171 -0.1648
 2751W        W 3648   6.780   2.183   1.749  0.1502  0.0615 -0.0689
 2752W        W 3649   3.585   5.174   6.224 -0.1023  0.1808  0.3581
 2753W        W 3650   4.964   3.638   6.663 -0.1115  0.0347  0.1045
 2754W        W 3651   1.164   5.250   1.796  0.1560 -0.1929 -0.1749
 2755W        W 3652   2.490   4.534   2.756  0.0950 -0.0607  0.1558
 2756W        W 3653   4.365   0.860   0.249 -0.1930 -0.3126 -0.1917
 2757W        W 3654   7.403   6.055   1.187  0.1460  0.0193  0.1485
 2758W        W 3655   1.320   4.735   1.784  0.2004  0.0043  0.2222
 2759W        W 3656   5.287   5.705   3.340 -0.1409 -0.0236  0.2257
 2760W        W 3657   3.861   1.195   4.230  0.0484 -0.1558  0.0856
 2761W        W 3658   6.568   0.759   0.258 -0.0638 -0.0258  0.0942
 2762W        W 3659   5.577   7.149   1.453  0.1670 -0.1592 -0.0434
 2763W        W 3660   3.221   0.418   3.900  0.0849 -0.3236 -0.1152
 2764W        W 3661   1.029   3.955   0.629  0.0916  0.2968  0.1765
 2765W        W 3662   0.835   2.220   2.658  0.1331  0.0306  0.2302
 2766W        W 3663   5.339   5.180   5.380  0.0582  0.1953 -0.0860
 2767W        W 3664   4.913   5.215   1.260 -0.2119 -0.0293  0.2268
 2768W        W 3665   2.461   4.204   5.158  0.1366 -0.1608 -0.1867
 2769W        W 3666   6.807   7.189   5.565  0.0252  0.0635  0.1508
 2770W        W 3667   6.114   1.779   5.974 -0.0526  0.2294  0.0246
 2771W        W 3668   1.263   2.506   3.050  0.1774  0.2657  0.1259
 2772W        W 3669   7.538   1.821   6.708  0.1606 -0.0544 -0.0061
 2773W        W 3670   4.353   0.997   4.046 -0.3160  0.1093 -0.0232
 2774W        W 3671   4.581   0.182   6.105  0.2450  0.2370 -0.1846
 2775W        W 3672   3.545   7.576   3.802  0.0195  0.0751  0.0921
 2776W        W 3673   1.348   6.772   0.157 -0.0955 -0.1590 -0.2150
 2777W        W 3674   3.280   0.148   2.777  0.0912 -0.0568 -0.1094
 2778W        W 3675   4.106   3.392   6.803 -0.0996 -0.0493 -0.2953
 2779W        W 3676   7.057   3.491   2.653 -0.1230 -0.2500  0.1710
 2780W        W 3677   4.990   1.293   7.042  0.2945  0.0193  0.1916
 2781W        W 3678   5.734   5.361   1.995  0.0464  0.1791  0.0494
 2782W        W 3679   7.063   4.670   6.751 -0.2426 -0.1960 -0.1107
 2783W        W 3680   3.658   6.951   4.709 -0.1385  0.0105  0.0971
 2784W        W 3681   2.167   0.011   0.866  0.1480 -0.1822 -0.0347
 2785W        W 3682   7.009   1.065   6.116 -0.1999  0.1643  0.3768
 2786W        W 3683   4.944   1.943   2.489 -0.0329  0.1026  0.2399
 2787W        W 3684   1.408   4.455   0.435 -0.2082  0.1768  0.3839
 2788W        W 3685   0.379   5.525   6.522 -0.0643  0.0543  0.0677
 2789W        W 3686   3.181   0.374   3.260  0.0907  0.1286  0.0605
 2790W        W 3687   0.157   7.403   2.792 -0.0421 -0.3731  0.1788
 2791W        W 3688   7.577   4.233   4.362 -0.0703  0.0503 -0.1569
 2792W        W 3689   2.969   2.567   3.387  0.0711 -0.1448 -0.0374
 2793W        W 3690   6.930   0.385   3.477  0.1493 -0.2129  0.2448
 2794W        W 3691   6.820   4.607   4.095 -0.1137 -0.0156  0.0988
 2795W        W 3692   2.192   2.101   2.258  0.0564 -0.4168  0.4384
 2796W        W 3693   6.827   1.053   5.616 -0.1309  0.1332  0.1232
 2797W        W 3694   7.525   5.241   6.252  0.0375 -0.1242 -0.1174
 2798W        W 3695   0.142   6.006   2.778 -0.1805  0.2529 -0.1806
 2799W        W 3696   7.113   7.065   1.003 -0.0521 -0.1968  0.0740
 2800W        W 3697   4.537   4.182   2.301 -0.1564  0.0060  0.0857
 2801W        W 3698   3.425   5.460   3.235  0.0053 -0.0403 -0.2165
 2802W        W 3699   2.244   3.413   6.642  0.2957  0.0148  0.0381
 2803W        W 3700   7.115   7.319   5.180  0.0322  0.3225  0.0030
 2804W        W 3701   2.371   2.096   0.812  0.2966 -0.2111 -0.1863
 2805W        W 3702   4.463   6.554   4.406  0.0509  0.1296 -0.0390
 2806W        W 3703   6.374   1.880   7.325 -0.0009  0.1394  0.2556
 2807W        W 3704   5.345   7.515   3.075  0.0797  0.3005  0.1836
 2808W        W 3705   3.499   5.572   6.663 -0.0049 -0.4091  0.1545
 2809W        W 3706   2.726   4.079   1.541 -0.2367 -0.1854  0.0688
 2810W        W 3707   4.886   2.467   5.352 -0.2822 -0.2520  0.1813
 2811W        W 3708   6.613   4.805   3.120 -0.0298  0.2560 -0.2864
 2812W        W 3709   3.022   5.209   3.064  0.1204 -0.1679  0.0224
 2813W        W 3710   7.041   7.289   1.799 -0.2799  0.0726 -0.1360
 2814W        W 3711   3.671   4.863   2.392 -0.2122  0.2726 -0.0796
 2815W        W 3712   2.576   5.115   0.161 -0.0540  0.2253 -0.2254
 2816W        W 3713   7.597   3.550   3.178  0.2817 -0.1913 -0.0227
 2817W        W 3714   2.895   2.375   2.611  0.3750 -0.0009  0.0598
 2818W        W 3715   2.466   5.160   4.494  0.3746  0.0541 -0.3000
 2819W        W 3716   5.126   7.368   5.371  0.0728 -0.0818  0.0399
 2820W        W 3717   6.390   6.361   2.330 -0.0439  0.1370 -0.1125
 2821W        W 3718   0.259   3.056   3.770 -0.1764  0.0722  0.1563
 2822W        W 3719   7.524   2.534   7.253  0.1780  0.0918 -0.2037
 2823W        W 3720   4.767   6.850   6.550 -0.1097 -0.0045 -0.0599
 2824W        W 3721   5.657   0.887   0.512 -0.0345 -0.1768  0.0827
 2825W        W 3722   4.066   3.323   0.433  0.1033  0.1679  0.4615
 2826W        W 3723   1.878   4.409   6.742  0.0907  0.3551 -0.1807
 2827W        W 3724   3.278   2.921   3.637  0.0965 -0.0176  0.0494
 2828W        W 3725   5.581   0.498   4.256 -0.1724 -0.2044 -0.3907
 2829W        W 3726   3.274   4.860   5.325 -0.1833 -0.1928  0.2574
 2830W        W 3727   5.772   4.725   6.695 -0.1704 -0.1416 -0.2856
 2831W        W 3728   2.839   5.550   0.306  0.2138 -0.1763  0.1000
 2832W        W 3729   5.801   5.321   0.393 -0.1730 -0.0138 -0.1020
 2833W        W 3730   4.398   2.657   5.715 -0.2582  0.2060  0.2109
 2834W        W 3731   5.796   2.428   6.513  0.0256 -0.1782  0.2329
 2835W        W 3732   6.399   5.612   6.187 -0.1644  0.0147 -0.0730
 2836W        W 3733   1.377   1.642   2.630  0.0909 -0.2404  0.2732
 2837W        W 3734   6.612   4.442   6.548 -0.2950  0.0402 -0.0806
 2838W        W 3735   0.984   4.297   1.706  0.0544 -0.0035 -0.2396
 2839W        W 3736   3.818   5.411   5.819  0.0830 -0.0966 -0.3169
 2840W        W 3737   5.168   5.938   1.882  0.2103 -0.0679  0.0943
 2841W        W 3738   2.569   3.901   5.962  0.4313  0.0046  0.0015
 2842W        W 3739   1.418   3.652   0.787  0.4123  0.0276 -0.3493
 2843W        W 3740   7.415   5.728   2.414  0.0071 -0.0657  0.1694
 2844W        W 3741   4.258   1.324   0.044 -0.1235 -0.3777  0.1822
 2845W        W 3742   1.153   1.785   1.712  0.1414  0.2419 -0.3322
 2846W        W 3743   0.116   2.463   5.060  0.0989  0.2424  0.2031
 2847W        W 3744   0.153   0.572   1.707  0.1320  0.1008  0.2823
 2848W        W 3745   0.094   7.297   0.432  0.3739  0.0521  0.0115
 2849W        W 3746   3.493   5.327   3.898 -0.1737  0.0009 -0.2736
 2850W        W 3747   6.702   5.355   3.512  0.0674  0.2709  0.0654
 2851W        W 3748   2.154   2.599   3.131 -0.1614 -0.0232  0.1267
 2852W        W 3749   7.150   3.500   2.069  0.0002 -0.1661 -0.3811
 2853W        W 3750   3.764   5.965   2.621  0.0598 -0.1423  0.0374
 2854W        W 3751   6.154   0.978   2.631 -0.1638  0.0008  0.1093
 2855W        W 3752   7.513   4.233   3.523  0.4091 -0.0509 -0.1256
 2856W        W 3753   5.748   1.360   0.676  0.1450 -0.0067  0.0409
 2857W        W 3754   6.154   6.144   0.614  0.2972 -0.1274 -0.0568
 2858W        W 3755   5.632   0.693   1.452  0.2635  0.2863  0.3938
 2859W        W 3756   1.806   1.302   4.421 -0.0378 -0.1617  0.0398
 2860W        W 3757   7.245   0.111   6.019 -0.1877  0.1860 -0.2007
 2861W        W 3758   4.044   0.138   3.377  0.1610 -0.2297 -0.2242
 2862W        W 3759   0.226   5.538   0.601  0.0183 -0.2685 -0.0563
 2863W        W 3760   4.520   3.717   2.098  0.0292 -0.0293  0.1056
 2864W        W 3761   2.014   0.376   7.247 -0.2905  0.0215  0.2823
 2865W        W 3762   3.204   6.061   2.560  0.0272 -0.1306  0.2684
 2866W        W 3763   2.320   3.785   7.445 -0.1182  0.2590 -0.1057
 2867W        W 3764   0.360   0.767   6.629 -0.2045 -0.1679  0.1549
 2868W        W 3765   5.659   7.276   1.975 -0.0340  0.2790  0.2907
 2869W        W 3766   6.282   5.974   0.159 -0.0817 -0.1278 -0.1463
 2870W        W 3767   4.683   2.797   1.578  0.0545 -0.2003  0.0855
 2871W        W 3768   2.024   1.108   1.634 -0.3348 -0.5319 -0.2619
 2872W        W 3769   5.473   6.336   2.561 -0.1370  0.0539 -0.0403
 2873W        W 3770   5.292   0.491   2.365  0.0216 -0.0428  0.2966
 2874W        W 3771   0.731   3.145   7.024 -0.2790 -0.2869  0.3669
 2875W        W 3772   6.064   4.250   1.147 -0.1826 -0.0776 -0.2071
 2876W        W 3773   5.380   7.581   1.233 -0.3398  0.0126  0.0146
 2877W        W 3774   0.996   4.813   5.772  0.1914 -0.0968  0.1161
 2878W        W 3775   7.119   2.373   3.517 -0.0205  0.0760  0.2878
 2879W        W 3776   0.843   4.804   1.040  0.3253 -0.0029 -0.0668
 2880W        W 3777   0.860   4.343   0.286 -0.1261  0.0300 -0.2546
 2881W        W 3778   6.739   6.276   5.491 -0.1580 -0.0128 -0.0738
 2882W        W 3779   4.892   5.887   3.525  0.1144 -0.0009 -0.0245
 2883W        W 3780   7.096   3.352   6.490  0.2100 -0.4723  0.0432
 2884W        W 3781   2.129   3.736   7.018  0.1720 -0.2371 -0.1862
 2885W        W 3782   2.034   5.022   0.285  0.0387 -0.0559  0.2623
 2886W        W 3783   6.142   0.447   5.899  0.3975  0.1597  0.1510
 2887W        W 3784   3.639   1.557   3.352 -0.0339  0.2525 -0.0093
 2888W        W 3785   5.357   4.863   0.466  0.0685 -0.3835 -0.0974
 2889W        W 3786   1.780   2.522   2.295  0.0371  0.0736 -0.4982
 2890W        W 3787   0.054   7.248   3.921  0.2999 -0.0090 -0.2100
 2891W        W 3788   0.242   3.727   6.305 -0.0493 -0.2185  0.2605
 2892W        W 3789   6.465   0.509   7.435  0.0518 -0.2585  0.1169
 2893W        W 3790   0.211   3.296   7.193  0.0893  0.2976  0.4616
 2894W        W 3791   5.231   2.110   7.246  0.2427  0.2242 -0.2725
 2895W        W 3792   5.497   0.769   5.292  0.1601 -0.2905  0.2138
 2896W        W 3793   1.395   3.539   1.271 -0.2511  0.3647 -0.1440
 2897W        W 3794   0.276   1.431   2.509  0.0311  0.0420  0.0718
 2898W        W 3795   3.808   1.575   0.312 -0.0425 -0.1932  0.0867
 2899W        W 3796   3.462   3.980   6.048  0.1791 -0.0719  0.0681
 2900W        W 3797   6.309   3.538   0.340  0.1099 -0.0478  0.0137
 2901W        W 3798   1.941   2.877   0.601 -0.0858  0.3240 -0.1581
 2902W        W 3799   5.631   0.714   7.607 -0.2378 -0.1177 -0.1879
 2903W        W 3800   4.401   1.458   3.801  0.1087 -0.0129 -0.4131
 2904W        W 3801   2.261   1.507   7.106  0.1097  0.0641 -0.0598
 2905W        W 3802   0.477   4.635   0.039 -0.1120 -0.1642  0.1718
 2906W        W 3803   4.490   4.170   7.193 -0.1181  0.1514 -0.2835
 2907W        W 3804   4.295   5.909   1.182 -0.0794 -0.0704  0.0923
 2908W        W 3805   4.208   1.199   2.575  0.1999 -0.1397 -0.0290
 2909W        W 3806   7.603   3.357   6.385 -0.1016  0.2396  0.2622
 2910W        W 3807   3.895   6.021   0.292 -0.0394 -0.0833  0.2956
 2911W        W 3808   5.251   0.303   5.443  0.1840 -0.1871 -0.2305
 2912W        W 3809   3.111   5.221   4.268 -0.0972 -0.2360  0.0813
 2913W        W 3810   3.802   4.215   7.253 -0.0333 -0.0573  0.1116
 2914W        W 3811   4.984   1.896   5.460 -0.2095 -0.0356  0.4084
 2915W        W 3812   5.179   1.427   6.366 -0.1781  0.2153  0.4144
 2916W        W 3813   3.416   6.466   1.645  0.1313  0.1289 -0.1381
 2917W        W 3814   0.318   0.603   7.100 -0.0285  0.0834  0.1625
 2918W        W 3815   1.634   5.498   2.025 -0.0989  0.0590 -0.3606
 2919W        W 3816   6.906   5.322   2.363 -0.0198 -0.0148 -0.0231
 2920W        W 3817   5.505   1.556   4.822  0.0216 -0.0866  0.0504
 2921W        W 3818   1.743   5.094   2.376  0.0337 -0.2412  0.0582
 2922W        W 3819   1.071   1.996   0.183 -0.0583 -0.0190 -0.0952
 2923W        W 3820   1.114   5.383   0.287  0.2755  0.3193 -0.0084
 2924W        W 3821   5.901   2.867   7.535  0.0174 -0.1081  0.0880
 2925W        W 3822   1.497   5.276   3.333 -0.1956  0.0618  0.0241
 2926W        W 3823   5.021   1.872   1.166 -0.0930 -0.2668 -0.2807
 2927W        W 3824   6.113   5.670   3.024 -0.0712  0.0950  0.4174
 2928W        W 3825   3.462   0.930   2.674 -0.1004  0.1360 -0.0923
 2929W        W 3826   1.741   3.046   7.006 -0.0439  0.2740  0.1383
 2930W        W 3827   0.199   3.643   2.696 -0.3027 -0.2104 -0.1011
 2931W        W 3828   4.682   7.446   5.702  0.1754 -0.3305  0.2306
 2932W        W 3829   5.528   7.207   0.914  0.0143  0.0328 -0.0511
 2933W        W 3830   1.515   3.657   3.824  0.1745 -0.0588  0.0806
 2934W        W 3831   0.195   5.006   4.998  0.2920  0.1205 -0.2999
 2935W        W 3832   4.438   2.536   5.229 -0.0914  0.3031  0.0594
 2936W        W 3833   4.868   1.093   0.317 -0.0219  0.2019  0.0146
 2937W        W 3834   5.832   4.839   1.606  0.1619 -0.0035  0.1298
 2938W        W 3835   2.759   1.358   0.974  0.0282 -0.1163 -0.0506
 2939W        W 3836   7.383   1.789   0.202 -0.0637 -0.2311 -0.0488
 2940W        W 3837   1.226   1.147   4.487 -0.2311 -0.1398  0.2555
 2941W        W 3838   6.460   7.596   3.523  0.1734  0.4576 -0.1224
 2942W        W 3839   7.614   6.575   7.432 -0.1001  0.2423 -0.0059
 2943W        W 3840   2.639   0.808   1.084 -0.1786 -0.0501 -0.0533
 2944W        W 3841   2.370   6.230   2.000  0.1953 -0.1169 -0.2515
 2945W        W 3842   2.518   5.539   7.530 -0.0200 -0.0651  0.0274
 2946W        W 3843   2.573   4.365   7.310  0.0627 -0.1643 -0.4338
 2947W        W 3844   5.296   6.011   6.127  0.1949  0.0117  0.0337
 2948W        W 3845   1.005   5.622   1.226  0.0392 -0.0440 -0.0893
 2949W        W 3846   1.868   4.899   4.457  0.0324  0.0507  0.1363
 2950W        W 3847   7.310   2.944   7.194 -0.0764  0.1446 -0.2272
 2951W        W 3848   5.182   6.346   3.609  0.0869 -0.0926 -0.2177
 2952W        W 3849   0.246   5.373   1.099 -0.0525 -0.2621  0.0314
 2953W        W 3850   6.783   3.166   2.921 -0.0243  0.1069 -0.0551
 2954W        W 3851   5.483   7.424   7.393 -0.1075  0.0448  0.2782
 2955W        W 3852   3.257   4.757   6.139 -0.1331  0.3919 -0.3080
 2956W        W 3853   3.895   2.819   2.765 -0.0848 -0.6452  0.0341
 2957W        W 3854   2.308   5.091   0.738  0.3591  0.2869 -0.0258
 2958W        W 3855   4.504   2.181   5.526  0.1998  0.0866 -0.4098
 2959W        W 3856   0.415   2.472   5.950 -0.1111 -0.0064 -0.1207
 2960W        W 3857   1.114   0.902   0.637  0.2913 -0.0843 -0.2749
 2961W        W 3858   5.529   7.044   5.300  0.0118  0.1911  0.1900
 2962W        W 3859   2.822   1.168   1.397  0.1484  0.0210  0.2286
 2963W        W 3860   3.279   0.906   1.404  0.1142 -0.2880 -0.3113
 2964W        W 3861   0.054   3.611   1.350 -0.2809  0.3004  0.0972
 2965W        W 3862   1.449   1.859   2.172 -0.0175 -0.3079  0.3105
 2966W        W 3863   0.075   1.291   5.968  0.1698 -0.5024 -0.3240
 2967W        W 3864   4.891   5.372   1.902  0.0222  0.0629  0.1705
 2968W        W 3865   3.147   3.549   0.795 -0.2750 -0.0434 -0.2459
 2969W        W 3866   6.284   5.170   1.450  0.3012  0.1148  0.3020
 2970W        W 3867   7.503   3.037   0.736  0.3018  0.2732  0.1003
 2971W        W 3868   3.157   4.850   0.816  0.2677 -0.0219  0.1677
 2972W        W 3869   6.589   0.471   5.580 -0.1469  0.0876 -0.1997
 2973W        W 3870   3.613   7.499   1.678 -0.4069 -0.2530 -0.0289
 2974W        W 3871   1.521   2.874   7.395  0.1614 -0.0447 -0.1544
 2975W        W 3872   5.005   5.759   7.477  0.2349 -0.0353  0.0770
 2976W        W 3873   3.095   1.742   4.439 -0.1934 -0.0799  0.0274
 2977W        W 3874   4.892   6.564   4.157 -0.0348 -0.0889 -0.0136
 2978W        W 3875   7.298   2.705   5.194 -0.2355  0.1537 -0.0480
 2979W        W 3876   0.398   0.247   3.438  0.0455  0.0728 -0.0216
 2980W        W 3877   1.610   7.009   1.880  0.3004  0.3107 -0.0064
 2981W        W 3878   6.865   5.142   2.786  0.0260 -0.0038  0.1862
 2982W        W 3879   6.973   5.264   4.415  0.1324 -0.1314 -0.0637
 2983W        W 3880   2.570   1.082   3.669  0.1657  0.0944  0.3839
 2984W        W 3881   7.371   6.655   1.977 -0.0823  0.0322 -0.0658
 2985W        W 3882   6.627   3.142   1.848  0.0943  0.0376 -0.2531
 2986W        W 3883   6.797   0.932   7.425 -0.0081  0.3864 -0.1612
 2987W        W 3884   4.244   7.079   2.804  0.0976  0.1247  0.0119
 2988W        W 3885   0.695   0.627   0.501 -0.3501  0.6005 -0.0763
 2989W        W 3886   4.143   1.169   3.353 -0.0511  0.2332  0.1747
 2990W        W 3887   7.306   0.101   3.202 -0.1029 -0.0835 -0.0550
 2991W        W 3888   4.083   3.647   6.395  0.3320  0.0440 -0.2777
 2992W        W 3889   0.992   1.412   5.350 -0.0889 -0.0081 -0.2161
 2993W        W 3890   1.100   3.578   4.784  0.1985 -0.0627 -0.1096
 2994W        W 3891   3.134   6.660   2.023  0.2976  0.1605  0.0041
 2995W        W 3892   1.465   5.474   0.979  0.1116 -0.2410 -0.2229
 2996W        W 3893   4.673   2.377   2.832  0.0681  0.1036 -0.0721
 2997W        W 3894   4.092   7.188   5.048 -0.0130  0.2391 -0.1477
 2998W        W 3895   5.645   5.917   1.799  0.0537 -0.0728 -0.1368
 2999W        W 3896   3.785   6.688   7.406 -0.0840  0.0326  0.2670
 3000W        W 3897   5.332   2.090   6.486  0.3017  0.3199  0.0798
 3001W        W 3898   6.723   7.355   0.849  0.0033 -0.1910 -0.0947
 3002W        W 3899   3.665   1.370   5.104 -0.0647  0.0221  0.5046
 3003W        W 3900   0.738   4.576   6.710  0.0485  0.0206 -0.0954
 3004W        W 3901   1.436   2.866   2.191 -0.0074  0.1839 -0.0479
 3005W        W 3902   2.308   2.936   6.290  0.0072  0.0724  0.3385
 3006W        W 3903   4.211   4.535   2.363  0.1173  0.1207  0.1464
 3007W        W 3904   0.436   5.040   0.765 -0.1403 -0.1797 -0.3119
 3008W        W 3905   5.966   4.259   5.079  0.3150 -0.0947 -0.0779
 3009W        W 3906   0.048   6.598   4.015  0.0127  0.2175  0.1404
 3010W        W 3907   7.602   1.378   5.254  0.0399 -0.0336  0.0720
 3011W        W 3908   2.131   3.706   0.817  0.3774 -0.1054 -0.0390
 3012W        W 3909   4.165   3.476   1.091 -0.1731  0.0716  0.1811
 3013W        W 3910   3.912   1.413   3.746 -0.0116  0.2000 -0.2737
 3014W        W 3911   6.324   0.190   2.723 -0.0052  0.4596  0.0779
 3015W        W 3912   6.127   5.177   2.720  0.1841  0.0529  0.2099
 3016W        W 3913   3.210   2.187   5.376 -0.3792  0.0654 -0.2722
 3017W        W 3914   7.031   6.696   6.252  0.0616 -0.1029  0.0126
 3018W        W 3915   3.227   6.066   6.987  0.0886  0.3289  0.0532
 3019W        W 3916   7.404   5.802   3.886 -0.0495 -0.0152  0.0080
 3020W        W 3917   7.217   0.420   3.946  0.3079  0.1042  0.0091
 3021W        W 3918   3.997   5.199   3.109 -0.1873 -0.3135  0.1176
 3022W        W 3919   1.410   6.357   2.843  0.1592 -0.0650 -0.1262
 3023W        W 3920   2.195   2.412   4.153 -0.1639 -0.0357  0.3762
 3024W        W 3921   6.858   1.021   4.766 -0.0986  0.2234 -0.1333
 3025W        W 3922   4.144   7.579   0.223  0.1652  0.0273 -0.1643
 3026W        W 3923   7.494   3.654   7.401  0.0825 -0.1956  0.0420
 3027W        W 3924   7.301   1.114   1.516 -0.1152 -0.0993  0.1159
 3028W        W 3925   3.302   4.543   2.115 -0.0554 -0.1019  0.0409
 3029W        W 3926   5.977   0.191   7.406  0.0815  0.1845  0.1098
 3030W        W 3927   5.755   2.230   5.319 -0.4420  0.0152 -0.1095
 3031W        W 3928   1.778   1.585   0.334 -0.2011  0.1925 -0.1937
 3032W        W 3929   0.749   3.165   3.341  0.4589 -0.0610 -0.0654
 3033W        W 3930   4.465   6.809   3.418 -0.0549  0.2636 -0.1248
 3034W        W 3931   4.058   5.183   4.107 -0.1291 -0.1681  0.0921
 3035W        W 3932   1.997   2.522   7.113 -0.2643 -0.1749  0.1267
 3036W        W 3933   3.340   0.407   2.406 -0.1577 -0.5699 -0.2357
 3037W        W 3934   3.426   1.829   7.581 -0.1534 -0.2305 -0.0958
 3038W        W 3935   6.844   2.046   4.877  0.1541 -0.2736  0.1844
 3039W        W 3936   3.391   7.075   1.269 -0.0659  0.3213 -0.2691
 3040W        W 3937   6.411   5.307   3.063 -0.4031  0.1409 -0.1199
 3041W        W 3938   5.209   7.044   5.731 -0.0847 -0.3302 -0.1437
 3042W        W 3939   1.853   0.403   2.357  0.0227  0.1851  0.0475
 3043W        W 3940   1.525   4.974   0.094 -0.0648 -0.0736  0.3297
 3044W        W 3941   0.226   5.335   3.757 -0.0693  0.1233 -0.3932
 3045W        W 3942   2.794   4.710   4.394 -0.1387  0.1921 -0.3108
 3046W        W 3943   6.758   0.822   3.788  0.1699  0.4448  0.1447
 3047W        W 3944   2.478   4.286   4.214 -0.1684  0.0974 -0.0707
 3048W        W 3945   1.484   3.772   5.914 -0.3016 -0.0501  0.1504
 3049W        W 3946   7.260   6.902   7.076 -0.0941  0.3614 -0.2741
 3050W        W 3947   1.241   2.121   7.266  0.0677 -0.3407 -0.2384
 3051W        W 3948   6.953   5.843   3.548  0.1930  0.5066  0.1557
 3052W        W 3949   4.398   2.771   1.191  0.0328  0.0060  0.0225
 3053W        W 3950   0.486   1.491   0.871 -0.0661  0.0344 -0.2473
 3054W        W 3951   5.782   5.761   0.827 -0.4303 -0.2160  0.1391
 3055W        W 3952   1.159   3.537   0.367  0.2532 -0.3553  0.0902
 3056W        W 3953   3.438   3.534   5.630 -0.3570  0.2569 -0.1039
 3057W        W 3954   0.692   1.670   6.362 -0.2162 -0.1840  0.1840
 3058W        W 3955   3.707   0.456   6.481 -0.0827  0.0339 -0.1893
 3059W        W 3956   3.436   4.716   6.589  0.1566 -0.1245 -0.2111
 3060W        W 3957   2.882   0.223   2.468  0.1222 -0.0031 -0.2833
 3061W        W 3958   1.378   2.161   6.715 -0.1393 -0.3115  0.2234
 3062W        W 3959   3.631   1.874   6.354  0.1557  0.0460  0.1055
 3063W        W 3960   7.072   3.995   5.986  0.1678 -0.0758  0.3237
 3064W        W 3961   4.916   4.459   7.073 -0.0223 -0.1280  0.6065
 3065W        W 3962   2.605   4.200   1.018  0.1170  0.0357 -0.1708
 3066W        W 3963   6.113   3.003   7.090 -0.1138 -0.1348  0.0263
 3067W        W 3964   5.380   3.786   5.685  0.3485 -0.0952 -0.1196
 3068W        W 3965   7.284   1.046   4.484 -0.0169  0.0159 -0.0891
 3069W        W 3966   6.396   1.451   5.596  0.1548 -0.2898 -0.0316
 3070W        W 3967   2.380   1.553   0.690  0.2387 -0.2816  0.2674
 3071W        W 3968   7.413   6.551   0.634 -0.3232 -0.1302 -0.0732
 3072W        W 3969   5.382   3.969   0.792  0.1314 -0.3679 -0.0942
 3073W        W 3970   1.352   4.979   4.507 -0.2711 -0.1964  0.1466
 3074W        W 3971   5.468   3.747   6.637  0.0852 -0.2772 -0.1585
 3075W        W 3972   0.591   5.521   3.459  0.1068 -0.1372 -0.1165
 3076W        W 3973   7.040   2.910   6.761 -0.2886 -0.2995 -0.0021
 3077W        W 3974   1.114   1.204   3.939  0.0484  0.0847  0.0943
 3078W        W 3975   6.063   0.561   0.137 -0.0946 -0.2360 -0.0259
 3079W        W 3976   3.432   1.186   7.434 -0.2160 -0.0613 -0.2314
 3080W        W 3977   0.562   6.238   2.838 -0.4744  0.4142  0.0730
 3081W        W 3978   6.388   2.489   2.767 -0.1382  0.0723 -0.0733
 3082W        W 3979   1.031   5.625   7.479  0.0561 -0.1767  0.1781
 3083W        W 3980   4.276   4.141   4.736 -0.0692  0.2021  0.2082
 3084W        W 3981   7.122   6.548   0.994  0.0206  0.0263 -0.1851
 3085W        W 3982   3.042   6.853   2.774  0.1264 -0.2068 -0.0753
 3086W        W 3983   6.772   7.493   3.957 -0.2403  0.1823 -0.2535
 3087W        W 3984   1.831   5.389   4.279  0.1005 -0.0542 -0.0064
 3088W        W 3985   3.879   0.281   0.705  0.1964  0.0409 -0.3750
 3089W        W 3986   1.183   2.546   1.108 -0.2290  0.0274  0.1981
 3090W        W 3987   4.581   1.771   4.766  0.4195 -0.0304  0.1187
 3091W        W 3988   4.650   2.275   2.360 -0.2450 -0.1702  0.1962
 3092W        W 3989   0.078   2.124   1.557 -0.2491  0.0829 -0.0811
 3093W        W 3990   5.719   6.395   3.583 -0.0052 -0.0876 -0.3499
 3094W        W 3991   6.135   4.326   5.768  0.1695  0.3075  0.0117
 3095W        W 3992   0.405   2.930   5.803  0.0921 -0.1433  0.2446
 3096W        W 3993   5.586   4.763   1.148  0.1186 -0.3450 -0.2124
 3097W        W 3994   1.344   4.851   5.291  0.2039 -0.1215 -0.2088
 3098W        W 3995   5.910   3.547   1.911  0.2275 -0.0304  0.1135
 3099W        W 3996   1.184   4.061   5.599 -0.2183  0.2669  0.2096
 3100W        W 3997   0.554   0.583   2.196  0.0721  0.1940  0.2221
 3101W        W 3998   4.935   6.270   4.984 -0.2112  0.3340  0.4865
 3102W        W 3999   2.288   0.651   1.419  0.3526 -0.0617  0.2510
 3103W        W 4000   2.056   1.594   5.813  0.0298 -0.1666  0.0841
 3104W        W 4001   3.953   0.740   2.725 -0.0043 -0.1639  0.0472
 3105W        W 4002   5.694   0.870   2.962 -0.0499 -0.3338  0.1709
 3106W        W 4003   3.424   0.708   5.671  0.0934  0.0861 -0.4105
 3107W        W 4004   6.206   1.506   2.650 -0.0426 -0.1259  0.0717
 3108W        W 4005   6.610   3.004   5.778  0.1249  0.2607 -0.2161
 3109W        W 4006   4.668   5.976   5.334 -0.1562  0.0248 -0.1154
 3110W        W 4007   6.359   2.027   3.095 -0.4499 -0.3525  0.0695
 3111W        W 4008   5.518   6.795   2.270  0.3902 -0.2320  0.1094
 3112W        W 4009   3.354   4.230   6.426  0.0822  0.0510 -0.1426
 3113W        W 4010   5.470   3.257   7.570  0.0852  0.0226 -0.1297
 3114W        W 4011   7.309   5.279   2.634  0.3635 -0.1253 -0.3691
 3115W        W 4012   7.570   0.709   1.229  0.1071 -0.1525 -0.3129
 3116W        W 4013   3.646   0.400   3.458 -0.2830 -0.3663 -0.2007
 3117W        W 4014   1.917   4.883   6.891 -0.1996  0.2513 -0.0573
 3118W        W 4015   5.195   6.049   5.408 -0.0111 -0.1212  0.1608
 3119W        W 4016   1.284   2.171   4.000 -0.1320 -0.2446 -0.4512
 3120W        W 4017   0.291   6.851   2.127  0.0580 -0.0673 -0.0602
 3121W        W 4018   7.346   7.013   0.542  0.0020  0.1460  0.0527
 3122W        W 4019   7.506   5.588   6.707  0.0935  0.2073  0.2840
 3123W        W 4020   2.236   4.694   1.935  0.0223  0.3079 -0.0046
 3124W        W 4021   0.417   3.263   2.315 -0.1729  0.2329  0.0692
 3125W        W 4022   6.115   1.446   6.413 -0.1556  0.1076 -0.2364
 3126W        W 4023   0.207   1.072   1.601  0.1632 -0.0218 -0.3705
 3127W        W 4024   1.191   1.030   7.360 -0.4066 -0.2454  0.2032
 3128W        W 4025   3.182   1.031   4.864  0.0744  0.1331  0.2809
 3129W        W 4026   7.287   0.542   7.196  0.1744  0.2578  0.1181
 3130W        W 4027   3.937   7.281   3.570 -0.1269  0.3544  0.2095
 3131W        W 4028   6.280   7.583   0.882 -0.3393  0.1137  0.2507
 3132W        W 4029   7.467   0.309   5.628  0.0991  0.1015  0.0814
 3133W        W 4030   7.096   3.240   0.990  0.0791 -0.1129  0.2515
 3134W        W 4031   0.106   5.268   1.737  0.1175  0.0527 -0.3512
 3135W        W 4032   4.370   5.336   6.986  0.1895  0.3153 -0.2022
 3136W        W 4033   3.435   0.745   1.968 -0.1156  0.2710  0.0646
 3137W        W 4034   4.706   0.058   4.638  0.2120  0.1386  0.0983
 3138W        W 4035   1.846   5.572   3.087  0.3225 -0.1750 -0.0400
 3139W        W 4036   5.642   1.849   0.687  0.1424 -0.2010 -0.4447
 3140W        W 4037   2.972   3.282   7.032  0.1293 -0.0078 -0.1203
 3141W        W 4038   0.356   5.431   2.154 -0.1793  0.1060 -0.0645
 3142W        W 4039   3.175   5.089   6.882 -0.1642  0.0087  0.0314
 3143W        W 4040   1.279   4.007   0.223 -0.0531 -0.3010  0.0583
 3144W        W 4041   3.527   7.056   6.419 -0.2143 -0.0874 -0.1117
 3145W        W 4042   0.385   5.964   0.457  0.2789 -0.1665 -0.2155
 3146W        W 4043   0.334   4.127   5.889  0.2758  0.1594 -0.3000
 3147W        W 4044   4.813   0.228   5.173  0.1251  0.0292  0.1349
 3148W        W 4045   1.431   4.844   3.103  0.1732  0.2372  0.1811
 3149W        W 4046   5.998   5.909   3.864 -0.0786  0.1589  0.1556
 3150W        W 4047   7.473   5.255   0.584  0.1789  0.2360  0.1284
 3151W        W 4048   2.386   4.224   6.845  0.1263  0.1032  0.1000
 3152W        W 4049   0.138   6.021   2.215  0.0422  0.0348  0.0358
 3153W        W 4050   6.746   3.930   7.390 -0.3647 -0.0529 -0.2709
 3154W        W 4051   6.823   2.688   2.764 -0.1392 -0.0013  0.1275
 3155W        W 4052   6.934   0.389   2.947  0.0291 -0.1594 -0.2053
 3156W        W 4053   6.876   0.966   2.202 -0.1977  0.0815  0.2335
 3157W        W 4054   6.000   0.300   1.217  0.1063 -0.0302  0.0971
 3158W        W 4055   0.603   7.472   0.332 -0.1788  0.2232 -0.2329
 3159W        W 4056   3.392   1.425   2.611  0.3296 -0.0656 -0.2335
 3160W        W 4057   5.379   5.616   5.124  0.0001  0.2148 -0.3116
 3161W        W 4058   1.070   0.496   2.108 -0.0955  0.0447  0.2083
 3162W        W 4059   6.392   4.195   7.193 -0.0953  0.1241  0.3122
 3163W        W 4060   3.969   0.692   4.317 -0.0377  0.0903  0.1737
 3164W        W 4061   0.383   4.547   0.983  0.0471  0.2168 -0.0921
 3165W        W 4062   7.328   3.975   4.720 -0.3080  0.1023 -0.0701
 3166W        W 4063   0.983   1.000   1.314 -0.1648 -0.3303 -0.2290
 3167W        W 4064   0.949   1.333   1.666  0.1922  0.1141  0.0702
 3168W        W 4065   6.522   5.466   0.171 -0.2779 -0.0335  0.1316
 3169W        W 4066   7.168   3.015   4.242  0.0394 -0.0143 -0.2228
 3170W        W 4067   1.496   1.200   0.943 -0.0579  0.0686 -0.0634
 3171W        W 4068   3.088   2.426   6.734  0.1047  0.0220 -0.0517
 3172W        W 4069   5.221   6.675   1.337  0.0934  0.1003 -0.0734
 3173W        W 4070   1.019   0.069   0.118  0.2666 -0.0906  0.0120
 3174W        W 4071   6.835   0.469   2.030  0.3632  0.1211  0.1848
 3175W        W 4072   4.691   4.922   6.922 -0.1178  0.1994 -0.2130
 3176W        W 4073   3.318   1.798   0.412  0.1648  0.3022  0.2399
 3177W        W 4074   3.180   3.112   0.512 -0.0091 -0.0735  0.0215
 3178W        W 4075   6.484   0.072   4.390 -0.1969 -0.2467 -0.0229
 3179W        W 4076   3.130   1.376   0.611  0.1227  0.2014  0.0320
 3180W        W 4077   7.085   2.792   5.753  0.4038  0.2224  0.0917
 3181W        W 4078   1.719   2.320   3.083  0.1069  0.1018  0.0154
 3182W        W 4079   3.237   7.183   7.400 -0.0872  0.2980 -0.0068
 3183W        W 4080   2.059   4.261   2.736  0.1473 -0.0592  0.0886
 3184W        W 4081   2.846   2.237   1.649 -0.0220 -0.1626  0.1342
 3185W        W 4082   6.428   4.012   6.715 -0.0862  0.0909  0.0681
 3186W        W 4083   2.806   3.472   5.814 -0.3177 -0.5328  0.0490
 3187W        W 4084   4.983   6.682   6.990 -0.0010  0.0855  0.2321
 3188W        W 4085   2.087   6.668   2.171  0.1932 -0.2866  0.2069
 3189W        W 4086   7.552   7.289   0.936 -0.1448  0.0252 -0.0672
 3190W        W 4087   0.715   4.303   4.775  0.0177  0.0646  0.2020
 3191W        W 4088   3.960   6.518   0.926  0.1199 -0.0758 -0.1803
 3192W        W 4089   0.343   5.924   3.805 -0.0642 -0.0663  0.0504
 3193W        W 4090   2.903   0.008   3.759 -0.1176  0.2918 -0.0041
 3194W        W 4091   7.087   5.057   3.306 -0.0392  0.1581  0.1747
 3195W        W 4092   0.816   3.353   2.649 -0.2673  0.0273  0.0677
 3196W        W 4093   3.977   0.019   6.294  0.2782 -0.3725 -0.0434
 3197W        W 4094   5.242   1.434   4.304  0.4901  0.1595 -0.1100
 3198W        W 4095   4.266   0.971   7.188  0.1542  0.0018 -0.2445
 3199W        W 4096   2.235   2.017   6.997  0.0904  0.0850  0.1555
 3200W        W 4097   7.035   0.645   5.857 -0.1296  0.0388  0.3187
 3201W        W 4098   3.850   3.247   1.859  0.2408  0.0417 -0.2195
 3202W        W 4099   3.653   3.842   6.796 -0.1895 -0.0616  0.1768
 3203W        W 4100   5.827   0.363   2.723  0.2534  0.1246  0.0699
 3204W        W 4101   1.237   4.496   1.289 -0.1657 -0.4866  0.1661
 3205W        W 4102   3.444   1.275   3.746  0.3369 -0.0393  0.5708
 3206W        W 4103   6.564   6.514   0.311 -0.1345  0.1629 -0.2194
 3207W        W 4104   1.616   1.770   5.661  0.1133  0.0211 -0.0916
 3208W        W 4105   4.183   1.587   7.005  0.0622  0.2738  0.0215
 3209W        W 4106   5.492   0.348   7.297 -0.3961  0.1345  0.1051
 3210W        W 4107   0.839   4.272   5.949  0.1083 -0.0965 -0.1890
 3211W        W 4108   7.013   7.292   7.345 -0.0668  0.3090  0.0281
 3212W        W 4109   0.630   2.833   2.476 -0.2545 -0.1339 -0.2836
 3213W        W 4110   4.014   3.250   7.544 -0.0109  0.2141  0.0497
 3214W        W 4111   5.985   4.147   6.255 -0.0883 -0.3174 -0.1657
 3215W        W 4112   4.663   7.210   1.500 -0.1469  0.1664  0.2102
 3216W        W 4113   1.191   0.766   6.874  0.0391  0.0285  0.1191
 3217W        W 4114   0.057   3.724   4.493 -0.0913  0.1016  0.0140
 3218W        W 4115   1.743   4.986   3.937  0.0657  0.0084  0.0644
 3219W        W 4116   1.363   6.381   3.493  0.2783 -0.1937 -0.2803
 3220W        W 4117   1.982   4.107   5.065 -0.0337 -0.1673 -0.3789
 3221W        W 4118   1.592   2.337   1.445 -0.0638  0.0075 -0.1272
 3222W        W 4119   0.349   2.461   2.811  0.4459 -0.1704 -0.2911
 3223W        W 4120   2.939   3.815   3.033 -0.2788 -0.0004  0.1025
 3224W        W 4121   7.495   0.393   3.513  0.2827  0.1171 -0.4230
 3225W        W 4122   3.796   2.817   7.527  0.0374 -0.1126 -0.1425
 3226W        W 4123   3.822   0.552   4.800 -0.1067  0.2655 -0.0246
 3227W        W 4124   7.390   3.396   6.903 -0.1655  0.0114  0.0666
 3228W        W 4125   3.284   4.157   5.284  0.0079 -0.2368 -0.0911
 3229W        W 4126   5.208   0.552   0.056  0.2750 -0.0230 -0.1934
 3230W        W 4127   1.365   4.491   5.655  0.4449 -0.2298 -0.1273
 3231W        W 4128   4.177   3.589   1.624  0.3075 -0.2500 -0.1296
 3232W        W 4129   5.856   7.479   1.153 -0.3193 -0.2178 -0.1968
 3233W        W 4130   3.047   0.278   0.427  0.1039  0.0643 -0.1575
 3234W        W 4131   3.428   0.133   0.745 -0.1349  0.2620 -0.1806
 3235W        W 4132   3.944   4.356   0.541  0.1702  0.2227  0.2708
 3236W        W 4133   4.337   0.828   1.263  0.2148  0.1043 -0.0430
 3237W        W 4134   4.360   3.104   7.230  0.0178 -0.1341  0.3379
 3238W        W 4135   6.299   5.050   3.494 -0.3347 -0.1280  0.0581
 3239W        W 4136   6.981   5.139   0.959  0.2562  0.3729  0.1445
 3240W        W 4137   2.807   7.098   2.184 -0.0230  0.0176  0.2804
 3241W        W 4138   0.105   1.799   3.494  0.0909  0.2297 -0.1916
 3242W        W 4139   7.453   3.801   1.759  0.1076  0.2193  0.1819
 3243W        W 4140   2.946   4.665   6.958 -0.2395 -0.0039 -0.3381
 3244W        W 4141   7.015   4.615   1.047  0.0450 -0.0704  0.3706
 3245W        W 4142   0.685   6.233   2.332  0.0007  0.0534 -0.0717
   7.62311   7.62311   7.62311
