Martini system from ../2_Creating_coordinates/TYR-HIS-TYR_aa.pdb
 4396
    1TYR     BB    1   3.407   5.406   2.744
    1TYR    SC1    2   3.589   5.648   2.805
    1TYR    SC2    3   3.592   5.909   2.875
    1TYR    SC3    4   3.785   5.743   2.964
    2HIS     BB    5   3.154   5.481   2.958
    2HIS    SC1    6   2.940   5.284   2.860
    2HIS    SC2    7   2.703   5.179   2.787
    2HIS    SC3    8   2.913   5.168   2.618
    3TYR     BB    9   3.078   5.790   2.878
    3TYR    SC1   10   3.191   5.940   3.125
    3TYR    SC2   11   3.258   6.148   3.283
    3TYR    SC3   12   3.405   5.922   3.288
    1TYR     BB   13   4.190   4.013   5.370
    1TYR    SC1   14   4.149   3.845   5.639
    1TYR    SC2   15   4.143   3.859   5.909
    1TYR    SC3   16   3.994   3.675   5.780
    2HIS     BB   17   4.082   4.324   5.480
    2HIS    SC1   18   4.349   4.482   5.418
    2HIS    SC2   19   4.571   4.635   5.400
    2HIS    SC3   20   4.579   4.376   5.324
    3TYR     BB   21   3.931   4.289   5.771
    3TYR    SC1   22   3.969   4.547   5.934
    3TYR    SC2   23   3.939   4.813   5.964
    3TYR    SC3   24   3.944   4.653   6.181
    1TYR     BB   25   0.869   7.124   4.706
    1TYR    SC1   26   0.614   7.287   4.628
    1TYR    SC2   27   0.485   7.523   4.596
    1TYR    SC3   28   0.345   7.299   4.655
    2HIS     BB   29   0.897   6.884   4.468
    2HIS    SC1   30   1.207   6.842   4.491
    2HIS    SC2   31   1.431   6.735   4.384
    2HIS    SC3   32   1.446   6.882   4.610
    3TYR     BB   33   0.854   6.895   4.146
    3TYR    SC1   34   1.058   6.700   4.019
    3TYR    SC2   35   1.144   6.634   3.771
    3TYR    SC3   36   1.243   6.506   3.987
    1TYR     BB   37   1.567   6.172   2.087
    1TYR    SC1   38   1.607   6.478   2.063
    1TYR    SC2   39   1.735   6.713   2.023
    1TYR    SC3   40   1.477   6.686   1.948
    2HIS     BB   41   1.439   6.114   1.794
    2HIS    SC1   42   1.361   5.825   1.720
    2HIS    SC2   43   1.412   5.601   1.580
    2HIS    SC3   44   1.179   5.625   1.714
    3TYR     BB   45   1.351   6.329   1.583
    3TYR    SC1   46   1.250   6.159   1.338
    3TYR    SC2   47   1.196   5.902   1.277
    3TYR    SC3   48   1.291   6.069   1.087
    1TYR     BB   49   6.942   4.984   7.460
    1TYR    SC1   50   6.830   4.858   7.718
    1TYR    SC2   51   6.646   4.706   7.843
    1TYR    SC3   52   6.785   4.890   7.982
    2HIS     BB   53   7.113   4.784   7.273
    2HIS    SC1   54   7.023   4.705   6.983
    2HIS    SC2   55   7.175   4.640   6.770
    2HIS    SC3   56   6.906   4.615   6.757
    3TYR     BB   57   7.304   4.558   7.414
    3TYR    SC1   58   7.205   4.570   7.720
    3TYR    SC2   59   7.040   4.464   7.906
    3TYR    SC3   60   7.195   4.677   7.968
    1TYR     BB   61   5.092   1.398   6.128
    1TYR    SC1   62   4.899   1.552   6.328
    1TYR    SC2   63   4.665   1.596   6.456
    1TYR    SC3   64   4.894   1.703   6.552
    2HIS     BB   65   5.116   1.113   6.299
    2HIS    SC1   66   5.206   0.890   6.113
    2HIS    SC2   67   5.112   0.658   6.013
    2HIS    SC3   68   5.291   0.803   5.872
    3TYR     BB   69   4.906   1.076   6.503
    3TYR    SC1   70   4.911   1.281   6.727
    3TYR    SC2   71   4.763   1.420   6.905
    3TYR    SC3   72   5.031   1.404   6.935
    1TYR     BB   73   3.261   4.675   5.586
    1TYR    SC1   74   3.323   4.979   5.611
    1TYR    SC2   75   3.169   5.198   5.574
    1TYR    SC3   76   3.395   5.216   5.720
    2HIS     BB   77   3.036   4.657   5.839
    2HIS    SC1   78   2.781   4.768   5.690
    2HIS    SC2   79   2.524   4.799   5.767
    2HIS    SC3   80   2.644   4.987   5.614
    3TYR     BB   81   3.034   4.978   6.027
    3TYR    SC1   82   3.018   5.071   6.310
    3TYR    SC2   83   2.921   5.220   6.514
    3TYR    SC3   84   3.152   5.083   6.544
    1TYR     BB   85   6.609   7.166   3.772
    1TYR    SC1   86   6.831   6.962   3.743
    1TYR    SC2   87   7.051   6.897   3.600
    1TYR    SC3   88   6.978   6.746   3.812
    2HIS     BB   89   6.708   7.334   4.061
    2HIS    SC1   90   6.726   7.621   3.918
    2HIS    SC2   91   6.786   7.884   3.916
    2HIS    SC3   92   6.603   7.787   3.744
    3TYR     BB   93   6.825   7.082   4.268
    3TYR    SC1   94   7.043   7.219   4.450
    3TYR    SC2   95   7.310   7.256   4.462
    3TYR    SC3   96   7.163   7.259   4.688
    1TYR     BB   97   1.452   5.157   7.428
    1TYR    SC1   98   1.314   5.326   7.660
    1TYR    SC2   99   1.149   5.495   7.792
    1TYR    SC3  100   1.286   5.305   7.928
    2HIS     BB  101   1.395   5.258   7.132
    2HIS    SC1  102   1.596   5.128   6.934
    2HIS    SC2  103   1.718   4.909   6.833
    2HIS    SC3  104   1.804   5.155   6.764
    3TYR     BB  105   1.293   5.557   7.019
    3TYR    SC1  106   1.100   5.619   7.264
    3TYR    SC2  107   0.898   5.685   7.430
    3TYR    SC3  108   0.952   5.425   7.381
    1TYR     BB  109   5.513   7.297   1.538
    1TYR    SC1  110   5.258   7.470   1.512
    1TYR    SC2  111   5.147   7.714   1.476
    1TYR    SC3  112   4.994   7.506   1.557
    2HIS     BB  113   5.470   7.028   1.367
    2HIS    SC1  114   5.742   6.923   1.251
    2HIS    SC2  115   5.934   6.761   1.152
    2HIS    SC3  116   6.002   6.991   1.276
    3TYR     BB  117   5.300   6.811   1.451
    3TYR    SC1  118   5.085   6.722   1.259
    3TYR    SC2  119   5.006   6.574   1.047
    3TYR    SC3  120   4.827   6.646   1.237
    1TYR     BB  121   3.579   6.983   6.495
    1TYR    SC1  122   3.809   6.777   6.467
    1TYR    SC2  123   4.070   6.712   6.479
    1TYR    SC3  124   3.885   6.519   6.443
    2HIS     BB  125   3.709   7.194   6.711
    2HIS    SC1  126   3.738   7.469   6.565
    2HIS    SC2  127   3.718   7.607   6.333
    2HIS    SC3  128   3.942   7.626   6.483
    3TYR     BB  129   4.031   7.137   6.780
    3TYR    SC1  130   4.107   6.870   6.912
    3TYR    SC2  131   4.182   6.611   6.922
    3TYR    SC3  132   4.110   6.739   7.148
    1TYR     BB  133   3.482   2.585   1.963
    1TYR    SC1  134   3.474   2.518   2.259
    1TYR    SC2  135   3.287   2.510   2.453
    1TYR    SC3  136   3.471   2.314   2.436
    2HIS     BB  137   3.316   2.319   1.827
    2HIS    SC1  138   3.252   2.413   1.541
    2HIS    SC2  139   3.076   2.473   1.346
    2HIS    SC3  140   3.329   2.565   1.332
    3TYR     BB  141   3.116   2.222   2.047
    3TYR    SC1  142   2.935   2.490   2.083
    3TYR    SC2  143   2.819   2.674   1.923
    3TYR    SC3  144   2.703   2.606   2.157
    1TYR     BB  145   5.388   2.847   6.503
    1TYR    SC1  146   5.589   2.848   6.262
    1TYR    SC2  147   5.734   2.985   6.080
    1TYR    SC3  148   5.854   2.803   6.240
    2HIS     BB  149   5.568   3.069   6.702
    2HIS    SC1  150   5.336   3.275   6.776
    2HIS    SC2  151   5.161   3.415   6.926
    2HIS    SC3  152   5.094   3.339   6.676
    3TYR     BB  153   5.750   3.265   6.499
    3TYR    SC1  154   5.991   3.449   6.515
    3TYR    SC2  155   6.180   3.598   6.392
    3TYR    SC3  156   6.243   3.456   6.612
    1TYR     BB  157   5.521   4.539   2.571
    1TYR    SC1  158   5.781   4.598   2.717
    1TYR    SC2  159   5.941   4.764   2.857
    1TYR    SC3  160   6.049   4.588   2.683
    2HIS     BB  161   5.438   4.238   2.699
    2HIS    SC1  162   5.201   4.310   2.894
    2HIS    SC2  163   5.071   4.327   3.131
    2HIS    SC3  164   5.089   4.544   2.971
    3TYR     BB  165   5.647   4.082   2.837
    3TYR    SC1  166   5.908   4.220   2.946
    3TYR    SC2  167   6.046   4.391   3.102
    3TYR    SC3  168   6.138   4.141   3.062
    1TYR     BB  169   0.674   0.916   6.659
    1TYR    SC1  170   0.905   1.092   6.781
    1TYR    SC2  171   1.141   1.041   6.902
    1TYR    SC3  172   1.124   1.237   6.717
    2HIS     BB  173   0.903   0.718   6.487
    2HIS    SC1  174   0.907   0.436   6.365
    2HIS    SC2  175   1.076   0.350   6.172
    2HIS    SC3  176   0.994   0.180   6.366
    3TYR     BB  177   1.224   0.805   6.450
    3TYR    SC1  178   1.299   0.775   6.153
    3TYR    SC2  179   1.380   0.611   5.954
    3TYR    SC3  180   1.471   0.865   5.966
    1TYR     BB  181   4.659   1.651   2.286
    1TYR    SC1  182   4.942   1.563   2.408
    1TYR    SC2  183   5.178   1.525   2.533
    1TYR    SC3  184   4.948   1.501   2.671
    2HIS     BB  185   4.558   1.838   2.539
    2HIS    SC1  186   4.290   1.948   2.430
    2HIS    SC2  187   4.027   1.916   2.376
    2HIS    SC3  188   4.169   2.105   2.246
    3TYR     BB  189   4.782   2.026   2.613
    3TYR    SC1  190   4.788   2.220   2.849
    3TYR    SC2  191   4.731   2.469   2.935
    3TYR    SC3  192   4.784   2.274   3.114
    1TYR     BB  193   0.634   4.250   2.829
    1TYR    SC1  194   0.832   4.470   2.729
    1TYR    SC2  195   0.962   4.669   2.857
    1TYR    SC3  196   1.065   4.565   2.630
    2HIS     BB  197   0.761   4.205   3.138
    2HIS    SC1  198   0.694   3.944   3.282
    2HIS    SC2  199   0.765   3.691   3.344
    2HIS    SC3  200   0.604   3.831   3.510
    3TYR     BB  201   1.054   4.299   3.180
    3TYR    SC1  202   1.187   4.214   2.906
    3TYR    SC2  203   1.405   4.124   2.775
    3TYR    SC3  204   1.164   4.117   2.655
    1TYR     BB  205   6.296   3.008   4.066
    1TYR    SC1  206   6.262   2.717   4.167
    1TYR    SC2  207   6.177   2.465   4.213
    1TYR    SC3  208   6.346   2.585   4.386
    2HIS     BB  209   6.517   3.127   4.267
    2HIS    SC1  210   6.581   3.422   4.225
    2HIS    SC2  211   6.549   3.671   4.325
    2HIS    SC3  212   6.687   3.634   4.096
    3TYR     BB  213   6.663   3.018   4.517
    3TYR    SC1  214   6.470   2.887   4.705
    3TYR    SC2  215   6.476   2.739   4.930
    3TYR    SC3  216   6.245   2.767   4.793
    1TYR     BB  217   5.559   7.798   2.922
    1TYR    SC1  218   5.806   7.617   2.932
    1TYR    SC2  219   5.962   7.435   3.057
    1TYR    SC3  220   6.000   7.488   2.795
    2HIS     BB  221   5.309   7.642   3.028
    2HIS    SC1  222   5.329   7.635   3.345
    2HIS    SC2  223   5.335   7.420   3.508
    2HIS    SC3  224   5.315   7.668   3.613
    3TYR     BB  225   5.360   7.324   2.985
    3TYR    SC1  226   5.612   7.201   2.879
    3TYR    SC2  227   5.726   6.958   2.902
    3TYR    SC3  228   5.774   7.109   2.683
    1TYR     BB  229   1.228   0.061   0.176
    1TYR    SC1  230   1.182   7.864   0.425
    1TYR    SC2  231   1.145   7.847   0.692
    1TYR    SC3  232   1.006   7.685   0.526
    2HIS     BB  233   1.037   0.308   0.284
    2HIS    SC1  234   0.969   0.576   0.149
    2HIS    SC2  235   0.760   0.745   0.120
    2HIS    SC3  236   0.988   0.788   7.983
    3TYR     BB  237   0.956   0.328   0.588
    3TYR    SC1  238   0.850   0.623   0.623
    3TYR    SC2  239   0.815   0.825   0.799
    3TYR    SC3  240   0.667   0.815   0.574
    1TYR     BB  241   0.571   0.011   2.210
    1TYR    SC1  242   0.447   0.156   1.961
    1TYR    SC2  243   0.330   0.119   1.720
    1TYR    SC3  244   0.322   0.361   1.839
    2HIS     BB  245   0.849   7.832   2.122
    2HIS    SC1  246   0.948   7.631   2.337
    2HIS    SC2  247   1.111   7.418   2.366
    2HIS    SC3  248   0.902   7.451   2.533
    3TYR     BB  249   1.049   0.018   1.977
    3TYR    SC1  250   0.897   0.118   1.739
    3TYR    SC2  251   0.751   0.292   1.594
    3TYR    SC3  252   0.746   0.029   1.534
    1TYR     BB  253   0.512   7.993   5.502
    1TYR    SC1  254   0.614   0.293   5.456
    1TYR    SC2  255   0.671   0.436   5.234
    1TYR    SC3  256   0.698   0.549   5.478
    2HIS     BB  257   0.222   0.015   5.347
    2HIS    SC1  258   7.965   7.851   5.426
    2HIS    SC2  259   7.755   7.685   5.395
    2HIS    SC3  260   7.715   7.941   5.472
    3TYR     BB  261   0.150   0.285   5.235
    3TYR    SC1  262   0.229   0.571   5.315
    3TYR    SC2  263   0.359   0.807   5.321
    3TYR    SC3  264   0.098   0.796   5.387
    1TYR     BB  265   3.092   4.710   3.866
    1TYR    SC1  266   3.204   4.524   4.084
    1TYR    SC2  267   3.181   4.475   4.349
    1TYR    SC3  268   3.178   4.270   4.173
    2HIS     BB  269   2.736   4.585   3.970
    2HIS    SC1  270   2.607   4.854   3.880
    2HIS    SC2  271   2.412   5.024   3.802
    2HIS    SC3  272   2.665   5.060   3.715
    3TYR     BB  273   2.679   4.508   4.280
    3TYR    SC1  274   2.756   4.239   4.395
    3TYR    SC2  275   2.663   4.058   4.572
    3TYR    SC3  276   2.875   3.997   4.417
    1TYR     BB  277   5.305   5.604   1.224
    1TYR    SC1  278   5.126   5.347   1.251
    1TYR    SC2  279   4.885   5.233   1.209
    1TYR    SC3  280   5.103   5.138   1.081
    2HIS     BB  281   5.389   5.541   0.897
    2HIS    SC1  282   5.520   5.787   0.761
    2HIS    SC2  283   5.412   5.927   0.557
    2HIS    SC3  284   5.598   6.042   0.716
    3TYR     BB  285   5.093   5.540   0.759
    3TYR    SC1  286   5.027   5.271   0.635
    3TYR    SC2  287   4.895   5.145   0.436
    3TYR    SC3  288   4.933   5.020   0.672
    1TYR     BB  289   1.422   3.050   1.867
    1TYR    SC1  290   1.480   3.208   2.126
    1TYR    SC2  291   1.621   3.392   2.264
    1TYR    SC3  292   1.352   3.399   2.268
    2HIS     BB  293   1.208   3.261   1.720
    2HIS    SC1  294   1.206   3.165   1.429
    2HIS    SC2  295   1.043   3.070   1.236
    2HIS    SC3  296   1.310   3.074   1.197
    3TYR     BB  297   1.075   3.465   1.861
    3TYR    SC1  298   0.876   3.655   1.726
    3TYR    SC2  299   0.796   3.814   1.523
    3TYR    SC3  300   0.707   3.860   1.774
    1TYR     BB  301   6.416   5.710   1.766
    1TYR    SC1  302   6.152   5.839   1.851
    1TYR    SC2  303   5.896   5.789   1.919
    1TYR    SC3  304   6.015   6.018   1.999
    2HIS     BB  305   6.427   5.446   1.953
    2HIS    SC1  306   6.280   5.173   1.902
    2HIS    SC2  307   6.175   5.015   2.095
    2HIS    SC3  308   6.083   4.999   1.841
    3TYR     BB  309   6.226   5.510   2.227
    3TYR    SC1  310   6.331   5.534   2.498
    3TYR    SC2  311   6.210   5.529   2.740
    3TYR    SC3  312   6.399   5.714   2.687
    1TYR     BB  313   0.199   6.229   6.906
    1TYR    SC1  314   0.287   6.355   7.185
    1TYR    SC2  315   0.478   6.340   7.376
    1TYR    SC3  316   0.375   6.580   7.306
    2HIS     BB  317   0.483   6.318   6.740
    2HIS    SC1  318   0.538   6.064   6.566
    2HIS    SC2  319   0.643   5.917   6.365
    2HIS    SC3  320   0.520   5.794   6.572
    3TYR     BB  321   0.721   6.420   6.915
    3TYR    SC1  322   0.997   6.509   6.800
    3TYR    SC2  323   1.232   6.438   6.687
    3TYR    SC3  324   1.195   6.691   6.775
    1TYR     BB  325   4.246   3.345   2.881
    1TYR    SC1  326   4.472   3.466   2.702
    1TYR    SC2  327   4.606   3.481   2.468
    1TYR    SC3  328   4.609   3.689   2.639
    2HIS     BB  329   3.998   3.600   2.828
    2HIS    SC1  330   3.691   3.554   2.774
    2HIS    SC2  331   3.426   3.575   2.824
    2HIS    SC3  332   3.512   3.455   2.598
    3TYR     BB  333   4.102   3.775   2.571
    3TYR    SC1  334   4.095   4.066   2.634
    3TYR    SC2  335   4.248   4.282   2.691
    3TYR    SC3  336   3.982   4.288   2.739
    1TYR     BB  337   2.740   1.839   4.457
    1TYR    SC1  338   2.827   1.609   4.621
    1TYR    SC2  339   2.989   1.591   4.836
    1TYR    SC3  340   2.762   1.446   4.826
    2HIS     BB  341   2.749   2.058   4.792
    2HIS    SC1  342   3.057   2.066   4.781
    2HIS    SC2  343   3.280   2.199   4.706
    2HIS    SC3  344   3.227   1.955   4.603
    3TYR     BB  345   2.718   1.946   5.114
    3TYR    SC1  346   2.737   2.201   5.295
    3TYR    SC2  347   2.794   2.330   5.525
    3TYR    SC3  348   2.698   2.468   5.313
    1TYR     BB  349   1.600   7.577   5.830
    1TYR    SC1  350   1.501   7.876   5.862
    1TYR    SC2  351   1.519   0.144   5.885
    1TYR    SC3  352   1.320   0.011   6.010
    2HIS     BB  353   1.448   7.378   5.595
    2HIS    SC1  354   1.664   7.165   5.532
    2HIS    SC2  355   1.859   7.022   5.653
    2HIS    SC3  356   1.840   7.023   5.384
    3TYR     BB  357   1.262   7.576   5.402
    3TYR    SC1  358   1.128   7.738   5.638
    3TYR    SC2  359   0.932   7.864   5.775
    3TYR    SC3  360   1.059   7.653   5.885
    1TYR     BB  361   5.713   2.043   6.709
    1TYR    SC1  362   5.841   2.313   6.658
    1TYR    SC2  363   6.041   2.459   6.551
    1TYR    SC3  364   5.814   2.580   6.633
    2HIS     BB  365   5.657   1.912   6.419
    2HIS    SC1  366   5.499   1.659   6.489
    2HIS    SC2  367   5.301   1.506   6.591
    2HIS    SC3  368   5.503   1.391   6.453
    3TYR     BB  369   5.918   1.863   6.251
    3TYR    SC1  370   6.030   2.130   6.183
    3TYR    SC2  371   6.197   2.270   6.023
    3TYR    SC3  372   5.965   2.380   6.107
    1TYR     BB  373   0.135   1.777   5.534
    1TYR    SC1  374   0.416   1.723   5.392
    1TYR    SC2  375   0.605   1.758   5.203
    1TYR    SC3  376   0.668   1.637   5.436
    2HIS     BB  377   0.064   2.081   5.475
    2HIS    SC1  378   7.792   2.109   5.304
    2HIS    SC2  379   7.725   2.282   5.109
    2HIS    SC3  380   7.578   2.060   5.148
    3TYR     BB  381   0.266   2.209   5.231
    3TYR    SC1  382   0.563   2.230   5.310
    3TYR    SC2  383   0.792   2.368   5.277
    3TYR    SC3  384   0.798   2.123   5.390
    1TYR     BB  385   7.398   3.075   3.808
    1TYR    SC1  386   7.215   3.208   4.020
    1TYR    SC2  387   7.066   3.414   4.111
    1TYR    SC3  388   7.024   3.165   4.206
    2HIS     BB  389   7.203   2.838   3.698
    2HIS    SC1  390   7.282   2.764   3.398
    2HIS    SC2  391   7.236   2.539   3.256
    2HIS    SC3  392   7.314   2.765   3.130
    3TYR     BB  393   7.204   2.543   3.849
    3TYR    SC1  394   6.988   2.319   3.819
    3TYR    SC2  395   6.814   2.181   3.665
    3TYR    SC3  396   6.939   2.059   3.871
    1TYR     BB  397   0.422   4.958   3.922
    1TYR    SC1  398   0.591   5.122   4.108
    1TYR    SC2  399   0.832   5.238   4.150
    1TYR    SC3  400   0.613   5.331   4.278
    2HIS     BB  401   0.513   5.044   3.607
    2HIS    SC1  402   0.441   4.821   3.401
    2HIS    SC2  403   0.245   4.695   3.264
    2HIS    SC3  404   0.501   4.614   3.239
    3TYR     BB  405   0.738   5.245   3.644
    3TYR    SC1  406   0.637   5.486   3.811
    3TYR    SC2  407   0.503   5.714   3.863
    3TYR    SC3  408   0.743   5.669   3.978
    1TYR     BB  409   0.118   6.433   4.084
    1TYR    SC1  410   7.886   6.432   3.886
    1TYR    SC2  411   7.826   6.415   3.623
    1TYR    SC3  412   7.674   6.285   3.804
    2HIS     BB  413   0.274   6.144   3.990
    2HIS    SC1  414   0.561   6.210   3.898
    2HIS    SC2  415   0.760   6.111   3.745
    2HIS    SC3  416   0.805   6.325   3.902
    3TYR     BB  417   0.103   5.992   3.733
    3TYR    SC1  418   0.090   5.691   3.661
    3TYR    SC2  419   7.947   5.487   3.556
    3TYR    SC3  420   0.215   5.466   3.579
    1TYR     BB  421   1.730   6.349   6.817
    1TYR    SC1  422   1.544   6.467   7.038
    1TYR    SC2  423   1.305   6.498   7.160
    1TYR    SC3  424   1.531   6.482   7.307
    2HIS     BB  425   1.881   6.110   6.975
    2HIS    SC1  426   1.875   5.819   6.864
    2HIS    SC2  427   1.991   5.590   6.779
    2HIS    SC3  428   1.780   5.581   6.948
    3TYR     BB  429   1.927   6.048   7.295
    3TYR    SC1  430   1.767   6.156   7.540
    3TYR    SC2  431   1.760   6.086   7.801
    3TYR    SC3  432   1.649   6.318   7.721
    1TYR     BB  433   5.665   4.572   7.157
    1TYR    SC1  434   5.900   4.736   7.031
    1TYR    SC2  435   6.082   4.798   6.842
    1TYR    SC3  436   6.069   4.944   7.069
    2HIS     BB  437   5.436   4.462   6.958
    2HIS    SC1  438   5.283   4.228   7.106
    2HIS    SC2  439   5.126   4.009   7.085
    2HIS    SC3  440   5.118   4.160   7.309
    3TYR     BB  441   5.446   4.571   6.668
    3TYR    SC1  442   5.636   4.820   6.663
    3TYR    SC2  443   5.783   5.003   6.529
    3TYR    SC3  444   5.696   5.056   6.780
    1TYR     BB  445   7.339   2.624   0.402
    1TYR    SC1  446   7.529   2.405   0.275
    1TYR    SC2  447   7.782   2.311   0.266
    1TYR    SC3  448   7.579   2.145   0.331
    2HIS     BB  449   7.384   2.551   0.715
    2HIS    SC1  450   7.436   2.807   0.885
    2HIS    SC2  451   7.429   3.068   0.952
    2HIS    SC3  452   7.638   2.915   1.027
    3TYR     BB  453   7.675   2.393   0.773
    3TYR    SC1  454   7.777   2.287   1.039
    3TYR    SC2  455   7.978   2.128   1.123
    3TYR    SC3  456   7.744   2.131   1.257
    1TYR     BB  457   2.270   1.496   4.351
    1TYR    SC1  458   1.968   1.493   4.455
    1TYR    SC2  459   1.765   1.514   4.632
    1TYR    SC3  460   1.724   1.575   4.372
    2HIS     BB  461   2.267   1.816   4.288
    2HIS    SC1  462   2.437   1.898   4.048
    2HIS    SC2  463   2.554   2.137   3.998
    2HIS    SC3  464   2.683   1.908   3.937
    3TYR     BB  465   2.356   2.151   4.467
    3TYR    SC1  466   2.160   2.291   4.273
    3TYR    SC2  467   1.962   2.452   4.186
    3TYR    SC3  468   1.921   2.186   4.205
    1TYR     BB  469   7.376   5.463   1.946
    1TYR    SC1  470   7.191   5.207   1.956
    1TYR    SC2  471   6.942   5.109   1.918
    1TYR    SC3  472   7.150   4.940   1.954
    2HIS     BB  473   7.225   5.687   2.145
    2HIS    SC1  474   7.405   5.945   2.096
    2HIS    SC2  475   7.614   6.049   1.960
    2HIS    SC3  476   7.445   6.212   2.093
    3TYR     BB  477   6.880   5.595   2.111
    3TYR    SC1  478   6.895   5.562   1.800
    3TYR    SC2  479   6.905   5.677   1.556
    3TYR    SC3  480   7.012   5.432   1.595
    1TYR     BB  481   2.050   3.667   1.657
    1TYR    SC1  482   2.060   3.407   1.827
    1TYR    SC2  483   1.915   3.221   1.959
    1TYR    SC3  484   2.131   3.147   1.816
    2HIS     BB  485   2.109   3.524   1.358
    2HIS    SC1  486   2.084   3.714   1.117
    2HIS    SC2  487   1.989   3.771   0.871
    2HIS    SC3  488   2.096   3.967   1.024
    3TYR     BB  489   2.348   3.318   1.376
    3TYR    SC1  490   2.189   3.049   1.339
    3TYR    SC2  491   1.964   2.978   1.210
    3TYR    SC3  492   2.022   2.868   1.449
    1TYR     BB  493   0.235   1.573   1.778
    1TYR    SC1  494   0.535   1.528   1.682
    1TYR    SC2  495   0.706   1.319   1.676
    1TYR    SC3  496   0.801   1.571   1.659
    2HIS     BB  497   0.123   1.831   1.591
    2HIS    SC1  498   7.870   1.718   1.444
    2HIS    SC2  499   7.661   1.668   1.281
    2HIS    SC3  500   7.787   1.464   1.406
    3TYR     BB  501   0.322   1.913   1.384
    3TYR    SC1  502   0.615   1.970   1.412
    3TYR    SC2  503   0.866   1.975   1.510
    3TYR    SC3  504   0.819   2.051   1.256
    1TYR     BB  505   6.126   7.865   6.741
    1TYR    SC1  506   5.973   0.142   6.743
    1TYR    SC2  507   5.856   0.364   6.642
    1TYR    SC3  508   5.870   0.328   6.909
    2HIS     BB  509   6.012   7.710   6.481
    2HIS    SC1  510   6.019   7.402   6.490
    2HIS    SC2  511   5.879   7.171   6.499
    2HIS    SC3  512   6.146   7.165   6.458
    3TYR     BB  513   5.924   7.923   6.251
    3TYR    SC1  514   5.657   0.028   6.380
    3TYR    SC2  515   5.468   0.213   6.436
    3TYR    SC3  516   5.537   0.031   6.622
    1TYR     BB  517   3.218   2.895   6.411
    1TYR    SC1  518   3.474   2.913   6.596
    1TYR    SC2  519   3.595   3.021   6.812
    1TYR    SC3  520   3.672   2.779   6.720
    2HIS     BB  521   3.004   2.810   6.677
    2HIS    SC1  522   2.742   2.751   6.525
    2HIS    SC2  523   2.476   2.706   6.542
    2HIS    SC3  524   2.579   2.822   6.321
    3TYR     BB  525   3.064   3.000   6.892
    3TYR    SC1  526   3.241   2.978   7.135
    3TYR    SC2  527   3.348   3.106   7.347
    3TYR    SC3  528   3.257   2.853   7.373
    1TYR     BB  529   2.282   1.526   5.979
    1TYR    SC1  530   2.451   1.314   5.847
    1TYR    SC2  531   2.437   1.115   5.666
    1TYR    SC3  532   2.636   1.297   5.651
    2HIS     BB  533   2.168   1.671   5.699
    2HIS    SC1  534   1.955   1.893   5.698
    2HIS    SC2  535   1.785   2.046   5.555
    2HIS    SC3  536   1.707   1.945   5.792
    3TYR     BB  537   2.054   1.438   5.515
    3TYR    SC1  538   2.295   1.382   5.322
    3TYR    SC2  539   2.499   1.238   5.221
    3TYR    SC3  540   2.509   1.508   5.214
    1TYR     BB  541   3.510   1.927   6.533
    1TYR    SC1  542   3.351   2.192   6.545
    1TYR    SC2  543   3.419   2.450   6.507
    1TYR    SC3  544   3.161   2.374   6.483
    2HIS     BB  545   3.770   2.040   6.344
    2HIS    SC1  546   4.005   1.834   6.320
    2HIS    SC2  547   4.124   1.638   6.177
    2HIS    SC3  548   4.271   1.794   6.341
    3TYR     BB  549   3.674   2.244   6.113
    3TYR    SC1  550   3.362   2.206   6.063
    3TYR    SC2  551   3.162   2.151   5.890
    3TYR    SC3  552   3.153   2.055   6.143
    1TYR     BB  553   7.613   7.490   5.897
    1TYR    SC1  554   7.609   7.180   5.976
    1TYR    SC2  555   7.731   6.940   5.973
    1TYR    SC3  556   7.500   6.971   6.108
    2HIS     BB  557   7.928   7.561   5.863
    2HIS    SC1  558   7.989   7.691   6.141
    2HIS    SC2  559   0.018   7.897   6.313
    2HIS    SC3  560   0.207   7.704   6.300
    3TYR     BB  561   0.140   7.266   5.949
    3TYR    SC1  562   0.007   7.228   6.232
    3TYR    SC2  563   7.889   7.054   6.402
    3TYR    SC3  564   7.794   7.305   6.379
    1TYR     BB  565   5.657   6.157   5.244
    1TYR    SC1  566   5.404   6.045   5.381
    1TYR    SC2  567   5.195   6.005   5.547
    1TYR    SC3  568   5.233   5.841   5.336
    2HIS     BB  569   5.533   6.202   4.936
    2HIS    SC1  570   5.788   6.319   4.790
    2HIS    SC2  571   5.803   6.482   4.575
    2HIS    SC3  572   6.008   6.471   4.751
    3TYR     BB  573   5.317   6.463   4.844
    3TYR    SC1  574   5.238   6.395   4.557
    3TYR    SC2  575   5.088   6.436   4.337
    3TYR    SC3  576   5.138   6.184   4.421
    1TYR     BB  577   0.607   4.762   6.202
    1TYR    SC1  578   0.715   5.039   6.278
    1TYR    SC2  579   0.796   5.210   6.471
    1TYR    SC3  580   0.972   5.122   6.285
    2HIS     BB  581   0.904   4.602   6.407
    2HIS    SC1  582   0.804   4.326   6.314
    2HIS    SC2  583   0.726   4.071   6.355
    2HIS    SC3  584   0.576   4.235   6.202
    3TYR     BB  585   0.980   4.700   6.683
    3TYR    SC1  586   1.167   4.948   6.655
    3TYR    SC2  587   1.208   5.214   6.673
    3TYR    SC3  588   1.386   5.059   6.542
    1TYR     BB  589   6.551   5.817   7.070
    1TYR    SC1  590   6.701   5.698   7.314
    1TYR    SC2  591   6.744   5.655   7.577
    1TYR    SC3  592   6.842   5.482   7.394
    2HIS     BB  593   6.354   6.044   7.174
    2HIS    SC1  594   6.392   6.280   6.969
    2HIS    SC2  595   6.449   6.543   6.988
    2HIS    SC3  596   6.438   6.425   6.746
    3TYR     BB  597   6.274   6.110   7.504
    3TYR    SC1  598   6.415   5.930   7.724
    3TYR    SC2  599   6.567   5.901   7.945
    3TYR    SC3  600   6.386   5.712   7.880
    1TYR     BB  601   6.870   7.308   1.209
    1TYR    SC1  602   6.566   7.366   1.142
    1TYR    SC2  603   6.410   7.440   0.934
    1TYR    SC3  604   6.303   7.303   1.141
    2HIS     BB  605   6.914   7.254   0.825
    2HIS    SC1  606   6.840   7.554   0.779
    2HIS    SC2  607   6.923   7.807   0.733
    2HIS    SC3  608   6.741   7.757   0.927
    3TYR     BB  609   6.647   7.059   0.702
    3TYR    SC1  610   6.571   6.936   0.972
    3TYR    SC2  611   6.421   6.856   1.182
    3TYR    SC3  612   6.690   6.842   1.195
    1TYR     BB  613   3.660   7.956   6.730
    1TYR    SC1  614   3.729   0.239   6.614
    1TYR    SC2  615   3.793   0.414   6.418
    1TYR    SC3  616   3.763   0.501   6.672
    2HIS     BB  617   3.365   7.903   6.580
    2HIS    SC1  618   3.295   7.601   6.522
    2HIS    SC2  619   3.236   7.342   6.571
    2HIS    SC3  620   3.308   7.420   6.323
    3TYR     BB  621   3.380   0.029   6.286
    3TYR    SC1  622   3.674   0.031   6.189
    3TYR    SC2  623   3.939   0.003   6.232
    3TYR    SC3  624   3.851   0.115   6.003
    1TYR     BB  625   5.123   4.158   0.639
    1TYR    SC1  626   5.169   3.846   0.645
    1TYR    SC2  627   5.090   3.610   0.540
    1TYR    SC3  628   5.318   3.625   0.683
    2HIS     BB  629   5.119   4.155   0.268
    2HIS    SC1  630   4.913   3.919   0.238
    2HIS    SC2  631   4.794   3.747   0.067
    2HIS    SC3  632   4.704   3.769   0.321
    3TYR     BB  633   5.289   4.051   7.957
    3TYR    SC1  634   5.023   4.054   7.783
    3TYR    SC2  635   4.776   4.144   7.845
    3TYR    SC3  636   4.811   3.981   7.632
    1TYR     BB  637   1.521   3.060   0.688
    1TYR    SC1  638   1.594   3.344   0.574
    1TYR    SC2  639   1.579   3.494   0.350
    1TYR    SC3  640   1.766   3.549   0.537
    2HIS     BB  641   1.498   2.907   0.376
    2HIS    SC1  642   1.308   2.672   0.409
    2HIS    SC2  643   1.050   2.598   0.375
    2HIS    SC3  644   1.209   2.459   0.544
    3TYR     BB  645   1.636   3.000   0.127
    3TYR    SC1  646   1.475   3.224   7.981
    3TYR    SC2  647   1.461   3.322   7.729
    3TYR    SC3  648   1.375   3.471   7.937
    1TYR     BB  649   4.813   4.953   4.485
    1TYR    SC1  650   4.747   4.788   4.748
    1TYR    SC2  651   4.824   4.717   4.997
    1TYR    SC3  652   4.563   4.709   4.930
    2HIS     BB  653   4.888   5.240   4.615
    2HIS    SC1  654   4.982   5.477   4.435
    2HIS    SC2  655   5.104   5.717   4.456
    2HIS    SC3  656   4.972   5.652   4.230
    3TYR     BB  657   5.008   5.256   4.903
    3TYR    SC1  658   4.785   5.197   5.112
    3TYR    SC2  659   4.609   5.329   5.268
    3TYR    SC3  660   4.585   5.062   5.233
    1TYR     BB  661   6.303   3.762   1.724
    1TYR    SC1  662   6.032   3.906   1.798
    1TYR    SC2  663   5.806   3.903   1.946
    1TYR    SC3  664   5.916   4.138   1.872
    2HIS     BB  665   6.465   3.731   2.018
    2HIS    SC1  666   6.515   3.415   1.990
    2HIS    SC2  667   6.632   3.194   1.887
    2HIS    SC3  668   6.416   3.171   2.047
    3TYR     BB  669   6.289   3.906   2.237
    3TYR    SC1  670   6.412   4.106   2.445
    3TYR    SC2  671   6.333   4.234   2.669
    3TYR    SC3  672   6.591   4.246   2.591
    1TYR     BB  673   3.271   5.384   1.359
    1TYR    SC1  674   3.052   5.558   1.252
    1TYR    SC2  675   2.974   5.774   1.109
    1TYR    SC3  676   2.827   5.547   1.104
    2HIS     BB  677   3.457   5.372   1.062
    2HIS    SC1  678   3.753   5.449   1.112
    2HIS    SC2  679   3.961   5.517   0.954
    2HIS    SC3  680   3.947   5.612   1.206
    3TYR     BB  681   3.364   5.602   0.823
    3TYR    SC1  682   3.071   5.540   0.723
    3TYR    SC2  683   2.833   5.647   0.653
    3TYR    SC3  684   2.862   5.378   0.667
    1TYR     BB  685   6.509   2.795   7.230
    1TYR    SC1  686   6.475   3.058   7.062
    1TYR    SC2  687   6.433   3.324   7.041
    1TYR    SC3  688   6.562   3.191   6.844
    2HIS     BB  689   6.753   2.866   7.431
    2HIS    SC1  690   6.627   2.811   7.718
    2HIS    SC2  691   6.594   2.841   7.985
    2HIS    SC3  692   6.397   2.733   7.835
    3TYR     BB  693   6.904   3.159   7.393
    3TYR    SC1  694   6.904   3.338   7.129
    3TYR    SC2  695   6.838   3.565   6.998
    3TYR    SC3  696   6.996   3.381   6.879
    1TYR     BB  697   1.312   3.441   6.513
    1TYR    SC1  698   1.480   3.422   6.256
    1TYR    SC2  699   1.722   3.415   6.135
    1TYR    SC3  700   1.502   3.481   5.993
    2HIS     BB  701   1.115   3.702   6.458
    2HIS    SC1  702   0.809   3.653   6.502
    2HIS    SC2  703   0.570   3.651   6.376
    2HIS    SC3  704   0.583   3.610   6.643
    3TYR     BB  705   1.144   3.812   6.191
    3TYR    SC1  706   0.909   3.866   6.005
    3TYR    SC2  707   0.656   3.886   5.914
    3TYR    SC3  708   0.840   4.071   5.843
    1TYR     BB  709   7.205   3.208   5.231
    1TYR    SC1  710   7.067   3.483   5.143
    1TYR    SC2  711   7.079   3.715   5.006
    1TYR    SC3  712   6.840   3.617   5.086
    2HIS     BB  713   7.483   3.247   5.061
    2HIS    SC1  714   7.760   3.187   5.195
    2HIS    SC2  715   7.971   3.034   5.262
    2HIS    SC3  716   0.008   3.293   5.196
    3TYR     BB  717   7.541   3.520   4.910
    3TYR    SC1  718   7.445   3.477   4.618
    3TYR    SC2  719   7.396   3.581   4.374
    3TYR    SC3  720   7.423   3.315   4.404
    1TYR     BB  721   4.998   2.311   0.429
    1TYR    SC1  722   5.094   2.172   0.687
    1TYR    SC2  723   5.246   1.957   0.748
    1TYR    SC3  724   5.244   2.172   0.912
    2HIS     BB  725   5.256   2.195   0.214
    2HIS    SC1  726   5.102   2.051   7.987
    2HIS    SC2  727   5.117   1.950   7.737
    2HIS    SC3  728   4.888   1.928   7.878
    3TYR     BB  729   5.490   2.056   0.339
    3TYR    SC1  730   5.748   1.971   0.204
    3TYR    SC2  731   5.990   1.862   0.255
    3TYR    SC3  732   5.888   1.852   0.005
    1TYR     BB  733   6.180   6.616   6.362
    1TYR    SC1  734   6.258   6.838   6.175
    1TYR    SC2  735   6.456   7.018   6.138
    1TYR    SC3  736   6.282   6.965   5.938
    2HIS     BB  737   6.255   6.351   6.194
    2HIS    SC1  738   6.408   6.136   6.357
    2HIS    SC2  739   6.613   5.961   6.362
    2HIS    SC3  740   6.460   5.995   6.582
    3TYR     BB  741   6.345   6.426   5.907
    3TYR    SC1  742   6.166   6.569   5.710
    3TYR    SC2  743   6.008   6.498   5.503
    3TYR    SC3  744   5.990   6.746   5.608
    1TYR     BB  745   0.306   3.682   1.505
    1TYR    SC1  746   0.365   3.996   1.481
    1TYR    SC2  747   0.539   4.174   1.376
    1TYR    SC3  748   0.280   4.242   1.410
    2HIS     BB  749   0.265   3.630   1.161
    2HIS    SC1  750   0.506   3.429   1.133
    2HIS    SC2  751   0.678   3.243   1.039
    2HIS    SC3  752   0.772   3.463   1.164
    3TYR     BB  753   0.420   3.884   0.988
    3TYR    SC1  754   0.226   4.122   0.963
    3TYR    SC2  755   0.127   4.283   0.770
    3TYR    SC3  756   0.005   4.271   1.011
    1TYR     BB  757   6.870   1.958   7.649
    1TYR    SC1  758   7.101   2.045   7.844
    1TYR    SC2  759   7.305   1.976   0.007
    1TYR    SC3  760   7.183   2.215   0.037
    2HIS     BB  761   7.042   1.981   7.346
    2HIS    SC1  762   6.845   2.156   7.174
    2HIS    SC2  763   6.840   2.419   7.114
    2HIS    SC3  764   6.634   2.260   7.042
    3TYR     BB  765   7.316   2.192   7.327
    3TYR    SC1  766   7.437   2.257   7.608
    3TYR    SC2  767   7.617   2.242   7.809
    3TYR    SC3  768   7.470   2.467   7.775
    1TYR     BB  769   2.312   7.908   2.307
    1TYR    SC1  770   2.237   0.012   2.024
    1TYR    SC2  771   2.271   0.160   1.801
    1TYR    SC3  772   2.038   0.030   1.842
    2HIS     BB  773   2.459   7.603   2.298
    2HIS    SC1  774   2.744   7.592   2.430
    2HIS    SC2  775   2.910   7.401   2.524
    2HIS    SC3  776   2.951   7.659   2.591
    3TYR     BB  777   2.424   7.314   2.127
    3TYR    SC1  778   2.394   7.429   1.838
    3TYR    SC2  779   2.342   7.670   1.728
    3TYR    SC3  780   2.266   7.444   1.600
    1TYR     BB  781   7.082   0.141   5.931
    1TYR    SC1  782   7.204   7.871   5.817
    1TYR    SC2  783   7.139   7.620   5.740
    1TYR    SC3  784   7.312   7.767   5.593
    2HIS     BB  785   6.784   0.112   5.833
    2HIS    SC1  786   6.514   0.231   5.936
    2HIS    SC2  787   6.302   0.397   5.912
    2HIS    SC3  788   6.263   0.131   5.935
    3TYR     BB  789   6.698   7.777   5.896
    3TYR    SC1  790   6.476   7.728   5.704
    3TYR    SC2  791   6.222   7.751   5.615
    3TYR    SC3  792   6.386   7.565   5.508
    1TYR     BB  793   4.456   6.972   2.825
    1TYR    SC1  794   4.407   6.701   2.976
    1TYR    SC2  795   4.286   6.547   3.162
    1TYR    SC3  796   4.515   6.464   3.046
    2HIS     BB  797   4.544   6.861   2.529
    2HIS    SC1  798   4.280   6.780   2.378
    2HIS    SC2  799   4.201   6.621   2.175
    2HIS    SC3  800   4.017   6.733   2.337
    3TYR     BB  801   4.631   6.494   2.548
    3TYR    SC1  802   4.915   6.540   2.436
    3TYR    SC2  803   5.176   6.482   2.399
    3TYR    SC3  804   5.058   6.676   2.253
    1TYR     BB  805   0.299   2.435   2.031
    1TYR    SC1  806   7.993   2.449   2.079
    1TYR    SC2  807   7.805   2.510   2.264
    1TYR    SC3  808   7.766   2.576   2.005
    2HIS     BB  809   0.427   2.526   2.305
    2HIS    SC1  810   0.609   2.303   2.404
    2HIS    SC2  811   0.820   2.189   2.528
    2HIS    SC3  812   0.659   2.040   2.371
    3TYR     BB  813   0.215   2.583   2.573
    3TYR    SC1  814   0.423   2.569   2.803
    3TYR    SC2  815   0.670   2.469   2.849
    3TYR    SC3  816   0.491   2.485   3.050
    1TYR     BB  817   6.557   1.226   2.107
    1TYR    SC1  818   6.749   1.461   2.164
    1TYR    SC2  819   6.854   1.609   2.364
    1TYR    SC3  820   7.002   1.554   2.145
    2HIS     BB  821   6.742   0.955   2.224
    2HIS    SC1  822   6.567   0.835   2.455
    2HIS    SC2  823   6.458   0.700   2.662
    2HIS    SC3  824   6.311   0.881   2.527
    3TYR     BB  825   6.998   1.080   2.367
    3TYR    SC1  826   7.202   0.899   2.489
    3TYR    SC2  827   7.294   0.678   2.614
    3TYR    SC3  828   7.468   0.860   2.515
    1TYR     BB  829   7.502   4.090   4.241
    1TYR    SC1  830   7.730   4.198   4.053
    1TYR    SC2  831   7.807   4.426   3.930
    1TYR    SC3  832   7.901   4.188   3.845
    2HIS     BB  833   7.488   4.383   4.440
    2HIS    SC1  834   7.207   4.416   4.582
    2HIS    SC2  835   7.067   4.593   4.730
    2HIS    SC3  836   6.937   4.413   4.576
    3TYR     BB  837   7.497   4.633   4.251
    3TYR    SC1  838   7.772   4.769   4.267
    3TYR    SC2  839   7.983   4.852   4.121
    3TYR    SC3  840   7.924   4.973   4.355
    1TYR     BB  841   7.963   4.003   6.958
    1TYR    SC1  842   0.252   3.880   7.024
    1TYR    SC2  843   0.387   3.648   7.056
    1TYR    SC3  844   0.522   3.879   7.022
    2HIS     BB  845   7.848   3.727   6.779
    2HIS    SC1  846   7.529   3.749   6.781
    2HIS    SC2  847   7.289   3.753   6.903
    2HIS    SC3  848   7.304   3.702   6.639
    3TYR     BB  849   0.094   3.550   6.620
    3TYR    SC1  850   0.109   3.627   6.316
    3TYR    SC2  851   0.191   3.792   6.119
    3TYR    SC3  852   7.983   3.626   6.077
    1TYR     BB  853   3.090   3.393   1.838
    1TYR    SC1  854   3.350   3.284   1.948
    1TYR    SC2  855   3.463   3.266   2.193
    1TYR    SC3  856   3.536   3.095   1.997
    2HIS     BB  857   2.951   3.502   2.146
    2HIS    SC1  858   2.682   3.585   2.020
    2HIS    SC2  859   2.416   3.634   2.022
    2HIS    SC3  860   2.536   3.549   1.795
    3TYR     BB  861   3.129   3.631   2.336
    3TYR    SC1  862   3.087   3.775   2.603
    3TYR    SC2  863   3.184   3.957   2.778
    3TYR    SC3  864   2.962   3.816   2.839
    1TYR     BB  865   1.684   1.005   1.547
    1TYR    SC1  866   1.952   1.077   1.658
    1TYR    SC2  867   2.060   1.172   1.886
    1TYR    SC3  868   2.142   0.935   1.787
    2HIS     BB  869   1.598   0.763   1.743
    2HIS    SC1  870   1.729   0.875   2.020
    2HIS    SC2  871   1.698   0.746   2.255
    2HIS    SC3  872   1.844   0.973   2.244
    3TYR     BB  873   1.781   0.478   1.767
    3TYR    SC1  874   2.041   0.514   1.607
    3TYR    SC2  875   2.307   0.556   1.584
    3TYR    SC3  876   2.176   0.407   1.399
    1TYR     BB  877   3.357   4.893   7.002
    1TYR    SC1  878   3.443   4.790   7.286
    1TYR    SC2  879   3.540   4.823   7.536
    1TYR    SC3  880   3.457   4.579   7.454
    2HIS     BB  881   3.180   4.654   6.866
    2HIS    SC1  882   2.912   4.773   6.759
    2HIS    SC2  883   2.744   4.799   6.549
    2HIS    SC3  884   2.677   4.902   6.789
    3TYR     BB  885   3.145   4.431   7.071
    3TYR    SC1  886   3.085   4.145   7.025
    3TYR    SC2  887   2.900   3.952   6.990
    3TYR    SC3  888   3.157   3.905   6.922
    1TYR     BB  889   4.003   0.462   3.122
    1TYR    SC1  890   3.852   0.743   3.116
    1TYR    SC2  891   3.852   0.993   3.218
    1TYR    SC3  892   3.674   0.926   3.027
    2HIS     BB  893   4.335   0.538   3.197
    2HIS    SC1  894   4.495   0.442   3.451
    2HIS    SC2  895   4.752   0.448   3.533
    2HIS    SC3  896   4.553   0.471   3.713
    3TYR     BB  897   4.395   0.820   3.150
    3TYR    SC1  898   4.221   0.944   2.925
    3TYR    SC2  899   4.045   1.117   2.815
    3TYR    SC3  900   4.247   1.016   2.666
    1TYR     BB  901   1.202   1.155   0.883
    1TYR    SC1  902   1.209   0.958   0.641
    1TYR    SC2  903   1.094   0.952   0.397
    1TYR    SC3  904   1.269   0.759   0.469
    2HIS     BB  905   1.223   1.455   0.743
    2HIS    SC1  906   1.467   1.600   0.872
    2HIS    SC2  907   1.729   1.640   0.924
    2HIS    SC3  908   1.540   1.768   1.070
    3TYR     BB  909   1.139   1.447   0.461
    3TYR    SC1  910   1.015   1.638   0.266
    3TYR    SC2  911   0.850   1.684   0.057
    3TYR    SC3  912   1.106   1.770   0.049
    1TYR     BB  913   3.668   7.892   0.687
    1TYR    SC1  914   3.369   7.801   0.668
    1TYR    SC2  915   3.151   7.667   0.581
    1TYR    SC3  916   3.202   7.685   0.845
    2HIS     BB  917   3.717   7.758   1.009
    2HIS    SC1  918   3.754   0.024   1.159
    2HIS    SC2  919   3.793   0.220   1.340
    2HIS    SC3  920   3.899   0.242   1.093
    3TYR     BB  921   3.641   7.500   1.047
    3TYR    SC1  922   3.382   7.435   1.195
    3TYR    SC2  923   3.257   7.490   1.428
    3TYR    SC3  924   3.115   7.403   1.216
    1TYR     BB  925   5.844   4.772   5.820
    1TYR    SC1  926   5.843   4.689   6.128
    1TYR    SC2  927   5.741   4.486   6.273
    1TYR    SC3  928   5.959   4.618   6.361
    2HIS     BB  929   5.844   4.481   5.660
    2HIS    SC1  930   5.963   4.510   5.373
    2HIS    SC2  931   6.153   4.441   5.194
    2HIS    SC3  932   5.949   4.601   5.119
    3TYR     BB  933   5.934   4.254   5.868
    3TYR    SC1  934   6.188   4.389   6.006
    3TYR    SC2  935   6.456   4.406   6.034
    3TYR    SC3  936   6.305   4.631   6.029
    1TYR     BB  937   6.213   0.281   2.016
    1TYR    SC1  938   5.987   0.416   1.848
    1TYR    SC2  939   5.873   0.507   1.621
    1TYR    SC3  940   5.819   0.627   1.857
    2HIS     BB  941   6.380   0.548   2.116
    2HIS    SC1  942   6.615   0.572   1.914
    2HIS    SC2  943   6.706   0.757   1.739
    2HIS    SC3  944   6.866   0.553   1.816
    3TYR     BB  945   6.235   0.858   2.021
    3TYR    SC1  946   6.231   0.810   1.718
    3TYR    SC2  947   6.311   0.622   1.540
    3TYR    SC3  948   6.176   0.840   1.455
    1TYR     BB  949   3.086   1.532   0.682
    1TYR    SC1  950   3.095   1.738   0.449
    1TYR    SC2  951   3.087   1.767   0.181
    1TYR    SC3  952   3.016   1.972   0.341
    2HIS     BB  953   2.786   1.579   0.797
    2HIS    SC1  954   2.650   1.311   0.867
    2HIS    SC2  955   2.561   1.062   0.814
    2HIS    SC3  956   2.483   1.189   1.040
    3TYR     BB  957   2.669   1.877   0.729
    3TYR    SC1  958   2.648   2.011   1.007
    3TYR    SC2  959   2.518   2.059   1.238
    3TYR    SC3  960   2.764   2.162   1.198
    1TYR     BB  961   3.530   1.753   2.361
    1TYR    SC1  962   3.640   1.914   2.611
    1TYR    SC2  963   3.692   2.091   2.808
    1TYR    SC3  964   3.836   1.864   2.790
    2HIS     BB  965   3.388   1.476   2.497
    2HIS    SC1  966   3.182   1.313   2.317
    2HIS    SC2  967   3.101   1.059   2.272
    2HIS    SC3  968   2.933   1.265   2.225
    3TYR     BB  969   3.442   1.511   2.834
    3TYR    SC1  970   3.378   1.386   3.115
    3TYR    SC2  971   3.183   1.409   3.300
    3TYR    SC3  972   3.432   1.339   3.375
    1TYR     BB  973   1.487   2.343   3.226
    1TYR    SC1  974   1.259   2.250   3.058
    1TYR    SC2  975   1.093   2.314   2.855
    1TYR    SC3  976   1.225   2.078   2.852
    2HIS     BB  977   1.736   2.194   3.015
    2HIS    SC1  978   2.029   2.234   3.103
    2HIS    SC2  979   2.260   2.194   2.969
    2HIS    SC3  980   2.258   2.346   3.192
    3TYR     BB  981   1.732   2.130   2.710
    3TYR    SC1  982   1.677   1.948   2.464
    3TYR    SC2  983   1.744   1.940   2.202
    3TYR    SC3  984   1.560   1.768   2.300
    1TYR     BB  985   2.359   7.318   1.028
    1TYR    SC1  986   2.633   7.243   0.887
    1TYR    SC2  987   2.861   7.365   0.811
    1TYR    SC3  988   2.871   7.119   0.922
    2HIS     BB  989   2.549   7.613   1.187
    2HIS    SC1  990   2.292   7.754   1.262
    2HIS    SC2  991   2.154   7.940   1.401
    2HIS    SC3  992   2.031   7.795   1.209
    3TYR     BB  993   2.768   7.794   1.073
    3TYR    SC1  994   3.029   7.846   1.231
    3TYR    SC2  995   3.295   7.892   1.240
    3TYR    SC3  996   3.139   7.956   1.451
    1TYR     BB  997   6.342   5.084   3.151
    1TYR    SC1  998   6.092   5.257   3.074
    1TYR    SC2  999   5.860   5.262   2.935
    1TYR    SC3 1000   5.871   5.365   3.185
    2HIS     BB 1001   6.138   4.846   3.322
    2HIS    SC1 1002   6.340   4.685   3.482
    2HIS    SC2 1003   6.486   4.632   3.703
    2HIS    SC3 1004   6.601   4.621   3.459
    3TYR     BB 1005   5.839   4.884   3.319
    3TYR    SC1 1006   5.702   4.825   3.577
    3TYR    SC2 1007   5.631   4.624   3.743
    3TYR    SC3 1008   5.561   4.879   3.801
    1TYR     BB 1009   1.888   4.159   4.186
    1TYR    SC1 1010   1.677   4.376   4.171
    1TYR    SC2 1011   1.459   4.509   4.256
    1TYR    SC3 1012   1.555   4.553   4.008
    2HIS     BB 1013   2.182   4.301   4.184
    2HIS    SC1 1014   2.266   4.253   4.477
    2HIS    SC2 1015   2.278   4.301   4.742
    2HIS    SC3 1016   2.227   4.052   4.652
    3TYR     BB 1017   2.220   4.538   4.013
    3TYR    SC1 1018   2.271   4.794   4.193
    3TYR    SC2 1019   2.441   4.935   4.349
    3TYR    SC3 1020   2.224   5.055   4.243
    1TYR     BB 1021   4.294   0.713   2.265
    1TYR    SC1 1022   4.261   0.984   2.117
    1TYR    SC2 1023   4.384   1.200   2.010
    1TYR    SC3 1024   4.116   1.172   1.986
    2HIS     BB 1025   4.602   0.651   2.248
    2HIS    SC1 1026   4.659   0.371   2.358
    2HIS    SC2 1027   4.698   0.107   2.312
    2HIS    SC3 1028   4.770   0.216   2.549
    3TYR     BB 1029   4.774   0.814   2.039
    3TYR    SC1 1030   4.581   0.821   1.793
    3TYR    SC2 1031   4.513   0.703   1.560
    3TYR    SC3 1032   4.379   0.922   1.645
    1TYR     BB 1033   2.415   3.634   5.172
    1TYR    SC1 1034   2.530   3.883   5.025
    1TYR    SC2 1035   2.787   3.951   4.981
    1TYR    SC3 1036   2.601   4.144   5.016
    2HIS     BB 1037   2.549   3.389   4.962
    2HIS    SC1 1038   2.821   3.354   5.125
    2HIS    SC2 1039   3.077   3.310   5.198
    2HIS    SC3 1040   2.992   3.562   5.148
    3TYR     BB 1041   2.716   3.551   4.697
    3TYR    SC1 1042   2.529   3.638   4.475
    3TYR    SC2 1043   2.601   3.676   4.218
    3TYR    SC3 1044   2.371   3.783   4.311
    1TYR     BB 1045   0.924   5.191   2.615
    1TYR    SC1 1046   0.658   5.379   2.642
    1TYR    SC2 1047   0.482   5.531   2.504
    1TYR    SC3 1048   0.409   5.420   2.739
    2HIS     BB 1049   0.775   4.941   2.473
    2HIS    SC1 1050   0.971   4.813   2.261
    2HIS    SC2 1051   0.941   4.759   1.998
    2HIS    SC3 1052   1.187   4.808   2.099
    3TYR     BB 1053   0.549   5.050   2.248
    3TYR    SC1 1054   0.296   5.104   2.415
    3TYR    SC2 1055   0.094   5.283   2.391
    3TYR    SC3 1056   0.099   5.112   2.600
    1TYR     BB 1057   3.093   3.534   7.760
    1TYR    SC1 1058   2.847   3.389   7.879
    1TYR    SC2 1059   2.683   3.329   0.085
    1TYR    SC3 1060   2.742   3.141   7.901
    2HIS     BB 1061   3.055   3.608   7.444
    2HIS    SC1 1062   3.222   3.868   7.388
    2HIS    SC2 1063   3.442   3.992   7.293
    2HIS    SC3 1064   3.266   4.128   7.447
    3TYR     BB 1065   2.735   3.690   7.391
    3TYR    SC1 1066   2.541   3.530   7.579
    3TYR    SC2 1067   2.376   3.515   7.792
    3TYR    SC3 1068   2.402   3.304   7.627
    1TYR     BB 1069   0.842   1.444   3.407
    1TYR    SC1 1070   1.011   1.708   3.434
    1TYR    SC2 1071   1.167   1.883   3.299
    1TYR    SC3 1072   1.196   1.854   3.566
    2HIS     BB 1073   0.857   1.418   3.073
    2HIS    SC1 1074   0.729   1.185   2.914
    2HIS    SC2 1075   0.565   1.083   2.726
    2HIS    SC3 1076   0.760   0.930   2.832
    3TYR     BB 1077   1.009   1.597   2.914
    3TYR    SC1 1078   1.301   1.633   2.920
    3TYR    SC2 1079   1.521   1.743   3.030
    3TYR    SC3 1080   1.525   1.663   2.772
    1TYR     BB 1081   3.314   2.990   4.041
    1TYR    SC1 1082   3.618   3.066   3.972
    1TYR    SC2 1083   3.865   2.974   3.916
    1TYR    SC3 1084   3.782   3.209   3.812
    2HIS     BB 1085   3.323   2.696   3.865
    2HIS    SC1 1086   3.094   2.491   3.883
    2HIS    SC2 1087   3.007   2.235   3.881
    2HIS    SC3 1088   2.837   2.436   3.819
    3TYR     BB 1089   3.535   2.666   3.674
    3TYR    SC1 1090   3.655   2.862   3.473
    3TYR    SC2 1091   3.786   2.845   3.237
    3TYR    SC3 1092   3.786   3.077   3.375
    1TYR     BB 1093   2.993   1.087   1.747
    1TYR    SC1 1094   2.809   0.921   1.932
    1TYR    SC2 1095   2.716   0.852   2.176
    1TYR    SC3 1096   2.552   0.844   1.962
    2HIS     BB 1097   2.818   1.375   1.733
    2HIS    SC1 1098   2.989   1.571   1.905
    2HIS    SC2 1099   3.026   1.724   2.123
    2HIS    SC3 1100   3.238   1.648   1.974
    3TYR     BB 1101   2.524   1.345   1.845
    3TYR    SC1 1102   2.317   1.415   1.615
    3TYR    SC2 1103   2.181   1.610   1.487
    3TYR    SC3 1104   2.189   1.361   1.384
    1TYR     BB 1105   1.699   2.543   6.660
    1TYR    SC1 1106   1.731   2.254   6.729
    1TYR    SC2 1107   1.898   2.042   6.724
    1TYR    SC3 1108   1.686   2.044   6.892
    2HIS     BB 1109   1.687   2.688   6.970
    2HIS    SC1 1110   1.913   2.894   6.922
    2HIS    SC2 1111   2.053   3.120   6.873
    2HIS    SC3 1112   2.110   2.893   6.738
    3TYR     BB 1113   1.799   2.467   7.189
    3TYR    SC1 1114   1.604   2.487   7.428
    3TYR    SC2 1115   1.588   2.516   7.696
    3TYR    SC3 1116   1.382   2.407   7.560
    1TYR     BB 1117   0.533   5.349   5.504
    1TYR    SC1 1118   0.363   5.291   5.752
    1TYR    SC2 1119   0.360   5.125   5.965
    1TYR    SC3 1120   0.150   5.288   5.919
    2HIS     BB 1121   0.793   5.524   5.642
    2HIS    SC1 1122   0.871   5.706   5.408
    2HIS    SC2 1123   0.861   5.691   5.139
    2HIS    SC3 1124   1.078   5.796   5.260
    3TYR     BB 1125   0.935   5.490   5.948
    3TYR    SC1 1126   0.670   5.506   6.109
    3TYR    SC2 1127   0.451   5.462   6.261
    3TYR    SC3 1128   0.440   5.637   6.056
    1TYR     BB 1129   0.371   1.502   7.972
    1TYR    SC1 1130   0.417   1.627   0.253
    1TYR    SC2 1131   0.591   1.705   0.444
    1TYR    SC3 1132   0.339   1.636   0.512
    2HIS     BB 1133   0.435   1.737   7.765
    2HIS    SC1 1134   0.703   1.672   7.614
    2HIS    SC2 1135   0.862   1.696   7.397
    2HIS    SC3 1136   0.951   1.564   7.616
    3TYR     BB 1137   0.517   2.044   7.905
    3TYR    SC1 1138   0.507   2.198   7.626
    3TYR    SC2 1139   0.530   2.126   7.367
    3TYR    SC3 1140   0.443   2.373   7.431
    1TYR     BB 1141   0.531   6.916   1.225
    1TYR    SC1 1142   0.700   6.792   0.988
    1TYR    SC2 1143   0.731   6.614   0.787
    1TYR    SC3 1144   0.853   6.855   0.775
    2HIS     BB 1145   0.265   7.008   1.043
    2HIS    SC1 1146   0.025   6.879   1.206
    2HIS    SC2 1147   7.759   6.847   1.238
    2HIS    SC3 1148   7.930   6.675   1.357
    3TYR     BB 1149   0.235   6.834   0.762
    3TYR    SC1 1150   0.429   6.840   0.516
    3TYR    SC2 1151   0.417   6.729   0.270
    3TYR    SC3 1152   0.641   6.856   0.351
    1TYR     BB 1153   4.342   6.407   4.460
    1TYR    SC1 1154   4.305   6.243   4.708
    1TYR    SC2 1155   4.414   6.112   4.917
    1TYR    SC3 1156   4.145   6.122   4.888
    2HIS     BB 1157   4.645   6.548   4.534
    2HIS    SC1 1158   4.688   6.696   4.262
    2HIS    SC2 1159   4.845   6.672   4.043
    2HIS    SC3 1160   4.598   6.780   4.022
    3TYR     BB 1161   4.788   6.450   4.811
    3TYR    SC1 1162   4.765   6.700   5.001
    3TYR    SC2 1163   4.680   6.956   5.015
    3TYR    SC3 1164   4.747   6.823   5.240
    1TYR     BB 1165   1.314   6.316   5.575
    1TYR    SC1 1166   1.615   6.388   5.567
    1TYR    SC2 1167   1.866   6.318   5.495
    1TYR    SC3 1168   1.799   6.579   5.514
    2HIS     BB 1169   1.269   6.270   5.230
    2HIS    SC1 1170   0.959   6.233   5.244
    2HIS    SC2 1171   0.718   6.114   5.210
    2HIS    SC3 1172   0.789   6.211   5.452
    3TYR     BB 1173   1.498   6.055   5.152
    3TYR    SC1 1174   1.623   5.968   4.883
    3TYR    SC2 1175   1.780   5.769   4.789
    3TYR    SC3 1176   1.804   6.018   4.689
    1TYR     BB 1177   1.349   4.887   0.284
    1TYR    SC1 1178   1.163   4.751   0.505
    1TYR    SC2 1179   1.017   4.689   0.723
    1TYR    SC3 1180   0.949   4.589   0.482
    2HIS     BB 1181   1.186   4.731   7.983
    2HIS    SC1 1182   1.100   4.931   7.750
    2HIS    SC2 1183   0.995   4.964   7.504
    2HIS    SC3 1184   0.896   5.103   7.713
    3TYR     BB 1185   0.845   4.599   7.978
    3TYR    SC1 1186   0.835   4.328   0.115
    3TYR    SC2 1187   0.692   4.099   0.102
    3TYR    SC3 1188   0.872   4.135   0.300
    1TYR     BB 1189   4.754   1.190   1.412
    1TYR    SC1 1190   4.757   1.245   1.719
    1TYR    SC2 1191   4.691   1.486   1.822
    1TYR    SC3 1192   4.823   1.306   1.974
    2HIS     BB 1193   4.511   1.433   1.351
    2HIS    SC1 1194   4.601   1.718   1.435
    2HIS    SC2 1195   4.520   1.973   1.399
    2HIS    SC3 1196   4.645   1.903   1.628
    3TYR     BB 1197   4.273   1.396   1.550
    3TYR    SC1 1198   4.030   1.230   1.538
    3TYR    SC2 1199   3.764   1.273   1.552
    3TYR    SC3 1200   3.867   1.034   1.625
    4W        W 1201   0.663   1.571   2.161
    5W        W 1202   4.041   5.723   1.978
    6W        W 1203   4.898   7.886   1.901
    7W        W 1204   3.823   4.154   0.610
    8W        W 1205   5.881   0.273   4.088
    9W        W 1206   3.385   7.503   2.321
   10W        W 1207   2.621   3.483   3.039
   11W        W 1208   3.573   7.288   5.042
   12W        W 1209   3.663   6.432   2.569
   13W        W 1210   3.129   3.581   6.070
   14W        W 1211   3.686   2.591   5.331
   15W        W 1212   6.360   2.929   3.573
   16W        W 1213   0.738   6.499   6.364
   17W        W 1214   3.147   7.174   4.789
   18W        W 1215   7.119   3.458   3.604
   19W        W 1216   6.107   6.721   3.291
   20W        W 1217   7.136   3.240   1.771
   21W        W 1218   4.455   6.976   6.209
   22W        W 1219   3.618   2.290   0.712
   23W        W 1220   4.518   4.258   4.013
   24W        W 1221   4.219   3.716   1.015
   25W        W 1222   3.482   5.671   3.750
   26W        W 1223   2.750   6.032   3.390
   27W        W 1224   5.108   4.542   7.905
   28W        W 1225   4.139   5.349   1.585
   29W        W 1226   0.643   3.098   3.975
   30W        W 1227   2.057   5.998   5.156
   31W        W 1228   5.268   2.290   5.525
   32W        W 1229   3.251   0.402   5.249
   33W        W 1230   0.495   6.719   3.828
   34W        W 1231   2.991   1.368   5.285
   35W        W 1232   0.749   7.496   5.449
   36W        W 1233   7.794   0.524   2.734
   37W        W 1234   0.134   4.406   4.292
   38W        W 1235   6.835   4.653   2.239
   39W        W 1236   3.462   2.117   1.182
   40W        W 1237   4.354   0.623   4.631
   41W        W 1238   3.870   6.000   1.545
   42W        W 1239   3.629   3.941   2.463
   43W        W 1240   3.549   3.244   0.634
   44W        W 1241   2.435   7.211   2.620
   45W        W 1242   1.514   7.260   5.048
   46W        W 1243   5.499   0.533   3.867
   47W        W 1244   7.189   7.393   2.147
   48W        W 1245   2.374   1.103   4.015
   49W        W 1246   3.379   4.261   6.633
   50W        W 1247   4.690   2.044   6.137
   51W        W 1248   5.662   4.507   4.711
   52W        W 1249   5.577   1.552   2.939
   53W        W 1250   4.972   5.897   5.997
   54W        W 1251   0.505   2.428   6.188
   55W        W 1252   4.842   1.422   7.866
   56W        W 1253   1.324   3.613   4.040
   57W        W 1254   3.628   0.326   1.820
   58W        W 1255   6.579   1.388   3.821
   59W        W 1256   1.633   1.067   3.660
   60W        W 1257   1.857   2.796   3.874
   61W        W 1258   3.731   7.171   3.046
   62W        W 1259   1.399   7.294   1.514
   63W        W 1260   1.646   6.151   3.817
   64W        W 1261   4.244   5.581   2.807
   65W        W 1262   2.353   4.391   2.585
   66W        W 1263   6.352   1.747   4.843
   67W        W 1264   1.459   6.940   0.578
   68W        W 1265   6.332   3.461   3.796
   69W        W 1266   3.440   3.463   4.235
   70W        W 1267   3.324   4.165   0.514
   71W        W 1268   3.539   3.567   5.093
   72W        W 1269   6.660   6.224   2.585
   73W        W 1270   7.091   0.010   1.189
   74W        W 1271   3.451   0.837   6.887
   75W        W 1272   6.234   1.033   0.955
   76W        W 1273   2.179   2.170   2.015
   77W        W 1274   6.311   4.894   0.183
   78W        W 1275   5.723   5.529   6.554
   79W        W 1276   1.692   1.493   1.453
   80W        W 1277   7.775   0.317   0.661
   81W        W 1278   6.069   2.073   2.147
   82W        W 1279   5.620   6.171   3.655
   83W        W 1280   4.960   2.797   1.823
   84W        W 1281   1.485   4.601   2.942
   85W        W 1282   7.615   7.233   5.068
   86W        W 1283   0.892   0.146   1.062
   87W        W 1284   0.891   1.663   4.753
   88W        W 1285   1.558   0.749   6.822
   89W        W 1286   4.536   3.996   4.449
   90W        W 1287   2.158   4.970   5.480
   91W        W 1288   6.158   5.510   5.476
   92W        W 1289   5.502   3.936   4.712
   93W        W 1290   7.527   3.469   5.527
   94W        W 1291   2.187   3.302   0.877
   95W        W 1292   5.176   5.126   4.129
   96W        W 1293   1.896   0.231   0.956
   97W        W 1294   5.834   4.269   1.341
   98W        W 1295   0.594   4.516   4.132
   99W        W 1296   2.021   4.175   6.428
  100W        W 1297   6.326   4.937   1.408
  101W        W 1298   2.164   4.803   4.744
  102W        W 1299   0.884   5.168   1.659
  103W        W 1300   7.390   3.691   1.480
  104W        W 1301   3.560   4.420   4.681
  105W        W 1302   3.779   5.545   5.534
  106W        W 1303   6.196   6.677   1.599
  107W        W 1304   2.629   4.313   5.677
  108W        W 1305   7.723   0.135   6.649
  109W        W 1306   3.174   4.676   0.695
  110W        W 1307   3.900   0.812   4.767
  111W        W 1308   3.611   4.890   4.864
  112W        W 1309   7.855   7.019   1.715
  113W        W 1310   4.068   0.981   7.398
  114W        W 1311   0.447   3.409   5.923
  115W        W 1312   0.788   2.967   0.099
  116W        W 1313   5.247   6.876   5.143
  117W        W 1314   1.665   0.427   3.018
  118W        W 1315   0.786   6.975   1.669
  119W        W 1316   2.000   1.020   5.896
  120W        W 1317   3.818   2.494   4.035
  121W        W 1318   2.511   6.612   6.493
  122W        W 1319   3.763   4.707   2.908
  123W        W 1320   2.507   5.000   3.218
  124W        W 1321   2.997   3.950   1.850
  125W        W 1322   6.749   3.132   5.021
  126W        W 1323   4.084   4.813   5.087
  127W        W 1324   5.816   6.890   7.261
  128W        W 1325   3.289   0.710   1.922
  129W        W 1326   5.864   3.691   3.719
  130W        W 1327   5.164   2.483   7.792
  131W        W 1328   4.384   7.515   6.203
  132W        W 1329   4.118   2.921   6.006
  133W        W 1330   2.396   2.545   1.297
  134W        W 1331   4.727   5.374   2.847
  135W        W 1332   3.264   6.916   1.190
  136W        W 1333   3.895   6.549   4.666
  137W        W 1334   4.211   3.850   0.481
  138W        W 1335   4.437   1.966   0.894
  139W        W 1336   0.932   2.014   6.118
  140W        W 1337   3.339   4.410   2.924
  141W        W 1338   3.595   4.456   2.474
  142W        W 1339   4.564   5.097   2.444
  143W        W 1340   2.902   0.964   4.895
  144W        W 1341   4.929   3.111   1.417
  145W        W 1342   4.033   3.134   1.396
  146W        W 1343   2.470   6.709   3.725
  147W        W 1344   5.013   7.102   6.765
  148W        W 1345   6.224   6.151   2.853
  149W        W 1346   0.928   4.429   1.185
  150W        W 1347   7.902   1.073   1.076
  151W        W 1348   4.916   4.792   6.045
  152W        W 1349   3.952   7.102   3.768
  153W        W 1350   6.966   2.447   7.596
  154W        W 1351   4.255   3.129   2.385
  155W        W 1352   5.822   5.372   0.686
  156W        W 1353   0.737   1.215   7.253
  157W        W 1354   7.227   1.880   5.850
  158W        W 1355   2.587   4.367   1.553
  159W        W 1356   7.078   5.132   4.684
  160W        W 1357   0.801   6.516   1.448
  161W        W 1358   3.967   7.627   2.395
  162W        W 1359   6.362   3.671   0.678
  163W        W 1360   5.751   1.359   7.986
  164W        W 1361   3.159   6.185   2.052
  165W        W 1362   2.258   5.837   2.734
  166W        W 1363   7.168   6.580   6.546
  167W        W 1364   3.869   1.332   4.191
  168W        W 1365   3.622   3.328   0.046
  169W        W 1366   0.540   6.825   2.654
  170W        W 1367   3.753   3.687   0.775
  171W        W 1368   7.979   0.565   1.056
  172W        W 1369   2.654   6.940   1.837
  173W        W 1370   6.531   5.388   1.410
  174W        W 1371   6.350   2.532   2.765
  175W        W 1372   6.104   1.557   7.639
  176W        W 1373   7.064   5.071   6.532
  177W        W 1374   2.915   4.231   3.161
  178W        W 1375   7.443   5.140   4.314
  179W        W 1376   4.538   3.871   6.275
  180W        W 1377   3.129   4.800   4.719
  181W        W 1378   6.101   3.192   4.572
  182W        W 1379   1.084   1.339   5.326
  183W        W 1380   1.742   6.865   1.532
  184W        W 1381   3.688   4.420   4.192
  185W        W 1382   3.123   1.749   1.133
  186W        W 1383   1.480   3.929   2.288
  187W        W 1384   6.113   4.054   0.945
  188W        W 1385   7.240   4.047   1.800
  189W        W 1386   2.647   3.136   1.014
  190W        W 1387   1.399   2.704   2.218
  191W        W 1388   2.686   0.581   4.623
  192W        W 1389   2.941   6.611   0.920
  193W        W 1390   0.506   1.996   1.893
  194W        W 1391   5.737   6.251   2.735
  195W        W 1392   0.947   7.985   5.253
  196W        W 1393   5.735   7.377   4.797
  197W        W 1394   7.083   2.731   7.990
  198W        W 1395   5.912   2.408   4.875
  199W        W 1396   6.157   7.665   4.703
  200W        W 1397   3.690   3.892   4.166
  201W        W 1398   2.322   4.655   1.211
  202W        W 1399   5.315   6.838   4.209
  203W        W 1400   2.952   2.631   7.718
  204W        W 1401   0.448   4.509   0.440
  205W        W 1402   1.336   3.627   2.711
  206W        W 1403   7.335   1.303   6.977
  207W        W 1404   3.671   3.391   5.547
  208W        W 1405   2.207   4.816   7.021
  209W        W 1406   4.540   6.474   6.160
  210W        W 1407   0.300   0.835   2.040
  211W        W 1408   5.456   6.875   3.729
  212W        W 1409   6.454   1.203   6.071
  213W        W 1410   6.120   7.852   4.244
  214W        W 1411   7.355   5.941   4.995
  215W        W 1412   0.994   6.564   1.937
  216W        W 1413   0.718   4.227   0.767
  217W        W 1414   2.319   6.340   4.883
  218W        W 1415   2.378   2.787   3.747
  219W        W 1416   0.992   7.649   1.150
  220W        W 1417   7.826   7.213   4.581
  221W        W 1418   3.616   0.661   1.090
  222W        W 1419   7.997   4.988   3.630
  223W        W 1420   1.244   5.043   2.993
  224W        W 1421   3.446   1.421   3.949
  225W        W 1422   1.373   4.422   1.867
  226W        W 1423   0.976   1.153   4.737
  227W        W 1424   6.125   3.196   0.517
  228W        W 1425   2.852   6.095   4.748
  229W        W 1426   1.893   5.535   1.467
  230W        W 1427   3.494   4.175   3.781
  231W        W 1428   2.656   2.094   2.176
  232W        W 1429   3.112   6.453   5.018
  233W        W 1430   7.786   5.504   4.394
  234W        W 1431   6.776   1.808   0.700
  235W        W 1432   7.522   7.281   1.401
  236W        W 1433   2.915   1.930   6.576
  237W        W 1434   7.711   2.072   6.744
  238W        W 1435   1.525   4.389   5.122
  239W        W 1436   1.852   4.762   1.075
  240W        W 1437   0.806   2.479   7.933
  241W        W 1438   2.647   5.334   4.139
  242W        W 1439   2.743   0.494   3.308
  243W        W 1440   6.458   3.463   4.783
  244W        W 1441   5.032   0.451   5.543
  245W        W 1442   2.231   6.664   5.778
  246W        W 1443   1.640   3.099   3.530
  247W        W 1444   2.235   2.845   4.232
  248W        W 1445   1.552   4.056   3.802
  249W        W 1446   5.978   1.334   5.725
  250W        W 1447   6.606   4.150   3.230
  251W        W 1448   1.811   4.473   3.586
  252W        W 1449   7.462   7.850   2.220
  253W        W 1450   3.852   4.558   1.275
  254W        W 1451   4.715   6.188   1.577
  255W        W 1452   1.501   1.600   5.490
  256W        W 1453   3.648   0.535   4.415
  257W        W 1454   2.813   7.596   1.602
  258W        W 1455   1.695   4.276   1.056
  259W        W 1456   2.341   1.520   3.725
  260W        W 1457   5.909   4.963   4.708
  261W        W 1458   5.863   3.368   2.559
  262W        W 1459   5.759   5.012   2.446
  263W        W 1460   7.624   5.557   3.122
  264W        W 1461   5.152   1.103   3.572
  265W        W 1462   0.307   0.675   2.930
  266W        W 1463   0.903   4.330   1.692
  267W        W 1464   7.179   5.234   3.479
  268W        W 1465   4.105   5.436   4.138
  269W        W 1466   7.828   5.211   4.875
  270W        W 1467   7.485   5.954   4.512
  271W        W 1468   4.406   5.992   3.590
  272W        W 1469   1.696   3.250   1.513
  273W        W 1470   1.769   4.150   5.491
  274W        W 1471   6.863   7.488   2.531
  275W        W 1472   1.454   5.743   3.539
  276W        W 1473   6.499   5.703   5.158
  277W        W 1474   4.503   3.965   1.780
  278W        W 1475   5.762   6.196   7.658
  279W        W 1476   2.794   4.634   3.457
  280W        W 1477   4.072   0.887   5.485
  281W        W 1478   3.812   3.928   1.602
  282W        W 1479   1.303   5.423   0.431
  283W        W 1480   0.942   2.572   3.293
  284W        W 1481   2.521   2.660   2.872
  285W        W 1482   0.708   7.332   0.822
  286W        W 1483   1.660   1.156   1.075
  287W        W 1484   1.304   1.965   7.294
  288W        W 1485   6.663   5.113   3.606
  289W        W 1486   1.020   5.303   2.135
  290W        W 1487   0.644   5.418   1.017
  291W        W 1488   2.470   5.045   5.082
  292W        W 1489   7.584   4.428   2.623
  293W        W 1490   5.072   0.591   6.510
  294W        W 1491   3.108   2.193   3.401
  295W        W 1492   0.731   4.372   3.618
  296W        W 1493   4.495   7.021   1.161
  297W        W 1494   4.729   3.024   0.799
  298W        W 1495   6.987   3.812   1.173
  299W        W 1496   2.460   2.564   5.905
  300W        W 1497   6.295   0.354   6.417
  301W        W 1498   1.779   0.849   6.364
  302W        W 1499   0.543   7.169   5.106
  303W        W 1500   6.370   7.048   7.087
  304W        W 1501   7.029   6.759   4.651
  305W        W 1502   4.545   4.275   6.680
  306W        W 1503   2.859   4.332   2.658
  307W        W 1504   5.592   3.778   2.410
  308W        W 1505   5.082   5.810   1.638
  309W        W 1506   7.118   0.565   1.061
  310W        W 1507   1.927   1.447   2.492
  311W        W 1508   2.314   5.280   2.471
  312W        W 1509   3.400   0.739   4.852
  313W        W 1510   7.178   6.979   5.102
  314W        W 1511   2.252   6.915   3.318
  315W        W 1512   1.128   4.025   7.825
  316W        W 1513   5.752   5.348   3.735
  317W        W 1514   0.532   2.419   6.921
  318W        W 1515   3.051   1.037   0.680
  319W        W 1516   6.981   5.419   5.627
  320W        W 1517   2.817   5.775   6.788
  321W        W 1518   7.295   3.559   0.832
  322W        W 1519   6.461   3.715   1.188
  323W        W 1520   6.691   6.109   1.606
  324W        W 1521   6.516   3.956   6.260
  325W        W 1522   1.771   6.662   6.015
  326W        W 1523   0.848   2.390   5.806
  327W        W 1524   1.472   4.439   2.369
  328W        W 1525   2.348   1.755   4.787
  329W        W 1526   6.362   1.187   6.593
  330W        W 1527   1.336   6.476   2.477
  331W        W 1528   0.894   1.821   0.801
  332W        W 1529   2.473   1.509   6.469
  333W        W 1530   7.271   4.629   5.227
  334W        W 1531   6.079   1.098   5.291
  335W        W 1532   2.910   3.460   6.968
  336W        W 1533   7.137   3.318   1.263
  337W        W 1534   6.448   7.458   6.749
  338W        W 1535   5.961   6.400   7.193
  339W        W 1536   2.382   5.069   1.500
  340W        W 1537   5.524   2.776   2.052
  341W        W 1538   5.738   3.218   3.036
  342W        W 1539   5.062   5.744   7.625
  343W        W 1540   4.600   2.955   4.318
  344W        W 1541   1.180   4.762   1.543
  345W        W 1542   4.506   7.220   6.651
  346W        W 1543   2.710   5.612   6.310
  347W        W 1544   5.641   5.226   1.201
  348W        W 1545   5.162   1.763   3.361
  349W        W 1546   4.888   5.330   6.843
  350W        W 1547   4.307   3.002   0.509
  351W        W 1548   1.011   1.942   4.322
  352W        W 1549   7.154   3.006   4.723
  353W        W 1550   4.206   4.961   5.573
  354W        W 1551   5.141   1.488   0.721
  355W        W 1552   4.330   3.520   2.031
  356W        W 1553   2.721   0.343   5.662
  357W        W 1554   6.478   2.230   2.361
  358W        W 1555   2.296   5.524   5.186
  359W        W 1556   2.672   4.651   0.835
  360W        W 1557   1.999   3.062   0.480
  361W        W 1558   3.222   3.506   4.698
  362W        W 1559   7.944   3.791   5.105
  363W        W 1560   5.867   5.903   7.260
  364W        W 1561   5.219   1.400   5.192
  365W        W 1562   5.098   3.960   2.454
  366W        W 1563   4.290   4.487   3.577
  367W        W 1564   4.843   0.295   1.478
  368W        W 1565   6.349   4.890   4.997
  369W        W 1566   4.634   0.712   6.300
  370W        W 1567   1.014   6.201   0.673
  371W        W 1568   1.963   5.247   1.056
  372W        W 1569   2.300   4.112   1.908
  373W        W 1570   0.968   0.267   2.428
  374W        W 1571   7.542   0.776   0.822
  375W        W 1572   5.663   7.496   6.136
  376W        W 1573   1.000   3.024   2.152
  377W        W 1574   6.991   6.414   1.311
  378W        W 1575   3.903   5.204   4.565
  379W        W 1576   6.816   1.614   1.672
  380W        W 1577   0.150   3.061   0.868
  381W        W 1578   0.260   1.235   1.394
  382W        W 1579   5.096   6.677   7.043
  383W        W 1580   1.560   4.886   3.378
  384W        W 1581   5.230   0.021   2.258
  385W        W 1582   1.768   2.942   3.014
  386W        W 1583   0.788   7.047   3.094
  387W        W 1584   6.278   5.578   6.293
  388W        W 1585   1.331   4.036   4.317
  389W        W 1586   3.039   7.338   5.883
  390W        W 1587   0.829   6.057   7.821
  391W        W 1588   0.537   1.978   5.796
  392W        W 1589   2.949   6.518   3.115
  393W        W 1590   2.284   3.472   0.406
  394W        W 1591   3.989   1.798   4.961
  395W        W 1592   6.036   2.069   7.567
  396W        W 1593   7.837   5.962   4.161
  397W        W 1594   2.560   0.660   1.150
  398W        W 1595   3.570   1.979   0.272
  399W        W 1596   6.363   4.735   5.544
  400W        W 1597   1.480   1.948   4.120
  401W        W 1598   7.416   1.802   2.303
  402W        W 1599   2.725   1.882   7.060
  403W        W 1600   2.754   1.326   3.074
  404W        W 1601   0.857   3.907   4.127
  405W        W 1602   5.938   1.269   3.211
  406W        W 1603   3.225   2.670   4.420
  407W        W 1604   4.383   3.289   7.293
  408W        W 1605   5.127   3.275   1.899
  409W        W 1606   0.955   6.458   5.901
  410W        W 1607   3.234   6.279   2.785
  411W        W 1608   7.522   7.742   6.362
  412W        W 1609   7.068   1.535   6.606
  413W        W 1610   6.551   4.979   6.717
  414W        W 1611   4.213   7.098   3.255
  415W        W 1612   1.807   4.809   5.874
  416W        W 1613   5.860   0.432   6.127
  417W        W 1614   5.225   2.845   5.450
  418W        W 1615   6.336   6.152   4.965
  419W        W 1616   0.850   2.127   0.316
  420W        W 1617   2.601   3.519   6.154
  421W        W 1618   7.509   4.534   1.047
  422W        W 1619   6.169   4.403   4.038
  423W        W 1620   4.923   3.951   5.509
  424W        W 1621   6.480   1.692   2.882
  425W        W 1622   0.689   1.153   7.761
  426W        W 1623   1.281   0.888   1.289
  427W        W 1624   5.459   5.012   0.742
  428W        W 1625   3.329   0.420   4.015
  429W        W 1626   1.684   5.279   4.663
  430W        W 1627   2.643   0.369   2.047
  431W        W 1628   1.168   0.412   6.800
  432W        W 1629   1.596   5.899   5.636
  433W        W 1630   5.852   3.522   5.531
  434W        W 1631   4.983   3.522   3.881
  435W        W 1632   2.267   1.651   0.969
  436W        W 1633   0.648   3.391   2.122
  437W        W 1634   5.111   1.348   3.115
  438W        W 1635   7.364   3.312   3.166
  439W        W 1636   5.739   1.962   0.806
  440W        W 1637   6.707   3.784   3.591
  441W        W 1638   6.527   6.334   5.425
  442W        W 1639   7.815   1.181   6.753
  443W        W 1640   4.274   1.578   2.890
  444W        W 1641   6.892   5.744   2.595
  445W        W 1642   3.107   3.807   4.022
  446W        W 1643   1.602   7.467   2.372
  447W        W 1644   1.556   3.071   5.404
  448W        W 1645   4.707   2.377   0.008
  449W        W 1646   3.137   1.787   4.144
  450W        W 1647   6.286   7.738   3.310
  451W        W 1648   2.586   3.103   2.023
  452W        W 1649   6.984   2.713   5.618
  453W        W 1650   2.880   2.935   3.705
  454W        W 1651   6.547   2.879   5.415
  455W        W 1652   1.638   1.397   1.955
  456W        W 1653   7.214   1.757   4.848
  457W        W 1654   0.427   4.407   4.712
  458W        W 1655   0.531   3.384   3.003
  459W        W 1656   4.211   7.179   5.820
  460W        W 1657   4.051   2.572   7.821
  461W        W 1658   6.797   2.604   0.436
  462W        W 1659   1.016   5.684   2.501
  463W        W 1660   4.701   3.474   1.682
  464W        W 1661   2.955   7.254   5.358
  465W        W 1662   4.197   4.334   4.947
  466W        W 1663   6.194   7.307   1.970
  467W        W 1664   5.035   4.509   2.459
  468W        W 1665   5.113   2.618   1.352
  469W        W 1666   2.328   5.574   1.746
  470W        W 1667   0.976   3.920   1.066
  471W        W 1668   6.790   6.478   0.845
  472W        W 1669   6.248   3.753   3.365
  473W        W 1670   2.094   2.820   5.652
  474W        W 1671   1.949   5.216   7.263
  475W        W 1672   1.945   2.394   5.901
  476W        W 1673   5.538   3.306   5.186
  477W        W 1674   5.626   2.119   2.682
  478W        W 1675   6.414   2.424   3.786
  479W        W 1676   2.895   6.965   3.876
  480W        W 1677   4.552   0.838   4.172
  481W        W 1678   3.509   3.072   4.584
  482W        W 1679   4.914   6.772   2.889
  483W        W 1680   0.540   7.023   5.587
  484W        W 1681   0.339   6.346   0.634
  485W        W 1682   6.975   2.110   3.210
  486W        W 1683   4.890   3.153   7.310
  487W        W 1684   2.744   0.823   5.395
  488W        W 1685   1.910   1.998   4.675
  489W        W 1686   1.357   4.676   1.075
  490W        W 1687   6.971   7.849   2.930
  491W        W 1688   7.324   4.796   2.925
  492W        W 1689   5.173   4.601   3.973
  493W        W 1690   4.323   4.056   0.025
  494W        W 1691   5.016   2.873   6.872
  495W        W 1692   1.365   3.165   4.929
  496W        W 1693   6.672   7.422   6.289
  497W        W 1694   4.696   3.911   0.811
  498W        W 1695   4.762   6.130   7.831
  499W        W 1696   7.472   7.499   6.820
  500W        W 1697   7.872   0.407   5.657
  501W        W 1698   5.927   5.846   4.941
  502W        W 1699   0.490   7.694   5.069
  503W        W 1700   5.824   5.751   0.324
  504W        W 1701   4.491   3.022   1.649
  505W        W 1702   2.614   3.525   2.528
  506W        W 1703   3.173   1.845   5.377
  507W        W 1704   4.637   2.755   1.228
  508W        W 1705   7.523   0.528   6.008
  509W        W 1706   6.057   1.280   1.694
  510W        W 1707   1.043   5.694   0.829
  511W        W 1708   0.398   3.097   4.924
  512W        W 1709   6.578   5.047   4.091
  513W        W 1710   5.495   4.346   7.594
  514W        W 1711   1.381   4.780   6.144
  515W        W 1712   3.950   1.427   5.725
  516W        W 1713   4.268   4.104   1.360
  517W        W 1714   4.782   6.922   0.759
  518W        W 1715   7.316   4.205   6.042
  519W        W 1716   7.616   5.187   2.736
  520W        W 1717   0.842   3.776   2.827
  521W        W 1718   1.173   3.424   0.855
  522W        W 1719   6.368   2.486   3.280
  523W        W 1720   3.865   1.460   7.298
  524W        W 1721   3.086   1.112   5.720
  525W        W 1722   5.530   3.538   1.139
  526W        W 1723   3.513   6.644   6.075
  527W        W 1724   7.746   6.112   6.689
  528W        W 1725   5.851   4.801   1.366
  529W        W 1726   5.964   5.207   7.585
  530W        W 1727   5.115   5.277   7.345
  531W        W 1728   0.303   2.083   2.739
  532W        W 1729   3.352   3.937   1.019
  533W        W 1730   3.049   5.591   3.452
  534W        W 1731   0.522   4.486   5.745
  535W        W 1732   2.621   1.943   2.660
  536W        W 1733   5.862   1.128   0.446
  537W        W 1734   7.991   1.864   0.120
  538W        W 1735   5.171   3.541   1.481
  539W        W 1736   2.702   7.077   4.560
  540W        W 1737   1.655   2.982   5.897
  541W        W 1738   1.874   0.884   4.902
  542W        W 1739   4.683   0.728   2.739
  543W        W 1740   4.111   2.367   0.701
  544W        W 1741   5.286   5.221   6.545
  545W        W 1742   7.825   0.002   4.963
  546W        W 1743   4.671   5.654   4.889
  547W        W 1744   2.722   0.809   5.916
  548W        W 1745   7.417   4.677   5.764
  549W        W 1746   7.969   5.452   6.392
  550W        W 1747   3.732   7.010   1.009
  551W        W 1748   0.277   5.743   4.309
  552W        W 1749   2.220   6.685   5.254
  553W        W 1750   7.631   0.507   1.787
  554W        W 1751   2.224   3.088   2.788
  555W        W 1752   4.450   1.246   5.574
  556W        W 1753   5.005   5.039   3.087
  557W        W 1754   7.200   2.823   1.351
  558W        W 1755   2.990   6.050   5.416
  559W        W 1756   2.022   4.497   5.129
  560W        W 1757   3.213   7.747   1.901
  561W        W 1758   4.100   4.179   7.107
  562W        W 1759   3.492   4.467   5.984
  563W        W 1760   5.591   1.490   1.569
  564W        W 1761   3.202   1.579   6.325
  565W        W 1762   6.605   4.429   4.947
  566W        W 1763   3.562   3.302   6.058
  567W        W 1764   4.769   7.053   1.563
  568W        W 1765   2.532   3.209   4.008
  569W        W 1766   5.379   7.130   6.377
  570W        W 1767   1.314   4.976   5.660
  571W        W 1768   1.377   2.288   4.951
  572W        W 1769   5.311   6.253   5.977
  573W        W 1770   6.536   0.851   7.102
  574W        W 1771   6.087   1.197   7.039
  575W        W 1772   6.491   0.367   5.005
  576W        W 1773   4.809   3.155   4.761
  577W        W 1774   7.281   6.795   4.228
  578W        W 1775   5.085   1.606   1.508
  579W        W 1776   6.222   3.169   6.159
  580W        W 1777   2.443   7.088   6.649
  581W        W 1778   2.691   5.711   3.787
  582W        W 1779   7.580   0.703   1.320
  583W        W 1780   6.529   2.967   0.744
  584W        W 1781   5.355   4.816   1.353
  585W        W 1782   0.526   7.311   6.300
  586W        W 1783   0.086   2.059   6.017
  587W        W 1784   7.460   3.817   2.956
  588W        W 1785   2.707   1.157   6.757
  589W        W 1786   5.003   0.377   1.963
  590W        W 1787   3.256   2.504   6.982
  591W        W 1788   4.257   0.501   5.166
  592W        W 1789   4.161   1.370   6.619
  593W        W 1790   0.468   5.410   7.217
  594W        W 1791   5.750   1.234   7.448
  595W        W 1792   3.697   3.952   6.866
  596W        W 1793   5.980   3.601   5.037
  597W        W 1794   1.512   5.114   1.305
  598W        W 1795   5.910   6.670   3.781
  599W        W 1796   6.447   6.729   4.562
  600W        W 1797   2.010   1.736   2.955
  601W        W 1798   6.985   0.375   6.791
  602W        W 1799   7.651   3.410   6.426
  603W        W 1800   4.778   4.495   7.495
  604W        W 1801   5.361   5.425   2.939
  605W        W 1802   7.806   2.574   6.736
  606W        W 1803   3.850   5.292   5.958
  607W        W 1804   6.837   0.399   3.820
  608W        W 1805   1.036   3.360   3.064
  609W        W 1806   0.787   2.849   7.561
  610W        W 1807   7.682   4.356   5.455
  611W        W 1808   3.724   1.965   4.574
  612W        W 1809   2.466   6.226   4.419
  613W        W 1810   5.383   6.902   0.880
  614W        W 1811   5.403   2.526   6.922
  615W        W 1812   6.395   1.573   6.933
  616W        W 1813   7.652   0.033   5.963
  617W        W 1814   6.560   5.204   5.375
  618W        W 1815   2.944   0.374   6.134
  619W        W 1816   3.114   0.734   1.066
  620W        W 1817   2.922   2.536   4.842
  621W        W 1818   5.301   4.840   4.942
  622W        W 1819   5.588   4.987   1.769
  623W        W 1820   4.193   6.035   3.113
  624W        W 1821   1.244   0.550   0.939
  625W        W 1822   3.387   0.943   1.454
  626W        W 1823   3.685   6.046   4.647
  627W        W 1824   7.215   0.611   5.069
  628W        W 1825   7.974   6.114   3.245
  629W        W 1826   2.050   3.884   0.233
  630W        W 1827   4.600   7.521   1.226
  631W        W 1828   3.261   6.476   3.998
  632W        W 1829   5.471   5.808   6.203
  633W        W 1830   0.829   1.123   1.242
  634W        W 1831   6.770   4.021   1.592
  635W        W 1832   6.787   6.210   5.944
  636W        W 1833   1.669   5.306   3.658
  637W        W 1834   1.522   2.706   1.496
  638W        W 1835   1.331   3.842   7.369
  639W        W 1836   5.073   5.007   2.572
  640W        W 1837   4.669   2.909   2.548
  641W        W 1838   6.389   7.806   1.318
  642W        W 1839   1.289   2.270   0.061
  643W        W 1840   0.821   5.530   6.860
  644W        W 1841   0.343   6.645   1.646
  645W        W 1842   6.967   5.771   4.681
  646W        W 1843   4.459   7.486   3.006
  647W        W 1844   1.808   4.811   4.391
  648W        W 1845   5.030   3.917   4.513
  649W        W 1846   1.747   6.100   3.326
  650W        W 1847   7.120   0.701   6.320
  651W        W 1848   3.205   5.206   5.001
  652W        W 1849   3.036   2.745   2.846
  653W        W 1850   3.058   0.525   2.350
  654W        W 1851   6.058   0.414   2.486
  655W        W 1852   2.324   5.831   6.023
  656W        W 1853   3.929   1.018   6.901
  657W        W 1854   5.180   1.107   2.260
  658W        W 1855   1.155   5.973   4.051
  659W        W 1856   4.541   4.518   2.335
  660W        W 1857   5.506   5.685   3.368
  661W        W 1858   3.418   2.661   4.891
  662W        W 1859   3.284   3.433   1.057
  663W        W 1860   3.332   5.580   5.297
  664W        W 1861   7.340   2.500   4.733
  665W        W 1862   5.673   3.449   4.655
  666W        W 1863   2.890   6.133   0.781
  667W        W 1864   4.168   0.406   5.672
  668W        W 1865   3.767   4.180   6.316
  669W        W 1866   4.683   3.156   2.099
  670W        W 1867   1.863   1.475   3.466
  671W        W 1868   0.105   3.188   1.356
  672W        W 1869   4.342   2.517   5.175
  673W        W 1870   6.145   5.459   4.056
  674W        W 1871   2.923   3.755   6.503
  675W        W 1872   4.757   2.770   0.334
  676W        W 1873   4.899   0.857   3.187
  677W        W 1874   6.624   4.114   3.974
  678W        W 1875   5.392   6.582   2.891
  679W        W 1876   4.407   4.817   7.590
  680W        W 1877   1.416   4.474   5.665
  681W        W 1878   7.021   2.972   2.725
  682W        W 1879   5.212   6.440   3.806
  683W        W 1880   7.497   6.389   1.274
  684W        W 1881   7.756   3.319   0.652
  685W        W 1882   7.312   0.518   3.086
  686W        W 1883   0.409   1.975   0.880
  687W        W 1884   3.201   4.163   2.295
  688W        W 1885   6.782   2.663   3.523
  689W        W 1886   6.157   5.302   6.705
  690W        W 1887   7.903   5.618   2.690
  691W        W 1888   5.006   5.789   2.937
  692W        W 1889   0.223   5.299   0.742
  693W        W 1890   3.473   1.460   0.290
  694W        W 1891   6.122   6.010   5.412
  695W        W 1892   1.038   2.917   0.764
  696W        W 1893   1.094   5.387   1.247
  697W        W 1894   0.383   1.655   7.240
  698W        W 1895   7.532   6.807   4.730
  699W        W 1896   5.161   7.068   1.861
  700W        W 1897   4.439   0.033   3.119
  701W        W 1898   2.761   2.350   6.827
  702W        W 1899   5.868   5.522   4.553
  703W        W 1900   2.654   1.810   5.608
  704W        W 1901   6.176   6.340   2.386
  705W        W 1902   5.265   2.363   2.962
  706W        W 1903   4.083   2.134   4.264
  707W        W 1904   0.249   1.179   0.703
  708W        W 1905   5.346   5.740   2.112
  709W        W 1906   0.333   2.430   5.712
  710W        W 1907   3.017   1.950   1.591
  711W        W 1908   7.466   2.933   5.580
  712W        W 1909   2.076   4.062   3.722
  713W        W 1910   3.492   7.344   1.835
  714W        W 1911   6.261   3.250   5.658
  715W        W 1912   3.663   4.434   7.015
  716W        W 1913   2.264   5.140   1.984
  717W        W 1914   5.714   7.669   3.989
  718W        W 1915   3.440   6.311   1.656
  719W        W 1916   3.816   4.186   7.572
  720W        W 1917   4.933   0.845   6.973
  721W        W 1918   2.530   6.199   3.858
  722W        W 1919   4.160   0.221   2.261
  723W        W 1920   5.035   2.710   3.291
  724W        W 1921   5.756   7.377   1.055
  725W        W 1922   4.793   2.231   7.471
  726W        W 1923   3.654   3.999   2.988
  727W        W 1924   1.153   1.512   2.044
  728W        W 1925   3.303   6.080   6.828
  729W        W 1926   1.745   6.569   4.040
  730W        W 1927   7.314   1.488   1.624
  731W        W 1928   2.500   4.011   2.926
  732W        W 1929   2.403   3.942   0.618
  733W        W 1930   4.212   0.123   6.640
  734W        W 1931   7.661   2.188   5.783
  735W        W 1932   6.827   2.540   4.638
  736W        W 1933   2.945   1.173   1.243
  737W        W 1934   6.421   3.945   4.943
  738W        W 1935   6.686   6.631   1.645
  739W        W 1936   3.207   0.105   5.775
  740W        W 1937   5.803   1.640   4.408
  741W        W 1938   7.145   5.565   6.440
  742W        W 1939   1.048   7.119   5.203
  743W        W 1940   1.569   3.613   1.820
  744W        W 1941   4.793   5.682   3.725
  745W        W 1942   5.120   0.965   4.393
  746W        W 1943   3.656   7.910   2.122
  747W        W 1944   2.004   2.003   1.219
  748W        W 1945   3.443   6.018   4.148
  749W        W 1946   1.027   6.385   4.429
  750W        W 1947   3.757   1.760   5.403
  751W        W 1948   4.125   4.771   2.557
  752W        W 1949   6.470   2.229   6.447
  753W        W 1950   4.608   6.885   7.062
  754W        W 1951   6.525   0.225   2.498
  755W        W 1952   6.531   0.086   3.011
  756W        W 1953   2.250   5.994   3.219
  757W        W 1954   5.571   2.134   1.282
  758W        W 1955   1.241   1.392   7.235
  759W        W 1956   6.425   7.848   5.080
  760W        W 1957   3.940   6.749   2.852
  761W        W 1958   0.555   5.911   7.082
  762W        W 1959   3.494   0.882   2.514
  763W        W 1960   7.941   7.640   6.729
  764W        W 1961   4.794   1.028   5.891
  765W        W 1962   1.647   6.754   6.510
  766W        W 1963   4.171   2.658   1.560
  767W        W 1964   4.285   4.864   2.081
  768W        W 1965   4.456   4.011   2.284
  769W        W 1966   7.778   6.018   5.285
  770W        W 1967   6.455   7.878   6.323
  771W        W 1968   3.679   2.208   5.011
  772W        W 1969   5.028   0.108   6.674
  773W        W 1970   1.313   1.951   0.518
  774W        W 1971   3.267   7.035   2.165
  775W        W 1972   0.718   6.307   0.270
  776W        W 1973   6.414   2.044   5.611
  777W        W 1974   6.712   6.486   4.921
  778W        W 1975   0.590   4.943   0.707
  779W        W 1976   0.332   7.166   1.734
  780W        W 1977   3.828   6.228   6.845
  781W        W 1978   1.308   2.226   5.444
  782W        W 1979   7.044   6.327   5.518
  783W        W 1980   4.074   5.282   2.425
  784W        W 1981   2.508   1.771   3.110
  785W        W 1982   2.633   6.880   5.527
  786W        W 1983   1.553   4.192   3.269
  787W        W 1984   3.545   6.844   1.606
  788W        W 1985   6.017   3.474   2.067
  789W        W 1986   2.288   5.714   2.218
  790W        W 1987   1.241   6.868   3.283
  791W        W 1988   1.336   6.387   3.134
  792W        W 1989   5.789   4.108   3.436
  793W        W 1990   6.326   5.842   1.276
  794W        W 1991   3.432   6.759   4.758
  795W        W 1992   5.573   4.037   0.970
  796W        W 1993   6.971   7.978   2.416
  797W        W 1994   7.436   2.378   6.421
  798W        W 1995   3.796   1.585   1.958
  799W        W 1996   3.704   2.727   7.209
  800W        W 1997   3.096   2.985   1.200
  801W        W 1998   7.033   3.803   6.212
  802W        W 1999   3.482   1.818   0.762
  803W        W 2000   4.903   1.785   1.061
  804W        W 2001   5.869   1.914   4.817
  805W        W 2002   4.155   1.553   1.026
  806W        W 2003   6.686   3.329   2.837
  807W        W 2004   2.280   5.340   5.817
  808W        W 2005   5.562   4.475   1.708
  809W        W 2006   7.874   2.589   5.520
  810W        W 2007   5.386   3.684   5.708
  811W        W 2008   0.904   3.080   3.471
  812W        W 2009   3.243   0.662   7.333
  813W        W 2010   1.177   3.112   3.902
  814W        W 2011   3.751   0.553   5.174
  815W        W 2012   4.874   7.370   3.305
  816W        W 2013   2.448   6.325   6.088
  817W        W 2014   2.796   3.247   6.517
  818W        W 2015   2.972   7.779   6.148
  819W        W 2016   7.374   0.299   5.567
  820W        W 2017   5.938   5.965   6.284
  821W        W 2018   6.622   2.210   4.218
  822W        W 2019   1.946   4.287   2.233
  823W        W 2020   2.166   2.314   3.723
  824W        W 2021   3.600   5.203   6.716
  825W        W 2022   5.957   2.755   0.763
  826W        W 2023   6.140   2.960   6.656
  827W        W 2024   6.794   2.116   1.552
  828W        W 2025   4.715   7.698   6.571
  829W        W 2026   6.003   7.438   1.522
  830W        W 2027   6.284   2.685   0.364
  831W        W 2028   3.580   0.937   0.676
  832W        W 2029   2.206   0.640   0.791
  833W        W 2030   5.016   3.371   5.838
  834W        W 2031   6.926   2.876   2.162
  835W        W 2032   4.159   3.078   6.863
  836W        W 2033   1.503   0.876   3.223
  837W        W 2034   1.628   1.263   6.788
  838W        W 2035   3.258   3.655   0.617
  839W        W 2036   5.569   2.174   7.755
  840W        W 2037   0.795   2.937   2.945
  841W        W 2038   1.260   4.766   7.106
  842W        W 2039   4.755   4.338   6.215
  843W        W 2040   5.556   0.698   6.413
  844W        W 2041   6.775   3.775   2.485
  845W        W 2042   4.956   4.606   0.400
  846W        W 2043   6.941   7.041   1.798
  847W        W 2044   4.037   4.357   1.732
  848W        W 2045   4.095   1.390   5.235
  849W        W 2046   0.380   5.306   6.722
  850W        W 2047   4.063   7.725   1.399
  851W        W 2048   0.441   1.077   6.016
  852W        W 2049   6.953   6.620   2.678
  853W        W 2050   5.375   4.839   6.241
  854W        W 2051   0.946   3.297   7.735
  855W        W 2052   1.539   0.061   1.902
  856W        W 2053   5.952   7.322   6.975
  857W        W 2054   4.591   0.750   5.489
  858W        W 2055   5.260   5.325   5.334
  859W        W 2056   3.250   4.620   2.082
  860W        W 2057   5.930   2.613   1.461
  861W        W 2058   4.334   1.758   5.508
  862W        W 2059   7.789   0.857   2.114
  863W        W 2060   3.113   6.834   4.352
  864W        W 2061   2.846   7.298   6.887
  865W        W 2062   0.034   3.130   6.215
  866W        W 2063   3.154   6.953   6.209
  867W        W 2064   3.246   3.660   5.573
  868W        W 2065   5.636   4.556   0.978
  869W        W 2066   3.242   5.295   4.496
  870W        W 2067   6.709   6.527   6.325
  871W        W 2068   4.435   2.705   3.257
  872W        W 2069   2.914   6.079   4.224
  873W        W 2070   2.943   6.846   6.638
  874W        W 2071   3.692   2.812   1.582
  875W        W 2072   1.612   1.117   5.557
  876W        W 2073   4.028   2.567   3.560
  877W        W 2074   1.393   0.090   1.051
  878W        W 2075   5.290   3.069   1.083
  879W        W 2076   4.890   4.971   7.722
  880W        W 2077   4.633   3.056   5.953
  881W        W 2078   2.898   6.473   3.627
  882W        W 2079   6.391   1.609   0.435
  883W        W 2080   1.585   5.517   6.474
  884W        W 2081   2.194   3.616   2.826
  885W        W 2082   6.281   6.704   5.110
  886W        W 2083   4.097   5.862   6.586
  887W        W 2084   4.656   5.843   1.954
  888W        W 2085   0.246   4.542   3.753
  889W        W 2086   6.668   2.150   2.819
  890W        W 2087   1.573   2.598   6.191
  891W        W 2088   4.484   5.562   7.037
  892W        W 2089   7.129   6.287   3.037
  893W        W 2090   5.581   3.954   6.092
  894W        W 2091   6.938   1.292   1.312
  895W        W 2092   0.307   3.685   5.499
  896W        W 2093   3.895   3.739   7.303
  897W        W 2094   6.712   7.918   6.749
  898W        W 2095   5.034   6.875   4.628
  899W        W 2096   0.044   4.300   5.103
  900W        W 2097   0.161   4.705   5.449
  901W        W 2098   4.547   2.647   7.617
  902W        W 2099   4.245   4.590   3.069
  903W        W 2100   3.370   3.090   3.063
  904W        W 2101   3.565   0.379   2.328
  905W        W 2102   6.791   1.505   4.703
  906W        W 2103   5.894   6.177   3.234
  907W        W 2104   4.810   5.726   1.169
  908W        W 2105   0.687   3.240   1.605
  909W        W 2106   5.435   1.926   4.194
  910W        W 2107   6.688   6.261   3.842
  911W        W 2108   5.735   1.536   5.280
  912W        W 2109   7.412   5.072   6.909
  913W        W 2110   6.246   2.855   1.158
  914W        W 2111   7.599   4.419   6.963
  915W        W 2112   1.264   0.386   1.492
  916W        W 2113   7.203   7.239   3.949
  917W        W 2114   1.472   5.186   5.195
  918W        W 2115   6.759   3.521   1.541
  919W        W 2116   2.675   2.603   3.371
  920W        W 2117   2.932   4.854   5.211
  921W        W 2118   6.942   6.019   3.461
  922W        W 2119   0.566   2.774   0.882
  923W        W 2120   4.318   0.222   1.394
  924W        W 2121   3.711   1.060   5.178
  925W        W 2122   4.276   6.056   7.034
  926W        W 2123   3.474   1.868   3.212
  927W        W 2124   6.830   4.643   0.950
  928W        W 2125   6.485   5.932   2.223
  929W        W 2126   3.066   4.309   4.802
  930W        W 2127   0.442   2.378   1.180
  931W        W 2128   5.562   2.635   1.107
  932W        W 2129   6.814   1.710   3.509
  933W        W 2130   5.855   1.242   1.230
  934W        W 2131   3.589   2.629   2.843
  935W        W 2132   1.200   0.685   4.735
  936W        W 2133   5.455   3.095   2.624
  937W        W 2134   6.180   6.467   4.211
  938W        W 2135   2.274   2.795   0.868
  939W        W 2136   7.263   1.393   5.638
  940W        W 2137   5.381   0.485   6.886
  941W        W 2138   1.044   5.179   0.775
  942W        W 2139   4.483   7.216   5.411
  943W        W 2140   4.485   2.667   2.049
  944W        W 2141   4.022   4.154   3.893
  945W        W 2142   2.208   5.993   1.417
  946W        W 2143   0.739   5.729   2.027
  947W        W 2144   4.371   2.780   5.598
  948W        W 2145   1.794   5.501   0.603
  949W        W 2146   0.380   3.972   0.474
  950W        W 2147   2.231   4.621   6.127
  951W        W 2148   6.763   3.392   0.920
  952W        W 2149   7.311   6.068   5.906
  953W        W 2150   7.123   7.523   1.632
  954W        W 2151   4.591   4.219   3.201
  955W        W 2152   4.145   2.857   7.408
  956W        W 2153   1.064   6.018   4.788
  957W        W 2154   6.294   6.981   4.119
  958W        W 2155   7.170   1.926   1.860
  959W        W 2156   7.079   4.402   2.602
  960W        W 2157   2.330   1.172   2.277
  961W        W 2158   6.988   7.828   6.313
  962W        W 2159   1.732   5.604   5.244
  963W        W 2160   4.777   6.422   0.613
  964W        W 2161   5.299   4.951   0.214
  965W        W 2162   5.884   5.710   7.787
  966W        W 2163   0.985   5.818   0.312
  967W        W 2164   6.494   7.568   2.872
  968W        W 2165   0.959   4.803   3.347
  969W        W 2166   2.366   0.658   4.241
  970W        W 2167   5.439   2.572   2.509
  971W        W 2168   5.463   1.942   1.761
  972W        W 2169   2.772   3.799   3.433
  973W        W 2170   5.269   3.121   3.129
  974W        W 2171   6.472   4.628   2.959
  975W        W 2172   5.505   5.532   4.202
  976W        W 2173   7.577   5.555   6.741
  977W        W 2174   4.675   4.490   0.864
  978W        W 2175   0.473   7.700   6.724
  979W        W 2176   6.948   1.032   4.880
  980W        W 2177   7.364   2.139   3.550
  981W        W 2178   4.036   5.934   5.682
  982W        W 2179   4.825   4.415   3.652
  983W        W 2180   3.314   6.454   5.494
  984W        W 2181   1.954   3.677   5.366
  985W        W 2182   1.724   3.308   4.595
  986W        W 2183   6.431   2.464   0.828
  987W        W 2184   1.904   4.422   6.871
  988W        W 2185   4.852   4.750   1.300
  989W        W 2186   3.448   2.594   7.895
  990W        W 2187   7.581   3.112   1.494
  991W        W 2188   5.175   2.248   3.452
  992W        W 2189   2.259   3.225   6.401
  993W        W 2190   6.389   0.662   3.766
  994W        W 2191   7.825   2.807   0.541
  995W        W 2192   6.786   4.512   5.405
  996W        W 2193   1.983   7.115   2.369
  997W        W 2194   2.218   4.972   6.541
  998W        W 2195   2.782   3.886   5.464
  999W        W 2196   0.976   1.602   3.941
 1000W        W 2197   3.625   5.000   2.500
 1001W        W 2198   3.865   1.493   3.161
 1002W        W 2199   1.787   3.369   2.712
 1003W        W 2200   4.464   7.655   3.487
 1004W        W 2201   7.148   5.686   3.768
 1005W        W 2202   3.524   3.063   5.176
 1006W        W 2203   5.490   6.248   6.446
 1007W        W 2204   3.234   0.566   0.569
 1008W        W 2205   5.253   3.495   4.327
 1009W        W 2206   4.523   0.774   7.257
 1010W        W 2207   0.690   4.249   7.601
 1011W        W 2208   5.092   0.602   2.415
 1012W        W 2209   1.096   4.146   6.690
 1013W        W 2210   2.027   6.548   7.251
 1014W        W 2211   5.418   5.787   0.010
 1015W        W 2212   3.672   4.632   0.482
 1016W        W 2213   3.222   5.104   2.215
 1017W        W 2214   5.203   1.899   6.170
 1018W        W 2215   4.669   1.346   0.883
 1019W        W 2216   1.159   6.454   7.689
 1020W        W 2217   2.402   5.973   6.511
 1021W        W 2218   5.050   6.016   4.885
 1022W        W 2219   0.793   2.861   6.033
 1023W        W 2220   3.447   7.670   5.904
 1024W        W 2221   1.482   0.287   0.575
 1025W        W 2222   1.031   7.279   6.208
 1026W        W 2223   1.326   1.809   1.640
 1027W        W 2224   2.278   2.786   7.246
 1028W        W 2225   5.785   1.696   2.450
 1029W        W 2226   3.176   4.985   1.695
 1030W        W 2227   1.988   0.531   2.619
 1031W        W 2228   6.332   7.330   5.041
 1032W        W 2229   1.079   3.981   3.640
 1033W        W 2230   5.200   6.667   6.540
 1034W        W 2231   6.016   1.376   6.236
 1035W        W 2232   5.982   1.673   3.584
 1036W        W 2233   0.411   3.955   4.935
 1037W        W 2234   5.824   3.710   3.116
 1038W        W 2235   0.225   1.554   5.994
 1039W        W 2236   3.699   2.924   5.706
 1040W        W 2237   5.202   6.281   1.449
 1041W        W 2238   3.708   2.265   6.921
 1042W        W 2239   0.866   3.516   3.802
 1043W        W 2240   5.061   6.395   5.272
 1044W        W 2241   1.770   4.360   4.657
 1045W        W 2242   0.742   1.534   5.954
 1046W        W 2243   5.201   4.724   3.441
 1047W        W 2244   4.316   7.998   5.046
 1048W        W 2245   4.726   0.640   5.014
 1049W        W 2246   1.438   7.177   7.894
 1050W        W 2247   5.010   1.826   1.961
 1051W        W 2248   3.390   2.239   4.211
 1052W        W 2249   1.003   6.649   2.856
 1053W        W 2250   0.485   0.383   0.848
 1054W        W 2251   4.797   2.286   1.104
 1055W        W 2252   7.555   0.234   1.123
 1056W        W 2253   1.423   5.154   1.824
 1057W        W 2254   0.346   5.035   1.190
 1058W        W 2255   2.789   5.361   5.321
 1059W        W 2256   3.188   0.019   2.328
 1060W        W 2257   6.350   1.031   4.121
 1061W        W 2258   5.928   1.970   3.998
 1062W        W 2259   2.768   3.522   0.557
 1063W        W 2260   6.140   2.040   2.679
 1064W        W 2261   0.021   7.526   4.980
 1065W        W 2262   0.737   3.953   5.352
 1066W        W 2263   1.400   1.883   4.638
 1067W        W 2264   5.927   1.775   1.265
 1068W        W 2265   7.419   1.025   5.988
 1069W        W 2266   6.997   0.742   3.438
 1070W        W 2267   0.188   7.082   7.230
 1071W        W 2268   0.654   6.557   7.804
 1072W        W 2269   7.097   3.743   5.574
 1073W        W 2270   6.921   0.237   3.317
 1074W        W 2271   6.806   4.416   7.445
 1075W        W 2272   0.952   5.706   3.495
 1076W        W 2273   6.182   4.506   4.683
 1077W        W 2274   6.096   7.935   3.738
 1078W        W 2275   3.639   0.370   5.618
 1079W        W 2276   3.099   1.126   7.122
 1080W        W 2277   5.920   3.307   6.996
 1081W        W 2278   4.930   3.316   2.822
 1082W        W 2279   7.353   2.410   5.447
 1083W        W 2280   7.797   7.121   6.888
 1084W        W 2281   2.742   0.591   0.694
 1085W        W 2282   0.926   6.088   1.702
 1086W        W 2283   5.859   2.760   4.453
 1087W        W 2284   3.562   1.066   7.344
 1088W        W 2285   3.480   0.471   2.835
 1089W        W 2286   3.172   2.888   1.696
 1090W        W 2287   6.627   4.557   4.193
 1091W        W 2288   4.090   4.653   0.826
 1092W        W 2289   3.751   6.303   3.108
 1093W        W 2290   5.593   1.211   2.561
 1094W        W 2291   6.475   2.341   7.520
 1095W        W 2292   3.200   6.581   2.379
 1096W        W 2293   1.481   6.677   0.061
 1097W        W 2294   4.570   5.440   0.709
 1098W        W 2295   6.488   2.149   0.423
 1099W        W 2296   3.643   6.693   6.927
 1100W        W 2297   7.220   2.374   5.955
 1101W        W 2298   4.779   3.441   6.290
 1102W        W 2299   3.095   1.605   5.818
 1103W        W 2300   4.296   6.903   4.578
 1104W        W 2301   7.422   1.255   2.135
 1105W        W 2302   6.074   5.353   0.108
 1106W        W 2303   1.216   2.799   7.884
 1107W        W 2304   2.925   3.108   6.054
 1108W        W 2305   0.519   3.152   6.353
 1109W        W 2306   4.047   2.167   5.353
 1110W        W 2307   4.115   2.594   6.952
 1111W        W 2308   3.099   7.096   1.645
 1112W        W 2309   3.022   3.037   4.752
 1113W        W 2310   7.748   4.803   5.178
 1114W        W 2311   7.461   4.001   1.068
 1115W        W 2312   6.167   1.527   4.071
 1116W        W 2313   3.844   5.208   1.960
 1117W        W 2314   4.769   1.668   5.259
 1118W        W 2315   2.563   3.114   4.523
 1119W        W 2316   3.171   4.610   6.343
 1120W        W 2317   5.265   2.199   7.316
 1121W        W 2318   7.023   5.530   5.127
 1122W        W 2319   5.110   5.453   6.156
 1123W        W 2320   6.871   6.049   5.105
 1124W        W 2321   0.548   6.514   4.312
 1125W        W 2322   6.935   3.457   4.606
 1126W        W 2323   4.454   4.640   5.894
 1127W        W 2324   5.242   0.604   3.442
 1128W        W 2325   1.966   6.877   1.000
 1129W        W 2326   4.770   5.139   6.376
 1130W        W 2327   3.456   1.377   5.495
 1131W        W 2328   6.597   2.388   5.244
 1132W        W 2329   7.007   2.709   5.114
 1133W        W 2330   1.648   4.814   4.876
 1134W        W 2331   5.893   4.203   2.389
 1135W        W 2332   3.958   7.605   5.898
 1136W        W 2333   1.007   0.966   3.303
 1137W        W 2334   1.080   2.502   6.264
 1138W        W 2335   3.543   5.419   3.280
 1139W        W 2336   1.450   5.961   6.645
 1140W        W 2337   4.110   6.755   4.144
 1141W        W 2338   4.308   1.726   3.494
 1142W        W 2339   7.492   2.088   3.057
 1143W        W 2340   0.431   3.994   4.413
 1144W        W 2341   4.554   3.659   5.300
 1145W        W 2342   3.236   3.130   5.646
 1146W        W 2343   2.557   1.086   4.511
 1147W        W 2344   2.781   6.572   4.644
 1148W        W 2345   0.934   4.236   4.978
 1149W        W 2346   0.485   1.897   6.290
 1150W        W 2347   1.706   2.154   0.799
 1151W        W 2348   3.818   3.095   2.818
 1152W        W 2349   7.089   3.354   5.887
 1153W        W 2350   7.640   5.132   2.225
 1154W        W 2351   0.894   6.126   3.215
 1155W        W 2352   4.024   6.308   5.332
 1156W        W 2353   1.650   1.843   5.083
 1157W        W 2354   4.303   2.366   1.186
 1158W        W 2355   1.550   1.122   4.154
 1159W        W 2356   6.825   5.942   1.136
 1160W        W 2357   4.074   0.720   0.823
 1161W        W 2358   7.210   4.969   1.055
 1162W        W 2359   5.363   2.098   4.694
 1163W        W 2360   5.801   7.011   6.034
 1164W        W 2361   4.445   2.248   5.701
 1165W        W 2362   1.085   6.090   2.191
 1166W        W 2363   1.298   6.897   7.485
 1167W        W 2364   0.954   6.169   7.304
 1168W        W 2365   5.999   5.429   1.572
 1169W        W 2366   4.590   0.863   0.659
 1170W        W 2367   6.930   4.567   5.881
 1171W        W 2368   6.226   3.162   5.133
 1172W        W 2369   7.187   6.153   2.528
 1173W        W 2370   6.705   3.035   6.395
 1174W        W 2371   3.131   6.260   1.249
 1175W        W 2372   5.580   5.292   7.917
 1176W        W 2373   6.350   2.694   6.246
 1177W        W 2374   1.817   7.042   0.223
 1178W        W 2375   2.487   6.786   1.050
 1179W        W 2376   4.265   7.220   2.130
 1180W        W 2377   3.870   4.993   4.083
 1181W        W 2378   2.449   6.161   2.394
 1182W        W 2379   3.645   2.743   6.164
 1183W        W 2380   0.102   0.915   2.522
 1184W        W 2381   6.084   5.791   6.813
 1185W        W 2382   1.582   4.220   7.643
 1186W        W 2383   5.021   3.516   3.313
 1187W        W 2384   4.096   0.544   1.824
 1188W        W 2385   7.566   0.407   2.281
 1189W        W 2386   5.362   5.942   2.613
 1190W        W 2387   4.152   3.989   3.114
 1191W        W 2388   1.466   5.939   2.545
 1192W        W 2389   2.567   3.653   1.018
 1193W        W 2390   7.073   0.871   6.822
 1194W        W 2391   4.115   5.907   4.408
 1195W        W 2392   4.449   2.245   7.098
 1196W        W 2393   4.649   2.154   2.103
 1197W        W 2394   4.389   5.353   2.015
 1198W        W 2395   5.497   2.460   1.657
 1199W        W 2396   1.877   6.495   4.530
 1200W        W 2397   0.230   5.331   4.601
 1201W        W 2398   4.576   2.536   0.736
 1202W        W 2399   0.412   4.088   3.909
 1203W        W 2400   2.203   1.277   4.832
 1204W        W 2401   6.013   3.289   3.446
 1205W        W 2402   4.508   1.951   4.473
 1206W        W 2403   6.977   2.077   2.395
 1207W        W 2404   6.283   5.035   2.628
 1208W        W 2405   5.542   0.769   7.544
 1209W        W 2406   4.888   1.891   7.055
 1210W        W 2407   1.239   1.141   2.879
 1211W        W 2408   1.938   3.416   0.028
 1212W        W 2409   4.951   6.616   1.741
 1213W        W 2410   0.641   3.165   0.544
 1214W        W 2411   6.038   6.187   0.528
 1215W        W 2412   5.607   2.487   3.408
 1216W        W 2413   1.986   7.582   2.083
 1217W        W 2414   1.991   5.754   1.005
 1218W        W 2415   1.075   0.782   2.444
 1219W        W 2416   3.473   4.444   5.182
 1220W        W 2417   6.362   4.213   5.587
 1221W        W 2418   3.570   1.751   5.965
 1222W        W 2419   1.293   2.364   6.973
 1223W        W 2420   0.279   6.408   2.417
 1224W        W 2421   5.947   2.479   2.465
 1225W        W 2422   6.870   4.147   2.160
 1226W        W 2423   2.065   4.194   3.210
 1227W        W 2424   3.545   7.457   0.342
 1228W        W 2425   3.863   3.491   6.792
 1229W        W 2426   5.962   3.733   1.321
 1230W        W 2427   3.983   1.159   6.139
 1231W        W 2428   3.358   4.979   3.005
 1232W        W 2429   5.216   5.128   5.804
 1233W        W 2430   0.642   0.221   5.957
 1234W        W 2431   5.335   5.214   2.174
 1235W        W 2432   3.122   1.963   2.546
 1236W        W 2433   4.107   5.310   5.204
 1237W        W 2434   2.424   6.071   1.878
 1238W        W 2435   4.946   2.469   2.416
 1239W        W 2436   3.778   2.463   0.263
 1240W        W 2437   0.990   4.572   5.920
 1241W        W 2438   0.894   7.430   6.694
 1242W        W 2439   4.379   5.163   4.794
 1243W        W 2440   2.068   0.478   5.193
 1244W        W 2441   0.978   0.222   4.803
 1245W        W 2442   1.092   6.640   0.386
 1246W        W 2443   5.843   7.182   3.848
 1247W        W 2444   1.347   3.086   2.670
 1248W        W 2445   3.764   4.041   4.967
 1249W        W 2446   3.731   2.173   7.810
 1250W        W 2447   0.538   0.831   1.593
 1251W        W 2448   4.237   7.678   5.472
 1252W        W 2449   1.838   0.159   2.298
 1253W        W 2450   1.163   0.843   5.571
 1254W        W 2451   0.627   7.639   7.618
 1255W        W 2452   3.343   7.204   0.747
 1256W        W 2453   6.652   5.002   5.848
 1257W        W 2454   2.349   2.073   5.950
 1258W        W 2455   1.363   7.925   2.364
 1259W        W 2456   4.658   5.287   4.037
 1260W        W 2457   4.271   6.733   3.635
 1261W        W 2458   6.647   1.925   2.015
 1262W        W 2459   2.801   2.693   7.195
 1263W        W 2460   6.578   1.032   3.466
 1264W        W 2461   6.498   3.795   2.902
 1265W        W 2462   4.126   7.340   1.096
 1266W        W 2463   4.901   7.288   2.804
 1267W        W 2464   3.920   0.635   2.608
 1268W        W 2465   4.635   0.468   6.743
 1269W        W 2466   2.767   2.872   5.627
 1270W        W 2467   5.547   1.203   0.840
 1271W        W 2468   3.209   2.148   7.865
 1272W        W 2469   0.290   4.961   4.996
 1273W        W 2470   2.191   4.919   0.724
 1274W        W 2471   5.711   0.841   7.054
 1275W        W 2472   2.498   3.269   3.488
 1276W        W 2473   5.191   3.110   0.574
 1277W        W 2474   5.888   1.144   4.319
 1278W        W 2475   7.070   0.632   5.815
 1279W        W 2476   5.254   5.496   3.774
 1280W        W 2477   5.792   3.482   6.036
 1281W        W 2478   7.978   1.658   6.936
 1282W        W 2479   1.277   5.205   4.349
 1283W        W 2480   7.803   1.326   6.222
 1284W        W 2481   3.964   7.539   1.879
 1285W        W 2482   6.847   7.829   5.374
 1286W        W 2483   4.713   3.121   3.245
 1287W        W 2484   1.425   2.632   0.979
 1288W        W 2485   4.137   0.808   6.461
 1289W        W 2486   7.321   4.415   2.144
 1290W        W 2487   4.579   0.182   5.448
 1291W        W 2488   2.152   1.951   7.134
 1292W        W 2489   1.263   4.028   5.341
 1293W        W 2490   3.944   2.038   1.078
 1294W        W 2491   2.792   6.949   2.327
 1295W        W 2492   2.408   1.994   6.668
 1296W        W 2493   3.825   2.801   0.651
 1297W        W 2494   2.990   5.276   6.997
 1298W        W 2495   4.898   6.017   2.390
 1299W        W 2496   5.706   1.029   6.060
 1300W        W 2497   2.562   1.616   2.263
 1301W        W 2498   4.152   6.327   2.683
 1302W        W 2499   2.072   6.402   3.649
 1303W        W 2500   3.861   6.304   4.215
 1304W        W 2501   4.986   7.028   3.709
 1305W        W 2502   2.048   6.402   6.412
 1306W        W 2503   0.169   0.048   5.854
 1307W        W 2504   6.851   4.864   2.691
 1308W        W 2505   2.119   3.568   4.776
 1309W        W 2506   5.917   6.518   1.994
 1310W        W 2507   1.730   4.712   7.300
 1311W        W 2508   6.250   5.385   3.551
 1312W        W 2509   2.950   5.641   4.953
 1313W        W 2510   1.558   6.754   2.868
 1314W        W 2511   4.779   2.215   5.314
 1315W        W 2512   6.392   2.267   4.775
 1316W        W 2513   5.801   6.449   6.025
 1317W        W 2514   1.521   7.134   6.086
 1318W        W 2515   0.588   1.559   1.159
 1319W        W 2516   5.381   3.021   7.200
 1320W        W 2517   1.694   3.392   1.047
 1321W        W 2518   5.935   0.882   2.855
 1322W        W 2519   5.076   4.384   5.263
 1323W        W 2520   7.922   6.181   1.475
 1324W        W 2521   7.039   1.255   3.563
 1325W        W 2522   3.780   2.305   1.567
 1326W        W 2523   7.181   5.291   2.965
 1327W        W 2524   1.709   5.995   1.359
 1328W        W 2525   7.650   2.593   1.490
 1329W        W 2526   1.470   5.696   4.404
 1330W        W 2527   3.801   5.860   5.129
 1331W        W 2528   7.349   7.074   6.576
 1332W        W 2529   4.010   6.945   1.810
 1333W        W 2530   7.671   6.667   6.645
 1334W        W 2531   2.607   2.894   5.026
 1335W        W 2532   7.914   4.099   4.640
 1336W        W 2533   1.191   5.248   3.468
 1337W        W 2534   0.100   5.933   6.319
 1338W        W 2535   5.604   4.040   0.456
 1339W        W 2536   3.561   3.486   7.576
 1340W        W 2537   0.256   4.042   6.553
 1341W        W 2538   1.614   1.221   0.534
 1342W        W 2539   4.364   2.227   3.392
 1343W        W 2540   1.168   1.260   7.970
 1344W        W 2541   5.608   6.235   0.208
 1345W        W 2542   5.835   4.624   2.115
 1346W        W 2543   2.202   2.420   6.877
 1347W        W 2544   5.546   6.993   5.573
 1348W        W 2545   3.520   6.003   5.506
 1349W        W 2546   5.353   7.304   3.989
 1350W        W 2547   5.799   3.099   1.280
 1351W        W 2548   6.330   4.575   2.271
 1352W        W 2549   5.586   0.915   1.512
 1353W        W 2550   0.575   7.926   7.175
 1354W        W 2551   4.152   5.657   6.112
 1355W        W 2552   3.933   2.716   4.900
 1356W        W 2553   7.713   3.456   1.144
 1357W        W 2554   0.377   6.741   3.144
 1358W        W 2555   1.207   6.741   6.244
 1359W        W 2556   6.016   2.911   2.756
 1360W        W 2557   4.549   2.620   6.660
 1361W        W 2558   7.233   0.365   1.513
 1362W        W 2559   3.179   2.693   3.336
 1363W        W 2560   0.139   6.729   6.851
 1364W        W 2561   5.595   1.571   6.000
 1365W        W 2562   5.008   1.390   4.706
 1366W        W 2563   1.011   4.280   2.199
 1367W        W 2564   1.773   4.308   6.000
 1368W        W 2565   4.027   2.454   3.056
 1369W        W 2566   3.473   0.235   4.811
 1370W        W 2567   6.404   0.210   4.023
 1371W        W 2568   0.835   3.743   7.478
 1372W        W 2569   3.159   5.880   1.620
 1373W        W 2570   6.132   6.221   3.772
 1374W        W 2571   6.600   3.519   5.981
 1375W        W 2572   0.041   1.724   6.444
 1376W        W 2573   3.976   7.609   5.032
 1377W        W 2574   1.698   3.023   6.466
 1378W        W 2575   6.854   4.969   3.178
 1379W        W 2576   5.190   1.883   2.878
 1380W        W 2577   6.728   4.782   6.292
 1381W        W 2578   5.212   2.072   6.673
 1382W        W 2579   2.075   5.755   5.592
 1383W        W 2580   0.960   1.291   2.482
 1384W        W 2581   0.356   6.984   4.258
 1385W        W 2582   6.110   4.973   3.829
 1386W        W 2583   7.213   2.378   1.642
 1387W        W 2584   0.879   4.287   4.480
 1388W        W 2585   5.721   0.772   5.599
 1389W        W 2586   2.500   4.207   3.475
 1390W        W 2587   6.423   7.749   2.359
 1391W        W 2588   3.486   1.256   6.011
 1392W        W 2589   5.678   3.190   0.789
 1393W        W 2590   0.987   3.181   5.268
 1394W        W 2591   3.841   1.198   3.689
 1395W        W 2592   5.366   3.921   3.242
 1396W        W 2593   1.206   1.307   5.828
 1397W        W 2594   4.486   3.455   0.669
 1398W        W 2595   6.921   4.278   3.600
 1399W        W 2596   1.866   5.578   2.461
 1400W        W 2597   3.855   1.090   0.278
 1401W        W 2598   2.901   0.300   1.146
 1402W        W 2599   4.502   7.396   2.514
 1403W        W 2600   5.504   6.493   5.582
 1404W        W 2601   4.633   5.510   6.039
 1405W        W 2602   4.181   1.856   7.274
 1406W        W 2603   7.725   2.500   7.253
 1407W        W 2604   0.968   7.559   4.960
 1408W        W 2605   2.582   4.096   3.959
 1409W        W 2606   3.955   7.451   0.642
 1410W        W 2607   2.367   6.370   0.761
 1411W        W 2608   6.442   2.677   2.141
 1412W        W 2609   5.777   6.605   0.677
 1413W        W 2610   0.828   5.032   5.792
 1414W        W 2611   4.949   6.246   6.385
 1415W        W 2612   5.685   5.227   5.633
 1416W        W 2613   7.429   0.284   7.069
 1417W        W 2614   2.940   2.814   0.244
 1418W        W 2615   5.130   0.184   3.741
 1419W        W 2616   7.476   3.711   5.985
 1420W        W 2617   0.082   6.424   6.427
 1421W        W 2618   0.885   2.036   7.015
 1422W        W 2619   1.455   5.911   0.616
 1423W        W 2620   4.198   7.144   5.007
 1424W        W 2621   1.632   1.684   6.507
 1425W        W 2622   1.794   0.585   3.539
 1426W        W 2623   2.387   1.475   2.714
 1427W        W 2624   2.071   3.250   3.764
 1428W        W 2625   4.687   5.921   6.732
 1429W        W 2626   1.770   6.821   7.637
 1430W        W 2627   7.419   6.977   1.950
 1431W        W 2628   7.627   5.061   3.272
 1432W        W 2629   1.349   7.593   1.950
 1433W        W 2630   6.241   5.748   3.172
 1434W        W 2631   2.867   3.429   1.390
 1435W        W 2632   1.770   3.651   3.534
 1436W        W 2633   0.032   0.764   1.559
 1437W        W 2634   4.363   7.206   4.171
 1438W        W 2635   7.146   1.553   0.936
 1439W        W 2636   7.839   3.522   1.654
 1440W        W 2637   2.112   1.635   2.036
 1441W        W 2638   7.105   0.666   4.271
 1442W        W 2639   4.096   2.086   0.147
 1443W        W 2640   4.568   5.613   2.418
 1444W        W 2641   3.635   5.155   5.271
 1445W        W 2642   0.402   0.860   1.072
 1446W        W 2643   7.358   2.301   2.135
 1447W        W 2644   2.705   4.451   6.160
 1448W        W 2645   3.539   1.353   6.898
 1449W        W 2646   6.018   1.781   3.093
 1450W        W 2647   0.487   7.657   1.802
 1451W        W 2648   4.284   4.997   3.766
 1452W        W 2649   5.710   0.257   2.806
 1453W        W 2650   5.704   7.910   2.442
 1454W        W 2651   0.531   1.419   6.436
 1455W        W 2652   6.413   4.442   6.531
 1456W        W 2653   3.319   0.426   1.432
 1457W        W 2654   5.605   5.269   6.132
 1458W        W 2655   0.571   6.345   2.876
 1459W        W 2656   0.472   5.907   3.394
 1460W        W 2657   2.911   0.634   2.830
 1461W        W 2658   3.493   4.860   4.372
 1462W        W 2659   3.265   0.528   6.519
 1463W        W 2660   3.185   4.737   2.567
 1464W        W 2661   6.716   1.746   1.197
 1465W        W 2662   7.541   7.634   4.752
 1466W        W 2663   4.853   0.342   3.048
 1467W        W 2664   2.235   2.825   2.283
 1468W        W 2665   5.225   2.650   3.764
 1469W        W 2666   2.541   5.087   6.179
 1470W        W 2667   3.514   4.985   6.176
 1471W        W 2668   7.100   3.885   3.910
 1472W        W 2669   3.261   2.409   0.355
 1473W        W 2670   2.784   0.773   6.424
 1474W        W 2671   7.139   2.786   6.517
 1475W        W 2672   2.670   1.597   1.310
 1476W        W 2673   6.922   5.191   6.993
 1477W        W 2674   2.341   0.401   2.975
 1478W        W 2675   7.197   2.885   6.036
 1479W        W 2676   7.584   5.823   6.296
 1480W        W 2677   0.537   6.782   2.106
 1481W        W 2678   6.762   7.535   4.844
 1482W        W 2679   3.611   4.243   1.996
 1483W        W 2680   1.228   5.486   3.926
 1484W        W 2681   3.108   2.181   0.817
 1485W        W 2682   3.525   4.410   0.927
 1486W        W 2683   4.914   2.389   6.973
 1487W        W 2684   0.513   4.396   5.214
 1488W        W 2685   4.975   2.708   4.595
 1489W        W 2686   6.208   2.018   6.832
 1490W        W 2687   4.501   7.389   0.744
 1491W        W 2688   6.861   0.042   4.872
 1492W        W 2689   7.972   4.641   4.729
 1493W        W 2690   4.784   3.640   7.245
 1494W        W 2691   1.788   5.085   2.861
 1495W        W 2692   7.576   4.369   4.939
 1496W        W 2693   6.439   2.947   3.060
 1497W        W 2694   3.102   3.493   3.219
 1498W        W 2695   5.573   5.958   4.495
 1499W        W 2696   5.577   2.107   5.902
 1500W        W 2697   0.345   1.274   6.892
 1501W        W 2698   2.069   2.809   6.182
 1502W        W 2699   0.146   2.239   6.514
 1503W        W 2700   4.902   7.663   2.385
 1504W        W 2701   4.439   4.718   6.400
 1505W        W 2702   3.081   2.814   5.240
 1506W        W 2703   6.217   4.532   1.098
 1507W        W 2704   2.797   3.406   5.651
 1508W        W 2705   5.211   4.714   7.391
 1509W        W 2706   5.512   3.932   1.521
 1510W        W 2707   6.562   5.071   0.989
 1511W        W 2708   1.768   5.261   5.627
 1512W        W 2709   2.034   5.100   3.377
 1513W        W 2710   4.240   0.398   6.187
 1514W        W 2711   1.626   0.866   2.728
 1515W        W 2712   6.355   3.677   5.388
 1516W        W 2713   6.627   0.713   6.611
 1517W        W 2714   5.313   4.270   3.603
 1518W        W 2715   6.688   0.085   2.008
 1519W        W 2716   0.620   4.325   6.785
 1520W        W 2717   0.986   0.214   7.248
 1521W        W 2718   3.359   5.145   0.579
 1522W        W 2719   1.703   4.784   5.385
 1523W        W 2720   5.529   2.478   0.619
 1524W        W 2721   2.665   2.279   6.307
 1525W        W 2722   2.133   6.422   2.080
 1526W        W 2723   5.770   5.781   2.929
 1527W        W 2724   1.147   1.140   3.784
 1528W        W 2725   7.871   0.101   1.989
 1529W        W 2726   3.828   4.383   3.289
 1530W        W 2727   3.476   0.852   3.523
 1531W        W 2728   5.400   5.465   6.968
 1532W        W 2729   1.818   2.616   0.629
 1533W        W 2730   3.094   5.613   4.095
 1534W        W 2731   5.941   2.326   5.600
 1535W        W 2732   0.462   4.565   1.043
 1536W        W 2733   2.775   5.174   4.692
 1537W        W 2734   1.989   6.568   0.031
 1538W        W 2735   1.941   6.543   3.179
 1539W        W 2736   6.642   5.148   2.300
 1540W        W 2737   3.278   3.364   6.601
 1541W        W 2738   2.139   1.019   2.705
 1542W        W 2739   2.241   2.307   5.491
 1543W        W 2740   0.811   6.576   3.403
 1544W        W 2741   2.485   5.376   6.758
 1545W        W 2742   5.621   5.503   2.511
 1546W        W 2743   2.780   2.791   4.189
 1547W        W 2744   3.432   7.231   4.338
 1548W        W 2745   3.364   6.597   3.488
 1549W        W 2746   0.446   0.141   6.417
 1550W        W 2747   2.162   1.900   2.481
 1551W        W 2748   4.006   1.757   7.729
 1552W        W 2749   4.395   4.605   7.072
 1553W        W 2750   0.877   6.680   7.326
 1554W        W 2751   4.277   3.400   6.096
 1555W        W 2752   7.423   1.188   1.199
 1556W        W 2753   4.049   4.572   7.872
 1557W        W 2754   5.952   1.393   4.847
 1558W        W 2755   5.153   3.454   2.393
 1559W        W 2756   7.079   2.186   0.538
 1560W        W 2757   1.244   2.793   6.698
 1561W        W 2758   0.081   0.556   6.657
 1562W        W 2759   4.163   4.597   4.075
 1563W        W 2760   7.089   4.354   4.092
 1564W        W 2761   7.275   2.759   7.355
 1565W        W 2762   4.330   4.279   7.561
 1566W        W 2763   1.806   5.764   2.923
 1567W        W 2764   1.245   4.256   0.775
 1568W        W 2765   4.235   2.816   2.787
 1569W        W 2766   4.758   5.945   5.293
 1570W        W 2767   3.771   3.555   1.254
 1571W        W 2768   2.839   3.156   7.394
 1572W        W 2769   3.578   0.895   5.658
 1573W        W 2770   2.123   1.024   3.571
 1574W        W 2771   7.222   6.455   5.034
 1575W        W 2772   2.898   3.985   0.771
 1576W        W 2773   2.856   6.701   1.418
 1577W        W 2774   1.503   3.191   6.910
 1578W        W 2775   5.478   2.590   4.728
 1579W        W 2776   3.561   1.037   4.467
 1580W        W 2777   1.882   6.907   4.873
 1581W        W 2778   0.447   0.628   6.292
 1582W        W 2779   2.395   5.794   4.172
 1583W        W 2780   0.948   4.406   5.460
 1584W        W 2781   6.922   3.069   3.242
 1585W        W 2782   1.491   1.533   3.833
 1586W        W 2783   5.028   0.778   1.577
 1587W        W 2784   3.966   2.487   5.762
 1588W        W 2785   5.662   0.938   3.549
 1589W        W 2786   0.828   0.726   5.945
 1590W        W 2787   6.304   5.935   5.893
 1591W        W 2788   1.420   0.682   3.926
 1592W        W 2789   5.833   0.828   2.337
 1593W        W 2790   5.432   6.629   1.937
 1594W        W 2791   1.859   2.612   3.403
 1595W        W 2792   4.329   2.657   3.950
 1596W        W 2793   2.723   1.773   6.122
 1597W        W 2794   4.322   1.341   7.121
 1598W        W 2795   0.647   0.373   6.813
 1599W        W 2796   5.609   6.382   4.131
 1600W        W 2797   7.625   4.247   0.639
 1601W        W 2798   3.948   5.884   3.934
 1602W        W 2799   1.243   7.345   0.821
 1603W        W 2800   2.090   1.821   6.311
 1604W        W 2801   6.643   4.172   1.036
 1605W        W 2802   3.553   3.877   5.951
 1606W        W 2803   7.663   2.543   2.798
 1607W        W 2804   2.568   5.951   5.137
 1608W        W 2805   3.443   2.884   0.309
 1609W        W 2806   7.299   4.829   2.430
 1610W        W 2807   4.245   5.143   7.244
 1611W        W 2808   3.014   3.289   2.739
 1612W        W 2809   1.774   7.663   5.338
 1613W        W 2810   1.717   5.701   3.969
 1614W        W 2811   6.236   7.480   3.917
 1615W        W 2812   0.769   2.324   0.776
 1616W        W 2813   4.330   5.113   6.072
 1617W        W 2814   6.779   2.707   4.094
 1618W        W 2815   6.945   4.484   3.088
 1619W        W 2816   7.645   1.476   0.805
 1620W        W 2817   0.987   3.767   2.285
 1621W        W 2818   5.517   3.801   5.219
 1622W        W 2819   0.093   0.066   1.029
 1623W        W 2820   4.190   6.986   0.738
 1624W        W 2821   5.387   6.021   7.303
 1625W        W 2822   4.686   4.713   3.290
 1626W        W 2823   2.129   6.451   1.214
 1627W        W 2824   0.178   2.454   0.747
 1628W        W 2825   2.898   4.744   2.972
 1629W        W 2826   6.153   0.829   6.282
 1630W        W 2827   3.950   2.425   2.550
 1631W        W 2828   4.927   4.407   5.735
 1632W        W 2829   5.087   2.113   1.471
 1633W        W 2830   4.762   6.095   3.253
 1634W        W 2831   2.134   3.334   4.302
 1635W        W 2832   1.025   7.679   7.250
 1636W        W 2833   1.455   7.365   7.363
 1637W        W 2834   4.242   6.288   1.322
 1638W        W 2835   0.918   3.207   6.699
 1639W        W 2836   3.262   3.983   5.147
 1640W        W 2837   4.513   0.271   1.875
 1641W        W 2838   0.609   6.298   4.766
 1642W        W 2839   6.415   1.886   7.895
 1643W        W 2840   5.873   7.451   2.318
 1644W        W 2841   3.911   6.560   0.812
 1645W        W 2842   5.017   0.796   0.307
 1646W        W 2843   2.261   4.117   5.959
 1647W        W 2844   4.255   4.267   6.215
 1648W        W 2845   3.230   1.764   3.650
 1649W        W 2846   1.647   0.658   4.425
 1650W        W 2847   1.223   3.958   1.845
 1651W        W 2848   1.184   3.178   5.737
 1652W        W 2849   0.772   0.526   2.032
 1653W        W 2850   1.911   4.897   3.838
 1654W        W 2851   6.757   3.145   3.782
 1655W        W 2852   4.939   3.443   0.996
 1656W        W 2853   4.329   6.320   3.971
 1657W        W 2854   4.337   3.310   4.596
 1658W        W 2855   5.113   3.898   1.129
 1659W        W 2856   3.285   1.444   1.507
 1660W        W 2857   1.990   6.098   4.204
 1661W        W 2858   4.058   3.034   1.921
 1662W        W 2859   6.451   1.858   7.344
 1663W        W 2860   3.824   7.079   4.641
 1664W        W 2861   4.358   4.604   1.291
 1665W        W 2862   0.477   6.797   4.736
 1666W        W 2863   4.899   4.518   7.000
 1667W        W 2864   6.218   1.956   4.404
 1668W        W 2865   0.638   2.425   1.648
 1669W        W 2866   4.540   4.994   1.625
 1670W        W 2867   1.905   6.642   0.549
 1671W        W 2868   2.475   5.895   0.955
 1672W        W 2869   1.111   3.634   5.078
 1673W        W 2870   1.961   5.164   5.069
 1674W        W 2871   4.141   3.965   6.620
 1675W        W 2872   6.667   0.869   1.231
 1676W        W 2873   4.807   1.275   0.384
 1677W        W 2874   0.629   6.009   2.451
 1678W        W 2875   5.150   5.738   6.595
 1679W        W 2876   0.398   5.846   5.559
 1680W        W 2877   5.959   7.307   5.656
 1681W        W 2878   4.073   4.362   2.233
 1682W        W 2879   5.318   7.295   4.491
 1683W        W 2880   5.933   2.360   3.019
 1684W        W 2881   5.663   2.065   5.261
 1685W        W 2882   7.855   5.639   5.676
 1686W        W 2883   6.873   0.183   4.328
 1687W        W 2884   4.602   4.246   0.429
 1688W        W 2885   0.579   7.019   7.556
 1689W        W 2886   2.356   5.509   1.255
 1690W        W 2887   1.532   7.619   1.150
 1691W        W 2888   4.675   6.005   4.490
 1692W        W 2889   0.710   1.228   0.260
 1693W        W 2890   1.048   7.937   7.697
 1694W        W 2891   5.824   2.813   7.075
 1695W        W 2892   3.904   3.149   6.413
 1696W        W 2893   2.399   6.524   1.645
 1697W        W 2894   4.915   1.785   0.371
 1698W        W 2895   7.226   6.058   1.623
 1699W        W 2896   3.881   1.757   6.847
 1700W        W 2897   4.422   4.495   4.493
 1701W        W 2898   6.860   7.018   2.310
 1702W        W 2899   3.311   2.674   0.822
 1703W        W 2900   3.102   6.022   3.754
 1704W        W 2901   3.433   3.512   7.072
 1705W        W 2902   3.932   2.943   0.152
 1706W        W 2903   4.688   6.721   6.583
 1707W        W 2904   3.772   7.167   2.200
 1708W        W 2905   7.587   4.289   1.494
 1709W        W 2906   6.476   5.215   7.667
 1710W        W 2907   0.765   4.609   7.196
 1711W        W 2908   0.505   4.814   6.691
 1712W        W 2909   1.355   1.736   6.092
 1713W        W 2910   2.465   4.503   3.064
 1714W        W 2911   6.255   3.308   1.519
 1715W        W 2912   5.559   6.489   6.895
 1716W        W 2913   4.139   2.266   4.757
 1717W        W 2914   7.435   1.963   0.870
 1718W        W 2915   0.349   6.453   1.145
 1719W        W 2916   5.149   2.866   5.965
 1720W        W 2917   6.164   3.335   1.010
 1721W        W 2918   4.287   5.784   5.270
 1722W        W 2919   1.354   2.683   3.589
 1723W        W 2920   5.872   1.668   1.947
 1724W        W 2921   2.065   1.579   6.788
 1725W        W 2922   7.228   7.929   6.756
 1726W        W 2923   3.301   6.890   5.228
 1727W        W 2924   3.470   1.537   4.467
 1728W        W 2925   1.750   7.013   3.283
 1729W        W 2926   4.029   2.109   3.757
 1730W        W 2927   4.662   0.417   5.893
 1731W        W 2928   5.820   6.976   1.776
 1732W        W 2929   3.653   5.074   1.448
 1733W        W 2930   0.274   3.506   0.667
 1734W        W 2931   6.965   4.753   3.804
 1735W        W 2932   3.787   4.740   2.108
 1736W        W 2933   6.777   1.660   5.657
 1737W        W 2934   2.607   2.111   3.492
 1738W        W 2935   3.615   4.706   6.577
 1739W        W 2936   6.454   4.250   1.905
 1740W        W 2937   4.352   3.758   7.561
 1741W        W 2938   0.272   7.236   6.737
 1742W        W 2939   6.710   2.064   6.029
 1743W        W 2940   5.948   7.618   5.210
 1744W        W 2941   6.052   6.631   2.780
 1745W        W 2942   1.452   6.441   0.691
 1746W        W 2943   4.272   4.193   0.854
 1747W        W 2944   3.662   5.599   4.326
 1748W        W 2945   0.435   3.591   4.060
 1749W        W 2946   7.255   1.665   3.262
 1750W        W 2947   5.494   1.034   3.082
 1751W        W 2948   5.377   3.814   3.772
 1752W        W 2949   1.621   0.595   5.482
 1753W        W 2950   6.739   4.018   5.342
 1754W        W 2951   1.295   3.583   4.578
 1755W        W 2952   4.754   4.260   1.316
 1756W        W 2953   0.810   2.837   7.039
 1757W        W 2954   0.064   6.313   1.950
 1758W        W 2955   4.763   3.126   5.471
 1759W        W 2956   3.602   6.651   2.072
 1760W        W 2957   7.934   0.928   5.864
 1761W        W 2958   2.950   6.459   6.230
 1762W        W 2959   0.690   5.438   0.509
 1763W        W 2960   5.728   4.616   4.221
 1764W        W 2961   0.902   4.805   3.850
 1765W        W 2962   5.422   5.657   4.888
 1766W        W 2963   7.889   6.460   0.900
 1767W        W 2964   4.000   1.970   5.821
 1768W        W 2965   7.284   0.252   4.663
 1769W        W 2966   6.166   2.088   5.191
 1770W        W 2967   1.318   4.190   1.393
 1771W        W 2968   6.883   4.305   6.319
 1772W        W 2969   0.139   5.663   3.116
 1773W        W 2970   4.447   5.050   6.782
 1774W        W 2971   2.097   0.889   1.223
 1775W        W 2972   6.010   1.495   0.809
 1776W        W 2973   7.113   4.252   0.788
 1777W        W 2974   5.598   0.708   4.368
 1778W        W 2975   7.408   4.298   3.689
 1779W        W 2976   5.464   4.542   0.487
 1780W        W 2977   5.014   2.491   6.480
 1781W        W 2978   2.150   2.344   6.373
 1782W        W 2979   1.284   2.902   3.137
 1783W        W 2980   3.626   0.919   6.409
 1784W        W 2981   7.310   7.006   1.002
 1785W        W 2982   5.701   2.478   0.132
 1786W        W 2983   7.502   4.913   3.823
 1787W        W 2984   0.135   5.162   3.125
 1788W        W 2985   1.108   0.931   4.288
 1789W        W 2986   5.794   5.349   2.058
 1790W        W 2987   1.659   3.221   4.069
 1791W        W 2988   4.495   7.794   1.635
 1792W        W 2989   0.186   0.088   6.862
 1793W        W 2990   4.904   2.968   6.390
 1794W        W 2991   1.858   5.091   2.343
 1795W        W 2992   5.415   1.800   7.049
 1796W        W 2993   5.478   5.479   1.678
 1797W        W 2994   4.315   2.085   2.901
 1798W        W 2995   2.207   5.462   6.342
 1799W        W 2996   0.205   6.011   2.749
 1800W        W 2997   5.151   4.626   0.897
 1801W        W 2998   3.618   3.005   1.082
 1802W        W 2999   1.010   2.691   2.549
 1803W        W 3000   6.581   0.607   3.174
 1804W        W 3001   5.342   1.001   6.742
 1805W        W 3002   6.152   0.591   5.336
 1806W        W 3003   6.518   5.492   5.825
 1807W        W 3004   7.836   3.866   5.628
 1808W        W 3005   7.730   2.477   3.323
 1809W        W 3006   2.830   6.281   6.698
 1810W        W 3007   7.019   0.951   5.419
 1811W        W 3008   3.158   3.316   0.260
 1812W        W 3009   6.936   2.342   6.623
 1813W        W 3010   1.231   6.222   0.134
 1814W        W 3011   2.020   2.600   2.770
 1815W        W 3012   6.162   5.141   5.825
 1816W        W 3013   0.611   3.525   5.107
 1817W        W 3014   6.612   0.650   5.618
 1818W        W 3015   1.257   4.538   4.712
 1819W        W 3016   2.170   3.343   2.354
 1820W        W 3017   2.808   5.991   5.958
 1821W        W 3018   1.740   4.731   2.014
 1822W        W 3019   4.661   2.135   6.621
 1823W        W 3020   5.325   1.199   0.341
 1824W        W 3021   1.920   0.163   5.578
 1825W        W 3022   4.649   1.650   3.911
 1826W        W 3023   4.200   1.445   2.405
 1827W        W 3024   6.656   5.525   3.908
 1828W        W 3025   3.425   5.229   4.011
 1829W        W 3026   3.901   3.275   4.325
 1830W        W 3027   0.736   5.692   1.452
 1831W        W 3028   2.692   4.857   1.861
 1832W        W 3029   0.287   5.497   5.085
 1833W        W 3030   1.091   1.587   1.224
 1834W        W 3031   2.675   5.838   1.491
 1835W        W 3032   2.225   6.547   4.128
 1836W        W 3033   2.111   0.515   4.659
 1837W        W 3034   1.527   0.379   6.390
 1838W        W 3035   4.337   3.521   0.080
 1839W        W 3036   1.398   3.982   5.817
 1840W        W 3037   7.197   7.393   6.182
 1841W        W 3038   4.739   7.678   5.523
 1842W        W 3039   3.839   4.059   1.112
 1843W        W 3040   4.206   1.115   4.503
 1844W        W 3041   3.446   6.687   2.996
 1845W        W 3042   0.980   5.221   5.270
 1846W        W 3043   0.086   5.724   6.823
 1847W        W 3044   6.807   2.560   2.516
 1848W        W 3045   7.121   2.303   4.304
 1849W        W 3046   0.735   1.997   3.017
 1850W        W 3047   3.406   6.975   3.856
 1851W        W 3048   2.374   3.657   3.796
 1852W        W 3049   6.622   4.515   1.412
 1853W        W 3050   6.780   1.263   6.919
 1854W        W 3051   6.006   2.183   3.522
 1855W        W 3052   3.341   3.727   1.510
 1856W        W 3053   7.154   5.781   3.056
 1857W        W 3054   2.930   6.048   2.460
 1858W        W 3055   2.676   2.939   1.512
 1859W        W 3056   5.051   4.200   6.624
 1860W        W 3057   3.364   3.972   4.553
 1861W        W 3058   4.762   3.266   0.270
 1862W        W 3059   5.685   0.561   3.199
 1863W        W 3060   2.136   5.910   3.736
 1864W        W 3061   4.001   5.076   6.439
 1865W        W 3062   6.128   7.966   2.742
 1866W        W 3063   4.533   4.495   1.781
 1867W        W 3064   3.845   5.317   3.694
 1868W        W 3065   1.287   3.112   4.400
 1869W        W 3066   5.769   2.248   4.409
 1870W        W 3067   2.239   6.385   2.798
 1871W        W 3068   3.269   1.985   6.999
 1872W        W 3069   1.422   5.428   2.670
 1873W        W 3070   5.231   1.196   1.238
 1874W        W 3071   2.218   4.725   2.242
 1875W        W 3072   1.974   3.314   5.704
 1876W        W 3073   6.926   0.495   2.318
 1877W        W 3074   4.878   4.228   2.074
 1878W        W 3075   1.909   6.964   4.315
 1879W        W 3076   1.519   5.576   1.045
 1880W        W 3077   6.419   6.673   3.713
 1881W        W 3078   4.635   1.733   7.476
 1882W        W 3079   7.517   6.792   3.781
 1883W        W 3080   5.527   7.000   6.847
 1884W        W 3081   5.436   1.031   3.996
 1885W        W 3082   4.694   6.874   3.331
 1886W        W 3083   1.067   4.350   4.010
 1887W        W 3084   0.109   3.748   3.660
 1888W        W 3085   0.735   1.316   0.753
 1889W        W 3086   5.696   6.710   6.445
 1890W        W 3087   0.996   3.668   6.965
 1891W        W 3088   1.684   0.589   1.250
 1892W        W 3089   1.000   7.293   7.588
 1893W        W 3090   1.980   2.376   1.594
 1894W        W 3091   2.603   6.725   6.998
 1895W        W 3092   2.743   7.884   2.008
 1896W        W 3093   2.120   4.493   5.640
 1897W        W 3094   4.530   5.917   5.741
 1898W        W 3095   1.729   5.239   4.155
 1899W        W 3096   1.273   1.716   6.856
 1900W        W 3097   0.880   5.064   0.235
 1901W        W 3098   6.775   6.533   2.188
 1902W        W 3099   3.761   6.616   3.820
 1903W        W 3100   4.677   6.379   6.952
 1904W        W 3101   6.850   0.550   4.706
 1905W        W 3102   5.468   4.922   2.926
 1906W        W 3103   2.769   3.935   5.960
 1907W        W 3104   1.257   3.638   1.376
 1908W        W 3105   1.936   1.823   3.880
 1909W        W 3106   0.593   5.903   0.691
 1910W        W 3107   5.559   4.816   5.363
 1911W        W 3108   3.914   3.226   4.861
 1912W        W 3109   6.029   6.929   2.286
 1913W        W 3110   6.728   6.730   5.830
 1914W        W 3111   5.947   0.880   4.823
 1915W        W 3112   4.436   1.975   5.043
 1916W        W 3113   4.900   7.908   3.370
 1917W        W 3114   7.289   1.721   0.451
 1918W        W 3115   3.222   2.321   5.219
 1919W        W 3116   1.446   0.074   5.383
 1920W        W 3117   1.700   7.198   1.925
 1921W        W 3118   6.131   4.539   1.673
 1922W        W 3119   5.697   6.518   1.531
 1923W        W 3120   4.351   1.024   1.132
 1924W        W 3121   3.948   1.997   3.260
 1925W        W 3122   0.508   2.844   1.380
 1926W        W 3123   4.286   1.714   1.954
 1927W        W 3124   6.004   2.290   0.526
 1928W        W 3125   7.621   1.939   6.232
 1929W        W 3126   6.008   0.366   4.842
 1930W        W 3127   7.969   2.566   6.096
 1931W        W 3128   0.176   7.601   7.170
 1932W        W 3129   7.015   1.771   2.814
 1933W        W 3130   1.836   5.591   6.005
 1934W        W 3131   1.424   5.617   2.164
 1935W        W 3132   1.139   1.842   5.162
 1936W        W 3133   1.871   0.521   5.960
 1937W        W 3134   6.822   1.370   3.104
 1938W        W 3135   2.931   0.108   0.684
 1939W        W 3136   6.803   2.010   4.655
 1940W        W 3137   7.257   6.644   2.285
 1941W        W 3138   5.527   1.134   4.674
 1942W        W 3139   5.582   2.017   3.192
 1943W        W 3140   4.524   2.121   0.417
 1944W        W 3141   1.238   1.277   1.604
 1945W        W 3142   6.487   2.973   2.539
 1946W        W 3143   1.420   6.008   7.152
 1947W        W 3144   7.858   4.755   2.928
 1948W        W 3145   0.922   1.150   6.232
 1949W        W 3146   8.000   7.749   1.651
 1950W        W 3147   0.356   6.846   6.406
 1951W        W 3148   5.037   4.861   5.420
 1952W        W 3149   3.503   1.703   7.818
 1953W        W 3150   1.637   5.637   7.432
 1954W        W 3151   7.614   7.476   1.862
 1955W        W 3152   3.310   5.989   5.010
 1956W        W 3153   2.840   1.256   6.167
 1957W        W 3154   5.957   7.349   4.332
 1958W        W 3155   6.183   2.473   7.039
 1959W        W 3156   4.207   1.189   0.657
 1960W        W 3157   2.842   2.381   2.569
 1961W        W 3158   3.547   6.946   2.582
 1962W        W 3159   2.124   4.404   0.781
 1963W        W 3160   4.746   1.174   5.153
 1964W        W 3161   3.972   4.697   4.556
 1965W        W 3162   4.057   5.394   6.828
 1966W        W 3163   2.281   5.320   4.685
 1967W        W 3164   1.070   5.634   6.431
 1968W        W 3165   2.274   4.649   3.517
 1969W        W 3166   7.496   7.943   1.648
 1970W        W 3167   4.010   2.998   5.314
 1971W        W 3168   0.488   1.024   3.302
 1972W        W 3169   2.378   1.037   6.253
 1973W        W 3170   0.467   0.160   4.869
 1974W        W 3171   6.149   0.428   2.996
 1975W        W 3172   2.160   1.891   3.433
 1976W        W 3173   2.325   5.453   0.731
 1977W        W 3174   6.797   5.020   0.530
 1978W        W 3175   4.075   3.301   7.702
 1979W        W 3176   3.180   1.122   6.571
 1980W        W 3177   4.892   7.296   6.315
 1981W        W 3178   7.226   3.925   3.400
 1982W        W 3179   0.200   1.041   6.455
 1983W        W 3180   4.889   3.937   3.523
 1984W        W 3181   0.941   2.571   1.199
 1985W        W 3182   6.689   3.058   1.307
 1986W        W 3183   4.913   2.928   7.854
 1987W        W 3184   6.689   2.330   0.000
 1988W        W 3185   2.048   7.576   2.602
 1989W        W 3186   1.221   6.188   3.577
 1990W        W 3187   0.163   0.684   0.591
 1991W        W 3188   6.437   7.269   4.525
 1992W        W 3189   6.714   3.534   6.487
 1993W        W 3190   2.659   2.996   2.523
 1994W        W 3191   4.226   3.603   1.521
 1995W        W 3192   6.686   7.427   2.030
 1996W        W 3193   2.558   5.109   1.026
 1997W        W 3194   5.481   2.369   6.319
 1998W        W 3195   5.169   1.588   3.838
 1999W        W 3196   7.109   5.288   2.455
 2000W        W 3197   2.841   3.051   3.189
 2001W        W 3198   5.011   3.988   1.650
 2002W        W 3199   2.343   2.274   4.973
 2003W        W 3200   1.680   4.574   1.506
 2004W        W 3201   1.630   4.587   0.635
 2005W        W 3202   0.818   2.918   4.434
 2006W        W 3203   1.471   3.826   0.931
 2007W        W 3204   3.309   0.980   0.235
 2008W        W 3205   1.903   5.916   6.384
 2009W        W 3206   0.854   3.816   4.673
 2010W        W 3207   4.070   2.651   6.447
 2011W        W 3208   4.301   0.986   5.017
 2012W        W 3209   6.001   2.968   2.264
 2013W        W 3210   0.008   6.469   2.857
 2014W        W 3211   6.598   0.610   4.257
 2015W        W 3212   7.926   1.939   0.659
 2016W        W 3213   0.333   6.379   3.494
 2017W        W 3214   6.560   6.925   6.621
 2018W        W 3215   5.842   5.896   4.060
 2019W        W 3216   5.263   4.344   6.182
 2020W        W 3217   0.792   2.805   5.531
 2021W        W 3218   4.847   7.813   2.869
 2022W        W 3219   3.891   0.119   2.682
 2023W        W 3220   3.477   1.724   4.975
 2024W        W 3221   5.882   5.420   7.103
 2025W        W 3222   5.547   2.603   7.461
 2026W        W 3223   5.599   2.255   2.137
 2027W        W 3224   0.564   4.512   2.295
 2028W        W 3225   7.115   1.968   6.336
 2029W        W 3226   0.922   2.502   2.080
 2030W        W 3227   6.737   5.878   5.567
 2031W        W 3228   3.489   7.819   2.699
 2032W        W 3229   5.184   4.358   4.773
 2033W        W 3230   4.021   3.267   0.889
 2034W        W 3231   1.285   4.497   3.584
 2035W        W 3232   4.330   0.377   2.728
 2036W        W 3233   1.849   5.431   1.961
 2037W        W 3234   5.325   5.962   4.017
 2038W        W 3235   5.392   6.742   6.031
 2039W        W 3236   5.280   4.330   1.300
 2040W        W 3237   3.012   0.692   3.702
 2041W        W 3238   7.249   5.595   4.266
 2042W        W 3239   4.052   0.035   1.798
 2043W        W 3240   0.736   7.898   0.128
 2044W        W 3241   4.453   2.427   2.517
 2045W        W 3242   7.719   7.747   1.222
 2046W        W 3243   5.241   1.192   1.754
 2047W        W 3244   1.764   3.790   3.038
 2048W        W 3245   1.117   0.975   7.518
 2049W        W 3246   4.483   5.514   4.453
 2050W        W 3247   5.729   4.172   3.925
 2051W        W 3248   3.641   5.798   5.967
 2052W        W 3249   5.890   0.046   3.237
 2053W        W 3250   5.018   7.196   1.138
 2054W        W 3251   0.744   2.737   6.549
 2055W        W 3252   0.937   7.929   6.796
 2056W        W 3253   6.602   2.532   1.319
 2057W        W 3254   4.051   4.846   1.647
 2058W        W 3255   0.872   7.032   3.631
 2059W        W 3256   5.905   4.176   4.409
 2060W        W 3257   6.983   7.452   6.679
 2061W        W 3258   0.322   4.348   7.205
 2062W        W 3259   2.828   0.929   4.102
 2063W        W 3260   2.051   0.956   5.365
 2064W        W 3261   0.673   0.652   4.766
 2065W        W 3262   1.236   6.804   1.519
 2066W        W 3263   5.560   7.519   6.682
 2067W        W 3264   3.837   5.210   2.893
 2068W        W 3265   6.588   0.828   5.166
 2069W        W 3266   7.132   0.856   1.476
 2070W        W 3267   7.876   3.806   0.809
 2071W        W 3268   1.026   0.794   1.696
 2072W        W 3269   7.250   0.207   0.714
 2073W        W 3270   3.654   4.919   0.926
 2074W        W 3271   5.697   2.932   0.357
 2075W        W 3272   6.289   6.582   0.774
 2076W        W 3273   6.086   6.104   0.041
 2077W        W 3274   0.630   7.379   7.147
 2078W        W 3275   1.656   7.811   0.695
 2079W        W 3276   1.230   2.705   5.247
 2080W        W 3277   7.210   7.544   5.128
 2081W        W 3278   1.407   0.954   5.124
 2082W        W 3279   1.856   6.594   2.482
 2083W        W 3280   5.554   4.086   6.593
 2084W        W 3281   6.805   7.308   5.311
 2085W        W 3282   4.420   5.403   1.183
 2086W        W 3283   2.060   1.181   0.779
 2087W        W 3284   7.319   0.041   5.136
 2088W        W 3285   4.903   7.164   4.189
 2089W        W 3286   6.643   5.310   4.871
 2090W        W 3287   6.598   6.945   3.298
 2091W        W 3288   5.384   1.750   5.587
 2092W        W 3289   4.941   0.367   7.147
 2093W        W 3290   5.654   3.775   4.227
 2094W        W 3291   4.884   1.206   4.010
 2095W        W 3292   3.584   5.510   4.838
 2096W        W 3293   4.520   2.152   3.974
 2097W        W 3294   6.874   5.925   4.193
 2098W        W 3295   1.090   0.317   5.672
 2099W        W 3296   0.170   2.739   7.064
 2100W        W 3297   2.738   3.971   2.313
 2101W        W 3298   1.190   7.105   1.953
 2102W        W 3299   0.514   0.350   0.326
 2103W        W 3300   7.053   3.049   0.600
 2104W        W 3301   6.794   4.069   5.846
 2105W        W 3302   2.617   6.295   1.220
 2106W        W 3303   2.535   4.205   1.062
 2107W        W 3304   2.971   2.597   6.061
 2108W        W 3305   1.521   3.367   3.125
 2109W        W 3306   2.744   6.561   4.138
 2110W        W 3307   7.614   2.874   6.362
 2111W        W 3308   4.652   6.379   2.057
 2112W        W 3309   4.348   1.241   0.147
 2113W        W 3310   6.435   0.858   4.690
 2114W        W 3311   4.272   1.245   3.367
 2115W        W 3312   4.511   4.149   5.782
 2116W        W 3313   1.504   6.207   4.319
 2117W        W 3314   5.071   6.139   0.254
 2118W        W 3315   0.982   2.810   1.673
 2119W        W 3316   4.831   3.712   2.094
 2120W        W 3317   4.652   7.625   4.261
 2121W        W 3318   3.264   6.339   4.519
 2122W        W 3319   5.958   5.881   2.467
 2123W        W 3320   3.803   7.264   1.462
 2124W        W 3321   0.128   4.962   6.380
 2125W        W 3322   1.295   4.287   6.221
 2126W        W 3323   5.643   6.654   2.439
 2127W        W 3324   7.532   2.751   5.121
 2128W        W 3325   6.641   1.333   0.886
 2129W        W 3326   6.779   1.077   4.401
 2130W        W 3327   6.586   4.311   6.996
 2131W        W 3328   4.608   5.909   7.394
 2132W        W 3329   6.437   5.726   4.643
 2133W        W 3330   4.635   1.230   2.962
 2134W        W 3331   1.483   6.983   3.915
 2135W        W 3332   0.323   0.591   5.808
 2136W        W 3333   3.612   6.499   1.218
 2137W        W 3334   7.464   3.604   1.997
 2138W        W 3335   5.302   0.694   1.134
 2139W        W 3336   5.361   4.646   5.783
 2140W        W 3337   6.471   5.861   3.603
 2141W        W 3338   7.321   4.740   1.506
 2142W        W 3339   7.069   1.040   0.872
 2143W        W 3340   3.725   0.412   0.625
 2144W        W 3341   0.802   2.792   4.978
 2145W        W 3342   3.741   6.989   0.492
 2146W        W 3343   4.672   1.138   2.430
 2147W        W 3344   4.320   1.218   3.918
 2148W        W 3345   7.519   0.792   5.539
 2149W        W 3346   1.659   2.321   3.791
 2150W        W 3347   4.110   3.504   3.348
 2151W        W 3348   4.185   0.576   6.928
 2152W        W 3349   2.898   1.527   2.645
 2153W        W 3350   6.387   7.050   5.466
 2154W        W 3351   4.683   2.422   1.615
 2155W        W 3352   5.719   7.101   3.362
 2156W        W 3353   3.928   3.759   7.866
 2157W        W 3354   0.995   2.084   7.684
 2158W        W 3355   1.501   1.090   4.639
 2159W        W 3356   2.911   7.363   2.027
 2160W        W 3357   0.009   6.704   4.522
 2161W        W 3358   0.050   2.686   1.194
 2162W        W 3359   3.710   2.958   7.671
 2163W        W 3360   4.838   6.139   3.999
 2164W        W 3361   2.135   3.699   6.256
 2165W        W 3362   6.561   6.208   4.506
 2166W        W 3363   6.437   0.175   5.459
 2167W        W 3364   1.946   6.079   2.404
 2168W        W 3365   6.744   7.264   5.810
 2169W        W 3366   3.833   6.763   3.348
 2170W        W 3367   1.499   2.587   2.732
 2171W        W 3368   7.389   5.539   5.929
 2172W        W 3369   6.535   3.354   3.349
 2173W        W 3370   7.131   1.792   4.319
 2174W        W 3371   2.288   4.878   2.764
 2175W        W 3372   1.950   5.615   3.384
 2176W        W 3373   6.779   5.410   4.382
 2177W        W 3374   4.500   7.186   3.685
 2178W        W 3375   4.712   7.268   5.855
 2179W        W 3376   1.695   0.749   0.766
 2180W        W 3377   2.356   5.832   7.029
 2181W        W 3378   1.337   2.227   5.934
 2182W        W 3379   6.260   7.065   2.927
 2183W        W 3380   6.720   5.304   6.246
 2184W        W 3381   0.144   6.181   4.542
 2185W        W 3382   5.816   6.863   4.255
 2186W        W 3383   6.133   5.340   1.093
 2187W        W 3384   4.034   6.306   3.529
 2188W        W 3385   1.929   3.762   2.141
 2189W        W 3386   5.145   5.996   3.549
 2190W        W 3387   1.705   0.121   1.433
 2191W        W 3388   6.695   7.439   3.343
 2192W        W 3389   6.301   4.135   1.417
 2193W        W 3390   1.680   2.772   4.980
 2194W        W 3391   6.389   7.254   2.459
 2195W        W 3392   2.830   6.447   5.732
 2196W        W 3393   4.215   7.830   0.927
 2197W        W 3394   6.346   1.691   2.370
 2198W        W 3395   4.040   3.638   3.840
 2199W        W 3396   3.291   6.192   5.941
 2200W        W 3397   3.770   1.421   0.694
 2201W        W 3398   4.327   3.501   6.576
 2202W        W 3399   7.408   5.670   2.615
 2203W        W 3400   1.341   1.462   4.914
 2204W        W 3401   4.450   6.417   7.402
 2205W        W 3402   6.748   3.342   5.507
 2206W        W 3403   3.981   0.838   4.123
 2207W        W 3404   2.980   2.234   7.351
 2208W        W 3405   2.556   6.821   2.922
 2209W        W 3406   5.403   3.568   2.850
 2210W        W 3407   2.654   4.634   4.789
 2211W        W 3408   2.321   4.057   6.873
 2212W        W 3409   5.409   2.980   1.587
 2213W        W 3410   2.744   5.660   4.503
 2214W        W 3411   7.139   6.797   3.117
 2215W        W 3412   5.939   4.094   4.906
 2216W        W 3413   1.408   4.932   2.528
 2217W        W 3414   5.084   3.040   4.121
 2218W        W 3415   2.486   0.674   3.740
 2219W        W 3416   1.389   2.685   4.090
 2220W        W 3417   2.026   3.325   3.225
 2221W        W 3418   1.891   4.021   5.011
 2222W        W 3419   6.022   4.068   6.343
 2223W        W 3420   5.238   2.966   4.967
 2224W        W 3421   5.008   5.483   3.325
 2225W        W 3422   4.097   5.408   3.259
 2226W        W 3423   1.829   2.741   1.925
 2227W        W 3424   3.329   1.554   7.324
 2228W        W 3425   0.232   7.435   5.452
 2229W        W 3426   7.268   4.710   3.414
 2230W        W 3427   4.605   3.650   5.807
 2231W        W 3428   2.268   2.278   0.826
 2232W        W 3429   6.924   2.695   0.943
 2233W        W 3430   5.653   5.961   1.241
 2234W        W 3431   3.447   5.987   2.423
 2235W        W 3432   6.374   5.918   4.109
 2236W        W 3433   1.613   0.451   4.950
 2237W        W 3434   1.934   0.795   3.988
 2238W        W 3435   3.116   6.655   1.869
 2239W        W 3436   1.370   4.022   4.822
 2240W        W 3437   4.998   5.751   7.110
 2241W        W 3438   5.921   7.092   5.205
 2242W        W 3439   4.453   1.485   4.856
 2243W        W 3440   1.902   2.501   1.116
 2244W        W 3441   5.579   0.865   0.060
 2245W        W 3442   0.549   6.626   5.213
 2246W        W 3443   5.701   5.649   5.349
 2247W        W 3444   4.076   5.038   1.177
 2248W        W 3445   5.507   6.443   1.077
 2249W        W 3446   5.528   1.434   3.450
 2250W        W 3447   0.705   5.266   4.809
 2251W        W 3448   2.396   0.823   4.975
 2252W        W 3449   0.913   3.643   0.122
 2253W        W 3450   1.393   5.297   6.055
 2254W        W 3451   1.227   1.459   4.379
 2255W        W 3452   3.971   7.634   2.906
 2256W        W 3453   6.226   5.602   7.420
 2257W        W 3454   3.873   0.684   5.999
 2258W        W 3455   7.415   5.494   4.751
 2259W        W 3456   3.128   5.586   2.373
 2260W        W 3457   3.633   3.768   0.299
 2261W        W 3458   5.058   2.135   3.929
 2262W        W 3459   0.315   2.907   5.855
 2263W        W 3460   6.841   2.196   1.015
 2264W        W 3461   4.248   2.200   1.763
 2265W        W 3462   2.813   5.779   2.007
 2266W        W 3463   4.733   2.480   3.620
 2267W        W 3464   3.773   0.803   2.102
 2268W        W 3465   1.931   5.916   1.855
 2269W        W 3466   1.177   5.054   4.804
 2270W        W 3467   2.676   1.061   2.625
 2271W        W 3468   6.554   2.664   6.723
 2272W        W 3469   7.563   1.605   6.615
 2273W        W 3470   7.577   3.769   3.796
 2274W        W 3471   3.318   4.511   3.422
 2275W        W 3472   4.840   6.335   5.755
 2276W        W 3473   2.065   6.892   2.833
 2277W        W 3474   0.765   1.042   2.087
 2278W        W 3475   6.539   1.190   5.546
 2279W        W 3476   5.551   4.303   5.161
 2280W        W 3477   2.634   4.448   7.044
 2281W        W 3478   4.544   3.758   3.998
 2282W        W 3479   1.237   3.812   3.177
 2283W        W 3480   6.414   1.899   3.810
 2284W        W 3481   4.842   2.581   4.092
 2285W        W 3482   4.757   1.969   3.545
 2286W        W 3483   5.007   0.708   3.913
 2287W        W 3484   1.542   5.080   0.781
 2288W        W 3485   4.661   7.987   3.834
 2289W        W 3486   0.252   6.009   5.066
 2290W        W 3487   7.590   6.043   2.912
 2291W        W 3488   6.334   1.350   4.513
 2292W        W 3489   6.173   3.802   5.875
 2293W        W 3490   5.029   2.678   7.360
 2294W        W 3491   2.155   6.891   6.255
 2295W        W 3492   2.441   3.892   1.451
 2296W        W 3493   7.582   3.215   5.977
 2297W        W 3494   6.691   1.884   5.186
 2298W        W 3495   0.447   3.341   3.551
 2299W        W 3496   7.498   6.518   2.703
 2300W        W 3497   5.895   3.034   1.780
 2301W        W 3498   2.922   3.942   1.323
 2302W        W 3499   1.357   7.557   6.889
 2303W        W 3500   3.611   6.070   6.401
 2304W        W 3501   3.440   3.798   6.453
 2305W        W 3502   2.670   6.110   2.899
 2306W        W 3503   2.416   5.437   3.471
 2307W        W 3504   6.072   6.038   4.492
 2308W        W 3505   7.258   7.037   2.632
 2309W        W 3506   0.559   5.766   4.739
 2310W        W 3507   7.661   2.113   1.753
 2311W        W 3508   1.151   4.469   7.527
 2312W        W 3509   1.704   2.120   6.257
 2313W        W 3510   7.727   3.123   1.974
 2314W        W 3511   5.284   4.745   4.447
 2315W        W 3512   5.468   1.236   5.640
 2316W        W 3513   6.144   5.378   4.973
 2317W        W 3514   3.009   1.804   3.048
 2318W        W 3515   4.010   7.178   6.276
 2319W        W 3516   3.992   2.332   7.372
 2320W        W 3517   3.147   0.613   5.693
 2321W        W 3518   3.978   2.535   2.029
 2322W        W 3519   7.314   3.197   2.275
 2323W        W 3520   4.144   0.793   3.609
 2324W        W 3521   6.065   6.189   1.529
 2325W        W 3522   5.149   2.428   5.049
 2326W        W 3523   3.617   5.504   2.290
 2327W        W 3524   2.910   4.838   7.270
 2328W        W 3525   6.851   4.968   1.433
 2329W        W 3526   1.963   4.672   3.109
 2330W        W 3527   7.791   6.115   2.453
 2331W        W 3528   5.530   5.553   7.466
 2332W        W 3529   1.475   3.828   6.833
 2333W        W 3530   3.416   6.681   0.757
 2334W        W 3531   4.751   3.452   4.337
 2335W        W 3532   0.889   3.426   4.295
 2336W        W 3533   2.778   1.619   3.509
 2337W        W 3534   3.982   1.884   0.607
 2338W        W 3535   2.584   5.734   5.587
 2339W        W 3536   0.501   2.626   4.163
 2340W        W 3537   1.289   0.487   2.044
 2341W        W 3538   1.328   7.146   6.592
 2342W        W 3539   1.774   2.026   7.482
 2343W        W 3540   7.921   3.086   6.732
 2344W        W 3541   2.372   1.490   0.494
 2345W        W 3542   0.860   0.710   7.139
 2346W        W 3543   5.611   2.580   5.252
 2347W        W 3544   7.326   2.499   6.914
 2348W        W 3545   2.480   2.306   7.289
 2349W        W 3546   6.434   0.224   3.494
 2350W        W 3547   6.967   4.481   1.775
 2351W        W 3548   7.490   5.972   3.422
 2352W        W 3549   2.192   4.637   1.743
 2353W        W 3550   2.204   5.377   2.972
 2354W        W 3551   4.625   2.581   6.134
 2355W        W 3552   5.377   0.405   1.587
 2356W        W 3553   0.839   0.614   1.239
 2357W        W 3554   6.635   1.688   4.242
 2358W        W 3555   5.755   2.221   7.172
 2359W        W 3556   1.164   2.255   3.863
 2360W        W 3557   2.567   3.815   0.143
 2361W        W 3558   7.992   0.393   6.178
 2362W        W 3559   3.946   5.845   2.489
 2363W        W 3560   6.311   1.457   1.246
 2364W        W 3561   0.977   5.617   4.469
 2365W        W 3562   4.779   0.745   1.134
 2366W        W 3563   5.965   6.276   6.678
 2367W        W 3564   4.892   4.412   4.364
 2368W        W 3565   4.054   0.668   1.336
 2369W        W 3566   1.028   5.494   3.015
 2370W        W 3567   1.828   6.431   5.027
 2371W        W 3568   7.285   7.554   1.031
 2372W        W 3569   5.680   1.474   3.935
 2373W        W 3570   1.760   7.652   1.632
 2374W        W 3571   0.598   6.905   6.973
 2375W        W 3572   2.667   6.435   5.249
 2376W        W 3573   1.338   5.886   3.062
 2377W        W 3574   0.653   5.025   2.995
 2378W        W 3575   0.107   2.335   1.575
 2379W        W 3576   5.931   4.011   5.416
 2380W        W 3577   6.355   3.464   2.470
 2381W        W 3578   7.397   3.961   4.717
 2382W        W 3579   7.162   3.284   6.384
 2383W        W 3580   0.428   6.243   6.039
 2384W        W 3581   3.364   0.248   0.938
 2385W        W 3582   4.529   4.966   0.963
 2386W        W 3583   6.945   6.969   6.252
 2387W        W 3584   3.667   5.544   1.618
 2388W        W 3585   6.047   3.814   2.673
 2389W        W 3586   6.726   0.367   1.367
 2390W        W 3587   2.996   5.104   3.333
 2391W        W 3588   3.816   3.453   1.771
 2392W        W 3589   0.786   2.206   6.556
 2393W        W 3590   1.556   2.198   1.360
 2394W        W 3591   0.239   2.746   6.517
 2395W        W 3592   1.709   7.248   2.816
 2396W        W 3593   0.420   3.147   6.843
 2397W        W 3594   4.418   3.208   5.095
 2398W        W 3595   1.192   0.442   7.676
 2399W        W 3596   0.237   3.283   1.848
 2400W        W 3597   7.980   4.666   1.318
 2401W        W 3598   5.589   1.699   7.591
 2402W        W 3599   5.534   7.094   2.194
 2403W        W 3600   3.616   7.808   1.605
 2404W        W 3601   7.514   5.168   5.600
 2405W        W 3602   0.069   6.998   4.984
 2406W        W 3603   4.116   5.613   4.805
 2407W        W 3604   6.521   5.582   0.869
 2408W        W 3605   7.373   1.121   6.492
 2409W        W 3606   6.909   0.334   5.353
 2410W        W 3607   7.310   5.728   1.248
 2411W        W 3608   3.047   1.223   3.736
 2412W        W 3609   2.272   3.920   2.445
 2413W        W 3610   1.090   1.776   2.465
 2414W        W 3611   4.456   5.820   4.065
 2415W        W 3612   3.839   3.227   7.233
 2416W        W 3613   4.343   5.858   0.956
 2417W        W 3614   5.091   0.947   5.437
 2418W        W 3615   4.405   6.578   0.939
 2419W        W 3616   1.713   6.225   0.296
 2420W        W 3617   1.033   7.172   0.384
 2421W        W 3618   0.483   7.634   5.871
 2422W        W 3619   4.020   1.817   1.524
 2423W        W 3620   3.760   4.719   5.504
 2424W        W 3621   1.743   1.458   5.928
 2425W        W 3622   6.342   2.092   1.317
 2426W        W 3623   6.792   6.567   4.235
 2427W        W 3624   5.933   1.718   7.180
 2428W        W 3625   3.062   5.074   1.007
 2429W        W 3626   5.097   1.017   2.740
 2430W        W 3627   1.626   6.494   1.189
 2431W        W 3628   5.814   4.967   0.363
 2432W        W 3629   2.712   0.126   2.496
 2433W        W 3630   5.967   4.437   0.613
 2434W        W 3631   0.368   0.416   1.331
 2435W        W 3632   0.421   1.903   6.791
 2436W        W 3633   5.124   6.199   1.974
 2437W        W 3634   4.978   1.417   5.639
 2438W        W 3635   5.067   0.998   0.783
 2439W        W 3636   6.844   3.839   0.678
 2440W        W 3637   6.405   4.709   0.656
 2441W        W 3638   0.922   3.365   6.119
 2442W        W 3639   5.545   6.896   4.711
 2443W        W 3640   0.753   7.756   6.286
 2444W        W 3641   4.943   2.222   4.425
 2445W        W 3642   6.437   0.326   6.909
 2446W        W 3643   3.071   3.822   0.187
 2447W        W 3644   1.480   5.773   0.098
 2448W        W 3645   7.064   2.213   5.056
 2449W        W 3646   1.337   7.626   2.786
 2450W        W 3647   5.079   3.494   5.328
 2451W        W 3648   2.958   0.689   6.896
 2452W        W 3649   2.270   4.079   5.400
 2453W        W 3650   2.489   7.734   2.821
 2454W        W 3651   2.267   3.752   3.319
 2455W        W 3652   2.376   0.524   6.159
 2456W        W 3653   2.071   6.762   6.787
 2457W        W 3654   5.817   7.591   3.496
 2458W        W 3655   6.940   5.404   1.092
 2459W        W 3656   4.292   5.455   5.663
 2460W        W 3657   6.983   3.938   4.408
 2461W        W 3658   4.209   2.823   0.991
 2462W        W 3659   2.289   0.625   5.658
 2463W        W 3660   1.247   7.702   6.404
 2464W        W 3661   4.489   4.797   0.482
 2465W        W 3662   6.914   2.184   5.576
 2466W        W 3663   6.639   0.728   6.111
 2467W        W 3664   3.753   1.692   3.619
 2468W        W 3665   6.960   3.665   2.003
 2469W        W 3666   3.466   1.190   1.935
 2470W        W 3667   1.831   5.136   6.249
 2471W        W 3668   1.616   3.600   4.996
 2472W        W 3669   5.049   7.306   4.932
 2473W        W 3670   4.634   6.891   2.029
 2474W        W 3671   4.114   1.648   4.492
 2475W        W 3672   4.571   1.426   4.358
 2476W        W 3673   4.271   6.633   4.997
 2477W        W 3674   6.326   1.671   5.927
 2478W        W 3675   5.616   2.351   3.904
 2479W        W 3676   5.210   3.750   6.426
 2480W        W 3677   3.242   2.272   2.918
 2481W        W 3678   0.653   4.852   5.362
 2482W        W 3679   6.026   5.790   0.859
 2483W        W 3680   3.993   3.895   2.068
 2484W        W 3681   3.805   2.537   1.119
 2485W        W 3682   5.783   5.118   4.218
 2486W        W 3683   0.769   3.673   0.657
 2487W        W 3684   0.564   1.261   5.111
 2488W        W 3685   5.472   7.358   5.233
 2489W        W 3686   4.317   7.290   1.593
 2490W        W 3687   7.269   0.765   2.018
 2491W        W 3688   1.193   4.754   5.208
 2492W        W 3689   0.668   7.275   0.014
 2493W        W 3690   6.900   1.414   5.219
 2494W        W 3691   5.578   2.743   2.971
 2495W        W 3692   4.995   4.053   4.011
 2496W        W 3693   0.708   7.275   2.078
 2497W        W 3694   0.097   4.503   6.757
 2498W        W 3695   5.197   1.925   5.162
 2499W        W 3696   6.291   5.223   0.576
 2500W        W 3697   1.873   6.384   1.647
 2501W        W 3698   0.726   6.897   6.044
 2502W        W 3699   4.293   2.558   0.264
 2503W        W 3700   3.608   3.522   3.274
 2504W        W 3701   2.811   5.392   5.871
 2505W        W 3702   1.763   3.723   7.649
 2506W        W 3703   1.704   3.861   1.370
 2507W        W 3704   5.987   2.814   3.252
 2508W        W 3705   2.736   2.380   0.519
 2509W        W 3706   0.093   0.442   2.300
 2510W        W 3707   1.104   7.548   0.026
 2511W        W 3708   7.163   3.484   2.701
 2512W        W 3709   2.286   2.616   0.389
 2513W        W 3710   2.419   7.011   4.137
 2514W        W 3711   0.775   2.153   3.508
 2515W        W 3712   5.398   6.113   3.114
 2516W        W 3713   3.102   5.963   6.367
 2517W        W 3714   3.768   4.213   0.099
 2518W        W 3715   2.753   4.396   2.057
 2519W        W 3716   6.264   5.040   6.301
 2520W        W 3717   3.922   7.257   5.423
 2521W        W 3718   1.463   1.275   2.443
 2522W        W 3719   4.284   6.370   5.755
 2523W        W 3720   2.990   4.210   3.688
 2524W        W 3721   3.374   1.264   1.011
 2525W        W 3722   7.615   5.533   5.227
 2526W        W 3723   3.518   1.875   1.622
 2527W        W 3724   6.390   6.338   1.928
 2528W        W 3725   5.412   4.173   5.635
 2529W        W 3726   2.645   5.629   3.074
 2530W        W 3727   3.410   6.164   0.830
 2531W        W 3728   5.387   4.238   4.304
 2532W        W 3729   4.061   6.156   6.154
 2533W        W 3730   4.663   4.725   2.780
 2534W        W 3731   4.155   3.705   4.324
 2535W        W 3732   2.146   1.870   5.228
 2536W        W 3733   1.523   2.353   4.461
 2537W        W 3734   0.950   4.139   7.171
 2538W        W 3735   2.734   5.291   2.152
 2539W        W 3736   5.510   3.465   3.421
 2540W        W 3737   4.476   1.197   6.261
 2541W        W 3738   6.185   0.876   5.778
 2542W        W 3739   3.367   0.314   6.968
 2543W        W 3740   7.662   4.752   6.573
 2544W        W 3741   0.460   3.188   5.450
 2545W        W 3742   3.719   5.230   7.214
 2546W        W 3743   2.672   5.633   2.557
 2547W        W 3744   1.150   2.345   1.618
 2548W        W 3745   2.359   3.664   5.712
 2549W        W 3746   3.299   3.949   3.353
 2550W        W 3747   4.238   3.049   3.580
 2551W        W 3748   7.690   6.298   4.824
 2552W        W 3749   6.274   1.600   5.363
 2553W        W 3750   6.752   5.527   3.309
 2554W        W 3751   1.622   3.893   6.316
 2555W        W 3752   1.732   2.838   4.422
 2556W        W 3753   6.734   1.886   6.727
 2557W        W 3754   5.282   1.101   7.251
 2558W        W 3755   7.527   3.062   2.741
 2559W        W 3756   3.196   4.156   5.684
 2560W        W 3757   6.859   2.385   2.016
 2561W        W 3758   2.846   6.270   1.675
 2562W        W 3759   5.528   1.913   3.681
 2563W        W 3760   6.468   1.308   7.365
 2564W        W 3761   3.051   2.989   2.205
 2565W        W 3762   3.050   3.094   0.698
 2566W        W 3763   4.718   1.756   3.067
 2567W        W 3764   4.877   7.520   3.802
 2568W        W 3765   2.813   6.877   5.042
 2569W        W 3766   1.073   7.114   7.068
 2570W        W 3767   5.167   6.056   0.992
 2571W        W 3768   6.851   4.892   5.071
 2572W        W 3769   5.226   6.954   3.264
 2573W        W 3770   7.468   3.922   5.245
 2574W        W 3771   3.959   4.921   3.348
 2575W        W 3772   6.859   3.975   6.693
 2576W        W 3773   7.503   4.839   4.721
 2577W        W 3774   6.321   5.735   0.408
 2578W        W 3775   4.689   6.195   1.077
 2579W        W 3776   4.853   0.548   4.500
 2580W        W 3777   3.689   5.730   6.892
 2581W        W 3778   4.422   1.622   0.511
 2582W        W 3779   6.081   7.052   0.761
 2583W        W 3780   2.537   1.834   1.765
 2584W        W 3781   3.459   4.989   3.548
 2585W        W 3782   6.544   2.503   5.762
 2586W        W 3783   0.714   3.302   7.234
 2587W        W 3784   1.363   4.985   3.882
 2588W        W 3785   5.572   2.621   5.792
 2589W        W 3786   1.555   2.297   1.907
 2590W        W 3787   5.090   2.355   5.993
 2591W        W 3788   2.676   7.171   1.388
 2592W        W 3789   1.444   1.644   7.666
 2593W        W 3790   1.175   0.475   5.206
 2594W        W 3791   3.709   2.467   4.527
 2595W        W 3792   1.550   5.406   3.165
 2596W        W 3793   6.562   4.781   1.841
 2597W        W 3794   3.581   6.172   3.688
 2598W        W 3795   4.879   1.868   4.794
 2599W        W 3796   7.320   4.204   6.572
 2600W        W 3797   2.738   1.442   4.115
 2601W        W 3798   2.807   4.796   1.354
 2602W        W 3799   7.058   5.688   6.933
 2603W        W 3800   5.329   1.632   0.067
 2604W        W 3801   5.329   4.719   2.113
 2605W        W 3802   6.072   1.282   2.248
 2606W        W 3803   7.912   5.143   6.818
 2607W        W 3804   6.791   6.764   5.335
 2608W        W 3805   4.723   4.206   2.708
 2609W        W 3806   7.678   2.969   4.684
 2610W        W 3807   1.577   6.957   7.027
 2611W        W 3808   3.451   2.369   7.438
 2612W        W 3809   6.451   6.876   2.018
 2613W        W 3810   4.642   0.957   3.616
 2614W        W 3811   3.046   6.914   2.770
 2615W        W 3812   1.010   6.895   7.935
 2616W        W 3813   1.213   3.345   7.298
 2617W        W 3814   1.000   2.454   4.318
 2618W        W 3815   6.345   2.823   1.664
 2619W        W 3816   5.089   0.171   6.127
 2620W        W 3817   4.785   2.767   5.128
 2621W        W 3818   3.136   6.870   5.714
 2622W        W 3819   5.953   5.788   3.579
 2623W        W 3820   3.456   7.545   6.993
 2624W        W 3821   3.611   6.746   4.285
 2625W        W 3822   1.869   3.807   5.847
 2626W        W 3823   1.250   2.690   5.774
 2627W        W 3824   5.489   0.693   2.704
 2628W        W 3825   7.199   0.214   1.991
 2629W        W 3826   1.244   2.992   6.227
 2630W        W 3827   4.692   2.978   3.789
 2631W        W 3828   0.319   4.907   7.144
 2632W        W 3829   0.337   2.139   0.384
 2633W        W 3830   0.653   5.823   2.911
 2634W        W 3831   7.422   4.318   3.110
 2635W        W 3832   5.976   2.552   1.957
 2636W        W 3833   5.455   6.523   7.392
 2637W        W 3834   5.228   0.161   2.739
 2638W        W 3835   7.340   2.797   1.883
 2639W        W 3836   3.982   3.393   0.404
 2640W        W 3837   1.453   0.410   2.538
 2641W        W 3838   3.156   4.129   6.196
 2642W        W 3839   0.592   4.699   1.536
 2643W        W 3840   4.948   5.083   3.670
 2644W        W 3841   4.361   6.067   2.311
 2645W        W 3842   3.310   7.349   2.826
 2646W        W 3843   4.535   5.663   3.219
 2647W        W 3844   0.859   4.933   1.168
 2648W        W 3845   4.538   6.382   5.334
 2649W        W 3846   7.060   5.221   3.972
 2650W        W 3847   4.267   6.169   1.827
 2651W        W 3848   5.396   5.612   5.759
 2652W        W 3849   4.446   1.734   0.010
 2653W        W 3850   1.277   1.024   2.055
 2654W        W 3851   3.683   1.842   4.095
 2655W        W 3852   4.321   5.076   2.923
 2656W        W 3853   0.358   2.709   5.281
 2657W        W 3854   2.300   5.840   4.715
 2658W        W 3855   4.767   1.216   7.367
 2659W        W 3856   4.660   7.239   4.615
 2660W        W 3857   1.240   2.716   4.704
 2661W        W 3858   1.947   1.334   3.969
 2662W        W 3859   5.421   3.037   4.497
 2663W        W 3860   3.806   6.835   5.107
 2664W        W 3861   2.686   6.491   2.099
 2665W        W 3862   1.299   2.242   2.370
 2666W        W 3863   4.983   3.848   2.937
 2667W        W 3864   1.303   5.556   4.879
 2668W        W 3865   2.154   0.544   2.119
 2669W        W 3866   4.293   3.296   5.604
 2670W        W 3867   6.533   6.564   2.966
 2671W        W 3868   0.839   6.957   6.546
 2672W        W 3869   7.417   3.100   6.812
 2673W        W 3870   5.606   6.583   3.346
 2674W        W 3871   1.307   5.487   5.586
 2675W        W 3872   4.743   4.960   7.208
 2676W        W 3873   6.446   6.085   0.813
 2677W        W 3874   4.900   5.556   5.612
 2678W        W 3875   2.251   1.322   3.180
 2679W        W 3876   2.331   2.674   1.807
 2680W        W 3877   6.264   4.187   3.601
 2681W        W 3878   7.189   1.816   5.355
 2682W        W 3879   5.268   6.217   7.778
 2683W        W 3880   5.225   2.013   2.378
 2684W        W 3881   0.581   1.626   2.665
 2685W        W 3882   1.841   2.429   2.324
 2686W        W 3883   7.524   5.204   6.348
 2687W        W 3884   6.957   2.876   6.963
 2688W        W 3885   7.079   4.204   5.037
 2689W        W 3886   6.206   7.231   3.458
 2690W        W 3887   3.070   4.456   1.641
 2691W        W 3888   1.435   4.516   6.665
 2692W        W 3889   6.846   2.765   1.692
 2693W        W 3890   2.643   0.076   1.513
 2694W        W 3891   1.782   1.340   5.115
 2695W        W 3892   2.466   6.451   3.281
 2696W        W 3893   4.060   4.463   6.661
 2697W        W 3894   6.645   0.792   0.728
 2698W        W 3895   7.000   1.159   1.840
 2699W        W 3896   1.477   7.435   0.368
 2700W        W 3897   5.963   3.388   4.136
 2701W        W 3898   0.893   0.888   5.154
 2702W        W 3899   4.382   7.759   2.127
 2703W        W 3900   3.751   7.139   7.210
 2704W        W 3901   5.073   3.929   5.029
 2705W        W 3902   0.128   5.339   4.052
 2706W        W 3903   1.754   4.106   1.803
 2707W        W 3904   1.697   1.623   7.165
 2708W        W 3905   1.868   6.203   0.835
 2709W        W 3906   3.265   5.578   6.659
 2710W        W 3907   3.893   3.658   6.296
 2711W        W 3908   4.995   6.274   2.836
 2712W        W 3909   0.002   5.206   5.394
 2713W        W 3910   2.773   7.299   3.006
 2714W        W 3911   2.844   0.578   1.580
 2715W        W 3912   1.432   1.259   6.301
 2716W        W 3913   5.843   2.999   5.446
 2717W        W 3914   1.668   1.940   3.459
 2718W        W 3915   6.482   7.138   1.585
 2719W        W 3916   7.318   0.228   6.359
 2720W        W 3917   5.052   4.542   1.713
 2721W        W 3918   2.463   7.224   3.663
 2722W        W 3919   6.684   5.324   2.828
 2723W        W 3920   4.368   7.874   2.633
 2724W        W 3921   3.481   5.865   1.244
 2725W        W 3922   0.578   2.971   2.466
 2726W        W 3923   3.107   0.242   1.874
 2727W        W 3924   6.813   4.524   0.382
 2728W        W 3925   3.566   2.174   5.597
 2729W        W 3926   1.208   7.123   2.799
 2730W        W 3927   4.962   6.280   7.361
 2731W        W 3928   1.141   6.568   1.072
 2732W        W 3929   4.348   2.146   7.697
 2733W        W 3930   0.842   5.966   5.889
 2734W        W 3931   3.279   5.459   6.168
 2735W        W 3932   1.857   2.299   5.125
 2736W        W 3933   3.187   0.868   6.139
 2737W        W 3934   1.221   2.166   0.981
 2738W        W 3935   0.437   6.133   1.539
 2739W        W 3936   7.297   2.369   1.156
 2740W        W 3937   4.683   2.356   4.832
 2741W        W 3938   3.236   0.919   5.285
 2742W        W 3939   6.820   2.561   6.184
 2743W        W 3940   5.227   7.231   5.905
 2744W        W 3941   7.040   4.940   5.534
 2745W        W 3942   7.351   7.230   5.527
 2746W        W 3943   5.087   6.479   3.306
 2747W        W 3944   4.218   3.816   4.838
 2748W        W 3945   5.707   6.654   5.139
 2749W        W 3946   1.080   6.146   6.317
 2750W        W 3947   2.661   2.306   1.674
 2751W        W 3948   7.547   4.007   7.265
 2752W        W 3949   4.580   6.790   5.736
 2753W        W 3950   7.880   3.907   1.331
 2754W        W 3951   5.429   4.219   2.148
 2755W        W 3952   3.953   4.880   6.919
 2756W        W 3953   2.459   3.587   6.699
 2757W        W 3954   1.830   1.904   1.710
 2758W        W 3955   3.856   1.113   1.088
 2759W        W 3956   0.948   4.801   4.378
 2760W        W 3957   6.081   1.388   2.740
 2761W        W 3958   5.658   5.228   5.051
 2762W        W 3959   4.341   6.300   6.582
 2763W        W 3960   4.558   3.681   3.153
 2764W        W 3961   2.137   5.424   3.896
 2765W        W 3962   1.451   3.569   5.491
 2766W        W 3963   7.534   1.759   7.162
 2767W        W 3964   3.448   0.459   6.064
 2768W        W 3965   2.912   3.437   3.755
 2769W        W 3966   3.444   3.900   7.848
 2770W        W 3967   6.136   2.632   5.269
 2771W        W 3968   4.023   6.741   5.985
 2772W        W 3969   4.813   7.744   6.037
 2773W        W 3970   2.827   1.312   0.314
 2774W        W 3971   5.349   0.142   3.238
 2775W        W 3972   4.129   5.135   0.669
 2776W        W 3973   3.765   6.347   5.774
 2777W        W 3974   5.351   0.739   1.978
 2778W        W 3975   5.325   3.286   6.225
 2779W        W 3976   7.874   5.765   4.822
 2780W        W 3977   2.307   6.756   4.591
 2781W        W 3978   3.026   4.374   1.097
 2782W        W 3979   6.382   1.485   3.345
 2783W        W 3980   4.617   4.118   7.163
 2784W        W 3981   5.489   0.763   0.591
 2785W        W 3982   4.790   5.915   0.655
 2786W        W 3983   6.793   0.291   6.335
 2787W        W 3984   7.680   0.440   5.183
 2788W        W 3985   0.709   0.314   7.814
 2789W        W 3986   1.989   5.600   4.382
 2790W        W 3987   3.597   7.159   6.000
 2791W        W 3988   6.682   5.984   3.031
 2792W        W 3989   5.000   0.767   7.506
 2793W        W 3990   4.706   5.467   1.606
 2794W        W 3991   3.450   4.229   1.413
 2795W        W 3992   3.890   3.443   2.277
 2796W        W 3993   3.749   3.652   4.632
 2797W        W 3994   5.307   1.210   7.756
 2798W        W 3995   5.811   0.759   1.061
 2799W        W 3996   5.320   2.514   4.264
 2800W        W 3997   3.675   1.929   7.336
 2801W        W 3998   4.679   1.017   4.659
 2802W        W 3999   5.953   1.580   6.688
 2803W        W 4000   2.562   3.068   6.922
 2804W        W 4001   1.769   7.307   0.786
 2805W        W 4002   5.986   2.330   1.047
 2806W        W 4003   7.639   6.542   1.750
 2807W        W 4004   2.508   4.019   6.392
 2808W        W 4005   1.721   6.257   2.831
 2809W        W 4006   5.964   0.416   3.603
 2810W        W 4007   5.565   3.275   2.146
 2811W        W 4008   3.884   6.085   1.022
 2812W        W 4009   5.460   1.617   4.807
 2813W        W 4010   5.078   5.090   1.687
 2814W        W 4011   4.201   7.456   4.594
 2815W        W 4012   3.980   0.297   4.772
 2816W        W 4013   6.559   4.793   7.192
 2817W        W 4014   1.763   1.274   2.995
 2818W        W 4015   0.037   7.347   1.355
 2819W        W 4016   0.729   1.111   5.603
 2820W        W 4017   1.281   3.471   3.545
 2821W        W 4018   3.821   3.922   3.485
 2822W        W 4019   6.656   2.997   5.900
 2823W        W 4020   7.270   1.688   3.780
 2824W        W 4021   6.457   6.368   1.242
 2825W        W 4022   0.245   1.265   5.564
 2826W        W 4023   1.129   3.249   0.366
 2827W        W 4024   2.765   6.505   2.609
 2828W        W 4025   4.756   1.432   3.468
 2829W        W 4026   1.865   4.649   2.599
 2830W        W 4027   4.979   5.630   0.254
 2831W        W 4028   4.702   7.407   1.945
 2832W        W 4029   0.770   6.127   1.124
 2833W        W 4030   5.130   3.125   3.611
 2834W        W 4031   7.201   6.300   4.045
 2835W        W 4032   3.881   5.815   3.450
 2836W        W 4033   2.124   2.998   4.725
 2837W        W 4034   2.774   6.919   3.372
 2838W        W 4035   5.925   0.790   3.954
 2839W        W 4036   0.698   6.025   4.329
 2840W        W 4037   7.108   6.097   6.364
 2841W        W 4038   2.347   2.367   2.474
 2842W        W 4039   2.355   7.101   4.981
 2843W        W 4040   0.553   2.870   1.937
 2844W        W 4041   7.114   4.219   7.063
 2845W        W 4042   5.127   1.571   7.412
 2846W        W 4043   6.109   0.618   4.391
 2847W        W 4044   2.000   6.915   3.771
 2848W        W 4045   4.220   2.269   6.165
 2849W        W 4046   6.464   6.756   2.515
 2850W        W 4047   0.068   4.784   0.804
 2851W        W 4048   4.326   3.270   4.042
 2852W        W 4049   6.445   5.286   7.121
 2853W        W 4050   7.748   4.029   3.379
 2854W        W 4051   6.152   0.736   6.794
 2855W        W 4052   2.811   0.422   4.113
 2856W        W 4053   3.910   6.482   1.685
 2857W        W 4054   7.177   2.354   2.777
 2858W        W 4055   3.088   0.131   2.832
 2859W        W 4056   0.894   2.676   3.826
 2860W        W 4057   5.603   2.871   4.035
 2861W        W 4058   5.206   4.936   6.944
 2862W        W 4059   3.588   2.367   3.278
 2863W        W 4060   5.576   0.392   2.287
 2864W        W 4061   2.490   2.613   4.603
 2865W        W 4062   4.319   5.506   3.690
 2866W        W 4063   7.189   4.241   5.550
 2867W        W 4064   2.790   7.290   6.336
 2868W        W 4065   7.133   6.511   1.820
 2869W        W 4066   4.008   4.164   4.494
 2870W        W 4067   4.063   6.791   1.305
 2871W        W 4068   6.372   6.269   3.337
 2872W        W 4069   4.409   2.993   7.980
 2873W        W 4070   5.787   2.954   4.924
 2874W        W 4071   2.358   6.197   5.584
 2875W        W 4072   6.802   2.603   3.021
 2876W        W 4073   6.922   1.125   5.900
 2877W        W 4074   2.872   2.311   4.362
 2878W        W 4075   4.325   1.364   7.640
 2879W        W 4076   5.439   1.658   1.106
 2880W        W 4077   7.254   4.665   6.272
 2881W        W 4078   1.391   5.823   6.089
 2882W        W 4079   6.094   0.838   7.401
 2883W        W 4080   6.804   6.503   3.390
 2884W        W 4081   4.412   1.765   6.844
 2885W        W 4082   3.835   1.343   4.780
 2886W        W 4083   6.602   1.290   2.619
 2887W        W 4084   7.625   6.419   4.326
 2888W        W 4085   1.894   5.038   1.620
 2889W        W 4086   1.957   3.221   5.140
 2890W        W 4087   5.475   3.192   5.720
 2891W        W 4088   0.778   1.562   6.893
 2892W        W 4089   4.150   2.177   6.670
 2893W        W 4090   3.774   4.621   3.733
 2894W        W 4091   1.476   6.986   1.098
 2895W        W 4092   5.614   0.063   3.670
 2896W        W 4093   2.962   3.308   4.278
 2897W        W 4094   2.505   0.882   3.071
 2898W        W 4095   6.376   1.703   6.426
 2899W        W 4096   5.248   2.713   0.243
 2900W        W 4097   0.095   2.189   7.063
 2901W        W 4098   0.085   2.821   1.702
 2902W        W 4099   5.288   6.437   0.619
 2903W        W 4100   4.160   1.692   3.990
 2904W        W 4101   0.553   0.632   2.467
 2905W        W 4102   1.360   1.368   3.341
 2906W        W 4103   3.074   1.214   4.442
 2907W        W 4104   6.596   7.739   4.390
 2908W        W 4105   5.473   0.329   5.818
 2909W        W 4106   0.982   6.000   6.812
 2910W        W 4107   4.322   3.716   7.029
 2911W        W 4108   4.885   5.388   2.070
 2912W        W 4109   3.614   6.373   5.062
 2913W        W 4110   1.280   2.094   6.517
 2914W        W 4111   5.555   6.068   1.733
 2915W        W 4112   0.202   5.892   2.224
 2916W        W 4113   4.460   2.457   4.397
 2917W        W 4114   3.144   1.098   2.794
 2918W        W 4115   6.985   4.011   2.892
 2919W        W 4116   6.453   1.277   5.005
 2920W        W 4117   6.173   3.888   4.061
 2921W        W 4118   4.678   4.758   4.019
 2922W        W 4119   7.056   7.769   3.485
 2923W        W 4120   5.730   6.028   5.755
 2924W        W 4121   2.490   4.582   5.280
 2925W        W 4122   3.333   1.245   4.892
 2926W        W 4123   0.835   5.068   7.019
 2927W        W 4124   7.287   6.829   1.470
 2928W        W 4125   6.388   1.077   3.008
 2929W        W 4126   0.251   4.187   3.396
 2930W        W 4127   7.763   5.631   2.216
 2931W        W 4128   3.177   5.713   5.751
 2932W        W 4129   1.994   2.501   4.684
 2933W        W 4130   3.978   4.636   7.364
 2934W        W 4131   3.364   0.929   4.020
 2935W        W 4132   5.991   6.269   1.034
 2936W        W 4133   1.785   2.940   2.450
 2937W        W 4134   3.739   5.553   6.398
 2938W        W 4135   3.757   0.594   7.205
 2939W        W 4136   1.710   4.081   0.565
 2940W        W 4137   4.434   6.646   1.633
 2941W        W 4138   5.330   3.737   1.972
 2942W        W 4139   7.041   4.832   4.289
 2943W        W 4140   6.913   1.369   0.461
 2944W        W 4141   3.065   1.540   6.840
 2945W        W 4142   7.082   6.261   4.568
 2946W        W 4143   6.934   6.089   2.054
 2947W        W 4144   0.917   3.334   2.567
 2948W        W 4145   6.742   0.280   0.860
 2949W        W 4146   7.602   6.483   3.192
 2950W        W 4147   6.635   5.514   6.686
 2951W        W 4148   1.449   4.283   7.121
 2952W        W 4149   0.975   6.930   2.379
 2953W        W 4150   7.334   5.121   5.122
 2954W        W 4151   6.029   5.039   5.341
 2955W        W 4152   0.366   4.699   2.743
 2956W        W 4153   3.691   1.462   6.429
 2957W        W 4154   5.003   7.236   5.433
 2958W        W 4155   7.764   0.829   6.333
 2959W        W 4156   5.921   1.831   5.664
 2960W        W 4157   4.452   5.503   6.518
 2961W        W 4158   1.882   3.685   4.035
 2962W        W 4159   3.352   6.511   6.541
 2963W        W 4160   4.356   5.812   1.481
 2964W        W 4161   5.405   1.550   2.101
 2965W        W 4162   7.758   7.271   0.935
 2966W        W 4163   2.000   0.805   3.126
 2967W        W 4164   2.231   6.954   1.441
 2968W        W 4165   6.315   0.526   1.050
 2969W        W 4166   5.970   2.670   3.746
 2970W        W 4167   4.921   1.928   5.704
 2971W        W 4168   5.919   5.594   5.919
 2972W        W 4169   6.594   5.341   0.166
 2973W        W 4170   4.412   3.033   6.416
 2974W        W 4171   1.487   6.970   2.386
 2975W        W 4172   7.135   5.092   6.013
 2976W        W 4173   5.662   3.464   1.660
 2977W        W 4174   5.582   1.040   5.174
 2978W        W 4175   6.922   5.732   6.025
 2979W        W 4176   3.286   2.605   5.665
 2980W        W 4177   5.112   2.326   1.952
 2981W        W 4178   6.879   0.907   2.876
 2982W        W 4179   4.419   2.810   4.768
 2983W        W 4180   6.538   1.199   1.608
 2984W        W 4181   3.307   3.179   3.567
 2985W        W 4182   1.173   0.624   2.920
 2986W        W 4183   0.103   1.584   1.012
 2987W        W 4184   0.575   5.443   3.233
 2988W        W 4185   1.378   6.802   5.729
 2989W        W 4186   4.582   1.585   5.935
 2990W        W 4187   7.234   1.312   4.540
 2991W        W 4188   3.965   1.585   0.205
 2992W        W 4189   6.110   1.186   3.690
 2993W        W 4190   6.124   0.809   3.342
 2994W        W 4191   7.259   5.822   5.477
 2995W        W 4192   3.145   0.697   4.425
 2996W        W 4193   7.336   2.705   2.421
 2997W        W 4194   3.820   1.277   7.788
 2998W        W 4195   3.664   6.827   5.606
 2999W        W 4196   0.978   6.645   4.921
 3000W        W 4197   3.555   5.892   1.946
 3001W        W 4198   0.454   3.505   4.598
 3002W        W 4199   4.531   5.964   6.252
 3003W        W 4200   7.355   0.175   2.688
 3004W        W 4201   1.890   7.296   1.290
 3005W        W 4202   6.050   6.986   4.718
 3006W        W 4203   5.587   5.936   6.833
 3007W        W 4204   3.568   4.636   1.684
 3008W        W 4205   6.342   3.939   6.742
 3009W        W 4206   5.220   7.708   6.350
 3010W        W 4207   5.848   3.664   0.746
 3011W        W 4208   2.756   2.243   3.037
 3012W        W 4209   4.571   4.558   0.010
 3013W        W 4210   4.478   3.276   1.181
 3014W        W 4211   6.693   7.020   4.901
 3015W        W 4212   4.654   3.764   1.291
 3016W        W 4213   4.364   3.951   3.571
 3017W        W 4214   3.288   7.046   6.973
 3018W        W 4215   6.120   2.773   5.797
 3019W        W 4216   1.438   6.754   5.182
 3020W        W 4217   7.332   2.780   4.290
 3021W        W 4218   2.787   2.639   0.955
 3022W        W 4219   5.589   6.192   2.230
 3023W        W 4220   3.480   3.757   2.006
 3024W        W 4221   5.609   1.585   0.495
 3025W        W 4222   5.199   3.481   4.828
 3026W        W 4223   4.163   6.795   5.466
 3027W        W 4224   2.691   4.776   2.411
 3028W        W 4225   4.831   2.604   5.641
 3029W        W 4226   2.555   3.046   0.510
 3030W        W 4227   1.674   2.577   5.506
 3031W        W 4228   7.099   7.747   4.507
 3032W        W 4229   1.564   3.915   0.084
 3033W        W 4230   0.779   4.735   4.875
 3034W        W 4231   0.416   4.862   4.488
 3035W        W 4232   7.219   1.987   6.844
 3036W        W 4233   5.414   5.179   3.385
 3037W        W 4234   3.672   1.621   1.197
 3038W        W 4235   6.459   4.146   4.463
 3039W        W 4236   4.965   4.702   6.540
 3040W        W 4237   5.111   2.943   2.292
 3041W        W 4238   1.275   2.830   7.258
 3042W        W 4239   2.422   0.177   1.009
 3043W        W 4240   5.277   6.975   2.611
 3044W        W 4241   5.576   5.059   7.282
 3045W        W 4242   0.936   2.431   7.324
 3046W        W 4243   5.599   2.977   3.525
 3047W        W 4244   1.021   7.160   5.716
 3048W        W 4245   6.222   7.484   6.052
 3049W        W 4246   4.547   7.533   5.025
 3050W        W 4247   4.048   7.185   2.628
 3051W        W 4248   1.949   6.171   5.946
 3052W        W 4249   2.958   4.364   5.296
 3053W        W 4250   5.259   7.536   2.023
 3054W        W 4251   4.670   3.379   7.721
 3055W        W 4252   6.197   3.389   2.959
 3056W        W 4253   4.076   2.806   4.384
 3057W        W 4254   3.972   7.601   6.994
 3058W        W 4255   2.868   4.290   6.612
 3059W        W 4256   4.699   4.221   4.860
 3060W        W 4257   4.698   3.651   4.811
 3061W        W 4258   7.244   4.712   0.603
 3062W        W 4259   1.968   1.321   6.357
 3063W        W 4260   2.367   4.490   6.606
 3064W        W 4261   6.167   2.306   0.021
 3065W        W 4262   5.079   6.776   5.632
 3066W        W 4263   2.317   6.320   6.869
 3067W        W 4264   3.878   6.224   2.152
 3068W        W 4265   5.142   6.190   6.861
 3069W        W 4266   0.993   7.137   1.221
 3070W        W 4267   2.395   3.176   5.409
 3071W        W 4268   6.402   0.193   4.540
 3072W        W 4269   6.279   1.933   0.843
 3073W        W 4270   1.590   6.587   3.549
 3074W        W 4271   2.793   5.346   1.626
 3075W        W 4272   1.834   3.507   6.625
 3076W        W 4273   4.036   3.550   5.235
 3077W        W 4274   7.485   0.603   6.676
 3078W        W 4275   3.519   2.166   3.729
 3079W        W 4276   4.920   6.819   6.126
 3080W        W 4277   1.903   4.157   2.724
 3081W        W 4278   7.728   3.976   6.358
 3082W        W 4279   4.359   7.966   5.904
 3083W        W 4280   5.001   3.926   6.004
 3084W        W 4281   6.300   5.255   4.499
 3085W        W 4282   6.308   1.739   1.684
 3086W        W 4283   0.546   2.609   0.394
 3087W        W 4284   3.452   3.240   1.485
 3088W        W 4285   2.272   3.026   0.056
 3089W        W 4286   0.571   6.265   2.012
 3090W        W 4287   2.156   2.718   5.162
 3091W        W 4288   2.259   2.875   3.251
 3092W        W 4289   4.647   3.237   6.856
 3093W        W 4290   7.771   6.600   2.256
 3094W        W 4291   4.562   5.997   2.778
 3095W        W 4292   7.780   4.558   3.435
 3096W        W 4293   2.612   1.119   3.523
 3097W        W 4294   6.391   2.312   1.785
 3098W        W 4295   0.679   2.169   4.007
 3099W        W 4296   4.692   5.098   5.720
 3100W        W 4297   0.135   6.487   4.966
 3101W        W 4298   7.578   6.350   6.255
 3102W        W 4299   2.344   6.738   2.418
 3103W        W 4300   4.568   2.792   7.129
 3104W        W 4301   7.204   1.899   1.336
 3105W        W 4302   5.974   4.917   0.864
 3106W        W 4303   4.961   1.742   4.296
 3107W        W 4304   4.332   0.844   5.919
 3108W        W 4305   0.980   6.693   5.451
 3109W        W 4306   6.830   3.309   2.354
 3110W        W 4307   1.555   6.297   6.280
 3111W        W 4308   3.494   3.631   3.752
 3112W        W 4309   4.644   5.390   7.498
 3113W        W 4310   3.709   2.098   2.034
 3114W        W 4311   2.546   1.001   1.495
 3115W        W 4312   1.822   4.656   6.399
 3116W        W 4313   7.166   6.554   6.025
 3117W        W 4314   6.874   6.170   6.813
 3118W        W 4315   5.609   1.355   6.972
 3119W        W 4316   6.091   3.728   4.546
 3120W        W 4317   0.555   7.415   1.330
 3121W        W 4318   4.941   7.169   2.313
 3122W        W 4319   3.236   5.802   4.552
 3123W        W 4320   5.429   5.421   0.386
 3124W        W 4321   6.031   6.783   6.813
 3125W        W 4322   6.760   7.076   2.826
 3126W        W 4323   7.911   0.237   1.478
 3127W        W 4324   0.848   3.536   5.608
 3128W        W 4325   7.018   1.364   4.070
 3129W        W 4326   6.932   3.602   3.160
 3130W        W 4327   7.265   3.935   2.422
 3131W        W 4328   3.428   7.289   5.542
 3132W        W 4329   4.483   0.991   6.776
 3133W        W 4330   1.080   1.816   5.676
 3134W        W 4331   2.663   6.849   6.051
 3135W        W 4332   5.965   4.314   6.787
 3136W        W 4333   6.818   0.918   3.905
 3137W        W 4334   3.255   7.066   3.272
 3138W        W 4335   2.415   3.113   5.921
 3139W        W 4336   1.759   3.828   4.533
 3140W        W 4337   1.404   6.406   4.771
 3141W        W 4338   7.716   1.655   5.815
 3142W        W 4339   5.841   1.073   6.604
 3143W        W 4340   4.684   6.442   3.613
 3144W        W 4341   7.997   3.296   5.699
 3145W        W 4342   5.421   5.220   4.593
 3146W        W 4343   0.994   1.633   6.432
 3147W        W 4344   1.041   6.144   2.734
 3148W        W 4345   3.138   6.549   7.016
 3149W        W 4346   6.893   0.390   2.813
 3150W        W 4347   2.076   4.249   1.430
 3151W        W 4348   1.014   2.004   2.001
 3152W        W 4349   2.486   0.597   2.519
 3153W        W 4350   6.805   1.577   6.161
 3154W        W 4351   2.160   6.924   1.934
 3155W        W 4352   0.812   6.466   2.414
 3156W        W 4353   6.189   4.818   4.303
 3157W        W 4354   3.236   5.468   1.883
 3158W        W 4355   5.134   0.930   4.917
 3159W        W 4356   3.379   2.980   2.569
 3160W        W 4357   3.029   0.934   3.258
 3161W        W 4358   0.944   7.487   1.661
 3162W        W 4359   1.342   4.331   0.265
 3163W        W 4360   0.123   2.929   2.215
 3164W        W 4361   6.634   4.863   4.592
 3165W        W 4362   6.451   1.997   3.295
 3166W        W 4363   4.767   3.766   6.738
 3167W        W 4364   2.198   7.345   3.051
 3168W        W 4365   7.261   6.412   3.548
 3169W        W 4366   7.584   1.056   1.683
 3170W        W 4367   3.819   2.881   2.360
 3171W        W 4368   6.848   1.125   6.409
 3172W        W 4369   2.030   1.014   4.428
 3173W        W 4370   5.499   3.343   3.913
 3174W        W 4371   4.151   4.437   0.356
 3175W        W 4372   6.833   1.839   0.199
 3176W        W 4373   4.561   3.451   3.604
 3177W        W 4374   6.444   4.195   0.569
 3178W        W 4375   3.675   3.944   5.460
 3179W        W 4376   1.237   3.823   0.482
 3180W        W 4377   7.094   4.311   1.300
 3181W        W 4378   0.898   3.278   4.774
 3182W        W 4379   5.080   2.801   2.795
 3183W        W 4380   4.333   5.006   4.320
 3184W        W 4381   3.236   3.051   7.839
 3185W        W 4382   4.826   4.854   2.073
 3186W        W 4383   5.563   4.484   3.182
 3187W        W 4384   5.381   7.495   2.518
 3188W        W 4385   5.085   5.525   2.510
 3189W        W 4386   4.560   5.189   3.362
 3190W        W 4387   7.318   1.499   6.157
 3191W        W 4388   5.343   1.424   4.309
 3192W        W 4389   7.720   1.617   1.908
 3193W        W 4390   3.323   4.735   1.264
 3194W        W 4391   1.268   7.862   1.516
 3195W        W 4392   1.292   5.953   7.644
 3196W        W 4393   5.084   2.659   0.825
 3197W        W 4394   4.636   0.142   6.336
 3198W        W 4395   5.929   2.124   1.652
 3199W        W 4396   5.675   1.136   1.981
   8.00000   8.00000   8.00000
