Martini system from ../2_Creating_coordinates/TYR-GLN-TYR_aa.pdb
 4188
    1TYR     BB    1   4.040   6.203   7.930
    1TYR    SC1    2   4.206   6.148   0.181
    1TYR    SC2    3   4.280   5.978   0.377
    1TYR    SC3    4   4.284   6.244   0.421
    2GLN     BB    5   3.905   6.492   7.972
    2GLN    SC1    6   3.711   6.461   7.616
    3TYR     BB    7   4.088   6.683   0.228
    3TYR    SC1    8   4.109   6.661   0.546
    3TYR    SC2    9   4.189   6.528   0.766
    3TYR    SC3   10   4.141   6.793   0.779
    1TYR     BB   11   4.753   0.087   2.680
    1TYR    SC1   12   4.751   7.945   2.948
    1TYR    SC2   13   4.819   7.754   3.126
    1TYR    SC3   14   4.637   7.942   3.193
    2GLN     BB   15   5.063   0.238   2.712
    2GLN    SC1   16   5.016   0.347   2.346
    3TYR     BB   17   5.275   0.158   2.938
    3TYR    SC1   18   5.142   0.077   3.204
    3TYR    SC2   19   5.174   8.000   3.461
    3TYR    SC3   20   4.972   0.166   3.394
    1TYR     BB   21   5.195   2.317   4.608
    1TYR    SC1   22   4.886   2.347   4.590
    1TYR    SC2   23   4.683   2.215   4.710
    1TYR    SC3   24   4.684   2.485   4.704
    2GLN     BB   25   5.224   2.381   4.939
    2GLN    SC1   26   5.520   2.120   4.944
    3TYR     BB   27   4.982   2.302   5.122
    3TYR    SC1   28   4.942   2.440   5.396
    3TYR    SC2   29   4.765   2.466   5.598
    3TYR    SC3   30   4.956   2.653   5.562
    1TYR     BB   31   6.511   7.543   2.764
    1TYR    SC1   32   6.441   7.242   2.840
    1TYR    SC2   33   6.501   7.001   2.944
    1TYR    SC3   34   6.254   7.048   2.847
    2GLN     BB   35   6.752   7.650   2.930
    2GLN    SC1   36   7.086   7.703   2.726
    3TYR     BB   37   6.819   7.510   3.177
    3TYR    SC1   38   6.577   7.329   3.268
    3TYR    SC2   39   6.490   7.128   3.424
    3TYR    SC3   40   6.314   7.272   3.279
    1TYR     BB   41   4.256   7.894   6.732
    1TYR    SC1   42   3.953   7.796   6.720
    1TYR    SC2   43   3.737   7.639   6.685
    1TYR    SC3   44   3.706   7.904   6.726
    2GLN     BB   45   4.233   0.188   6.566
    2GLN    SC1   46   4.595   0.378   6.529
    3TYR     BB   47   3.998   0.127   6.321
    3TYR    SC1   48   4.032   7.823   6.267
    3TYR    SC2   49   3.899   7.589   6.267
    3TYR    SC3   50   4.163   7.594   6.324
    1TYR     BB   51   7.341   2.520   3.937
    1TYR    SC1   52   7.327   2.739   3.717
    1TYR    SC2   53   7.445   2.856   3.505
    1TYR    SC3   54   7.226   2.968   3.616
    2GLN     BB   55   7.057   2.404   3.956
    2GLN    SC1   56   7.185   2.033   3.938
    3TYR     BB   57   6.855   2.399   3.747
    3TYR    SC1   58   6.923   2.530   3.476
    3TYR    SC2   59   7.072   2.661   3.292
    3TYR    SC3   60   6.819   2.585   3.233
    1TYR     BB   61   6.378   5.752   7.655
    1TYR    SC1   62   6.671   5.735   7.545
    1TYR    SC2   63   6.934   5.678   7.573
    1TYR    SC3   64   6.827   5.707   7.327
    2GLN     BB   65   6.276   5.435   7.598
    2GLN    SC1   66   5.902   5.519   7.651
    3TYR     BB   67   6.437   5.283   7.393
    3TYR    SC1   68   6.742   5.272   7.421
    3TYR    SC2   69   6.968   5.202   7.551
    3TYR    SC3   70   6.975   5.253   7.286
    1TYR     BB   71   7.782   4.857   4.671
    1TYR    SC1   72   0.080   4.938   4.740
    1TYR    SC2   73   0.261   5.086   4.874
    1TYR    SC3   74   0.339   4.863   4.742
    2GLN     BB   75   7.581   5.004   4.870
    2GLN    SC1   76   7.312   5.124   4.591
    3TYR     BB   77   7.627   4.963   5.208
    3TYR    SC1   78   7.934   4.879   5.212
    3TYR    SC2   79   0.189   4.907   5.297
    3TYR    SC3   80   0.125   4.706   5.129
    1TYR     BB   81   5.694   2.882   7.923
    1TYR    SC1   82   5.561   2.629   7.798
    1TYR    SC2   83   5.321   2.521   7.735
    1TYR    SC3   84   5.533   2.486   7.571
    2GLN     BB   85   5.555   3.126   7.782
    2GLN    SC1   86   5.584   3.353   0.112
    3TYR     BB   87   5.323   3.015   7.583
    3TYR    SC1   88   5.302   3.201   7.351
    3TYR    SC2   89   5.383   3.441   7.257
    3TYR    SC3   90   5.344   3.236   7.086
    1TYR     BB   91   3.446   5.074   6.379
    1TYR    SC1   92   3.501   5.293   6.602
    1TYR    SC2   93   3.649   5.360   6.818
    1TYR    SC3   94   3.503   5.548   6.691
    2GLN     BB   95   3.782   5.054   6.263
    2GLN    SC1   96   3.935   4.718   6.405
    3TYR     BB   97   3.997   5.209   6.459
    3TYR    SC1   98   3.971   5.501   6.526
    3TYR    SC2   99   4.093   5.676   6.692
    3TYR    SC3  100   3.877   5.753   6.551
    1TYR     BB  101   6.162   1.098   3.541
    1TYR    SC1  102   6.442   0.978   3.498
    1TYR    SC2  103   6.703   1.048   3.482
    1TYR    SC3  104   6.633   0.787   3.499
    2GLN     BB  105   6.113   1.143   3.824
    2GLN    SC1  106   5.934   1.501   3.774
    3TYR     BB  107   6.273   0.925   4.004
    3TYR    SC1  108   6.572   0.999   3.965
    3TYR    SC2  109   6.765   1.159   4.066
    3TYR    SC3  110   6.831   0.948   3.911
    1TYR     BB  111   1.015   6.648   2.828
    1TYR    SC1  112   1.112   6.900   2.697
    1TYR    SC2  113   1.153   7.164   2.657
    1TYR    SC3  114   1.246   6.983   2.478
    2GLN     BB  115   0.897   6.578   3.072
    2GLN    SC1  116   0.502   6.639   3.043
    3TYR     BB  117   0.908   6.786   3.317
    3TYR    SC1  118   1.108   7.009   3.223
    3TYR    SC2  119   1.161   7.246   3.104
    3TYR    SC3  120   1.319   7.158   3.305
    1TYR     BB  121   5.119   1.481   1.370
    1TYR    SC1  122   5.226   1.757   1.473
    1TYR    SC2  123   5.219   1.961   1.650
    1TYR    SC3  124   5.352   1.989   1.416
    2GLN     BB  125   5.161   1.266   1.618
    2GLN    SC1  126   5.281   0.884   1.676
    3TYR     BB  127   5.447   1.346   1.756
    3TYR    SC1  128   5.517   1.629   1.825
    3TYR    SC2  129   5.533   1.821   2.014
    3TYR    SC3  130   5.657   1.854   1.776
    1TYR     BB  131   7.464   6.815   1.296
    1TYR    SC1  132   7.379   6.521   1.236
    1TYR    SC2  133   7.298   6.304   1.097
    1TYR    SC3  134   7.372   6.279   1.356
    2GLN     BB  135   7.781   6.717   1.450
    2GLN    SC1  136   0.158   6.791   1.335
    3TYR     BB  137   7.849   6.403   1.432
    3TYR    SC1  138   7.752   6.257   1.688
    3TYR    SC2  139   7.682   6.018   1.792
    3TYR    SC3  140   7.731   6.227   1.955
    1TYR     BB  141   1.024   1.938   5.179
    1TYR    SC1  142   1.091   1.791   4.914
    1TYR    SC2  143   1.116   1.893   4.666
    1TYR    SC3  144   1.038   1.636   4.699
    2GLN     BB  145   1.195   2.193   5.161
    2GLN    SC1  146   0.934   2.435   5.334
    3TYR     BB  147   1.467   2.153   4.999
    3TYR    SC1  148   1.436   2.202   4.697
    3TYR    SC2  149   1.301   2.317   4.493
    3TYR    SC3  150   1.474   2.116   4.444
    1TYR     BB  151   6.483   4.279   4.838
    1TYR    SC1  152   6.655   4.539   4.881
    1TYR    SC2  153   6.691   4.796   4.807
    1TYR    SC3  154   6.765   4.715   5.054
    2GLN     BB  155   6.177   4.423   4.819
    2GLN    SC1  156   6.007   4.285   4.491
    3TYR     BB  157   6.165   4.715   4.845
    3TYR    SC1  158   6.255   4.944   4.672
    3TYR    SC2  159   6.436   5.078   4.523
    3TYR    SC3  160   6.173   5.132   4.497
    1TYR     BB  161   7.264   1.250   4.127
    1TYR    SC1  162   7.439   1.448   3.967
    1TYR    SC2  163   7.687   1.535   3.904
    1TYR    SC3  164   7.472   1.634   3.774
    2GLN     BB  165   7.346   0.965   4.010
    2GLN    SC1  166   7.530   0.776   4.305
    3TYR     BB  167   7.634   0.991   3.859
    3TYR    SC1  168   7.594   1.174   3.623
    3TYR    SC2  169   7.703   1.364   3.465
    3TYR    SC3  170   7.513   1.199   3.367
    1TYR     BB  171   2.942   5.737   2.392
    1TYR    SC1  172   2.999   5.840   2.671
    1TYR    SC2  173   2.874   5.901   2.902
    1TYR    SC3  174   3.139   5.852   2.902
    2GLN     BB  175   2.600   5.725   2.410
    2GLN    SC1  176   2.570   5.643   2.031
    3TYR     BB  177   2.444   5.920   2.598
    3TYR    SC1  178   2.406   5.791   2.872
    3TYR    SC2  179   2.540   5.631   3.043
    3TYR    SC3  180   2.314   5.756   3.123
    1TYR     BB  181   7.662   4.189   1.410
    1TYR    SC1  182   7.389   4.310   1.307
    1TYR    SC2  183   7.175   4.335   1.145
    1TYR    SC3  184   7.224   4.523   1.332
    2GLN     BB  185   7.608   3.964   1.615
    2GLN    SC1  186   7.989   3.840   1.671
    3TYR     BB  187   7.283   3.859   1.675
    3TYR    SC1  188   7.075   4.046   1.525
    3TYR    SC2  189   6.865   4.068   1.358
    3TYR    SC3  190   6.914   4.262   1.540
    1TYR     BB  191   5.024   2.635   3.082
    1TYR    SC1  192   5.253   2.428   3.020
    1TYR    SC2  193   5.451   2.386   2.841
    1TYR    SC3  194   5.375   2.188   3.008
    2GLN     BB  195   5.135   2.779   3.353
    2GLN    SC1  196   5.080   3.107   3.562
    3TYR     BB  197   5.434   2.770   3.458
    3TYR    SC1  198   5.576   2.537   3.338
    3TYR    SC2  199   5.768   2.461   3.165
    3TYR    SC3  200   5.676   2.287   3.349
    1TYR     BB  201   0.563   3.471   6.384
    1TYR    SC1  202   0.316   3.600   6.251
    1TYR    SC2  203   0.079   3.553   6.131
    1TYR    SC3  204   0.199   3.793   6.103
    2GLN     BB  205   0.781   3.707   6.454
    2GLN    SC1  206   1.169   3.676   6.573
    3TYR     BB  207   0.766   3.957   6.648
    3TYR    SC1  208   0.785   4.208   6.481
    3TYR    SC2  209   0.687   4.281   6.240
    3TYR    SC3  210   0.894   4.416   6.349
    1TYR     BB  211   6.123   4.293   1.882
    1TYR    SC1  212   6.061   4.503   1.644
    1TYR    SC2  213   5.961   4.741   1.564
    1TYR    SC3  214   5.967   4.532   1.393
    2GLN     BB  215   6.401   4.154   1.731
    2GLN    SC1  216   6.578   4.487   1.838
    3TYR     BB  217   6.394   4.231   1.412
    3TYR    SC1  218   6.139   4.111   1.274
    3TYR    SC2  219   5.874   4.109   1.223
    3TYR    SC3  220   6.034   3.920   1.114
    1TYR     BB  221   0.438   2.703   7.016
    1TYR    SC1  222   0.435   3.015   6.968
    1TYR    SC2  223   0.497   3.225   6.810
    1TYR    SC3  224   0.419   3.266   7.065
    2GLN     BB  225   0.213   2.599   6.795
    2GLN    SC1  226   7.896   2.480   7.007
    3TYR     BB  227   0.035   2.800   6.634
    3TYR    SC1  228   0.066   3.099   6.701
    3TYR    SC2  229   0.104   3.340   6.587
    3TYR    SC3  230   7.970   3.321   6.820
    1TYR     BB  231   7.154   4.738   2.505
    1TYR    SC1  232   7.425   4.618   2.440
    1TYR    SC2  233   7.524   4.419   2.287
    1TYR    SC3  234   7.682   4.540   2.470
    2GLN     BB  235   7.082   4.940   2.257
    2GLN    SC1  236   6.703   4.865   2.169
    3TYR     BB  237   7.222   4.860   1.979
    3TYR    SC1  238   7.523   4.801   2.025
    3TYR    SC2  239   7.757   4.860   2.148
    3TYR    SC3  240   7.744   4.655   1.974
    1TYR     BB  241   3.516   3.343   7.630
    1TYR    SC1  242   3.489   3.463   7.923
    1TYR    SC2  243   3.367   3.428   0.161
    1TYR    SC3  244   3.548   3.626   0.130
    2GLN     BB  245   3.649   3.042   7.707
    2GLN    SC1  246   3.908   2.998   7.415
    3TYR     BB  247   3.563   2.946   0.008
    3TYR    SC1  248   3.713   3.139   0.202
    3TYR    SC2  249   3.813   3.209   0.443
    3TYR    SC3  250   3.894   3.338   0.221
    1TYR     BB  251   2.773   7.258   4.701
    1TYR    SC1  252   2.754   7.134   4.409
    1TYR    SC2  253   2.873   7.064   4.177
    1TYR    SC3  254   2.644   6.943   4.253
    2GLN     BB  255   2.877   7.008   4.878
    2GLN    SC1  256   2.947   7.216   5.212
    3TYR     BB  257   2.739   6.736   4.730
    3TYR    SC1  258   2.448   6.825   4.668
    3TYR    SC2  259   2.222   6.702   4.588
    3TYR    SC3  260   2.208   6.921   4.745
    1TYR     BB  261   1.632   6.289   1.972
    1TYR    SC1  262   1.441   6.178   2.196
    1TYR    SC2  263   1.232   6.007   2.199
    1TYR    SC3  264   1.352   6.077   2.430
    2GLN     BB  265   1.820   6.057   1.902
    2GLN    SC1  266   1.838   5.972   1.515
    3TYR     BB  267   1.742   5.792   2.026
    3TYR    SC1  268   1.615   5.741   2.288
    3TYR    SC2  269   1.427   5.596   2.417
    3TYR    SC3  270   1.624   5.716   2.557
    1TYR     BB  271   4.397   6.561   2.921
    1TYR    SC1  272   4.450   6.250   2.909
    1TYR    SC2  273   4.621   6.053   2.839
    1TYR    SC3  274   4.367   5.994   2.908
    2GLN     BB  275   4.541   6.632   3.193
    2GLN    SC1  276   4.824   6.904   3.236
    3TYR     BB  277   4.681   6.417   3.372
    3TYR    SC1  278   4.619   6.127   3.312
    3TYR    SC2  279   4.667   5.867   3.257
    3TYR    SC3  280   4.426   5.943   3.353
    1TYR     BB  281   0.818   0.251   6.701
    1TYR    SC1  282   1.071   0.199   6.884
    1TYR    SC2  283   1.133   0.175   7.146
    1TYR    SC3  284   1.318   0.118   6.957
    2GLN     BB  285   0.821   7.956   6.528
    2GLN    SC1  286   0.535   7.985   6.265
    3TYR     BB  287   0.755   7.737   6.744
    3TYR    SC1  288   0.996   7.734   6.947
    3TYR    SC2  289   1.089   7.732   7.200
    3TYR    SC3  290   1.229   7.611   7.004
    1TYR     BB  291   3.935   2.254   1.476
    1TYR    SC1  292   3.627   2.239   1.511
    1TYR    SC2  293   3.397   2.364   1.444
    1TYR    SC3  294   3.389   2.119   1.558
    2GLN     BB  295   3.991   2.059   1.235
    2GLN    SC1  296   4.006   2.203   0.867
    3TYR     BB  297   3.838   1.778   1.284
    3TYR    SC1  298   3.788   1.774   1.581
    3TYR    SC2  299   3.606   1.785   1.780
    3TYR    SC3  300   3.864   1.847   1.830
    1TYR     BB  301   2.335   2.697   5.795
    1TYR    SC1  302   2.616   2.611   5.731
    1TYR    SC2  303   2.814   2.500   5.584
    1TYR    SC3  304   2.807   2.463   5.852
    2GLN     BB  305   2.326   2.578   6.121
    2GLN    SC1  306   1.953   2.605   6.107
    3TYR     BB  307   2.531   2.499   6.315
    3TYR    SC1  308   2.662   2.240   6.228
    3TYR    SC2  309   2.857   2.055   6.200
    3TYR    SC3  310   2.598   1.984   6.171
    1TYR     BB  311   1.682   7.893   0.172
    1TYR    SC1  312   1.692   7.578   0.199
    1TYR    SC2  313   1.567   7.349   0.266
    1TYR    SC3  314   1.836   7.355   0.247
    2GLN     BB  315   1.409   7.919   7.965
    2GLN    SC1  316   1.258   0.189   0.222
    3TYR     BB  317   1.292   7.619   7.882
    3TYR    SC1  318   1.311   7.519   7.583
    3TYR    SC2  319   1.206   7.345   7.406
    3TYR    SC3  320   1.457   7.439   7.371
    1TYR     BB  321   6.786   2.763   6.214
    1TYR    SC1  322   6.675   2.561   5.990
    1TYR    SC2  323   6.590   2.344   5.852
    1TYR    SC3  324   6.688   2.558   5.720
    2GLN     BB  325   6.915   2.985   5.957
    2GLN    SC1  326   7.149   3.315   5.959
    3TYR     BB  327   6.701   3.069   5.797
    3TYR    SC1  328   6.489   3.030   5.588
    3TYR    SC2  329   6.221   3.050   5.564
    3TYR    SC3  330   6.379   3.073   5.346
    1TYR     BB  331   1.442   7.679   1.073
    1TYR    SC1  332   1.226   7.510   1.207
    1TYR    SC2  333   1.033   7.465   1.391
    1TYR    SC3  334   1.065   7.294   1.184
    2GLN     BB  335   1.348   7.993   1.049
    2GLN    SC1  336   1.523   0.088   0.701
    3TYR     BB  337   1.067   0.000   1.258
    3TYR    SC1  338   0.898   7.806   1.079
    3TYR    SC2  339   0.752   7.592   1.003
    3TYR    SC3  340   0.960   7.674   0.852
    1TYR     BB  341   7.888   1.711   1.020
    1TYR    SC1  342   0.112   1.504   0.938
    1TYR    SC2  343   0.339   1.374   1.003
    1TYR    SC3  344   0.211   1.314   0.774
    2GLN     BB  345   7.988   1.802   1.314
    2GLN    SC1  346   7.634   1.936   1.415
    3TYR     BB  347   0.245   1.646   1.404
    3TYR    SC1  348   0.180   1.482   1.651
    3TYR    SC2  349   0.094   1.494   1.907
    3TYR    SC3  350   0.127   1.255   1.787
    1TYR     BB  351   6.553   2.439   1.907
    1TYR    SC1  352   6.650   2.711   1.780
    1TYR    SC2  353   6.825   2.891   1.680
    1TYR    SC3  354   6.630   2.791   1.523
    2GLN     BB  355   6.672   2.247   1.678
    2GLN    SC1  356   6.926   2.037   1.892
    3TYR     BB  357   6.987   2.409   1.556
    3TYR    SC1  358   7.058   2.174   1.376
    3TYR    SC2  359   7.189   2.072   1.163
    3TYR    SC3  360   6.944   1.978   1.228
    1TYR     BB  361   5.100   3.369   4.497
    1TYR    SC1  362   5.374   3.211   4.514
    1TYR    SC2  363   5.504   3.082   4.712
    1TYR    SC3  364   5.564   3.029   4.454
    2GLN     BB  365   4.953   3.297   4.786
    2GLN    SC1  366   4.672   3.077   4.628
    3TYR     BB  367   5.104   3.221   5.012
    3TYR    SC1  368   5.255   2.971   5.101
    3TYR    SC2  369   5.288   2.765   5.273
    3TYR    SC3  370   5.457   2.796   5.065
    1TYR     BB  371   4.093   4.394   3.235
    1TYR    SC1  372   3.930   4.121   3.206
    1TYR    SC2  373   3.839   3.894   3.319
    1TYR    SC3  374   3.706   4.004   3.111
    2GLN     BB  375   4.060   4.475   3.519
    2GLN    SC1  376   4.380   4.666   3.571
    3TYR     BB  377   3.961   4.262   3.739
    3TYR    SC1  378   3.746   4.434   3.886
    3TYR    SC2  379   3.618   4.588   4.066
    3TYR    SC3  380   3.669   4.684   3.819
    1TYR     BB  381   3.095   3.134   2.516
    1TYR    SC1  382   3.315   2.942   2.640
    1TYR    SC2  383   3.535   2.902   2.791
    1TYR    SC3  384   3.335   2.720   2.793
    2GLN     BB  385   3.054   3.342   2.738
    2GLN    SC1  386   3.000   3.658   2.523
    3TYR     BB  387   3.262   3.294   3.001
    3TYR    SC1  388   3.178   3.030   3.100
    3TYR    SC2  389   3.199   2.808   3.252
    3TYR    SC3  390   2.992   2.834   3.081
    1TYR     BB  391   3.902   7.275   5.579
    1TYR    SC1  392   3.866   7.567   5.671
    1TYR    SC2  393   3.812   7.823   5.603
    1TYR    SC3  394   3.794   7.745   5.861
    2GLN     BB  395   3.607   7.196   5.479
    2GLN    SC1  396   3.761   6.876   5.302
    3TYR     BB  397   3.391   7.430   5.424
    3TYR    SC1  398   3.376   7.629   5.665
    3TYR    SC2  399   3.365   7.884   5.753
    3TYR    SC3  400   3.276   7.683   5.911
    1TYR     BB  401   5.967   5.235   1.528
    1TYR    SC1  402   6.118   5.356   1.308
    1TYR    SC2  403   6.065   5.397   1.046
    1TYR    SC3  404   6.250   5.549   1.172
    2GLN     BB  405   5.639   5.417   1.466
    2GLN    SC1  406   5.282   5.239   1.467
    3TYR     BB  407   5.606   5.557   1.212
    3TYR    SC1  408   5.612   5.416   0.935
    3TYR    SC2  409   5.693   5.209   0.782
    3TYR    SC3  410   5.541   5.404   0.675
    1TYR     BB  411   4.049   5.931   3.710
    1TYR    SC1  412   4.061   6.169   3.519
    1TYR    SC2  413   3.908   6.377   3.441
    1TYR    SC3  414   4.176   6.402   3.445
    2GLN     BB  415   4.033   6.109   3.999
    2GLN    SC1  416   3.757   5.866   4.133
    3TYR     BB  417   3.880   6.365   4.005
    3TYR    SC1  418   3.870   6.612   3.836
    3TYR    SC2  419   3.928   6.780   3.634
    3TYR    SC3  420   3.864   6.879   3.877
    1TYR     BB  421   3.497   1.067   3.402
    1TYR    SC1  422   3.381   1.178   3.144
    1TYR    SC2  423   3.480   1.198   2.893
    1TYR    SC3  424   3.248   1.321   2.957
    2GLN     BB  425   3.539   0.751   3.315
    2GLN    SC1  426   3.901   0.623   3.384
    3TYR     BB  427   3.405   0.610   3.113
    3TYR    SC1  428   3.229   0.776   2.917
    3TYR    SC2  429   3.131   0.792   2.666
    3TYR    SC3  430   3.022   0.940   2.864
    1TYR     BB  431   1.288   0.641   3.575
    1TYR    SC1  432   1.287   0.820   3.821
    1TYR    SC2  433   1.119   0.964   3.975
    1TYR    SC3  434   1.347   0.865   4.080
    2GLN     BB  435   1.027   0.425   3.708
    2GLN    SC1  436   1.245   0.332   4.030
    3TYR     BB  437   0.788   0.542   3.891
    3TYR    SC1  438   0.881   0.642   4.166
    3TYR    SC2  439   0.846   0.849   4.337
    3TYR    SC3  440   1.051   0.676   4.374
    1TYR     BB  441   1.488   6.509   2.667
    1TYR    SC1  442   1.726   6.338   2.545
    1TYR    SC2  443   1.990   6.287   2.570
    1TYR    SC3  444   1.833   6.119   2.430
    2GLN     BB  445   1.412   6.360   2.919
    2GLN    SC1  446   1.377   6.594   3.237
    3TYR     BB  447   1.472   6.051   2.920
    3TYR    SC1  448   1.772   6.017   2.895
    3TYR    SC2  449   2.026   6.074   2.965
    3TYR    SC3  450   1.975   5.871   2.794
    1TYR     BB  451   4.014   1.382   4.622
    1TYR    SC1  452   3.769   1.503   4.765
    1TYR    SC2  453   3.520   1.467   4.864
    1TYR    SC3  454   3.707   1.596   5.011
    2GLN     BB  455   4.154   1.214   4.923
    2GLN    SC1  456   4.512   1.218   4.748
    3TYR     BB  457   3.996   1.188   5.181
    3TYR    SC1  458   3.995   1.435   5.355
    3TYR    SC2  459   3.886   1.546   5.575
    3TYR    SC3  460   4.130   1.626   5.491
    1TYR     BB  461   3.223   4.184   0.938
    1TYR    SC1  462   3.368   4.442   1.029
    1TYR    SC2  463   3.496   4.678   1.007
    1TYR    SC3  464   3.548   4.515   1.216
    2GLN     BB  465   2.971   4.109   0.820
    2GLN    SC1  466   3.027   3.717   0.865
    3TYR     BB  467   2.921   4.152   0.473
    3TYR    SC1  468   3.143   4.373   0.448
    3TYR    SC2  469   3.409   4.419   0.448
    3TYR    SC3  470   3.246   4.571   0.600
    1TYR     BB  471   2.917   7.206   1.139
    1TYR    SC1  472   2.796   7.347   1.391
    1TYR    SC2  473   2.693   7.263   1.626
    1TYR    SC3  474   2.656   7.518   1.545
    2GLN     BB  475   3.109   6.980   1.317
    2GLN    SC1  476   3.436   6.880   1.114
    3TYR     BB  477   3.241   6.990   1.589
    3TYR    SC1  478   3.095   7.026   1.859
    3TYR    SC2  479   2.880   7.071   2.016
    3TYR    SC3  480   3.122   7.027   2.128
    1TYR     BB  481   6.352   1.629   2.613
    1TYR    SC1  482   6.632   1.746   2.552
    1TYR    SC2  483   6.853   1.854   2.663
    1TYR    SC3  484   6.868   1.736   2.420
    2GLN     BB  485   6.390   1.370   2.800
    2GLN    SC1  486   6.360   1.372   3.188
    3TYR     BB  487   6.747   1.377   2.858
    3TYR    SC1  488   6.808   1.298   2.570
    3TYR    SC2  489   6.917   1.215   2.337
    3TYR    SC3  490   6.656   1.283   2.347
    1TYR     BB  491   4.881   0.721   2.039
    1TYR    SC1  492   5.009   0.494   1.873
    1TYR    SC2  493   4.948   0.237   1.818
    1TYR    SC3  494   5.046   0.396   1.624
    2GLN     BB  495   4.583   0.566   2.080
    2GLN    SC1  496   4.312   0.826   2.175
    3TYR     BB  497   4.557   0.264   2.177
    3TYR    SC1  498   4.514   0.048   1.961
    3TYR    SC2  499   4.504   7.779   1.941
    3TYR    SC3  500   4.421   7.934   1.736
    1TYR     BB  501   4.631   5.543   7.755
    1TYR    SC1  502   4.902   5.429   7.663
    1TYR    SC2  503   5.070   5.217   7.655
    1TYR    SC3  504   5.164   5.465   7.606
    2GLN     BB  505   4.417   5.417   7.541
    2GLN    SC1  506   4.289   5.750   7.383
    3TYR     BB  507   4.576   5.311   7.265
    3TYR    SC1  508   4.775   5.550   7.239
    3TYR    SC2  509   5.030   5.635   7.216
    3TYR    SC3  510   4.851   5.782   7.355
    1TYR     BB  511   1.505   4.022   3.373
    1TYR    SC1  512   1.536   4.240   3.145
    1TYR    SC2  513   1.679   4.293   2.922
    1TYR    SC3  514   1.410   4.267   2.908
    2GLN     BB  515   1.397   3.780   3.143
    2GLN    SC1  516   1.474   3.500   3.406
    3TYR     BB  517   1.625   3.755   2.930
    3TYR    SC1  518   1.593   3.895   2.663
    3TYR    SC2  519   1.679   3.872   2.408
    3TYR    SC3  520   1.631   4.116   2.513
    1TYR     BB  521   1.635   2.202   1.667
    1TYR    SC1  522   1.509   1.904   1.678
    1TYR    SC2  523   1.403   1.674   1.772
    1TYR    SC3  524   1.621   1.667   1.612
    2GLN     BB  525   1.929   2.077   1.519
    2GLN    SC1  526   2.084   2.387   1.361
    3TYR     BB  527   1.806   1.952   1.230
    3TYR    SC1  528   1.494   1.925   1.237
    3TYR    SC2  529   1.279   2.077   1.294
    3TYR    SC3  530   1.253   1.809   1.276
    1TYR     BB  531   0.017   0.589   5.131
    1TYR    SC1  532   7.803   0.744   4.965
    1TYR    SC2  533   7.767   0.896   4.745
    1TYR    SC3  534   7.559   0.760   4.850
    2GLN     BB  535   0.310   0.682   5.111
    2GLN    SC1  536   0.492   0.332   5.140
    3TYR     BB  537   0.512   0.928   5.016
    3TYR    SC1  538   0.384   0.973   4.729
    3TYR    SC2  539   0.170   1.029   4.575
    3TYR    SC3  540   0.390   0.918   4.465
    1TYR     BB  541   7.957   3.206   4.371
    1TYR    SC1  542   7.724   3.050   4.250
    1TYR    SC2  543   7.605   2.927   4.041
    1TYR    SC3  544   7.577   2.827   4.291
    2GLN     BB  545   0.062   3.437   4.235
    2GLN    SC1  546   0.400   3.521   4.420
    3TYR     BB  547   7.937   3.576   4.000
    3TYR    SC1  548   7.715   3.390   3.886
    3TYR    SC2  549   7.472   3.297   3.811
    3TYR    SC3  550   7.695   3.208   3.687
    1TYR     BB  551   3.483   3.029   5.360
    1TYR    SC1  552   3.781   3.000   5.257
    1TYR    SC2  553   4.014   2.905   5.353
    1TYR    SC3  554   4.014   3.099   5.165
    2GLN     BB  555   3.521   2.901   5.657
    2GLN    SC1  556   3.293   2.598   5.753
    3TYR     BB  557   3.772   2.898   5.794
    3TYR    SC1  558   3.979   2.671   5.741
    3TYR    SC2  559   4.203   2.535   5.804
    3TYR    SC3  560   4.090   2.503   5.561
    1TYR     BB  561   6.403   0.501   4.832
    1TYR    SC1  562   6.661   0.329   4.892
    1TYR    SC2  563   6.705   0.080   4.987
    1TYR    SC3  564   6.882   0.193   4.817
    2GLN     BB  565   6.204   0.227   4.762
    2GLN    SC1  566   5.896   0.438   4.638
    3TYR     BB  567   6.201   7.948   4.962
    3TYR    SC1  568   6.126   7.717   4.765
    3TYR    SC2  569   5.958   7.579   4.605
    3TYR    SC3  570   6.194   7.470   4.677
    1TYR     BB  571   6.923   6.942   4.521
    1TYR    SC1  572   7.158   6.798   4.666
    1TYR    SC2  573   7.393   6.812   4.799
    1TYR    SC3  574   7.233   6.596   4.828
    2GLN     BB  575   6.835   7.172   4.747
    2GLN    SC1  576   6.681   7.416   4.489
    3TYR     BB  577   6.968   7.205   4.992
    3TYR    SC1  578   7.055   6.940   5.137
    3TYR    SC2  579   7.280   6.835   5.243
    3TYR    SC3  580   7.052   6.692   5.243
    1TYR     BB  581   5.191   7.559   3.869
    1TYR    SC1  582   4.950   7.739   3.777
    1TYR    SC2  583   4.770   7.769   3.579
    1TYR    SC3  584   4.795   7.959   3.768
    2GLN     BB  585   5.065   7.331   4.033
    2GLN    SC1  586   5.370   7.319   4.286
    3TYR     BB  587   4.805   7.181   3.936
    3TYR    SC1  588   4.710   7.306   3.664
    3TYR    SC2  589   4.670   7.359   3.403
    3TYR    SC3  590   4.477   7.416   3.583
    1TYR     BB  591   6.266   2.152   5.050
    1TYR    SC1  592   6.547   2.202   5.170
    1TYR    SC2  593   6.797   2.111   5.217
    1TYR    SC3  594   6.724   2.355   5.306
    2GLN     BB  595   6.179   2.442   4.920
    2GLN    SC1  596   5.849   2.460   5.137
    3TYR     BB  597   6.391   2.661   4.926
    3TYR    SC1  598   6.618   2.771   5.110
    3TYR    SC2  599   6.789   2.979   5.123
    3TYR    SC3  600   6.769   2.808   5.330
    1TYR     BB  601   3.018   2.894   4.292
    1TYR    SC1  602   2.869   2.797   4.538
    1TYR    SC2  603   2.715   2.784   4.760
    1TYR    SC3  604   2.974   2.711   4.772
    2GLN     BB  605   3.355   2.816   4.417
    2GLN    SC1  606   3.484   2.811   4.050
    3TYR     BB  607   3.482   2.501   4.498
    3TYR    SC1  608   3.765   2.566   4.575
    3TYR    SC2  609   4.035   2.564   4.569
    3TYR    SC3  610   3.904   2.793   4.625
    1TYR     BB  611   2.452   5.156   6.209
    1TYR    SC1  612   2.159   5.189   6.309
    1TYR    SC2  613   1.952   5.191   6.483
    1TYR    SC3  614   1.944   5.346   6.262
    2GLN     BB  615   2.605   5.403   6.349
    2GLN    SC1  616   2.719   5.624   6.046
    3TYR     BB  617   2.436   5.631   6.463
    3TYR    SC1  618   2.195   5.576   6.635
    3TYR    SC2  619   2.030   5.485   6.828
    3TYR    SC3  620   1.931   5.631   6.624
    1TYR     BB  621   2.045   6.770   5.289
    1TYR    SC1  622   1.988   7.018   5.461
    1TYR    SC2  623   1.894   7.265   5.515
    1TYR    SC3  624   1.914   7.082   5.713
    2GLN     BB  625   1.888   6.524   5.419
    2GLN    SC1  626   2.213   6.304   5.493
    3TYR     BB  627   1.831   6.562   5.721
    3TYR    SC1  628   1.593   6.729   5.810
    3TYR    SC2  629   1.324   6.747   5.815
    3TYR    SC3  630   1.465   6.772   6.044
    1TYR     BB  631   1.512   4.766   2.838
    1TYR    SC1  632   1.751   4.671   2.673
    1TYR    SC2  633   1.773   4.539   2.438
    1TYR    SC3  634   1.970   4.521   2.622
    2GLN     BB  635   1.272   4.692   2.617
    2GLN    SC1  636   1.403   4.902   2.305
    3TYR     BB  637   1.239   4.420   2.442
    3TYR    SC1  638   1.413   4.396   2.180
    3TYR    SC2  639   1.633   4.272   2.085
    3TYR    SC3  640   1.485   4.428   1.922
    1TYR     BB  641   4.821   7.282   2.067
    1TYR    SC1  642   4.876   7.488   1.843
    1TYR    SC2  643   5.057   7.547   1.651
    1TYR    SC3  644   4.810   7.657   1.642
    2GLN     BB  645   4.943   7.027   1.975
    2GLN    SC1  646   5.000   6.814   2.284
    3TYR     BB  647   4.868   6.846   1.765
    3TYR    SC1  648   4.799   7.008   1.509
    3TYR    SC2  649   4.848   7.060   1.249
    3TYR    SC3  650   4.776   7.260   1.416
    1TYR     BB  651   5.148   3.814   1.823
    1TYR    SC1  652   4.852   3.904   1.826
    1TYR    SC2  653   4.583   3.882   1.840
    1TYR    SC3  654   4.714   4.050   2.006
    2GLN     BB  655   5.135   3.619   2.098
    2GLN    SC1  656   5.060   3.333   1.817
    3TYR     BB  657   4.861   3.576   2.226
    3TYR    SC1  658   4.752   3.567   2.520
    3TYR    SC2  659   4.538   3.469   2.653
    3TYR    SC3  660   4.633   3.715   2.713
    1TYR     BB  661   6.593   7.527   6.733
    1TYR    SC1  662   6.684   7.681   6.974
    1TYR    SC2  663   6.760   7.898   7.116
    1TYR    SC3  664   6.855   7.654   7.181
    2GLN     BB  665   6.425   7.276   6.837
    2GLN    SC1  666   6.501   6.889   6.834
    3TYR     BB  667   6.408   7.251   7.164
    3TYR    SC1  668   6.399   7.528   7.297
    3TYR    SC2  669   6.345   7.792   7.289
    3TYR    SC3  670   6.506   7.693   7.482
    1TYR     BB  671   5.917   5.185   2.671
    1TYR    SC1  672   6.157   5.352   2.749
    1TYR    SC2  673   6.252   5.584   2.848
    1TYR    SC3  674   6.423   5.388   2.775
    2GLN     BB  675   5.681   5.369   2.613
    2GLN    SC1  676   5.590   5.206   2.280
    3TYR     BB  677   5.736   5.665   2.742
    3TYR    SC1  678   5.830   5.580   3.024
    3TYR    SC2  679   5.994   5.666   3.221
    3TYR    SC3  680   5.765   5.537   3.283
    1TYR     BB  681   2.123   5.128   7.147
    1TYR    SC1  682   2.313   5.371   7.176
    1TYR    SC2  683   2.385   5.623   7.109
    1TYR    SC3  684   2.459   5.519   7.348
    2GLN     BB  685   2.252   4.906   7.314
    2GLN    SC1  686   1.946   4.664   7.254
    3TYR     BB  687   2.468   5.029   7.553
    3TYR    SC1  688   2.675   4.806   7.581
    3TYR    SC2  689   2.862   4.630   7.665
    3TYR    SC3  690   2.806   4.652   7.402
    1TYR     BB  691   4.091   5.321   1.597
    1TYR    SC1  692   4.246   5.363   1.851
    1TYR    SC2  693   4.452   5.229   1.962
    1TYR    SC3  694   4.403   5.484   2.035
    2GLN     BB  695   4.157   5.047   1.479
    2GLN    SC1  696   4.232   5.178   1.113
    3TYR     BB  697   4.450   4.947   1.532
    3TYR    SC1  698   4.606   5.211   1.529
    3TYR    SC2  699   4.564   5.478   1.531
    3TYR    SC3  700   4.801   5.379   1.447
    1TYR     BB  701   1.658   5.148   7.336
    1TYR    SC1  702   1.500   5.375   7.478
    1TYR    SC2  703   1.543   5.559   7.672
    1TYR    SC3  704   1.413   5.629   7.446
    2GLN     BB  705   1.511   4.891   7.344
    2GLN    SC1  706   1.200   5.034   7.155
    3TYR     BB  707   1.559   4.682   7.605
    3TYR    SC1  708   1.662   4.900   7.808
    3TYR    SC2  709   1.608   5.150   7.896
    3TYR    SC3  710   1.762   4.985   0.044
    1TYR     BB  711   2.108   2.781   7.327
    1TYR    SC1  712   2.226   2.554   7.146
    1TYR    SC2  713   2.270   2.294   7.086
    1TYR    SC3  714   2.388   2.487   6.940
    2GLN     BB  715   1.800   2.832   7.262
    2GLN    SC1  716   1.639   2.821   7.626
    3TYR     BB  717   1.735   2.851   6.960
    3TYR    SC1  718   1.922   2.638   6.819
    3TYR    SC2  719   1.957   2.375   6.767
    3TYR    SC3  720   2.072   2.561   6.609
    1TYR     BB  721   1.282   0.938   1.002
    1TYR    SC1  722   1.576   0.959   0.918
    1TYR    SC2  723   1.768   1.136   0.851
    1TYR    SC3  724   1.830   0.876   0.884
    2GLN     BB  725   1.256   1.140   1.238
    2GLN    SC1  726   1.086   0.893   1.475
    3TYR     BB  727   1.445   1.360   1.254
    3TYR    SC1  728   1.730   1.280   1.305
    3TYR    SC2  729   1.951   1.127   1.278
    3TYR    SC3  730   1.888   1.233   1.518
    1TYR     BB  731   5.840   1.819   7.358
    1TYR    SC1  732   5.927   1.553   7.216
    1TYR    SC2  733   6.048   1.312   7.209
    1TYR    SC3  734   5.892   1.391   7.003
    2GLN     BB  735   5.980   1.882   7.606
    2GLN    SC1  736   6.297   2.065   7.451
    3TYR     BB  737   5.998   1.863   7.907
    3TYR    SC1  738   6.105   1.623   0.069
    3TYR    SC2  739   6.306   1.453   0.129
    3TYR    SC3  740   6.057   1.404   0.220
    1TYR     BB  741   1.899   5.884   0.894
    1TYR    SC1  742   1.974   5.673   1.116
    1TYR    SC2  743   2.103   5.589   1.337
    1TYR    SC3  744   1.928   5.426   1.213
    2GLN     BB  745   1.637   5.731   0.756
    2GLN    SC1  746   1.493   6.025   0.532
    3TYR     BB  747   1.570   5.411   0.827
    3TYR    SC1  748   1.527   5.277   1.105
    3TYR    SC2  749   1.360   5.213   1.308
    3TYR    SC3  750   1.602   5.095   1.289
    1TYR     BB  751   3.807   3.475   3.685
    1TYR    SC1  752   4.094   3.386   3.635
    1TYR    SC2  753   4.283   3.283   3.798
    1TYR    SC3  754   4.281   3.219   3.536
    2GLN     BB  755   3.736   3.334   3.997
    2GLN    SC1  756   3.500   3.633   4.113
    3TYR     BB  757   3.768   3.149   4.278
    3TYR    SC1  758   4.038   2.991   4.250
    3TYR    SC2  759   4.258   2.951   4.098
    3TYR    SC3  760   4.266   2.901   4.363
    1TYR     BB  761   5.284   4.973   2.600
    1TYR    SC1  762   5.261   4.845   2.313
    1TYR    SC2  763   5.197   4.920   2.061
    1TYR    SC3  764   5.356   4.705   2.102
    2GLN     BB  765   5.008   5.183   2.567
    2GLN    SC1  766   5.218   5.497   2.492
    3TYR     BB  767   4.749   5.364   2.407
    3TYR    SC1  768   4.858   5.378   2.119
    3TYR    SC2  769   4.840   5.506   1.882
    3TYR    SC3  770   4.893   5.242   1.888
    1TYR     BB  771   4.716   5.160   5.845
    1TYR    SC1  772   4.850   4.992   5.618
    1TYR    SC2  773   4.878   4.886   5.371
    1TYR    SC3  774   5.072   4.851   5.555
    2GLN     BB  775   4.812   5.470   5.760
    2GLN    SC1  776   4.685   5.691   6.056
    3TYR     BB  777   4.625   5.576   5.542
    3TYR    SC1  778   4.749   5.625   5.266
    3TYR    SC2  779   4.652   5.619   5.014
    3TYR    SC3  780   4.918   5.641   5.056
    1TYR     BB  781   1.359   5.913   5.560
    1TYR    SC1  782   1.075   5.949   5.466
    1TYR    SC2  783   0.899   5.835   5.295
    1TYR    SC3  784   0.818   6.030   5.464
    2GLN     BB  785   1.391   5.599   5.576
    2GLN    SC1  786   1.636   5.541   5.890
    3TYR     BB  787   1.307   5.374   5.339
    3TYR    SC1  788   1.001   5.384   5.277
    3TYR    SC2  789   0.847   5.441   5.062
    3TYR    SC3  790   0.733   5.409   5.305
    1TYR     BB  791   4.376   3.443   7.396
    1TYR    SC1  792   4.110   3.514   7.239
    1TYR    SC2  793   3.842   3.495   7.265
    1TYR    SC3  794   3.952   3.717   7.157
    2GLN     BB  795   4.388   3.748   7.564
    2GLN    SC1  796   4.449   3.674   7.928
    3TYR     BB  797   4.169   3.939   7.542
    3TYR    SC1  798   4.170   4.125   7.289
    3TYR    SC2  799   4.130   4.369   7.182
    3TYR    SC3  800   4.150   4.153   7.022
    1TYR     BB  801   0.630   1.476   1.938
    1TYR    SC1  802   0.917   1.541   2.058
    1TYR    SC2  803   1.137   1.664   2.154
    1TYR    SC3  804   1.067   1.421   2.248
    2GLN     BB  805   0.504   1.256   2.125
    2GLN    SC1  806   0.196   1.359   2.358
    3TYR     BB  807   0.589   1.011   2.305
    3TYR    SC1  808   0.828   1.098   2.474
    3TYR    SC2  809   0.921   1.253   2.674
    3TYR    SC3  810   1.067   1.043   2.586
    1TYR     BB  811   2.191   3.293   4.441
    1TYR    SC1  812   1.972   3.132   4.304
    1TYR    SC2  813   1.718   3.095   4.219
    1TYR    SC3  814   1.914   2.929   4.135
    2GLN     BB  815   2.318   3.471   4.233
    2GLN    SC1  816   2.497   3.739   4.446
    3TYR     BB  817   2.211   3.463   3.933
    3TYR    SC1  818   2.205   3.172   3.856
    3TYR    SC2  819   2.183   3.031   3.627
    3TYR    SC3  820   2.308   2.923   3.840
    1TYR     BB  821   2.384   6.184   0.301
    1TYR    SC1  822   2.622   6.376   0.345
    1TYR    SC2  823   2.697   6.619   0.436
    1TYR    SC3  824   2.852   6.402   0.484
    2GLN     BB  825   2.258   6.196   0.622
    2GLN    SC1  826   2.364   5.835   0.683
    3TYR     BB  827   2.407   6.383   0.820
    3TYR    SC1  828   2.670   6.234   0.883
    3TYR    SC2  829   2.827   6.173   1.095
    3TYR    SC3  830   2.918   6.133   0.843
    1TYR     BB  831   7.261   0.523   1.447
    1TYR    SC1  832   7.142   0.262   1.591
    1TYR    SC2  833   7.099   0.130   1.822
    1TYR    SC3  834   6.997   0.034   1.591
    2GLN     BB  835   7.280   0.747   1.704
    2GLN    SC1  836   7.644   0.925   1.688
    3TYR     BB  837   7.108   0.644   1.944
    3TYR    SC1  838   6.841   0.519   1.854
    3TYR    SC2  839   6.688   0.367   1.691
    3TYR    SC3  840   6.576   0.567   1.834
    1TYR     BB  841   1.878   0.563   6.241
    1TYR    SC1  842   1.766   0.340   6.438
    1TYR    SC2  843   1.631   0.178   6.607
    1TYR    SC3  844   1.896   0.144   6.570
    2GLN     BB  845   2.096   0.382   6.072
    2GLN    SC1  846   2.146   0.601   5.742
    3TYR     BB  847   2.052   0.060   6.080
    3TYR    SC1  848   2.219   7.922   6.309
    3TYR    SC2  849   2.242   7.848   6.568
    3TYR    SC3  850   2.344   7.691   6.373
    1TYR     BB  851   2.138   5.126   4.656
    1TYR    SC1  852   2.204   5.343   4.869
    1TYR    SC2  853   2.088   5.577   4.938
    1TYR    SC3  854   2.343   5.526   5.011
    2GLN     BB  855   1.782   5.171   4.691
    2GLN    SC1  856   1.845   5.453   4.414
    3TYR     BB  857   1.642   5.334   4.941
    3TYR    SC1  858   1.798   5.302   5.204
    3TYR    SC2  859   1.806   5.353   5.469
    3TYR    SC3  860   2.036   5.318   5.332
    1TYR     BB  861   0.070   0.965   5.958
    1TYR    SC1  862   7.879   0.971   5.700
    1TYR    SC2  863   7.682   1.113   5.582
    1TYR    SC3  864   7.798   0.908   5.451
    2GLN     BB  865   0.384   0.856   5.986
    2GLN    SC1  866   0.511   0.929   6.360
    3TYR     BB  867   0.657   1.037   5.878
    3TYR    SC1  868   0.749   0.830   5.671
    3TYR    SC2  869   0.905   0.620   5.604
    3TYR    SC3  870   0.675   0.667   5.469
    1TYR     BB  871   4.959   4.543   6.615
    1TYR    SC1  872   4.741   4.386   6.777
    1TYR    SC2  873   4.600   4.322   6.998
    1TYR    SC3  874   4.553   4.193   6.766
    2GLN     BB  875   4.880   4.846   6.593
    2GLN    SC1  876   5.217   5.017   6.672
    3TYR     BB  877   4.618   4.932   6.456
    3TYR    SC1  878   4.527   4.677   6.304
    3TYR    SC2  879   4.490   4.421   6.383
    3TYR    SC3  880   4.402   4.502   6.141
    1TYR     BB  881   6.034   4.362   6.853
    1TYR    SC1  882   6.122   4.311   6.552
    1TYR    SC2  883   6.172   4.125   6.364
    1TYR    SC3  884   6.299   4.363   6.355
    2GLN     BB  885   6.106   4.079   7.012
    2GLN    SC1  886   6.070   4.047   7.409
    3TYR     BB  887   6.063   3.845   6.771
    3TYR    SC1  888   5.799   3.974   6.657
    3TYR    SC2  889   5.682   4.169   6.512
    3TYR    SC3  890   5.584   4.104   6.755
    1TYR     BB  891   5.194   3.228   0.425
    1TYR    SC1  892   4.946   3.212   0.614
    1TYR    SC2  893   4.680   3.245   0.647
    1TYR    SC3  894   4.819   3.087   0.817
    2GLN     BB  895   5.103   3.503   0.245
    2GLN    SC1  896   5.144   3.420   7.852
    3TYR     BB  897   4.792   3.470   0.207
    3TYR    SC1  898   4.734   3.156   0.192
    3TYR    SC2  899   4.645   2.937   0.062
    3TYR    SC3  900   4.751   2.913   0.310
    1TYR     BB  901   4.117   6.786   1.747
    1TYR    SC1  902   3.933   6.985   1.599
    1TYR    SC2  903   3.709   7.122   1.534
    1TYR    SC3  904   3.941   7.254   1.577
    2GLN     BB  905   4.387   6.990   1.785
    2GLN    SC1  906   4.472   6.896   2.155
    3TYR     BB  907   4.410   7.281   1.797
    3TYR    SC1  908   4.369   7.475   1.571
    3TYR    SC2  909   4.442   7.619   1.354
    3TYR    SC3  910   4.186   7.623   1.439
    1TYR     BB  911   3.156   1.588   0.898
    1TYR    SC1  912   2.859   1.670   0.892
    1TYR    SC2  913   2.703   1.890   0.880
    1TYR    SC3  914   2.602   1.658   0.974
    2GLN     BB  915   3.320   1.841   0.821
    2GLN    SC1  916   3.519   2.077   1.049
    3TYR     BB  917   3.151   2.096   0.696
    3TYR    SC1  918   2.965   1.934   0.504
    3TYR    SC2  919   2.745   1.796   0.430
    3TYR    SC3  920   2.988   1.678   0.422
    1TYR     BB  921   3.717   1.101   5.764
    1TYR    SC1  922   4.018   1.111   5.727
    1TYR    SC2  923   4.245   0.986   5.803
    1TYR    SC3  924   4.258   1.217   5.663
    2GLN     BB  925   3.669   0.775   5.860
    2GLN    SC1  926   3.360   0.898   6.076
    3TYR     BB  927   3.909   0.690   6.063
    3TYR    SC1  928   4.139   0.491   6.003
    3TYR    SC2  929   4.361   0.368   6.096
    3TYR    SC3  930   4.225   0.263   5.887
    1TYR     BB  931   0.436   6.551   6.506
    1TYR    SC1  932   0.425   6.515   6.200
    1TYR    SC2  933   0.475   6.342   5.999
    1TYR    SC3  934   0.280   6.527   5.973
    2GLN     BB  935   0.324   6.218   6.579
    2GLN    SC1  936   0.119   6.323   6.898
    3TYR     BB  937   0.282   6.018   6.335
    3TYR    SC1  938   0.081   6.122   6.122
    3TYR    SC2  939   0.013   6.169   5.865
    3TYR    SC3  940   7.821   6.150   6.054
    1TYR     BB  941   3.189   7.874   1.342
    1TYR    SC1  942   2.925   7.916   1.513
    1TYR    SC2  943   2.800   7.914   1.752
    1TYR    SC3  944   2.688   0.041   1.542
    2GLN     BB  945   3.400   0.059   1.518
    2GLN    SC1  946   3.567   0.340   1.291
    3TYR     BB  947   3.298   0.047   1.836
    3TYR    SC1  948   3.091   0.293   1.834
    3TYR    SC2  949   2.834   0.375   1.850
    3TYR    SC3  950   3.030   0.556   1.814
    1TYR     BB  951   2.571   0.541   2.923
    1TYR    SC1  952   2.312   0.546   3.094
    1TYR    SC2  953   2.165   0.412   3.278
    1TYR    SC3  954   2.087   0.657   3.194
    2GLN     BB  955   2.798   0.581   3.145
    2GLN    SC1  956   3.028   0.309   2.962
    3TYR     BB  957   2.640   0.647   3.477
    3TYR    SC1  958   2.353   0.754   3.561
    3TYR    SC2  959   2.108   0.678   3.645
    3TYR    SC3  960   2.196   0.928   3.697
    1TYR     BB  961   7.145   2.465   6.012
    1TYR    SC1  962   7.139   2.585   5.721
    1TYR    SC2  963   7.160   2.792   5.549
    1TYR    SC3  964   7.139   2.540   5.455
    2GLN     BB  965   7.338   2.250   6.023
    2GLN    SC1  966   7.376   2.104   6.382
    3TYR     BB  967   7.600   2.266   5.852
    3TYR    SC1  968   7.766   2.491   6.007
    3TYR    SC2  969   7.840   2.691   6.174
    3TYR    SC3  970   7.956   2.668   5.931
    1TYR     BB  971   2.940   1.568   2.227
    1TYR    SC1  972   2.636   1.515   2.272
    1TYR    SC2  973   2.477   1.298   2.295
    1TYR    SC3  974   2.368   1.541   2.254
    2GLN     BB  975   3.065   1.489   2.515
    2GLN    SC1  976   3.359   1.240   2.432
    3TYR     BB  977   2.817   1.351   2.694
    3TYR    SC1  978   2.628   1.589   2.732
    3TYR    SC2  979   2.532   1.773   2.905
    3TYR    SC3  980   2.414   1.739   2.665
    1TYR     BB  981   1.239   3.887   0.799
    1TYR    SC1  982   1.368   4.030   0.555
    1TYR    SC2  983   1.446   3.974   0.302
    1TYR    SC3  984   1.362   4.223   0.366
    2GLN     BB  985   1.018   3.694   0.606
    2GLN    SC1  986   0.836   3.480   0.895
    3TYR     BB  987   1.197   3.525   0.391
    3TYR    SC1  988   1.217   3.623   0.092
    3TYR    SC2  989   1.362   3.720   7.886
    3TYR    SC3  990   1.123   3.604   7.839
    1TYR     BB  991   4.985   5.902   7.883
    1TYR    SC1  992   4.834   6.082   0.098
    1TYR    SC2  993   4.749   6.128   0.350
    1TYR    SC3  994   4.658   6.280   0.146
    2GLN     BB  995   5.108   5.678   0.059
    2GLN    SC1  996   5.485   5.709   7.915
    3TYR     BB  997   5.235   5.732   0.347
    3TYR    SC1  998   5.225   6.048   0.375
    3TYR    SC2  999   5.187   6.303   0.296
    3TYR    SC3 1000   5.172   6.239   0.558
    4W        W 1001   0.296   1.850   2.205
    5W        W 1002   3.799   5.715   1.596
    6W        W 1003   3.865   4.165   0.396
    7W        W 1004   3.668   7.073   2.460
    8W        W 1005   2.731   3.295   3.101
    9W        W 1006   3.168   5.782   3.417
   10W        W 1007   3.741   6.646   2.709
   11W        W 1008   3.007   3.349   6.174
   12W        W 1009   6.392   2.743   3.454
   13W        W 1010   1.004   6.613   6.264
   14W        W 1011   6.969   3.325   3.876
   15W        W 1012   5.838   6.421   3.224
   16W        W 1013   7.156   3.004   2.020
   17W        W 1014   4.399   7.042   6.415
   18W        W 1015   4.449   4.257   3.886
   19W        W 1016   4.285   3.827   0.866
   20W        W 1017   3.293   5.770   3.931
   21W        W 1018   2.697   5.965   3.372
   22W        W 1019   5.465   4.412   0.231
   23W        W 1020   0.115   3.028   3.876
   24W        W 1021   1.724   5.781   5.238
   25W        W 1022   5.424   2.302   5.421
   26W        W 1023   1.497   3.985   3.942
   27W        W 1024   3.161   2.211   5.400
   28W        W 1025   0.702   6.820   3.773
   29W        W 1026   2.788   1.115   4.846
   30W        W 1027   1.012   7.516   5.715
   31W        W 1028   0.538   4.866   4.266
   32W        W 1029   7.903   6.540   5.520
   33W        W 1030   3.345   1.673   1.341
   34W        W 1031   4.356   0.426   4.436
   35W        W 1032   3.831   6.087   1.258
   36W        W 1033   3.600   3.992   2.613
   37W        W 1034   2.789   6.902   2.586
   38W        W 1035   1.444   7.240   5.753
   39W        W 1036   5.512   0.399   3.642
   40W        W 1037   7.119   6.963   2.326
   41W        W 1038   2.432   1.209   4.039
   42W        W 1039   3.773   4.477   6.861
   43W        W 1040   4.604   2.284   6.032
   44W        W 1041   5.676   4.538   4.828
   45W        W 1042   5.530   1.664   2.901
   46W        W 1043   4.965   5.737   6.478
   47W        W 1044   0.671   2.302   5.759
   48W        W 1045   5.108   1.499   7.993
   49W        W 1046   1.262   5.482   1.967
   50W        W 1047   2.539   6.995   0.746
   51W        W 1048   1.342   3.494   3.975
   52W        W 1049   6.517   1.442   3.725
   53W        W 1050   1.780   2.756   3.696
   54W        W 1051   3.994   7.353   2.854
   55W        W 1052   1.551   7.158   1.102
   56W        W 1053   1.892   6.056   3.826
   57W        W 1054   4.903   5.802   0.701
   58W        W 1055   3.974   5.364   2.733
   59W        W 1056   2.435   4.345   2.739
   60W        W 1057   1.193   1.738   7.372
   61W        W 1058   1.421   6.638   0.484
   62W        W 1059   2.168   7.372   1.571
   63W        W 1060   6.253   3.447   4.054
   64W        W 1061   3.323   3.320   4.496
   65W        W 1062   3.489   3.598   4.943
   66W        W 1063   6.207   6.132   2.428
   67W        W 1064   6.892   0.178   0.734
   68W        W 1065   3.444   1.100   6.885
   69W        W 1066   6.083   0.914   0.473
   70W        W 1067   7.287   2.929   1.479
   71W        W 1068   5.698   5.141   6.794
   72W        W 1069   2.380   2.295   1.769
   73W        W 1070   6.178   5.103   7.995
   74W        W 1071   5.984   5.313   6.395
   75W        W 1072   0.618   1.066   0.541
   76W        W 1073   5.857   2.170   2.244
   77W        W 1074   5.321   6.086   4.053
   78W        W 1075   4.877   2.864   1.783
   79W        W 1076   5.962   7.418   0.558
   80W        W 1077   7.283   7.301   4.554
   81W        W 1078   1.152   0.481   1.146
   82W        W 1079   0.635   1.731   4.403
   83W        W 1080   1.961   0.587   6.814
   84W        W 1081   4.068   4.253   4.288
   85W        W 1082   7.839   7.136   1.140
   86W        W 1083   5.539   7.166   2.721
   87W        W 1084   5.991   5.735   5.359
   88W        W 1085   5.036   3.915   4.573
   89W        W 1086   7.897   3.497   5.562
   90W        W 1087   2.225   3.492   0.765
   91W        W 1088   5.197   5.217   4.286
   92W        W 1089   2.278   7.827   1.327
   93W        W 1090   2.617   2.395   2.242
   94W        W 1091   6.336   0.410   2.305
   95W        W 1092   0.516   4.410   3.959
   96W        W 1093   2.243   4.399   6.525
   97W        W 1094   6.593   5.205   1.430
   98W        W 1095   2.076   4.899   5.084
   99W        W 1096   0.208   5.975   1.955
  100W        W 1097   3.577   4.818   4.959
  101W        W 1098   3.705   5.606   5.660
  102W        W 1099   0.638   3.621   3.536
  103W        W 1100   5.845   6.719   0.999
  104W        W 1101   2.756   4.384   5.610
  105W        W 1102   7.120   7.536   6.744
  106W        W 1103   3.831   0.485   4.531
  107W        W 1104   3.598   5.297   4.791
  108W        W 1105   6.971   6.963   1.176
  109W        W 1106   4.238   0.927   7.291
  110W        W 1107   0.379   3.276   5.814
  111W        W 1108   0.904   2.929   0.861
  112W        W 1109   5.216   7.286   5.155
  113W        W 1110   3.895   2.520   4.105
  114W        W 1111   5.304   0.060   6.072
  115W        W 1112   1.343   0.572   0.646
  116W        W 1113   2.628   6.806   6.874
  117W        W 1114   2.743   7.768   1.080
  118W        W 1115   3.722   4.540   2.941
  119W        W 1116   3.416   4.875   6.893
  120W        W 1117   2.878   4.999   3.347
  121W        W 1118   3.124   4.500   2.109
  122W        W 1119   1.137   6.198   5.048
  123W        W 1120   6.675   3.475   5.150
  124W        W 1121   4.051   4.841   5.171
  125W        W 1122   5.540   7.040   7.127
  126W        W 1123   3.380   0.860   2.056
  127W        W 1124   5.829   3.670   3.771
  128W        W 1125   3.039   2.684   2.299
  129W        W 1126   4.873   2.475   7.994
  130W        W 1127   7.005   6.456   3.629
  131W        W 1128   4.199   3.019   6.057
  132W        W 1129   6.172   7.714   5.910
  133W        W 1130   2.604   2.360   1.299
  134W        W 1131   6.543   6.633   6.407
  135W        W 1132   1.133   5.512   3.847
  136W        W 1133   4.361   5.507   3.029
  137W        W 1134   3.636   6.827   0.590
  138W        W 1135   3.849   6.654   4.827
  139W        W 1136   4.380   4.030   0.398
  140W        W 1137   4.508   2.125   0.841
  141W        W 1138   1.002   1.918   5.685
  142W        W 1139   5.846   7.138   3.176
  143W        W 1140   3.301   4.274   2.946
  144W        W 1141   1.119   5.219   2.588
  145W        W 1142   2.742   3.680   1.685
  146W        W 1143   3.438   4.541   2.535
  147W        W 1144   4.270   5.138   2.408
  148W        W 1145   3.229   1.107   4.553
  149W        W 1146   6.753   5.622   1.183
  150W        W 1147   4.631   3.489   1.584
  151W        W 1148   3.983   2.896   1.390
  152W        W 1149   2.390   6.723   3.843
  153W        W 1150   5.026   7.500   6.849
  154W        W 1151   3.583   5.461   0.522
  155W        W 1152   6.073   6.052   2.902
  156W        W 1153   0.581   4.667   5.957
  157W        W 1154   1.232   4.402   0.951
  158W        W 1155   0.846   0.691   0.814
  159W        W 1156   1.070   4.717   1.954
  160W        W 1157   4.000   7.238   3.392
  161W        W 1158   6.783   2.905   7.197
  162W        W 1159   4.535   3.255   2.041
  163W        W 1160   5.412   5.886   0.825
  164W        W 1161   0.970   0.740   6.616
  165W        W 1162   0.103   3.743   5.177
  166W        W 1163   2.523   4.265   0.968
  167W        W 1164   0.699   5.726   6.199
  168W        W 1165   6.799   1.041   1.891
  169W        W 1166   1.375   0.754   6.247
  170W        W 1167   0.795   6.701   1.570
  171W        W 1168   4.001   7.138   2.090
  172W        W 1169   6.446   3.236   0.091
  173W        W 1170   7.074   6.733   6.587
  174W        W 1171   3.859   3.700   0.584
  175W        W 1172   0.355   0.856   0.943
  176W        W 1173   1.377   6.421   5.447
  177W        W 1174   2.782   6.733   1.614
  178W        W 1175   6.514   5.178   0.929
  179W        W 1176   6.183   2.642   2.970
  180W        W 1177   6.998   4.878   6.810
  181W        W 1178   3.214   4.028   3.383
  182W        W 1179   4.043   0.329   3.770
  183W        W 1180   5.147   2.066   7.639
  184W        W 1181   4.421   3.949   6.334
  185W        W 1182   3.077   4.870   4.836
  186W        W 1183   5.862   3.441   4.704
  187W        W 1184   2.506   3.519   2.116
  188W        W 1185   1.300   1.318   4.967
  189W        W 1186   1.549   6.392   1.489
  190W        W 1187   1.300   2.089   3.416
  191W        W 1188   2.881   1.461   1.350
  192W        W 1189   7.328   3.990   2.182
  193W        W 1190   2.724   3.312   0.809
  194W        W 1191   1.276   2.635   2.480
  195W        W 1192   0.410   2.332   5.017
  196W        W 1193   2.400   0.681   4.087
  197W        W 1194   0.486   1.905   1.739
  198W        W 1195   5.312   5.950   2.707
  199W        W 1196   1.391   7.856   5.670
  200W        W 1197   5.241   7.721   4.840
  201W        W 1198   6.584   2.743   0.283
  202W        W 1199   3.570   4.121   4.226
  203W        W 1200   2.339   4.969   0.687
  204W        W 1201   5.605   6.905   4.476
  205W        W 1202   3.492   2.442   0.122
  206W        W 1203   0.870   4.192   0.639
  207W        W 1204   3.763   2.644   1.779
  208W        W 1205   1.279   3.507   2.576
  209W        W 1206   6.983   1.202   6.358
  210W        W 1207   3.738   3.453   5.450
  211W        W 1208   4.321   6.499   6.413
  212W        W 1209   7.440   0.774   3.081
  213W        W 1210   5.296   6.573   3.859
  214W        W 1211   6.314   1.297   6.015
  215W        W 1212   5.595   0.306   4.254
  216W        W 1213   7.316   6.079   4.752
  217W        W 1214   5.662   7.622   6.070
  218W        W 1215   1.147   6.379   1.814
  219W        W 1216   0.628   3.942   1.036
  220W        W 1217   2.360   6.490   5.020
  221W        W 1218   2.654   2.575   3.999
  222W        W 1219   0.742   0.037   3.958
  223W        W 1220   3.737   0.898   1.199
  224W        W 1221   7.277   5.173   2.713
  225W        W 1222   7.260   2.670   7.237
  226W        W 1223   3.629   1.774   5.919
  227W        W 1224   5.929   7.325   7.312
  228W        W 1225   3.758   0.903   3.791
  229W        W 1226   0.727   1.272   4.546
  230W        W 1227   6.281   7.090   7.637
  231W        W 1228   5.991   3.129   0.331
  232W        W 1229   2.766   5.783   4.854
  233W        W 1230   1.971   5.118   1.670
  234W        W 1231   3.563   3.959   3.729
  235W        W 1232   3.090   2.198   2.136
  236W        W 1233   3.090   6.180   5.115
  237W        W 1234   0.229   6.049   4.802
  238W        W 1235   6.660   7.314   0.969
  239W        W 1236   3.239   1.724   6.230
  240W        W 1237   5.882   3.258   6.383
  241W        W 1238   7.831   2.331   6.511
  242W        W 1239   1.434   4.427   5.460
  243W        W 1240   2.091   4.523   0.785
  244W        W 1241   2.192   1.649   4.130
  245W        W 1242   0.818   2.536   7.370
  246W        W 1243   1.691   3.521   0.237
  247W        W 1244   6.785   3.854   4.804
  248W        W 1245   5.041   0.693   5.749
  249W        W 1246   2.318   6.751   5.713
  250W        W 1247   1.346   2.976   3.893
  251W        W 1248   1.400   5.075   0.405
  252W        W 1249   5.969   1.017   5.690
  253W        W 1250   6.616   4.269   2.962
  254W        W 1251   2.267   4.302   3.747
  255W        W 1252   1.383   0.196   2.005
  256W        W 1253   3.041   4.062   4.152
  257W        W 1254   4.756   6.065   1.607
  258W        W 1255   1.542   1.710   5.255
  259W        W 1256   3.632   0.485   4.051
  260W        W 1257   3.144   7.505   1.724
  261W        W 1258   2.134   3.969   0.911
  262W        W 1259   2.759   3.276   5.245
  263W        W 1260   2.445   1.709   3.390
  264W        W 1261   5.746   5.037   4.830
  265W        W 1262   5.804   3.487   2.443
  266W        W 1263   3.609   6.618   6.627
  267W        W 1264   7.393   5.663   2.579
  268W        W 1265   5.201   0.972   3.563
  269W        W 1266   5.578   4.625   6.777
  270W        W 1267   0.306   0.655   3.684
  271W        W 1268   1.058   4.300   1.671
  272W        W 1269   6.637   5.259   3.662
  273W        W 1270   3.933   5.457   3.922
  274W        W 1271   0.714   4.937   5.117
  275W        W 1272   7.781   6.351   4.797
  276W        W 1273   5.169   4.286   7.819
  277W        W 1274   1.509   3.748   1.225
  278W        W 1275   1.918   4.045   5.522
  279W        W 1276   1.554   5.392   3.544
  280W        W 1277   5.381   3.861   0.022
  281W        W 1278   6.335   5.924   5.020
  282W        W 1279   3.270   4.541   7.244
  283W        W 1280   4.322   3.845   1.387
  284W        W 1281   2.972   4.447   3.288
  285W        W 1282   4.537   0.455   3.945
  286W        W 1283   4.388   0.886   5.295
  287W        W 1284   3.855   3.695   1.127
  288W        W 1285   0.648   2.472   3.258
  289W        W 1286   2.538   2.589   3.078
  290W        W 1287   3.486   6.164   7.968
  291W        W 1288   5.659   6.115   5.477
  292W        W 1289   1.771   2.331   7.244
  293W        W 1290   0.412   4.915   2.148
  294W        W 1291   6.450   5.629   3.374
  295W        W 1292   2.689   4.211   6.647
  296W        W 1293   0.962   5.094   1.630
  297W        W 1294   1.078   5.482   0.991
  298W        W 1295   2.318   4.654   5.463
  299W        W 1296   4.693   7.266   4.432
  300W        W 1297   7.837   4.096   2.093
  301W        W 1298   5.073   0.804   6.594
  302W        W 1299   2.967   2.196   3.884
  303W        W 1300   6.394   1.025   1.573
  304W        W 1301   0.599   4.129   3.527
  305W        W 1302   2.118   2.147   6.323
  306W        W 1303   3.225   4.079   1.759
  307W        W 1304   4.328   7.063   1.278
  308W        W 1305   6.073   0.818   6.504
  309W        W 1306   0.990   4.082   7.084
  310W        W 1307   0.952   7.164   5.004
  311W        W 1308   5.898   6.811   7.442
  312W        W 1309   2.925   4.541   2.706
  313W        W 1310   5.459   3.861   2.504
  314W        W 1311   6.475   4.771   2.995
  315W        W 1312   7.005   0.784   0.964
  316W        W 1313   1.805   1.252   2.861
  317W        W 1314   2.442   5.309   2.641
  318W        W 1315   3.015   0.659   4.728
  319W        W 1316   4.329   0.709   3.117
  320W        W 1317   2.279   6.722   3.293
  321W        W 1318   6.366   1.566   7.518
  322W        W 1319   1.374   4.224   7.853
  323W        W 1320   5.516   5.012   3.941
  324W        W 1321   0.639   2.277   6.604
  325W        W 1322   3.105   1.129   0.691
  326W        W 1323   6.828   5.181   5.469
  327W        W 1324   2.970   5.544   7.399
  328W        W 1325   6.876   3.600   1.221
  329W        W 1326   6.440   7.271   0.490
  330W        W 1327   5.104   1.513   6.707
  331W        W 1328   6.481   3.829   0.903
  332W        W 1329   6.469   6.382   1.350
  333W        W 1330   4.862   2.138   3.133
  334W        W 1331   3.470   5.762   2.498
  335W        W 1332   6.289   3.604   6.380
  336W        W 1333   2.145   6.305   6.017
  337W        W 1334   2.397   1.881   4.523
  338W        W 1335   6.126   1.343   6.558
  339W        W 1336   0.747   1.638   1.217
  340W        W 1337   2.495   1.251   6.209
  341W        W 1338   3.535   1.666   2.692
  342W        W 1339   7.216   4.579   5.287
  343W        W 1340   6.208   0.787   5.264
  344W        W 1341   2.953   3.818   6.883
  345W        W 1342   7.058   3.354   1.614
  346W        W 1343   5.731   6.559   7.020
  347W        W 1344   1.411   1.032   2.214
  348W        W 1345   0.089   2.751   1.069
  349W        W 1346   2.531   4.757   1.127
  350W        W 1347   5.381   2.803   1.958
  351W        W 1348   5.560   3.286   3.419
  352W        W 1349   0.002   3.593   4.719
  353W        W 1350   1.255   4.713   1.401
  354W        W 1351   4.592   7.523   6.568
  355W        W 1352   2.940   5.955   6.520
  356W        W 1353   6.490   1.875   2.086
  357W        W 1354   5.222   1.806   3.308
  358W        W 1355   5.946   3.163   3.739
  359W        W 1356   4.697   4.842   7.063
  360W        W 1357   5.640   3.756   0.460
  361W        W 1358   4.278   3.018   0.427
  362W        W 1359   1.048   5.346   6.196
  363W        W 1360   4.737   1.046   2.386
  364W        W 1361   0.050   1.811   4.426
  365W        W 1362   7.502   2.841   5.091
  366W        W 1363   4.338   4.878   5.603
  367W        W 1364   5.220   1.487   0.487
  368W        W 1365   4.367   3.721   2.245
  369W        W 1366   2.880   0.030   5.716
  370W        W 1367   6.286   2.111   2.526
  371W        W 1368   2.189   5.764   5.455
  372W        W 1369   2.250   4.261   7.964
  373W        W 1370   2.271   3.005   0.788
  374W        W 1371   2.957   3.579   4.831
  375W        W 1372   0.017   4.230   5.192
  376W        W 1373   6.118   6.114   6.948
  377W        W 1374   7.299   5.791   1.495
  378W        W 1375   5.352   0.972   4.955
  379W        W 1376   5.105   3.729   2.908
  380W        W 1377   7.707   4.113   6.151
  381W        W 1378   4.767   0.053   1.343
  382W        W 1379   1.143   1.662   3.203
  383W        W 1380   6.372   4.955   5.249
  384W        W 1381   4.555   0.805   6.197
  385W        W 1382   1.104   6.315   0.720
  386W        W 1383   2.077   4.940   1.197
  387W        W 1384   2.125   4.184   2.304
  388W        W 1385   0.673   0.830   2.887
  389W        W 1386   7.690   1.227   0.990
  390W        W 1387   5.529   7.113   6.101
  391W        W 1388   0.854   2.941   2.356
  392W        W 1389   1.830   4.536   3.588
  393W        W 1390   6.627   6.852   0.693
  394W        W 1391   3.970   5.416   4.439
  395W        W 1392   6.639   1.760   1.586
  396W        W 1393   6.095   3.875   2.237
  397W        W 1394   0.816   3.602   1.396
  398W        W 1395   0.065   1.097   1.313
  399W        W 1396   1.011   0.521   5.110
  400W        W 1397   5.152   6.975   6.799
  401W        W 1398   1.836   2.970   3.250
  402W        W 1399   0.604   1.862   4.895
  403W        W 1400   2.833   4.236   7.141
  404W        W 1401   6.319   5.833   6.179
  405W        W 1402   1.213   3.863   4.347
  406W        W 1403   2.695   7.165   6.043
  407W        W 1404   3.690   2.257   5.768
  408W        W 1405   1.113   5.887   7.793
  409W        W 1406   0.549   1.996   5.380
  410W        W 1407   3.115   6.694   3.442
  411W        W 1408   2.148   3.758   0.342
  412W        W 1409   0.103   1.934   4.926
  413W        W 1410   6.540   3.588   6.816
  414W        W 1411   4.799   0.848   1.560
  415W        W 1412   5.908   2.328   7.251
  416W        W 1413   0.525   5.765   3.961
  417W        W 1414   2.570   0.532   1.451
  418W        W 1415   3.789   1.818   0.665
  419W        W 1416   6.406   5.097   5.736
  420W        W 1417   1.322   2.111   3.948
  421W        W 1418   7.813   1.768   2.328
  422W        W 1419   2.657   1.705   7.003
  423W        W 1420   2.836   1.459   3.189
  424W        W 1421   0.553   3.883   4.003
  425W        W 1422   5.804   1.320   3.274
  426W        W 1423   2.747   5.090   7.130
  427W        W 1424   0.755   6.721   5.839
  428W        W 1425   3.570   6.126   3.703
  429W        W 1426   0.927   3.823   1.845
  430W        W 1427   7.064   1.693   6.435
  431W        W 1428   0.782   2.144   1.314
  432W        W 1429   6.646   4.897   6.438
  433W        W 1430   4.385   6.929   3.537
  434W        W 1431   1.981   5.036   5.853
  435W        W 1432   5.794   0.628   6.083
  436W        W 1433   6.217   6.617   4.955
  437W        W 1434   0.948   1.970   0.873
  438W        W 1435   2.527   3.517   6.065
  439W        W 1436   4.417   6.275   4.291
  440W        W 1437   4.973   3.969   5.619
  441W        W 1438   1.487   0.491   7.334
  442W        W 1439   1.420   1.181   1.730
  443W        W 1440   3.418   4.589   7.731
  444W        W 1441   3.262   0.157   3.938
  445W        W 1442   6.571   2.427   0.678
  446W        W 1443   1.713   7.748   6.900
  447W        W 1444   3.299   4.207   6.867
  448W        W 1445   5.871   3.387   5.547
  449W        W 1446   4.959   3.659   4.115
  450W        W 1447   5.859   7.378   6.514
  451W        W 1448   0.484   3.292   2.258
  452W        W 1449   5.275   1.329   3.184
  453W        W 1450   7.432   3.311   3.288
  454W        W 1451   1.057   0.662   7.110
  455W        W 1452   3.384   1.791   2.224
  456W        W 1453   1.297   2.755   7.242
  457W        W 1454   5.651   2.395   0.658
  458W        W 1455   6.624   3.689   3.763
  459W        W 1456   6.577   6.409   5.241
  460W        W 1457   4.243   1.407   3.085
  461W        W 1458   6.581   5.792   2.518
  462W        W 1459   3.109   3.713   3.783
  463W        W 1460   2.773   4.519   4.621
  464W        W 1461   0.266   7.378   6.136
  465W        W 1462   1.483   7.200   2.050
  466W        W 1463   1.629   3.090   5.258
  467W        W 1464   4.665   2.055   7.774
  468W        W 1465   3.024   2.365   4.359
  469W        W 1466   6.383   7.776   3.239
  470W        W 1467   2.679   3.034   2.203
  471W        W 1468   6.094   7.225   0.114
  472W        W 1469   3.026   2.840   3.786
  473W        W 1470   2.450   3.491   4.903
  474W        W 1471   1.336   3.396   0.891
  475W        W 1472   1.486   1.418   2.509
  476W        W 1473   7.295   1.618   4.830
  477W        W 1474   7.606   3.603   5.123
  478W        W 1475   0.522   4.388   4.471
  479W        W 1476   0.450   3.375   3.103
  480W        W 1477   4.114   7.193   6.026
  481W        W 1478   4.152   4.368   5.519
  482W        W 1479   3.879   2.553   7.789
  483W        W 1480   6.860   2.887   0.706
  484W        W 1481   2.859   7.502   5.652
  485W        W 1482   4.139   4.483   4.800
  486W        W 1483   6.271   7.810   2.392
  487W        W 1484   4.986   4.003   2.444
  488W        W 1485   6.681   7.670   5.841
  489W        W 1486   5.092   2.747   1.109
  490W        W 1487   2.441   5.196   1.504
  491W        W 1488   0.600   4.060   1.544
  492W        W 1489   6.442   6.864   0.126
  493W        W 1490   6.243   3.939   3.163
  494W        W 1491   2.245   2.128   3.180
  495W        W 1492   1.912   2.438   5.629
  496W        W 1493   5.637   3.274   5.129
  497W        W 1494   5.448   2.008   2.521
  498W        W 1495   6.363   2.357   3.833
  499W        W 1496   4.554   0.887   4.325
  500W        W 1497   3.702   3.195   4.793
  501W        W 1498   0.472   6.827   5.419
  502W        W 1499   0.958   5.441   7.540
  503W        W 1500   4.634   6.517   2.473
  504W        W 1501   4.901   3.521   7.197
  505W        W 1502   3.072   0.551   5.279
  506W        W 1503   1.681   4.633   1.069
  507W        W 1504   3.300   6.570   0.234
  508W        W 1505   7.166   7.883   3.220
  509W        W 1506   0.274   4.091   6.503
  510W        W 1507   1.134   1.594   6.896
  511W        W 1508   5.170   4.694   4.120
  512W        W 1509   4.352   4.199   7.919
  513W        W 1510   4.939   3.224   6.772
  514W        W 1511   1.274   3.129   4.859
  515W        W 1512   6.378   7.457   6.300
  516W        W 1513   4.752   3.767   0.630
  517W        W 1514   4.510   6.042   7.724
  518W        W 1515   5.809   6.032   4.987
  519W        W 1516   0.432   0.448   4.236
  520W        W 1517   6.269   7.698   0.251
  521W        W 1518   5.806   5.393   0.162
  522W        W 1519   4.431   3.022   1.603
  523W        W 1520   2.555   3.439   2.649
  524W        W 1521   3.018   1.435   5.159
  525W        W 1522   4.678   2.638   1.373
  526W        W 1523   6.978   0.048   6.093
  527W        W 1524   5.946   1.256   1.752
  528W        W 1525   0.278   3.172   4.773
  529W        W 1526   4.314   0.939   1.685
  530W        W 1527   5.616   4.126   7.636
  531W        W 1528   1.412   4.371   6.228
  532W        W 1529   3.984   4.203   1.287
  533W        W 1530   6.342   5.468   1.791
  534W        W 1531   4.621   7.059   0.806
  535W        W 1532   1.865   6.404   6.824
  536W        W 1533   7.168   4.312   6.120
  537W        W 1534   7.471   5.272   2.239
  538W        W 1535   0.366   3.759   2.727
  539W        W 1536   0.318   3.615   1.341
  540W        W 1537   2.032   5.975   6.995
  541W        W 1538   6.206   2.267   3.332
  542W        W 1539   4.183   1.439   7.208
  543W        W 1540   3.234   0.926   5.588
  544W        W 1541   5.084   3.620   1.337
  545W        W 1542   3.403   6.892   6.269
  546W        W 1543   7.680   6.088   6.721
  547W        W 1544   5.645   4.955   1.246
  548W        W 1545   6.004   5.318   7.157
  549W        W 1546   5.139   4.815   7.963
  550W        W 1547   7.411   2.389   6.833
  551W        W 1548   0.362   2.066   3.100
  552W        W 1549   3.102   5.348   3.675
  553W        W 1550   0.384   4.107   2.007
  554W        W 1551   0.618   4.149   5.780
  555W        W 1552   2.825   1.985   2.506
  556W        W 1553   7.297   5.704   2.014
  557W        W 1554   5.629   0.688   0.576
  558W        W 1555   1.900   2.942   5.666
  559W        W 1556   2.192   1.002   4.447
  560W        W 1557   4.774   0.464   3.039
  561W        W 1558   4.294   2.498   0.552
  562W        W 1559   0.037   0.797   4.118
  563W        W 1560   4.488   6.048   5.295
  564W        W 1561   2.725   0.593   5.691
  565W        W 1562   7.157   4.702   5.783
  566W        W 1563   7.866   5.258   6.159
  567W        W 1564   0.651   6.082   4.344
  568W        W 1565   2.309   1.616   5.876
  569W        W 1566   2.300   3.045   3.083
  570W        W 1567   2.031   5.242   7.653
  571W        W 1568   4.513   1.375   5.243
  572W        W 1569   5.082   5.048   3.055
  573W        W 1570   5.536   3.695   6.374
  574W        W 1571   3.002   5.942   5.560
  575W        W 1572   1.887   4.463   5.218
  576W        W 1573   1.441   7.128   4.850
  577W        W 1574   3.505   4.691   6.016
  578W        W 1575   5.700   1.622   1.339
  579W        W 1576   3.120   1.247   6.361
  580W        W 1577   3.499   3.405   6.294
  581W        W 1578   5.140   1.417   5.801
  582W        W 1579   5.007   6.581   1.346
  583W        W 1580   5.356   7.341   6.505
  584W        W 1581   1.289   5.165   5.782
  585W        W 1582   5.129   6.232   6.274
  586W        W 1583   6.834   0.919   6.794
  587W        W 1584   2.994   4.604   6.782
  588W        W 1585   6.286   3.198   6.046
  589W        W 1586   6.418   4.567   4.394
  590W        W 1587   2.400   7.261   6.946
  591W        W 1588   2.802   5.789   3.827
  592W        W 1589   3.398   2.550   3.629
  593W        W 1590   7.290   1.098   1.322
  594W        W 1591   6.425   3.139   0.594
  595W        W 1592   5.296   4.741   1.557
  596W        W 1593   0.122   6.909   6.281
  597W        W 1594   0.174   2.200   5.890
  598W        W 1595   7.377   3.761   3.051
  599W        W 1596   2.235   0.901   6.521
  600W        W 1597   3.419   2.508   6.629
  601W        W 1598   4.019   0.663   5.010
  602W        W 1599   4.315   1.099   6.795
  603W        W 1600   0.329   5.358   6.901
  604W        W 1601   6.294   3.658   7.672
  605W        W 1602   5.546   1.205   7.347
  606W        W 1603   4.869   5.193   4.847
  607W        W 1604   1.699   7.201   6.194
  608W        W 1605   3.743   3.982   6.781
  609W        W 1606   6.155   3.472   5.133
  610W        W 1607   5.817   6.010   4.091
  611W        W 1608   6.081   6.654   4.458
  612W        W 1609   2.076   1.633   3.047
  613W        W 1610   6.402   0.303   7.146
  614W        W 1611   7.563   3.574   6.140
  615W        W 1612   4.732   4.514   7.864
  616W        W 1613   5.312   5.548   3.026
  617W        W 1614   2.963   3.586   4.285
  618W        W 1615   3.096   4.771   5.721
  619W        W 1616   7.409   2.646   6.404
  620W        W 1617   3.920   5.141   5.762
  621W        W 1618   7.073   0.512   4.023
  622W        W 1619   1.041   3.419   3.129
  623W        W 1620   7.713   4.520   5.528
  624W        W 1621   3.843   2.099   4.410
  625W        W 1622   2.397   6.111   4.656
  626W        W 1623   5.619   7.123   0.297
  627W        W 1624   4.809   4.930   4.419
  628W        W 1625   7.286   7.356   5.361
  629W        W 1626   6.424   5.480   5.366
  630W        W 1627   3.082   0.114   6.181
  631W        W 1628   3.268   1.179   1.182
  632W        W 1629   2.758   2.392   5.091
  633W        W 1630   6.885   7.340   3.652
  634W        W 1631   5.278   4.981   5.071
  635W        W 1632   5.622   5.032   1.808
  636W        W 1633   3.979   5.802   3.192
  637W        W 1634   3.817   0.894   1.767
  638W        W 1635   3.823   6.125   4.961
  639W        W 1636   2.859   1.866   4.276
  640W        W 1637   7.530   1.221   5.100
  641W        W 1638   1.006   7.350   4.516
  642W        W 1639   0.469   6.167   2.851
  643W        W 1640   1.827   3.944   7.971
  644W        W 1641   3.081   6.604   4.359
  645W        W 1642   5.454   5.898   6.488
  646W        W 1643   1.212   3.924   2.255
  647W        W 1644   6.927   6.352   5.599
  648W        W 1645   5.421   1.727   6.118
  649W        W 1646   1.855   5.036   3.744
  650W        W 1647   1.585   3.225   1.313
  651W        W 1648   1.489   3.862   6.948
  652W        W 1649   1.106   3.419   6.127
  653W        W 1650   4.624   2.637   2.590
  654W        W 1651   5.752   7.614   0.134
  655W        W 1652   1.709   2.769   0.176
  656W        W 1653   0.713   5.391   6.584
  657W        W 1654   7.406   6.627   1.756
  658W        W 1655   6.777   5.888   4.766
  659W        W 1656   4.402   7.124   3.051
  660W        W 1657   1.439   4.828   4.494
  661W        W 1658   4.610   4.072   4.331
  662W        W 1659   3.050   4.705   6.248
  663W        W 1660   1.875   5.776   3.386
  664W        W 1661   6.655   0.460   6.125
  665W        W 1662   4.410   6.831   4.743
  666W        W 1663   2.893   5.306   5.060
  667W        W 1664   3.444   0.363   2.624
  668W        W 1665   6.330   0.902   2.586
  669W        W 1666   3.899   0.836   6.917
  670W        W 1667   5.177   1.135   2.129
  671W        W 1668   1.492   5.754   4.146
  672W        W 1669   4.382   4.652   2.547
  673W        W 1670   5.348   5.780   3.518
  674W        W 1671   3.492   2.760   4.929
  675W        W 1672   3.371   3.530   1.183
  676W        W 1673   3.287   5.509   5.381
  677W        W 1674   3.393   6.257   2.768
  678W        W 1675   7.505   2.486   4.734
  679W        W 1676   5.375   3.617   4.832
  680W        W 1677   3.275   6.118   0.464
  681W        W 1678   4.031   0.600   5.536
  682W        W 1679   3.585   4.186   6.199
  683W        W 1680   1.669   1.440   3.340
  684W        W 1681   7.193   4.030   4.384
  685W        W 1682   7.975   3.257   2.179
  686W        W 1683   4.457   2.405   5.195
  687W        W 1684   6.028   5.067   4.016
  688W        W 1685   2.843   3.781   6.388
  689W        W 1686   6.249   0.888   2.051
  690W        W 1687   3.851   1.072   2.244
  691W        W 1688   4.945   0.965   3.110
  692W        W 1689   6.340   4.431   3.365
  693W        W 1690   5.412   6.436   2.913
  694W        W 1691   4.230   4.714   7.862
  695W        W 1692   1.218   5.423   0.012
  696W        W 1693   1.529   4.064   5.845
  697W        W 1694   6.821   2.920   2.841
  698W        W 1695   4.909   6.391   4.143
  699W        W 1696   5.562   4.513   3.867
  700W        W 1697   6.818   6.485   0.996
  701W        W 1698   7.288   3.303   1.090
  702W        W 1699   7.544   0.501   3.819
  703W        W 1700   0.396   1.931   0.989
  704W        W 1701   3.127   4.137   2.481
  705W        W 1702   6.753   2.881   3.784
  706W        W 1703   6.021   4.796   6.564
  707W        W 1704   0.464   5.567   2.195
  708W        W 1705   4.834   5.572   2.868
  709W        W 1706   4.794   1.792   2.348
  710W        W 1707   2.748   7.400   6.563
  711W        W 1708   0.678   1.679   2.956
  712W        W 1709   0.775   5.488   0.261
  713W        W 1710   3.328   0.890   7.387
  714W        W 1711   6.112   6.265   5.327
  715W        W 1712   1.062   3.171   1.274
  716W        W 1713   1.495   3.541   2.086
  717W        W 1714   0.786   1.238   6.705
  718W        W 1715   6.056   0.412   0.689
  719W        W 1716   4.519   7.544   2.761
  720W        W 1717   2.854   2.482   6.712
  721W        W 1718   5.808   5.594   4.708
  722W        W 1719   2.679   1.482   5.528
  723W        W 1720   6.239   6.353   1.808
  724W        W 1721   4.138   2.067   3.981
  725W        W 1722   1.138   1.049   0.533
  726W        W 1723   5.089   5.908   2.012
  727W        W 1724   0.258   2.481   5.481
  728W        W 1725   3.084   1.750   1.773
  729W        W 1726   7.519   3.155   5.507
  730W        W 1727   0.558   2.491   2.364
  731W        W 1728   5.613   2.806   7.159
  732W        W 1729   1.849   3.756   3.689
  733W        W 1730   3.590   6.852   1.939
  734W        W 1731   5.449   4.112   2.937
  735W        W 1732   2.354   5.162   2.029
  736W        W 1733   5.764   7.535   4.013
  737W        W 1734   3.362   6.128   1.056
  738W        W 1735   4.914   0.460   6.954
  739W        W 1736   2.464   6.203   3.884
  740W        W 1737   3.849   0.048   2.166
  741W        W 1738   5.471   7.571   0.588
  742W        W 1739   4.800   2.301   7.351
  743W        W 1740   3.271   3.776   2.937
  744W        W 1741   3.254   5.996   7.477
  745W        W 1742   1.494   6.391   3.773
  746W        W 1743   1.574   1.712   2.917
  747W        W 1744   7.690   1.415   1.499
  748W        W 1745   2.420   3.744   3.046
  749W        W 1746   1.881   4.165   0.472
  750W        W 1747   7.657   2.643   5.525
  751W        W 1748   7.091   2.453   4.449
  752W        W 1749   3.367   0.799   1.526
  753W        W 1750   6.433   3.921   5.274
  754W        W 1751   6.474   6.858   1.186
  755W        W 1752   5.668   1.130   4.022
  756W        W 1753   7.301   5.908   6.382
  757W        W 1754   1.320   7.406   5.291
  758W        W 1755   1.733   3.558   1.638
  759W        W 1756   4.716   5.676   3.714
  760W        W 1757   3.985   4.649   5.902
  761W        W 1758   4.958   0.565   4.312
  762W        W 1759   3.529   7.348   2.049
  763W        W 1760   3.149   5.820   4.437
  764W        W 1761   1.643   5.495   1.633
  765W        W 1762   1.312   6.629   4.173
  766W        W 1763   6.012   4.477   7.732
  767W        W 1764   2.523   5.985   6.800
  768W        W 1765   3.586   1.910   5.406
  769W        W 1766   3.894   4.775   2.491
  770W        W 1767   3.242   4.364   3.809
  771W        W 1768   0.539   4.904   3.729
  772W        W 1769   6.481   2.379   6.414
  773W        W 1770   4.653   7.105   6.855
  774W        W 1771   6.635   0.490   2.727
  775W        W 1772   6.725   0.128   3.118
  776W        W 1773   1.629   6.726   7.116
  777W        W 1774   1.300   1.158   6.674
  778W        W 1775   3.946   6.277   2.967
  779W        W 1776   0.628   5.858   6.786
  780W        W 1777   4.136   0.847   2.642
  781W        W 1778   5.660   3.846   7.186
  782W        W 1779   4.756   1.099   5.623
  783W        W 1780   1.778   6.879   6.602
  784W        W 1781   6.443   6.156   6.552
  785W        W 1782   4.275   2.549   1.674
  786W        W 1783   4.457   4.501   2.023
  787W        W 1784   3.749   4.404   5.168
  788W        W 1785   4.501   4.166   2.462
  789W        W 1786   7.474   6.354   5.202
  790W        W 1787   6.381   0.570   1.347
  791W        W 1788   5.999   7.856   6.395
  792W        W 1789   3.695   2.109   4.902
  793W        W 1790   5.117   0.254   6.523
  794W        W 1791   7.090   1.917   4.436
  795W        W 1792   1.403   2.188   0.816
  796W        W 1793   6.194   7.000   6.446
  797W        W 1794   5.758   6.506   4.798
  798W        W 1795   3.384   6.626   2.339
  799W        W 1796   7.781   6.638   0.943
  800W        W 1797   1.681   2.465   3.274
  801W        W 1798   6.852   5.739   1.748
  802W        W 1799   6.268   2.089   5.574
  803W        W 1800   6.710   6.678   4.858
  804W        W 1801   1.522   5.512   6.950
  805W        W 1802   0.932   5.143   0.634
  806W        W 1803   7.948   7.142   1.671
  807W        W 1804   3.770   5.914   7.608
  808W        W 1805   3.932   5.536   2.245
  809W        W 1806   2.783   6.916   5.601
  810W        W 1807   3.627   6.574   1.489
  811W        W 1808   5.623   3.783   2.033
  812W        W 1809   4.006   6.795   3.130
  813W        W 1810   1.748   6.899   3.401
  814W        W 1811   5.505   4.317   3.406
  815W        W 1812   6.440   5.899   1.510
  816W        W 1813   3.228   6.657   4.852
  817W        W 1814   5.602   3.644   1.092
  818W        W 1815   6.713   0.013   2.584
  819W        W 1816   4.042   1.359   1.834
  820W        W 1817   3.722   2.720   6.971
  821W        W 1818   2.892   3.365   1.306
  822W        W 1819   7.324   3.945   6.468
  823W        W 1820   3.660   1.432   0.986
  824W        W 1821   5.147   1.860   0.956
  825W        W 1822   4.202   1.706   0.956
  826W        W 1823   4.099   1.577   6.023
  827W        W 1824   6.615   3.394   2.751
  828W        W 1825   5.608   4.384   1.757
  829W        W 1826   0.071   2.964   5.541
  830W        W 1827   5.546   3.743   5.697
  831W        W 1828   5.001   6.705   5.004
  832W        W 1829   0.544   3.109   3.552
  833W        W 1830   2.968   0.844   7.006
  834W        W 1831   0.835   3.017   4.040
  835W        W 1832   3.485   0.550   4.924
  836W        W 1833   2.534   6.078   6.242
  837W        W 1834   2.636   3.328   6.520
  838W        W 1835   2.735   7.978   6.545
  839W        W 1836   6.776   0.141   5.631
  840W        W 1837   5.673   6.215   6.095
  841W        W 1838   6.672   2.292   4.691
  842W        W 1839   1.752   2.245   3.711
  843W        W 1840   3.621   5.142   7.294
  844W        W 1841   6.012   3.052   0.872
  845W        W 1842   6.209   3.194   6.782
  846W        W 1843   4.623   7.395   6.063
  847W        W 1844   5.755   7.103   1.339
  848W        W 1845   1.471   2.611   1.995
  849W        W 1846   5.418   2.369   1.104
  850W        W 1847   6.128   2.674   0.557
  851W        W 1848   4.000   1.360   0.607
  852W        W 1849   1.627   0.921   0.395
  853W        W 1850   0.280   2.879   3.192
  854W        W 1851   5.081   3.512   5.789
  855W        W 1852   6.726   2.791   2.280
  856W        W 1853   7.606   3.277   4.709
  857W        W 1854   4.016   3.132   6.917
  858W        W 1855   1.245   0.395   5.885
  859W        W 1856   1.956   1.380   6.583
  860W        W 1857   2.084   1.436   3.671
  861W        W 1858   3.427   3.429   0.678
  862W        W 1859   0.816   2.958   3.157
  863W        W 1860   4.880   4.293   6.131
  864W        W 1861   5.578   0.814   6.510
  865W        W 1862   6.744   3.686   2.355
  866W        W 1863   4.959   4.473   0.314
  867W        W 1864   6.551   6.761   1.680
  868W        W 1865   3.699   4.330   1.698
  869W        W 1866   0.564   5.192   6.102
  870W        W 1867   3.757   7.832   1.201
  871W        W 1868   2.134   7.296   0.675
  872W        W 1869   6.608   6.325   2.698
  873W        W 1870   3.876   1.784   6.455
  874W        W 1871   0.837   3.375   7.458
  875W        W 1872   1.341   0.676   1.861
  876W        W 1873   5.842   7.823   7.331
  877W        W 1874   4.551   0.612   5.702
  878W        W 1875   5.149   5.357   5.398
  879W        W 1876   3.595   4.722   2.075
  880W        W 1877   5.548   2.824   0.907
  881W        W 1878   5.319   2.422   0.251
  882W        W 1879   0.420   1.263   2.812
  883W        W 1880   6.189   4.391   2.656
  884W        W 1881   3.250   7.058   4.517
  885W        W 1882   2.925   7.187   7.020
  886W        W 1883   1.726   0.397   0.337
  887W        W 1884   2.912   6.896   6.440
  888W        W 1885   3.365   3.371   5.798
  889W        W 1886   6.101   4.418   0.894
  890W        W 1887   3.127   5.337   4.616
  891W        W 1888   6.810   6.643   5.991
  892W        W 1889   4.183   2.681   3.392
  893W        W 1890   2.921   6.164   4.143
  894W        W 1891   2.862   6.571   7.280
  895W        W 1892   1.802   1.279   5.042
  896W        W 1893   3.866   2.342   3.632
  897W        W 1894   2.068   0.335   1.364
  898W        W 1895   6.148   7.167   0.964
  899W        W 1896   4.850   3.126   1.333
  900W        W 1897   6.671   3.440   7.291
  901W        W 1898   7.766   6.655   5.998
  902W        W 1899   4.588   4.817   0.233
  903W        W 1900   4.633   3.286   5.902
  904W        W 1901   2.874   6.625   3.902
  905W        W 1902   6.258   1.782   0.518
  906W        W 1903   1.495   5.545   6.414
  907W        W 1904   2.052   3.458   2.855
  908W        W 1905   6.182   6.782   5.425
  909W        W 1906   3.903   5.929   7.081
  910W        W 1907   4.298   5.855   1.690
  911W        W 1908   0.152   4.360   3.392
  912W        W 1909   0.899   5.559   5.751
  913W        W 1910   1.507   2.673   5.849
  914W        W 1911   6.662   6.659   3.306
  915W        W 1912   5.807   4.037   6.048
  916W        W 1913   6.850   1.316   1.476
  917W        W 1914   0.333   3.743   5.624
  918W        W 1915   6.354   0.019   6.731
  919W        W 1916   5.108   7.097   4.674
  920W        W 1917   0.562   4.464   4.973
  921W        W 1918   0.249   4.478   5.575
  922W        W 1919   4.291   2.317   7.530
  923W        W 1920   4.099   4.888   2.934
  924W        W 1921   3.105   5.306   0.403
  925W        W 1922   3.758   0.570   2.243
  926W        W 1923   7.166   2.111   4.896
  927W        W 1924   2.633   1.656   3.862
  928W        W 1925   5.604   5.997   3.120
  929W        W 1926   4.691   5.782   1.167
  930W        W 1927   6.631   3.154   4.244
  931W        W 1928   0.711   3.229   1.719
  932W        W 1929   5.556   1.623   4.145
  933W        W 1930   6.450   6.438   3.714
  934W        W 1931   5.726   1.265   5.293
  935W        W 1932   3.736   3.515   2.989
  936W        W 1933   6.156   2.986   1.382
  937W        W 1934   7.950   4.531   6.425
  938W        W 1935   1.471   0.245   1.486
  939W        W 1936   7.009   7.183   4.110
  940W        W 1937   6.858   3.973   1.956
  941W        W 1938   2.921   2.469   3.457
  942W        W 1939   1.148   2.545   3.187
  943W        W 1940   2.814   4.763   5.277
  944W        W 1941   6.722   6.044   3.518
  945W        W 1942   0.517   3.122   1.247
  946W        W 1943   1.469   5.740   1.236
  947W        W 1944   4.254   0.107   1.266
  948W        W 1945   3.684   1.004   4.814
  949W        W 1946   3.918   5.423   7.594
  950W        W 1947   5.231   7.407   1.159
  951W        W 1948   3.316   1.633   3.337
  952W        W 1949   6.860   4.807   1.074
  953W        W 1950   6.088   5.634   2.358
  954W        W 1951   3.279   4.399   4.832
  955W        W 1952   2.990   2.935   6.530
  956W        W 1953   0.310   2.719   1.531
  957W        W 1954   5.249   3.228   1.039
  958W        W 1955   6.911   1.625   4.021
  959W        W 1956   5.759   1.115   0.845
  960W        W 1957   3.710   2.394   2.797
  961W        W 1958   2.711   5.060   3.857
  962W        W 1959   5.465   2.947   2.470
  963W        W 1960   6.241   6.287   4.155
  964W        W 1961   2.697   2.858   1.054
  965W        W 1962   2.838   4.047   2.910
  966W        W 1963   6.944   1.274   5.492
  967W        W 1964   5.454   0.467   6.869
  968W        W 1965   1.229   5.555   0.501
  969W        W 1966   4.415   7.235   5.621
  970W        W 1967   4.467   2.746   2.098
  971W        W 1968   2.321   6.035   1.663
  972W        W 1969   0.854   5.911   1.888
  973W        W 1970   4.478   2.860   5.491
  974W        W 1971   7.848   3.757   1.171
  975W        W 1972   2.265   4.667   6.081
  976W        W 1973   6.446   3.751   1.415
  977W        W 1974   7.231   6.214   5.986
  978W        W 1975   6.650   7.239   1.497
  979W        W 1976   4.641   4.285   3.391
  980W        W 1977   1.248   5.984   4.554
  981W        W 1978   6.155   6.775   3.976
  982W        W 1979   3.603   1.006   0.714
  983W        W 1980   3.254   5.005   5.295
  984W        W 1981   7.480   4.113   2.684
  985W        W 1982   1.929   1.120   2.376
  986W        W 1983   6.680   3.521   6.033
  987W        W 1984   4.606   6.636   0.504
  988W        W 1985   5.296   4.863   0.453
  989W        W 1986   5.942   6.242   7.423
  990W        W 1987   6.035   7.568   2.911
  991W        W 1988   1.173   4.622   3.180
  992W        W 1989   1.854   0.738   4.083
  993W        W 1990   5.087   6.085   4.524
  994W        W 1991   5.439   2.464   2.327
  995W        W 1992   5.188   4.045   0.477
  996W        W 1993   2.817   3.744   3.353
  997W        W 1994   3.773   0.408   6.667
  998W        W 1995   5.199   3.222   3.051
  999W        W 1996   5.986   4.791   2.980
 1000W        W 1997   5.649   5.506   3.880
 1001W        W 1998   7.815   5.755   6.369
 1002W        W 1999   5.238   4.030   1.018
 1003W        W 2000   0.675   1.564   0.698
 1004W        W 2001   7.037   0.708   4.862
 1005W        W 2002   7.531   2.203   4.304
 1006W        W 2003   3.870   5.938   6.046
 1007W        W 2004   2.597   4.753   6.477
 1008W        W 2005   1.284   5.720   4.990
 1009W        W 2006   4.822   4.854   3.452
 1010W        W 2007   3.227   6.396   5.597
 1011W        W 2008   1.721   3.541   5.533
 1012W        W 2009   1.791   3.093   4.767
 1013W        W 2010   6.442   2.818   0.999
 1014W        W 2011   2.065   4.787   6.770
 1015W        W 2012   4.982   4.424   1.219
 1016W        W 2013   3.892   2.693   0.315
 1017W        W 2014   7.615   3.134   1.854
 1018W        W 2015   5.177   2.278   3.503
 1019W        W 2016   2.281   3.065   6.180
 1020W        W 2017   6.561   0.514   3.908
 1021W        W 2018   7.997   2.949   7.184
 1022W        W 2019   6.844   4.217   5.223
 1023W        W 2020   2.427   5.145   6.742
 1024W        W 2021   2.868   4.037   4.635
 1025W        W 2022   0.302   1.378   4.217
 1026W        W 2023   1.227   3.438   1.666
 1027W        W 2024   3.608   5.169   2.371
 1028W        W 2025   3.764   1.497   3.166
 1029W        W 2026   1.749   3.357   2.473
 1030W        W 2027   4.242   7.650   3.181
 1031W        W 2028   6.805   5.701   3.891
 1032W        W 2029   5.104   5.993   6.893
 1033W        W 2030   2.768   0.636   0.965
 1034W        W 2031   4.732   0.727   7.405
 1035W        W 2032   0.957   4.057   7.605
 1036W        W 2033   1.243   4.195   6.662
 1037W        W 2034   4.515   0.432   1.589
 1038W        W 2035   2.520   6.371   7.610
 1039W        W 2036   5.335   5.254   0.152
 1040W        W 2037   3.689   5.250   1.880
 1041W        W 2038   5.336   2.418   6.432
 1042W        W 2039   4.792   1.769   0.600
 1043W        W 2040   1.769   6.346   0.208
 1044W        W 2041   3.004   6.263   6.919
 1045W        W 2042   4.905   6.136   5.004
 1046W        W 2043   0.979   2.755   5.767
 1047W        W 2044   2.803   7.688   6.129
 1048W        W 2045   2.054   0.350   0.779
 1049W        W 2046   0.864   6.838   6.717
 1050W        W 2047   1.802   1.932   2.066
 1051W        W 2048   1.522   1.943   2.476
 1052W        W 2049   5.854   1.707   2.508
 1053W        W 2050   5.386   1.961   0.511
 1054W        W 2051   2.837   4.850   1.531
 1055W        W 2052   2.241   0.765   2.155
 1056W        W 2053   6.113   7.456   5.182
 1057W        W 2054   4.882   4.680   2.682
 1058W        W 2055   1.109   3.804   3.623
 1059W        W 2056   5.106   6.475   6.738
 1060W        W 2057   5.954   1.621   6.171
 1061W        W 2058   1.612   2.700   6.441
 1062W        W 2059   0.320   4.029   4.809
 1063W        W 2060   5.647   3.824   3.311
 1064W        W 2061   0.642   1.421   5.549
 1065W        W 2062   0.632   4.573   3.224
 1066W        W 2063   3.850   3.360   5.945
 1067W        W 2064   5.232   6.248   1.641
 1068W        W 2065   4.138   1.847   6.906
 1069W        W 2066   0.471   3.388   3.949
 1070W        W 2067   0.719   3.819   3.081
 1071W        W 2068   4.997   6.400   5.415
 1072W        W 2069   1.495   4.383   4.764
 1073W        W 2070   0.999   1.462   5.909
 1074W        W 2071   5.365   4.802   3.471
 1075W        W 2072   5.080   0.144   5.071
 1076W        W 2073   1.336   4.681   0.092
 1077W        W 2074   4.705   0.471   5.233
 1078W        W 2075   6.445   3.679   1.919
 1079W        W 2076   3.438   2.282   4.058
 1080W        W 2077   4.923   2.237   1.187
 1081W        W 2078   0.672   0.271   1.074
 1082W        W 2079   1.364   2.808   1.484
 1083W        W 2080   1.447   5.026   1.782
 1084W        W 2081   0.893   4.978   1.134
 1085W        W 2082   2.486   5.130   5.322
 1086W        W 2083   3.528   7.571   2.775
 1087W        W 2084   5.678   2.184   4.262
 1088W        W 2085   1.462   3.272   6.467
 1089W        W 2086   2.959   3.600   0.388
 1090W        W 2087   0.118   0.524   4.635
 1091W        W 2088   0.771   3.667   5.373
 1092W        W 2089   6.085   1.728   1.012
 1093W        W 2090   4.634   1.308   1.394
 1094W        W 2091   7.026   0.618   5.744
 1095W        W 2092   2.215   1.381   5.358
 1096W        W 2093   7.186   0.798   3.558
 1097W        W 2094   4.875   5.872   2.467
 1098W        W 2095   7.931   7.296   6.553
 1099W        W 2096   1.051   5.961   7.291
 1100W        W 2097   6.825   3.741   5.597
 1101W        W 2098   6.887   0.348   3.565
 1102W        W 2099   0.624   1.390   3.617
 1103W        W 2100   5.996   4.968   7.542
 1104W        W 2101   1.441   2.219   2.899
 1105W        W 2102   3.320   5.060   7.956
 1106W        W 2103   5.371   6.321   5.065
 1107W        W 2104   1.152   5.600   3.326
 1108W        W 2105   5.873   4.241   5.184
 1109W        W 2106   5.945   7.604   3.429
 1110W        W 2107   3.654   0.859   5.320
 1111W        W 2108   2.567   1.179   7.182
 1112W        W 2109   6.163   3.578   7.182
 1113W        W 2110   4.725   3.354   3.096
 1114W        W 2111   7.880   2.429   5.097
 1115W        W 2112   7.252   7.212   6.357
 1116W        W 2113   2.276   0.754   1.099
 1117W        W 2114   0.266   6.445   1.719
 1118W        W 2115   5.859   2.673   4.185
 1119W        W 2116   3.762   1.161   7.286
 1120W        W 2117   3.873   0.466   2.904
 1121W        W 2118   6.079   4.546   3.954
 1122W        W 2119   1.906   5.611   7.316
 1123W        W 2120   3.821   4.597   0.647
 1124W        W 2121   5.418   1.100   2.584
 1125W        W 2122   6.411   2.554   7.327
 1126W        W 2123   3.225   6.153   2.251
 1127W        W 2124   1.787   6.856   0.163
 1128W        W 2125   4.105   5.497   0.390
 1129W        W 2126   6.283   2.269   0.255
 1130W        W 2127   3.392   6.430   7.205
 1131W        W 2128   4.835   3.788   6.123
 1132W        W 2129   3.289   1.356   5.872
 1133W        W 2130   4.308   7.119   4.010
 1134W        W 2131   4.750   6.459   4.635
 1135W        W 2132   7.719   1.253   2.105
 1136W        W 2133   1.025   2.921   7.657
 1137W        W 2134   2.754   2.913   6.095
 1138W        W 2135   0.239   3.027   6.236
 1139W        W 2136   4.038   2.082   5.281
 1140W        W 2137   4.227   2.647   6.861
 1141W        W 2138   4.025   2.805   2.393
 1142W        W 2139   5.009   1.506   5.308
 1143W        W 2140   2.288   3.022   4.853
 1144W        W 2141   3.453   4.567   6.503
 1145W        W 2142   2.458   2.096   4.071
 1146W        W 2143   5.140   2.666   7.265
 1147W        W 2144   6.888   5.647   5.229
 1148W        W 2145   3.540   6.052   3.204
 1149W        W 2146   4.951   5.273   6.284
 1150W        W 2147   6.998   6.158   5.139
 1151W        W 2148   5.851   2.016   0.359
 1152W        W 2149   0.817   6.566   4.198
 1153W        W 2150   7.244   2.937   4.648
 1154W        W 2151   5.248   0.576   3.227
 1155W        W 2152   2.107   6.780   0.909
 1156W        W 2153   3.472   1.346   5.380
 1157W        W 2154   7.008   3.281   5.483
 1158W        W 2155   1.552   4.821   5.000
 1159W        W 2156   5.776   4.262   2.334
 1160W        W 2157   0.825   0.904   3.550
 1161W        W 2158   1.173   2.317   5.944
 1162W        W 2159   3.564   5.173   3.742
 1163W        W 2160   1.582   5.981   6.704
 1164W        W 2161   0.943   5.654   4.303
 1165W        W 2162   2.417   3.999   1.952
 1166W        W 2163   5.967   4.799   5.729
 1167W        W 2164   4.394   1.590   3.542
 1168W        W 2165   6.755   2.827   4.623
 1169W        W 2166   0.133   3.959   4.333
 1170W        W 2167   4.628   3.612   5.501
 1171W        W 2168   3.010   3.019   5.660
 1172W        W 2169   2.737   0.935   4.374
 1173W        W 2170   5.712   4.349   5.664
 1174W        W 2171   2.884   6.246   4.660
 1175W        W 2172   0.859   4.002   4.966
 1176W        W 2173   0.516   1.804   5.858
 1177W        W 2174   3.872   3.109   3.258
 1178W        W 2175   1.140   6.141   3.279
 1179W        W 2176   3.747   6.356   5.640
 1180W        W 2177   5.569   4.922   7.239
 1181W        W 2178   1.580   1.692   4.755
 1182W        W 2179   4.462   2.151   1.361
 1183W        W 2180   1.215   1.228   4.427
 1184W        W 2181   6.403   6.014   1.011
 1185W        W 2182   4.098   0.902   0.833
 1186W        W 2183   5.447   6.645   5.859
 1187W        W 2184   1.112   6.858   1.968
 1188W        W 2185   1.926   6.941   7.463
 1189W        W 2186   1.264   6.346   7.572
 1190W        W 2187   1.281   4.725   6.552
 1191W        W 2188   4.391   0.460   0.910
 1192W        W 2189   6.317   5.146   6.767
 1193W        W 2190   4.363   4.073   2.974
 1194W        W 2191   6.708   4.555   6.069
 1195W        W 2192   6.906   6.001   2.196
 1196W        W 2193   4.557   4.099   5.343
 1197W        W 2194   6.620   3.188   6.447
 1198W        W 2195   5.557   5.156   7.709
 1199W        W 2196   1.476   3.107   0.488
 1200W        W 2197   6.198   2.834   6.396
 1201W        W 2198   1.721   7.008   0.650
 1202W        W 2199   2.816   6.680   1.017
 1203W        W 2200   3.821   5.025   4.155
 1204W        W 2201   5.844   5.510   1.923
 1205W        W 2202   1.743   2.445   2.513
 1206W        W 2203   2.744   6.109   2.117
 1207W        W 2204   2.406   7.392   1.092
 1208W        W 2205   6.283   2.872   3.974
 1209W        W 2206   2.249   3.623   1.629
 1210W        W 2207   7.949   1.157   3.064
 1211W        W 2208   1.316   7.541   6.140
 1212W        W 2209   5.819   5.634   6.785
 1213W        W 2210   2.219   3.919   7.577
 1214W        W 2211   2.612   4.889   5.799
 1215W        W 2212   5.155   3.591   3.410
 1216W        W 2213   3.608   0.436   1.790
 1217W        W 2214   4.490   4.590   5.194
 1218W        W 2215   6.658   0.052   2.078
 1219W        W 2216   5.112   6.340   2.460
 1220W        W 2217   2.575   3.822   0.644
 1221W        W 2218   6.496   0.542   6.627
 1222W        W 2219   4.142   5.883   4.476
 1223W        W 2220   4.516   2.237   6.938
 1224W        W 2221   3.681   2.640   3.232
 1225W        W 2222   0.894   5.004   3.372
 1226W        W 2223   4.573   2.257   2.237
 1227W        W 2224   5.670   2.648   1.461
 1228W        W 2225   3.667   2.580   6.161
 1229W        W 2226   1.750   6.734   4.418
 1230W        W 2227   6.148   1.289   2.328
 1231W        W 2228   0.388   5.824   5.266
 1232W        W 2229   4.678   2.606   0.854
 1233W        W 2230   0.126   3.965   3.743
 1234W        W 2231   2.541   1.399   4.493
 1235W        W 2232   6.044   3.470   3.339
 1236W        W 2233   3.827   5.066   0.800
 1237W        W 2234   5.223   0.834   7.163
 1238W        W 2235   4.773   1.891   6.643
 1239W        W 2236   0.061   5.659   5.927
 1240W        W 2237   1.707   3.783   7.471
 1241W        W 2238   4.877   6.393   2.000
 1242W        W 2239   1.407   3.165   7.970
 1243W        W 2240   5.682   6.335   0.205
 1244W        W 2241   1.909   4.648   4.669
 1245W        W 2242   3.647   1.300   1.497
 1246W        W 2243   1.968   7.039   2.118
 1247W        W 2244   3.183   2.814   6.987
 1248W        W 2245   3.643   4.291   5.682
 1249W        W 2246   6.663   4.199   5.706
 1250W        W 2247   6.347   0.143   1.051
 1251W        W 2248   3.551   2.586   2.342
 1252W        W 2249   1.445   2.430   6.868
 1253W        W 2250   0.613   6.559   2.541
 1254W        W 2251   5.847   2.603   2.591
 1255W        W 2252   6.504   4.189   2.253
 1256W        W 2253   1.979   3.961   3.247
 1257W        W 2254   3.189   7.716   6.552
 1258W        W 2255   3.692   3.484   6.758
 1259W        W 2256   4.115   1.133   6.277
 1260W        W 2257   3.248   4.776   3.032
 1261W        W 2258   5.251   5.223   5.885
 1262W        W 2259   0.952   0.121   5.532
 1263W        W 2260   3.307   2.163   2.601
 1264W        W 2261   4.148   5.483   5.430
 1265W        W 2262   2.473   6.455   1.894
 1266W        W 2263   5.021   2.289   2.597
 1267W        W 2264   5.755   4.433   7.253
 1268W        W 2265   5.127   6.869   4.216
 1269W        W 2266   1.104   3.963   6.147
 1270W        W 2267   1.016   7.349   6.583
 1271W        W 2268   4.099   5.304   4.941
 1272W        W 2269   1.940   0.952   5.406
 1273W        W 2270   1.281   6.336   0.083
 1274W        W 2271   5.616   6.987   3.976
 1275W        W 2272   1.120   3.049   2.768
 1276W        W 2273   3.716   4.052   4.789
 1277W        W 2274   1.590   3.105   1.834
 1278W        W 2275   3.722   2.057   7.849
 1279W        W 2276   0.703   5.449   3.539
 1280W        W 2277   0.485   0.857   1.805
 1281W        W 2278   1.894   7.526   1.989
 1282W        W 2279   1.689   0.844   5.844
 1283W        W 2280   2.971   6.158   0.030
 1284W        W 2281   5.667   7.622   2.543
 1285W        W 2282   4.438   0.322   3.440
 1286W        W 2283   1.065   5.007   3.844
 1287W        W 2284   6.852   5.083   5.982
 1288W        W 2285   2.744   1.995   5.701
 1289W        W 2286   1.750   0.607   2.301
 1290W        W 2287   4.733   5.381   4.162
 1291W        W 2288   4.341   6.590   3.898
 1292W        W 2289   6.133   2.122   1.813
 1293W        W 2290   3.223   2.318   7.064
 1294W        W 2291   6.415   3.903   2.667
 1295W        W 2292   4.952   1.556   6.239
 1296W        W 2293   4.937   7.305   2.954
 1297W        W 2294   0.262   1.583   5.254
 1298W        W 2295   4.149   0.362   2.460
 1299W        W 2296   4.753   7.973   6.794
 1300W        W 2297   5.267   1.029   0.710
 1301W        W 2298   3.173   1.807   7.047
 1302W        W 2299   5.819   0.873   6.980
 1303W        W 2300   2.529   3.382   3.555
 1304W        W 2301   5.943   0.908   4.407
 1305W        W 2302   6.323   0.181   5.830
 1306W        W 2303   5.153   5.591   3.944
 1307W        W 2304   5.791   5.117   3.543
 1308W        W 2305   5.944   3.568   5.997
 1309W        W 2306   7.131   1.969   6.867
 1310W        W 2307   1.061   5.119   4.335
 1311W        W 2308   4.820   4.824   0.715
 1312W        W 2309   4.044   7.626   1.935
 1313W        W 2310   6.956   7.781   5.290
 1314W        W 2311   1.608   2.453   1.210
 1315W        W 2312   5.049   0.201   5.591
 1316W        W 2313   1.472   3.931   5.321
 1317W        W 2314   2.879   6.586   2.199
 1318W        W 2315   2.805   1.648   6.505
 1319W        W 2316   1.914   3.870   1.968
 1320W        W 2317   1.111   6.585   7.130
 1321W        W 2318   4.004   2.835   0.807
 1322W        W 2319   4.539   1.810   6.124
 1323W        W 2320   3.196   5.300   7.023
 1324W        W 2321   5.465   0.958   5.882
 1325W        W 2322   3.928   5.856   2.685
 1326W        W 2323   2.220   6.184   3.405
 1327W        W 2324   3.840   6.271   4.481
 1328W        W 2325   2.223   6.568   6.526
 1329W        W 2326   0.577   7.777   5.785
 1330W        W 2327   6.037   6.896   0.533
 1331W        W 2328   6.686   4.556   2.561
 1332W        W 2329   5.759   6.310   1.688
 1333W        W 2330   3.526   2.590   7.417
 1334W        W 2331   6.132   5.450   3.708
 1335W        W 2332   2.666   5.619   5.387
 1336W        W 2333   5.306   4.414   2.564
 1337W        W 2334   3.288   5.714   0.154
 1338W        W 2335   7.053   2.585   4.961
 1339W        W 2336   5.581   6.400   6.556
 1340W        W 2337   2.034   7.325   6.596
 1341W        W 2338   0.558   1.222   1.466
 1342W        W 2339   4.508   5.222   0.505
 1343W        W 2340   6.084   0.916   3.077
 1344W        W 2341   4.961   4.386   5.290
 1345W        W 2342   6.916   5.532   2.854
 1346W        W 2343   3.871   6.441   7.028
 1347W        W 2344   2.368   5.969   1.165
 1348W        W 2345   7.508   2.652   1.852
 1349W        W 2346   1.355   5.471   4.548
 1350W        W 2347   5.588   4.925   6.343
 1351W        W 2348   3.991   5.972   5.422
 1352W        W 2349   7.379   7.075   6.850
 1353W        W 2350   4.082   6.615   1.262
 1354W        W 2351   6.609   4.888   7.147
 1355W        W 2352   7.118   6.682   7.094
 1356W        W 2353   2.542   2.826   5.271
 1357W        W 2354   0.048   4.426   4.695
 1358W        W 2355   0.895   5.921   3.660
 1359W        W 2356   1.420   4.894   3.508
 1360W        W 2357   6.306   6.562   7.661
 1361W        W 2358   1.076   3.924   2.746
 1362W        W 2359   5.848   4.083   0.092
 1363W        W 2360   3.678   3.830   7.626
 1364W        W 2361   1.359   3.087   2.299
 1365W        W 2362   1.939   1.212   7.423
 1366W        W 2363   2.818   4.583   4.033
 1367W        W 2364   4.417   1.883   3.130
 1368W        W 2365   1.672   0.848   7.682
 1369W        W 2366   5.890   4.693   2.072
 1370W        W 2367   5.397   7.272   5.637
 1371W        W 2368   3.431   6.004   5.840
 1372W        W 2369   1.993   6.429   7.356
 1373W        W 2370   5.698   3.156   1.242
 1374W        W 2371   3.318   2.954   6.123
 1375W        W 2372   6.489   4.856   7.656
 1376W        W 2373   5.577   1.136   1.329
 1377W        W 2374   3.961   2.528   5.054
 1378W        W 2375   0.171   3.217   1.685
 1379W        W 2376   0.922   7.254   3.627
 1380W        W 2377   5.908   3.086   2.772
 1381W        W 2378   6.548   3.941   7.222
 1382W        W 2379   4.278   2.551   6.300
 1383W        W 2380   4.169   0.682   6.500
 1384W        W 2381   6.821   0.346   1.208
 1385W        W 2382   3.426   2.055   3.577
 1386W        W 2383   7.589   6.575   6.867
 1387W        W 2384   5.661   1.420   5.788
 1388W        W 2385   3.540   7.939   6.256
 1389W        W 2386   5.006   1.033   4.553
 1390W        W 2387   0.863   4.266   2.134
 1391W        W 2388   1.911   4.263   6.178
 1392W        W 2389   4.034   2.237   3.150
 1393W        W 2390   3.346   0.309   4.467
 1394W        W 2391   6.476   0.050   4.067
 1395W        W 2392   1.209   3.699   7.337
 1396W        W 2393   2.911   5.299   1.270
 1397W        W 2394   5.941   6.387   3.736
 1398W        W 2395   2.208   1.217   1.895
 1399W        W 2396   2.137   3.946   4.093
 1400W        W 2397   0.331   1.966   6.321
 1401W        W 2398   1.739   3.072   6.109
 1402W        W 2399   6.674   5.203   3.160
 1403W        W 2400   5.046   1.812   2.802
 1404W        W 2401   1.659   1.628   0.873
 1405W        W 2402   3.215   5.362   2.662
 1406W        W 2403   7.140   4.806   6.300
 1407W        W 2404   5.055   2.322   6.892
 1408W        W 2405   0.657   6.385   6.932
 1409W        W 2406   1.838   6.016   5.700
 1410W        W 2407   0.645   1.604   2.463
 1411W        W 2408   0.168   3.724   2.260
 1412W        W 2409   1.018   7.042   4.101
 1413W        W 2410   1.367   0.644   0.043
 1414W        W 2411   1.022   4.289   4.580
 1415W        W 2412   5.514   0.146   5.321
 1416W        W 2413   2.509   4.208   3.265
 1417W        W 2414   5.766   0.060   2.816
 1418W        W 2415   5.616   3.296   0.684
 1419W        W 2416   1.144   2.925   5.326
 1420W        W 2417   3.635   0.836   2.642
 1421W        W 2418   3.567   0.301   3.554
 1422W        W 2419   5.104   4.069   3.300
 1423W        W 2420   1.491   1.180   5.439
 1424W        W 2421   5.719   2.061   6.348
 1425W        W 2422   6.754   4.028   3.388
 1426W        W 2423   2.094   5.572   2.371
 1427W        W 2424   4.681   1.215   7.909
 1428W        W 2425   3.043   0.383   1.333
 1429W        W 2426   7.106   7.005   5.691
 1430W        W 2427   7.728   7.181   6.068
 1431W        W 2428   4.384   7.386   2.301
 1432W        W 2429   5.923   6.485   5.750
 1433W        W 2430   4.469   5.431   6.421
 1434W        W 2431   4.701   5.270   0.967
 1435W        W 2432   4.630   1.497   6.944
 1436W        W 2433   7.578   2.895   6.849
 1437W        W 2434   0.663   0.552   4.706
 1438W        W 2435   4.825   6.008   5.681
 1439W        W 2436   2.553   4.208   4.227
 1440W        W 2437   2.813   5.863   0.426
 1441W        W 2438   6.266   2.562   2.298
 1442W        W 2439   5.506   6.698   0.574
 1443W        W 2440   0.796   5.042   5.660
 1444W        W 2441   4.713   6.169   6.583
 1445W        W 2442   5.572   5.598   5.653
 1446W        W 2443   6.677   1.973   6.657
 1447W        W 2444   6.873   0.386   6.938
 1448W        W 2445   3.516   2.870   0.659
 1449W        W 2446   7.118   3.820   6.011
 1450W        W 2447   7.183   6.218   6.817
 1451W        W 2448   1.143   2.015   6.627
 1452W        W 2449   1.843   1.681   6.137
 1453W        W 2450   2.279   1.256   2.741
 1454W        W 2451   1.628   7.186   7.796
 1455W        W 2452   7.083   7.031   1.673
 1456W        W 2453   5.724   5.850   0.406
 1457W        W 2454   7.472   4.594   2.939
 1458W        W 2455   1.286   6.878   1.447
 1459W        W 2456   2.544   3.719   1.139
 1460W        W 2457   1.742   3.259   3.746
 1461W        W 2458   4.563   7.613   4.066
 1462W        W 2459   7.178   1.707   1.575
 1463W        W 2460   7.474   2.461   1.357
 1464W        W 2461   7.645   3.619   1.977
 1465W        W 2462   1.943   1.625   2.507
 1466W        W 2463   4.214   1.979   7.963
 1467W        W 2464   4.373   5.679   2.510
 1468W        W 2465   3.717   5.205   5.302
 1469W        W 2466   1.075   4.646   0.517
 1470W        W 2467   0.798   1.150   1.025
 1471W        W 2468   7.284   2.025   2.259
 1472W        W 2469   2.682   4.382   6.144
 1473W        W 2470   3.705   1.632   7.105
 1474W        W 2471   6.231   1.780   3.470
 1475W        W 2472   4.043   5.029   3.678
 1476W        W 2473   6.048   0.507   2.744
 1477W        W 2474   5.814   0.391   2.275
 1478W        W 2475   0.863   0.617   6.129
 1479W        W 2476   3.473   3.073   3.578
 1480W        W 2477   5.450   5.402   6.347
 1481W        W 2478   0.969   6.155   2.761
 1482W        W 2479   0.748   5.841   3.148
 1483W        W 2480   3.434   4.940   4.474
 1484W        W 2481   3.224   0.769   6.564
 1485W        W 2482   3.152   4.922   2.395
 1486W        W 2483   6.525   1.531   1.147
 1487W        W 2484   7.014   7.703   4.751
 1488W        W 2485   2.232   2.648   2.457
 1489W        W 2486   6.075   0.458   1.810
 1490W        W 2487   5.063   2.639   3.837
 1491W        W 2488   7.292   3.735   3.952
 1492W        W 2489   3.585   2.364   0.631
 1493W        W 2490   2.343   0.392   6.515
 1494W        W 2491   7.152   3.101   6.405
 1495W        W 2492   0.818   4.714   2.391
 1496W        W 2493   1.084   1.164   7.150
 1497W        W 2494   6.703   5.425   6.903
 1498W        W 2495   7.434   2.893   5.962
 1499W        W 2496   7.545   5.687   5.941
 1500W        W 2497   7.887   6.711   1.948
 1501W        W 2498   6.584   7.568   4.985
 1502W        W 2499   3.528   4.216   2.156
 1503W        W 2500   7.550   1.700   1.902
 1504W        W 2501   1.012   7.567   4.037
 1505W        W 2502   1.498   5.243   4.084
 1506W        W 2503   1.751   1.431   2.039
 1507W        W 2504   4.743   2.744   6.900
 1508W        W 2505   0.490   4.092   5.299
 1509W        W 2506   7.244   0.409   4.508
 1510W        W 2507   0.881   6.518   5.396
 1511W        W 2508   1.608   0.784   1.430
 1512W        W 2509   1.364   3.235   7.456
 1513W        W 2510   5.286   3.674   6.825
 1514W        W 2511   5.543   7.572   3.068
 1515W        W 2512   2.145   4.895   2.889
 1516W        W 2513   7.634   4.495   5.005
 1517W        W 2514   6.365   3.107   3.093
 1518W        W 2515   5.353   5.830   4.876
 1519W        W 2516   1.398   4.358   4.259
 1520W        W 2517   5.430   2.212   5.937
 1521W        W 2518   0.590   1.442   6.230
 1522W        W 2519   0.282   2.493   6.297
 1523W        W 2520   4.808   7.721   2.338
 1524W        W 2521   3.104   2.721   5.261
 1525W        W 2522   5.281   6.172   5.789
 1526W        W 2523   2.879   3.518   5.697
 1527W        W 2524   5.525   4.640   7.675
 1528W        W 2525   5.463   3.986   1.475
 1529W        W 2526   6.090   4.908   1.024
 1530W        W 2527   3.262   1.849   5.021
 1531W        W 2528   2.199   4.850   3.409
 1532W        W 2529   1.537   0.868   2.692
 1533W        W 2530   6.013   3.923   5.573
 1534W        W 2531   6.515   1.031   6.409
 1535W        W 2532   5.057   4.436   3.675
 1536W        W 2533   6.712   0.761   2.292
 1537W        W 2534   0.908   4.551   6.867
 1538W        W 2535   1.823   0.199   7.099
 1539W        W 2536   1.697   4.883   5.464
 1540W        W 2537   5.570   2.868   0.405
 1541W        W 2538   4.509   5.174   5.226
 1542W        W 2539   2.036   6.527   2.140
 1543W        W 2540   0.858   1.371   4.066
 1544W        W 2541   7.252   7.454   2.275
 1545W        W 2542   5.309   5.515   6.817
 1546W        W 2543   2.299   2.539   0.933
 1547W        W 2544   2.948   5.423   4.155
 1548W        W 2545   5.860   2.410   5.666
 1549W        W 2546   0.802   4.452   1.247
 1550W        W 2547   2.567   4.944   4.850
 1551W        W 2548   2.185   6.711   7.854
 1552W        W 2549   6.299   4.888   2.527
 1553W        W 2550   3.147   3.376   6.733
 1554W        W 2551   2.086   0.777   2.702
 1555W        W 2552   2.357   2.366   5.389
 1556W        W 2553   6.093   7.574   7.740
 1557W        W 2554   2.772   5.520   6.824
 1558W        W 2555   5.574   5.768   2.278
 1559W        W 2556   2.409   2.860   4.339
 1560W        W 2557   0.296   6.621   3.545
 1561W        W 2558   3.787   7.871   3.721
 1562W        W 2559   3.386   6.605   3.861
 1563W        W 2560   2.809   1.902   5.221
 1564W        W 2561   1.012   7.957   6.040
 1565W        W 2562   2.237   2.043   2.292
 1566W        W 2563   4.385   1.592   7.691
 1567W        W 2564   4.487   4.557   7.434
 1568W        W 2565   1.688   6.565   7.747
 1569W        W 2566   4.262   3.635   5.981
 1570W        W 2567   7.371   1.600   1.123
 1571W        W 2568   3.759   4.601   0.124
 1572W        W 2569   5.845   0.865   4.907
 1573W        W 2570   4.837   5.222   0.102
 1574W        W 2571   5.257   3.402   2.550
 1575W        W 2572   6.643   2.403   1.183
 1576W        W 2573   1.179   2.464   6.438
 1577W        W 2574   4.159   4.669   4.020
 1578W        W 2575   5.530   2.956   3.906
 1579W        W 2576   6.753   4.777   3.445
 1580W        W 2577   6.974   3.875   6.876
 1581W        W 2578   2.038   5.393   2.914
 1582W        W 2579   1.674   4.153   0.938
 1583W        W 2580   4.070   2.760   2.904
 1584W        W 2581   4.493   6.435   5.630
 1585W        W 2582   3.707   3.172   1.046
 1586W        W 2583   2.758   3.111   6.976
 1587W        W 2584   1.708   1.046   3.678
 1588W        W 2585   2.598   3.898   0.128
 1589W        W 2586   1.277   2.892   6.747
 1590W        W 2587   5.094   2.811   4.657
 1591W        W 2588   3.667   0.942   4.308
 1592W        W 2589   1.729   0.944   6.547
 1593W        W 2590   2.592   5.811   4.297
 1594W        W 2591   1.012   4.110   5.439
 1595W        W 2592   6.832   3.109   3.327
 1596W        W 2593   1.117   1.684   3.709
 1597W        W 2594   5.111   0.973   1.186
 1598W        W 2595   5.698   0.895   3.548
 1599W        W 2596   1.396   0.652   5.467
 1600W        W 2597   6.075   6.011   5.778
 1601W        W 2598   5.846   0.872   2.433
 1602W        W 2599   5.322   6.668   1.911
 1603W        W 2600   2.175   2.575   3.434
 1604W        W 2601   4.325   2.546   3.849
 1605W        W 2602   2.830   1.567   5.994
 1606W        W 2603   4.771   0.979   6.973
 1607W        W 2604   2.840   4.962   4.381
 1608W        W 2605   5.582   6.132   4.526
 1609W        W 2606   7.344   3.817   1.172
 1610W        W 2607   1.738   7.621   0.685
 1611W        W 2608   2.296   1.677   6.393
 1612W        W 2609   6.628   4.344   0.989
 1613W        W 2610   3.231   3.805   6.057
 1614W        W 2611   7.883   2.885   2.812
 1615W        W 2612   0.866   2.293   4.785
 1616W        W 2613   2.602   6.099   5.237
 1617W        W 2614   5.164   7.719   2.736
 1618W        W 2615   4.178   4.983   7.376
 1619W        W 2616   1.895   5.540   3.899
 1620W        W 2617   6.262   7.603   4.196
 1621W        W 2618   0.572   2.566   1.104
 1622W        W 2619   4.287   5.034   6.090
 1623W        W 2620   6.647   2.598   4.198
 1624W        W 2621   7.132   4.220   3.051
 1625W        W 2622   2.503   2.070   6.669
 1626W        W 2623   0.693   3.785   2.303
 1627W        W 2624   5.386   4.077   5.335
 1628W        W 2625   7.662   0.756   1.203
 1629W        W 2626   3.987   0.114   3.289
 1630W        W 2627   5.606   6.058   6.973
 1631W        W 2628   4.526   4.624   3.048
 1632W        W 2629   2.911   5.238   5.589
 1633W        W 2630   0.530   2.956   7.462
 1634W        W 2631   2.861   5.041   2.815
 1635W        W 2632   2.040   3.156   1.564
 1636W        W 2633   5.849   1.129   6.179
 1637W        W 2634   7.281   6.775   6.105
 1638W        W 2635   4.205   6.254   2.494
 1639W        W 2636   4.178   2.341   2.617
 1640W        W 2637   0.977   0.393   1.613
 1641W        W 2638   4.990   4.791   6.081
 1642W        W 2639   5.173   2.507   1.549
 1643W        W 2640   1.490   7.968   7.430
 1644W        W 2641   4.123   6.046   0.854
 1645W        W 2642   0.946   3.214   6.576
 1646W        W 2643   3.191   3.972   5.064
 1647W        W 2644   0.914   6.379   4.650
 1648W        W 2645   3.751   6.331   0.424
 1649W        W 2646   5.164   0.536   0.780
 1650W        W 2647   2.593   3.779   7.245
 1651W        W 2648   2.313   4.215   5.833
 1652W        W 2649   4.046   4.137   5.984
 1653W        W 2650   4.681   1.742   1.125
 1654W        W 2651   3.208   1.746   3.934
 1655W        W 2652   1.554   0.663   4.516
 1656W        W 2653   1.419   3.933   1.762
 1657W        W 2654   1.390   3.169   5.728
 1658W        W 2655   0.831   0.578   2.074
 1659W        W 2656   2.268   4.781   3.922
 1660W        W 2657   6.430   3.234   3.617
 1661W        W 2658   4.207   3.277   4.717
 1662W        W 2659   5.220   3.619   0.740
 1663W        W 2660   2.054   5.921   4.298
 1664W        W 2661   4.041   3.052   1.918
 1665W        W 2662   3.422   7.123   4.992
 1666W        W 2663   4.503   4.603   1.147
 1667W        W 2664   1.099   6.850   4.577
 1668W        W 2665   0.655   2.377   1.742
 1669W        W 2666   2.183   6.658   0.411
 1670W        W 2667   1.697   4.005   4.440
 1671W        W 2668   1.023   3.563   4.734
 1672W        W 2669   5.905   4.301   3.084
 1673W        W 2670   4.051   4.241   6.497
 1674W        W 2671   6.550   1.028   1.089
 1675W        W 2672   4.725   1.285   0.435
 1676W        W 2673   0.671   6.076   2.347
 1677W        W 2674   4.827   5.335   6.786
 1678W        W 2675   4.734   1.195   6.522
 1679W        W 2676   6.768   7.636   4.047
 1680W        W 2677   5.843   7.491   5.615
 1681W        W 2678   3.991   4.404   2.157
 1682W        W 2679   5.529   0.535   2.711
 1683W        W 2680   5.869   2.132   2.813
 1684W        W 2681   5.841   1.971   5.315
 1685W        W 2682   3.906   1.003   3.070
 1686W        W 2683   7.570   6.087   5.621
 1687W        W 2684   1.799   0.924   1.915
 1688W        W 2685   4.829   3.995   0.095
 1689W        W 2686   0.812   7.271   7.046
 1690W        W 2687   2.389   5.336   1.024
 1691W        W 2688   1.851   7.981   1.079
 1692W        W 2689   4.607   5.950   4.645
 1693W        W 2690   1.439   1.289   7.493
 1694W        W 2691   5.818   3.236   7.331
 1695W        W 2692   4.043   3.329   6.429
 1696W        W 2693   2.460   6.440   1.344
 1697W        W 2694   5.056   1.992   0.137
 1698W        W 2695   6.896   6.081   1.335
 1699W        W 2696   3.882   1.338   6.722
 1700W        W 2697   4.459   4.560   4.418
 1701W        W 2698   6.635   6.865   2.463
 1702W        W 2699   3.236   2.532   0.982
 1703W        W 2700   3.075   6.214   3.668
 1704W        W 2701   3.421   3.739   7.104
 1705W        W 2702   4.128   2.979   7.930
 1706W        W 2703   4.576   6.596   6.846
 1707W        W 2704   3.952   6.645   2.235
 1708W        W 2705   7.359   4.361   1.812
 1709W        W 2706   1.643   1.429   7.008
 1710W        W 2707   1.076   4.567   7.386
 1711W        W 2708   3.487   3.021   6.624
 1712W        W 2709   0.785   4.906   6.488
 1713W        W 2710   0.784   6.179   6.405
 1714W        W 2711   1.457   1.618   5.750
 1715W        W 2712   2.578   4.685   3.068
 1716W        W 2713   6.029   3.476   1.411
 1717W        W 2714   2.632   3.750   3.953
 1718W        W 2715   5.641   6.918   6.619
 1719W        W 2716   4.203   2.168   4.787
 1720W        W 2717   3.371   3.748   2.149
 1721W        W 2718   6.571   1.958   0.883
 1722W        W 2719   5.067   3.018   5.912
 1723W        W 2720   6.403   3.344   1.073
 1724W        W 2721   4.329   5.928   5.784
 1725W        W 2722   0.916   2.770   3.613
 1726W        W 2723   6.027   1.682   2.048
 1727W        W 2724   2.458   1.320   6.715
 1728W        W 2725   6.745   7.681   0.582
 1729W        W 2726   7.269   3.662   4.721
 1730W        W 2727   3.247   6.841   5.373
 1731W        W 2728   3.471   1.503   4.325
 1732W        W 2729   1.886   6.553   3.011
 1733W        W 2730   4.354   2.144   3.542
 1734W        W 2731   4.850   0.325   6.069
 1735W        W 2732   2.852   2.044   4.739
 1736W        W 2733   5.778   6.878   1.842
 1737W        W 2734   3.722   4.826   1.592
 1738W        W 2735   7.972   3.251   1.197
 1739W        W 2736   1.341   1.149   7.998
 1740W        W 2737   6.276   4.904   3.593
 1741W        W 2738   2.104   6.080   6.496
 1742W        W 2739   4.077   4.897   1.989
 1743W        W 2740   6.638   1.718   5.512
 1744W        W 2741   2.522   2.224   3.592
 1745W        W 2742   0.067   6.831   6.781
 1746W        W 2743   7.001   2.087   5.669
 1747W        W 2744   5.618   7.651   5.191
 1748W        W 2745   5.812   6.748   2.838
 1749W        W 2746   1.502   6.183   1.021
 1750W        W 2747   4.204   4.320   0.825
 1751W        W 2748   3.653   5.778   4.612
 1752W        W 2749   7.089   1.301   3.650
 1753W        W 2750   5.554   0.941   3.037
 1754W        W 2751   5.379   3.946   3.737
 1755W        W 2752   2.373   1.073   5.727
 1756W        W 2753   7.119   3.763   5.197
 1757W        W 2754   1.515   3.496   4.561
 1758W        W 2755   4.738   3.981   1.134
 1759W        W 2756   0.617   2.818   6.553
 1760W        W 2757   0.204   6.401   2.242
 1761W        W 2758   4.898   3.160   5.460
 1762W        W 2759   3.200   6.514   1.829
 1763W        W 2760   3.178   6.419   6.446
 1764W        W 2761   1.019   5.963   0.302
 1765W        W 2762   5.826   4.746   4.375
 1766W        W 2763   1.353   4.385   3.665
 1767W        W 2764   7.245   6.736   0.805
 1768W        W 2765   4.370   2.050   5.661
 1769W        W 2766   5.994   3.446   1.941
 1770W        W 2767   7.796   1.227   4.291
 1771W        W 2768   3.421   5.157   5.786
 1772W        W 2769   1.584   3.551   6.030
 1773W        W 2770   5.304   6.912   1.091
 1774W        W 2771   1.505   4.269   1.400
 1775W        W 2772   6.892   4.424   6.550
 1776W        W 2773   1.361   5.933   1.709
 1777W        W 2774   0.594   5.689   2.690
 1778W        W 2775   4.359   5.152   6.830
 1779W        W 2776   2.156   0.779   1.606
 1780W        W 2777   5.776   1.583   0.613
 1781W        W 2778   3.855   1.586   2.267
 1782W        W 2779   5.204   0.173   4.564
 1783W        W 2780   7.310   4.013   3.497
 1784W        W 2781   5.647   4.190   0.743
 1785W        W 2782   4.920   2.877   6.394
 1786W        W 2783   2.267   2.155   5.842
 1787W        W 2784   1.335   2.990   3.357
 1788W        W 2785   3.695   0.903   6.464
 1789W        W 2786   6.555   7.388   7.957
 1790W        W 2787   5.821   2.484   0.198
 1791W        W 2788   7.166   5.122   3.219
 1792W        W 2789   0.422   5.025   3.088
 1793W        W 2790   0.537   0.990   3.977
 1794W        W 2791   5.335   5.450   1.933
 1795W        W 2792   5.030   3.367   6.289
 1796W        W 2793   2.054   5.028   2.419
 1797W        W 2794   4.994   1.859   7.112
 1798W        W 2795   4.027   1.818   2.815
 1799W        W 2796   0.187   5.933   2.474
 1800W        W 2797   5.211   4.480   0.767
 1801W        W 2798   3.722   2.553   1.110
 1802W        W 2799   0.851   2.589   2.775
 1803W        W 2800   6.946   0.601   3.137
 1804W        W 2801   5.374   1.254   6.322
 1805W        W 2802   5.925   0.378   5.145
 1806W        W 2803   1.897   4.944   4.246
 1807W        W 2804   6.657   5.565   5.805
 1808W        W 2805   1.638   6.240   5.062
 1809W        W 2806   3.534   2.123   6.298
 1810W        W 2807   7.915   4.034   5.671
 1811W        W 2808   2.693   6.419   6.571
 1812W        W 2809   6.730   0.845   5.239
 1813W        W 2810   3.094   3.105   0.471
 1814W        W 2811   6.977   2.375   6.509
 1815W        W 2812   5.508   4.628   2.988
 1816W        W 2813   2.046   2.534   2.934
 1817W        W 2814   6.150   5.516   5.834
 1818W        W 2815   0.535   3.596   4.906
 1819W        W 2816   6.042   3.608   0.156
 1820W        W 2817   6.525   0.625   5.644
 1821W        W 2818   1.081   4.481   5.059
 1822W        W 2819   2.306   7.804   1.832
 1823W        W 2820   2.236   3.156   2.405
 1824W        W 2821   2.990   6.152   6.036
 1825W        W 2822   1.821   4.791   2.032
 1826W        W 2823   4.748   2.411   6.498
 1827W        W 2824   5.949   3.889   1.671
 1828W        W 2825   5.119   1.035   0.210
 1829W        W 2826   2.385   7.741   5.845
 1830W        W 2827   4.536   1.751   3.998
 1831W        W 2828   4.297   1.309   2.348
 1832W        W 2829   6.465   5.400   4.124
 1833W        W 2830   3.434   0.589   6.993
 1834W        W 2831   3.483   5.410   4.240
 1835W        W 2832   0.581   5.174   2.570
 1836W        W 2833   2.394   3.244   1.217
 1837W        W 2834   1.057   5.580   1.504
 1838W        W 2835   3.225   4.989   1.881
 1839W        W 2836   0.382   6.318   5.502
 1840W        W 2837   1.013   1.421   1.578
 1841W        W 2838   2.745   5.671   0.956
 1842W        W 2839   2.076   6.440   4.153
 1843W        W 2840   2.084   0.495   4.473
 1844W        W 2841   1.195   3.695   5.705
 1845W        W 2842   6.894   7.156   7.000
 1846W        W 2843   4.904   7.392   5.578
 1847W        W 2844   5.945   5.997   2.024
 1848W        W 2845   3.717   4.123   0.867
 1849W        W 2846   3.536   6.569   3.183
 1850W        W 2847   1.180   4.877   5.365
 1851W        W 2848   0.108   5.807   6.789
 1852W        W 2849   3.407   5.497   7.693
 1853W        W 2850   6.595   2.479   2.739
 1854W        W 2851   6.698   1.899   7.172
 1855W        W 2852   7.974   2.328   4.604
 1856W        W 2853   0.943   2.113   3.015
 1857W        W 2854   3.518   7.009   3.479
 1858W        W 2855   6.441   4.719   1.343
 1859W        W 2856   6.311   1.680   6.920
 1860W        W 2857   5.923   2.103   3.764
 1861W        W 2858   7.021   6.005   2.691
 1862W        W 2859   2.561   3.197   1.713
 1863W        W 2860   3.315   3.846   4.550
 1864W        W 2861   5.767   0.516   3.185
 1865W        W 2862   2.302   5.768   3.688
 1866W        W 2863   6.284   0.066   2.840
 1867W        W 2864   4.831   4.737   1.766
 1868W        W 2865   3.640   5.636   3.536
 1869W        W 2866   1.202   3.165   4.351
 1870W        W 2867   5.665   2.557   4.660
 1871W        W 2868   2.505   6.267   2.985
 1872W        W 2869   2.982   1.329   6.858
 1873W        W 2870   3.018   1.562   4.661
 1874W        W 2871   4.991   2.250   0.650
 1875W        W 2872   1.639   5.210   2.656
 1876W        W 2873   5.426   1.456   0.959
 1877W        W 2874   2.277   4.637   2.135
 1878W        W 2875   2.514   3.153   5.692
 1879W        W 2876   7.004   0.354   2.344
 1880W        W 2877   3.281   0.215   6.654
 1881W        W 2878   4.591   4.290   1.549
 1882W        W 2879   2.134   6.993   4.198
 1883W        W 2880   6.148   6.775   3.443
 1884W        W 2881   2.997   3.409   2.080
 1885W        W 2882   4.887   1.631   7.566
 1886W        W 2883   7.220   6.932   3.686
 1887W        W 2884   5.573   7.527   6.938
 1888W        W 2885   5.345   0.744   4.004
 1889W        W 2886   4.807   6.704   3.754
 1890W        W 2887   0.988   4.153   3.983
 1891W        W 2888   7.734   3.702   3.448
 1892W        W 2889   1.156   1.482   0.863
 1893W        W 2890   5.835   6.716   6.198
 1894W        W 2891   1.802   3.328   7.210
 1895W        W 2892   1.346   6.877   7.497
 1896W        W 2893   1.838   2.700   1.654
 1897W        W 2894   2.425   6.828   7.372
 1898W        W 2895   1.910   4.506   5.734
 1899W        W 2896   4.302   5.936   6.325
 1900W        W 2897   1.094   6.155   6.833
 1901W        W 2898   5.844   4.525   6.165
 1902W        W 2899   1.642   0.445   1.053
 1903W        W 2900   1.532   1.647   6.555
 1904W        W 2901   1.435   0.591   6.772
 1905W        W 2902   0.938   4.997   0.146
 1906W        W 2903   6.548   6.425   2.204
 1907W        W 2904   7.635   6.876   6.461
 1908W        W 2905   4.141   6.243   7.421
 1909W        W 2906   2.765   3.957   5.898
 1910W        W 2907   0.266   5.517   6.387
 1911W        W 2908   1.079   4.009   1.266
 1912W        W 2909   1.652   1.748   3.761
 1913W        W 2910   5.538   5.051   5.491
 1914W        W 2911   5.894   6.495   2.161
 1915W        W 2912   6.660   6.834   5.536
 1916W        W 2913   4.216   1.704   4.980
 1917W        W 2914   7.056   1.803   0.756
 1918W        W 2915   3.574   2.490   5.345
 1919W        W 2916   1.688   6.818   1.752
 1920W        W 2917   5.562   2.105   7.927
 1921W        W 2918   5.428   6.417   0.987
 1922W        W 2919   4.437   0.865   1.207
 1923W        W 2920   3.930   1.838   3.512
 1924W        W 2921   0.832   2.775   1.492
 1925W        W 2922   6.306   3.084   7.284
 1926W        W 2923   4.750   1.824   1.615
 1927W        W 2924   5.973   2.576   1.063
 1928W        W 2925   5.703   0.004   4.831
 1929W        W 2926   0.439   2.746   5.872
 1930W        W 2927   6.500   1.900   3.036
 1931W        W 2928   1.737   5.290   2.116
 1932W        W 2929   6.795   7.843   3.569
 1933W        W 2930   6.811   1.572   3.320
 1934W        W 2931   2.637   7.493   0.648
 1935W        W 2932   2.430   3.990   4.880
 1936W        W 2933   7.635   1.990   4.771
 1937W        W 2934   6.949   6.646   1.977
 1938W        W 2935   5.440   0.723   4.500
 1939W        W 2936   1.809   7.616   5.877
 1940W        W 2937   5.725   1.798   3.379
 1941W        W 2938   4.600   2.164   0.311
 1942W        W 2939   6.365   2.962   2.595
 1943W        W 2940   1.510   6.219   7.144
 1944W        W 2941   0.003   4.117   2.594
 1945W        W 2942   1.198   0.990   5.809
 1946W        W 2943   7.487   7.282   1.498
 1947W        W 2944   7.928   6.465   6.442
 1948W        W 2945   3.686   1.561   7.633
 1949W        W 2946   4.262   6.314   4.782
 1950W        W 2947   1.096   2.959   1.889
 1951W        W 2948   6.352   4.946   1.801
 1952W        W 2949   2.002   5.708   7.859
 1953W        W 2950   0.992   1.090   6.257
 1954W        W 2951   7.399   3.654   5.616
 1955W        W 2952   7.501   7.075   1.981
 1956W        W 2953   3.483   5.985   5.351
 1957W        W 2954   5.729   4.738   2.539
 1958W        W 2955   2.865   1.048   5.920
 1959W        W 2956   6.001   7.163   4.294
 1960W        W 2957   6.088   2.723   6.976
 1961W        W 2958   4.764   0.883   0.794
 1962W        W 2959   3.207   4.946   4.024
 1963W        W 2960   2.898   2.458   2.726
 1964W        W 2961   3.585   7.071   2.975
 1965W        W 2962   1.184   5.212   6.667
 1966W        W 2963   2.129   4.699   0.306
 1967W        W 2964   4.857   0.995   5.113
 1968W        W 2965   3.953   4.932   4.629
 1969W        W 2966   4.035   5.415   7.110
 1970W        W 2967   1.072   5.747   6.551
 1971W        W 2968   2.616   4.630   3.578
 1972W        W 2969   4.125   3.825   5.528
 1973W        W 2970   6.977   7.532   1.827
 1974W        W 2971   0.109   1.174   3.742
 1975W        W 2972   2.465   0.737   6.115
 1976W        W 2973   2.125   3.725   5.198
 1977W        W 2974   6.365   0.485   3.156
 1978W        W 2975   2.889   3.927   2.097
 1979W        W 2976   2.133   1.936   3.708
 1980W        W 2977   2.053   5.441   0.652
 1981W        W 2978   6.266   5.615   0.131
 1982W        W 2979   4.002   3.439   7.739
 1983W        W 2980   2.746   0.943   6.530
 1984W        W 2981   4.909   7.152   6.391
 1985W        W 2982   7.033   3.585   3.430
 1986W        W 2983   4.846   3.952   3.716
 1987W        W 2984   1.097   2.512   1.118
 1988W        W 2985   6.532   3.289   1.566
 1989W        W 2986   6.517   2.426   7.819
 1990W        W 2987   2.254   7.193   2.544
 1991W        W 2988   1.426   5.896   3.651
 1992W        W 2989   0.938   0.599   0.322
 1993W        W 2990   6.951   3.589   6.448
 1994W        W 2991   2.650   2.926   2.701
 1995W        W 2992   4.175   3.365   1.333
 1996W        W 2993   6.707   7.123   2.022
 1997W        W 2994   2.534   5.418   0.446
 1998W        W 2995   5.773   2.555   6.162
 1999W        W 2996   4.468   1.614   1.981
 2000W        W 2997   6.043   3.230   7.786
 2001W        W 2998   5.049   1.712   3.999
 2002W        W 2999   6.777   5.063   2.652
 2003W        W 3000   6.429   6.401   5.723
 2004W        W 3001   2.387   2.064   4.975
 2005W        W 3002   1.763   4.677   1.553
 2006W        W 3003   1.611   4.603   0.549
 2007W        W 3004   5.585   2.402   6.859
 2008W        W 3005   0.593   2.551   4.162
 2009W        W 3006   0.988   3.404   2.144
 2010W        W 3007   0.707   3.908   4.489
 2011W        W 3008   3.929   2.848   6.493
 2012W        W 3009   4.117   0.893   4.562
 2013W        W 3010   5.929   3.013   2.262
 2014W        W 3011   0.978   4.627   4.171
 2015W        W 3012   2.965   5.087   6.611
 2016W        W 3013   7.291   6.641   3.239
 2017W        W 3014   5.012   4.035   7.062
 2018W        W 3015   6.718   0.436   4.399
 2019W        W 3016   6.498   7.950   6.246
 2020W        W 3017   2.970   5.433   3.110
 2021W        W 3018   0.630   6.271   3.370
 2022W        W 3019   6.751   7.111   6.463
 2023W        W 3020   6.023   5.582   4.231
 2024W        W 3021   5.346   4.468   6.287
 2025W        W 3022   0.743   2.757   4.973
 2026W        W 3023   3.886   7.554   2.403
 2027W        W 3024   5.534   5.450   7.266
 2028W        W 3025   5.524   2.317   1.844
 2029W        W 3026   0.509   4.213   2.489
 2030W        W 3027   3.593   2.038   6.825
 2031W        W 3028   7.294   3.335   4.300
 2032W        W 3029   0.975   2.514   2.099
 2033W        W 3030   6.552   5.962   5.493
 2034W        W 3031   3.517   0.106   3.070
 2035W        W 3032   5.238   4.293   4.876
 2036W        W 3033   4.140   3.336   0.825
 2037W        W 3034   4.327   0.231   2.918
 2038W        W 3035   5.653   0.290   6.429
 2039W        W 3036   2.127   5.579   1.821
 2040W        W 3037   5.447   5.682   4.349
 2041W        W 3038   5.270   6.745   6.321
 2042W        W 3039   5.503   4.444   1.199
 2043W        W 3040   3.066   0.316   3.472
 2044W        W 3041   7.055   5.867   4.331
 2045W        W 3042   3.918   0.053   1.643
 2046W        W 3043   2.148   4.215   4.535
 2047W        W 3044   4.478   2.449   3.043
 2048W        W 3045   2.056   1.061   6.962
 2049W        W 3046   4.461   5.450   4.593
 2050W        W 3047   5.760   4.101   4.057
 2051W        W 3048   3.612   5.510   6.154
 2052W        W 3049   5.991   0.089   3.277
 2053W        W 3050   5.736   2.840   6.633
 2054W        W 3051   5.159   7.107   0.642
 2055W        W 3052   0.774   2.539   6.179
 2056W        W 3053   2.350   4.697   4.417
 2057W        W 3054   1.298   7.821   6.547
 2058W        W 3055   4.155   4.552   1.612
 2059W        W 3056   1.410   7.299   3.824
 2060W        W 3057   7.931   3.268   3.162
 2061W        W 3058   6.783   7.251   7.509
 2062W        W 3059   0.440   4.562   6.594
 2063W        W 3060   3.576   2.224   2.006
 2064W        W 3061   2.838   0.950   3.867
 2065W        W 3062   2.289   1.146   4.924
 2066W        W 3063   5.410   2.881   6.242
 2067W        W 3064   1.106   6.430   1.245
 2068W        W 3065   5.487   7.820   6.496
 2069W        W 3066   3.614   5.046   2.854
 2070W        W 3067   6.843   0.805   1.444
 2071W        W 3068   7.573   3.461   1.484
 2072W        W 3069   7.195   4.660   4.775
 2073W        W 3070   0.957   1.047   1.938
 2074W        W 3071   6.425   0.092   0.545
 2075W        W 3072   3.511   4.962   0.417
 2076W        W 3073   6.287   6.494   0.850
 2077W        W 3074   2.146   2.471   3.939
 2078W        W 3075   5.932   6.760   7.985
 2079W        W 3076   0.481   7.304   6.622
 2080W        W 3077   2.239   7.798   0.810
 2081W        W 3078   1.236   2.625   4.919
 2082W        W 3079   1.949   0.790   4.872
 2083W        W 3080   2.454   6.389   2.426
 2084W        W 3081   6.434   7.777   5.424
 2085W        W 3082   0.719   3.671   5.934
 2086W        W 3083   7.006   0.402   5.270
 2087W        W 3084   6.651   5.277   4.954
 2088W        W 3085   5.393   1.801   5.559
 2089W        W 3086   5.255   7.970   6.930
 2090W        W 3087   3.329   5.212   0.904
 2091W        W 3088   5.991   3.786   4.363
 2092W        W 3089   4.847   0.898   3.925
 2093W        W 3090   3.751   5.651   5.109
 2094W        W 3091   4.710   2.239   3.943
 2095W        W 3092   6.780   6.220   4.028
 2096W        W 3093   1.719   0.311   5.739
 2097W        W 3094   2.554   3.918   2.491
 2098W        W 3095   1.552   6.705   2.215
 2099W        W 3096   1.016   0.179   0.700
 2100W        W 3097   6.827   3.416   0.758
 2101W        W 3098   6.722   4.039   6.250
 2102W        W 3099   7.739   2.284   2.134
 2103W        W 3100   2.389   4.255   0.461
 2104W        W 3101   4.966   5.600   4.549
 2105W        W 3102   5.413   3.241   6.581
 2106W        W 3103   3.110   2.496   6.243
 2107W        W 3104   1.546   3.266   2.952
 2108W        W 3105   4.838   4.188   2.877
 2109W        W 3106   2.560   6.460   4.315
 2110W        W 3107   7.672   3.111   6.394
 2111W        W 3108   4.361   6.419   2.036
 2112W        W 3109   4.262   1.362   0.164
 2113W        W 3110   4.542   1.122   3.373
 2114W        W 3111   4.684   4.516   5.701
 2115W        W 3112   1.621   6.226   4.247
 2116W        W 3113   0.283   1.536   3.248
 2117W        W 3114   6.511   5.339   2.272
 2118W        W 3115   6.652   6.790   7.319
 2119W        W 3116   1.814   0.430   1.807
 2120W        W 3117   1.153   2.389   1.640
 2121W        W 3118   5.238   0.023   4.055
 2122W        W 3119   6.411   3.153   4.830
 2123W        W 3120   4.714   1.193   1.904
 2124W        W 3121   3.389   6.205   4.705
 2125W        W 3122   5.723   6.219   2.566
 2126W        W 3123   0.543   6.284   3.876
 2127W        W 3124   0.084   4.811   5.993
 2128W        W 3125   1.583   3.909   6.386
 2129W        W 3126   5.488   6.682   2.427
 2130W        W 3127   7.885   2.832   4.716
 2131W        W 3128   6.222   1.314   0.751
 2132W        W 3129   7.014   0.876   4.391
 2133W        W 3130   6.351   5.580   4.644
 2134W        W 3131   4.535   1.078   2.841
 2135W        W 3132   2.392   0.275   3.743
 2136W        W 3133   3.728   6.458   0.931
 2137W        W 3134   7.478   3.262   2.326
 2138W        W 3135   5.277   0.254   1.209
 2139W        W 3136   5.482   4.764   5.886
 2140W        W 3137   6.324   5.905   3.833
 2141W        W 3138   7.077   2.642   1.101
 2142W        W 3139   6.968   1.312   0.972
 2143W        W 3140   4.072   1.200   7.696
 2144W        W 3141   0.385   2.666   4.630
 2145W        W 3142   2.531   5.907   7.879
 2146W        W 3143   4.584   0.590   2.590
 2147W        W 3144   4.439   1.198   3.887
 2148W        W 3145   7.253   0.864   5.331
 2149W        W 3146   1.345   2.529   3.647
 2150W        W 3147   2.909   2.236   1.676
 2151W        W 3148   7.562   2.862   1.031
 2152W        W 3149   4.401   0.591   6.950
 2153W        W 3150   6.297   7.250   5.620
 2154W        W 3151   4.760   2.322   1.769
 2155W        W 3152   5.633   6.782   3.515
 2156W        W 3153   3.994   3.845   0.043
 2157W        W 3154   1.256   2.252   7.310
 2158W        W 3155   6.068   5.147   2.167
 2159W        W 3156   1.690   1.151   4.566
 2160W        W 3157   0.568   7.266   4.040
 2161W        W 3158   7.805   2.867   1.476
 2162W        W 3159   6.261   4.835   6.132
 2163W        W 3160   1.924   2.084   4.173
 2164W        W 3161   4.800   5.900   4.160
 2165W        W 3162   5.759   5.210   5.947
 2166W        W 3163   2.078   3.367   5.842
 2167W        W 3164   6.453   6.294   4.643
 2168W        W 3165   5.969   7.973   5.473
 2169W        W 3166   2.238   6.019   2.154
 2170W        W 3167   6.225   2.329   4.349
 2171W        W 3168   3.157   5.024   7.462
 2172W        W 3169   1.512   2.748   2.903
 2173W        W 3170   7.080   5.555   6.059
 2174W        W 3171   6.558   3.553   3.241
 2175W        W 3172   7.532   1.678   4.376
 2176W        W 3173   2.522   4.814   2.528
 2177W        W 3174   2.122   5.352   3.441
 2178W        W 3175   6.818   5.436   4.496
 2179W        W 3176   5.036   7.020   5.912
 2180W        W 3177   2.240   5.975   7.449
 2181W        W 3178   1.467   2.125   5.563
 2182W        W 3179   5.883   7.004   2.375
 2183W        W 3180   6.955   5.285   6.475
 2184W        W 3181   0.418   6.488   4.579
 2185W        W 3182   5.685   6.498   4.176
 2186W        W 3183   2.002   3.357   2.018
 2187W        W 3184   4.997   6.150   3.671
 2188W        W 3185   1.828   7.853   1.577
 2189W        W 3186   1.750   2.561   4.860
 2190W        W 3187   6.322   7.274   2.356
 2191W        W 3188   3.052   6.675   5.983
 2192W        W 3189   3.871   7.157   1.061
 2193W        W 3190   3.968   3.835   4.013
 2194W        W 3191   3.423   5.949   6.341
 2195W        W 3192   4.445   1.280   0.879
 2196W        W 3193   4.190   3.732   6.715
 2197W        W 3194   6.987   5.464   2.348
 2198W        W 3195   4.079   3.763   2.685
 2199W        W 3196   4.176   5.709   7.922
 2200W        W 3197   6.365   3.523   5.613
 2201W        W 3198   5.528   6.647   1.434
 2202W        W 3199   4.105   0.712   4.101
 2203W        W 3200   3.123   2.061   6.608
 2204W        W 3201   2.778   6.689   3.052
 2205W        W 3202   5.614   3.507   2.920
 2206W        W 3203   2.342   4.492   4.934
 2207W        W 3204   2.333   4.172   6.999
 2208W        W 3205   5.305   3.012   1.509
 2209W        W 3206   6.008   2.396   6.588
 2210W        W 3207   2.612   5.379   4.577
 2211W        W 3208   4.963   2.025   5.740
 2212W        W 3209   5.652   4.019   4.732
 2213W        W 3210   5.089   3.069   4.103
 2214W        W 3211   1.108   2.570   4.078
 2215W        W 3212   2.052   3.437   3.357
 2216W        W 3213   1.845   4.057   4.946
 2217W        W 3214   4.802   5.364   3.338
 2218W        W 3215   7.224   3.263   5.045
 2219W        W 3216   3.910   5.299   3.238
 2220W        W 3217   1.824   2.889   2.238
 2221W        W 3218   3.290   1.387   7.294
 2222W        W 3219   6.471   6.165   7.328
 2223W        W 3220   0.427   0.103   4.650
 2224W        W 3221   6.972   4.706   2.975
 2225W        W 3222   6.879   7.573   6.293
 2226W        W 3223   4.514   4.057   5.837
 2227W        W 3224   2.284   2.033   1.081
 2228W        W 3225   6.841   3.092   1.189
 2229W        W 3226   5.537   6.041   1.294
 2230W        W 3227   3.142   7.324   6.241
 2231W        W 3228   3.044   5.799   1.853
 2232W        W 3229   6.531   5.887   4.305
 2233W        W 3230   1.859   0.475   5.272
 2234W        W 3231   3.152   6.482   1.330
 2235W        W 3232   1.357   3.912   4.835
 2236W        W 3233   6.455   4.601   6.781
 2237W        W 3234   5.719   7.151   5.255
 2238W        W 3235   3.387   5.219   3.274
 2239W        W 3236   1.944   2.849   1.171
 2240W        W 3237   5.921   7.922   0.565
 2241W        W 3238   0.688   6.736   4.947
 2242W        W 3239   5.218   5.883   5.372
 2243W        W 3240   4.000   4.710   1.137
 2244W        W 3241   5.428   1.432   3.661
 2245W        W 3242   2.481   0.697   4.758
 2246W        W 3243   3.337   1.977   4.507
 2247W        W 3244   1.483   5.087   6.244
 2248W        W 3245   1.178   1.719   4.220
 2249W        W 3246   3.943   7.904   2.803
 2250W        W 3247   6.331   5.704   7.149
 2251W        W 3248   7.188   5.568   4.823
 2252W        W 3249   3.330   5.461   1.595
 2253W        W 3250   3.381   3.918   0.511
 2254W        W 3251   5.173   2.188   4.117
 2255W        W 3252   0.612   2.889   5.434
 2256W        W 3253   4.316   2.064   1.833
 2257W        W 3254   2.620   5.669   1.501
 2258W        W 3255   4.717   2.484   3.496
 2259W        W 3256   4.124   0.422   1.921
 2260W        W 3257   2.319   0.326   1.837
 2261W        W 3258   5.594   5.117   3.061
 2262W        W 3259   1.165   5.116   4.869
 2263W        W 3260   2.591   0.890   2.562
 2264W        W 3261   6.554   2.764   6.756
 2265W        W 3262   7.818   1.938   6.165
 2266W        W 3263   4.624   6.230   6.090
 2267W        W 3264   2.346   6.717   2.783
 2268W        W 3265   6.446   1.158   5.543
 2269W        W 3266   5.434   4.572   5.302
 2270W        W 3267   2.356   4.410   7.442
 2271W        W 3268   4.469   3.739   3.977
 2272W        W 3269   6.292   1.832   3.995
 2273W        W 3270   6.301   7.670   0.837
 2274W        W 3271   4.743   2.715   4.240
 2275W        W 3272   4.806   1.895   3.575
 2276W        W 3273   5.025   0.410   3.826
 2277W        W 3274   3.505   3.466   2.545
 2278W        W 3275   3.719   0.246   5.870
 2279W        W 3276   1.832   5.000   0.749
 2280W        W 3277   4.294   7.881   3.640
 2281W        W 3278   0.622   6.243   5.049
 2282W        W 3279   7.362   6.392   2.781
 2283W        W 3280   6.492   0.890   4.472
 2284W        W 3281   6.337   3.895   5.957
 2285W        W 3282   1.618   2.507   4.113
 2286W        W 3283   0.102   2.223   2.496
 2287W        W 3284   4.472   3.353   6.896
 2288W        W 3285   1.681   1.656   4.272
 2289W        W 3286   2.412   7.025   6.453
 2290W        W 3287   2.754   4.371   1.778
 2291W        W 3288   7.848   3.171   5.933
 2292W        W 3289   7.141   1.737   5.303
 2293W        W 3290   6.168   5.205   3.211
 2294W        W 3291   0.154   3.442   3.569
 2295W        W 3292   7.013   6.451   2.424
 2296W        W 3293   5.782   3.051   1.734
 2297W        W 3294   3.000   3.901   1.325
 2298W        W 3295   1.518   7.367   6.642
 2299W        W 3296   3.345   3.807   6.548
 2300W        W 3297   3.064   6.281   3.160
 2301W        W 3298   2.637   5.443   3.503
 2302W        W 3299   6.069   5.999   4.544
 2303W        W 3300   6.924   7.216   2.724
 2304W        W 3301   2.172   1.600   1.319
 2305W        W 3302   0.807   5.850   4.784
 2306W        W 3303   7.393   2.170   1.775
 2307W        W 3304   1.425   4.543   7.008
 2308W        W 3305   1.722   2.166   5.995
 2309W        W 3306   7.684   2.796   2.324
 2310W        W 3307   5.316   4.822   4.591
 2311W        W 3308   5.657   0.759   5.369
 2312W        W 3309   6.121   5.321   4.995
 2313W        W 3310   3.092   1.816   2.917
 2314W        W 3311   5.947   5.969   7.926
 2315W        W 3312   3.792   7.156   6.488
 2316W        W 3313   3.955   2.283   7.120
 2317W        W 3314   3.236   0.441   5.790
 2318W        W 3315   4.054   2.377   2.120
 2319W        W 3316   7.581   3.343   2.802
 2320W        W 3317   6.110   3.078   4.420
 2321W        W 3318   4.294   0.779   3.641
 2322W        W 3319   5.955   5.818   1.500
 2323W        W 3320   3.252   5.429   2.132
 2324W        W 3321   6.884   4.805   1.607
 2325W        W 3322   2.088   4.447   3.126
 2326W        W 3323   7.394   6.107   2.324
 2327W        W 3324   5.383   5.917   7.445
 2328W        W 3325   1.725   4.389   6.639
 2329W        W 3326   3.244   6.537   0.775
 2330W        W 3327   4.637   3.262   4.150
 2331W        W 3328   0.877   3.517   4.202
 2332W        W 3329   2.919   1.881   3.499
 2333W        W 3330   5.806   6.965   5.703
 2334W        W 3331   3.941   2.183   0.324
 2335W        W 3332   2.373   5.375   5.755
 2336W        W 3333   0.404   3.019   4.286
 2337W        W 3334   1.236   0.582   2.378
 2338W        W 3335   1.299   6.966   6.461
 2339W        W 3336   2.381   2.159   0.585
 2340W        W 3337   1.565   0.942   7.117
 2341W        W 3338   7.068   2.785   6.780
 2342W        W 3339   0.340   2.527   2.829
 2343W        W 3340   6.404   0.164   3.567
 2344W        W 3341   6.987   4.430   2.141
 2345W        W 3342   6.951   6.274   3.120
 2346W        W 3343   2.745   4.829   2.034
 2347W        W 3344   2.471   5.172   3.123
 2348W        W 3345   4.624   2.782   5.980
 2349W        W 3346   5.569   0.472   1.594
 2350W        W 3347   6.786   1.768   4.849
 2351W        W 3348   5.972   2.781   7.512
 2352W        W 3349   0.883   2.270   3.714
 2353W        W 3350   2.719   4.119   7.655
 2354W        W 3351   0.194   0.559   5.609
 2355W        W 3352   3.548   5.829   2.008
 2356W        W 3353   6.077   1.261   1.241
 2357W        W 3354   0.679   5.262   4.628
 2358W        W 3355   4.833   0.530   1.172
 2359W        W 3356   6.081   6.539   6.637
 2360W        W 3357   4.946   4.428   4.483
 2361W        W 3358   4.036   0.553   1.429
 2362W        W 3359   7.023   0.845   2.693
 2363W        W 3360   1.280   5.153   3.072
 2364W        W 3361   6.746   7.827   1.098
 2365W        W 3362   5.825   3.011   5.916
 2366W        W 3363   0.954   6.232   5.905
 2367W        W 3364   5.916   0.364   1.211
 2368W        W 3365   1.636   7.335   1.568
 2369W        W 3366   2.534   1.577   4.970
 2370W        W 3367   2.716   6.418   5.669
 2371W        W 3368   1.581   5.560   3.043
 2372W        W 3369   0.875   4.880   2.873
 2373W        W 3370   7.883   2.394   1.629
 2374W        W 3371   5.737   3.755   5.175
 2375W        W 3372   1.983   3.547   1.195
 2376W        W 3373   6.303   3.403   2.346
 2377W        W 3374   7.735   4.008   4.817
 2378W        W 3375   3.284   0.705   1.012
 2379W        W 3376   4.901   4.912   1.273
 2380W        W 3377   1.895   1.856   5.616
 2381W        W 3378   6.684   7.165   5.959
 2382W        W 3379   3.734   5.230   1.268
 2383W        W 3380   5.902   3.941   2.730
 2384W        W 3381   4.273   6.931   5.236
 2385W        W 3382   1.519   1.937   6.985
 2386W        W 3383   6.538   0.562   0.833
 2387W        W 3384   3.269   4.792   3.547
 2388W        W 3385   3.709   3.328   1.550
 2389W        W 3386   0.839   2.007   6.199
 2390W        W 3387   1.910   6.798   2.561
 2391W        W 3388   5.765   3.454   6.863
 2392W        W 3389   1.945   2.054   2.773
 2393W        W 3390   0.860   3.553   6.959
 2394W        W 3391   4.520   3.233   5.127
 2395W        W 3392   1.797   7.667   7.710
 2396W        W 3393   2.400   7.328   2.034
 2397W        W 3394   7.709   3.710   2.461
 2398W        W 3395   0.066   4.362   1.710
 2399W        W 3396   5.899   1.391   7.691
 2400W        W 3397   5.427   7.119   2.135
 2401W        W 3398   3.626   7.639   1.652
 2402W        W 3399   7.293   5.409   5.537
 2403W        W 3400   3.171   3.142   4.950
 2404W        W 3401   0.638   7.707   4.365
 2405W        W 3402   4.209   5.799   4.963
 2406W        W 3403   7.241   1.177   5.895
 2407W        W 3404   6.385   0.278   5.315
 2408W        W 3405   6.893   6.000   0.830
 2409W        W 3406   3.027   1.379   3.658
 2410W        W 3407   2.129   3.673   2.396
 2411W        W 3408   0.584   2.078   2.641
 2412W        W 3409   4.345   5.692   4.064
 2413W        W 3410   3.498   3.183   7.125
 2414W        W 3411   3.936   5.540   0.866
 2415W        W 3412   5.191   0.596   5.292
 2416W        W 3413   4.622   6.208   0.822
 2417W        W 3414   1.820   6.402   0.693
 2418W        W 3415   3.908   2.341   6.584
 2419W        W 3416   0.604   7.209   5.781
 2420W        W 3417   4.282   1.680   1.490
 2421W        W 3418   1.685   0.314   7.793
 2422W        W 3419   3.645   4.762   5.519
 2423W        W 3420   6.322   2.059   1.312
 2424W        W 3421   6.581   6.656   4.256
 2425W        W 3422   5.061   0.751   2.671
 2426W        W 3423   1.994   6.317   1.156
 2427W        W 3424   3.201   7.204   2.613
 2428W        W 3425   3.247   3.574   1.666
 2429W        W 3426   5.701   4.866   0.110
 2430W        W 3427   0.652   0.717   1.325
 2431W        W 3428   0.680   1.760   6.654
 2432W        W 3429   4.568   5.965   2.096
 2433W        W 3430   5.254   1.078   5.444
 2434W        W 3431   4.935   1.367   0.907
 2435W        W 3432   6.969   3.959   0.855
 2436W        W 3433   5.952   4.492   0.397
 2437W        W 3434   0.738   3.072   6.117
 2438W        W 3435   0.670   1.835   3.918
 2439W        W 3436   5.133   5.510   1.047
 2440W        W 3437   5.565   7.341   4.768
 2441W        W 3438   0.881   5.166   2.136
 2442W        W 3439   0.767   7.518   6.189
 2443W        W 3440   6.021   0.429   6.804
 2444W        W 3441   3.103   3.891   7.997
 2445W        W 3442   1.693   5.467   0.281
 2446W        W 3443   7.472   2.177   5.314
 2447W        W 3444   1.704   7.257   2.519
 2448W        W 3445   5.249   3.578   5.323
 2449W        W 3446   3.043   3.437   7.255
 2450W        W 3447   2.458   0.724   6.938
 2451W        W 3448   6.646   5.336   7.917
 2452W        W 3449   2.371   4.166   5.338
 2453W        W 3450   5.254   5.017   0.936
 2454W        W 3451   2.610   0.141   3.287
 2455W        W 3452   2.338   3.838   3.568
 2456W        W 3453   2.581   0.211   6.093
 2457W        W 3454   2.120   6.824   6.970
 2458W        W 3455   5.571   7.313   3.581
 2459W        W 3456   6.539   5.634   0.701
 2460W        W 3457   4.143   5.517   6.029
 2461W        W 3458   6.860   3.641   4.273
 2462W        W 3459   4.241   2.532   1.142
 2463W        W 3460   3.323   7.203   6.694
 2464W        W 3461   2.369   0.730   5.271
 2465W        W 3462   1.783   7.692   6.374
 2466W        W 3463   4.714   4.300   0.730
 2467W        W 3464   6.265   0.784   6.035
 2468W        W 3465   4.040   1.218   3.517
 2469W        W 3466   7.139   3.536   2.069
 2470W        W 3467   3.517   1.351   1.973
 2471W        W 3468   1.689   3.546   5.024
 2472W        W 3469   5.532   7.787   4.407
 2473W        W 3470   3.658   4.172   7.257
 2474W        W 3471   4.731   1.369   4.275
 2475W        W 3472   4.081   6.453   5.268
 2476W        W 3473   6.403   1.809   5.979
 2477W        W 3474   0.332   6.719   4.107
 2478W        W 3475   5.530   2.434   3.838
 2479W        W 3476   1.415   2.892   0.983
 2480W        W 3477   3.252   2.325   3.105
 2481W        W 3478   1.070   4.394   5.850
 2482W        W 3479   5.344   7.048   3.176
 2483W        W 3480   5.719   6.613   5.305
 2484W        W 3481   5.908   5.850   0.929
 2485W        W 3482   4.146   4.082   1.804
 2486W        W 3483   5.688   5.231   4.365
 2487W        W 3484   0.311   1.480   4.743
 2488W        W 3485   5.383   7.781   5.652
 2489W        W 3486   7.325   0.960   2.259
 2490W        W 3487   2.686   1.152   0.978
 2491W        W 3488   1.492   4.718   5.888
 2492W        W 3489   1.264   7.735   0.442
 2493W        W 3490   7.805   1.476   4.750
 2494W        W 3491   5.515   2.855   2.964
 2495W        W 3492   5.106   4.152   4.104
 2496W        W 3493   0.707   7.083   2.919
 2497W        W 3494   0.230   5.012   6.469
 2498W        W 3495   0.890   0.189   4.418
 2499W        W 3496   3.024   2.067   1.203
 2500W        W 3497   6.023   4.991   0.495
 2501W        W 3498   2.030   6.460   1.636
 2502W        W 3499   0.624   6.982   6.264
 2503W        W 3500   4.329   2.501   0.037
 2504W        W 3501   2.082   3.741   7.107
 2505W        W 3502   1.929   3.988   1.435
 2506W        W 3503   5.873   4.639   3.464
 2507W        W 3504   3.215   3.484   5.330
 2508W        W 3505   0.472   5.898   5.788
 2509W        W 3506   5.913   2.951   3.275
 2510W        W 3507   2.773   2.394   0.822
 2511W        W 3508   7.352   0.345   3.355
 2512W        W 3509   7.074   3.352   2.948
 2513W        W 3510   2.674   2.828   0.543
 2514W        W 3511   0.726   1.877   3.418
 2515W        W 3512   5.108   6.066   3.168
 2516W        W 3513   3.512   6.125   6.803
 2517W        W 3514   5.146   7.486   3.377
 2518W        W 3515   3.900   4.336   7.700
 2519W        W 3516   2.671   4.362   2.286
 2520W        W 3517   6.477   5.342   6.241
 2521W        W 3518   4.128   6.359   5.976
 2522W        W 3519   2.787   4.154   3.696
 2523W        W 3520   1.199   0.306   6.393
 2524W        W 3521   3.101   1.202   1.738
 2525W        W 3522   2.199   1.742   1.812
 2526W        W 3523   7.392   5.830   5.217
 2527W        W 3524   6.067   6.695   1.465
 2528W        W 3525   5.196   4.395   5.742
 2529W        W 3526   3.663   5.930   0.717
 2530W        W 3527   5.469   4.359   4.392
 2531W        W 3528   1.796   2.730   0.694
 2532W        W 3529   3.889   6.244   6.456
 2533W        W 3530   5.140   5.744   1.495
 2534W        W 3531   4.583   5.088   2.819
 2535W        W 3532   4.181   3.457   4.260
 2536W        W 3533   2.349   1.860   5.424
 2537W        W 3534   4.028   4.277   2.649
 2538W        W 3535   0.899   2.148   4.267
 2539W        W 3536   1.409   4.180   7.358
 2540W        W 3537   2.855   5.307   1.788
 2541W        W 3538   5.354   3.446   3.869
 2542W        W 3539   4.168   7.335   6.783
 2543W        W 3540   4.547   1.303   6.065
 2544W        W 3541   5.999   0.497   5.637
 2545W        W 3542   2.829   0.461   6.666
 2546W        W 3543   5.767   0.011   6.860
 2547W        W 3544   7.616   4.933   6.460
 2548W        W 3545   0.819   3.236   5.105
 2549W        W 3546   3.795   4.954   7.754
 2550W        W 3547   0.986   1.914   1.710
 2551W        W 3548   2.383   3.725   5.628
 2552W        W 3549   3.420   3.569   3.393
 2553W        W 3550   3.907   2.897   3.753
 2554W        W 3551   0.196   6.530   5.068
 2555W        W 3552   6.122   1.565   5.604
 2556W        W 3553   6.955   5.594   3.375
 2557W        W 3554   2.011   3.966   6.642
 2558W        W 3555   1.474   2.779   4.501
 2559W        W 3556   6.837   2.039   6.152
 2560W        W 3557   3.566   5.586   2.975
 2561W        W 3558   5.437   1.171   6.838
 2562W        W 3559   7.349   2.914   2.961
 2563W        W 3560   3.192   3.935   5.567
 2564W        W 3561   6.755   2.238   2.331
 2565W        W 3562   5.441   1.938   3.764
 2566W        W 3563   1.460   7.139   4.322
 2567W        W 3564   3.177   3.065   0.997
 2568W        W 3565   4.787   1.530   3.171
 2569W        W 3566   6.708   6.442   6.891
 2570W        W 3567   2.831   6.596   5.205
 2571W        W 3568   1.279   7.067   6.976
 2572W        W 3569   5.047   6.121   1.122
 2573W        W 3570   7.126   5.094   5.077
 2574W        W 3571   5.175   7.021   3.645
 2575W        W 3572   7.542   4.074   5.302
 2576W        W 3573   3.737   4.844   3.331
 2577W        W 3574   6.532   4.089   6.727
 2578W        W 3575   6.975   6.208   7.287
 2579W        W 3576   6.061   5.496   0.581
 2580W        W 3577   4.370   6.174   1.271
 2581W        W 3578   4.697   0.212   4.745
 2582W        W 3579   1.223   5.808   6.046
 2583W        W 3580   3.544   5.630   7.230
 2584W        W 3581   4.273   1.800   0.464
 2585W        W 3582   5.727   7.193   7.767
 2586W        W 3583   2.595   1.872   1.478
 2587W        W 3584   1.047   4.841   6.081
 2588W        W 3585   3.556   4.388   3.406
 2589W        W 3586   0.361   3.709   6.819
 2590W        W 3587   1.499   4.752   3.983
 2591W        W 3588   4.433   4.926   4.783
 2592W        W 3589   5.443   2.694   5.759
 2593W        W 3590   1.302   2.130   2.064
 2594W        W 3591   5.049   2.522   6.040
 2595W        W 3592   0.497   4.217   6.977
 2596W        W 3593   2.162   1.545   7.074
 2597W        W 3594   1.466   0.847   5.008
 2598W        W 3595   1.771   5.060   3.190
 2599W        W 3596   2.030   6.816   6.132
 2600W        W 3597   3.413   6.222   4.194
 2601W        W 3598   7.441   4.446   6.530
 2602W        W 3599   2.939   1.367   4.178
 2603W        W 3600   2.721   4.614   0.650
 2604W        W 3601   7.152   5.664   6.808
 2605W        W 3602   1.711   6.044   7.576
 2606W        W 3603   5.586   1.631   0.123
 2607W        W 3604   5.707   3.619   7.671
 2608W        W 3605   4.922   4.456   2.216
 2609W        W 3606   5.877   1.264   2.764
 2610W        W 3607   7.867   5.341   6.677
 2611W        W 3608   6.459   7.071   5.100
 2612W        W 3609   1.904   2.247   0.822
 2613W        W 3610   3.644   6.933   7.016
 2614W        W 3611   1.789   7.220   7.044
 2615W        W 3612   1.878   1.349   5.726
 2616W        W 3613   3.548   2.049   7.359
 2617W        W 3614   6.263   6.837   2.076
 2618W        W 3615   4.778   0.679   3.486
 2619W        W 3616   3.225   6.730   2.813
 2620W        W 3617   2.460   4.099   1.458
 2621W        W 3618   1.301   6.847   0.013
 2622W        W 3619   1.031   4.160   3.265
 2623W        W 3620   1.335   3.353   6.959
 2624W        W 3621   0.441   2.177   4.511
 2625W        W 3622   6.275   2.990   1.901
 2626W        W 3623   5.283   0.580   6.178
 2627W        W 3624   4.801   2.801   5.083
 2628W        W 3625   3.185   7.138   5.785
 2629W        W 3626   5.853   5.901   3.612
 2630W        W 3627   3.244   6.907   7.351
 2631W        W 3628   3.591   6.693   4.337
 2632W        W 3629   3.128   2.571   0.477
 2633W        W 3630   1.998   3.830   5.973
 2634W        W 3631   1.528   2.579   5.332
 2635W        W 3632   5.372   0.683   2.244
 2636W        W 3633   6.754   7.561   2.322
 2637W        W 3634   1.214   2.916   6.198
 2638W        W 3635   4.649   2.929   3.766
 2639W        W 3636   6.180   2.780   7.994
 2640W        W 3637   0.732   5.043   6.973
 2641W        W 3638   7.881   2.268   1.102
 2642W        W 3639   1.140   5.685   2.814
 2643W        W 3640   7.710   4.156   3.155
 2644W        W 3641   5.920   2.603   1.936
 2645W        W 3642   5.435   0.068   2.421
 2646W        W 3643   7.072   2.499   2.042
 2647W        W 3644   4.327   3.532   0.402
 2648W        W 3645   0.829   1.247   3.165
 2649W        W 3646   3.171   4.308   5.902
 2650W        W 3647   0.592   4.539   1.789
 2651W        W 3648   5.020   5.096   3.835
 2652W        W 3649   4.037   6.002   2.087
 2653W        W 3650   5.036   1.603   1.957
 2654W        W 3651   3.080   7.110   3.129
 2655W        W 3652   1.107   1.714   2.687
 2656W        W 3653   1.320   4.910   0.876
 2657W        W 3654   3.243   2.328   4.911
 2658W        W 3655   4.566   6.522   5.132
 2659W        W 3656   6.960   5.216   4.061
 2660W        W 3657   4.053   6.294   1.656
 2661W        W 3658   4.647   1.687   0.117
 2662W        W 3659   3.615   1.455   3.699
 2663W        W 3660   4.384   5.077   3.291
 2664W        W 3661   0.235   2.804   5.097
 2665W        W 3662   2.107   6.055   5.057
 2666W        W 3663   5.071   1.344   7.179
 2667W        W 3664   1.256   6.840   3.691
 2668W        W 3665   5.010   7.686   4.380
 2669W        W 3666   0.939   2.722   4.511
 2670W        W 3667   1.415   1.352   3.960
 2671W        W 3668   2.829   6.189   1.606
 2672W        W 3669   1.067   2.189   2.521
 2673W        W 3670   4.690   3.809   3.245
 2674W        W 3671   4.622   6.792   4.264
 2675W        W 3672   2.628   0.904   1.828
 2676W        W 3673   3.892   3.873   2.210
 2677W        W 3674   4.221   3.302   5.586
 2678W        W 3675   6.278   6.527   3.017
 2679W        W 3676   6.393   7.565   3.705
 2680W        W 3677   7.424   3.468   6.663
 2681W        W 3678   5.494   6.248   3.551
 2682W        W 3679   4.639   4.982   7.677
 2683W        W 3680   6.210   5.987   0.522
 2684W        W 3681   2.110   1.158   3.251
 2685W        W 3682   6.320   2.213   6.942
 2686W        W 3683   2.249   2.854   1.959
 2687W        W 3684   5.962   4.140   3.584
 2688W        W 3685   7.684   1.704   5.199
 2689W        W 3686   5.121   2.101   2.113
 2690W        W 3687   0.202   1.735   2.719
 2691W        W 3688   1.967   2.416   2.051
 2692W        W 3689   7.435   5.417   6.410
 2693W        W 3690   6.949   3.279   6.861
 2694W        W 3691   7.237   4.162   4.891
 2695W        W 3692   6.046   7.195   3.731
 2696W        W 3693   2.894   4.389   1.288
 2697W        W 3694   1.623   5.011   6.835
 2698W        W 3695   2.053   1.501   4.607
 2699W        W 3696   2.658   6.449   3.478
 2700W        W 3697   4.287   4.642   6.779
 2701W        W 3698   6.210   4.372   5.839
 2702W        W 3699   6.668   1.512   0.608
 2703W        W 3700   6.902   1.543   1.966
 2704W        W 3701   5.759   3.373   4.174
 2705W        W 3702   0.993   0.940   4.808
 2706W        W 3703   4.958   3.903   5.079
 2707W        W 3704   0.687   5.294   4.039
 2708W        W 3705   2.045   4.332   1.796
 2709W        W 3706   1.974   1.878   6.739
 2710W        W 3707   6.724   5.941   6.902
 2711W        W 3708   2.101   6.212   7.870
 2712W        W 3709   1.963   5.889   0.357
 2713W        W 3710   3.152   5.802   6.977
 2714W        W 3711   3.861   3.779   6.312
 2715W        W 3712   6.180   6.453   0.322
 2716W        W 3713   4.906   6.448   2.913
 2717W        W 3714   7.797   5.638   5.482
 2718W        W 3715   2.552   7.141   3.001
 2719W        W 3716   2.892   0.906   1.383
 2720W        W 3717   1.488   1.277   6.167
 2721W        W 3718   5.802   2.869   5.422
 2722W        W 3719   4.530   1.577   2.715
 2723W        W 3720   1.782   1.958   3.300
 2724W        W 3721   6.183   7.149   1.670
 2725W        W 3722   5.092   4.307   1.698
 2726W        W 3723   4.307   7.880   2.421
 2727W        W 3724   3.529   5.665   1.151
 2728W        W 3725   0.527   3.008   2.743
 2729W        W 3726   3.199   5.701   0.755
 2730W        W 3727   6.445   4.735   0.680
 2731W        W 3728   3.147   1.719   5.565
 2732W        W 3729   1.552   6.941   2.909
 2733W        W 3730   1.169   6.841   0.916
 2734W        W 3731   4.512   1.867   7.287
 2735W        W 3732   3.114   5.518   6.382
 2736W        W 3733   1.920   2.204   5.193
 2737W        W 3734   2.946   0.601   6.177
 2738W        W 3735   3.256   2.604   1.849
 2739W        W 3736   3.566   0.363   5.401
 2740W        W 3737   0.238   2.336   2.004
 2741W        W 3738   5.173   7.484   6.039
 2742W        W 3739   6.697   4.692   5.567
 2743W        W 3740   6.764   7.331   5.442
 2744W        W 3741   5.171   6.570   3.352
 2745W        W 3742   4.204   3.888   4.612
 2746W        W 3743   5.268   6.836   5.427
 2747W        W 3744   1.389   6.544   6.704
 2748W        W 3745   2.648   1.450   1.795
 2749W        W 3746   2.730   2.689   1.835
 2750W        W 3747   0.954   4.039   0.135
 2751W        W 3748   4.521   6.838   5.964
 2752W        W 3749   5.327   4.176   2.118
 2753W        W 3750   3.910   4.955   6.907
 2754W        W 3751   2.459   3.746   6.739
 2755W        W 3752   7.078   6.657   4.117
 2756W        W 3753   1.790   3.521   6.743
 2757W        W 3754   3.676   3.810   5.817
 2758W        W 3755   4.100   1.263   1.262
 2759W        W 3756   0.861   4.762   4.659
 2760W        W 3757   6.033   1.698   2.995
 2761W        W 3758   5.610   5.448   5.162
 2762W        W 3759   4.258   6.164   6.810
 2763W        W 3760   4.235   3.573   3.148
 2764W        W 3761   1.248   3.454   5.265
 2765W        W 3762   6.784   1.468   6.834
 2766W        W 3763   2.653   1.932   2.005
 2767W        W 3764   3.482   0.451   6.255
 2768W        W 3765   2.703   3.206   4.009
 2769W        W 3766   3.537   4.144   0.018
 2770W        W 3767   6.271   2.574   5.414
 2771W        W 3768   3.918   6.756   6.210
 2772W        W 3769   4.847   7.831   5.874
 2773W        W 3770   4.025   4.984   0.329
 2774W        W 3771   4.109   6.694   4.342
 2775W        W 3772   3.551   6.409   6.112
 2776W        W 3773   5.479   3.342   6.037
 2777W        W 3774   7.942   6.100   5.254
 2778W        W 3775   4.739   4.110   7.523
 2779W        W 3776   5.200   3.833   7.522
 2780W        W 3777   5.593   0.231   0.816
 2781W        W 3778   4.424   5.656   0.756
 2782W        W 3779   6.159   0.337   6.299
 2783W        W 3780   0.318   1.043   5.482
 2784W        W 3781   1.171   0.302   7.694
 2785W        W 3782   5.817   0.106   5.960
 2786W        W 3783   3.609   7.283   6.009
 2787W        W 3784   6.589   5.929   3.009
 2788W        W 3785   5.070   1.094   7.610
 2789W        W 3786   3.496   4.017   1.326
 2790W        W 3787   4.154   3.556   1.806
 2791W        W 3788   3.785   3.616   4.523
 2792W        W 3789   5.489   1.177   7.872
 2793W        W 3790   1.732   3.700   0.713
 2794W        W 3791   5.549   0.695   1.090
 2795W        W 3792   5.341   2.638   4.259
 2796W        W 3793   4.030   1.883   7.447
 2797W        W 3794   4.519   0.716   4.823
 2798W        W 3795   5.851   1.959   6.870
 2799W        W 3796   2.459   2.878   6.628
 2800W        W 3797   1.920   7.486   1.145
 2801W        W 3798   5.829   2.158   1.387
 2802W        W 3799   7.209   6.180   1.832
 2803W        W 3800   2.383   3.974   6.277
 2804W        W 3801   6.127   0.594   3.580
 2805W        W 3802   5.501   3.282   2.088
 2806W        W 3803   3.784   5.852   0.225
 2807W        W 3804   5.508   1.226   4.509
 2808W        W 3805   4.757   0.104   4.247
 2809W        W 3806   4.257   0.033   4.125
 2810W        W 3807   6.052   4.821   7.063
 2811W        W 3808   1.320   1.263   2.973
 2812W        W 3809   2.965   5.155   6.077
 2813W        W 3810   7.054   7.475   1.309
 2814W        W 3811   1.022   1.016   5.304
 2815W        W 3812   1.019   3.289   3.634
 2816W        W 3813   5.985   6.263   1.215
 2817W        W 3814   0.049   1.159   5.070
 2818W        W 3815   2.905   6.346   2.652
 2819W        W 3816   4.888   1.373   3.658
 2820W        W 3817   3.782   2.058   2.431
 2821W        W 3818   4.623   5.652   0.255
 2822W        W 3819   6.723   6.857   3.782
 2823W        W 3820   2.691   6.972   3.493
 2824W        W 3821   5.842   0.648   3.982
 2825W        W 3822   1.120   6.127   4.083
 2826W        W 3823   7.435   6.402   6.401
 2827W        W 3824   2.428   2.250   2.714
 2828W        W 3825   2.481   6.978   5.187
 2829W        W 3826   0.531   2.827   1.976
 2830W        W 3827   6.814   4.377   7.066
 2831W        W 3828   5.432   1.641   7.604
 2832W        W 3829   6.228   0.474   4.277
 2833W        W 3830   1.968   6.529   3.658
 2834W        W 3831   6.199   6.627   2.538
 2835W        W 3832   0.182   4.129   1.266
 2836W        W 3833   2.403   7.263   5.619
 2837W        W 3834   6.877   3.326   4.678
 2838W        W 3835   6.314   5.656   6.647
 2839W        W 3836   7.884   3.732   2.931
 2840W        W 3837   6.330   1.015   6.903
 2841W        W 3838   2.842   0.451   3.926
 2842W        W 3839   3.650   6.338   1.944
 2843W        W 3840   3.314   7.857   3.483
 2844W        W 3841   0.415   2.636   3.691
 2845W        W 3842   3.209   4.504   4.340
 2846W        W 3843   5.030   4.697   7.462
 2847W        W 3844   3.606   1.975   3.089
 2848W        W 3845   5.730   0.844   1.935
 2849W        W 3846   2.023   2.530   4.433
 2850W        W 3847   4.262   5.509   3.540
 2851W        W 3848   7.169   4.167   5.625
 2852W        W 3849   6.719   6.237   1.776
 2853W        W 3850   3.694   4.503   4.551
 2854W        W 3851   6.242   6.128   3.368
 2855W        W 3852   5.952   2.933   4.916
 2856W        W 3853   2.523   5.973   5.750
 2857W        W 3854   6.739   0.999   5.938
 2858W        W 3855   0.128   6.975   5.776
 2859W        W 3856   4.616   1.240   7.395
 2860W        W 3857   5.650   1.956   0.944
 2861W        W 3858   7.595   4.620   6.044
 2862W        W 3859   0.289   2.218   1.402
 2863W        W 3860   1.720   5.939   6.202
 2864W        W 3861   5.429   2.117   7.231
 2865W        W 3862   7.892   3.190   5.119
 2866W        W 3863   4.131   4.081   5.088
 2867W        W 3864   4.339   1.545   6.515
 2868W        W 3865   7.314   1.503   2.307
 2869W        W 3866   2.343   4.717   1.634
 2870W        W 3867   2.164   3.238   5.320
 2871W        W 3868   5.408   3.164   5.567
 2872W        W 3869   4.084   6.808   6.741
 2873W        W 3870   1.063   1.556   6.399
 2874W        W 3871   4.331   2.079   6.495
 2875W        W 3872   1.621   6.670   1.071
 2876W        W 3873   2.694   3.247   4.536
 2877W        W 3874   2.568   1.024   3.081
 2878W        W 3875   2.187   7.312   6.084
 2879W        W 3876   6.203   1.925   6.486
 2880W        W 3877   5.187   2.896   0.057
 2881W        W 3878   0.008   2.790   1.936
 2882W        W 3879   6.701   3.250   2.040
 2883W        W 3880   4.561   6.640   1.087
 2884W        W 3881   4.063   1.530   3.948
 2885W        W 3882   0.381   1.024   3.313
 2886W        W 3883   1.235   1.207   3.491
 2887W        W 3884   2.538   2.377   4.485
 2888W        W 3885   3.336   1.137   3.975
 2889W        W 3886   6.007   0.010   4.352
 2890W        W 3887   6.236   6.574   7.132
 2891W        W 3888   5.485   0.436   5.731
 2892W        W 3889   0.995   5.523   7.023
 2893W        W 3890   4.522   3.829   7.101
 2894W        W 3891   3.529   6.453   5.188
 2895W        W 3892   1.618   2.158   6.482
 2896W        W 3893   5.535   5.867   1.766
 2897W        W 3894   5.460   6.868   4.952
 2898W        W 3895   0.919   4.507   7.880
 2899W        W 3896   0.945   5.638   2.338
 2900W        W 3897   6.082   7.618   6.900
 2901W        W 3898   4.381   2.352   4.318
 2902W        W 3899   6.965   4.127   2.547
 2903W        W 3900   7.016   1.213   4.982
 2904W        W 3901   0.146   4.492   2.260
 2905W        W 3902   6.415   3.565   4.547
 2906W        W 3903   4.690   4.701   3.972
 2907W        W 3904   7.213   0.050   3.814
 2908W        W 3905   5.209   5.726   6.019
 2909W        W 3906   1.982   0.678   7.311
 2910W        W 3907   6.480   7.168   4.081
 2911W        W 3908   2.806   4.296   5.087
 2912W        W 3909   3.237   0.993   5.064
 2913W        W 3910   6.965   6.563   1.480
 2914W        W 3911   6.592   0.931   3.006
 2915W        W 3912   0.238   3.834   3.266
 2916W        W 3913   0.046   4.930   2.551
 2917W        W 3914   7.774   5.752   2.216
 2918W        W 3915   4.990   1.032   6.106
 2919W        W 3916   1.530   0.033   6.122
 2920W        W 3917   6.855   5.251   1.884
 2921W        W 3918   3.183   5.583   5.879
 2922W        W 3919   1.939   2.082   4.689
 2923W        W 3920   3.764   4.667   7.332
 2924W        W 3921   3.272   0.695   3.728
 2925W        W 3922   3.919   1.323   2.690
 2926W        W 3923   5.825   6.294   0.695
 2927W        W 3924   1.923   2.971   2.739
 2928W        W 3925   0.595   3.811   7.299
 2929W        W 3926   3.797   0.650   7.382
 2930W        W 3927   1.773   4.449   0.065
 2931W        W 3928   4.531   6.538   1.579
 2932W        W 3929   6.527   4.905   4.034
 2933W        W 3930   6.710   2.002   0.390
 2934W        W 3931   3.420   1.569   6.669
 2935W        W 3932   6.932   6.343   4.510
 2936W        W 3933   6.438   5.897   2.035
 2937W        W 3934   0.780   3.446   2.678
 2938W        W 3935   6.601   1.003   0.580
 2939W        W 3936   6.927   6.710   2.853
 2940W        W 3937   6.780   5.768   6.421
 2941W        W 3938   1.841   4.194   7.092
 2942W        W 3939   5.988   5.232   5.463
 2943W        W 3940   0.440   4.661   2.718
 2944W        W 3941   0.006   2.039   5.425
 2945W        W 3942   3.646   1.360   6.237
 2946W        W 3943   4.757   6.862   5.492
 2947W        W 3944   1.809   3.217   0.853
 2948W        W 3945   0.585   0.302   5.846
 2949W        W 3946   5.822   1.927   5.815
 2950W        W 3947   1.175   0.838   7.581
 2951W        W 3948   1.799   3.587   4.170
 2952W        W 3949   3.158   6.743   6.860
 2953W        W 3950   1.929   6.311   4.648
 2954W        W 3951   4.197   5.683   1.245
 2955W        W 3952   5.278   1.562   2.403
 2956W        W 3953   7.359   7.221   0.975
 2957W        W 3954   1.632   0.912   3.204
 2958W        W 3955   2.464   6.940   1.271
 2959W        W 3956   6.109   0.805   0.990
 2960W        W 3957   5.949   2.629   3.666
 2961W        W 3958   0.880   4.379   2.811
 2962W        W 3959   3.745   5.353   0.063
 2963W        W 3960   5.779   5.716   6.116
 2964W        W 3961   4.529   3.441   6.374
 2965W        W 3962   7.389   5.132   5.981
 2966W        W 3963   5.530   3.492   1.608
 2967W        W 3964   5.484   0.456   4.919
 2968W        W 3965   6.727   6.060   5.979
 2969W        W 3966   4.964   2.579   2.183
 2970W        W 3967   7.058   1.114   3.153
 2971W        W 3968   4.336   2.810   4.893
 2972W        W 3969   6.423   1.397   1.903
 2973W        W 3970   3.017   3.276   3.517
 2974W        W 3971   1.130   0.819   3.115
 2975W        W 3972   0.808   5.357   3.014
 2976W        W 3973   1.523   6.919   5.355
 2977W        W 3974   4.647   1.609   5.673
 2978W        W 3975   7.384   1.176   4.605
 2979W        W 3976   7.631   6.999   5.593
 2980W        W 3977   0.998   6.419   3.685
 2981W        W 3978   6.189   6.346   6.162
 2982W        W 3979   3.851   1.664   0.168
 2983W        W 3980   4.052   2.114   6.082
 2984W        W 3981   7.082   5.867   5.643
 2985W        W 3982   3.180   0.719   4.224
 2986W        W 3983   0.747   1.385   5.045
 2987W        W 3984   7.196   2.750   2.487
 2988W        W 3985   3.468   1.463   0.493
 2989W        W 3986   3.568   6.803   5.790
 2990W        W 3987   1.199   6.702   5.046
 2991W        W 3988   3.405   6.084   1.575
 2992W        W 3989   1.705   6.867   3.929
 2993W        W 3990   7.558   4.385   4.511
 2994W        W 3991   2.928   1.062   2.218
 2995W        W 3992   7.851   0.787   3.441
 2996W        W 3993   1.952   6.962   1.350
 2997W        W 3994   5.963   7.032   4.830
 2998W        W 3995   3.249   4.557   1.618
 2999W        W 3996   5.035   2.053   6.245
 3000W        W 3997   4.998   7.771   6.397
 3001W        W 3998   6.290   6.828   5.954
 3002W        W 3999   6.065   3.537   0.725
 3003W        W 4000   2.759   2.144   3.106
 3004W        W 4001   4.300   4.823   0.732
 3005W        W 4002   4.414   2.996   1.085
 3006W        W 4003   6.403   7.005   4.585
 3007W        W 4004   4.611   3.492   1.070
 3008W        W 4005   4.284   3.919   3.535
 3009W        W 4006   5.892   4.763   5.243
 3010W        W 4007   3.184   6.481   7.683
 3011W        W 4008   1.953   3.069   6.564
 3012W        W 4009   6.218   2.698   5.907
 3013W        W 4010   4.992   6.626   0.823
 3014W        W 4011   1.736   6.719   4.922
 3015W        W 4012   2.996   2.667   1.403
 3016W        W 4013   5.465   6.235   2.116
 3017W        W 4014   3.704   3.814   1.737
 3018W        W 4015   5.618   1.166   0.359
 3019W        W 4016   4.620   3.594   4.528
 3020W        W 4017   4.082   6.787   5.696
 3021W        W 4018   2.797   5.258   2.301
 3022W        W 4019   5.645   7.148   0.824
 3023W        W 4020   2.498   3.353   0.354
 3024W        W 4021   2.025   2.750   5.234
 3025W        W 4022   6.536   7.902   4.549
 3026W        W 4023   1.863   4.284   7.592
 3027W        W 4024   7.079   2.894   4.165
 3028W        W 4025   0.751   4.554   5.463
 3029W        W 4026   0.897   4.554   3.648
 3030W        W 4027   5.313   5.294   3.476
 3031W        W 4028   3.449   1.960   0.308
 3032W        W 4029   6.816   2.385   7.003
 3033W        W 4030   3.070   3.076   1.703
 3034W        W 4031   6.140   2.225   6.074
 3035W        W 4032   4.996   3.079   2.252
 3036W        W 4033   0.912   3.040   7.083
 3037W        W 4034   2.476   0.215   1.062
 3038W        W 4035   5.132   6.859   2.766
 3039W        W 4036   5.110   5.142   7.168
 3040W        W 4037   0.941   2.552   6.888
 3041W        W 4038   1.052   7.107   6.040
 3042W        W 4039   6.011   7.248   6.046
 3043W        W 4040   4.724   7.135   5.050
 3044W        W 4041   4.166   6.935   2.601
 3045W        W 4042   2.167   5.752   6.045
 3046W        W 4043   3.247   4.433   5.356
 3047W        W 4044   5.293   7.086   1.594
 3048W        W 4045   6.143   3.517   2.848
 3049W        W 4046   3.108   4.216   6.388
 3050W        W 4047   4.612   4.221   4.834
 3051W        W 4048   6.698   2.097   4.170
 3052W        W 4049   4.489   3.719   5.004
 3053W        W 4050   6.476   5.212   0.407
 3054W        W 4051   2.008   1.110   6.136
 3055W        W 4052   6.333   4.436   5.317
 3056W        W 4053   2.516   4.644   6.973
 3057W        W 4054   6.010   2.351   7.763
 3058W        W 4055   4.946   6.540   5.890
 3059W        W 4056   2.258   3.293   6.901
 3060W        W 4057   2.405   6.387   7.066
 3061W        W 4058   3.716   6.216   2.411
 3062W        W 4059   1.293   7.305   0.701
 3063W        W 4060   6.982   0.015   4.303
 3064W        W 4061   6.115   2.189   0.780
 3065W        W 4062   1.694   6.228   3.347
 3066W        W 4063   2.808   5.170   0.789
 3067W        W 4064   2.127   3.522   6.372
 3068W        W 4065   3.986   3.604   5.031
 3069W        W 4066   6.859   7.985   6.608
 3070W        W 4067   3.686   1.859   3.990
 3071W        W 4068   4.786   6.656   6.370
 3072W        W 4069   2.070   4.004   2.768
 3073W        W 4070   0.197   4.301   6.043
 3074W        W 4071   4.312   7.734   5.841
 3075W        W 4072   5.294   3.998   6.044
 3076W        W 4073   6.146   1.668   1.553
 3077W        W 4074   1.281   2.631   0.572
 3078W        W 4075   3.460   2.882   1.409
 3079W        W 4076   1.904   4.430   4.126
 3080W        W 4077   2.207   2.636   0.419
 3081W        W 4078   4.889   4.693   4.895
 3082W        W 4079   0.684   6.468   2.022
 3083W        W 4080   2.277   2.526   4.880
 3084W        W 4081   0.199   2.845   2.401
 3085W        W 4082   2.645   2.901   3.459
 3086W        W 4083   4.788   3.727   6.686
 3087W        W 4084   7.481   6.603   2.257
 3088W        W 4085   0.393   4.208   2.972
 3089W        W 4086   7.984   4.527   2.903
 3090W        W 4087   2.555   1.233   3.543
 3091W        W 4088   1.165   4.996   7.691
 3092W        W 4089   7.853   3.774   6.530
 3093W        W 4090   6.212   2.512   1.514
 3094W        W 4091   0.057   2.651   4.221
 3095W        W 4092   0.623   6.971   4.470
 3096W        W 4093   7.638   3.721   4.377
 3097W        W 4094   2.437   6.849   2.223
 3098W        W 4095   1.461   6.264   5.913
 3099W        W 4096   4.437   2.976   6.534
 3100W        W 4097   5.674   4.709   0.779
 3101W        W 4098   2.381   2.784   1.460
 3102W        W 4099   1.024   7.013   5.501
 3103W        W 4100   6.986   3.219   2.458
 3104W        W 4101   1.740   6.437   6.324
 3105W        W 4102   4.311   5.219   7.995
 3106W        W 4103   4.260   1.879   2.358
 3107W        W 4104   2.437   1.168   1.422
 3108W        W 4105   2.783   1.011   5.363
 3109W        W 4106   1.826   4.744   6.301
 3110W        W 4107   2.016   1.731   5.057
 3111W        W 4108   4.985   1.313   2.740
 3112W        W 4109   7.385   6.564   5.654
 3113W        W 4110   6.918   6.282   6.393
 3114W        W 4111   5.459   1.643   7.063
 3115W        W 4112   6.135   3.900   4.851
 3116W        W 4113   4.665   7.037   2.612
 3117W        W 4114   3.267   5.729   4.933
 3118W        W 4115   5.334   1.964   6.677
 3119W        W 4116   5.028   5.312   0.569
 3120W        W 4117   6.016   6.998   6.937
 3121W        W 4118   0.861   2.056   7.049
 3122W        W 4119   0.889   3.261   5.653
 3123W        W 4120   0.447   3.634   1.841
 3124W        W 4121   6.938   1.405   4.494
 3125W        W 4122   6.860   3.808   2.926
 3126W        W 4123   7.215   3.666   2.569
 3127W        W 4124   1.106   1.504   5.401
 3128W        W 4125   2.561   6.628   6.132
 3129W        W 4126   6.336   4.464   7.287
 3130W        W 4127   3.734   7.655   3.237
 3131W        W 4128   2.030   3.695   4.658
 3132W        W 4129   1.411   6.445   4.655
 3133W        W 4130   5.658   1.579   6.583
 3134W        W 4131   4.511   6.137   3.808
 3135W        W 4132   0.357   3.318   5.301
 3136W        W 4133   5.351   5.345   4.742
 3137W        W 4134   1.333   1.886   6.147
 3138W        W 4135   2.736   6.004   7.282
 3139W        W 4136   7.134   0.238   2.832
 3140W        W 4137   2.116   4.426   1.273
 3141W        W 4138   5.268   6.547   4.587
 3142W        W 4139   0.763   2.038   2.150
 3143W        W 4140   5.937   0.815   1.468
 3144W        W 4141   6.826   1.514   5.954
 3145W        W 4142   2.284   6.900   1.741
 3146W        W 4143   1.083   6.496   2.345
 3147W        W 4144   3.395   7.402   1.260
 3148W        W 4145   3.306   4.998   1.376
 3149W        W 4146   5.015   0.600   4.815
 3150W        W 4147   3.004   0.971   3.372
 3151W        W 4148   5.248   2.798   6.779
 3152W        W 4149   2.113   4.719   7.767
 3153W        W 4150   0.110   3.327   2.666
 3154W        W 4151   6.682   1.940   3.665
 3155W        W 4152   5.124   4.064   6.526
 3156W        W 4153   2.032   7.071   2.995
 3157W        W 4154   6.982   7.044   3.235
 3158W        W 4155   4.588   2.078   2.710
 3159W        W 4156   7.278   1.253   1.819
 3160W        W 4157   1.715   5.846   4.715
 3161W        W 4158   2.007   3.149   0.383
 3162W        W 4159   6.559   1.553   6.390
 3163W        W 4160   3.220   2.111   5.890
 3164W        W 4161   1.904   1.236   4.104
 3165W        W 4162   5.447   3.763   4.303
 3166W        W 4163   4.225   4.503   0.332
 3167W        W 4164   6.494   1.914   7.917
 3168W        W 4165   4.724   3.454   3.642
 3169W        W 4166   3.069   5.803   1.319
 3170W        W 4167   6.100   4.015   0.562
 3171W        W 4168   5.948   6.031   6.486
 3172W        W 4169   3.653   3.930   5.305
 3173W        W 4170   1.282   6.192   6.363
 3174W        W 4171   4.617   2.905   3.253
 3175W        W 4172   0.753   3.173   4.603
 3176W        W 4173   4.330   5.073   4.268
 3177W        W 4174   2.747   3.800   5.267
 3178W        W 4175   3.181   2.979   7.483
 3179W        W 4176   4.706   4.903   2.242
 3180W        W 4177   5.051   4.540   3.151
 3181W        W 4178   5.098   7.291   2.476
 3182W        W 4179   4.520   5.145   3.777
 3183W        W 4180   7.286   1.752   5.959
 3184W        W 4181   3.221   3.248   3.992
 3185W        W 4182   5.185   1.231   4.086
 3186W        W 4183   7.977   1.945   1.806
 3187W        W 4184   3.022   4.794   1.023
 3188W        W 4185   1.548   5.896   0.045
 3189W        W 4186   5.129   2.737   0.603
 3190W        W 4187   4.538   7.934   6.264
 3191W        W 4188   5.672   1.312   2.198
   8.00000   8.00000   8.00000
