Martini system from ../2_Creating_coordinates/TYR-PHE-TYR_aa.pdb
 4351
    1TYR     BB    1   5.996   2.262   1.766  0.2447 -0.0948 -0.5804
    1TYR    SC1    2   6.200   2.397   1.575  0.0804 -0.0534  0.0921
    1TYR    SC2    3   6.328   2.559   1.402  0.1052  0.1428  0.2886
    1TYR    SC3    4   6.458   2.349   1.511  0.1227  0.0831  0.1547
    2PHE     BB    5   5.697   2.038   1.714 -0.0118 -0.4292 -0.1810
    2PHE    SC1    6   5.496   2.254   1.815  0.1615 -0.0104  0.2634
    2PHE    SC2    7   5.549   2.513   1.871  0.2374  0.0083  0.1121
    2PHE    SC3    8   5.306   2.409   1.929  0.2381  0.0860  0.2614
    3TYR     BB    9   5.629   1.976   1.404 -0.1513  0.1285 -0.3903
    3TYR    SC1   10   5.363   2.103   1.357 -0.1115 -0.2673 -0.0594
    3TYR    SC2   11   5.137   2.095   1.505 -0.1024  0.3079  0.0127
    3TYR    SC3   12   5.127   2.180   1.249  0.0403  0.4438  0.0499
    1TYR     BB   13   5.879   6.812   1.705 -0.1472 -0.0477  0.0221
    1TYR    SC1   14   5.596   6.650   1.799  0.2616  0.0658 -0.1518
    1TYR    SC2   15   5.440   6.768   1.985  0.2615  0.0809 -0.1615
    1TYR    SC3   16   5.375   6.524   1.891  0.3884 -0.0298  0.0298
    2PHE     BB   17   5.989   6.839   1.935 -0.0655  0.1386  0.1126
    2PHE    SC1   18   6.281   6.771   2.018  0.0057  0.0954  0.0633
    2PHE    SC2   19   6.548   6.801   1.996 -0.0216  0.1623 -0.2345
    2PHE    SC3   20   6.442   6.554   2.030  0.0846  0.1554  0.0966
    3TYR     BB   21   5.857   7.083   2.112 -0.1253 -0.0471 -0.1919
    3TYR    SC1   22   5.618   7.224   1.898 -0.0289 -0.0661 -0.1442
    3TYR    SC2   23   5.467   7.387   1.745  0.2900  0.1674 -0.2251
    3TYR    SC3   24   5.493   7.126   1.679  0.0582  0.1603 -0.3002
    1TYR     BB   25   0.104   5.624   7.081 -0.1007  0.0183  0.0048
    1TYR    SC1   26  -0.020   5.912   7.013  0.1584  0.2616  0.1851
    1TYR    SC2   27  -0.042   6.137   6.865 -0.2965  0.1169  0.0109
    1TYR    SC3   28  -0.073   6.148   7.133 -0.3632  0.2559 -0.0014
    2PHE     BB   29   0.420   5.623   7.197 -0.1096 -0.0427 -0.0773
    2PHE    SC1   30   0.499   5.827   7.397 -0.1141 -0.2557  0.1021
    2PHE    SC2   31   0.615   6.062   7.462 -0.2282 -0.0596 -0.3492
    2PHE    SC3   32   0.353   6.022   7.513 -0.1356 -0.2324  0.0371
    3TYR     BB   33   0.627   5.361   7.026 -0.2851  0.0816 -0.2327
    3TYR    SC1   34   0.769   5.511   6.818 -0.1401  0.0303 -0.0615
    3TYR    SC2   35   0.908   5.586   6.599 -0.0851  0.1345  0.0081
    3TYR    SC3   36   0.855   5.765   6.793 -0.1702  0.0531  0.0611
    1TYR     BB   37   4.925   1.787   0.464  0.0881  0.1493  0.2037
    1TYR    SC1   38   4.725   1.812   0.257  0.3201 -0.1852 -0.0728
    1TYR    SC2   39   4.645   1.907   0.018 -0.0424  0.3805  0.2464
    1TYR    SC3   40   4.492   1.728   0.151  0.1771  0.0375  0.0572
    2PHE     BB   41   5.135   1.526   0.557 -0.1094 -0.0447  0.1525
    2PHE    SC1   42   5.013   1.308   0.399  0.3308  0.1758  0.2656
    2PHE    SC2   43   5.145   1.187   0.197  0.1805  0.0829  0.2210
    2PHE    SC3   44   4.941   1.060   0.321  0.1275  0.2259  0.2843
    3TYR     BB   45   5.441   1.479   0.585 -0.0570 -0.4200  0.2848
    3TYR    SC1   46   5.483   1.219   0.499  0.1104  0.1206 -0.1264
    3TYR    SC2   47   5.569   1.062   0.296 -0.1834 -0.1389 -0.0592
    3TYR    SC3   48   5.612   0.987   0.552 -0.2711 -0.0785 -0.0261
    1TYR     BB   49   7.082   6.274   7.343 -0.3796 -0.0008  0.1304
    1TYR    SC1   50   7.397   6.431   7.413  0.2045 -0.1140  0.1201
    1TYR    SC2   51   7.629   6.561   7.458  0.1656 -0.0858  0.2425
    1TYR    SC3   52   7.394   6.696   7.465  0.1192 -0.1720  0.4383
    2PHE     BB   53   6.912   6.505   7.459 -0.2949 -0.0259  0.0890
    2PHE    SC1   54   6.743   6.424   7.733  0.0383  0.0357 -0.0456
    2PHE    SC2   55   6.784   6.368   7.994 -0.2220  0.1579  0.0262
    2PHE    SC3   56   6.617   6.214   7.848  0.1141 -0.0629 -0.1407
    3TYR     BB   57   6.960   6.777   7.262 -0.0189  0.1584 -0.0234
    3TYR    SC1   58   6.654   6.903   7.184 -0.1561 -0.1220  0.1414
    3TYR    SC2   59   6.439   7.053   7.245 -0.0107  0.3158 -0.3369
    3TYR    SC3   60   6.425   6.872   7.046 -0.0270  0.0874 -0.1328
    1TYR     BB   61   6.236   3.061   2.527  0.0546 -0.0193 -0.2357
    1TYR    SC1   62   5.960   3.165   2.626  0.1610  0.1429 -0.1003
    1TYR    SC2   63   5.849   3.145   2.871  0.2066  0.3540 -0.0602
    1TYR    SC3   64   5.767   3.338   2.702  0.0304  0.0858 -0.2918
    2PHE     BB   65   6.368   3.175   2.273 -0.2434  0.1486 -0.0337
    2PHE    SC1   66   6.098   3.218   2.118 -0.1551  0.0616  0.0086
    2PHE    SC2   67   5.832   3.199   2.160 -0.1463  0.0572  0.0641
    2PHE    SC3   68   5.925   3.295   1.926 -0.1966  0.0495  0.0408
    3TYR     BB   69   6.728   3.050   2.246  0.0017  0.2433  0.1740
    3TYR    SC1   70   6.849   3.272   2.127 -0.1296 -0.0916 -0.0724
    3TYR    SC2   71   6.989   3.500   2.091  0.1332 -0.2743 -0.2572
    3TYR    SC3   72   6.951   3.331   1.884 -0.4226 -0.2074 -0.2305
    1TYR     BB   73   5.905   2.959   0.028  0.1571 -0.0920  0.1439
    1TYR    SC1   74   5.810   2.835   0.281  0.0879  0.0192 -0.0113
    1TYR    SC2   75   5.843   2.752   0.536  0.2772  0.2709  0.0513
    1TYR    SC3   76   5.706   2.979   0.484  0.0156  0.0859 -0.0947
    2PHE     BB   77   6.059   2.758  -0.121 -0.0808 -0.1938  0.4263
    2PHE    SC1   78   6.197   2.539   0.067  0.1677  0.1131  0.0454
    2PHE    SC2   79   6.247   2.345   0.247  0.0151  0.0630  0.0354
    2PHE    SC3   80   6.415   2.555   0.225  0.1983 -0.0816  0.0255
    3TYR     BB   81   6.067   2.754  -0.422 -0.1171 -0.2303 -0.1200
    3TYR    SC1   82   5.991   2.767  -0.736  0.2610  0.4233 -0.3153
    3TYR    SC2   83   5.840   2.877  -0.931 -0.1139  0.1382 -0.2013
    3TYR    SC3   84   6.004   2.670  -0.988  0.1038  0.3294 -0.2892
    1TYR     BB   85   6.061   6.061   6.445  0.1298  0.1588  0.0768
    1TYR    SC1   86   6.362   5.997   6.544  0.1054  0.1670 -0.3557
    1TYR    SC2   87   6.608   6.082   6.617  0.1177  0.0008 -0.1939
    1TYR    SC3   88   6.571   5.825   6.542 -0.0632 -0.0646  0.0988
    2PHE     BB   89   5.773   6.142   6.575  0.0932 -0.1012 -0.1199
    2PHE    SC1   90   5.587   5.889   6.546 -0.0985  0.0161  0.0096
    2PHE    SC2   91   5.393   5.811   6.716  0.0696 -0.1414  0.1348
    2PHE    SC3   92   5.524   5.627   6.568 -0.1371  0.0008 -0.2432
    3TYR     BB   93   5.726   6.312   6.827 -0.0732 -0.1191 -0.5315
    3TYR    SC1   94   5.421   6.405   6.863  0.2161  0.1944  0.2426
    3TYR    SC2   95   5.202   6.407   7.021  0.1616  0.1961  0.1678
    3TYR    SC3   96   5.175   6.414   6.752  0.2420 -0.1365  0.1459
    1TYR     BB   97   0.237   5.731   0.209 -0.0508  0.2469 -0.0228
    1TYR    SC1   98   0.237   5.627   0.481 -0.1701  0.0689  0.1962
    1TYR    SC2   99   0.322   5.504   0.706 -0.0810 -0.0651  0.0912
    1TYR    SC3  100   0.058   5.543   0.666 -0.1169 -0.2904  0.0939
    2PHE     BB  101   0.571   5.842   0.261 -0.0063  0.1788 -0.0085
    2PHE    SC1  102   0.503   6.147   0.258 -0.1211  0.0269 -0.1702
    2PHE    SC2  103   0.575   6.373   0.387  0.0876 -0.1186 -0.0238
    2PHE    SC3  104   0.501   6.383   0.127  0.1107  0.1139 -0.0234
    3TYR     BB  105   0.859   5.798   0.155  0.2313  0.1954 -0.1765
    3TYR    SC1  106   0.988   6.075   0.108 -0.0285  0.1984 -0.0020
    3TYR    SC2  107   1.157   6.158  -0.085 -0.1442  0.0137 -0.1889
    3TYR    SC3  108   1.018   6.339   0.059  0.1558  0.1651 -0.0777
    1TYR     BB  109   7.055   3.353   0.458  0.1912 -0.3427  0.0008
    1TYR    SC1  110   7.270   3.262   0.636 -0.0693 -0.1417  0.0610
    1TYR    SC2  111   7.497   3.365   0.740 -0.0935 -0.0703  0.0433
    1TYR    SC3  112   7.323   3.235   0.900 -0.0369 -0.1315  0.0556
    2PHE     BB  113   6.826   3.593   0.563  0.1151 -0.0116  0.1734
    2PHE    SC1  114   6.563   3.509   0.473  0.0680 -0.1566  0.1227
    2PHE    SC2  115   6.299   3.553   0.444 -0.0128 -0.5057  0.2651
    2PHE    SC3  116   6.429   3.396   0.268  0.1255 -0.2609  0.1419
    3TYR     BB  117   6.803   3.877   0.691  0.0771 -0.1117  0.2112
    3TYR    SC1  118   6.857   3.720   1.019  0.1032 -0.0891  0.0883
    3TYR    SC2  119   6.751   3.672   1.263 -0.6023 -0.1966 -0.2092
    3TYR    SC3  120   6.918   3.492   1.151 -0.4549 -0.2561  0.0940
    1TYR     BB  121   0.135   4.545   7.619  0.2570 -0.2828 -0.2751
    1TYR    SC1  122  -0.135   4.555   7.467 -0.1610  0.0174  0.2999
    1TYR    SC2  123  -0.393   4.481   7.435 -0.2308  0.2894  0.2056
    1TYR    SC3  124  -0.243   4.546   7.220 -0.1155  0.2394  0.2699
    2PHE     BB  125   0.215   4.306   7.725  0.0427  0.1638 -0.0908
    2PHE    SC1  126   0.456   4.113   7.747 -0.3592 -0.3051 -0.2196
    2PHE    SC2  127   0.629   3.929   7.652  0.1546  0.0197  0.0295
    2PHE    SC3  128   0.680   4.054   7.886 -0.1563  0.5029 -0.1426
    3TYR     BB  129   0.081   4.247   8.041 -0.3520 -0.0033 -0.2759
    3TYR    SC1  130   0.237   4.019   8.159  0.2846  0.0580 -0.4556
    3TYR    SC2  131   0.203   3.786   8.291 -0.2253  0.2377 -0.2415
    3TYR    SC3  132   0.436   3.837   8.166  0.0619 -0.1919  0.0845
    1TYR     BB  133   5.489   5.853   0.477  0.2318 -0.0962 -0.3214
    1TYR    SC1  134   5.755   5.751   0.362  0.0717 -0.0124  0.0041
    1TYR    SC2  135   5.967   5.887   0.264  0.1544  0.0009  0.1963
    1TYR    SC3  136   5.964   5.617   0.256  0.0486  0.0060 -0.0656
    2PHE     BB  137   5.597   6.205   0.430 -0.3427 -0.1671  0.1867
    2PHE    SC1  138   5.455   6.326   0.191 -0.1998 -0.2160  0.1834
    2PHE    SC2  139   5.307   6.355  -0.033  0.0872  0.0589  0.0188
    2PHE    SC3  140   5.301   6.546   0.158  0.2111  0.0637  0.0190
    3TYR     BB  141   5.918   6.288   0.564 -0.1949 -0.3025 -0.3101
    3TYR    SC1  142   6.195   6.228   0.547 -0.1651 -0.2226 -0.0421
    3TYR    SC2  143   6.364   6.020   0.512  0.0767 -0.0485  0.0484
    3TYR    SC3  144   6.389   6.178   0.729 -0.3542 -0.1515  0.1849
    1TYR     BB  145   6.372   2.344   7.265  0.4087  0.1447 -0.0837
    1TYR    SC1  146   6.614   2.129   7.202  0.0122  0.1985  0.1375
    1TYR    SC2  147   6.701   1.874   7.222 -0.1460  0.0979 -0.2975
    1TYR    SC3  148   6.851   2.077   7.320  0.0369 -0.1477 -0.0481
    2PHE     BB  149   6.031   2.236   7.337  0.1753  0.1393 -0.0302
    2PHE    SC1  150   5.917   2.053   7.543 -0.2111  0.3375 -0.0595
    2PHE    SC2  151   5.763   1.938   7.734 -0.1356  0.2444 -0.0537
    2PHE    SC3  152   6.016   2.013   7.791 -0.1601  0.3477 -0.0782
    3TYR     BB  153   5.852   2.328   7.136 -0.3211  0.0928  0.1360
    3TYR    SC1  154   5.786   2.123   6.934 -0.3781 -0.0374  0.0094
    3TYR    SC2  155   5.802   2.011   6.689 -0.3347  0.0929 -0.0485
    3TYR    SC3  156   5.687   1.875   6.892  0.0410 -0.2097 -0.0244
    1TYR     BB  157   0.361   4.522   7.140 -0.0678 -0.0815  0.1090
    1TYR    SC1  158   0.115   4.583   6.945 -0.2246 -0.2848 -0.1317
    1TYR    SC2  159  -0.066   4.481   6.773 -0.2705 -0.2431 -0.1083
    1TYR    SC3  160  -0.057   4.747   6.818 -0.1808 -0.2411 -0.1354
    2PHE     BB  161   0.518   4.691   7.382 -0.1724 -0.0407 -0.2721
    2PHE    SC1  162   0.717   4.492   7.514  0.1757  0.4887  0.1986
    2PHE    SC2  163   0.850   4.419   7.738 -0.1740 -0.0392  0.2551
    2PHE    SC3  164   0.848   4.257   7.522 -0.3012  0.2018  0.0686
    3TYR     BB  165   0.517   4.971   7.367  0.2084 -0.0544  0.1014
    3TYR    SC1  166   0.237   5.077   7.296 -0.1509  0.0987  0.0844
    3TYR    SC2  167   0.049   4.884   7.313  0.1542 -0.2360 -0.1361
    3TYR    SC3  168   0.013   5.094   7.147 -0.0909 -0.2059 -0.0509
    1TYR     BB  169   5.615   2.063   3.821  0.1627 -0.1379  0.3500
    1TYR    SC1  170   5.801   2.279   3.985  0.1464 -0.1792  0.2839
    1TYR    SC2  171   5.880   2.537   3.974  0.1693 -0.1945 -0.2165
    1TYR    SC3  172   5.899   2.399   4.206  0.1653  0.2430  0.0586
    2PHE     BB  173   5.820   1.942   3.568 -0.1321 -0.2230 -0.1563
    2PHE    SC1  174   5.699   1.628   3.507 -0.2221 -0.0963 -0.3367
    2PHE    SC2  175   5.521   1.427   3.531 -0.0157 -0.2486  0.0308
    2PHE    SC3  176   5.773   1.375   3.449  0.0094 -0.1204  0.0234
    3TYR     BB  177   6.026   2.085   3.392 -0.2705  0.1957 -0.0419
    3TYR    SC1  178   6.097   2.406   3.491  0.1776 -0.1713  0.6977
    3TYR    SC2  179   6.166   2.645   3.597 -0.0135  0.1323  0.1834
    3TYR    SC3  180   5.920   2.610   3.490  0.0948 -0.2203  0.0293
    1TYR     BB  181   5.486   1.953   0.518 -0.2204 -0.0484  0.0031
    1TYR    SC1  182   5.754   2.064   0.549 -0.0358  0.0485 -0.3489
    1TYR    SC2  183   6.024   2.044   0.551 -0.0475 -0.1265 -0.3564
    1TYR    SC3  184   5.906   2.279   0.487  0.1071  0.0778  0.0614
    2PHE     BB  185   5.230   2.028   0.780 -0.1245  0.0915  0.0492
    2PHE    SC1  186   5.237   1.783   0.994  0.3778  0.0845  0.1779
    2PHE    SC2  187   5.143   1.696   1.231  0.1932 -0.1405  0.0286
    2PHE    SC3  188   5.291   1.532   1.076  0.1211 -0.0747 -0.1118
    3TYR     BB  189   5.044   2.183   0.695 -0.1694  0.2238 -0.0442
    3TYR    SC1  190   5.043   2.463   0.767 -0.0474 -0.0791  0.2468
    3TYR    SC2  191   5.050   2.554   1.021  0.0196  0.1717  0.1594
    3TYR    SC3  192   5.012   2.727   0.818  0.0090 -0.0206 -0.0055
    1TYR     BB  193   4.814   1.548   2.085 -0.1135  0.1202  0.1466
    1TYR    SC1  194   4.954   1.827   2.055  0.2058 -0.2002 -0.3369
    1TYR    SC2  195   4.906   2.053   1.915 -0.0451 -0.1206 -0.1328
    1TYR    SC3  196   5.160   1.974   1.961  0.0430 -0.0468 -0.4612
    2PHE     BB  197   4.994   1.320   1.899  0.0925  0.0212 -0.1079
    2PHE    SC1  198   5.175   1.503   1.700 -0.2790  0.0768 -0.2171
    2PHE    SC2  199   5.345   1.712   1.723  0.0506 -0.2027  0.0236
    2PHE    SC3  200   5.393   1.517   1.542 -0.0785 -0.2285  0.0160
    3TYR     BB  201   5.152   1.056   1.939 -0.0536  0.0191 -0.0772
    3TYR    SC1  202   5.314   1.069   2.233 -0.0038 -0.3980 -0.1527
    3TYR    SC2  203   5.531   0.932   2.318  0.1275 -0.0660  0.0755
    3TYR    SC3  204   5.371   1.056   2.497  0.0298  0.1012 -0.1221
    1TYR     BB  205   6.318   1.692   3.358 -0.0718  0.0093 -0.0620
    1TYR    SC1  206   6.118   1.680   3.153 -0.0953 -0.2779  0.2174
    1TYR    SC2  207   5.856   1.669   3.087 -0.0505 -0.1212  0.0020
    1TYR    SC3  208   6.045   1.617   2.901  0.0782  0.1962  0.0350
    2PHE     BB  209   6.263   1.508   3.685  0.2108 -0.2352 -0.0365
    2PHE    SC1  210   6.483   1.554   3.926 -0.2250  0.0265 -0.0313
    2PHE    SC2  211   6.612   1.484   4.153 -0.1714  0.0306 -0.0602
    2PHE    SC3  212   6.542   1.741   4.111  0.0998  0.0883 -0.1877
    3TYR     BB  213   6.184   1.206   3.663  0.1262  0.1910 -0.2570
    3TYR    SC1  214   6.394   1.062   3.798  0.0199  0.1241  0.1380
    3TYR    SC2  215   6.655   1.088   3.864  0.0139 -0.0741  0.2480
    3TYR    SC3  216   6.523   0.859   3.920 -0.1523 -0.0228  0.0806
    1TYR     BB  217   6.750   3.158   0.821 -0.0977  0.0118  0.0072
    1TYR    SC1  218   7.009   2.959   0.836  0.1914  0.1364  0.0448
    1TYR    SC2  219   7.180   2.805   0.694 -0.1304 -0.2383  0.0425
    1TYR    SC3  220   7.151   2.766   0.959 -0.0820 -0.0506  0.0775
    2PHE     BB  221   6.474   2.992   0.888 -0.0990 -0.2647  0.1494
    2PHE    SC1  222   6.297   3.007   0.637 -0.1982  0.0853  0.2044
    2PHE    SC2  223   6.100   3.151   0.523 -0.0161  0.1694 -0.0125
    2PHE    SC3  224   6.210   2.944   0.389  0.0544  0.1329  0.1005
    3TYR     BB  225   6.498   2.953   1.189  0.1051 -0.3259  0.4677
    3TYR    SC1  226   6.756   3.029   1.285 -0.0067 -0.1274 -0.1579
    3TYR    SC2  227   6.890   3.198   1.447 -0.1203 -0.0983 -0.0927
    3TYR    SC3  228   7.024   3.007   1.311  0.0169  0.0755 -0.2080
    1TYR     BB  229   6.140   3.236   7.142  0.0118 -0.0382  0.0057
    1TYR    SC1  230   6.204   3.279   6.820  0.3233 -0.0394  0.0666
    1TYR    SC2  231   6.303   3.386   6.593  0.3196 -0.0420  0.0638
    1TYR    SC3  232   6.133   3.176   6.581  0.5641 -0.2461  0.0789
    2PHE     BB  233   5.805   3.192   7.173 -0.2030  0.1352  0.1572
    2PHE    SC1  234   5.723   3.258   6.895 -0.2653 -0.0937  0.0236
    2PHE    SC2  235   5.637   3.250   6.640 -0.1952 -0.1057 -0.0003
    2PHE    SC3  236   5.642   3.484   6.773 -0.0857 -0.0729 -0.0611
    3TYR     BB  237   5.653   3.293   7.411  0.1859  0.0729  0.1599
    3TYR    SC1  238   5.679   3.429   7.702  0.0980  0.2667 -0.2543
    3TYR    SC2  239   5.580   3.583   7.900 -0.2515 -0.0041 -0.2044
    3TYR    SC3  240   5.778   3.407   7.952 -0.0744  0.1942 -0.1903
    1TYR     BB  241   6.782   0.579   2.022  0.2263 -0.1496  0.0641
    1TYR    SC1  242   6.851   0.602   2.361 -0.1295 -0.1418 -0.5205
    1TYR    SC2  243   6.969   0.559   2.600  0.1978  0.1088 -0.6276
    1TYR    SC3  244   6.715   0.479   2.558  0.0610  0.2409 -0.1289
    2PHE     BB  245   6.593   0.665   1.829 -0.1352  0.3486  0.2099
    2PHE    SC1  246   6.755   0.768   1.562  0.1943 -0.2377 -0.0948
    2PHE    SC2  247   6.803   0.931   1.352 -0.1398 -0.1028 -0.0738
    2PHE    SC3  248   7.007   0.849   1.509  0.0561  0.1664 -0.1778
    3TYR     BB  249   6.325   0.585   1.822 -0.1792  0.0451 -0.0610
    3TYR    SC1  250   6.109   0.777   1.875  0.0532  0.0519 -0.2530
    3TYR    SC2  251   5.919   0.942   1.775  0.1462  0.1184 -0.3224
    3TYR    SC3  252   6.034   0.997   2.014 -0.0431 -0.0156 -0.1969
    1TYR     BB  253   6.583   1.931   1.253 -0.0653 -0.2996 -0.1143
    1TYR    SC1  254   6.483   1.780   1.052  0.0696  0.0060  0.0360
    1TYR    SC2  255   6.419   1.555   0.919  0.1286 -0.0064  0.0283
    1TYR    SC3  256   6.328   1.793   0.832 -0.0091 -0.0356  0.0883
    2PHE     BB  257   6.872   2.021   1.288  0.1563 -0.1071 -0.0584
    2PHE    SC1  258   7.077   1.797   1.246  0.0220  0.3616  0.0770
    2PHE    SC2  259   7.200   1.673   1.040 -0.1612  0.1110  0.1129
    2PHE    SC3  260   7.271   1.616   1.294 -0.2332  0.0935  0.1293
    3TYR     BB  261   6.892   2.131   1.555  0.0286  0.2838  0.0054
    3TYR    SC1  262   7.142   2.015   1.744 -0.0384 -0.2020 -0.1348
    3TYR    SC2  263   7.303   1.805   1.800  0.1850  0.0388  0.1698
    3TYR    SC3  264   7.410   2.044   1.732 -0.0666  0.0241 -0.3446
    1TYR     BB  265   6.813   0.608   1.028 -0.2452  0.0150 -0.2458
    1TYR    SC1  266   6.628   0.469   1.226  0.0416 -0.2156 -0.0769
    1TYR    SC2  267   6.435   0.280   1.233 -0.2802  0.1001 -0.0434
    1TYR    SC3  268   6.628   0.284   1.422 -0.3761 -0.0836  0.0619
    2PHE     BB  269   6.832   0.828   0.844  0.0803  0.0487 -0.1816
    2PHE    SC1  270   7.096   0.843   0.710  0.0253 -0.1563  0.1158
    2PHE    SC2  271   7.263   0.892   0.504  0.0894 -0.0873  0.1834
    2PHE    SC3  272   7.363   0.843   0.750  0.0092  0.0308  0.2408
    3TYR     BB  273   6.559   1.046   0.903 -0.0107  0.1281  0.1571
    3TYR    SC1  274   6.375   0.879   1.091  0.2157  0.1753  0.2365
    3TYR    SC2  275   6.215   0.667   1.143  0.1452  0.1610 -0.0216
    3TYR    SC3  276   6.320   0.810   1.346  0.0821 -0.0369  0.1544
    1TYR     BB  277   6.647   4.550   7.409  0.1287  0.0597  0.0140
    1TYR    SC1  278   6.487   4.271   7.512  0.0003 -0.1462  0.0797
    1TYR    SC2  279   6.262   4.356   7.634 -0.1640  0.3262 -0.4917
    1TYR    SC3  280   6.284   4.099   7.555 -0.2095  0.1080  0.1334
    2PHE     BB  281   6.512   4.498   7.104 -0.0777 -0.2797 -0.1556
    2PHE    SC1  282   6.608   4.745   6.986 -0.3294 -0.1061 -0.0492
    2PHE    SC2  283   6.614   5.015   6.999 -0.1025 -0.1031 -0.1477
    2PHE    SC3  284   6.464   4.891   6.811  0.0775 -0.0332 -0.3417
    3TYR     BB  285   6.499   4.243   7.023 -0.0641 -0.1133  0.0741
    3TYR    SC1  286   6.678   4.099   6.848  0.2442  0.1007  0.2610
    3TYR    SC2  287   6.672   3.833   6.798 -0.0373  0.1531 -0.0272
    3TYR    SC3  288   6.876   3.984   6.704 -0.1076  0.1069 -0.2609
    1TYR     BB  289   7.046   1.515   2.172 -0.0457 -0.1651 -0.0679
    1TYR    SC1  290   7.334   1.457   2.082  0.0155  0.0294 -0.2267
    1TYR    SC2  291   7.507   1.255   2.034  0.0290 -0.1009  0.2906
    1TYR    SC3  292   7.589   1.512   2.014  0.0731 -0.1393 -0.1543
    2PHE     BB  293   7.037   1.786   2.220  0.0029 -0.3141  0.0984
    2PHE    SC1  294   7.304   1.948   2.239  0.0215  0.0593  0.1715
    2PHE    SC2  295   7.570   1.971   2.200  0.0069  0.0634  0.0705
    2PHE    SC3  296   7.407   2.180   2.149 -0.0111  0.0773  0.1802
    3TYR     BB  297   6.811   2.062   2.134  0.0317  0.1746 -0.2300
    3TYR    SC1  298   6.989   2.300   2.043 -0.2428 -0.0522 -0.1126
    3TYR    SC2  299   7.165   2.455   1.909 -0.1576  0.2112  0.2828
    3TYR    SC3  300   6.980   2.568   2.070 -0.3997 -0.0853  0.2266
    1TYR     BB  301   7.250   1.870   3.539  0.0565  0.1063 -0.0848
    1TYR    SC1  302   7.065   1.781   3.726  0.1294 -0.0171  0.2292
    1TYR    SC2  303   6.828   1.859   3.828 -0.0440 -0.2695  0.0354
    1TYR    SC3  304   6.999   1.715   3.979 -0.0497 -0.1611  0.1476
    2PHE     BB  305   7.279   1.817   3.212 -0.0263  0.1581 -0.3584
    2PHE    SC1  306   7.384   1.548   3.158 -0.0769  0.0673  0.0575
    2PHE    SC2  307   7.491   1.310   3.231  0.0260  0.1015  0.0199
    2PHE    SC3  308   7.528   1.404   2.980 -0.1958  0.0574 -0.0317
    3TYR     BB  309   7.145   2.023   3.044 -0.0893  0.0047 -0.0109
    3TYR    SC1  310   7.054   2.309   3.036 -0.1643 -0.0561  0.1504
    3TYR    SC2  311   6.838   2.439   3.131 -0.0600  0.0655  0.2244
    3TYR    SC3  312   6.955   2.521   2.902 -0.2796 -0.1950  0.0108
    1TYR     BB  313   6.222   4.481   6.582 -0.1211  0.0656 -0.0868
    1TYR    SC1  314   6.523   4.564   6.535  0.0929  0.1534 -0.3273
    1TYR    SC2  315   6.767   4.655   6.605  0.1367  0.0422 -0.3341
    1TYR    SC3  316   6.734   4.396   6.536 -0.0054  0.0289 -0.2216
    2PHE     BB  317   6.155   4.229   6.680 -0.2943  0.1588 -0.0078
    2PHE    SC1  318   5.883   4.159   6.693  0.0367 -0.0424 -0.2222
    2PHE    SC2  319   5.723   3.941   6.687  0.2755 -0.2374  0.0904
    2PHE    SC3  320   5.615   4.187   6.715 -0.0081 -0.2912 -0.3935
    3TYR     BB  321   6.283   3.972   6.512 -0.0832  0.1693 -0.0160
    3TYR    SC1  322   6.079   3.782   6.502 -0.2618  0.3468  0.1568
    3TYR    SC2  323   5.916   3.807   6.288 -0.2250 -0.1929  0.0459
    3TYR    SC3  324   5.929   3.572   6.420  0.1676 -0.0391  0.3044
    1TYR     BB  325   4.792   3.000   7.410 -0.2678 -0.0129 -0.3728
    1TYR    SC1  326   4.696   2.725   7.434  0.2345 -0.0539  0.1857
    1TYR    SC2  327   4.564   2.589   7.627  0.0254  0.0030  0.0870
    1TYR    SC3  328   4.661   2.458   7.412 -0.1779  0.0051 -0.0093
    2PHE     BB  329   5.135   3.098   7.481  0.1735  0.4237  0.1260
    2PHE    SC1  330   5.151   3.390   7.432 -0.3154  0.0785  0.2478
    2PHE    SC2  331   5.132   3.643   7.339  0.0451  0.0375  0.0379
    2PHE    SC3  332   5.302   3.586   7.541  0.0305 -0.0518  0.0253
    3TYR     BB  333   5.375   3.043   7.752  0.0290 -0.2062  0.3381
    3TYR    SC1  334   5.319   3.168   7.979  0.0457  0.0053 -0.0843
    3TYR    SC2  335   5.219   3.350   8.152  0.0657  0.0256 -0.0942
    3TYR    SC3  336   5.283   3.102   8.238 -0.0253  0.0014 -0.0950
    1TYR     BB  337   1.965   7.056   2.917 -0.0373 -0.0547 -0.0898
    1TYR    SC1  338   2.023   6.921   3.179  0.1260  0.1250  0.0369
    1TYR    SC2  339   1.860   6.827   3.373 -0.0907  0.0574 -0.1716
    1TYR    SC3  340   2.127   6.827   3.409 -0.1234 -0.0222  0.0952
    2PHE     BB  341   1.618   7.077   2.959  0.1420  0.1886  0.0385
    2PHE    SC1  342   1.464   6.768   3.022 -0.4107  0.1128  0.0946
    2PHE    SC2  343   1.511   6.550   3.174 -0.2431  0.0586 -0.0315
    2PHE    SC3  344   1.364   6.529   2.948  0.1024 -0.0137 -0.2599
    3TYR     BB  345   1.425   7.368   2.836 -0.1170  0.0737 -0.0624
    3TYR    SC1  346   1.671   7.561   2.967  0.4848 -0.2286  0.1862
    3TYR    SC2  347   1.773   7.779   3.088 -0.3906  0.3374  0.0188
    3TYR    SC3  348   1.800   7.748   2.822  0.0420  0.0203  0.0877
    1TYR     BB  349   6.506   3.079   1.780 -0.0730 -0.1063  0.0940
    1TYR    SC1  350   6.697   2.869   1.716  0.0740  0.0289  0.0245
    1TYR    SC2  351   6.962   2.819   1.704  0.0293 -0.2299  0.0409
    1TYR    SC3  352   6.790   2.667   1.562 -0.0902  0.1466 -0.2375
    2PHE     BB  353   6.265   3.001   1.681  0.1737  0.2207  0.1600
    2PHE    SC1  354   6.122   2.802   1.867  0.0897  0.0593  0.1727
    2PHE    SC2  355   5.868   2.820   1.957 -0.0541 -0.4509 -0.0796
    2PHE    SC3  356   6.054   2.690   2.103 -0.0053 -0.3228 -0.0255
    3TYR     BB  357   6.120   3.044   1.434  0.1595  0.0217  0.0913
    3TYR    SC1  358   5.856   3.132   1.426 -0.0026 -0.0937  0.0545
    3TYR    SC2  359   5.595   3.100   1.366  0.0637 -0.4595 -0.0681
    3TYR    SC3  360   5.671   3.129   1.623 -0.1038 -0.2258 -0.0403
    1TYR     BB  361   0.290   4.796   1.163  0.0416 -0.0360 -0.0599
    1TYR    SC1  362   0.420   4.576   1.311  0.3057  0.2325  0.0555
    1TYR    SC2  363   0.368   4.361   1.465  0.0687  0.1871 -0.0814
    1TYR    SC3  364   0.615   4.471   1.466  0.2286 -0.1524 -0.0939
    2PHE     BB  365  -0.055   4.770   1.290 -0.3202  0.3823 -0.0129
    2PHE    SC1  366  -0.106   4.467   1.320 -0.5981  0.1003 -0.0807
    2PHE    SC2  367  -0.082   4.255   1.486  0.1099  0.0541 -0.2021
    2PHE    SC3  368  -0.122   4.215   1.222  0.4853  0.0423 -0.2639
    3TYR     BB  369  -0.241   4.940   1.463  0.1875  0.0473 -0.2845
    3TYR    SC1  370  -0.423   5.165   1.438  0.1743  0.2649  0.1589
    3TYR    SC2  371  -0.500   5.263   1.199 -0.1354 -0.0571  0.1172
    3TYR    SC3  372  -0.590   5.377   1.426 -0.1333  0.0275  0.0761
    1TYR     BB  373   5.704   6.760   7.095  0.0005 -0.0115 -0.2346
    1TYR    SC1  374   5.935   6.912   6.991  0.0875 -0.1341 -0.0614
    1TYR    SC2  375   6.063   7.148   7.017  0.2080 -0.2190  0.1472
    1TYR    SC3  376   6.058   7.022   6.778  0.2000 -0.0389  0.0508
    2PHE     BB  377   5.538   6.717   7.370 -0.0318 -0.0585 -0.1467
    2PHE    SC1  378   5.651   6.734   7.643 -0.1530 -0.0679  0.0402
    2PHE    SC2  379   5.812   6.880   7.803 -0.0522 -0.1342  0.0002
    2PHE    SC3  380   5.824   6.611   7.810 -0.2390 -0.1418  0.0757
    3TYR     BB  381   5.135   6.777   7.374  0.2058  0.3312  0.3348
    3TYR    SC1  382   5.137   6.835   7.074 -0.1145 -0.0716 -0.0100
    3TYR    SC2  383   5.276   6.798   6.845 -0.1734  0.1175 -0.0784
    3TYR    SC3  384   5.027   6.901   6.837 -0.1390  0.2181  0.0773
    1TYR     BB  385   5.427   0.971   1.513  0.0445  0.0587 -0.0478
    1TYR    SC1  386   5.172   1.121   1.446  0.0166 -0.1582  0.1670
    1TYR    SC2  387   4.962   1.256   1.342  0.2619  0.1896  0.0980
    1TYR    SC3  388   4.923   1.019   1.466 -0.1858  0.3099  0.2098
    2PHE     BB  389   5.284   0.645   1.372 -0.0428 -0.0997  0.1003
    2PHE    SC1  390   5.053   0.705   1.168 -0.4614 -0.0732  0.3631
    2PHE    SC2  391   4.950   0.602   0.940 -0.0698  0.2673  0.0093
    2PHE    SC3  392   4.788   0.726   1.118 -0.3948 -0.0717 -0.0331
    3TYR     BB  393   5.375   0.435   1.498  0.1749 -0.1592 -0.0593
    3TYR    SC1  394   5.582   0.504   1.757  0.0187  0.4191 -0.1579
    3TYR    SC2  395   5.552   0.643   1.987  0.0835 -0.1906  0.2513
    3TYR    SC3  396   5.764   0.479   1.956  0.0749 -0.1269 -0.2576
    1TYR     BB  397   6.745   1.380   1.260  0.0419 -0.2774 -0.1589
    1TYR    SC1  398   6.950   1.287   1.048 -0.0287 -0.1609  0.1500
    1TYR    SC2  399   7.150   1.109   1.081 -0.0025 -0.1981 -0.1687
    1TYR    SC3  400   7.143   1.265   0.861 -0.0837  0.1240  0.0531
    2PHE     BB  401   6.516   1.290   1.386 -0.1513  0.2648 -0.1598
    2PHE    SC1  402   6.286   1.479   1.348 -0.0673  0.1822 -0.2833
    2PHE    SC2  403   6.229   1.691   1.504 -0.3842 -0.1943  0.1458
    2PHE    SC3  404   6.095   1.654   1.273 -0.4482 -0.0195  0.1527
    3TYR     BB  405   6.401   1.134   1.689 -0.2980 -0.0505  0.0566
    3TYR    SC1  406   6.406   1.343   1.932  0.1512  0.1337  0.0203
    3TYR    SC2  407   6.254   1.420   2.142  0.0821 -0.3641  0.1675
    3TYR    SC3  408   6.522   1.397   2.170  0.1214 -0.0667  0.0819
    1TYR     BB  409   5.397   2.642   6.820 -0.2406 -0.1192 -0.2761
    1TYR    SC1  410   5.346   2.860   6.632  0.2081  0.3712 -0.0351
    1TYR    SC2  411   5.145   3.031   6.577  0.0172  0.0574 -0.3733
    1TYR    SC3  412   5.357   3.014   6.411  0.1771  0.1638 -0.1855
    2PHE     BB  413   5.489   2.834   7.122  0.2105 -0.0019  0.0351
    2PHE    SC1  414   5.353   3.097   7.057 -0.1123 -0.0044 -0.2214
    2PHE    SC2  415   5.238   3.334   6.997  0.0811  0.1395 -0.0418
    2PHE    SC3  416   5.089   3.109   7.002 -0.1669  0.3004  0.0648
    3TYR     BB  417   5.554   2.782   7.357 -0.3956 -0.0955  0.1844
    3TYR    SC1  418   5.612   2.573   7.566  0.0506  0.0083  0.0341
    3TYR    SC2  419   5.753   2.432   7.748  0.1742  0.2019  0.0929
    3TYR    SC3  420   5.571   2.308   7.592  0.1520  0.0120  0.2648
    1TYR     BB  421   6.712   2.633   0.617 -0.0861  0.0105  0.0762
    1TYR    SC1  422   6.703   2.598   0.910 -0.1869  0.2401 -0.0057
    1TYR    SC2  423   6.827   2.612   1.149 -0.1413 -0.0050 -0.0119
    1TYR    SC3  424   6.630   2.432   1.109 -0.1992  0.0846 -0.1375
    2PHE     BB  425   6.888   2.410   0.428 -0.0831 -0.1902  0.0157
    2PHE    SC1  426   7.082   2.294   0.677 -0.0891 -0.2807  0.0399
    2PHE    SC2  427   7.053   2.308   0.945  0.0091 -0.1155  0.0440
    2PHE    SC3  428   7.197   2.108   0.835  0.1909 -0.0377  0.1347
    3TYR     BB  429   7.015   2.225   0.201 -0.0541  0.0558  0.1840
    3TYR    SC1  430   7.142   2.298  -0.078  0.0315  0.1551  0.4441
    3TYR    SC2  431   7.336   2.480  -0.125 -0.0942  0.1758 -0.0628
    3TYR    SC3  432   7.184   2.388  -0.329 -0.0056 -0.5420  0.1581
    1TYR     BB  433   7.411   5.807   0.380 -0.2425  0.2777  0.2344
    1TYR    SC1  434   7.267   6.075   0.280  0.0078  0.0994  0.1979
    1TYR    SC2  435   7.195   6.302   0.153  0.4643  0.1084 -0.0747
    1TYR    SC3  436   7.220   6.299   0.422 -0.2811  0.1571  0.0233
    2PHE     BB  437   7.357   5.547   0.255  0.0987  0.2276 -0.2230
    2PHE    SC1  438   7.482   5.461   0.015  0.1799 -0.1202  0.2624
    2PHE    SC2  439   7.473   5.353  -0.232 -0.0986 -0.1000  0.2594
    2PHE    SC3  440   7.708   5.442  -0.132 -0.0317  0.1860 -0.1256
    3TYR     BB  441   7.317   5.246   0.423  0.1306  0.0633 -0.1086
    3TYR    SC1  442   7.307   5.037   0.200  0.0892 -0.1690 -0.2699
    3TYR    SC2  443   7.403   4.932  -0.029 -0.1024 -0.1850 -0.3447
    3TYR    SC3  444   7.162   4.855   0.065 -0.1145 -0.0296 -0.2443
    1TYR     BB  445   5.118   2.608   7.538  0.0539 -0.1028  0.3398
    1TYR    SC1  446   4.979   2.453   7.753  0.2994 -0.0117  0.1561
    1TYR    SC2  447   4.867   2.477   7.997 -0.0117  0.0540  0.0135
    1TYR    SC3  448   4.800   2.269   7.838  0.3918 -0.1393  0.0798
    2PHE     BB  449   5.118   2.541   7.252 -0.0048 -0.0863 -0.2094
    2PHE    SC1  450   4.991   2.661   7.017  0.0077 -0.5080 -0.1633
    2PHE    SC2  451   4.730   2.695   6.958 -0.0028 -0.2109  0.0270
    2PHE    SC3  452   4.908   2.652   6.760 -0.1042  0.2571 -0.1828
    3TYR     BB  453   5.316   2.300   7.176  0.0556 -0.3408  0.1962
    3TYR    SC1  454   5.304   2.156   6.920 -0.0119  0.0052 -0.1601
    3TYR    SC2  455   5.408   2.153   6.671 -0.1057  0.2067 -0.2035
    3TYR    SC3  456   5.140   2.160   6.706 -0.1008 -0.0423 -0.0936
    1TYR     BB  457   5.170   6.564   0.722  0.1007 -0.2120  0.2077
    1TYR    SC1  458   5.052   6.343   0.525 -0.0158 -0.2485  0.0687
    1TYR    SC2  459   4.836   6.248   0.394 -0.0572  0.1027 -0.1331
    1TYR    SC3  460   5.084   6.174   0.316 -0.0944 -0.1794 -0.0001
    2PHE     BB  461   5.478   6.634   0.623 -0.0301 -0.0416 -0.0525
    2PHE    SC1  462   5.494   6.880   0.447 -0.0689  0.0399  0.0316
    2PHE    SC2  463   5.379   6.961   0.217 -0.3661 -0.0970  0.1260
    2PHE    SC3  464   5.472   7.143   0.392 -0.2879  0.0125 -0.0267
    3TYR     BB  465   5.639   6.563   0.866 -0.4071 -0.2940 -0.1913
    3TYR    SC1  466   5.540   6.762   1.119  0.0173 -0.3121  0.2431
    3TYR    SC2  467   5.334   6.901   1.224  0.0474 -0.0299 -0.0534
    3TYR    SC3  468   5.509   6.777   1.387 -0.0120  0.2350  0.2240
    1TYR     BB  469   7.470   6.088   0.805 -0.0098 -0.4183 -0.2340
    1TYR    SC1  470   7.366   5.793   0.889 -0.1480 -0.1130  0.0335
    1TYR    SC2  471   7.336   5.525   0.876 -0.2675 -0.0905 -0.2450
    1TYR    SC3  472   7.133   5.679   0.966 -0.1546 -0.0979  0.0359
    2PHE     BB  473   7.791   6.091   0.611  0.0690  0.1911 -0.1269
    2PHE    SC1  474   7.691   6.209   0.359 -0.1513 -0.2882 -0.0514
    2PHE    SC2  475   7.693   6.182   0.090 -0.0560 -0.1389 -0.0670
    2PHE    SC3  476   7.722   6.426   0.202  0.4011 -0.2499  0.0856
    3TYR     BB  477   8.113   5.984   0.765  0.0705 -0.0823 -0.1079
    3TYR    SC1  478   8.028   5.828   1.041  0.1710 -0.2750  0.0223
    3TYR    SC2  479   7.766   5.800   1.101  0.1712 -0.0381  0.1464
    3TYR    SC3  480   7.954   5.683   1.256  0.1373 -0.3739 -0.0549
    1TYR     BB  481   6.790   1.751   3.014  0.2425 -0.0435  0.2228
    1TYR    SC1  482   6.702   1.986   3.166  0.1523  0.3794 -0.0290
    1TYR    SC2  483   6.771   2.065   3.415  0.0179  0.0633  0.1145
    1TYR    SC3  484   6.543   2.156   3.302  0.0230  0.1213  0.1507
    2PHE     BB  485   7.003   1.563   2.847  0.1542  0.1888 -0.2219
    2PHE    SC1  486   7.043   1.286   2.955  0.0594  0.1543  0.1653
    2PHE    SC2  487   6.936   1.038   2.950 -0.3614  0.3270  0.0526
    2PHE    SC3  488   7.148   1.090   3.108 -0.1420 -0.1455 -0.0640
    3TYR     BB  489   7.188   1.623   2.647  0.3442  0.0428 -0.2138
    3TYR    SC1  490   7.472   1.723   2.709  0.1585 -0.0507  0.0163
    3TYR    SC2  491   7.690   1.794   2.851  0.0049  0.2800  0.0999
    3TYR    SC3  492   7.703   1.779   2.582  0.1348  0.2742  0.1059
    1TYR     BB  493   6.597   2.637   2.608 -0.1388 -0.1935 -0.3437
    1TYR    SC1  494   6.480   2.702   2.922  0.1910 -0.0845 -0.2186
    1TYR    SC2  495   6.376   2.649   3.166  0.2493 -0.1132 -0.1996
    1TYR    SC3  496   6.339   2.892   3.053  0.1857 -0.1140 -0.1812
    2PHE     BB  497   6.632   2.266   2.549 -0.1365  0.1534  0.0125
    2PHE    SC1  498   6.504   2.209   2.815 -0.1022  0.2402 -0.3484
    2PHE    SC2  499   6.320   2.019   2.869  0.1608  0.1091  0.1628
    2PHE    SC3  500   6.273   2.276   2.937  0.2858  0.0223  0.6268
    3TYR     BB  501   6.880   2.033   2.610 -0.1100  0.2900  0.1101
    3TYR    SC1  502   7.144   2.180   2.583 -0.0346  0.0295  0.2011
    3TYR    SC2  503   7.405   2.175   2.651 -0.0693  0.2997  0.3744
    3TYR    SC3  504   7.301   2.393   2.530 -0.0724 -0.0577 -0.3288
    1TYR     BB  505   6.681   2.973   0.275 -0.2615 -0.3038 -0.0533
    1TYR    SC1  506   6.503   2.980   0.014 -0.0193  0.4089  0.1379
    1TYR    SC2  507   6.448   3.171  -0.168 -0.2425  0.1577 -0.0688
    1TYR    SC3  508   6.526   2.926  -0.249 -0.0642  0.1246  0.1882
    2PHE     BB  509   7.005   2.825   0.147 -0.0264 -0.0683  0.0008
    2PHE    SC1  510   6.913   2.711  -0.102  0.0013  0.0062  0.3688
    2PHE    SC2  511   6.744   2.501  -0.090  0.1388 -0.1300  0.0502
    2PHE    SC3  512   6.803   2.613  -0.329  0.0650  0.2778  0.2147
    3TYR     BB  513   7.272   2.948   0.140  0.3072  0.0738  0.0525
    3TYR    SC1  514   7.460   3.137   0.183 -0.0655  0.0018 -0.2826
    3TYR    SC2  515   7.580   3.343   0.309 -0.0234 -0.3388  0.2758
    3TYR    SC3  516   7.725   3.180   0.151 -0.1029  0.1720 -0.3748
    1TYR     BB  517   5.858   4.705   0.247  0.4660 -0.0711 -0.4056
    1TYR    SC1  518   5.681   4.626   0.011  0.2917 -0.1333 -0.3405
    1TYR    SC2  519   5.492   4.673  -0.175 -0.1546  0.0596  0.1310
    1TYR    SC3  520   5.450   4.487   0.016  0.2579 -0.0809  0.0974
    2PHE     BB  521   5.991   4.459   0.433 -0.0975  0.1313  0.0430
    2PHE    SC1  522   6.304   4.335   0.451 -0.0445  0.2966 -0.3443
    2PHE    SC2  523   6.548   4.325   0.335  0.1103  0.0374 -0.0158
    2PHE    SC3  524   6.409   4.097   0.379 -0.2022  0.1827 -0.2082
    3TYR     BB  525   5.954   4.397   0.817  0.0645  0.2959 -0.1472
    3TYR    SC1  526   5.716   4.222   0.767 -0.4891  0.3013 -0.0183
    3TYR    SC2  527   5.643   3.987   0.656  0.2623 -0.1484  0.3392
    3TYR    SC3  528   5.543   4.060   0.896  0.0352 -0.0944  0.2323
    1TYR     BB  529   6.355   0.399   7.419  0.2670  0.1448  0.0942
    1TYR    SC1  530   6.078   0.521   7.465 -0.0556 -0.0830  0.1422
    1TYR    SC2  531   5.855   0.438   7.593 -0.2263  0.3477  0.1434
    1TYR    SC3  532   5.837   0.547   7.347  0.0056  0.2486  0.0792
    2PHE     BB  533   6.388   0.279   7.145  0.2468  0.0467 -0.1637
    2PHE    SC1  534   6.322   0.315   6.847 -0.2291  0.0037 -0.0404
    2PHE    SC2  535   6.144   0.319   6.645 -0.2727  0.0442 -0.0016
    2PHE    SC3  536   6.405   0.274   6.594 -0.2829  0.0576 -0.0673
    3TYR     BB  537   6.413  -0.106   7.137  0.0728  0.0517 -0.1816
    3TYR    SC1  538   6.523  -0.157   7.408  0.0551 -0.1435  0.1752
    3TYR    SC2  539   6.520  -0.345   7.602 -0.0298 -0.1082  0.2086
    3TYR    SC3  540   6.752  -0.227   7.532  0.0091 -0.1585  0.2525
    1TYR     BB  541   5.611   5.499   7.079 -0.3438  0.0215  0.2863
    1TYR    SC1  542   5.714   5.309   6.856 -0.0663  0.2126 -0.0383
    1TYR    SC2  543   5.861   5.202   6.657 -0.1548 -0.0225  0.0194
    1TYR    SC3  544   5.591   5.195   6.645 -0.1610 -0.0564  0.1552
    2PHE     BB  545   5.716   5.811   7.077  0.1990 -0.1108  0.0642
    2PHE    SC1  546   5.463   5.950   7.130 -0.1032  0.0639 -0.1122
    2PHE    SC2  547   5.204   5.881   7.097 -0.1235  0.1922 -0.2309
    2PHE    SC3  548   5.273   6.055   7.291 -0.0878 -0.0565 -0.0128
    3TYR     BB  549   5.969   5.792   6.864  0.0231 -0.2308 -0.1137
    3TYR    SC1  550   6.022   5.646   6.640 -0.0562 -0.0118 -0.0164
    3TYR    SC2  551   6.209   5.542   6.474  0.1224  0.1956  0.0485
    3TYR    SC3  552   5.950   5.551   6.398  0.1100 -0.2238  0.0131
    1TYR     BB  553   7.019   4.759   0.574 -0.1742  0.1795 -0.1176
    1TYR    SC1  554   7.249   4.659   0.415 -0.0968 -0.0520 -0.0631
    1TYR    SC2  555   7.391   4.512   0.237 -0.0724 -0.1226  0.0137
    1TYR    SC3  556   7.514   4.703   0.383 -0.0738 -0.1259  0.0192
    2PHE     BB  557   6.787   4.620   0.657  0.0008 -0.0544  0.1579
    2PHE    SC1  558   6.551   4.766   0.763  0.1553  0.3408  0.0675
    2PHE    SC2  559   6.404   4.843   0.976  0.0499 -0.2233  0.2192
    2PHE    SC3  560   6.287   4.710   0.772  0.2157  0.0083 -0.0346
    3TYR     BB  561   6.718   4.334   0.811  0.1241 -0.2834 -0.0606
    3TYR    SC1  562   6.564   4.403   1.078  0.0745 -0.2837  0.0090
    3TYR    SC2  563   6.546   4.509   1.325  0.1534  0.0412 -0.1177
    3TYR    SC3  564   6.323   4.428   1.197  0.1173 -0.1768  0.0753
    1TYR     BB  565   0.790   5.618   0.712 -0.3137 -0.1301 -0.1964
    1TYR    SC1  566   0.930   5.839   0.678  0.2135  0.1112  0.1114
    1TYR    SC2  567   0.897   6.080   0.559  0.1901  0.1008  0.0968
    1TYR    SC3  568   1.080   6.050   0.755  0.2723  0.1029  0.0213
    2PHE     BB  569   0.831   5.308   0.465  0.0489 -0.0054 -0.0170
    2PHE    SC1  570   0.615   5.149   0.560 -0.0037  0.0621  0.0604
    2PHE    SC2  571   0.668   4.961   0.746  0.1427  0.3346  0.3062
    2PHE    SC3  572   0.427   5.084   0.742  0.1526  0.3550  0.3395
    3TYR     BB  573   1.060   5.336   0.375  0.1983  0.0919 -0.0947
    3TYR    SC1  574   1.287   5.119   0.348 -0.3843 -0.3323 -0.1758
    3TYR    SC2  575   1.438   4.975   0.177 -0.1619  0.0572 -0.3226
    3TYR    SC3  576   1.471   4.945   0.443 -0.0814 -0.1205 -0.3508
    1TYR     BB  577   6.112   0.312   0.380 -0.1918 -0.1123  0.2900
    1TYR    SC1  578   6.321   0.409   0.554 -0.2304  0.0258 -0.1368
    1TYR    SC2  579   6.431   0.645   0.624 -0.2013  0.0031 -0.1053
    1TYR    SC3  580   6.413   0.446   0.805 -0.0620 -0.0803 -0.1811
    2PHE     BB  581   6.272   0.116   0.175 -0.1639  0.0557  0.0231
    2PHE    SC1  582   6.146  -0.020  -0.038 -0.1689  0.1485  0.1359
    2PHE    SC2  583   5.966   0.051  -0.227 -0.1453  0.2581  0.1534
    2PHE    SC3  584   6.042  -0.207  -0.202 -0.2018  0.2318  0.0603
    3TYR     BB  585   6.522   0.048   0.296 -0.0100 -0.2666 -0.1558
    3TYR    SC1  586   6.727   0.204   0.417 -0.0684 -0.0528  0.0221
    3TYR    SC2  587   6.994   0.212   0.454 -0.0651  0.2287 -0.0301
    3TYR    SC3  588   6.833   0.367   0.605 -0.2065  0.0237  0.0354
    1TYR     BB  589   6.821   5.140   0.320 -0.0614 -0.2333  0.1563
    1TYR    SC1  590   6.563   4.944   0.315  0.1421 -0.2493  0.1822
    1TYR    SC2  591   6.314   4.850   0.363 -0.0267  0.0433 -0.0743
    1TYR    SC3  592   6.458   4.754   0.155  0.0477 -0.0719  0.0286
    2PHE     BB  593   6.890   5.340   0.144 -0.2015  0.2756 -0.0336
    2PHE    SC1  594   6.889   5.605   0.300  0.0803  0.1320 -0.0843
    2PHE    SC2  595   6.953   5.620   0.562 -0.1334  0.0739 -0.0262
    2PHE    SC3  596   6.800   5.812   0.449 -0.2689 -0.0402 -0.0402
    3TYR     BB  597   7.036   5.359  -0.090 -0.1951 -0.1602 -0.1100
    3TYR    SC1  598   6.989   5.431  -0.367 -0.0942 -0.1132 -0.1824
    3TYR    SC2  599   6.965   5.614  -0.564  0.1097 -0.0898 -0.1881
    3TYR    SC3  600   6.836   5.378  -0.583  0.0602 -0.0542 -0.3087
    1TYR     BB  601   5.411   1.254   6.882 -0.0302 -0.1662  0.1826
    1TYR    SC1  602   5.281   1.154   6.576  0.1501  0.0582 -0.0878
    1TYR    SC2  603   5.189   0.991   6.382  0.0307  0.1907 -0.1442
    1TYR    SC3  604   5.159   1.259   6.359  0.0547  0.2101  0.0365
    2PHE     BB  605   5.331   1.512   6.975  0.0810 -0.0999  0.0908
    2PHE    SC1  606   5.451   1.648   7.205 -0.0079  0.0733 -0.2870
    2PHE    SC2  607   5.503   1.882   7.328 -0.0652  0.0468 -0.2113
    2PHE    SC3  608   5.702   1.704   7.288 -0.0912 -0.0534  0.0741
    3TYR     BB  609   5.078   1.645   6.857 -0.3078 -0.0983  0.6688
    3TYR    SC1  610   4.847   1.473   6.700 -0.1436 -0.0320 -0.3119
    3TYR    SC2  611   4.841   1.203   6.711  0.0239 -0.0421 -0.4269
    3TYR    SC3  612   4.652   1.336   6.571 -0.2040 -0.0834 -0.1687
    1TYR     BB  613   7.072   3.496   6.845  0.2214  0.3295 -0.0955
    1TYR    SC1  614   7.291   3.292   6.934  0.2164 -0.0005 -0.3756
    1TYR    SC2  615   7.529   3.394   7.009  0.1325  0.1076 -0.2505
    1TYR    SC3  616   7.510   3.134   6.939  0.1983 -0.0366  0.2202
    2PHE     BB  617   7.022   3.690   7.210 -0.2514  0.1441 -0.1043
    2PHE    SC1  618   7.280   3.578   7.380 -0.0843  0.0717 -0.0636
    2PHE    SC2  619   7.478   3.421   7.474 -0.1668 -0.2510 -0.4023
    2PHE    SC3  620   7.301   3.531   7.645  0.0786 -0.2651 -0.1294
    3TYR     BB  621   7.006   4.002   7.282  0.3626 -0.2544 -0.0279
    3TYR    SC1  622   7.041   4.216   7.098 -0.1101 -0.1378 -0.0173
    3TYR    SC2  623   7.194   4.250   6.879 -0.0144  0.0799  0.0798
    3TYR    SC3  624   6.993   4.422   6.931 -0.0870 -0.0169  0.1228
    1TYR     BB  625   5.507   1.049   1.044  0.0448  0.3552  0.2665
    1TYR    SC1  626   5.258   1.078   0.952  0.0352  0.3548 -0.0517
    1TYR    SC2  627   5.122   1.011   0.728 -0.2911  0.0201  0.2304
    1TYR    SC3  628   4.993   1.128   0.935  0.0435  0.4970  0.1887
    2PHE     BB  629   5.688   1.295   1.200 -0.3621  0.0422  0.1885
    2PHE    SC1  630   5.752   1.545   1.017  0.0229  0.2270  0.3362
    2PHE    SC2  631   5.719   1.800   0.935  0.0589  0.1364  0.0234
    2PHE    SC3  632   5.913   1.647   0.826  0.0904 -0.0026  0.2660
    3TYR     BB  633   5.945   1.121   1.326 -0.2780  0.1338 -0.1255
    3TYR    SC1  634   5.863   0.835   1.332 -0.0138 -0.1417 -0.2376
    3TYR    SC2  635   5.748   0.620   1.218 -0.2395 -0.2363  0.1449
    3TYR    SC3  636   5.860   0.599   1.462  0.2069 -0.0354 -0.0298
    1TYR     BB  637   6.525   1.155   3.268  0.0949 -0.0752  0.0311
    1TYR    SC1  638   6.697   1.364   3.377 -0.2156  0.1678 -0.0742
    1TYR    SC2  639   6.955   1.436   3.415 -0.0626 -0.4260  0.1628
    1TYR    SC3  640   6.765   1.512   3.592 -0.0437 -0.0622  0.0364
    2PHE     BB  641   6.406   1.267   3.000 -0.2338  0.1788 -0.1682
    2PHE    SC1  642   6.127   1.213   3.044 -0.0594  0.4820  0.0892
    2PHE    SC2  643   5.947   1.067   3.182  0.0301  0.4540  0.1777
    2PHE    SC3  644   5.864   1.229   2.983 -0.0630  0.2234  0.0237
    3TYR     BB  645   6.533   1.415   2.757  0.0655  0.0226 -0.0891
    3TYR    SC1  646   6.428   1.642   2.625 -0.1781  0.2056 -0.1409
    3TYR    SC2  647   6.434   1.809   2.413 -0.4712  0.4055 -0.0006
    3TYR    SC3  648   6.197   1.733   2.519 -0.3557 -0.2064 -0.1315
    1TYR     BB  649   7.151   4.183   0.556  0.8686 -0.1961 -0.0193
    1TYR    SC1  650   6.981   4.308   0.322 -0.1655  0.3401 -0.1514
    1TYR    SC2  651   6.936   4.283   0.057 -0.1296 -0.2091 -0.1182
    1TYR    SC3  652   6.913   4.524   0.175 -0.1330  0.0503 -0.6172
    2PHE     BB  653   7.279   4.275   0.807 -0.3582  0.0216 -0.1385
    2PHE    SC1  654   7.143   4.130   1.067  0.2340  0.0202  0.2067
    2PHE    SC2  655   6.920   4.152   1.217  0.3213  0.4151  0.2937
    2PHE    SC3  656   7.114   3.978   1.288  0.0018 -0.0250  0.1491
    3TYR     BB  657   7.450   4.474   0.832  0.0576  0.0254  0.4089
    3TYR    SC1  658   7.433   4.775   0.817 -0.3910 -0.0772 -0.2427
    3TYR    SC2  659   7.592   4.988   0.769 -0.0107 -0.3665 -0.3304
    3TYR    SC3  660   7.353   5.022   0.891  0.2871  0.0443  0.1953
    1TYR     BB  661   6.522   7.216   0.485 -0.2821  0.1428 -0.1767
    1TYR    SC1  662   6.825   7.258   0.411  0.2871  0.2001  0.1062
    1TYR    SC2  663   6.936   7.455   0.264  0.0359  0.0102 -0.3635
    1TYR    SC3  664   7.091   7.259   0.366  0.1925  0.0028 -0.6062
    2PHE     BB  665   6.349   7.075   0.774 -0.0596 -0.1082 -0.1578
    2PHE    SC1  666   6.115   6.970   0.654 -0.0889  0.1872  0.0467
    2PHE    SC2  667   5.969   6.763   0.562  0.0329  0.0327  0.1924
    2PHE    SC3  668   5.854   7.005   0.596 -0.1352 -0.0335  0.1100
    3TYR     BB  669   6.469   6.952   0.998  0.0925  0.1527  0.3133
    3TYR    SC1  670   6.807   7.015   0.971 -0.1629  0.2783  0.0131
    3TYR    SC2  671   7.071   7.002   1.028 -0.1220  0.0206 -0.2099
    3TYR    SC3  672   6.985   7.147   0.817 -0.1830  0.2639 -0.0226
    1TYR     BB  673   5.258   1.217   7.372  0.0479  0.0555  0.0487
    1TYR    SC1  674   5.303   0.928   7.482  0.1099 -0.0082 -0.0009
    1TYR    SC2  675   5.442   0.765   7.646 -0.1949 -0.2104  0.0671
    1TYR    SC3  676   5.319   0.664   7.428 -0.1121 -0.0092 -0.0765
    2PHE     BB  677   4.999   1.155   7.166  0.1814 -0.0781 -0.0994
    2PHE    SC1  678   4.676   1.150   7.154  0.1996  0.0840 -0.1529
    2PHE    SC2  679   4.412   1.096   7.142  0.2215 -0.1242  0.1555
    2PHE    SC3  680   4.501   1.294   7.302  0.2416  0.0738 -0.0928
    3TYR     BB  681   5.143   0.874   7.032 -0.0432  0.1844 -0.1812
    3TYR    SC1  682   5.183   0.759   6.789 -0.3481 -0.1628  0.2605
    3TYR    SC2  683   5.102   0.614   6.576 -0.1453 -0.2016  0.2070
    3TYR    SC3  684   5.361   0.609   6.652 -0.1052  0.2279  0.1289
    1TYR     BB  685   0.239   4.634   0.689 -0.1557 -0.2058  0.2079
    1TYR    SC1  686   0.287   4.419   0.848  0.1592 -0.0848 -0.1926
    1TYR    SC2  687   0.422   4.247   1.006  0.0090 -0.0328 -0.0020
    1TYR    SC3  688   0.175   4.183   0.917 -0.0737  0.1073  0.1221
    2PHE     BB  689   0.442   4.604   0.381 -0.1458 -0.0079 -0.0328
    2PHE    SC1  690   0.643   4.400   0.504  0.1964 -0.1224 -0.1339
    2PHE    SC2  691   0.675   4.178   0.655  0.3134  0.1648  0.2878
    2PHE    SC3  692   0.889   4.332   0.593  0.2363  0.1595 -0.0128
    3TYR     BB  693   0.595   4.817   0.232 -0.2226  0.3498  0.2814
    3TYR    SC1  694   0.891   4.778   0.331  0.1488 -0.2617  0.1662
    3TYR    SC2  695   1.048   4.755   0.549  0.1704 -0.2851  0.1484
    3TYR    SC3  696   1.135   4.664   0.310  0.1888 -0.1671  0.1093
    1TYR     BB  697   6.491   1.609   0.371 -0.0300 -0.1693  0.1721
    1TYR    SC1  698   6.723   1.664   0.510  0.1617 -0.1344 -0.0532
    1TYR    SC2  699   6.905   1.845   0.592 -0.0418 -0.0182  0.1572
    1TYR    SC3  700   6.842   1.636   0.751  0.1497 -0.2496 -0.0598
    2PHE     BB  701   6.499   1.237   0.448  0.4871 -0.0938  0.2908
    2PHE    SC1  702   6.193   1.253   0.599  0.0583 -0.2138  0.1191
    2PHE    SC2  703   5.935   1.261   0.678  0.0737 -0.0817  0.1581
    2PHE    SC3  704   6.131   1.219   0.859  0.0754 -0.2572  0.1177
    3TYR     BB  705   6.730   1.135   0.418 -0.5363 -0.0184 -0.1773
    3TYR    SC1  706   6.992   1.274   0.403 -0.3410  0.0060 -0.1812
    3TYR    SC2  707   7.250   1.289   0.324 -0.1739 -0.2731  0.2615
    3TYR    SC3  708   7.143   1.486   0.474 -0.3512  0.0308 -0.2332
    1TYR     BB  709   6.247   0.967   7.279  0.0386 -0.0026  0.2698
    1TYR    SC1  710   6.527   0.821   7.189 -0.0287  0.1263  0.4298
    1TYR    SC2  711   6.707   0.664   7.315  0.2493  0.2927  0.2536
    1TYR    SC3  712   6.792   0.861   7.151 -0.0984  0.3395  0.1197
    2PHE     BB  713   6.411   0.957   7.625 -0.0807 -0.1482  0.2936
    2PHE    SC1  714   6.727   0.995   7.609 -0.1587  0.1326 -0.2081
    2PHE    SC2  715   6.904   1.198   7.632  0.0200 -0.0370 -0.0317
    2PHE    SC3  716   6.992   0.944   7.611 -0.2038 -0.1224  0.0283
    3TYR     BB  717   6.365   0.724   7.815  0.1756  0.0382  0.0464
    3TYR    SC1  718   6.645   0.607   7.891  0.0210  0.0294  0.0762
    3TYR    SC2  719   6.890   0.673   7.984  0.1325 -0.2234 -0.0268
    3TYR    SC3  720   6.866   0.534   7.754 -0.1261  0.1463 -0.2373
    1TYR     BB  721   6.065   1.420   4.182  0.0991 -0.0435  0.1436
    1TYR    SC1  722   6.215   1.490   4.430  0.2160  0.2550 -0.2269
    1TYR    SC2  723   6.441   1.451   4.572  0.0146  0.1359  0.0743
    1TYR    SC3  724   6.307   1.685   4.593 -0.1911  0.0006  0.3520
    2PHE     BB  725   5.887   1.609   3.996 -0.0438  0.1983  0.1092
    2PHE    SC1  726   5.606   1.537   3.976 -0.1738 -0.1610  0.1716
    2PHE    SC2  727   5.347   1.473   3.933 -0.1828 -0.2440  0.3365
    2PHE    SC3  728   5.410   1.674   4.101 -0.1474  0.0341  0.0042
    3TYR     BB  729   6.063   1.908   4.128  0.3366  0.0486 -0.3463
    3TYR    SC1  730   6.199   2.039   3.934  0.4324 -0.4424  0.2210
    3TYR    SC2  731   6.408   2.003   3.766  0.4101 -0.0156  0.0876
    3TYR    SC3  732   6.321   2.253   3.822 -0.1542 -0.1832  0.0308
    1TYR     BB  733   6.340   6.650   0.323 -0.2567 -0.1343  0.0259
    1TYR    SC1  734   6.489   6.632   0.566 -0.1214  0.1661 -0.0248
    1TYR    SC2  735   6.666   6.548   0.751  0.0087  0.3503 -0.0620
    1TYR    SC3  736   6.717   6.771   0.608  0.0876  0.0241 -0.5752
    2PHE     BB  737   6.453   6.855   0.122 -0.0826 -0.1442  0.3448
    2PHE    SC1  738   6.224   6.893  -0.072 -0.1338  0.2695  0.1298
    2PHE    SC2  739   6.101   6.707  -0.225  0.1275  0.0702  0.1520
    2PHE    SC3  740   6.008   6.961  -0.218 -0.4042 -0.1130  0.3308
    3TYR     BB  741   6.710   6.913   0.030 -0.2503  0.2344  0.0694
    3TYR    SC1  742   6.946   6.807   0.226 -0.1707 -0.0004  0.0541
    3TYR    SC2  743   7.110   6.807   0.440  0.0761 -0.1733 -0.1276
    3TYR    SC3  744   7.212   6.769   0.193 -0.1795  0.1875 -0.2991
    1TYR     BB  745   4.693   4.236   7.615 -0.0398 -0.0291  0.0454
    1TYR    SC1  746   4.807   4.194   7.353  0.1446 -0.1182  0.2246
    1TYR    SC2  747   4.831   4.250   7.090 -0.3222 -0.0407  0.1884
    1TYR    SC3  748   5.025   4.111   7.216  0.0170  0.1141 -0.1373
    2PHE     BB  749   4.941   4.406   7.855  0.1546 -0.1571  0.2313
    2PHE    SC1  750   5.152   4.188   7.772 -0.2804 -0.2393  0.0867
    2PHE    SC2  751   5.074   3.947   7.677 -0.2253 -0.2095 -0.0348
    2PHE    SC3  752   5.319   4.044   7.616 -0.3277 -0.0261 -0.1694
    3TYR     BB  753   5.025   4.648   7.974 -0.4333  0.0649 -0.0571
    3TYR    SC1  754   5.194   4.863   7.817  0.3465 -0.1013 -0.1146
    3TYR    SC2  755   5.260   5.036   7.621 -0.0872  0.2522  0.0321
    3TYR    SC3  756   5.431   4.993   7.826  0.0661  0.4388 -0.0525
    1TYR     BB  757   7.366   4.068   0.054  0.2573  0.2271  0.0812
    1TYR    SC1  758   7.479   4.068  -0.231 -0.2089 -0.0495 -0.1513
    1TYR    SC2  759   7.605   3.884  -0.383  0.4087  0.0791  0.1646
    1TYR    SC3  760   7.609   4.144  -0.455  0.2213  0.0709  0.1213
    2PHE     BB  761   7.493   3.856   0.285 -0.1398 -0.1739 -0.1214
    2PHE    SC1  762   7.749   3.748   0.144  0.2886  0.3586 -0.0809
    2PHE    SC2  763   7.943   3.560   0.130 -0.1367 -0.1167  0.0364
    2PHE    SC3  764   7.897   3.723  -0.080  0.3121 -0.0607 -0.0300
    3TYR     BB  765   7.320   3.745   0.463 -0.0185 -0.0825  0.1263
    3TYR    SC1  766   7.330   3.767   0.758  0.1384 -0.2213 -0.0031
    3TYR    SC2  767   7.309   3.698   1.018 -0.1447 -0.0295  0.0297
    3TYR    SC3  768   7.525   3.834   0.932 -0.2129  0.2267  0.2459
    1TYR     BB  769   6.045   4.350   7.140  0.1534 -0.0653  0.1736
    1TYR    SC1  770   5.955   4.604   7.026  0.1037  0.0594  0.1430
    1TYR    SC2  771   5.998   4.842   6.907 -0.0784 -0.0965 -0.2583
    1TYR    SC3  772   5.833   4.826   7.120 -0.1299  0.1221 -0.2784
    2PHE     BB  773   5.845   4.290   7.372  0.1037 -0.2909  0.0814
    2PHE    SC1  774   5.814   4.186   7.648 -0.6637 -0.0606 -0.3365
    2PHE    SC2  775   5.680   4.110   7.870 -0.0685 -0.3601 -0.0503
    2PHE    SC3  776   5.737   3.929   7.678  0.0078 -0.2612 -0.1225
    3TYR     BB  777   5.558   4.264   7.239 -0.0974  0.0176  0.2400
    3TYR    SC1  778   5.510   4.474   7.017  0.1295  0.1030  0.1581
    3TYR    SC2  779   5.531   4.642   6.807  0.0997 -0.2202 -0.1125
    3TYR    SC3  780   5.302   4.505   6.848 -0.0504  0.1444  0.3800
    1TYR     BB  781   5.780   4.858   0.714 -0.0721 -0.1301 -0.3721
    1TYR    SC1  782   5.695   5.096   0.925 -0.4144  0.1178 -0.0738
    1TYR    SC2  783   5.692   5.321   1.074 -0.0226  0.1147 -0.0488
    1TYR    SC3  784   5.484   5.150   1.085 -0.0914  0.2113  0.3436
    2PHE     BB  785   5.470   4.681   0.617 -0.0475 -0.3477  0.0021
    2PHE    SC1  786   5.308   4.933   0.621  0.2697 -0.2185  0.1246
    2PHE    SC2  787   5.348   5.200   0.633 -0.1720 -0.1328 -0.0655
    2PHE    SC3  788   5.162   5.084   0.791 -0.1828 -0.2812 -0.1839
    3TYR     BB  789   5.378   4.383   0.509 -0.0065 -0.1311 -0.0414
    3TYR    SC1  790   5.207   4.370   0.795  0.2578  0.1057  0.0901
    3TYR    SC2  791   5.028   4.167   0.804  0.2651  0.1019  0.1557
    3TYR    SC3  792   5.118   4.279   1.033  0.1334  0.2921  0.1181
    1TYR     BB  793   5.925   7.377   0.882 -0.1514 -0.1650  0.2531
    1TYR    SC1  794   5.616   7.344   0.806 -0.1938  0.2348  0.0024
    1TYR    SC2  795   5.353   7.361   0.744 -0.1710  0.0896 -0.1423
    1TYR    SC3  796   5.451   7.136   0.856 -0.1871  0.3002  0.3242
    2PHE     BB  797   6.127   7.536   0.690 -0.1197 -0.4475  0.0824
    2PHE    SC1  798   6.066   7.372   0.418  0.1430  0.3223 -0.4186
    2PHE    SC2  799   6.120   7.208   0.210 -0.1665 -0.3339 -0.0245
    2PHE    SC3  800   5.867   7.290   0.255 -0.0033  0.4171 -0.2910
    3TYR     BB  801   6.346   7.606   0.828 -0.1284 -0.4544 -0.2792
    3TYR    SC1  802   6.636   7.707   0.826 -0.1017  0.2791  0.0646
    3TYR    SC2  803   6.889   7.615   0.808 -0.2468 -0.1543  0.0917
    3TYR    SC3  804   6.821   7.783   1.007 -0.0263 -0.1944  0.2048
    1TYR     BB  805   6.127   6.261   0.076 -0.0027 -0.0205 -0.0346
    1TYR    SC1  806   6.321   6.363  -0.127 -0.2669  0.2593  0.1795
    1TYR    SC2  807   6.471   6.519  -0.289 -0.0817  0.0730  0.1664
    1TYR    SC3  808   6.506   6.251  -0.289 -0.2441  0.0490  0.3452
    2PHE     BB  809   5.847   6.228  -0.085 -0.0288  0.4343  0.1673
    2PHE    SC1  810   5.677   5.981  -0.017  0.0478  0.0351  0.0821
    2PHE    SC2  811   5.654   5.725  -0.100 -0.0933  0.0192  0.1670
    2PHE    SC3  812   5.439   5.855  -0.001 -0.0373  0.1914  0.0675
    3TYR     BB  813   5.816   6.309  -0.326 -0.0210 -0.0054 -0.1787
    3TYR    SC1  814   6.105   6.288  -0.516  0.2252  0.0998 -0.0763
    3TYR    SC2  815   6.204   6.469  -0.690  0.0642  0.0463 -0.2278
    3TYR    SC3  816   6.262   6.207  -0.720  0.1691  0.0542 -0.1020
    1TYR     BB  817   0.591   5.261   1.143  0.0191  0.2253 -0.1446
    1TYR    SC1  818   0.305   5.253   1.158  0.3213 -0.0538 -0.1382
    1TYR    SC2  819   0.078   5.247   1.303  0.4571 -0.2232  0.0758
    1TYR    SC3  820   0.073   5.338   1.049  0.2364  0.2090  0.2212
    2PHE     BB  821   0.753   5.020   1.284 -0.0696  0.0988 -0.1560
    2PHE    SC1  822   0.812   4.751   1.169  0.0347 -0.4293  0.1683
    2PHE    SC2  823   0.759   4.604   0.948 -0.1227 -0.0086 -0.0889
    2PHE    SC3  824   1.014   4.636   1.031 -0.0689 -0.2399 -0.1563
    3TYR     BB  825   1.054   5.168   1.403 -0.2682 -0.1412  0.1026
    3TYR    SC1  826   1.235   4.930   1.403  0.0484  0.0379 -0.0742
    3TYR    SC2  827   1.264   4.662   1.396  0.0723  0.0396 -0.0430
    3TYR    SC3  828   1.466   4.817   1.486  0.1566  0.0858 -0.3015
    1TYR     BB  829   6.496   3.559   1.886  0.2517  0.2153  0.2852
    1TYR    SC1  830   6.460   3.860   1.929 -0.1351 -0.0166 -0.3841
    1TYR    SC2  831   6.338   4.098   1.895 -0.2095  0.0568  0.2394
    1TYR    SC3  832   6.489   4.054   2.114  0.3976 -0.2454 -0.2020
    2PHE     BB  833   6.291   3.521   1.601  0.0573  0.3723  0.0837
    2PHE    SC1  834   6.046   3.675   1.642  0.1729 -0.0933  0.1147
    2PHE    SC2  835   5.922   3.744   1.872 -0.0136 -0.1273  0.0262
    2PHE    SC3  836   5.782   3.731   1.641  0.2008  0.0544 -0.1198
    3TYR     BB  837   6.435   3.396   1.407  0.1885  0.1884  0.0389
    3TYR    SC1  838   6.360   3.412   1.104  0.1775  0.0239  0.0562
    3TYR    SC2  839   6.406   3.545   0.874 -0.1712 -0.2512 -0.1872
    3TYR    SC3  840   6.169   3.422   0.913 -0.2049 -0.0336  0.4168
    1TYR     BB  841   6.243   5.734   1.368  0.3744  0.0266  0.3974
    1TYR    SC1  842   6.569   5.807   1.384 -0.0099  0.0168  0.3396
    1TYR    SC2  843   6.751   5.979   1.484  0.4260 -0.3505  0.2204
    1TYR    SC3  844   6.829   5.784   1.315 -0.1134 -0.4361  0.0469
    2PHE     BB  845   6.098   6.046   1.262  0.1457 -0.0238 -0.0244
    2PHE    SC1  846   6.190   6.231   1.460 -0.1012  0.2173 -0.2043
    2PHE    SC2  847   6.425   6.296   1.574 -0.0975 -0.1966  0.0492
    2PHE    SC3  848   6.194   6.380   1.685 -0.0815 -0.2020  0.0870
    3TYR     BB  849   5.878   6.160   1.005  0.1493  0.0947  0.0244
    3TYR    SC1  850   5.912   5.913   0.852  0.2068  0.3236 -0.0595
    3TYR    SC2  851   6.042   5.746   0.684  0.3505  0.1608  0.2054
    3TYR    SC3  852   5.837   5.654   0.834  0.4128  0.2277  0.3331
    1TYR     BB  853   5.963   7.621   6.931  0.2399  0.1201 -0.2041
    1TYR    SC1  854   5.987   7.496   6.631  0.4957  0.1490  0.2419
    1TYR    SC2  855   6.185   7.502   6.447  0.1145 -0.0570 -0.1995
    1TYR    SC3  856   5.935   7.577   6.379 -0.1077 -0.4309  0.1476
    2PHE     BB  857   5.708   7.450   7.079 -0.0565 -0.3126 -0.1544
    2PHE    SC1  858   5.555   7.678   7.200 -0.3309 -0.1451  0.2410
    2PHE    SC2  859   5.565   7.938   7.127  0.3028 -0.2285 -0.0513
    2PHE    SC3  860   5.537   7.872   7.387  0.2009  0.1289  0.0344
    3TYR     BB  861   5.542   7.209   6.969 -0.1205  0.0486  0.1345
    3TYR    SC1  862   5.585   7.142   6.687  0.4229  0.1547 -0.1316
    3TYR    SC2  863   5.491   7.005   6.474  0.0603  0.3539 -0.1096
    3TYR    SC3  864   5.709   7.162   6.448  0.2128  0.1269 -0.2460
    1TYR     BB  865   5.200   2.019   0.103 -0.0799  0.3199 -0.3072
    1TYR    SC1  866   5.063   2.042  -0.170 -0.2463  0.1688  0.0634
    1TYR    SC2  867   5.036   1.895  -0.395 -0.2752  0.1624  0.0710
    1TYR    SC3  868   4.863   2.096  -0.343 -0.2689  0.1635  0.0878
    2PHE     BB  869   5.273   1.656   0.096  0.0525 -0.0157 -0.1660
    2PHE    SC1  870   5.045   1.590  -0.079 -0.0101  0.0112  0.0601
    2PHE    SC2  871   4.845   1.422  -0.011  0.1705 -0.3518 -0.2618
    2PHE    SC3  872   4.838   1.551  -0.248  0.1392 -0.0649 -0.1095
    3TYR     BB  873   5.548   1.477   0.051  0.1192  0.0638  0.0958
    3TYR    SC1  874   5.815   1.478   0.159 -0.2821  0.1911  0.0944
    3TYR    SC2  875   6.076   1.496   0.223 -0.2173  0.0871 -0.1273
    3TYR    SC3  876   5.888   1.571   0.401 -0.0464 -0.1267  0.1542
    1TYR     BB  877   6.115   2.544   2.559 -0.1081  0.2259 -0.0612
    1TYR    SC1  878   5.967   2.570   2.813 -0.0474  0.2626 -0.0052
    1TYR    SC2  879   5.928   2.562   3.081 -0.0638  0.1822 -0.0098
    1TYR    SC3  880   5.773   2.720   2.927 -0.1843  0.0820  0.0061
    2PHE     BB  881   6.134   2.247   2.433  0.0227  0.1078 -0.1655
    2PHE    SC1  882   5.956   2.060   2.649  0.0624 -0.3784  0.0127
    2PHE    SC2  883   5.752   1.919   2.755 -0.1227  0.0921  0.3206
    2PHE    SC3  884   5.866   2.119   2.896  0.4603 -0.0553  0.0937
    3TYR     BB  885   6.226   2.189   2.186  0.1558 -0.0303 -0.2325
    3TYR    SC1  886   6.415   2.412   2.125  0.0728 -0.0989 -0.0668
    3TYR    SC2  887   6.569   2.443   1.906  0.0766  0.2790 -0.0175
    3TYR    SC3  888   6.489   2.659   2.047 -0.3582  0.0813  0.0579
    1TYR     BB  889   5.725   1.481   2.561 -0.1083 -0.1250  0.3611
    1TYR    SC1  890   5.482   1.413   2.742 -0.1219 -0.2469 -0.1558
    1TYR    SC2  891   5.386   1.437   2.993 -0.1452 -0.0299 -0.1833
    1TYR    SC3  892   5.221   1.365   2.792 -0.1170 -0.2478 -0.1311
    2PHE     BB  893   5.831   1.312   2.387  0.0944 -0.1479  0.0885
    2PHE    SC1  894   5.699   1.304   2.135 -0.2089 -0.3633  0.0075
    2PHE    SC2  895   5.612   1.287   1.880  0.3367  0.1875 -0.2473
    2PHE    SC3  896   5.521   1.484   2.040  0.0223 -0.1360 -0.0096
    3TYR     BB  897   6.130   1.156   2.539 -0.0598 -0.2529  0.0461
    3TYR    SC1  898   5.973   0.918   2.674 -0.0877  0.0233 -0.2070
    3TYR    SC2  899   5.721   0.821   2.665 -0.0396 -0.1013 -0.2396
    3TYR    SC3  900   5.913   0.685   2.797  0.0266 -0.0427 -0.2746
    1TYR     BB  901   6.560   1.993   0.058  0.1547 -0.0117  0.0746
    1TYR    SC1  902   6.785   1.821   0.064 -0.0401 -0.2615  0.3367
    1TYR    SC2  903   6.891   1.645  -0.112  0.1955  0.0342  0.1699
    1TYR    SC3  904   7.016   1.694   0.123  0.0330 -0.1487  0.2986
    2PHE     BB  905   6.353   1.743  -0.104  0.0236  0.1114  0.2876
    2PHE    SC1  906   6.240   1.797  -0.359  0.1316 -0.2396  0.2702
    2PHE    SC2  907   6.342   1.732  -0.601 -0.1141 -0.0858  0.1195
    2PHE    SC3  908   6.085   1.813  -0.580 -0.0591  0.0302  0.4157
    3TYR     BB  909   6.458   1.463  -0.074  0.2866 -0.0151 -0.0998
    3TYR    SC1  910   6.579   1.417  -0.355 -0.0339  0.0930 -0.1196
    3TYR    SC2  911   6.567   1.284  -0.590 -0.0999 -0.1879  0.0384
    3TYR    SC3  912   6.800   1.296  -0.453 -0.0235  0.1010 -0.1062
    1TYR     BB  913   6.185   5.321   1.021  0.3895 -0.2735  0.0444
    1TYR    SC1  914   6.446   5.286   1.160  0.1581 -0.2129 -0.1929
    1TYR    SC2  915   6.556   5.309   1.406 -0.2549  0.2171 -0.0288
    1TYR    SC3  916   6.698   5.380   1.187  0.0299  0.0722  0.1022
    2PHE     BB  917   6.217   5.218   0.675  0.2748 -0.2532 -0.1842
    2PHE    SC1  918   5.964   5.313   0.525  0.2255  0.2770 -0.5265
    2PHE    SC2  919   5.704   5.372   0.567  0.3196  0.4499 -0.1374
    2PHE    SC3  920   5.775   5.216   0.358 -0.1415  0.0253 -0.0008
    3TYR     BB  921   6.410   5.440   0.520  0.0858 -0.0583  0.1875
    3TYR    SC1  922   6.494   5.659   0.705  0.0570  0.0228 -0.0770
    3TYR    SC2  923   6.424   5.782   0.935  0.0070  0.3718 -0.2697
    3TYR    SC3  924   6.683   5.725   0.886  0.0353  0.4295 -0.1903
    1TYR     BB  925   6.866   3.300   7.602 -0.0395 -0.0912 -0.1404
    1TYR    SC1  926   6.818   3.600   7.684 -0.0133 -0.1416  0.3545
    1TYR    SC2  927   6.655   3.811   7.726  0.1572  0.0405  0.1347
    1TYR    SC3  928   6.910   3.816   7.817  0.2454  0.0498 -0.1054
    2PHE     BB  929   6.900   3.213   7.245 -0.1285 -0.0460 -0.1308
    2PHE    SC1  930   7.166   3.074   7.310  0.0598  0.0341  0.0309
    2PHE    SC2  931   7.230   2.817   7.258 -0.1032 -0.0356  0.1645
    2PHE    SC3  932   7.423   2.992   7.331 -0.0096 -0.1496  0.1951
    3TYR     BB  933   6.645   3.210   7.033  0.0159  0.2208 -0.1866
    3TYR    SC1  934   6.549   2.981   6.908  0.2561 -0.2617  0.1683
    3TYR    SC2  935   6.482   2.720   6.911 -0.2034 -0.1607 -0.1002
    3TYR    SC3  936   6.409   2.876   6.703  0.1244  0.1735  0.0208
    1TYR     BB  937   7.038   4.612   1.149  0.0603 -0.1864  0.3621
    1TYR    SC1  938   7.137   4.512   1.444  0.3263  0.4467 -0.0118
    1TYR    SC2  939   7.133   4.284   1.589  0.2270  0.2816 -0.2658
    1TYR    SC3  940   7.243   4.508   1.692  0.2192  0.1525  0.0341
    2PHE     BB  941   6.864   4.873   1.183 -0.2534  0.0717 -0.1368
    2PHE    SC1  942   6.875   5.060   0.956  0.2076  0.3610  0.3915
    2PHE    SC2  943   6.967   5.256   0.796 -0.1307  0.2628  0.0589
    2PHE    SC3  944   6.710   5.177   0.778  0.0059 -0.2492  0.1440
    3TYR     BB  945   6.808   4.928   1.511 -0.2966  0.1353 -0.2241
    3TYR    SC1  946   6.734   4.646   1.674 -0.1735 -0.1141 -0.1017
    3TYR    SC2  947   6.795   4.561   1.923 -0.0511  0.0859 -0.0601
    3TYR    SC3  948   6.685   4.390   1.745  0.2652 -0.1827 -0.0104
    1TYR     BB  949   6.471   0.913   2.263  0.1321  0.3324  0.2343
    1TYR    SC1  950   6.285   0.695   2.341 -0.1439  0.2501  0.2269
    1TYR    SC2  951   6.202   0.492   2.498  0.2078  0.0621  0.1821
    1TYR    SC3  952   6.031   0.606   2.324 -0.0105 -0.1625  0.2418
    2PHE     BB  953   6.668   0.995   2.529 -0.2010 -0.2351 -0.0227
    2PHE    SC1  954   6.527   0.833   2.740  0.2073  0.1235  0.1821
    2PHE    SC2  955   6.579   0.706   2.972  0.0439 -0.1940  0.0530
    2PHE    SC3  956   6.339   0.822   2.933  0.2332  0.2850  0.2183
    3TYR     BB  957   6.886   1.151   2.464  0.3335 -0.1309 -0.2684
    3TYR    SC1  958   7.169   1.098   2.567  0.0173 -0.2610  0.2384
    3TYR    SC2  959   7.348   0.967   2.721  0.2367 -0.0373  0.1819
    3TYR    SC3  960   7.400   1.218   2.637 -0.1493  0.0718  0.2437
    1TYR     BB  961   6.111   7.343   1.808 -0.1917  0.0540 -0.3881
    1TYR    SC1  962   6.327   7.300   2.040 -0.0937  0.1006  0.0352
    1TYR    SC2  963   6.552   7.253   2.182 -0.0866  0.0521  0.0084
    1TYR    SC3  964   6.310   7.228   2.300 -0.0760  0.2120  0.0676
    2PHE     BB  965   6.264   7.229   1.554 -0.1620 -0.0065 -0.1520
    2PHE    SC1  966   6.375   6.982   1.553 -0.0281  0.1013 -0.0972
    2PHE    SC2  967   6.447   6.722   1.544  0.0734  0.1190  0.1247
    2PHE    SC3  968   6.611   6.911   1.441 -0.0193  0.0944 -0.0743
    3TYR     BB  969   6.311   7.461   1.319 -0.1982 -0.0443 -0.0252
    3TYR    SC1  970   6.626   7.519   1.337 -0.2296 -0.0788 -0.0570
    3TYR    SC2  971   6.807   7.324   1.296 -0.1489 -0.0019 -0.0689
    3TYR    SC3  972   6.884   7.560   1.404 -0.1987  0.1120 -0.2763
    1TYR     BB  973   6.183   6.534   1.004 -0.4804 -0.0653 -0.0150
    1TYR    SC1  974   6.397   6.454   1.127  0.0341  0.1195 -0.0490
    1TYR    SC2  975   6.569   6.246   1.139  0.1092  0.1762 -0.1330
    1TYR    SC3  976   6.656   6.497   1.188  0.0728  0.2168 -0.2707
    2PHE     BB  977   5.980   6.606   1.206  0.1525  0.0235  0.0663
    2PHE    SC1  978   5.773   6.458   1.341 -0.0086  0.1924  0.0919
    2PHE    SC2  979   5.730   6.266   1.526 -0.2143 -0.0433 -0.1896
    2PHE    SC3  980   5.539   6.323   1.344 -0.1464  0.4168 -0.1304
    3TYR     BB  981   6.007   6.967   1.140  0.0029 -0.1735 -0.1903
    3TYR    SC1  982   5.832   7.111   1.300 -0.1248  0.1871 -0.0931
    3TYR    SC2  983   5.609   7.255   1.250 -0.0787  0.2552 -0.1030
    3TYR    SC3  984   5.815   7.366   1.385 -0.0560  0.1881 -0.0819
    1TYR     BB  985   5.456   0.069   1.210 -0.2685  0.1098  0.2059
    1TYR    SC1  986   5.253  -0.190   1.172 -0.1086 -0.1821  0.1839
    1TYR    SC2  987   5.026  -0.297   1.072 -0.2524  0.0426  0.2603
    1TYR    SC3  988   5.134  -0.397   1.298 -0.0439 -0.3288  0.0090
    2PHE     BB  989   5.373   0.248   0.995  0.3202 -0.1447  0.0116
    2PHE    SC1  990   5.231   0.128   0.734  0.1451  0.0479 -0.0975
    2PHE    SC2  991   5.017  -0.019   0.661  0.1719  0.0002 -0.0797
    2PHE    SC3  992   5.110   0.174   0.497  0.1405 -0.0069 -0.1058
    3TYR     BB  993   5.442   0.587   0.864 -0.2266 -0.0913  0.0004
    3TYR    SC1  994   5.264   0.613   0.626 -0.1032  0.0265  0.0090
    3TYR    SC2  995   5.250   0.757   0.398 -0.0564  0.3245  0.1882
    3TYR    SC3  996   5.040   0.607   0.476 -0.0433  0.1553 -0.0878
    1TYR     BB  997   6.503   0.040   1.817  0.0284 -0.1544  0.0857
    1TYR    SC1  998   6.705  -0.198   1.855 -0.0436 -0.0357  0.3287
    1TYR    SC2  999   6.916  -0.358   1.907 -0.0280 -0.1082  0.0588
    1TYR    SC3 1000   6.706  -0.454   1.768 -0.2282 -0.0275  0.2980
    2PHE     BB 1001   6.464   0.201   2.154  0.0288 -0.0824  0.1784
    2PHE    SC1 1002   6.721   0.129   2.277 -0.0321  0.0198 -0.1493
    2PHE    SC2 1003   6.984   0.178   2.312 -0.0672  0.0917  0.0231
    2PHE    SC3 1004   6.893  -0.076   2.312  0.0348  0.0508 -0.2896
    3TYR     BB 1005   6.167   0.176   2.130 -0.0889  0.2758 -0.1073
    3TYR    SC1 1006   5.904   0.034   2.166  0.0568 -0.1418 -0.1398
    3TYR    SC2 1007   5.668   0.010   2.037  0.0315 -0.1993 -0.0834
    3TYR    SC3 1008   5.706  -0.115   2.273  0.0189  0.0392  0.0499
    1TYR     BB 1009   5.975   2.970   0.974  0.2200 -0.0340  0.2972
    1TYR    SC1 1010   5.773   3.202   0.888  0.0521  0.0512  0.4308
    1TYR    SC2 1011   5.547   3.337   0.951 -0.0377 -0.0653  0.3615
    1TYR    SC3 1012   5.654   3.361   0.704 -0.0779 -0.1524  0.3350
    2PHE     BB 1013   6.024   2.705   0.994  0.3359 -0.0867  0.0788
    2PHE    SC1 1014   5.907   2.620   1.284 -0.1170  0.4766  0.1001
    2PHE    SC2 1015   5.753   2.448   1.424  0.0858  0.2548  0.0604
    2PHE    SC3 1016   5.804   2.694   1.523 -0.1294  0.2613  0.1642
    3TYR     BB 1017   6.240   2.536   0.756 -0.0937  0.0785  0.2866
    3TYR    SC1 1018   6.412   2.268   0.729 -0.1462 -0.1393 -0.0339
    3TYR    SC2 1019   6.517   2.116   0.532 -0.0317  0.0152 -0.0948
    3TYR    SC3 1020   6.639   2.127   0.773 -0.2297 -0.2575  0.0245
    1TYR     BB 1021   5.652   2.302   2.284 -0.1266 -0.0617 -0.5521
    1TYR    SC1 1022   5.603   2.343   2.583  0.0016 -0.0911  0.0178
    1TYR    SC2 1023   5.468   2.513   2.744 -0.0747 -0.0858 -0.0509
    1TYR    SC3 1024   5.417   2.248   2.754  0.2295 -0.1413  0.2445
    2PHE     BB 1025   5.662   1.935   2.211  0.1701  0.1424 -0.0554
    2PHE    SC1 1026   5.383   1.857   2.361 -0.0100  0.2253 -0.0221
    2PHE    SC2 1027   5.283   1.798   2.605  0.1872  0.1046  0.0325
    2PHE    SC3 1028   5.234   1.634   2.396  0.0690  0.1758  0.0033
    3TYR     BB 1029   5.910   1.818   2.143 -0.0899 -0.4631  0.0626
    3TYR    SC1 1030   5.945   1.661   1.899 -0.0394 -0.0538  0.1950
    3TYR    SC2 1031   6.011   1.423   1.791  0.0154 -0.0339  0.1843
    3TYR    SC3 1032   5.831   1.582   1.668 -0.0040 -0.0595  0.1795
    1TYR     BB 1033   2.216   0.022   3.512 -0.1260  0.1521  0.0759
    1TYR    SC1 1034   2.038  -0.088   3.748  0.0582  0.3097  0.1087
    1TYR    SC2 1035   2.007  -0.128   4.013  0.1032  0.0963  0.0841
    1TYR    SC3 1036   1.800  -0.036   3.865  0.0590  0.1555  0.1812
    2PHE     BB 1037   2.103  -0.222   3.301 -0.1549  0.1489  0.1553
    2PHE    SC1 1038   2.207  -0.088   3.043 -0.1583  0.1356  0.0515
    2PHE    SC2 1039   2.225   0.002   2.789  0.1730 -0.2840 -0.0899
    2PHE    SC3 1040   2.447  -0.018   2.941  0.0040 -0.2085  0.1765
    3TYR     BB 1041   1.765  -0.354   3.379 -0.1729 -0.3228  0.3115
    3TYR    SC1 1042   1.606  -0.079   3.419  0.1690  0.1263 -0.0691
    3TYR    SC2 1043   1.356   0.010   3.366  0.0171  0.0721  0.4765
    3TYR    SC3 1044   1.535   0.174   3.485  0.1987  0.0626  0.2266
    1TYR     BB 1045   4.737   0.483   7.246  0.0208 -0.1579 -0.1070
    1TYR    SC1 1046   4.757   0.729   7.397 -0.0880 -0.1765  0.3242
    1TYR    SC2 1047   4.849   0.904   7.580  0.0649  0.1075 -0.0103
    1TYR    SC3 1048   4.589   0.908   7.509  0.1140  0.3842 -0.1971
    2PHE     BB 1049   5.056   0.378   7.165 -0.2497  0.0955  0.0911
    2PHE    SC1 1050   5.096   0.277   7.441 -0.5749 -0.3355 -0.0143
    2PHE    SC2 1051   5.143   0.108   7.647  0.0562 -0.1797 -0.0058
    2PHE    SC3 1052   5.083   0.367   7.696 -0.1304 -0.2185 -0.0221
    3TYR     BB 1053   5.123   0.217   6.895 -0.3550 -0.0203 -0.2200
    3TYR    SC1 1054   5.383   0.112   6.780  0.1272 -0.0018  0.1916
    3TYR    SC2 1055   5.568   0.202   6.605 -0.1402 -0.2217 -0.2251
    3TYR    SC3 1056   5.518  -0.062   6.624 -0.3316 -0.1751 -0.0350
    1TYR     BB 1057   1.332   5.537   0.848 -0.0298  0.0968 -0.3113
    1TYR    SC1 1058   1.279   5.256   0.889 -0.0980  0.0245  0.3240
    1TYR    SC2 1059   1.306   4.989   0.917 -0.0017  0.0034  0.0627
    1TYR    SC3 1060   1.061   5.097   0.887 -0.0152 -0.1164 -0.3305
    2PHE     BB 1061   1.165   5.657   1.100 -0.1233 -0.0917  0.2176
    2PHE    SC1 1062   1.331   5.894   1.249  0.1085 -0.1037 -0.1552
    2PHE    SC2 1063   1.264   6.066   1.445  0.2392 -0.0506 -0.1560
    2PHE    SC3 1064   1.335   6.160   1.202 -0.1597 -0.1215 -0.3103
    3TYR     BB 1065   0.852   5.673   1.221 -0.0273  0.1059  0.2801
    3TYR    SC1 1066   0.710   5.506   1.508  0.3928 -0.2690  0.1779
    3TYR    SC2 1067   0.702   5.374   1.743 -0.1305 -0.1986  0.2137
    3TYR    SC3 1068   0.473   5.451   1.623  0.1395  0.3046 -0.0208
    1TYR     BB 1069   6.016   1.365   7.363 -0.0305 -0.2756  0.1535
    1TYR    SC1 1070   6.014   1.382   7.053  0.2701  0.0755  0.0386
    1TYR    SC2 1071   6.144   1.403   6.818  0.1608 -0.1275 -0.0432
    1TYR    SC3 1072   5.891   1.492   6.839  0.2108 -0.0002  0.0333
    2PHE     BB 1073   5.793   1.170   7.443 -0.1380  0.2994  0.1426
    2PHE    SC1 1074   5.875   1.009   7.665 -0.1018  0.1464  0.3456
    2PHE    SC2 1075   5.889   0.783   7.811 -0.3190 -0.1048 -0.0038
    2PHE    SC3 1076   5.976   1.016   7.915 -0.1318 -0.3346  0.3819
    3TYR     BB 1077   5.685   1.013   7.182  0.1779  0.1297  0.0641
    3TYR    SC1 1078   5.781   0.780   6.997  0.2341 -0.1953  0.1266
    3TYR    SC2 1079   5.840   0.539   6.891  0.4344 -0.2779  0.4122
    3TYR    SC3 1080   6.029   0.731   6.904  0.1426  0.1047 -0.3132
    1TYR     BB 1081   6.258   5.296   0.019 -0.0847  0.0888  0.1581
    1TYR    SC1 1082   6.175   5.008  -0.145  0.5207  0.0244  0.0115
    1TYR    SC2 1083   6.240   4.878  -0.373 -0.1827 -0.4060  0.0191
    1TYR    SC3 1084   6.155   4.739  -0.158  0.0375  0.0238  0.4070
    2PHE     BB 1085   6.521   5.291  -0.211  0.1424  0.1641 -0.0711
    2PHE    SC1 1086   6.338   5.316  -0.476  0.0000 -0.0846 -0.3368
    2PHE    SC2 1087   6.070   5.285  -0.486 -0.0648  0.2958 -0.0447
    2PHE    SC3 1088   6.210   5.320  -0.714 -0.2290 -0.0918 -0.2169
    3TYR     BB 1089   6.667   5.034  -0.177  0.1209 -0.1853 -0.1148
    3TYR    SC1 1090   6.911   5.007  -0.337 -0.0308 -0.0196 -0.0970
    3TYR    SC2 1091   7.170   5.035  -0.410  0.0775 -0.0296  0.2617
    3TYR    SC3 1092   7.051   4.794  -0.426  0.0127  0.0206 -0.1257
    1TYR     BB 1093   1.593   5.851   7.446 -0.0099 -0.2904  0.0712
    1TYR    SC1 1094   1.795   5.669   7.551  0.0395 -0.1350  0.0816
    1TYR    SC2 1095   1.886   5.418   7.508  0.3767 -0.0027 -0.0217
    1TYR    SC3 1096   1.938   5.542   7.742  0.0014 -0.1091  0.1276
    2PHE     BB 1097   1.307   5.672   7.652  0.3440 -0.0709  0.1276
    2PHE    SC1 1098   1.390   5.419   7.539 -0.3274  0.0114  0.2255
    2PHE    SC2 1099   1.446   5.364   7.280 -0.0709  0.0501  0.2687
    2PHE    SC3 1100   1.404   5.162   7.455  0.0137  0.0157  0.2500
    3TYR     BB 1101   1.344   5.803   7.994 -0.0125 -0.1734 -0.0456
    3TYR    SC1 1102   1.571   5.620   8.049  0.0192  0.2188  0.3055
    3TYR    SC2 1103   1.800   5.525   8.156  0.2581  0.2405 -0.1578
    3TYR    SC3 1104   1.647   5.365   8.001  0.1801  0.3470 -0.1919
    1TYR     BB 1105   6.842   1.619   1.722  0.0731  0.0327  0.3460
    1TYR    SC1 1106   6.590   1.740   1.787  0.1843 -0.0703  0.1980
    1TYR    SC2 1107   6.410   1.788   1.982 -0.0558 -0.0796 -0.0142
    1TYR    SC3 1108   6.465   1.979   1.800 -0.0366 -0.1630 -0.0964
    2PHE     BB 1109   6.883   1.332   1.738 -0.0301  0.3028 -0.1665
    2PHE    SC1 1110   7.207   1.267   1.654 -0.3252  0.1120 -0.1320
    2PHE    SC2 1111   7.445   1.361   1.570 -0.2953  0.1602  0.0026
    2PHE    SC3 1112   7.409   1.096   1.601 -0.1744  0.1665  0.2255
    3TYR     BB 1113   6.860   1.071   1.941 -0.1604  0.0942 -0.0307
    3TYR    SC1 1114   7.124   0.919   2.002  0.0415 -0.1630  0.0082
    3TYR    SC2 1115   7.202   0.834   2.246  0.0067 -0.4132 -0.0642
    3TYR    SC3 1116   7.371   0.814   2.036  0.2877  0.3853  0.0428
    1TYR     BB 1117   6.293   4.043   0.874  0.3580 -0.2900 -0.2541
    1TYR    SC1 1118   6.125   3.888   0.679 -0.1292 -0.1308 -0.1864
    1TYR    SC2 1119   5.984   3.876   0.448 -0.4527  0.0951 -0.0104
    1TYR    SC3 1120   5.938   3.696   0.644 -0.0333 -0.2259 -0.1857
    2PHE     BB 1121   6.305   3.907   1.187 -0.1052 -0.1520  0.2488
    2PHE    SC1 1122   6.041   3.778   1.222 -0.0835  0.1843  0.2035
    2PHE    SC2 1123   5.781   3.786   1.150 -0.0729  0.0250  0.1420
    2PHE    SC3 1124   5.900   3.549   1.200  0.1908  0.0448 -0.3170
    3TYR     BB 1125   6.453   4.015   1.446 -0.3018  0.2512  0.2621
    3TYR    SC1 1126   6.726   3.966   1.597 -0.2418 -0.2445  0.1868
    3TYR    SC2 1127   6.885   3.768   1.690  0.1643 -0.1129 -0.1870
    3TYR    SC3 1128   6.880   4.007   1.816  0.1621 -0.1593 -0.0982
    1TYR     BB 1129   5.694   0.108   0.639 -0.1904 -0.0829 -0.1335
    1TYR    SC1 1130   5.534   0.288   0.477 -0.2770 -0.1429  0.0434
    1TYR    SC2 1131   5.440   0.377   0.240  0.2811 -0.2160 -0.2259
    1TYR    SC3 1132   5.619   0.525   0.379 -0.5680  0.1999  0.5602
    2PHE     BB 1133   5.869   0.306   0.857  0.1182  0.1655  0.1303
    2PHE    SC1 1134   5.903   0.576   0.784 -0.0336  0.0216  0.0659
    2PHE    SC2 1135   5.913   0.839   0.840  0.1733  0.0680 -0.1660
    2PHE    SC3 1136   5.997   0.749   0.600  0.1114 -0.2121 -0.0872
    3TYR     BB 1137   5.996   0.187   1.110  0.0675 -0.1829 -0.1195
    3TYR    SC1 1138   5.936   0.157   1.413 -0.2086 -0.2816 -0.0531
    3TYR    SC2 1139   6.060   0.183   1.652  0.0715 -0.0302 -0.2169
    3TYR    SC3 1140   5.796   0.126   1.642  0.0398  0.0235  0.1507
    1TYR     BB 1141   6.418   5.753   0.074 -0.0757 -0.0136  0.0194
    1TYR    SC1 1142   6.206   5.784  -0.105  0.1166 -0.2727  0.1351
    1TYR    SC2 1143   6.161   5.897  -0.346  0.1819  0.0349  0.2615
    1TYR    SC3 1144   6.071   5.648  -0.296  0.1407 -0.0227 -0.0675
    2PHE     BB 1145   6.707   5.735  -0.129 -0.0410 -0.2157  0.3195
    2PHE    SC1 1146   6.573   5.767  -0.407  0.2238  0.2346 -0.1113
    2PHE    SC2 1147   6.436   5.703  -0.631  0.1752  0.1436 -0.0563
    2PHE    SC3 1148   6.603   5.915  -0.631  0.3257  0.0280 -0.2371
    3TYR     BB 1149   6.907   5.902  -0.083 -0.2652  0.0406 -0.1385
    3TYR    SC1 1150   7.228   5.843  -0.102 -0.0367 -0.1413  0.0471
    3TYR    SC2 1151   7.495   5.860  -0.137 -0.0607 -0.1588 -0.1594
    3TYR    SC3 1152   7.337   5.782  -0.342 -0.2300 -0.0961 -0.0548
    1TYR     BB 1153   6.100   3.827   7.017  0.0810  0.3851 -0.0623
    1TYR    SC1 1154   6.343   3.687   7.154  0.1072 -0.0605 -0.1273
    1TYR    SC2 1155   6.555   3.809   7.270 -0.2727  0.0817  0.4771
    1TYR    SC3 1156   6.502   3.550   7.324 -0.2315  0.0317  0.2871
    2PHE     BB 1157   5.848   3.782   7.210  0.1260  0.1264 -0.0577
    2PHE    SC1 1158   6.009   3.674   7.473  0.1012 -0.1340  0.1107
    2PHE    SC2 1159   6.131   3.454   7.570  0.0230 -0.1609  0.1484
    2PHE    SC3 1160   6.202   3.698   7.661  0.1329 -0.1677  0.0827
    3TYR     BB 1161   5.563   3.752   7.187 -0.0476 -0.1152 -0.0394
    3TYR    SC1 1162   5.371   3.845   6.978 -0.0523  0.3632 -0.0511
    3TYR    SC2 1163   5.114   3.769   6.944  0.0752 -0.1192 -0.0328
    3TYR    SC3 1164   5.204   3.996   6.829 -0.3752  0.1101  0.0389
    1TYR     BB 1165   5.514   2.794   0.952 -0.1552 -0.0903  0.1997
    1TYR    SC1 1166   5.390   2.731   1.241 -0.2788  0.0279 -0.1676
    1TYR    SC2 1167   5.314   2.531   1.406 -0.0054 -0.1338 -0.2305
    1TYR    SC3 1168   5.337   2.783   1.500  0.0442 -0.2054 -0.0467
    2PHE     BB 1169   5.521   2.478   0.857  0.0601  0.2154 -0.0903
    2PHE    SC1 1170   5.472   2.482   0.591 -0.0649 -0.2641  0.1330
    2PHE    SC2 1171   5.321   2.652   0.445  0.2789  0.0874  0.1665
    2PHE    SC3 1172   5.395   2.414   0.341  0.1015  0.1145 -0.0309
    3TYR     BB 1173   5.681   2.269   0.979 -0.1951 -0.2257 -0.0138
    3TYR    SC1 1174   5.957   2.169   1.060  0.0356  0.0273 -0.1017
    3TYR    SC2 1175   6.203   2.266   1.113  0.0114  0.0897 -0.1037
    3TYR    SC3 1176   6.075   2.116   1.297  0.0507  0.0577 -0.1024
    1TYR     BB 1177   0.940   5.048   7.621  0.4292  0.0381 -0.0920
    1TYR    SC1 1178   1.120   4.756   7.548  0.0727  0.3442  0.2254
    1TYR    SC2 1179   1.371   4.753   7.448  0.2510  0.3147  0.6456
    1TYR    SC3 1180   1.248   4.521   7.512  0.0402  0.3168  0.2858
    2PHE     BB 1181   0.859   5.329   7.599  0.1460 -0.0438 -0.0866
    2PHE    SC1 1182   0.912   5.523   7.373 -0.2218  0.1902  0.1621
    2PHE    SC2 1183   1.050   5.587   7.150 -0.4279  0.1912  0.0317
    2PHE    SC3 1184   0.933   5.781   7.297 -0.1644  0.2057  0.2298
    3TYR     BB 1185   0.535   5.371   7.651  0.0399 -0.0069  0.0530
    3TYR    SC1 1186   0.342   5.214   7.801  0.0961 -0.1541 -0.1103
    3TYR    SC2 1187   0.129   5.049   7.786 -0.2542  0.2729 -0.0846
    3TYR    SC3 1188   0.183   5.178   8.017 -0.1435  0.3913 -0.1753
    1TYR     BB 1189   5.554   7.206   7.482  0.3548  0.2515  0.1135
    1TYR    SC1 1190   5.529   7.486   7.647 -0.2160  0.3136  0.0204
    1TYR    SC2 1191   5.685   7.671   7.767  0.2544 -0.3697  0.5568
    1TYR    SC3 1192   5.470   7.571   7.897 -0.3652  0.1705  0.0358
    2PHE     BB 1193   5.236   7.266   7.386  0.2389 -0.3173  0.0583
    2PHE    SC1 1194   5.098   7.231   7.660 -0.1350 -0.2656  0.0082
    2PHE    SC2 1195   4.841   7.250   7.740 -0.1588  0.1393 -0.1326
    2PHE    SC3 1196   5.036   7.372   7.882 -0.0297 -0.2043 -0.0003
    3TYR     BB 1197   5.145   7.414   7.128 -0.0278  0.1355 -0.2873
    3TYR    SC1 1198   5.060   7.324   6.858  0.1512 -0.2493  0.3623
    3TYR    SC2 1199   4.847   7.307   6.693  0.0371  0.4217  0.4045
    3TYR    SC3 1200   5.095   7.340   6.591  0.0786  0.0489  0.3664
    4W        W 1201   5.194   1.828   3.580  0.0794  0.0730 -0.1994
    5W        W 1202   1.570   5.682   2.844  0.0526 -0.0127 -0.2184
    6W        W 1203   0.312   2.865   4.690 -0.4165 -0.2163 -0.1922
    7W        W 1204   6.799   1.951   6.712  0.0874  0.0922  0.2060
    8W        W 1205   1.572   3.012   2.037  0.0005 -0.0793  0.1296
    9W        W 1206   2.083   2.867   0.813 -0.1824 -0.0912  0.0446
   10W        W 1207   4.328   5.070   0.696 -0.0832  0.2756 -0.1898
   11W        W 1208   5.876   1.131   5.679 -0.1966 -0.1924 -0.0459
   12W        W 1209   6.939   2.972   5.599  0.1057 -0.1887 -0.3136
   13W        W 1210   3.069   1.681   6.653  0.2787  0.2181 -0.1577
   14W        W 1211   0.546   4.800   3.920  0.0341 -0.1324 -0.1236
   15W        W 1212   4.953   0.506   3.042 -0.6124 -0.0830  0.3512
   16W        W 1213   0.844   3.544   2.318 -0.0418  0.2596 -0.1801
   17W        W 1214   2.250   4.610   4.976  0.1299 -0.0561  0.1444
   18W        W 1215   3.001   3.994   7.306 -0.1214  0.0690 -0.2202
   19W        W 1216   1.648   2.568   2.863  0.2635 -0.3068  0.1547
   20W        W 1217   3.230   1.515   4.456  0.3264  0.1653 -0.0953
   21W        W 1218   2.112   2.786   6.733  0.0933 -0.0801 -0.2111
   22W        W 1219   5.435   6.745   5.956 -0.0952 -0.0874  0.1868
   23W        W 1220   5.439   7.439   4.950 -0.1039 -0.0249  0.0521
   24W        W 1221   2.371   5.833   2.261 -0.1207 -0.3208  0.4423
   25W        W 1222   1.437   5.976   5.972  0.2398  0.0691 -0.2758
   26W        W 1223   1.019   7.108   0.650 -0.0239 -0.0660 -0.0634
   27W        W 1224   5.835   7.069   5.866 -0.1504 -0.1773  0.1342
   28W        W 1225   2.717   6.846   5.007  0.1805  0.2229  0.0681
   29W        W 1226   3.610   5.658   7.315  0.0256  0.0169  0.0234
   30W        W 1227   4.200   0.157   5.490 -0.3117 -0.0169  0.1158
   31W        W 1228   3.569   3.400   5.467 -0.0418  0.2078  0.0640
   32W        W 1229   2.926   6.385   2.782 -0.1214 -0.1697  0.1817
   33W        W 1230   7.152   3.333   3.387  0.0512  0.0934  0.0795
   34W        W 1231   1.681   5.181   2.312 -0.1593  0.1865  0.2193
   35W        W 1232   3.532   2.511   4.304  0.1682 -0.3553  0.1268
   36W        W 1233   2.953   3.410   0.599  0.0934  0.1457 -0.0008
   37W        W 1234   3.405   5.538   1.270 -0.0846  0.0635 -0.2849
   38W        W 1235   0.471   1.546   6.002  0.1024 -0.1255  0.2643
   39W        W 1236   6.956   4.371   4.354  0.0612  0.3167  0.0589
   40W        W 1237   2.101   3.047   4.044  0.1694 -0.2297 -0.0906
   41W        W 1238   5.585   3.841   4.117  0.3368 -0.1472  0.2451
   42W        W 1239   4.586   3.467   2.404 -0.3707 -0.2824  0.3402
   43W        W 1240   2.264   6.754   6.340 -0.0699  0.1465  0.2339
   44W        W 1241   6.216   7.064   5.530 -0.0103 -0.1706  0.2521
   45W        W 1242   2.214   1.080   6.123  0.1013  0.0257  0.1000
   46W        W 1243   2.559   6.795   2.548 -0.0547 -0.1813  0.0224
   47W        W 1244   7.555   2.864   1.207 -0.4049  0.0363  0.3146
   48W        W 1245   0.119   7.144   6.301 -0.0113  0.1478  0.0677
   49W        W 1246   2.360   0.287   5.404  0.1979 -0.0405  0.0804
   50W        W 1247   6.637   0.737   6.660  0.0704  0.1686 -0.0889
   51W        W 1248   6.383   0.588   4.671 -0.1606 -0.1073  0.1524
   52W        W 1249   4.459   4.633   7.219 -0.0517  0.3306  0.0140
   53W        W 1250   4.361   5.643   6.944 -0.0148 -0.1323  0.0456
   54W        W 1251   1.581   1.127   6.474  0.0759  0.5218  0.0479
   55W        W 1252   2.888   6.191   2.010 -0.1353 -0.0455 -0.2961
   56W        W 1253   1.567   4.258   3.387  0.0858 -0.0987  0.0086
   57W        W 1254   1.036   2.697   1.941  0.1296  0.0122 -0.0186
   58W        W 1255   6.283   3.448   6.097 -0.0809 -0.1458 -0.0955
   59W        W 1256   2.308   3.862   4.553  0.2349 -0.1996  0.1079
   60W        W 1257   1.660   1.639   5.683  0.2220 -0.1667 -0.1873
   61W        W 1258   0.985   3.574   2.808  0.2110  0.2606 -0.1664
   62W        W 1259   3.475   4.593   6.854 -0.0418 -0.1114 -0.0420
   63W        W 1260   4.439   2.355   5.523 -0.3039 -0.0504 -0.2351
   64W        W 1261   2.645   0.613   0.150  0.2296 -0.1503 -0.1782
   65W        W 1262   3.917   4.211   4.297  0.2892 -0.2302  0.0825
   66W        W 1263   1.682   3.683   3.491  0.0261  0.1822  0.2555
   67W        W 1264   1.812   7.421   7.047 -0.0577  0.0025 -0.1265
   68W        W 1265   4.312   3.613   3.759  0.0418 -0.0805 -0.0640
   69W        W 1266   1.911   6.125   4.979  0.0742 -0.2563  0.0233
   70W        W 1267   2.850   6.232   6.213 -0.1585 -0.3592 -0.0577
   71W        W 1268   7.521   0.090   2.537 -0.1380 -0.3744  0.1495
   72W        W 1269   0.581   6.993   7.626 -0.1028  0.2042 -0.3560
   73W        W 1270   3.903   0.130   4.267  0.1307  0.0065  0.1759
   74W        W 1271   5.667   3.646   2.345 -0.0465  0.0129  0.0799
   75W        W 1272   3.446   1.310   4.857  0.0418 -0.1552 -0.4649
   76W        W 1273   3.776   5.513   1.734 -0.0329  0.3712 -0.0909
   77W        W 1274   3.292   3.886   3.011 -0.1305  0.4476  0.2164
   78W        W 1275   2.397   0.763   4.198  0.0610  0.0838  0.2540
   79W        W 1276   3.933   1.986   0.593 -0.0431 -0.2746 -0.1739
   80W        W 1277   2.331   1.472   0.268 -0.0700 -0.0685 -0.0065
   81W        W 1278   1.518   7.313   5.599 -0.3380 -0.1731  0.0787
   82W        W 1279   5.581   7.195   3.625 -0.2522 -0.0593  0.3743
   83W        W 1280   4.242   0.931   6.587  0.1511  0.1880  0.0114
   84W        W 1281   4.565   2.221   2.771  0.4023 -0.2476  0.1920
   85W        W 1282   1.191   6.506   4.848 -0.2069 -0.1753  0.0528
   86W        W 1283   3.984   1.959   0.037  0.0724  0.3777 -0.0602
   87W        W 1284   5.807   7.154   3.205  0.1676  0.0171 -0.0020
   88W        W 1285   2.574   3.421   3.227  0.0136  0.0913 -0.3233
   89W        W 1286   2.992   4.825   1.908  0.4094 -0.1867 -0.2293
   90W        W 1287   3.179   2.995   6.040 -0.0666  0.1083 -0.1095
   91W        W 1288   6.023   5.970   3.987  0.1602 -0.0183 -0.5390
   92W        W 1289   7.616   0.364   2.173  0.0893 -0.0035  0.0037
   93W        W 1290   2.046   4.661   0.535 -0.1186  0.0074 -0.2759
   94W        W 1291   3.627   4.112   1.524  0.1844 -0.2116  0.0395
   95W        W 1292   7.513   0.362   5.984 -0.2418 -0.3600  0.0530
   96W        W 1293   6.699   3.725   6.311  0.2477 -0.1470 -0.1456
   97W        W 1294   5.614   5.166   2.519  0.1166  0.2321 -0.2057
   98W        W 1295   0.737   2.990   4.976  0.0560 -0.1533 -0.0702
   99W        W 1296   4.048   7.410   5.805 -0.0167 -0.2403  0.1985
  100W        W 1297   2.605   3.546   3.901  0.0130 -0.2497 -0.0809
  101W        W 1298   0.568   2.767   1.995  0.0045  0.1491  0.1320
  102W        W 1299   0.370   7.649   2.518 -0.1237  0.1759  0.1713
  103W        W 1300   4.550   1.841   6.544 -0.2282  0.0058 -0.1036
  104W        W 1301   0.411   5.548   3.450  0.0202 -0.2167 -0.1454
  105W        W 1302   2.201   4.581   6.955  0.0097 -0.0093 -0.1288
  106W        W 1303   3.068   4.136   5.011 -0.2011 -0.2402  0.2156
  107W        W 1304   1.412   2.600   6.153  0.3674 -0.0360  0.0611
  108W        W 1305   4.138   1.551   0.471 -0.1117 -0.2942 -0.4417
  109W        W 1306   5.374   5.631   2.488 -0.1050  0.4005 -0.1169
  110W        W 1307   2.270   0.594   6.788 -0.2599  0.0363  0.0304
  111W        W 1308   0.530   0.862   2.058  0.1189 -0.2634  0.1122
  112W        W 1309   0.327   7.416   7.627 -0.4077  0.2295  0.0356
  113W        W 1310   4.183   0.433   6.790 -0.0941 -0.0311 -0.1748
  114W        W 1311   1.470   6.925   5.883  0.1592  0.0595  0.0919
  115W        W 1312   2.505   2.611   6.319 -0.1044  0.1733 -0.2308
  116W        W 1313   1.961   2.376   3.261 -0.1729 -0.3455 -0.3309
  117W        W 1314   4.418   3.174   7.655 -0.2398 -0.0161 -0.0855
  118W        W 1315   7.523   7.614   3.038 -0.2226 -0.4422 -0.2206
  119W        W 1316   1.677   1.020   1.205  0.1407 -0.1891 -0.0203
  120W        W 1317   3.042   0.195   4.756  0.3813  0.3870 -0.2536
  121W        W 1318   2.747   7.638   6.215  0.0312 -0.2558 -0.0910
  122W        W 1319   4.909   1.548   3.120 -0.2885  0.4321  0.2479
  123W        W 1320   4.217   4.124   3.514  0.0018 -0.0331  0.0379
  124W        W 1321   1.924   0.465   3.358  0.3903 -0.0463 -0.0696
  125W        W 1322   2.889   3.116   3.606  0.2597 -0.0755  0.3321
  126W        W 1323   0.393   1.085   6.298 -0.2526  0.1161 -0.0643
  127W        W 1324   5.428   5.997   1.756 -0.0970  0.2803  0.1168
  128W        W 1325   0.965   6.538   3.930 -0.3599 -0.2797  0.1092
  129W        W 1326   2.984   6.463   5.225  0.1663  0.0286 -0.3586
  130W        W 1327   4.207   3.636   2.713  0.4417  0.0428  0.1171
  131W        W 1328   2.377   5.936   6.706  0.2119  0.2727 -0.2175
  132W        W 1329   4.690   5.893   3.118  0.0615  0.1922 -0.1500
  133W        W 1330   0.767   0.201   2.774 -0.0898  0.2843  0.0299
  134W        W 1331   0.713   4.124   5.548 -0.1252 -0.2340 -0.3719
  135W        W 1332   2.246   3.203   2.846  0.0359  0.1889  0.0819
  136W        W 1333   4.759   3.651   4.009  0.0725  0.1308 -0.0892
  137W        W 1334   3.851   1.867   1.663 -0.0318 -0.0412  0.0113
  138W        W 1335   2.404   2.728   5.811  0.2578  0.3131 -0.0995
  139W        W 1336   4.321   0.314   2.758 -0.3815  0.2593  0.0995
  140W        W 1337   2.784   4.400   0.041 -0.0329 -0.1666 -0.2154
  141W        W 1338   4.129   6.950   4.981 -0.0083 -0.0589 -0.1426
  142W        W 1339   0.343   3.331   0.609 -0.1386 -0.1159 -0.0236
  143W        W 1340   0.810   1.308   1.042 -0.2951 -0.2660  0.2940
  144W        W 1341   0.212   1.683   1.610  0.0352  0.1510  0.1174
  145W        W 1342   2.686   0.018   2.014 -0.1285  0.0357  0.1553
  146W        W 1343   4.158   6.894   1.240  0.2090  0.0651 -0.5924
  147W        W 1344   0.486   7.636   3.117  0.2667 -0.1173 -0.0527
  148W        W 1345   0.475   0.492   2.429 -0.2482 -0.0333  0.0234
  149W        W 1346   1.655   2.970   1.094 -0.2251  0.1543 -0.0327
  150W        W 1347   7.059   5.577   6.577  0.1457 -0.0639  0.2662
  151W        W 1348   0.413   4.933   6.876  0.0946 -0.1292 -0.2143
  152W        W 1349   5.597   0.408   3.020 -0.0503  0.1660 -0.0069
  153W        W 1350   1.805   4.153   0.427 -0.0780  0.1275  0.0002
  154W        W 1351   2.276   5.326   4.535 -0.0450 -0.1651  0.1815
  155W        W 1352   3.472   5.406   2.283 -0.0167  0.1444 -0.1269
  156W        W 1353   2.359   5.057   3.982 -0.1500 -0.0635  0.0597
  157W        W 1354   2.014   2.150   4.552 -0.2755 -0.3276  0.1578
  158W        W 1355   7.273   3.935   4.351 -0.0555 -0.1870 -0.0794
  159W        W 1356   4.489   5.756   3.614  0.0204 -0.0995  0.0584
  160W        W 1357   1.669   2.546   5.355 -0.1136 -0.2487 -0.3417
  161W        W 1358   0.642   0.775   0.330  0.1562 -0.0230  0.1345
  162W        W 1359   4.821   2.083   4.475  0.1074 -0.0289 -0.1775
  163W        W 1360   3.782   5.277   5.684 -0.1794  0.1767 -0.0146
  164W        W 1361   3.643   5.302   3.529  0.0965 -0.2007 -0.0674
  165W        W 1362   5.547   4.324   4.024  0.0680 -0.0397  0.0402
  166W        W 1363   3.807   0.366   7.402 -0.1706  0.1007 -0.1000
  167W        W 1364   4.540   4.818   2.006  0.1986  0.0007 -0.0657
  168W        W 1365   0.988   3.691   1.144  0.1392  0.0460 -0.1123
  169W        W 1366   1.407   4.092   7.035 -0.1930  0.0289 -0.4333
  170W        W 1367   2.680   1.253   3.248  0.1480 -0.2737  0.0745
  171W        W 1368   1.499   3.247   4.781 -0.1742 -0.3872 -0.2420
  172W        W 1369   3.759   2.897   3.929 -0.1871  0.5306 -0.0475
  173W        W 1370   1.189   6.190   5.595  0.0567 -0.0154 -0.1327
  174W        W 1371   4.058   3.245   6.626 -0.0254 -0.2289 -0.1107
  175W        W 1372   1.342   7.155   2.215  0.2669  0.0458  0.1738
  176W        W 1373   2.737   0.023   5.170  0.1272  0.0948  0.2519
  177W        W 1374   3.920   2.274   3.917 -0.2940 -0.2317  0.0871
  178W        W 1375   7.086   7.433   3.828  0.1415  0.2864 -0.0288
  179W        W 1376   0.230   4.099   1.919 -0.2361  0.0543  0.1970
  180W        W 1377   3.836   3.584   0.726 -0.1570  0.2258 -0.1187
  181W        W 1378   0.997   0.907   2.300  0.1133  0.2082  0.0547
  182W        W 1379   6.288   7.276   4.403  0.0067  0.2485 -0.0349
  183W        W 1380   3.485   2.983   1.864  0.0129 -0.0614  0.1904
  184W        W 1381   1.003   1.765   2.956 -0.4272  0.2207  0.0802
  185W        W 1382   0.491   4.430   5.976 -0.4257 -0.0797  0.2098
  186W        W 1383   1.297   6.409   6.637  0.1592 -0.1821  0.0594
  187W        W 1384   3.413   4.709   0.612 -0.4193 -0.1379  0.2165
  188W        W 1385   3.118   6.580   2.320 -0.1772  0.0818  0.0755
  189W        W 1386   4.269   6.540   5.226 -0.0160 -0.2017  0.1131
  190W        W 1387   7.122   1.222   3.771  0.0907  0.2387 -0.1533
  191W        W 1388   3.917   7.212   6.980 -0.2241  0.0341  0.0052
  192W        W 1389   0.712   7.371   1.009  0.2624 -0.2486 -0.0428
  193W        W 1390   7.431   7.573   1.696  0.1119  0.2284 -0.1055
  194W        W 1391   3.387   4.720   1.554  0.1488  0.1146 -0.0913
  195W        W 1392   0.986   6.252   1.814 -0.1050 -0.0491 -0.0264
  196W        W 1393   6.312   5.024   6.373  0.2651 -0.0294  0.0643
  197W        W 1394   3.181   7.621   5.817 -0.2622 -0.0392  0.0904
  198W        W 1395   2.153   5.789   3.859  0.0645 -0.0046 -0.0025
  199W        W 1396   4.279   6.167   4.558  0.1370  0.0112  0.0224
  200W        W 1397   4.034   1.441   3.019 -0.0775  0.2437  0.0173
  201W        W 1398   5.336   1.510   5.524  0.2020 -0.0357 -0.1001
  202W        W 1399   1.542   6.783   2.479 -0.0437 -0.2942 -0.0103
  203W        W 1400   5.463   4.427   4.938 -0.2546 -0.0386  0.2576
  204W        W 1401   4.538   3.319   2.946 -0.1258 -0.1649 -0.1655
  205W        W 1402   4.871   4.943   6.126 -0.2972  0.2272 -0.4384
  206W        W 1403   3.275   2.697   3.871  0.0328  0.1760 -0.2274
  207W        W 1404   6.556   0.069   2.767 -0.1889 -0.2045  0.2640
  208W        W 1405   1.537   1.453   1.028 -0.3106 -0.1752 -0.1258
  209W        W 1406   7.188   4.278   2.168 -0.0416  0.1710 -0.1016
  210W        W 1407   3.821   4.133   2.000  0.0099  0.1005 -0.0450
  211W        W 1408   6.235   2.179   4.506  0.0053 -0.2677 -0.1353
  212W        W 1409   1.946   3.092   4.536  0.1655 -0.0514  0.3038
  213W        W 1410   2.206   1.743   3.828 -0.2053 -0.1468 -0.1005
  214W        W 1411   2.470   2.986   4.548  0.0109 -0.2181  0.0568
  215W        W 1412   4.766   0.256   4.520  0.0298 -0.1345  0.2539
  216W        W 1413   1.793   1.806   2.364  0.0192 -0.3246 -0.0371
  217W        W 1414   3.219   4.120   3.454 -0.0742  0.0557 -0.2479
  218W        W 1415   3.283   6.833   1.810 -0.0167  0.4964  0.3177
  219W        W 1416   0.947   0.263   3.254 -0.0582  0.1907  0.2819
  220W        W 1417   2.280   7.426   6.807 -0.0292  0.0618 -0.0128
  221W        W 1418   0.325   4.961   1.693 -0.1281 -0.1430  0.2744
  222W        W 1419   1.698   3.141   0.217  0.2451 -0.0067  0.3392
  223W        W 1420   7.498   2.821   5.087 -0.0324 -0.0244 -0.1645
  224W        W 1421   5.022   3.475   2.817 -0.0557 -0.1575  0.1314
  225W        W 1422   6.903   6.352   4.064 -0.1136  0.4192 -0.0244
  226W        W 1423   1.191   2.846   2.371 -0.3216  0.0243 -0.0550
  227W        W 1424   6.772   1.954   4.479 -0.1995  0.0396 -0.0848
  228W        W 1425   4.067   7.331   0.652 -0.2069 -0.0833 -0.1620
  229W        W 1426   0.209   2.288   6.679 -0.3900 -0.0060 -0.0837
  230W        W 1427   2.788   5.484   5.844  0.2530 -0.0182  0.0213
  231W        W 1428   2.188   1.266   1.736  0.1271 -0.0369  0.1904
  232W        W 1429   1.848   1.529   6.343 -0.1001 -0.0657 -0.0006
  233W        W 1430   2.338   2.143   6.082 -0.0930  0.3928 -0.1654
  234W        W 1431   4.117   4.157   6.706 -0.2620  0.0071  0.1124
  235W        W 1432   5.088   1.795   6.353  0.1132 -0.0513 -0.0862
  236W        W 1433   1.118   0.030   2.010  0.1348 -0.2268  0.1716
  237W        W 1434   6.969   3.813   3.498 -0.3379  0.2201 -0.4131
  238W        W 1435   3.581   3.904   1.026 -0.1530 -0.2745  0.1179
  239W        W 1436   1.138   5.256   5.387 -0.0642 -0.1174 -0.1913
  240W        W 1437   2.822   4.016   0.525  0.4359  0.1837  0.2149
  241W        W 1438   2.979   7.169   6.258  0.3100 -0.2390  0.1452
  242W        W 1439   3.199   4.392   5.425 -0.1366  0.0999 -0.2284
  243W        W 1440   6.443   4.130   3.550 -0.0014 -0.1748  0.2999
  244W        W 1441   1.630   3.932   4.322  0.2567 -0.2135  0.0032
  245W        W 1442   6.714   4.512   3.030 -0.0876 -0.0664 -0.0336
  246W        W 1443   4.209   4.160   1.344 -0.1685 -0.1613 -0.0760
  247W        W 1444   3.595   1.389   1.531  0.2271  0.4800  0.2290
  248W        W 1445   3.793   2.959   6.940  0.0299 -0.0277  0.0468
  249W        W 1446   6.684   6.305   4.568  0.1768  0.0085 -0.1630
  250W        W 1447   0.963   7.466   2.473 -0.2093  0.2027  0.4380
  251W        W 1448   4.108   0.477   2.355  0.1840 -0.0130  0.0463
  252W        W 1449   4.998   0.684   5.093  0.1917  0.0899 -0.0279
  253W        W 1450   4.906   3.078   3.124  0.0788  0.3232 -0.1020
  254W        W 1451   7.337   0.354   0.842  0.0993 -0.1735 -0.0493
  255W        W 1452   4.768   5.688   6.606  0.3789 -0.1124 -0.1040
  256W        W 1453   5.645   3.090   5.507 -0.2142  0.0651  0.0022
  257W        W 1454   1.767   3.190   2.976  0.1680  0.2855 -0.0969
  258W        W 1455   1.709   5.186   1.784  0.3648 -0.0093 -0.0445
  259W        W 1456   6.282   3.055   5.697 -0.4405  0.1922 -0.2188
  260W        W 1457   4.653   6.797   7.555 -0.0401  0.2509  0.0111
  261W        W 1458   0.662   1.939   1.621  0.0207  0.0371 -0.0545
  262W        W 1459   1.525   4.332   2.565  0.0656  0.0033 -0.2871
  263W        W 1460   2.442   6.100   4.144 -0.1711  0.2452 -0.5618
  264W        W 1461   0.869   4.803   1.772 -0.2813 -0.2633 -0.2560
  265W        W 1462   4.260   5.284   2.691  0.1856  0.1434  0.1940
  266W        W 1463   0.113   3.030   4.167 -0.0481 -0.0087 -0.0325
  267W        W 1464   2.490   3.164   0.557 -0.2876 -0.0959  0.0220
  268W        W 1465   3.953   1.775   4.002 -0.0341 -0.0235 -0.0757
  269W        W 1466   4.148   2.057   6.837 -0.0770 -0.1383 -0.1192
  270W        W 1467   3.009   3.815   4.413 -0.0315  0.0127 -0.4801
  271W        W 1468   6.283   4.968   1.645 -0.0699 -0.0135 -0.1870
  272W        W 1469   6.599   6.879   4.352  0.2708 -0.2373  0.1467
  273W        W 1470   4.663   2.230   6.884  0.2006 -0.0767 -0.0515
  274W        W 1471   2.092   3.137   3.331  0.2378  0.1496  0.1490
  275W        W 1472   3.500   0.843   1.483  0.0081  0.0184  0.0391
  276W        W 1473   7.653   6.662   6.156 -0.3111 -0.3632  0.0167
  277W        W 1474   0.101   6.909   0.195  0.0439 -0.1026 -0.1965
  278W        W 1475   2.103   7.284   0.715  0.2396 -0.0520 -0.1561
  279W        W 1476   0.309   0.956   4.314  0.2540  0.0244  0.1477
  280W        W 1477   5.191   3.732   1.016 -0.2080  0.0208  0.2937
  281W        W 1478   2.857   1.058   4.359  0.0419 -0.0948  0.0025
  282W        W 1479   4.846   0.426   3.761 -0.0118 -0.0137 -0.1189
  283W        W 1480   3.720   2.236   2.374  0.3216  0.0293  0.5412
  284W        W 1481   0.754   6.728   2.136 -0.0491  0.1292  0.0106
  285W        W 1482   5.997   0.268   5.559  0.0364  0.2235  0.3037
  286W        W 1483   6.738   7.399   3.106 -0.3111 -0.0121 -0.0084
  287W        W 1484   2.651   2.406   0.468 -0.0938 -0.0105 -0.1295
  288W        W 1485   7.387   6.241   2.223  0.0461  0.2091  0.0065
  289W        W 1486   7.326   6.398   6.417  0.2521 -0.0550  0.5750
  290W        W 1487   2.660   6.904   6.039 -0.0011  0.0419 -0.0953
  291W        W 1488   0.478   1.613   0.560 -0.1554 -0.1705 -0.0334
  292W        W 1489   2.170   6.592   7.196 -0.1354  0.0048  0.0677
  293W        W 1490   7.130   2.371   3.763 -0.0023  0.0115 -0.0480
  294W        W 1491   5.962   4.876   1.245 -0.1747 -0.0484 -0.2653
  295W        W 1492   2.596   7.588   3.846  0.1231  0.1838  0.0278
  296W        W 1493   3.579   0.917   4.017 -0.1088 -0.1171  0.1329
  297W        W 1494   4.676   1.630   4.635 -0.1831  0.4302  0.0420
  298W        W 1495   5.083   2.865   5.975  0.0131 -0.0132  0.0859
  299W        W 1496   3.648   3.078   4.588  0.1528 -0.0661  0.0623
  300W        W 1497   3.990   2.538   0.579  0.0219  0.2947 -0.0691
  301W        W 1498   0.642   1.517   6.448 -0.0757 -0.0352 -0.1464
  302W        W 1499   3.672   6.951   4.832  0.2381  0.0772  0.0106
  303W        W 1500   4.083   0.587   4.996  0.3722 -0.0072 -0.4138
  304W        W 1501   6.932   7.438   4.298 -0.2859  0.2565  0.1284
  305W        W 1502   0.173   3.097   2.099  0.0553 -0.1839  0.3452
  306W        W 1503   1.424   1.065   2.591  0.1895  0.3993 -0.1406
  307W        W 1504   5.666   1.849   5.753  0.2574 -0.1758  0.3049
  308W        W 1505   2.618   6.541   3.306 -0.0699  0.4218 -0.2442
  309W        W 1506   2.980   3.590   5.221  0.0698 -0.1441  0.0512
  310W        W 1507   2.655   0.487   1.862 -0.2952 -0.0315  0.2333
  311W        W 1508   1.535   3.062   4.190 -0.1699  0.1872  0.1643
  312W        W 1509   2.889   2.210   3.084 -0.0786 -0.1642  0.0260
  313W        W 1510   3.493   3.271   7.438  0.1267  0.1007 -0.0037
  314W        W 1511   1.060   1.249   6.485  0.2573 -0.2944  0.3591
  315W        W 1512   5.728   4.177   4.559  0.1321 -0.1446 -0.2140
  316W        W 1513   0.175   6.423   4.379 -0.0718 -0.4910  0.1418
  317W        W 1514   3.080   5.068   0.411 -0.0208 -0.1861 -0.2142
  318W        W 1515   0.278   5.021   5.995  0.0412  0.2956  0.0507
  319W        W 1516   3.400   2.163   4.656 -0.1510 -0.1918  0.0131
  320W        W 1517   1.472   5.489   6.273  0.2150  0.0917 -0.3105
  321W        W 1518   1.898   6.568   2.896 -0.0448  0.0722 -0.2727
  322W        W 1519   1.374   0.935   7.548  0.1203  0.1230 -0.0822
  323W        W 1520   3.750   7.122   1.637  0.0898  0.1066  0.1678
  324W        W 1521   5.158   5.442   6.347  0.1867 -0.2784 -0.0601
  325W        W 1522   6.395   6.288   2.413 -0.2292  0.0621  0.0587
  326W        W 1523   2.487   6.287   0.855 -0.0560  0.0161 -0.2034
  327W        W 1524   7.302   4.737   5.462  0.1644 -0.0624 -0.1889
  328W        W 1525   4.742   1.986   5.010  0.2512 -0.2130  0.0369
  329W        W 1526   3.851   0.236   0.698 -0.1473  0.0244 -0.1654
  330W        W 1527   6.260   7.065   2.809  0.3055 -0.1188 -0.0453
  331W        W 1528   1.411   1.596   6.181  0.1693  0.4725 -0.1102
  332W        W 1529   0.025   0.501   2.708  0.0479  0.1268 -0.2124
  333W        W 1530   7.243   2.505   6.426  0.1917  0.2683  0.1042
  334W        W 1531   1.737   6.465   6.757  0.0550 -0.3794 -0.2089
  335W        W 1532   7.395   6.696   4.272 -0.1539 -0.1478 -0.2995
  336W        W 1533   3.000   2.488   7.200 -0.1901  0.0684 -0.2470
  337W        W 1534   1.232   6.298   3.527  0.2743  0.0552 -0.0435
  338W        W 1535   0.058   1.792   5.837 -0.0579 -0.1717 -0.1312
  339W        W 1536   7.493   2.704   5.960 -0.1580 -0.1779  0.0737
  340W        W 1537   3.958   3.567   1.242 -0.1205  0.0732 -0.2153
  341W        W 1538   0.856   6.143   6.006  0.0907 -0.0262 -0.2338
  342W        W 1539   2.251   5.921   5.408 -0.0619  0.2426  0.1537
  343W        W 1540   3.620   1.803   7.365  0.0600  0.1194  0.0173
  344W        W 1541   2.668   6.542   7.093  0.2022 -0.0368 -0.0507
  345W        W 1542   7.336   5.122   3.282 -0.1419  0.1322 -0.1882
  346W        W 1543   1.452   0.065   2.386 -0.1793  0.0739  0.0850
  347W        W 1544   1.780   4.303   5.322  0.0892  0.0435  0.2161
  348W        W 1545   1.910   0.445   0.621  0.0461  0.0243  0.2006
  349W        W 1546   0.642   2.788   6.655 -0.0633 -0.0105  0.1341
  350W        W 1547   6.053   0.725   3.859 -0.2319  0.0598 -0.1426
  351W        W 1548   2.789   5.434   0.108 -0.1764  0.0142  0.1936
  352W        W 1549   0.484   6.549   6.011  0.0681 -0.1187 -0.2478
  353W        W 1550   5.663   2.838   2.422  0.0115 -0.0162 -0.0333
  354W        W 1551   4.525   5.730   5.746  0.3278  0.0407  0.0390
  355W        W 1552   4.496   5.297   2.058 -0.2559 -0.1648  0.1692
  356W        W 1553   0.289   2.549   4.334 -0.1290 -0.1522 -0.1248
  357W        W 1554   5.475   4.869   2.962 -0.1119 -0.0629  0.0333
  358W        W 1555   1.091   3.206   1.978 -0.2044 -0.0144  0.1519
  359W        W 1556   6.523   5.100   2.038 -0.0674 -0.2747 -0.1255
  360W        W 1557   4.554   2.608   0.715 -0.1696  0.1878  0.0540
  361W        W 1558   4.303   2.702   1.523  0.1061 -0.3845 -0.1128
  362W        W 1559   0.840   6.278   1.151 -0.0548  0.2069 -0.1876
  363W        W 1560   1.730   1.214   5.958 -0.1253  0.1441  0.0100
  364W        W 1561   4.864   2.264   6.303  0.2208  0.1118  0.1892
  365W        W 1562   0.015   2.967   0.609  0.1949  0.1057  0.0457
  366W        W 1563   0.400   4.821   5.052 -0.1651  0.2084 -0.1837
  367W        W 1564   0.452   1.721   2.004 -0.1138  0.4039 -0.0906
  368W        W 1565   1.133   2.225   1.741  0.2100  0.0106  0.0193
  369W        W 1566   1.558   0.471   2.713  0.0159 -0.0881 -0.2291
  370W        W 1567   1.129   6.908   6.922 -0.1491  0.0943 -0.1664
  371W        W 1568   0.856   0.767   3.350  0.0345  0.2071 -0.2157
  372W        W 1569   6.645   0.762   5.197  0.1014 -0.0388 -0.2353
  373W        W 1570   2.250   6.196   1.290  0.1645  0.3215 -0.3560
  374W        W 1571   4.344   4.674   1.486 -0.1468 -0.0304 -0.2664
  375W        W 1572   2.961   2.887   0.466 -0.2015 -0.0001 -0.1299
  376W        W 1573   3.849   5.430   1.051 -0.1647  0.0620  0.0788
  377W        W 1574   1.933   0.210   6.773 -0.0143 -0.0516  0.2759
  378W        W 1575   1.091   3.056   4.582 -0.1054  0.0085 -0.1167
  379W        W 1576   0.029   0.562   7.023  0.1327 -0.2681 -0.1056
  380W        W 1577   1.955   4.776   3.522  0.2201 -0.1310 -0.4065
  381W        W 1578   0.413   6.959   1.340  0.0153 -0.2038 -0.1921
  382W        W 1579   4.381   1.116   4.784  0.3165 -0.0542  0.2032
  383W        W 1580   0.422   6.695   6.474 -0.1487 -0.2153 -0.2126
  384W        W 1581   0.460   5.258   4.871 -0.1502 -0.0027  0.1925
  385W        W 1582   1.006   6.563   0.651 -0.2230  0.2183 -0.2933
  386W        W 1583   1.145   7.596   0.571  0.1532  0.0594  0.2014
  387W        W 1584   1.654   2.824   6.959 -0.4295 -0.0412  0.0372
  388W        W 1585   5.398   7.486   4.441 -0.0683 -0.0528  0.1746
  389W        W 1586   4.874   6.946   2.850 -0.1322  0.1377  0.3045
  390W        W 1587   3.657   2.384   3.006  0.1504 -0.2111  0.3041
  391W        W 1588   5.077   3.200   1.599 -0.0479 -0.3072 -0.3052
  392W        W 1589   0.518   5.057   3.512  0.0684  0.0135 -0.1023
  393W        W 1590   1.509   2.588   1.879  0.2898  0.1395  0.0858
  394W        W 1591   4.627   0.675   4.807 -0.1292 -0.3891  0.0461
  395W        W 1592   4.870   5.096   7.199  0.1126 -0.0069  0.2339
  396W        W 1593   0.778   2.630   4.584 -0.1879 -0.2630 -0.0040
  397W        W 1594   0.692   2.497   3.025 -0.0043 -0.0970 -0.0490
  398W        W 1595   3.295   3.823   6.209  0.0484  0.1539 -0.1332
  399W        W 1596   0.573   3.931   1.473 -0.0441 -0.0526 -0.0641
  400W        W 1597   0.615   7.219   2.773 -0.0614 -0.0258 -0.0689
  401W        W 1598   2.688   7.210   2.188  0.0452 -0.0591  0.2438
  402W        W 1599   1.807   3.749   7.096 -0.1864 -0.0218  0.0999
  403W        W 1600   0.593   6.996   6.125 -0.1726 -0.1846 -0.0216
  404W        W 1601   5.022   2.582   2.820  0.0115  0.0669 -0.1779
  405W        W 1602   3.220   5.858   6.704 -0.2868  0.1516 -0.2037
  406W        W 1603   1.570   6.794   7.134  0.2062 -0.1517 -0.1424
  407W        W 1604   6.877   5.054   2.908  0.0247  0.3728 -0.0321
  408W        W 1605   2.498   5.110   5.666  0.1692  0.2402  0.0610
  409W        W 1606   6.531   2.843   5.318  0.0383 -0.0255  0.1039
  410W        W 1607   0.043   0.026   5.674 -0.1444 -0.1600  0.1899
  411W        W 1608   0.230   7.214   5.788 -0.2064 -0.0958  0.1829
  412W        W 1609   2.851   3.878   1.731  0.1813 -0.0445  0.0555
  413W        W 1610   3.470   4.873   5.126  0.0350 -0.3599 -0.2372
  414W        W 1611   7.058   2.879   6.771 -0.1918  0.3270  0.2935
  415W        W 1612   2.661   3.535   5.628  0.0853 -0.2007  0.0223
  416W        W 1613   1.003   1.373   5.459  0.2886  0.2212  0.1436
  417W        W 1614   4.552   7.470   5.430  0.1063  0.1221 -0.1209
  418W        W 1615   3.148   0.991   5.126 -0.0668 -0.1671 -0.1177
  419W        W 1616   2.826   7.288   0.038 -0.0696 -0.0569 -0.3171
  420W        W 1617   1.002   6.649   7.320  0.0456  0.1089  0.0253
  421W        W 1618   4.327   2.118   7.308 -0.3753  0.2082  0.2809
  422W        W 1619   0.279   1.827   6.894  0.1860  0.3440 -0.1955
  423W        W 1620   4.178   6.597   2.435 -0.3233  0.1898  0.0058
  424W        W 1621   1.676   3.709   0.272 -0.3313  0.1412  0.1264
  425W        W 1622   4.020   0.494   1.278  0.2624 -0.1645 -0.0601
  426W        W 1623   4.485   1.328   1.663 -0.1743  0.2387  0.0955
  427W        W 1624   4.981   1.887   4.026  0.2540 -0.1983 -0.0905
  428W        W 1625   5.161   5.413   6.856 -0.1955  0.1394 -0.0650
  429W        W 1626   1.348   3.377   0.395  0.3538  0.1492  0.1316
  430W        W 1627   6.733   7.620   5.191 -0.0173 -0.4219  0.2623
  431W        W 1628   3.283   6.952   1.164  0.0952 -0.0201 -0.2481
  432W        W 1629   7.462   2.594   2.977  0.3997  0.1117  0.3507
  433W        W 1630   4.713   1.901   3.590 -0.2267  0.3713  0.0188
  434W        W 1631   0.499   0.604   0.810  0.1424  0.3112 -0.3214
  435W        W 1632   4.447   4.532   2.776 -0.0224  0.3237 -0.0482
  436W        W 1633   4.549   5.880   6.206  0.2464  0.1618 -0.1378
  437W        W 1634   0.819   3.497   4.373  0.0642  0.2699  0.0816
  438W        W 1635   0.077   4.806   3.461  0.1845 -0.1285 -0.0264
  439W        W 1636   4.034   0.463   1.843  0.2065  0.0937 -0.2571
  440W        W 1637   5.607   5.432   2.961 -0.1583 -0.0564 -0.0334
  441W        W 1638   2.022   2.177   7.381  0.0674  0.1013  0.6815
  442W        W 1639   7.269   3.783   3.119 -0.0181 -0.2122 -0.0516
  443W        W 1640   1.719   3.671   2.129 -0.1545  0.1414 -0.0982
  444W        W 1641   4.588   4.589   3.873 -0.0314  0.1010 -0.0581
  445W        W 1642   5.732   6.747   3.702  0.3766  0.0023 -0.1044
  446W        W 1643   5.422   4.596   6.262  0.0099 -0.2412 -0.0723
  447W        W 1644   2.338   2.239   3.628  0.3317  0.0096  0.0912
  448W        W 1645   0.229   1.128   3.818 -0.0359 -0.1005 -0.2755
  449W        W 1646   3.928   7.356   4.721 -0.0374  0.0264  0.1564
  450W        W 1647   0.705   3.049   2.331 -0.0575 -0.2147 -0.2226
  451W        W 1648   7.540   3.651   2.726  0.0040  0.0350  0.1827
  452W        W 1649   6.735   4.621   4.770  0.2738 -0.1414  0.1700
  453W        W 1650   2.275   3.241   5.736  0.0288 -0.1654 -0.0657
  454W        W 1651   3.060   1.171   3.586  0.0461  0.0411  0.2410
  455W        W 1652   5.747   7.633   3.371 -0.0716 -0.2496 -0.0636
  456W        W 1653   5.655   5.307   5.129 -0.0805  0.2007  0.5157
  457W        W 1654   0.443   2.480   0.910  0.0493 -0.1060 -0.1728
  458W        W 1655   2.378   4.070   6.189 -0.0350 -0.0951 -0.0026
  459W        W 1656   5.818   0.338   3.780 -0.1316  0.1301  0.1654
  460W        W 1657   2.144   0.478   2.898  0.1459  0.0409 -0.0819
  461W        W 1658   2.210   0.907   0.309 -0.0144  0.0922 -0.0740
  462W        W 1659   0.683   1.667   2.456  0.1367  0.2548 -0.1150
  463W        W 1660   7.194   3.334   5.901 -0.4716  0.2147  0.0032
  464W        W 1661   6.011   4.338   5.134  0.2335  0.4522 -0.2490
  465W        W 1662   1.608   0.358   4.807 -0.1346  0.2375  0.2468
  466W        W 1663   0.153   1.323   4.845 -0.1733  0.0572  0.2363
  467W        W 1664   0.123   2.729   7.632 -0.2630 -0.1817 -0.2070
  468W        W 1665   0.527   0.966   2.587  0.0386 -0.0452 -0.1200
  469W        W 1666   2.147   7.628   0.345  0.1702 -0.0750 -0.1327
  470W        W 1667   1.870   2.432   6.450  0.4496 -0.0897 -0.1787
  471W        W 1668   3.076   3.243   3.118  0.0786 -0.1349 -0.1422
  472W        W 1669   4.177   2.796   0.227  0.0125  0.1687 -0.2544
  473W        W 1670   5.634   5.152   5.624 -0.2153  0.0016 -0.0827
  474W        W 1671   4.372   0.497   5.907  0.0907 -0.0596 -0.0074
  475W        W 1672   3.120   4.530   2.363 -0.3025 -0.0652  0.2208
  476W        W 1673   4.115   2.543   7.422  0.2107 -0.0878 -0.2321
  477W        W 1674   1.959   7.240   1.642  0.1812  0.0438 -0.3413
  478W        W 1675   1.403   6.026   2.043 -0.2023 -0.0575  0.0035
  479W        W 1676   0.952   6.852   4.490  0.2967 -0.2774 -0.0230
  480W        W 1677   4.139   2.666   3.682  0.1616 -0.0657 -0.0741
  481W        W 1678   0.158   4.951   2.295  0.1133 -0.0507 -0.1443
  482W        W 1679   1.914   7.094   3.848  0.1966  0.0304  0.2820
  483W        W 1680   2.447   1.836   1.285 -0.0582 -0.1345 -0.1022
  484W        W 1681   1.826   5.537   4.612  0.0627  0.0227 -0.0334
  485W        W 1682   2.779   2.484   3.781 -0.1189 -0.2445  0.2628
  486W        W 1683   1.924   6.264   7.499 -0.2778  0.1653 -0.3224
  487W        W 1684   2.613   2.635   4.938  0.1528 -0.4415  0.0462
  488W        W 1685   2.218   1.039   7.073  0.0471  0.2463 -0.1458
  489W        W 1686   6.173   6.980   6.275 -0.1647 -0.1315 -0.0287
  490W        W 1687   2.568   6.070   3.152 -0.0356  0.0740  0.0644
  491W        W 1688   6.862   5.776   4.729 -0.0518 -0.0283  0.2909
  492W        W 1689   4.628   0.322   0.735  0.0122  0.0228  0.0158
  493W        W 1690   0.446   3.116   6.228 -0.3516  0.0955 -0.0819
  494W        W 1691   0.551   3.406   2.972  0.1441 -0.1045  0.1129
  495W        W 1692   3.330   2.696   4.699 -0.0378 -0.0571  0.1122
  496W        W 1693   0.736   3.987   3.099 -0.1024  0.0334  0.1144
  497W        W 1694   0.013   2.283   6.231  0.1125 -0.0709 -0.2120
  498W        W 1695   5.867   6.608   5.708  0.2918 -0.0007 -0.0963
  499W        W 1696   6.019   0.604   4.331  0.2931 -0.1185  0.1496
  500W        W 1697   6.078   7.329   3.642 -0.1401  0.0133  0.4569
  501W        W 1698   0.268   2.299   4.747  0.0742 -0.2787 -0.4157
  502W        W 1699   0.458   6.706   4.656 -0.2430  0.0236 -0.0427
  503W        W 1700   4.769   2.785   5.582 -0.0190 -0.0013 -0.0538
  504W        W 1701   0.132   2.797   5.564  0.2551 -0.1307  0.2679
  505W        W 1702   2.338   0.977   2.789 -0.0264  0.2601  0.0387
  506W        W 1703   2.469   0.563   6.189 -0.2759  0.1096  0.1381
  507W        W 1704   7.114   3.878   2.472  0.1708 -0.0282  0.0922
  508W        W 1705   3.028   2.963   6.569  0.0579 -0.3205  0.0554
  509W        W 1706   3.397   4.394   1.988  0.2039  0.1478 -0.1247
  510W        W 1707   6.244   0.158   3.516  0.0465  0.1710 -0.0669
  511W        W 1708   4.942   0.960   2.837  0.1093  0.0440  0.3773
  512W        W 1709   4.466   1.293   3.341  0.1662  0.3071  0.1953
  513W        W 1710   0.012   2.696   2.427  0.1956 -0.1987  0.0030
  514W        W 1711   2.613   3.646   6.573 -0.0498 -0.2533 -0.1554
  515W        W 1712   6.647   5.003   3.932 -0.0903  0.2139  0.3301
  516W        W 1713   5.742   5.521   2.097  0.2236 -0.1660 -0.1793
  517W        W 1714   6.967   1.106   6.759 -0.0373  0.1106  0.0091
  518W        W 1715   0.302   0.637   7.611  0.0514  0.0093 -0.1359
  519W        W 1716   6.383   4.895   3.071 -0.0128 -0.3229  0.0603
  520W        W 1717   0.982   3.982   2.554  0.3548 -0.1472  0.0051
  521W        W 1718   4.953   3.299   6.168 -0.2917 -0.0934 -0.0629
  522W        W 1719   0.893   3.221   6.439 -0.1909 -0.1021  0.2788
  523W        W 1720   0.197   7.343   1.057  0.3621  0.2720  0.0999
  524W        W 1721   2.250   0.108   7.196 -0.1895 -0.0832 -0.0101
  525W        W 1722   0.039   4.635   4.581 -0.0748  0.1397  0.1929
  526W        W 1723   6.310   0.636   5.511  0.0654 -0.1078  0.1882
  527W        W 1724   3.499   2.779   6.478  0.3151 -0.0062 -0.0120
  528W        W 1725   1.711   3.418   6.322 -0.0418 -0.1883  0.0865
  529W        W 1726   4.919   4.782   5.021 -0.2390 -0.2615  0.1492
  530W        W 1727   2.594   4.327   7.235  0.0780 -0.2148  0.1280
  531W        W 1728   1.847   0.856   4.161 -0.1771 -0.0655  0.0300
  532W        W 1729   1.015   0.528   7.578  0.1157 -0.2251 -0.0847
  533W        W 1730   1.237   1.108   3.070 -0.1832  0.0575  0.2161
  534W        W 1731   2.272   4.932   0.892  0.0760 -0.1689  0.1047
  535W        W 1732   1.732   7.303   0.007 -0.3329  0.0546 -0.2620
  536W        W 1733   5.730   5.210   7.493  0.2470  0.1890 -0.1097
  537W        W 1734   5.236   7.324   4.010  0.0608  0.1955 -0.0204
  538W        W 1735   7.152   1.654   7.102  0.0491  0.0257  0.1504
  539W        W 1736   4.493   7.013   2.389  0.1462  0.1638 -0.2358
  540W        W 1737   0.621   1.970   6.577 -0.0422 -0.3550 -0.2215
  541W        W 1738   5.899   5.708   5.016 -0.0939 -0.1516  0.2532
  542W        W 1739   7.209   6.588   1.387  0.0023  0.0506 -0.2068
  543W        W 1740   5.694   5.621   4.185  0.3151  0.0797  0.4554
  544W        W 1741   3.153   3.480   5.858  0.0837 -0.2979 -0.3783
  545W        W 1742   1.115   2.533   2.772  0.0291 -0.0355  0.0450
  546W        W 1743   4.079   3.018   4.902 -0.0077 -0.0049  0.0007
  547W        W 1744   0.042   2.353   7.273  0.1277  0.0096  0.2422
  548W        W 1745   2.679   6.605   4.266  0.0445  0.2185  0.1420
  549W        W 1746   0.152   1.483   5.337  0.2240 -0.1699  0.0519
  550W        W 1747   1.632   5.271   5.514  0.3033  0.0856  0.0567
  551W        W 1748   0.263   4.060   3.443  0.2155  0.2601 -0.0014
  552W        W 1749   1.813   0.280   4.342  0.2544  0.2749 -0.2625
  553W        W 1750   5.783   6.159   3.574 -0.1656 -0.1985  0.4028
  554W        W 1751   1.478   0.776   4.554 -0.1409  0.0285 -0.0341
  555W        W 1752   6.594   5.903   6.012 -0.0743  0.1849  0.0042
  556W        W 1753   3.637   3.781   6.605  0.0884 -0.1900 -0.0427
  557W        W 1754   1.692   4.238   3.855 -0.0588  0.1246 -0.0934
  558W        W 1755   1.219   0.807   1.293  0.0880 -0.0348  0.1674
  559W        W 1756   1.118   5.961   6.405  0.0806  0.0714 -0.2720
  560W        W 1757   3.102   1.236   1.745 -0.1985 -0.0442 -0.0822
  561W        W 1758   5.920   6.286   6.049  0.0782 -0.2671 -0.1855
  562W        W 1759   4.345   2.411   6.530  0.0184 -0.0381  0.1411
  563W        W 1760   4.056   4.695   0.480 -0.2897 -0.0403  0.2351
  564W        W 1761   1.816   1.947   6.130  0.2421 -0.1487  0.1569
  565W        W 1762   2.760   7.489   6.666 -0.0323  0.1239 -0.1341
  566W        W 1763   6.307   2.037   5.944 -0.1763  0.1743 -0.0639
  567W        W 1764   2.607   4.670   4.141  0.1883  0.0338  0.2385
  568W        W 1765   5.695   5.772   1.314  0.2781  0.0088  0.1356
  569W        W 1766   4.968   7.622   3.638  0.0061  0.1200  0.0055
  570W        W 1767   7.347   0.134   7.060  0.1276  0.0930  0.1644
  571W        W 1768   3.180   2.232   5.580 -0.1255 -0.2232 -0.0871
  572W        W 1769   6.286   5.005   4.578 -0.0448  0.0117  0.0328
  573W        W 1770   2.467   6.722   3.827  0.3508 -0.0693 -0.1206
  574W        W 1771   7.156   5.143   3.892 -0.1677 -0.0040  0.1137
  575W        W 1772   6.824   0.235   6.836  0.0991 -0.0580 -0.3444
  576W        W 1773   6.833   3.871   4.015  0.0894 -0.1588  0.0631
  577W        W 1774   2.331   5.222   7.604  0.1935 -0.0431  0.1169
  578W        W 1775   0.709   3.045   7.138  0.1945  0.1454  0.0526
  579W        W 1776   4.501   1.205   0.231  0.0978  0.0551 -0.1964
  580W        W 1777   7.511   3.692   5.841 -0.0196 -0.4083 -0.0831
  581W        W 1778   7.166   5.374   4.399 -0.0685 -0.1252 -0.0341
  582W        W 1779   4.465   6.687   6.235 -0.2170  0.1015  0.2293
  583W        W 1780   4.914   0.148   1.134  0.0697  0.1611 -0.1876
  584W        W 1781   1.425   0.429   0.464 -0.0026  0.1344  0.2180
  585W        W 1782   6.050   6.697   5.267 -0.1354 -0.1558  0.1409
  586W        W 1783   4.568   4.231   0.694  0.0107  0.0091 -0.1005
  587W        W 1784   3.018   2.111   0.295 -0.0666  0.0627  0.2925
  588W        W 1785   3.617   1.132   3.510 -0.1160 -0.2504  0.1615
  589W        W 1786   7.030   5.047   6.782 -0.1703  0.4180 -0.0073
  590W        W 1787   0.063   4.735   2.849  0.3130 -0.1349 -0.0020
  591W        W 1788   4.150   3.972   0.858 -0.1615  0.0005  0.0671
  592W        W 1789   3.297   4.261   0.650  0.1369  0.2315 -0.3470
  593W        W 1790   3.160   4.405   3.854  0.1344 -0.1728  0.0551
  594W        W 1791   0.805   4.540   5.165 -0.2037 -0.2203 -0.0698
  595W        W 1792   3.799   6.077   4.491  0.0213 -0.2654  0.0963
  596W        W 1793   2.290   6.197   4.662 -0.0436  0.0105 -0.2314
  597W        W 1794   2.103   4.252   1.435  0.2824  0.0058  0.0866
  598W        W 1795   4.209   7.345   1.518 -0.1261 -0.1532  0.4524
  599W        W 1796   3.210   5.383   4.392  0.1553  0.1475 -0.1698
  600W        W 1797   5.221   0.055   2.688 -0.2762  0.2012  0.0182
  601W        W 1798   6.648   2.626   3.706 -0.1497 -0.1360  0.1069
  602W        W 1799   0.113   0.136   0.267  0.2149 -0.0339  0.1719
  603W        W 1800   2.841   3.837   2.864 -0.0136 -0.0479 -0.2440
  604W        W 1801   3.184   4.808   4.225 -0.0415 -0.4508 -0.0029
  605W        W 1802   0.340   5.383   2.155  0.0994 -0.3667 -0.1304
  606W        W 1803   1.190   2.835   6.583  0.0948  0.4312  0.1453
  607W        W 1804   7.000   5.519   3.395  0.0158  0.2830  0.0442
  608W        W 1805   2.181   2.153   2.247  0.2077 -0.0334  0.2255
  609W        W 1806   5.105   6.458   1.211  0.3002 -0.1253  0.2014
  610W        W 1807   4.710   3.374   4.465 -0.1451 -0.2959 -0.1680
  611W        W 1808   1.841   0.926   7.546 -0.3238  0.0308 -0.1479
  612W        W 1809   3.734   2.186   5.470 -0.0431 -0.0196 -0.0155
  613W        W 1810   4.725   6.746   2.031 -0.0030 -0.0041  0.0573
  614W        W 1811   0.876   4.167   1.103 -0.0369 -0.0342 -0.1170
  615W        W 1812   2.992   2.426   6.632  0.3664  0.0486 -0.1147
  616W        W 1813   6.810   3.207   6.494  0.0996  0.1203  0.2253
  617W        W 1814   4.090   2.338   3.246  0.0383  0.0729 -0.0420
  618W        W 1815   6.307   3.841   3.078  0.0925  0.0267  0.1818
  619W        W 1816   6.057   4.212   2.339  0.0079  0.2018 -0.4526
  620W        W 1817   4.432   2.732   5.218  0.0533  0.0274  0.1053
  621W        W 1818   3.200   7.101   2.194  0.0094 -0.0220 -0.1006
  622W        W 1819   4.296   3.597   4.264  0.1795  0.3430 -0.0955
  623W        W 1820   0.945   2.544   0.703 -0.2986 -0.2184 -0.1869
  624W        W 1821   2.181   0.062   1.817 -0.2370  0.1377  0.1150
  625W        W 1822   7.102   6.737   2.735 -0.0324  0.0310  0.0010
  626W        W 1823   6.583   7.154   3.936 -0.3415 -0.2230 -0.1659
  627W        W 1824   0.847   0.972   1.644  0.1920 -0.0950  0.1471
  628W        W 1825   0.965   4.447   6.575  0.1670  0.1813 -0.1195
  629W        W 1826   4.742   1.439   4.187  0.0045 -0.4036  0.3132
  630W        W 1827   3.437   7.238   6.098  0.1678 -0.0871  0.3017
  631W        W 1828   4.629   4.963   1.121  0.1679  0.2309 -0.0321
  632W        W 1829   1.706   3.166   3.694  0.1071 -0.0634 -0.0589
  633W        W 1830   1.097   4.976   5.792 -0.1454  0.3017 -0.2427
  634W        W 1831   4.635   5.075   5.286 -0.0398  0.0620 -0.4017
  635W        W 1832   1.700   7.285   1.187  0.0580 -0.0037 -0.0707
  636W        W 1833   1.293   0.643   7.175 -0.1187 -0.1775 -0.1807
  637W        W 1834   2.778   7.336   5.811 -0.1265 -0.1402  0.1586
  638W        W 1835   2.101   3.466   0.389 -0.0864 -0.1315 -0.2364
  639W        W 1836   2.868   5.700   6.300  0.0549 -0.2346 -0.0813
  640W        W 1837   4.723   6.241   6.644  0.0008  0.3300 -0.0344
  641W        W 1838   5.308   5.617   0.941 -0.0804 -0.0952 -0.5093
  642W        W 1839   2.948   0.273   0.247  0.0219  0.2223 -0.0797
  643W        W 1840   0.063   6.577   5.682  0.0317 -0.1414  0.4611
  644W        W 1841   0.582   5.255   6.330  0.0657  0.2529 -0.2760
  645W        W 1842   1.438   6.960   4.661  0.3310  0.0733  0.2386
  646W        W 1843   3.078   4.533   7.302  0.0010 -0.0049  0.1193
  647W        W 1844   2.949   6.146   0.610  0.2310  0.0440  0.1700
  648W        W 1845   1.401   0.573   3.194 -0.0535 -0.0373  0.1979
  649W        W 1846   1.450   7.456   6.152  0.0940  0.1632 -0.0449
  650W        W 1847   4.796   5.589   7.179 -0.0210  0.0557 -0.0623
  651W        W 1848   4.885   4.550   4.315  0.2473  0.4983  0.2366
  652W        W 1849   6.798   5.081   3.398  0.0704 -0.0427  0.1910
  653W        W 1850   7.603   0.084   3.865  0.1463  0.0671 -0.1576
  654W        W 1851   2.773   6.130   1.282  0.0755  0.0710  0.0617
  655W        W 1852   6.518   4.161   4.303 -0.0510  0.0385 -0.0504
  656W        W 1853   5.702   1.835   4.484 -0.1866 -0.1687 -0.0716
  657W        W 1854   4.328   7.227   7.429  0.1863  0.0143 -0.1661
  658W        W 1855   4.381   6.636   3.405  0.2595 -0.3742  0.3089
  659W        W 1856   4.940   5.846   7.602  0.2848 -0.0634 -0.2902
  660W        W 1857   6.262   4.600   6.011  0.0146  0.2276 -0.2219
  661W        W 1858   6.619   5.240   5.365 -0.1843 -0.1035  0.0268
  662W        W 1859   6.224   2.354   6.327 -0.1213  0.1130  0.0599
  663W        W 1860   3.031   6.413   1.571  0.1051 -0.0337 -0.3620
  664W        W 1861   5.470   6.429   6.356  0.0469 -0.2035  0.0025
  665W        W 1862   3.490   0.346   0.232 -0.2271  0.0058 -0.0325
  666W        W 1863   4.952   4.777   3.061 -0.0800  0.0102 -0.1061
  667W        W 1864   3.263   4.718   0.096  0.3431 -0.2894  0.0641
  668W        W 1865   3.515   0.808   5.555 -0.0143 -0.1270  0.2143
  669W        W 1866   4.245   3.067   2.607 -0.2262  0.2506 -0.2336
  670W        W 1867   1.847   2.493   1.082 -0.1291  0.0907 -0.0151
  671W        W 1868   1.859   0.869   1.956  0.0792 -0.0381 -0.1281
  672W        W 1869   5.215   1.118   5.808  0.0518 -0.2842 -0.0711
  673W        W 1870   2.842   1.708   2.466 -0.0533  0.0726  0.4376
  674W        W 1871   1.793   7.240   2.472 -0.1921 -0.1299  0.0740
  675W        W 1872   0.756   0.452   1.557  0.1903  0.0920  0.1491
  676W        W 1873   4.754   1.893   1.024 -0.0998  0.1892  0.2338
  677W        W 1874   3.221   2.132   1.030  0.1391  0.1835 -0.3067
  678W        W 1875   2.977   3.413   6.355 -0.0639  0.2944  0.2233
  679W        W 1876   1.678   0.720   5.782  0.4241  0.0841 -0.1639
  680W        W 1877   6.890   0.200   7.337  0.1918  0.1781  0.2420
  681W        W 1878   4.328   4.164   6.225 -0.1056  0.2159  0.3681
  682W        W 1879   2.544   2.295   4.529  0.0155 -0.0466 -0.1073
  683W        W 1880   0.992   6.677   3.271  0.1510 -0.1182 -0.0154
  684W        W 1881   4.784   7.365   5.024 -0.3099 -0.0380  0.0012
  685W        W 1882   0.240   0.594   1.289  0.2124  0.0763  0.1672
  686W        W 1883   2.799   2.517   0.015 -0.0068  0.2773 -0.0289
  687W        W 1884   4.953   5.563   3.533 -0.1588 -0.2755 -0.0916
  688W        W 1885   3.240   7.299   3.295  0.0583  0.0724  0.0773
  689W        W 1886   1.500   5.175   2.742 -0.0530 -0.1335  0.1851
  690W        W 1887   4.948   5.942   0.815 -0.2396  0.0795 -0.1779
  691W        W 1888   5.240   5.177   3.717  0.0912 -0.0114 -0.0711
  692W        W 1889   3.797   4.910   0.833  0.1958  0.0191 -0.0234
  693W        W 1890   6.457   5.944   4.272 -0.0855  0.0745 -0.0495
  694W        W 1891   5.065   3.671   1.703  0.0716 -0.0665  0.0571
  695W        W 1892   2.096   5.108   4.919  0.0832 -0.0125 -0.2100
  696W        W 1893   3.968   5.414   7.090 -0.0601 -0.0535  0.2370
  697W        W 1894   4.745   3.410   1.273  0.0726  0.1066  0.1136
  698W        W 1895   4.799   4.045   6.578 -0.0817 -0.1866  0.1548
  699W        W 1896   5.905   1.883   6.170 -0.0953  0.1825 -0.2022
  700W        W 1897   3.911   5.901   0.004 -0.0793  0.2441 -0.0381
  701W        W 1898   2.871   7.106   0.552  0.2371 -0.0724  0.0171
  702W        W 1899   6.134   5.254   5.478 -0.2178  0.1726 -0.1114
  703W        W 1900   6.280   4.423   4.751 -0.0578 -0.2556  0.2460
  704W        W 1901   3.525   0.403   6.995 -0.2813  0.2637  0.0972
  705W        W 1902   1.379   4.676   2.919 -0.1449  0.0190 -0.3648
  706W        W 1903   7.233   5.760   2.351 -0.1656 -0.1675 -0.1166
  707W        W 1904   7.266   2.965   2.109 -0.0482  0.3826  0.0597
  708W        W 1905   0.279   7.064   6.784  0.1576  0.0560 -0.1375
  709W        W 1906   7.187   7.188   7.519 -0.2906 -0.0252  0.1120
  710W        W 1907   2.300   0.611   0.867 -0.2405 -0.0516 -0.1926
  711W        W 1908   5.031   4.602   7.382 -0.0840  0.0487 -0.2964
  712W        W 1909   6.997   3.024   4.672 -0.0606 -0.1653  0.1158
  713W        W 1910   3.378   1.491   1.134  0.0742  0.1847  0.0366
  714W        W 1911   7.327   4.794   2.169 -0.1378 -0.0037  0.2917
  715W        W 1912   3.414   6.058   7.130 -0.0559 -0.0096 -0.0294
  716W        W 1913   4.413   7.636   2.294 -0.1616  0.4596  0.1677
  717W        W 1914   2.385   4.162   6.722 -0.2848  0.4153 -0.0810
  718W        W 1915   3.169   1.246   4.030 -0.0543  0.0893  0.1119
  719W        W 1916   3.759   2.245   7.238  0.1449  0.1108  0.0581
  720W        W 1917   5.999   6.173   4.516 -0.1156 -0.1712 -0.1156
  721W        W 1918   5.461   6.345   4.512  0.1229  0.2190 -0.2853
  722W        W 1919   0.759   6.202   3.330  0.0984  0.0553  0.0505
  723W        W 1920   3.684   0.727   0.596 -0.2990  0.0089 -0.1735
  724W        W 1921   2.414   5.461   3.613  0.0446  0.0690 -0.1068
  725W        W 1922   4.755   6.249   4.590 -0.4011  0.4829 -0.2815
  726W        W 1923   3.867   2.454   6.171  0.1088  0.0658  0.1642
  727W        W 1924   4.966   2.049   2.876 -0.0473 -0.4280 -0.1513
  728W        W 1925   0.165   1.013   2.944  0.3419  0.0687  0.1115
  729W        W 1926   2.387   1.139   7.550 -0.2100  0.1445  0.2910
  730W        W 1927   6.680   7.063   6.308 -0.2715  0.1265  0.0466
  731W        W 1928   3.835   0.047   6.672  0.1062  0.0473  0.0775
  732W        W 1929   6.725   2.549   6.474  0.2194  0.0368 -0.1364
  733W        W 1930   5.290   0.232   4.695  0.1112  0.0324  0.1806
  734W        W 1931   5.432   4.332   5.740 -0.3024  0.2211 -0.0328
  735W        W 1932   4.905   2.777   1.919 -0.1617  0.2568 -0.0121
  736W        W 1933   5.263   6.665   2.769 -0.0494 -0.1115 -0.1211
  737W        W 1934   2.781   3.310   2.738 -0.2219  0.1433  0.0037
  738W        W 1935   7.075   6.054   6.921 -0.3505 -0.2435 -0.4106
  739W        W 1936   2.147   1.564   5.822 -0.4016 -0.1080  0.1139
  740W        W 1937   5.524   2.344   3.266 -0.2413 -0.1432  0.0566
  741W        W 1938   3.792   6.313   6.815 -0.1400  0.1182 -0.0298
  742W        W 1939   4.683   1.917   5.515 -0.0105 -0.1971 -0.2954
  743W        W 1940   1.693   1.263   2.204 -0.0216 -0.0475  0.1734
  744W        W 1941   1.433   1.372   4.684  0.0810 -0.2126 -0.1321
  745W        W 1942   7.186   2.005   6.407  0.1801  0.0256 -0.0791
  746W        W 1943   1.302   4.450   4.473  0.0888 -0.2743 -0.1196
  747W        W 1944   0.708   0.088   4.502  0.0095  0.1510 -0.2511
  748W        W 1945   1.209   4.056   2.964  0.0840  0.2304  0.0060
  749W        W 1946   1.493   3.554   5.264 -0.0509  0.0510 -0.2828
  750W        W 1947   0.186   5.946   2.382  0.2954  0.0110  0.2114
  751W        W 1948   6.976   0.197   1.804 -0.1127 -0.1524  0.1959
  752W        W 1949   3.591   7.153   5.525  0.0552 -0.1400 -0.0982
  753W        W 1950   5.753   7.163   4.191  0.2541  0.1739 -0.0530
  754W        W 1951   0.452   1.117   0.805 -0.1259 -0.1698 -0.2200
  755W        W 1952   2.862   4.095   6.381  0.0971 -0.1105  0.1630
  756W        W 1953   1.347   4.761   1.948  0.0919  0.1683  0.0493
  757W        W 1954   3.802   4.322   0.750  0.1880 -0.1002 -0.1012
  758W        W 1955   1.692   3.250   0.698  0.1293 -0.1856  0.0455
  759W        W 1956   1.296   4.780   6.790 -0.1260 -0.0206  0.1815
  760W        W 1957   4.571   3.711   1.652 -0.2493  0.2289 -0.2720
  761W        W 1958   4.148   2.817   6.387  0.2557  0.0031  0.3599
  762W        W 1959   0.416   6.127   6.979 -0.0156  0.0214  0.2513
  763W        W 1960   3.824   4.115   6.246  0.1313 -0.3996  0.0085
  764W        W 1961   6.083   3.869   5.491  0.0403  0.2873 -0.0873
  765W        W 1962   3.121   2.465   0.666 -0.4364 -0.1538 -0.1348
  766W        W 1963   7.262   5.267   5.435  0.0638 -0.1225  0.0245
  767W        W 1964   1.226   3.228   1.235  0.2920  0.4833  0.0024
  768W        W 1965   3.161   1.445   7.208  0.0666  0.1962  0.0196
  769W        W 1966   5.348   4.796   3.400  0.1069 -0.1248  0.1724
  770W        W 1967   0.069   7.208   2.442  0.3582  0.1725  0.1324
  771W        W 1968   5.301   2.101   4.316 -0.0008  0.1640 -0.0334
  772W        W 1969   4.758   5.458   2.500  0.0900 -0.0502 -0.0612
  773W        W 1970   7.384   6.195   4.240  0.1107 -0.2863 -0.4662
  774W        W 1971   3.020   5.021   4.966 -0.1564 -0.2525 -0.4783
  775W        W 1972   2.505   1.547   5.145  0.1922  0.0303 -0.1549
  776W        W 1973   5.460   2.058   6.162  0.2339  0.2603  0.1079
  777W        W 1974   2.706   0.170   2.489  0.2406  0.2767  0.1152
  778W        W 1975   4.515   2.446   3.905  0.0381 -0.1400 -0.0558
  779W        W 1976   3.471   6.448   2.670  0.1637  0.1523  0.0672
  780W        W 1977   2.114   5.118   0.394  0.2134 -0.0050  0.0245
  781W        W 1978   2.356   3.235   6.926  0.1449  0.0112  0.4294
  782W        W 1979   5.584   5.814   3.253  0.0223  0.2108  0.1235
  783W        W 1980   1.395   3.416   1.645 -0.0960  0.0583  0.1117
  784W        W 1981   2.246   2.749   0.399  0.1736 -0.1281  0.0788
  785W        W 1982   7.608   4.258   4.284 -0.0665 -0.1195 -0.1348
  786W        W 1983   1.177   2.662   3.253 -0.0563  0.1086  0.1433
  787W        W 1984   6.987   3.022   3.776 -0.2415 -0.0837 -0.2302
  788W        W 1985   7.569   7.026   1.952  0.2486  0.0376 -0.1834
  789W        W 1986   2.604   2.698   6.850  0.0161  0.0542  0.0693
  790W        W 1987   3.665   2.281   0.894  0.2546 -0.0237  0.1640
  791W        W 1988   3.030   4.392   4.346  0.1114  0.0937  0.2723
  792W        W 1989   5.274   3.227   5.141  0.0794 -0.1528  0.0285
  793W        W 1990   4.421   2.967   5.919 -0.0630 -0.2045  0.0159
  794W        W 1991   2.985   5.160   2.245  0.0264 -0.0890  0.2264
  795W        W 1992   0.464   5.151   2.649  0.2546 -0.0876 -0.2097
  796W        W 1993   5.980   4.567   4.313  0.1453  0.1116  0.0119
  797W        W 1994   1.719   6.627   1.319 -0.0711 -0.0752 -0.0514
  798W        W 1995   4.131   5.966   1.080 -0.2639  0.0810 -0.2142
  799W        W 1996   2.658   4.343   3.751  0.3299  0.2773  0.1472
  800W        W 1997   6.999   6.884   4.006  0.1125  0.1154  0.0576
  801W        W 1998   2.614   6.652   0.356  0.3355 -0.1607  0.2279
  802W        W 1999   1.962   2.050   5.104 -0.0704 -0.1366 -0.1024
  803W        W 2000   5.438   3.664   2.794  0.0691  0.2591 -0.0205
  804W        W 2001   2.395   0.374   0.498  0.1283  0.1397  0.0455
  805W        W 2002   5.178   0.984   3.724  0.1062  0.0471 -0.0032
  806W        W 2003   2.209   6.668   0.043 -0.1743 -0.1339 -0.1862
  807W        W 2004   5.867   6.446   4.082  0.1849  0.0687  0.2448
  808W        W 2005   5.551   3.632   5.467 -0.1008  0.0972 -0.0145
  809W        W 2006   6.011   3.815   2.704  0.2028  0.2007  0.0077
  810W        W 2007   2.764   1.233   6.457  0.3352  0.2744 -0.0956
  811W        W 2008   4.377   1.399   2.251 -0.1564  0.3292  0.1189
  812W        W 2009   0.225   0.111   6.793 -0.1753  0.0721 -0.0875
  813W        W 2010   4.530   1.072   3.795  0.1689 -0.0753 -0.0094
  814W        W 2011   3.106   3.799   6.662 -0.0583 -0.0816 -0.4243
  815W        W 2012   4.272   3.201   1.347  0.2131 -0.2122 -0.0022
  816W        W 2013   2.063   5.616   1.524  0.4638  0.0301  0.2557
  817W        W 2014   6.440   5.627   2.314  0.2809 -0.1346  0.2365
  818W        W 2015   5.297   2.531   4.665 -0.1618 -0.0402  0.2134
  819W        W 2016   2.981   3.905   3.941 -0.0666 -0.1160 -0.1630
  820W        W 2017   0.405   3.852   4.350  0.0456  0.1885  0.1086
  821W        W 2018   3.961   7.627   1.994 -0.2755  0.2542 -0.0639
  822W        W 2019   6.320   7.462   4.901 -0.1548 -0.3880  0.1772
  823W        W 2020   3.301   7.320   2.775  0.0233 -0.2600 -0.1659
  824W        W 2021   2.541   3.127   6.413  0.2327 -0.2133  0.0315
  825W        W 2022   3.297   3.037   4.253  0.0508  0.3017  0.3153
  826W        W 2023   0.457   2.067   5.905 -0.1467  0.1239 -0.2385
  827W        W 2024   4.384   3.063   3.349  0.1636 -0.0820  0.0305
  828W        W 2025   2.986   2.520   4.294 -0.1919 -0.1252  0.1670
  829W        W 2026   0.643   7.062   3.254  0.2790  0.0749  0.0496
  830W        W 2027   1.335   3.899   3.922  0.1829  0.0442  0.0506
  831W        W 2028   2.909   2.517   1.159 -0.2144  0.0010 -0.2859
  832W        W 2029   2.711   4.759   4.675  0.0439  0.1484 -0.1164
  833W        W 2030   4.829   5.426   4.467  0.1993 -0.4125 -0.0901
  834W        W 2031   4.518   5.232   1.552  0.1172 -0.1465  0.1732
  835W        W 2032   3.991   4.560   6.987  0.1039 -0.1563 -0.1470
  836W        W 2033   0.200   2.053   0.535 -0.1944  0.0250  0.1154
  837W        W 2034   7.539   2.695   3.785 -0.2169  0.0495  0.2069
  838W        W 2035   6.614   6.336   3.328 -0.1260 -0.3388  0.0655
  839W        W 2036   3.933   1.175   6.918  0.1064 -0.0655  0.3135
  840W        W 2037   5.103   3.225   5.652 -0.3608  0.2968  0.0039
  841W        W 2038   1.446   6.879   0.471  0.2087  0.0770  0.1384
  842W        W 2039   0.561   7.161   2.316  0.0582 -0.2347 -0.1176
  843W        W 2040   1.753   6.760   4.281  0.3601 -0.0127 -0.3526
  844W        W 2041   0.783   7.482   5.035 -0.0330 -0.1546  0.2927
  845W        W 2042   4.413   4.546   6.565  0.0515 -0.1707 -0.2083
  846W        W 2043   6.685   6.409   2.799 -0.0255 -0.2092 -0.2208
  847W        W 2044   4.627   0.894   0.664  0.2330  0.0567  0.3081
  848W        W 2045   5.054   3.051   4.130  0.1437  0.0729 -0.1799
  849W        W 2046   1.934   4.523   3.080 -0.1777 -0.1558 -0.1012
  850W        W 2047   2.951   2.946   4.634  0.3440 -0.0100 -0.0917
  851W        W 2048   4.012   3.290   2.995  0.0579  0.1255 -0.0272
  852W        W 2049   5.466   3.974   1.925  0.3001 -0.0377 -0.3616
  853W        W 2050   3.626   7.356   2.397  0.0761  0.1928 -0.0031
  854W        W 2051   1.909   7.244   5.954  0.1310  0.1505  0.0143
  855W        W 2052   0.924   7.476   3.565  0.0595 -0.2577 -0.4463
  856W        W 2053   1.590   2.354   4.836 -0.2529  0.1096 -0.1120
  857W        W 2054   2.370   6.445   2.851  0.1530  0.0586  0.1243
  858W        W 2055   4.720   3.906   2.098  0.0680 -0.1955  0.0240
  859W        W 2056   2.044   0.437   0.088 -0.1200  0.2379  0.0912
  860W        W 2057   1.756   6.669   6.229 -0.2025  0.0813  0.1482
  861W        W 2058   3.319   6.230   5.972  0.1370  0.1691  0.0844
  862W        W 2059   5.573   4.565   1.083 -0.1719  0.0435  0.1718
  863W        W 2060   2.158   7.524   5.129 -0.0477 -0.1202 -0.1609
  864W        W 2061   4.103   4.134   2.961  0.2298  0.0241 -0.1421
  865W        W 2062   2.624   6.173   5.497 -0.0308 -0.0686 -0.2365
  866W        W 2063   2.411   7.412   4.288  0.2566  0.2061  0.1501
  867W        W 2064   6.667   0.942   5.675 -0.1610  0.3488  0.1170
  868W        W 2065   4.974   0.714   2.323  0.1526 -0.1942  0.1799
  869W        W 2066   7.156   0.554   5.309 -0.2566  0.0463 -0.1268
  870W        W 2067   4.251   0.427   4.508  0.0901 -0.2316  0.2952
  871W        W 2068   0.922   1.281   2.745  0.4479  0.0660  0.2867
  872W        W 2069   5.096   4.240   2.231 -0.0344 -0.2819  0.2038
  873W        W 2070   0.972   2.271   7.612  0.1536  0.3989  0.2749
  874W        W 2071   4.348   6.129   5.552 -0.2744  0.2208  0.2124
  875W        W 2072   4.114   1.067   5.236 -0.1206  0.1780  0.2276
  876W        W 2073   2.109   5.904   0.679  0.1135 -0.0319  0.0377
  877W        W 2074   4.065   1.647   7.155  0.0740 -0.0312 -0.1924
  878W        W 2075   2.178   4.915   6.555 -0.1372 -0.3078  0.0792
  879W        W 2076   5.621   0.285   4.280  0.0840 -0.0067  0.0743
  880W        W 2077   0.021   3.336   1.223 -0.0096 -0.0198 -0.4243
  881W        W 2078   4.086   2.724   2.951  0.1149 -0.1110  0.1077
  882W        W 2079   3.899   2.969   3.413 -0.2312  0.0104 -0.0336
  883W        W 2080   4.568   6.162   4.111 -0.0998 -0.1961 -0.2723
  884W        W 2081   3.454   1.173   0.641  0.0191  0.1195 -0.1001
  885W        W 2082   2.059   2.582   2.017  0.0091 -0.0218  0.1854
  886W        W 2083   4.705   0.690   4.181  0.0836 -0.4931  0.1420
  887W        W 2084   7.601   5.130   4.500  0.1206  0.0516  0.1202
  888W        W 2085   3.352   5.801   6.233  0.0352 -0.1374 -0.1542
  889W        W 2086   3.352   2.246   7.544 -0.3244 -0.0361 -0.0644
  890W        W 2087   4.205   5.578   1.394 -0.1615  0.2509 -0.1363
  891W        W 2088   2.638   6.625   1.400  0.0561 -0.1505  0.1502
  892W        W 2089   1.242   5.270   1.886  0.3266  0.2884  0.0882
  893W        W 2090   5.044   5.812   5.940  0.1184  0.2540 -0.0346
  894W        W 2091   7.007   6.857   6.706 -0.1196  0.1193  0.1404
  895W        W 2092   6.873   6.597   6.259  0.1837 -0.1423 -0.3767
  896W        W 2093   4.134   0.056   7.148  0.3608  0.0862  0.3466
  897W        W 2094   2.413   2.353   1.256 -0.2597 -0.3010  0.0290
  898W        W 2095   5.415   6.141   0.897  0.2940  0.3605 -0.1717
  899W        W 2096   6.770   1.244   5.153 -0.0908 -0.2154 -0.1748
  900W        W 2097   1.449   2.566   3.923 -0.3308 -0.0896 -0.0105
  901W        W 2098   0.282   5.705   2.977 -0.1119  0.0752  0.3099
  902W        W 2099   4.149   6.090   6.496 -0.0609 -0.1838 -0.0918
  903W        W 2100   5.141   3.157   1.071 -0.1673 -0.0995 -0.2202
  904W        W 2101   3.896   5.064   6.643  0.1696 -0.2024 -0.0475
  905W        W 2102   1.880   6.501   0.457  0.4137 -0.2014 -0.0772
  906W        W 2103   4.784   4.936   3.516 -0.3853  0.3820  0.0041
  907W        W 2104   3.183   6.866   4.780  0.2510  0.0660  0.3237
  908W        W 2105   7.071   0.803   6.389 -0.1080 -0.1344  0.0644
  909W        W 2106   2.322   2.340   0.080  0.4941  0.0708 -0.0313
  910W        W 2107   2.569   5.319   6.311  0.0410 -0.1840 -0.2774
  911W        W 2108   3.500   1.581   3.719 -0.0190 -0.1317 -0.1659
  912W        W 2109   5.155   5.088   5.403 -0.2447 -0.0298  0.0670
  913W        W 2110   1.657   2.935   6.501  0.0186  0.0391 -0.2096
  914W        W 2111   6.674   7.530   3.571 -0.0864 -0.2851 -0.1101
  915W        W 2112   2.842   4.291   2.066 -0.2823  0.0985 -0.3110
  916W        W 2113   6.135   2.471   5.060  0.0782 -0.0380  0.2229
  917W        W 2114   4.742   5.964   2.660  0.0467  0.0252 -0.0400
  918W        W 2115   1.520   5.832   4.370  0.0495 -0.4053  0.0102
  919W        W 2116   3.126   6.670   6.169  0.2144 -0.2388  0.2590
  920W        W 2117   0.204   5.185   3.133  0.2135  0.2665  0.2067
  921W        W 2118   0.911   6.189   7.064 -0.0774 -0.0701 -0.0572
  922W        W 2119   0.885   2.235   1.188  0.1477  0.2873  0.1284
  923W        W 2120   1.398   6.312   7.124  0.0245 -0.0963  0.0312
  924W        W 2121   5.893   0.910   4.685  0.1223  0.0142 -0.2408
  925W        W 2122   2.263   2.972   4.991 -0.2082  0.2589  0.0509
  926W        W 2123   2.920   4.437   1.042 -0.0018  0.1146 -0.2879
  927W        W 2124   1.041   6.658   5.756 -0.1200  0.0835  0.2755
  928W        W 2125   2.242   5.958   0.005  0.0800  0.0076  0.2359
  929W        W 2126   4.789   1.443   6.039 -0.0724 -0.0512  0.1346
  930W        W 2127   1.291   4.703   5.304  0.0329  0.2108 -0.0460
  931W        W 2128   3.470   1.859   5.240  0.0604 -0.2043 -0.0676
  932W        W 2129   6.420   4.861   5.080 -0.3392 -0.4205 -0.0102
  933W        W 2130   3.860   0.717   3.600  0.0636  0.2169  0.0136
  934W        W 2131   0.358   3.879   5.005  0.0491  0.1251 -0.0386
  935W        W 2132   2.333   6.259   0.359 -0.1702 -0.0490  0.1869
  936W        W 2133   4.751   1.762   1.513  0.0627  0.3504 -0.0502
  937W        W 2134   4.867   1.236   2.429 -0.0442 -0.1757 -0.0108
  938W        W 2135   2.062   0.401   3.867  0.0591 -0.1286  0.1313
  939W        W 2136   2.128   6.372   3.281 -0.1632  0.2053 -0.0625
  940W        W 2137   5.144   4.695   3.845 -0.1154  0.0196  0.1969
  941W        W 2138   1.911   0.536   7.162  0.3511 -0.1042 -0.1648
  942W        W 2139   2.754   1.607   4.193 -0.1818  0.1090  0.0914
  943W        W 2140   2.207   1.909   6.959 -0.0404 -0.1495  0.1314
  944W        W 2141   2.239   6.701   0.701 -0.0608 -0.1860  0.3096
  945W        W 2142   0.009   3.213   6.027  0.0271  0.0742 -0.3055
  946W        W 2143   3.117   2.002   7.083 -0.0185  0.0280  0.0648
  947W        W 2144   4.595   3.856   1.061  0.0172  0.0963 -0.3541
  948W        W 2145   1.593   3.796   6.648 -0.1040 -0.1557 -0.0801
  949W        W 2146   1.252   7.296   0.195 -0.2946  0.2299  0.2262
  950W        W 2147   1.724   1.738   1.437 -0.0912  0.1849  0.1305
  951W        W 2148   2.477   6.988   7.229  0.0356  0.4386  0.1333
  952W        W 2149   4.700   5.778   1.214  0.0680 -0.2021 -0.1033
  953W        W 2150   7.158   1.150   5.974  0.1302 -0.0942  0.0666
  954W        W 2151   2.396   2.365   2.933  0.3607  0.1003  0.1014
  955W        W 2152   3.597   5.020   7.054  0.0517  0.3909 -0.1336
  956W        W 2153   5.339   7.220   2.946  0.1113  0.2491 -0.1957
  957W        W 2154   4.425   6.776   2.874  0.1516 -0.1429 -0.1399
  958W        W 2155   3.154   2.612   1.627 -0.1084 -0.1640 -0.2815
  959W        W 2156   3.563   0.971   0.049 -0.0346  0.2254  0.1490
  960W        W 2157   1.790   5.182   0.830 -0.0669  0.1684  0.2300
  961W        W 2158   4.882   2.332   5.843  0.0009  0.1363  0.0907
  962W        W 2159   5.591   7.578   5.547  0.4143 -0.0479 -0.0412
  963W        W 2160   4.131   5.964   5.944  0.2195 -0.0991 -0.2360
  964W        W 2161   4.827   4.721   6.867  0.0350  0.0001  0.0105
  965W        W 2162   5.185   4.971   6.535 -0.1055 -0.1747  0.1215
  966W        W 2163   2.507   3.938   2.146 -0.1951  0.0933 -0.1271
  967W        W 2164   7.014   1.532   6.369  0.1081 -0.2945  0.2598
  968W        W 2165   4.761   5.686   1.706  0.1028 -0.3912  0.0975
  969W        W 2166   2.280   3.443   5.266 -0.0158 -0.2217 -0.0394
  970W        W 2167   1.888   3.655   4.648  0.0782 -0.0996  0.1860
  971W        W 2168   5.054   7.216   3.354  0.0270 -0.3228 -0.0928
  972W        W 2169   0.682   2.367   6.928  0.4150  0.2859 -0.1136
  973W        W 2170   5.550   4.145   2.521 -0.1529  0.3169  0.0387
  974W        W 2171   2.485   2.770   1.723  0.2777  0.0402  0.0111
  975W        W 2172   1.387   2.274   5.779  0.1969  0.0534  0.2216
  976W        W 2173   1.810   1.377   3.735 -0.2355 -0.2439  0.2309
  977W        W 2174   3.101   3.954   1.014 -0.0622  0.0218  0.0329
  978W        W 2175   2.731   7.086   4.037  0.0742  0.1347 -0.3119
  979W        W 2176   0.601   3.374   1.337  0.1801 -0.2115 -0.2701
  980W        W 2177   5.267   6.407   3.665  0.2794  0.1713 -0.0282
  981W        W 2178   0.544   5.885   2.007  0.0620 -0.0949 -0.2019
  982W        W 2179   4.469   6.630   4.366 -0.0644  0.0420  0.0048
  983W        W 2180   1.155   2.572   7.073  0.3406  0.0025  0.1764
  984W        W 2181   5.327   4.969   1.613 -0.0215 -0.1055 -0.1921
  985W        W 2182   0.857   4.570   4.702  0.0870  0.0135 -0.0285
  986W        W 2183   3.627   6.720   0.160 -0.1440  0.2841 -0.2156
  987W        W 2184   0.913   4.617   4.185  0.2475  0.1475 -0.0303
  988W        W 2185   1.200   4.382   3.837  0.0253  0.0506  0.0165
  989W        W 2186   7.168   3.244   5.072 -0.1740 -0.1297  0.1532
  990W        W 2187   4.282   0.404   7.428 -0.0222  0.1396  0.0968
  991W        W 2188   3.418   2.080   2.015  0.1337  0.0485  0.1730
  992W        W 2189   0.428   4.073   7.217  0.0201  0.0237  0.1006
  993W        W 2190   3.940   1.164   5.752  0.1326  0.0647  0.0820
  994W        W 2191   3.552   4.921   4.631  0.1908  0.2326  0.1614
  995W        W 2192   1.202   5.475   5.828  0.0059 -0.0059 -0.1927
  996W        W 2193   1.804   6.655   4.914 -0.2420 -0.0596 -0.1921
  997W        W 2194   2.683   1.004   3.875  0.1129  0.0034  0.1304
  998W        W 2195   3.809   0.748   6.665  0.3107 -0.1616 -0.1653
  999W        W 2196   6.671   4.144   4.777  0.0088 -0.0992 -0.0069
 1000W        W 2197   0.390   5.598   5.681  0.0199  0.0045 -0.1661
 1001W        W 2198   4.018   4.966   4.577 -0.0202 -0.0231 -0.0791
 1002W        W 2199   6.582   6.636   3.782 -0.1523  0.0667  0.0889
 1003W        W 2200   2.929   5.702   2.099  0.0624  0.1974  0.1848
 1004W        W 2201   3.959   6.784   0.547  0.0268 -0.1183 -0.1074
 1005W        W 2202   7.137   0.347   1.340 -0.0477  0.0625  0.2416
 1006W        W 2203   2.444   2.916   3.700  0.3692 -0.1530 -0.0857
 1007W        W 2204   1.132   1.524   7.355 -0.0954 -0.1476  0.1229
 1008W        W 2205   2.915   0.966   7.467 -0.1598 -0.0049 -0.1830
 1009W        W 2206   0.771   6.706   1.577  0.0623 -0.1250  0.2978
 1010W        W 2207   0.644   2.581   2.452  0.1045  0.1283 -0.0483
 1011W        W 2208   4.900   4.051   1.436  0.0238  0.0804 -0.1190
 1012W        W 2209   4.621   5.301   3.818 -0.0177 -0.0291 -0.2677
 1013W        W 2210   7.291   7.430   1.154  0.2870  0.0354  0.1528
 1014W        W 2211   4.551   2.984   4.172  0.3987 -0.0246 -0.0700
 1015W        W 2212   4.010   2.009   6.347  0.0187 -0.4870 -0.2733
 1016W        W 2213   4.105   6.414   1.444  0.1539  0.0081  0.2739
 1017W        W 2214   0.710   5.274   5.861 -0.0055  0.1877  0.0994
 1018W        W 2215   7.627   0.756   4.660 -0.2216 -0.1867 -0.2610
 1019W        W 2216   2.088   3.918   4.023 -0.1619 -0.3783  0.0050
 1020W        W 2217   5.109   6.033   3.367  0.1434  0.0287  0.0862
 1021W        W 2218   1.069   3.475   4.973 -0.0274 -0.0862  0.2151
 1022W        W 2219   0.302   0.579   6.110  0.0096 -0.3905  0.3860
 1023W        W 2220   3.760   5.180   4.140  0.1214 -0.3218  0.1332
 1024W        W 2221   6.702   2.950   3.360 -0.4060 -0.1084  0.4024
 1025W        W 2222   1.496   6.981   1.542 -0.0164  0.0233 -0.0020
 1026W        W 2223   7.526   0.724   5.675 -0.3529 -0.0020 -0.1125
 1027W        W 2224   7.515   5.640   3.298  0.1209 -0.0036 -0.1093
 1028W        W 2225   7.458   2.629   6.856 -0.0837 -0.3271  0.1925
 1029W        W 2226   7.439   6.992   5.764 -0.3125 -0.0026  0.0981
 1030W        W 2227   7.426   0.745   1.260 -0.0070  0.0427  0.4113
 1031W        W 2228   6.982   2.773   6.036 -0.0118  0.4211 -0.2686
 1032W        W 2229   1.423   4.300   4.977 -0.2118 -0.0924  0.0817
 1033W        W 2230   5.562   2.753   5.945  0.0844 -0.1657  0.2489
 1034W        W 2231   3.102   4.051   5.801  0.1554  0.0121  0.1938
 1035W        W 2232   3.880   7.545   6.229  0.0889  0.0570 -0.0448
 1036W        W 2233   1.471   2.100   2.702  0.0127 -0.3435  0.3201
 1037W        W 2234   6.292   6.989   3.379 -0.0526 -0.2524 -0.0779
 1038W        W 2235   2.117   2.765   3.022  0.3012  0.2665  0.3918
 1039W        W 2236   3.369   0.386   5.778  0.1239 -0.1933  0.1316
 1040W        W 2237   3.363   3.478   4.442  0.1230 -0.0174  0.0234
 1041W        W 2238   0.998   3.964   3.541  0.4630 -0.0566 -0.1903
 1042W        W 2239   7.234   4.703   3.618  0.0556  0.0710 -0.1204
 1043W        W 2240   3.378   7.195   0.013 -0.2786 -0.0645 -0.0455
 1044W        W 2241   3.663   2.079   5.939 -0.2058  0.0219  0.0769
 1045W        W 2242   3.781   3.599   2.250 -0.2780  0.4818 -0.0082
 1046W        W 2243   3.542   1.581   2.064  0.2994  0.2216 -0.0146
 1047W        W 2244   4.273   5.036   0.212 -0.0272  0.1193 -0.0564
 1048W        W 2245   0.714   0.799   4.023 -0.1165  0.1117  0.0108
 1049W        W 2246   5.632   5.904   4.589  0.2401  0.5151 -0.2032
 1050W        W 2247   3.341   5.953   3.748 -0.0162 -0.0358  0.0871
 1051W        W 2248   2.202   3.549   2.141 -0.1506  0.0389 -0.3949
 1052W        W 2249   1.215   5.804   3.538  0.0856  0.0963 -0.0813
 1053W        W 2250   0.162   6.591   6.906 -0.2871 -0.2164 -0.0309
 1054W        W 2251   5.356   5.200   2.091  0.0554  0.1564 -0.0405
 1055W        W 2252   3.112   5.597   0.498  0.2836  0.0230 -0.1084
 1056W        W 2253   0.868   6.568   6.325 -0.0873  0.0908  0.0951
 1057W        W 2254   3.327   7.395   1.401  0.2240 -0.3320 -0.0364
 1058W        W 2255   3.871   7.144   0.254  0.1578 -0.0326 -0.1866
 1059W        W 2256   1.465   4.719   3.547  0.1657 -0.0876 -0.0523
 1060W        W 2257   3.013   0.726   5.544  0.0368 -0.1206 -0.0647
 1061W        W 2258   4.213   3.133   3.885  0.2426  0.0259 -0.0648
 1062W        W 2259   3.491   3.356   6.208 -0.0964  0.1905  0.1330
 1063W        W 2260   6.608   3.229   4.987  0.1450  0.0006 -0.0451
 1064W        W 2261   1.717   2.503   2.326 -0.1746  0.0903 -0.0732
 1065W        W 2262   4.415   7.435   2.821 -0.1028  0.1016  0.1066
 1066W        W 2263   0.956   1.712   3.536  0.0282  0.3671  0.5460
 1067W        W 2264   2.712   6.733   0.923 -0.5209  0.3945  0.3616
 1068W        W 2265   2.945   2.719   5.692  0.1085 -0.0784  0.2002
 1069W        W 2266   6.752   2.371   5.440 -0.2866 -0.1600  0.3339
 1070W        W 2267   3.142   1.393   2.798  0.3521  0.3519  0.0475
 1071W        W 2268   2.780   5.103   6.653 -0.1057  0.1569 -0.0079
 1072W        W 2269   3.148   6.500   6.926  0.0307  0.1667 -0.1094
 1073W        W 2270   4.079   2.623   4.210  0.1000  0.3157  0.0762
 1074W        W 2271   2.408   6.345   5.961  0.2456  0.1932  0.0296
 1075W        W 2272   6.752   4.729   5.475  0.2407  0.1041 -0.1727
 1076W        W 2273   3.433   3.283   6.662 -0.2803  0.0213 -0.1388
 1077W        W 2274   7.484   5.138   5.894  0.0685  0.4077  0.2042
 1078W        W 2275   4.804   7.162   0.639  0.1959  0.0321 -0.0937
 1079W        W 2276   6.283   2.459   5.567  0.0486  0.0737 -0.0595
 1080W        W 2277   0.140   1.423   4.385 -0.2667  0.0611  0.3134
 1081W        W 2278   5.127   1.087   4.232 -0.0832 -0.1346  0.0106
 1082W        W 2279   7.235   4.643   6.476 -0.0762  0.4252  0.0760
 1083W        W 2280   5.068   6.424   4.963 -0.1579 -0.0497  0.1466
 1084W        W 2281   4.398   2.454   6.001 -0.0387  0.2133  0.2324
 1085W        W 2282   4.476   0.380   1.225  0.2231  0.1917  0.3001
 1086W        W 2283   3.938   4.551   1.744  0.2508  0.0092 -0.1073
 1087W        W 2284   6.797   2.798   4.212 -0.0638 -0.1311  0.0871
 1088W        W 2285   6.954   5.927   3.005  0.1135  0.0981 -0.4217
 1089W        W 2286   5.989   5.207   5.994 -0.3080  0.1622 -0.0215
 1090W        W 2287   7.636   0.175   1.296 -0.3164  0.2928 -0.1133
 1091W        W 2288   4.753   6.547   5.376  0.3060 -0.0635  0.2263
 1092W        W 2289   1.937   6.325   0.875 -0.2027  0.0634 -0.3306
 1093W        W 2290   6.060   5.792   3.468 -0.1801  0.2463 -0.0900
 1094W        W 2291   3.333   5.758   1.834 -0.0231 -0.0150 -0.0847
 1095W        W 2292   2.799   7.323   2.695  0.1679 -0.0994 -0.1245
 1096W        W 2293   7.329   2.540   5.502  0.1891 -0.1343 -0.0504
 1097W        W 2294   0.713   2.575   3.520  0.2227 -0.2842  0.0095
 1098W        W 2295   2.688   5.892   4.528  0.0157 -0.1528  0.0438
 1099W        W 2296   6.487   1.523   6.129 -0.3443  0.2446 -0.0104
 1100W        W 2297   1.195   3.215   7.604 -0.1698 -0.0653 -0.1243
 1101W        W 2298   2.028   5.389   4.113 -0.2168  0.0239  0.2697
 1102W        W 2299   2.701   7.445   3.365  0.1257  0.2158 -0.0733
 1103W        W 2300   3.690   6.593   5.255  0.0738  0.0489  0.0549
 1104W        W 2301   1.238   1.357   0.190 -0.1422  0.0373  0.2573
 1105W        W 2302   0.785   0.080   3.986 -0.0369 -0.1218 -0.0069
 1106W        W 2303   3.425   2.224   1.491  0.3297 -0.0148  0.0820
 1107W        W 2304   0.600   5.268   5.361  0.1089 -0.1693 -0.1789
 1108W        W 2305   3.142   7.448   5.366  0.3324  0.1181 -0.1436
 1109W        W 2306   2.140   3.663   3.126 -0.3689 -0.2341  0.1135
 1110W        W 2307   1.384   7.375   6.842  0.1618 -0.1915  0.0790
 1111W        W 2308   4.253   4.097   7.297 -0.3762  0.3270  0.1646
 1112W        W 2309   2.371   3.352   1.421  0.0034 -0.0077  0.1730
 1113W        W 2310   0.073   6.046   4.897  0.0224  0.0296  0.0458
 1114W        W 2311   0.647   6.872   0.453  0.2022 -0.0624  0.2070
 1115W        W 2312   3.276   7.455   6.588 -0.0059 -0.0589  0.1835
 1116W        W 2313   5.559   6.479   2.415  0.0512  0.2750 -0.0772
 1117W        W 2314   3.482   1.332   5.358 -0.1018 -0.1135  0.1163
 1118W        W 2315   2.093   6.241   2.505  0.0915  0.0186  0.0079
 1119W        W 2316   0.169   3.922   3.928  0.0539 -0.1892  0.0453
 1120W        W 2317   6.193   4.448   1.688  0.0230 -0.0695  0.2598
 1121W        W 2318   5.486   5.689   5.501 -0.2346  0.1708  0.2152
 1122W        W 2319   0.690   3.920   1.986 -0.2761 -0.2449  0.2540
 1123W        W 2320   3.829   6.041   2.734 -0.0621 -0.1068 -0.0109
 1124W        W 2321   3.211   1.272   0.192 -0.0702 -0.1003 -0.2103
 1125W        W 2322   1.101   6.346   4.370  0.0956  0.1336 -0.2658
 1126W        W 2323   5.199   1.099   5.306 -0.2818 -0.0109  0.0689
 1127W        W 2324   3.656   5.011   0.238  0.0842 -0.3187  0.1285
 1128W        W 2325   6.246   4.907   3.577  0.1607  0.0843  0.0781
 1129W        W 2326   2.778   0.288   5.652  0.1615  0.2510  0.0336
 1130W        W 2327   0.468   4.514   6.533 -0.0375  0.0608  0.1187
 1131W        W 2328   3.337   5.963   2.316  0.0868 -0.2970 -0.1320
 1132W        W 2329   4.541   1.462   1.174  0.2212 -0.2387  0.1665
 1133W        W 2330   2.467   6.265   3.655  0.2550  0.1275 -0.0693
 1134W        W 2331   6.298   0.180   5.939 -0.0456 -0.3536 -0.1681
 1135W        W 2332   6.043   3.979   4.139 -0.1398  0.0172 -0.0641
 1136W        W 2333   0.845   5.342   4.568  0.1549  0.2708 -0.0179
 1137W        W 2334   0.447   7.551   5.440 -0.0056  0.2592  0.0221
 1138W        W 2335   0.701   2.263   2.052 -0.0605  0.2618 -0.0049
 1139W        W 2336   3.838   6.594   1.919  0.0288  0.0202 -0.1933
 1140W        W 2337   3.341   0.990   4.488  0.1127 -0.3468 -0.1033
 1141W        W 2338   1.880   7.423   6.487  0.2511  0.1192  0.3354
 1142W        W 2339   0.051   2.303   5.709 -0.1551 -0.2896  0.3915
 1143W        W 2340   5.884   7.462   4.600 -0.1311 -0.0973 -0.0632
 1144W        W 2341   1.664   4.973   7.071  0.1140  0.0770  0.0903
 1145W        W 2342   3.067   0.649   7.034 -0.1813  0.5423  0.0305
 1146W        W 2343   2.224   4.548   2.675  0.1098 -0.1530  0.2420
 1147W        W 2344   2.922   6.855   3.680 -0.2456  0.2596 -0.0489
 1148W        W 2345   3.023   4.482   6.014 -0.2325 -0.2910 -0.2527
 1149W        W 2346   3.036   2.783   5.138 -0.2531  0.2153  0.1491
 1150W        W 2347   2.697   2.855   2.960  0.2037 -0.1144 -0.1131
 1151W        W 2348   5.125   5.963   4.342  0.1286 -0.0156 -0.0457
 1152W        W 2349   5.167   5.212   3.270  0.1095 -0.0213  0.4293
 1153W        W 2350   0.974   7.130   1.375 -0.0523 -0.1088  0.0252
 1154W        W 2351   2.362   7.229   6.335  0.2881  0.0052  0.2841
 1155W        W 2352   0.952   1.849   5.298  0.2184  0.0353 -0.0503
 1156W        W 2353   6.203   7.490   3.154  0.0165  0.1417  0.0288
 1157W        W 2354   3.438   3.920   5.409  0.0692  0.1044  0.2581
 1158W        W 2355   7.128   6.685   5.412 -0.0967 -0.2058  0.0563
 1159W        W 2356   3.375   3.703   1.472 -0.0770  0.0574 -0.2366
 1160W        W 2357   7.063   4.161   2.928  0.1036  0.1518  0.1159
 1161W        W 2358   6.713   0.950   4.623 -0.0766  0.0457  0.0414
 1162W        W 2359   4.910   6.218   1.759 -0.0191  0.3186 -0.0948
 1163W        W 2360   7.468   3.209   5.469  0.5236  0.1094  0.1735
 1164W        W 2361   0.626   1.188   4.663  0.2375  0.3497 -0.0978
 1165W        W 2362   4.901   1.419   3.697 -0.1383  0.0586 -0.1229
 1166W        W 2363   3.787   3.869   3.355 -0.1514  0.1588  0.0535
 1167W        W 2364   3.115   7.539   2.353  0.0083 -0.0218 -0.0574
 1168W        W 2365   4.997   3.968   2.689 -0.0416 -0.0956 -0.2009
 1169W        W 2366   1.686   5.684   3.334 -0.1091 -0.0836 -0.1653
 1170W        W 2367   3.256   6.303   6.449 -0.0186 -0.1640  0.0275
 1171W        W 2368   2.724   2.354   5.410 -0.0570 -0.1873 -0.3469
 1172W        W 2369   1.509   2.904   7.443 -0.0910  0.0245  0.0816
 1173W        W 2370   1.795   2.114   3.750  0.1434  0.4224 -0.0631
 1174W        W 2371   4.332   0.024   6.475  0.1829 -0.0996  0.0767
 1175W        W 2372   2.835   2.009   7.515  0.0311  0.1954  0.3370
 1176W        W 2373   2.108   1.909   0.544 -0.2839 -0.1911  0.4448
 1177W        W 2374   0.520   6.808   5.564 -0.1661  0.1210 -0.1273
 1178W        W 2375   3.447   4.839   3.124 -0.2450  0.0697 -0.0788
 1179W        W 2376   7.198   4.631   3.096 -0.1595  0.0842 -0.1961
 1180W        W 2377   3.461   3.262   0.599 -0.1125  0.4242  0.1921
 1181W        W 2378   7.451   6.269   3.774 -0.1826 -0.1754 -0.1441
 1182W        W 2379   6.527   7.242   6.740  0.1424  0.1242 -0.1675
 1183W        W 2380   7.462   3.409   2.257  0.0316  0.3438 -0.0452
 1184W        W 2381   2.586   3.947   7.572  0.0092 -0.0741  0.2775
 1185W        W 2382   3.909   5.787   3.611 -0.1407  0.1631 -0.0638
 1186W        W 2383   7.298   7.403   2.163 -0.1503  0.4622  0.0762
 1187W        W 2384   3.846   6.289   5.657 -0.4599  0.1531  0.0049
 1188W        W 2385   3.155   0.085   7.031 -0.2168 -0.2069  0.0469
 1189W        W 2386   3.676   5.579   4.554  0.1279  0.1249  0.2732
 1190W        W 2387   6.389   6.920   4.781  0.0161  0.1770  0.0499
 1191W        W 2388   7.069   0.244   4.124 -0.1565  0.0717  0.2462
 1192W        W 2389   2.824   6.772   1.853 -0.1010  0.0232 -0.0834
 1193W        W 2390   3.147   1.479   6.165  0.0269 -0.0244 -0.3452
 1194W        W 2391   3.952   5.963   7.185  0.1147 -0.1429  0.0043
 1195W        W 2392   7.175   3.577   3.981 -0.1866 -0.2451 -0.3290
 1196W        W 2393   0.190   1.383   6.679  0.0742 -0.0246 -0.0361
 1197W        W 2394   1.488   6.416   1.755  0.2789  0.1166  0.1888
 1198W        W 2395   7.529   7.643   4.408 -0.1185 -0.1561  0.3637
 1199W        W 2396   1.822   1.704   4.326  0.0293  0.0485  0.1158
 1200W        W 2397   7.342   1.462   5.533 -0.0211  0.1221 -0.1644
 1201W        W 2398   0.815   7.487   7.484 -0.2144 -0.3625 -0.2803
 1202W        W 2399   4.833   7.388   2.529 -0.1565 -0.3704 -0.3028
 1203W        W 2400   1.313   6.816   5.341 -0.0336  0.1033 -0.2373
 1204W        W 2401   6.194   0.131   4.517 -0.2226  0.2135  0.1767
 1205W        W 2402   6.124   5.581   4.501  0.2858 -0.1335  0.3545
 1206W        W 2403   6.164   4.773   5.502  0.1433  0.2431 -0.2104
 1207W        W 2404   0.305   6.921   0.853  0.4547 -0.0166  0.1013
 1208W        W 2405   6.893   7.298   7.094 -0.1155 -0.0544  0.0350
 1209W        W 2406   7.614   2.699   1.916  0.1330  0.0435 -0.2178
 1210W        W 2407   4.068   3.595   7.499  0.2006 -0.1397  0.1293
 1211W        W 2408   2.194   3.536   7.297  0.2066  0.0177 -0.0633
 1212W        W 2409   3.891   6.907   4.016  0.0750 -0.0667  0.2066
 1213W        W 2410   0.483   7.024   3.863  0.0081  0.1440 -0.2186
 1214W        W 2411   0.219   4.073   6.766  0.1934  0.3140 -0.2237
 1215W        W 2412   1.009   5.042   7.124 -0.1657 -0.0213 -0.3070
 1216W        W 2413   7.261   0.546   7.398  0.1068 -0.1482  0.0041
 1217W        W 2414   4.968   4.398   5.956 -0.1072  0.0364  0.0951
 1218W        W 2415   0.371   6.427   5.059 -0.0919 -0.1189  0.0564
 1219W        W 2416   2.738   2.622   2.330 -0.2088 -0.1742 -0.1599
 1220W        W 2417   5.779   1.055   6.613  0.1445 -0.1942  0.0699
 1221W        W 2418   6.285   6.444   4.864  0.0735 -0.0912  0.0908
 1222W        W 2419   7.499   2.043   3.945 -0.1570 -0.0385 -0.2811
 1223W        W 2420   6.559   6.542   5.435 -0.0168 -0.0355 -0.0385
 1224W        W 2421   2.478   2.163   1.726  0.0928  0.4380 -0.1539
 1225W        W 2422   7.029   5.979   6.291  0.0934 -0.0318  0.0730
 1226W        W 2423   6.128   6.867   3.971  0.0292  0.0828 -0.2072
 1227W        W 2424   4.536   5.792   4.724 -0.1539  0.0411  0.1998
 1228W        W 2425   5.544   4.082   5.293  0.0390 -0.0405 -0.3094
 1229W        W 2426   2.299   4.619   5.474 -0.3338  0.0419  0.0089
 1230W        W 2427   1.934   6.036   2.953  0.0633  0.1064 -0.2882
 1231W        W 2428   2.260   1.400   3.015 -0.1176  0.1840  0.2651
 1232W        W 2429   3.520   2.014   0.330 -0.3524 -0.0809  0.0669
 1233W        W 2430   1.100   2.828   4.136 -0.0951  0.1893  0.0377
 1234W        W 2431   1.785   4.498   4.341 -0.1678  0.0439  0.3121
 1235W        W 2432   0.959   2.342   6.516  0.2744  0.0068 -0.0437
 1236W        W 2433   4.908   7.005   4.205 -0.1754 -0.0634  0.0446
 1237W        W 2434   1.388   5.628   2.378 -0.1406 -0.0670  0.0206
 1238W        W 2435   4.438   2.116   2.287 -0.1049  0.0448 -0.3396
 1239W        W 2436   3.708   6.146   6.273 -0.1377 -0.1180  0.1433
 1240W        W 2437   1.445   2.356   6.683 -0.2351 -0.0205  0.1869
 1241W        W 2438   7.075   1.953   4.921  0.1304  0.2301 -0.1131
 1242W        W 2439   2.777   6.409   4.719  0.1277  0.0215 -0.0988
 1243W        W 2440   5.793   4.721   5.900  0.0440 -0.2464  0.4769
 1244W        W 2441   0.343   2.982   1.559  0.0944 -0.1165 -0.0992
 1245W        W 2442   4.623   0.737   6.858  0.0175  0.0790  0.1125
 1246W        W 2443   3.048   4.764   6.421  0.2377  0.0988  0.1178
 1247W        W 2444   3.942   4.610   2.808 -0.0666  0.2260 -0.1216
 1248W        W 2445   1.367   4.091   0.759  0.0466  0.1120 -0.2291
 1249W        W 2446   7.538   3.602   5.069 -0.1601 -0.0712  0.2667
 1250W        W 2447   7.506   3.176   4.687  0.2590 -0.1391 -0.0544
 1251W        W 2448   4.977   6.525   4.020  0.0407  0.0141 -0.1030
 1252W        W 2449   4.243   1.513   4.334 -0.1354 -0.2242  0.2900
 1253W        W 2450   4.159   2.066   5.793 -0.1839 -0.1879 -0.0417
 1254W        W 2451   1.988   4.638   1.750  0.0205  0.1543 -0.0492
 1255W        W 2452   3.617   2.698   7.344 -0.0169  0.1250 -0.3598
 1256W        W 2453   0.587   3.623   6.468  0.0641  0.0393  0.0966
 1257W        W 2454   3.923   5.347   0.556  0.0353  0.3658 -0.1137
 1258W        W 2455   3.622   0.264   2.867 -0.0974  0.1401 -0.0554
 1259W        W 2456   6.631   5.306   4.842 -0.1400 -0.3302  0.0194
 1260W        W 2457   6.521   3.816   5.743 -0.1511  0.1766  0.1830
 1261W        W 2458   7.381   7.028   7.069 -0.2411  0.0737 -0.0001
 1262W        W 2459   4.397   1.761   1.931 -0.0543  0.0310 -0.0593
 1263W        W 2460   3.847   6.312   0.336  0.0993 -0.0364  0.0745
 1264W        W 2461   3.604   5.652   4.064 -0.2204 -0.1612 -0.0145
 1265W        W 2462   3.433   6.055   0.490  0.1122 -0.1130 -0.1720
 1266W        W 2463   0.872   3.134   5.854  0.1009 -0.1739 -0.0264
 1267W        W 2464   1.937   3.336   1.750 -0.3644 -0.2036  0.1613
 1268W        W 2465   3.165   0.311   2.672 -0.0392 -0.0250  0.3611
 1269W        W 2466   1.889   4.162   6.787  0.3690 -0.0547 -0.1209
 1270W        W 2467   2.091   4.132   7.214 -0.1199  0.2548  0.0018
 1271W        W 2468   0.839   7.293   1.873 -0.0973 -0.0844 -0.0780
 1272W        W 2469   0.522   1.720   5.555 -0.1459 -0.0454  0.1485
 1273W        W 2470   1.089   7.372   4.621  0.0048 -0.2140  0.0965
 1274W        W 2471   7.033   3.001   2.975  0.1860 -0.1809  0.0430
 1275W        W 2472   0.118   0.800   2.319  0.1829 -0.2110  0.3769
 1276W        W 2473   0.926   7.641   1.512  0.2782 -0.1761 -0.1073
 1277W        W 2474   6.815   3.301   4.226 -0.3674  0.3475 -0.2060
 1278W        W 2475   4.623   6.421   1.333 -0.0646 -0.0298 -0.0809
 1279W        W 2476   1.464   6.519   0.883  0.2186  0.1088  0.4239
 1280W        W 2477   5.977   4.992   2.843 -0.0632  0.1441  0.1581
 1281W        W 2478   4.106   4.278   2.383 -0.2317  0.0877 -0.2199
 1282W        W 2479   0.654   4.999   2.168 -0.1619  0.1823  0.3524
 1283W        W 2480   5.173   4.508   5.344  0.2975  0.0039  0.0562
 1284W        W 2481   5.705   4.633   1.605 -0.0166 -0.0431  0.1341
 1285W        W 2482   5.949   7.534   5.853  0.2801 -0.0511  0.0961
 1286W        W 2483   4.406   5.250   7.350  0.2131  0.1390 -0.0638
 1287W        W 2484   3.806   0.763   4.595  0.1202 -0.0526 -0.1202
 1288W        W 2485   4.009   7.356   5.276 -0.0942 -0.0147 -0.0831
 1289W        W 2486   6.174   3.693   2.276 -0.0994  0.0444  0.0897
 1290W        W 2487   7.076   6.054   3.499  0.0368 -0.0137  0.1142
 1291W        W 2488   2.323   6.136   7.182  0.2129  0.2888  0.0765
 1292W        W 2489   3.406   6.537   3.614  0.0812 -0.2309 -0.0477
 1293W        W 2490   6.412   6.339   6.222 -0.0741 -0.0809 -0.3395
 1294W        W 2491   2.667   0.484   3.862  0.1515 -0.0089 -0.0157
 1295W        W 2492   0.059   6.458   3.319  0.1144 -0.0423 -0.0067
 1296W        W 2493   0.049   1.178   5.728  0.1381  0.4172 -0.0113
 1297W        W 2494   3.180   0.258   5.264 -0.0940  0.0579  0.0002
 1298W        W 2495   2.387   7.220   4.834  0.2364  0.1107  0.1787
 1299W        W 2496   4.279   5.846   2.406 -0.1903  0.0633 -0.2174
 1300W        W 2497   3.115   6.864   0.253 -0.3225 -0.1760  0.1382
 1301W        W 2498   1.933   6.065   5.907  0.1172  0.5470 -0.1059
 1302W        W 2499   1.970   6.996   7.373  0.2227 -0.1307 -0.1189
 1303W        W 2500   1.071   5.719   1.725  0.0480 -0.1286  0.0832
 1304W        W 2501   2.288   6.717   4.701 -0.0585 -0.1126  0.0621
 1305W        W 2502   3.830   2.893   1.498 -0.0427  0.0448  0.0070
 1306W        W 2503   5.681   3.115   4.630 -0.1896 -0.2018 -0.0169
 1307W        W 2504   2.522   4.981   5.119  0.1626 -0.1171  0.1426
 1308W        W 2505   6.409   3.611   4.059  0.1214  0.1172  0.4746
 1309W        W 2506   3.282   2.916   7.061  0.1970 -0.1727 -0.1110
 1310W        W 2507   3.581   7.556   0.398  0.1914 -0.0300 -0.1150
 1311W        W 2508   4.688   5.931   2.152 -0.2662 -0.2619 -0.2447
 1312W        W 2509   0.956   0.368   1.070  0.3685  0.5027  0.2392
 1313W        W 2510   7.036   0.090   2.837 -0.3218 -0.0251  0.3673
 1314W        W 2511   1.409   6.041   3.120 -0.1006  0.0389 -0.1473
 1315W        W 2512   4.935   7.433   4.499 -0.1090 -0.1365  0.0569
 1316W        W 2513   5.640   1.316   4.394 -0.0615 -0.1142  0.0888
 1317W        W 2514   1.541   0.470   3.937 -0.0504  0.2751  0.0632
 1318W        W 2515   4.297   6.374   7.484  0.0338 -0.0323 -0.1778
 1319W        W 2516   1.542   2.745   4.553 -0.0348  0.1532  0.0492
 1320W        W 2517   3.592   1.053   1.933 -0.1569 -0.0330  0.0056
 1321W        W 2518   0.064   4.602   1.831 -0.0056 -0.2253  0.0514
 1322W        W 2519   3.979   2.088   4.398  0.0279 -0.3091  0.2422
 1323W        W 2520   2.708   7.195   5.284  0.2278 -0.0750  0.0246
 1324W        W 2521   2.401   1.457   6.733 -0.1751 -0.0399 -0.2091
 1325W        W 2522   2.747   3.182   0.108  0.4554 -0.0235  0.0966
 1326W        W 2523   2.643   0.821   1.233  0.2103 -0.1899  0.4956
 1327W        W 2524   4.632   6.210   5.047  0.1143  0.3069  0.0227
 1328W        W 2525   5.505   1.716   5.029  0.2601  0.1216  0.0642
 1329W        W 2526   7.533   1.974   1.252 -0.1317 -0.0046 -0.0708
 1330W        W 2527   0.586   1.482   5.100  0.0676 -0.1441  0.1072
 1331W        W 2528   3.662   4.085   2.454  0.0800  0.1175 -0.1558
 1332W        W 2529   5.112   0.073   1.679  0.0078 -0.2361 -0.0473
 1333W        W 2530   1.547   2.356   7.331  0.0335 -0.2123  0.1851
 1334W        W 2531   7.338   1.418   7.524 -0.2630  0.1415 -0.2010
 1335W        W 2532   5.053   2.336   3.261 -0.0239 -0.1518 -0.1137
 1336W        W 2533   4.607   1.322   2.833  0.0924  0.0562  0.0046
 1337W        W 2534   0.501   1.961   2.796 -0.2044  0.0860  0.1216
 1338W        W 2535   0.374   0.350   4.114 -0.1822 -0.1847 -0.1802
 1339W        W 2536   0.934   3.939   7.148 -0.0974 -0.0189  0.0060
 1340W        W 2537   2.163   0.903   3.752 -0.0449 -0.1284  0.2128
 1341W        W 2538   0.380   6.796   2.591 -0.0928  0.1997 -0.1462
 1342W        W 2539   5.120   6.294   2.241 -0.0167  0.1352  0.2600
 1343W        W 2540   2.203   3.500   3.652  0.1905  0.0480  0.1810
 1344W        W 2541   0.065   1.809   3.438  0.1309 -0.0616  0.1442
 1345W        W 2542   4.378   4.078   3.996 -0.2987 -0.1517 -0.2864
 1346W        W 2543   4.148   5.439   3.840 -0.0854 -0.0572  0.0149
 1347W        W 2544   0.640   6.295   5.592  0.2092 -0.0472 -0.3279
 1348W        W 2545   1.009   4.606   2.331  0.1191  0.0283 -0.0816
 1349W        W 2546   2.511   5.710   1.806  0.1201 -0.2070 -0.1559
 1350W        W 2547   6.519   1.275   6.579  0.2095 -0.0133  0.3236
 1351W        W 2548   4.840   4.818   1.548  0.1112  0.1926  0.3107
 1352W        W 2549   2.603   2.748   0.847 -0.1106  0.1804  0.2050
 1353W        W 2550   4.533   0.546   0.276  0.3503  0.0009  0.1022
 1354W        W 2551   4.155   5.077   1.237  0.2058  0.2323 -0.0468
 1355W        W 2552   4.507   7.280   1.036 -0.3749 -0.1156 -0.2111
 1356W        W 2553   1.243   2.699   4.955  0.0007 -0.2408  0.0788
 1357W        W 2554   1.681   5.021   3.208  0.2588 -0.3328  0.2545
 1358W        W 2555   1.336   1.784   4.397 -0.1977 -0.3035 -0.0294
 1359W        W 2556   3.132   7.184   4.360 -0.0424  0.2170  0.1468
 1360W        W 2557   0.753   0.243   5.643 -0.2504 -0.0853  0.4693
 1361W        W 2558   3.366   3.182   1.457 -0.1177  0.0203  0.0379
 1362W        W 2559   1.495   0.209   7.043 -0.2273 -0.4444  0.1365
 1363W        W 2560   3.967   6.849   5.565  0.0232  0.0010  0.1572
 1364W        W 2561   0.816   1.170   3.621  0.1461 -0.0732 -0.0261
 1365W        W 2562   3.009   4.420   1.562 -0.1431  0.1241  0.2378
 1366W        W 2563   6.939   5.165   5.793  0.1312  0.3748  0.3508
 1367W        W 2564   3.576   6.691   5.780  0.0809  0.1898 -0.3290
 1368W        W 2565   1.501   2.218   1.372  0.1625  0.0111 -0.0347
 1369W        W 2566   7.586   7.331   5.363 -0.1894 -0.0579 -0.1084
 1370W        W 2567   0.243   0.771   3.424  0.0122 -0.0885 -0.0431
 1371W        W 2568   7.349   5.848   4.609 -0.0540  0.0468  0.1051
 1372W        W 2569   3.399   2.441   6.897  0.1411  0.0864 -0.1587
 1373W        W 2570   4.397   2.415   4.529 -0.1091  0.3515  0.4016
 1374W        W 2571   1.257   0.051   3.900  0.2235 -0.2826  0.0593
 1375W        W 2572   0.729   2.507   0.250  0.2109  0.0300 -0.5974
 1376W        W 2573   2.448   0.388   3.280  0.2844  0.0233 -0.1073
 1377W        W 2574   2.532   5.599   4.190  0.0938  0.2408  0.2805
 1378W        W 2575   3.160   3.944   2.389  0.1700 -0.0650  0.3085
 1379W        W 2576   4.645   3.727   7.510  0.2359 -0.1550  0.0390
 1380W        W 2577   3.224   1.713   0.010  0.1411 -0.2135  0.1423
 1381W        W 2578   7.375   2.336   5.013  0.1451 -0.0802  0.0420
 1382W        W 2579   3.530   4.467   5.928 -0.0754  0.0607 -0.1405
 1383W        W 2580   2.829   0.425   4.381  0.3300 -0.0073  0.1539
 1384W        W 2581   2.360   4.137   5.117  0.0922 -0.0871 -0.0429
 1385W        W 2582   0.722   5.257   3.086  0.0425  0.0698 -0.0840
 1386W        W 2583   0.802   3.193   3.833 -0.3591  0.1414 -0.1268
 1387W        W 2584   1.851   5.943   6.997  0.1121 -0.1090  0.0997
 1388W        W 2585   6.347   2.631   4.145 -0.0827  0.1137  0.3516
 1389W        W 2586   5.134   5.523   4.057  0.0143  0.1007 -0.0732
 1390W        W 2587   6.687   7.604   6.269 -0.1070  0.3147 -0.3291
 1391W        W 2588   1.033   4.185   6.139 -0.1562  0.0946 -0.2003
 1392W        W 2589   4.577   3.831   5.539  0.0892  0.0721 -0.1755
 1393W        W 2590   6.708   4.170   6.132 -0.0316  0.1672  0.0381
 1394W        W 2591   3.150   0.837   2.076 -0.2899  0.1821 -0.1367
 1395W        W 2592   6.311   0.321   4.028 -0.0478 -0.2743  0.2169
 1396W        W 2593   3.102   2.768   3.369  0.1970 -0.0126  0.0410
 1397W        W 2594   4.972   6.522   6.269  0.0988  0.2510  0.1416
 1398W        W 2595   0.093   5.012   4.062 -0.3232  0.1281  0.0677
 1399W        W 2596   7.243   0.415   3.527 -0.0798 -0.0570 -0.3364
 1400W        W 2597   1.587   7.510   4.723 -0.0676 -0.3258 -0.1578
 1401W        W 2598   0.023   5.277   3.649  0.0807  0.1986 -0.1518
 1402W        W 2599   5.047   6.905   2.376 -0.1846  0.0119  0.0966
 1403W        W 2600   0.631   4.150   3.827  0.0532  0.1573 -0.1351
 1404W        W 2601   3.687   1.098   2.899 -0.2038 -0.1325 -0.0330
 1405W        W 2602   4.462   6.012   0.671  0.0586 -0.0601 -0.2057
 1406W        W 2603   4.748   7.138   7.214 -0.3607 -0.0934  0.0062
 1407W        W 2604   3.295   4.908   5.713 -0.0629 -0.1875 -0.1180
 1408W        W 2605   7.306   2.086   6.897 -0.2939  0.1651  0.0959
 1409W        W 2606   1.909   0.289   2.352  0.0871  0.2601  0.0913
 1410W        W 2607   5.957   6.346   2.078  0.1598 -0.0236 -0.1724
 1411W        W 2608   4.457   0.673   5.317 -0.1327  0.0340 -0.0752
 1412W        W 2609   0.577   0.208   0.113  0.0424 -0.1262  0.0214
 1413W        W 2610   6.845   5.390   2.374  0.0084  0.0689  0.1045
 1414W        W 2611   2.688   1.092   5.933 -0.0231  0.1016  0.3978
 1415W        W 2612   4.366   1.817   3.130  0.0944  0.0602 -0.0419
 1416W        W 2613   3.347   6.674   7.421 -0.0375 -0.1474  0.1687
 1417W        W 2614   1.837   0.082   7.443 -0.0054 -0.1597 -0.2679
 1418W        W 2615   4.451   4.653   6.066 -0.1507  0.0956  0.0768
 1419W        W 2616   4.365   6.266   2.843  0.0375 -0.1348 -0.1106
 1420W        W 2617   4.123   0.025   1.098  0.1576  0.1663 -0.1476
 1421W        W 2618   6.468   4.647   4.306 -0.1056 -0.1972 -0.3030
 1422W        W 2619   3.802   1.474   0.874  0.1484 -0.0432 -0.1390
 1423W        W 2620   1.765   1.122   5.463  0.2723 -0.0002 -0.2746
 1424W        W 2621   2.736   1.982   3.508  0.0258 -0.0027 -0.2207
 1425W        W 2622   6.981   2.710   5.043 -0.3934 -0.1094 -0.1772
 1426W        W 2623   7.063   2.296   5.843 -0.1686  0.2304 -0.2251
 1427W        W 2624   5.399   2.587   3.789 -0.2582  0.2125  0.1561
 1428W        W 2625   3.640   2.748   2.549  0.0308 -0.0043  0.2161
 1429W        W 2626   0.072   4.564   5.726  0.1161  0.0637  0.3946
 1430W        W 2627   2.904   2.229   1.944  0.0795  0.1472  0.3486
 1431W        W 2628   4.719   4.033   4.356 -0.1662 -0.0183 -0.1700
 1432W        W 2629   0.046   6.393   2.632 -0.0384  0.1119  0.1301
 1433W        W 2630   5.960   3.491   3.170  0.2967  0.0464  0.0498
 1434W        W 2631   4.009   0.951   1.667 -0.2526  0.0467  0.0343
 1435W        W 2632   7.580   4.140   2.829 -0.3229 -0.1803 -0.5265
 1436W        W 2633   0.733   1.796   1.124  0.0919  0.0220 -0.2523
 1437W        W 2634   3.741   0.099   1.476 -0.4043  0.2840  0.0057
 1438W        W 2635   1.300   2.596   0.199  0.0023 -0.0116 -0.0683
 1439W        W 2636   2.812   0.717   3.416  0.2110 -0.0524 -0.3531
 1440W        W 2637   2.394   4.232   0.343  0.1968 -0.0039 -0.0556
 1441W        W 2638   7.260   3.034   6.336 -0.1300  0.0497 -0.0936
 1442W        W 2639   6.600   7.112   5.236  0.2452 -0.2413  0.0375
 1443W        W 2640   3.141   5.305   6.378 -0.3383 -0.0460  0.0080
 1444W        W 2641   3.745   3.690   2.827 -0.0138 -0.1442  0.1006
 1445W        W 2642   1.607   5.974   0.751  0.3126 -0.1831  0.3357
 1446W        W 2643   2.902   1.672   1.191  0.0744  0.1285 -0.0155
 1447W        W 2644   6.512   4.318   5.687  0.1539  0.1078  0.0075
 1448W        W 2645   1.525   3.824   2.528 -0.2423 -0.5194 -0.1009
 1449W        W 2646   3.059   5.844   0.978 -0.1733  0.1347 -0.3833
 1450W        W 2647   4.443   7.533   3.662 -0.1085  0.0306 -0.1781
 1451W        W 2648   5.747   6.230   4.982 -0.0292  0.1356  0.1014
 1452W        W 2649   5.229   0.271   2.195 -0.1056 -0.3018  0.2296
 1453W        W 2650   4.628   3.156   1.724  0.1464  0.2224  0.0590
 1454W        W 2651   3.298   4.941   1.113 -0.0592 -0.0711  0.1075
 1455W        W 2652   3.303   3.484   1.011 -0.0471  0.0361 -0.1220
 1456W        W 2653   1.681   5.705   3.927  0.0227  0.1867  0.0861
 1457W        W 2654   1.507   6.337   5.219  0.0228 -0.2058  0.1286
 1458W        W 2655   1.135   3.715   0.018 -0.0414 -0.4188 -0.0789
 1459W        W 2656   0.391   6.215   3.865 -0.1893  0.2478  0.0464
 1460W        W 2657   3.625   6.912   3.383  0.2635  0.0175 -0.0916
 1461W        W 2658   3.843   1.665   5.549 -0.3826 -0.1602  0.2682
 1462W        W 2659   2.640   1.546   5.642  0.1372  0.0718  0.3736
 1463W        W 2660   3.186   6.696   4.117 -0.2077  0.0921 -0.0096
 1464W        W 2661   4.675   6.197   3.491  0.0281  0.0650  0.0155
 1465W        W 2662   4.244   6.806   7.193 -0.2501 -0.1597 -0.1303
 1466W        W 2663   3.107   5.627   7.171 -0.1278  0.2394 -0.1766
 1467W        W 2664   4.234   3.645   3.278 -0.1265 -0.0352 -0.5446
 1468W        W 2665   5.193   2.720   2.354  0.2030  0.2983  0.1023
 1469W        W 2666   0.436   1.455   2.830  0.1738  0.0722 -0.3156
 1470W        W 2667   5.739   1.006   6.145 -0.0501 -0.0608 -0.0909
 1471W        W 2668   1.835   3.377   5.572 -0.0655 -0.0903  0.1126
 1472W        W 2669   4.043   7.407   4.001 -0.0700 -0.2213 -0.0875
 1473W        W 2670   0.766   6.809   1.053 -0.1972  0.0555 -0.5492
 1474W        W 2671   0.592   2.916   0.628  0.2397  0.1637  0.0333
 1475W        W 2672   7.231   6.424   4.681  0.0065 -0.0764 -0.0004
 1476W        W 2673   0.292   3.284   7.350 -0.1866 -0.0948  0.0197
 1477W        W 2674   7.147   1.729   5.948 -0.1823  0.0527  0.1352
 1478W        W 2675   3.530   4.998   1.994 -0.1400 -0.1440 -0.1468
 1479W        W 2676   6.741   5.454   6.165 -0.2317 -0.0633  0.0755
 1480W        W 2677   3.226   5.269   7.618 -0.4203 -0.0299 -0.0644
 1481W        W 2678   5.177   1.938   5.339  0.2085  0.1531 -0.2631
 1482W        W 2679   7.631   1.183   1.110 -0.1082 -0.1952  0.2793
 1483W        W 2680   5.244   7.420   2.219  0.3576 -0.0099 -0.2067
 1484W        W 2681   2.167   7.183   2.121 -0.3515 -0.1455 -0.0260
 1485W        W 2682   0.479   2.290   5.459 -0.4217 -0.2997 -0.0561
 1486W        W 2683   0.326   3.618   6.003 -0.0652 -0.0523  0.2166
 1487W        W 2684   3.193   0.896   2.657 -0.2599  0.0711  0.2383
 1488W        W 2685   3.696   2.477   1.891  0.3067  0.0932 -0.2404
 1489W        W 2686   2.941   6.481   5.735 -0.1450 -0.0543 -0.3670
 1490W        W 2687   1.484   1.701   0.443 -0.2593 -0.2793  0.0026
 1491W        W 2688   4.529   7.101   4.560  0.3084  0.0213  0.0288
 1492W        W 2689   3.384   2.434   5.153  0.0253  0.1689 -0.0260
 1493W        W 2690   1.453   6.613   7.604 -0.2418 -0.0012 -0.0416
 1494W        W 2691   5.500   0.734   5.028 -0.1739 -0.0357 -0.2396
 1495W        W 2692   0.307   2.188   2.384 -0.4382  0.0186  0.0412
 1496W        W 2693   1.701   5.129   6.573 -0.1971 -0.2565  0.1849
 1497W        W 2694   7.214   3.621   5.440  0.2177 -0.1182 -0.0745
 1498W        W 2695   0.345   3.583   2.188 -0.0289  0.0562  0.0433
 1499W        W 2696   2.049   7.602   4.596 -0.1618 -0.0080 -0.0664
 1500W        W 2697   6.171   1.562   5.748 -0.1813 -0.0126  0.1902
 1501W        W 2698   3.992   0.623   4.124  0.2471  0.1218  0.0026
 1502W        W 2699   5.629   5.621   5.992 -0.0465 -0.1764 -0.0156
 1503W        W 2700   6.157   0.353   3.032 -0.0180  0.0949 -0.0579
 1504W        W 2701   0.051   6.631   1.569  0.4015 -0.2087 -0.2280
 1505W        W 2702   0.560   4.688   2.566  0.1557  0.1374 -0.2398
 1506W        W 2703   7.210   6.535   3.236 -0.0573  0.1189 -0.0726
 1507W        W 2704   5.016   5.872   4.794 -0.2579 -0.1036 -0.1432
 1508W        W 2705   2.119   2.995   6.185 -0.3725 -0.2788 -0.0115
 1509W        W 2706   0.892   0.838   6.258  0.0546 -0.2588 -0.2976
 1510W        W 2707   2.388   6.420   5.109 -0.0202 -0.1252 -0.0529
 1511W        W 2708   2.507   5.690   1.268  0.1746 -0.1238 -0.1006
 1512W        W 2709   2.522   1.799   2.071  0.0999  0.0806  0.0423
 1513W        W 2710   6.907   3.992   5.374  0.0974 -0.1574 -0.3174
 1514W        W 2711   6.298   0.712   3.443  0.2437 -0.1561  0.1644
 1515W        W 2712   2.650   4.789   7.013 -0.0011 -0.2503  0.4311
 1516W        W 2713   2.678   1.692   4.691  0.1864 -0.2007 -0.1411
 1517W        W 2714   4.872   6.764   0.375  0.3916 -0.1681  0.0369
 1518W        W 2715   5.912   3.436   5.761 -0.0821 -0.1255  0.0679
 1519W        W 2716   3.823   4.602   1.259 -0.1234 -0.0790  0.0638
 1520W        W 2717   5.922   6.584   3.265 -0.0800 -0.2429 -0.1176
 1521W        W 2718   3.228   3.228   4.951  0.1386  0.1850  0.1094
 1522W        W 2719   5.965   6.261   2.660  0.0117 -0.0793  0.1613
 1523W        W 2720   3.702   5.341   6.289  0.0570 -0.0052 -0.0357
 1524W        W 2721   0.903   2.756   6.186 -0.0034 -0.0261 -0.1772
 1525W        W 2722   2.047   4.381   6.388 -0.1371 -0.3434  0.2772
 1526W        W 2723   1.615   6.415   5.784 -0.0717  0.2360 -0.0869
 1527W        W 2724   3.092   6.330   0.184  0.0583  0.0555  0.2936
 1528W        W 2725   1.550   5.151   5.974  0.0955 -0.1635  0.0130
 1529W        W 2726   7.537   7.423   6.744 -0.1412 -0.0485  0.3332
 1530W        W 2727   4.699   7.062   3.738  0.0400 -0.3209  0.3000
 1531W        W 2728   6.655   3.123   2.721 -0.1432 -0.1074 -0.0944
 1532W        W 2729   4.168   2.836   0.992  0.0430 -0.1737  0.1203
 1533W        W 2730   6.595   3.591   4.549 -0.1194 -0.3057 -0.3124
 1534W        W 2731   7.456   7.501   0.688  0.4013 -0.1380 -0.0180
 1535W        W 2732   6.719   6.256   5.056 -0.3161  0.1697  0.0640
 1536W        W 2733   2.195   6.870   1.349 -0.4011 -0.0783 -0.1784
 1537W        W 2734   6.695   0.090   4.686 -0.1239 -0.1557 -0.0642
 1538W        W 2735   6.595   5.534   2.852 -0.1568  0.0585  0.0061
 1539W        W 2736   0.381   3.205   5.703 -0.1008 -0.1171  0.5482
 1540W        W 2737   4.071   5.639   4.970  0.1804 -0.1222 -0.0742
 1541W        W 2738   0.860   3.705   3.927 -0.1726 -0.2013 -0.1780
 1542W        W 2739   7.651   0.272   7.470  0.2612  0.1133  0.0860
 1543W        W 2740   0.219   1.199   7.539  0.0901 -0.0201 -0.4214
 1544W        W 2741   1.292   6.908   4.153  0.1564  0.0088  0.0376
 1545W        W 2742   3.301   6.396   4.841 -0.0638 -0.0025 -0.1786
 1546W        W 2743   1.030   7.476   6.452 -0.1489 -0.0852 -0.2525
 1547W        W 2744   3.125   1.745   4.903 -0.0093  0.2231 -0.3050
 1548W        W 2745   3.731   7.424   3.035  0.1363  0.0038  0.2023
 1549W        W 2746   0.169   3.453   1.700 -0.2323 -0.0630  0.0500
 1550W        W 2747   2.642   0.224   6.920  0.4797  0.2063  0.0185
 1551W        W 2748   0.600   3.452   5.143  0.0027  0.0140 -0.1637
 1552W        W 2749   7.241   4.699   5.929 -0.1593  0.0439 -0.3919
 1553W        W 2750   5.965   7.569   4.073 -0.0067  0.3614  0.0958
 1554W        W 2751   7.563   4.371   5.026  0.1670 -0.3421  0.1569
 1555W        W 2752   2.976   2.008   4.371 -0.2383  0.2109 -0.0686
 1556W        W 2753   4.035   3.419   5.768  0.1436 -0.0276  0.0932
 1557W        W 2754   3.967   3.613   6.211  0.0506  0.2203 -0.0122
 1558W        W 2755   4.334   4.275   1.842 -0.0673  0.0585  0.0540
 1559W        W 2756   2.184   5.057   7.144 -0.1203 -0.1387 -0.0785
 1560W        W 2757   4.495   0.226   3.348 -0.1969  0.0308 -0.0959
 1561W        W 2758   5.005   7.193   1.841  0.2334  0.0922  0.1507
 1562W        W 2759   4.125   6.732   0.078  0.0574  0.1920 -0.3230
 1563W        W 2760   2.129   1.411   2.278 -0.0532 -0.2139 -0.3243
 1564W        W 2761   1.159   1.807   1.372 -0.1460 -0.1494 -0.1706
 1565W        W 2762   0.658   0.351   6.801  0.0041  0.3540  0.4960
 1566W        W 2763   4.759   5.455   0.801 -0.4042  0.3397 -0.1442
 1567W        W 2764   2.018   4.437   5.833 -0.4072  0.3578 -0.0629
 1568W        W 2765   4.577   6.692   4.891 -0.0754  0.1183  0.1425
 1569W        W 2766   0.341   3.266   2.561  0.0624 -0.0163  0.1068
 1570W        W 2767   0.261   2.532   0.475 -0.3242 -0.1851  0.0442
 1571W        W 2768   3.203   0.840   0.942  0.0755  0.1808  0.1471
 1572W        W 2769   2.152   4.911   2.274 -0.1946 -0.1726 -0.0153
 1573W        W 2770   3.407   2.546   5.960  0.2080 -0.3153 -0.0013
 1574W        W 2771   0.946   4.082   4.312  0.1930 -0.1152 -0.1193
 1575W        W 2772   1.135   0.171   4.931 -0.1973 -0.1680  0.0259
 1576W        W 2773   6.909   4.986   4.393  0.2577 -0.0364 -0.0735
 1577W        W 2774   6.991   2.469   4.605  0.0962 -0.0811 -0.1414
 1578W        W 2775   6.327   7.566   5.400  0.1412 -0.1211  0.0210
 1579W        W 2776   7.032   0.528   3.087  0.1582  0.1748 -0.2412
 1580W        W 2777   4.747   7.487   1.525  0.0322  0.0788 -0.0603
 1581W        W 2778   1.645   2.184   4.245 -0.0331  0.3561 -0.0339
 1582W        W 2779   2.591   7.032   6.748 -0.2380  0.0734 -0.4484
 1583W        W 2780   1.901   0.159   6.080 -0.1056  0.1608 -0.0993
 1584W        W 2781   7.308   2.455   1.395  0.0430 -0.0089 -0.4785
 1585W        W 2782   2.216   7.417   1.276  0.0476 -0.1397  0.1562
 1586W        W 2783   0.954   4.255   1.668 -0.2752 -0.0481 -0.1090
 1587W        W 2784   2.983   1.467   5.258  0.0681 -0.2450 -0.2132
 1588W        W 2785   6.809   5.483   3.867  0.1963  0.1216 -0.1276
 1589W        W 2786   6.654   0.273   3.212  0.1075  0.0674  0.1217
 1590W        W 2787   1.313   6.442   6.179 -0.0462 -0.1057  0.0454
 1591W        W 2788   3.249   3.542   2.677  0.0242 -0.2841 -0.1168
 1592W        W 2789   4.075   2.210   1.955  0.0034  0.0244 -0.0033
 1593W        W 2790   3.180   5.790   0.060  0.1599  0.2385  0.2321
 1594W        W 2791   1.292   4.699   6.217 -0.1748 -0.1279 -0.0931
 1595W        W 2792   1.779   3.487   4.060  0.1392 -0.1214 -0.0338
 1596W        W 2793   7.360   5.825   5.175  0.3581 -0.0783 -0.4425
 1597W        W 2794   3.809   1.923   3.109  0.1629  0.0248 -0.3176
 1598W        W 2795   2.016   2.890   5.446  0.0066 -0.1062  0.0372
 1599W        W 2796   2.982   3.601   3.505  0.1741 -0.1635 -0.1764
 1600W        W 2797   1.691   3.459   1.232  0.2378  0.0593  0.2088
 1601W        W 2798   2.230   1.852   6.446 -0.1770  0.3931 -0.2427
 1602W        W 2799   1.752   5.996   5.443  0.1117  0.3196 -0.0018
 1603W        W 2800   2.821   3.540   2.289  0.1225 -0.1513  0.0375
 1604W        W 2801   6.804   7.064   3.458 -0.2911 -0.1616 -0.0050
 1605W        W 2802   0.795   3.833   4.773  0.2675 -0.1527  0.0290
 1606W        W 2803   1.302   0.964   5.554 -0.0161 -0.3421 -0.0452
 1607W        W 2804   2.085   5.339   5.389 -0.0977  0.0436  0.0627
 1608W        W 2805   3.316   6.594   3.140 -0.0322  0.3353 -0.1629
 1609W        W 2806   3.827   5.532   2.639 -0.1652  0.3465  0.0870
 1610W        W 2807   0.804   5.815   5.586  0.1005  0.1465 -0.0850
 1611W        W 2808   1.899   6.569   3.760 -0.3226 -0.0624 -0.0869
 1612W        W 2809   6.849   4.422   3.868 -0.1451 -0.0519  0.0156
 1613W        W 2810   3.782   0.213   4.819 -0.2210  0.1609  0.1316
 1614W        W 2811   1.909   5.768   2.474 -0.1126 -0.0437  0.1616
 1615W        W 2812   1.182   1.799   5.745  0.1153 -0.0157  0.3114
 1616W        W 2813   2.693   2.082   0.895  0.1318 -0.2474  0.1811
 1617W        W 2814   5.265   4.815   5.812  0.1270  0.1188 -0.2636
 1618W        W 2815   1.754   4.657   6.663 -0.3059  0.1838  0.2244
 1619W        W 2816   3.463   0.938   7.085 -0.0993 -0.0259 -0.0989
 1620W        W 2817   0.726   3.532   7.417  0.1409  0.2370 -0.2915
 1621W        W 2818   1.480   1.726   3.883 -0.0951 -0.2667  0.2193
 1622W        W 2819   6.321   1.797   6.537  0.1317 -0.1402 -0.0246
 1623W        W 2820   3.601   6.141   3.200 -0.2201 -0.1186  0.0109
 1624W        W 2821   4.540   6.974   5.359 -0.0904 -0.2105 -0.0240
 1625W        W 2822   1.921   7.600   5.566 -0.2117  0.1141  0.0144
 1626W        W 2823   7.012   5.128   1.937  0.1681 -0.0310 -0.2265
 1627W        W 2824   6.950   6.967   2.284 -0.0302 -0.0575 -0.2416
 1628W        W 2825   2.718   3.089   5.920  0.0724 -0.0805 -0.0585
 1629W        W 2826   3.156   5.142   3.464  0.2271  0.2213  0.1563
 1630W        W 2827   0.795   3.512   6.909  0.0476 -0.0676 -0.0956
 1631W        W 2828   5.843   4.471   2.889  0.0440 -0.1958  0.1645
 1632W        W 2829   4.652   3.802   0.464 -0.1080 -0.2906  0.0855
 1633W        W 2830   3.731   7.368   3.577 -0.0265 -0.2433 -0.0998
 1634W        W 2831   2.665   3.170   1.065  0.0195 -0.1122 -0.1724
 1635W        W 2832   3.385   4.357   1.116 -0.0381  0.0885  0.1490
 1636W        W 2833   2.661   4.999   3.396 -0.0519  0.0909  0.0151
 1637W        W 2834   0.628   6.196   6.498  0.0576  0.3894  0.1285
 1638W        W 2835   3.218   5.202   1.643 -0.4151 -0.0969 -0.0563
 1639W        W 2836   3.705   1.257   2.416 -0.2273 -0.5799  0.0876
 1640W        W 2837   0.905   5.534   5.086 -0.0122 -0.1944  0.0486
 1641W        W 2838   4.201   0.083   0.284  0.2590  0.1014  0.5814
 1642W        W 2839   5.045   7.085   5.482 -0.1793 -0.0225  0.0036
 1643W        W 2840   3.411   4.139   7.091  0.0083 -0.2833  0.0393
 1644W        W 2841   2.857   7.571   4.316 -0.0617 -0.2761 -0.2685
 1645W        W 2842   7.137   7.517   4.814  0.0006  0.2604 -0.0475
 1646W        W 2843   2.879   1.622   0.541 -0.3722 -0.0121  0.1410
 1647W        W 2844   2.012   4.227   0.888 -0.2553 -0.2560 -0.0118
 1648W        W 2845   3.060   4.870   2.708 -0.1042 -0.1104  0.0309
 1649W        W 2846   4.701   6.364   0.843 -0.2853 -0.0081 -0.2419
 1650W        W 2847   2.785   4.515   5.140  0.1315  0.1615 -0.1248
 1651W        W 2848   4.873   6.730   3.358 -0.3200  0.3476 -0.0410
 1652W        W 2849   4.833   7.637   3.013  0.2193 -0.3303 -0.0048
 1653W        W 2850   3.834   3.956   7.036  0.2982  0.1030 -0.1815
 1654W        W 2851   1.713   1.228   1.649  0.0832  0.0419 -0.2053
 1655W        W 2852   1.280   3.120   6.163  0.2393  0.0969  0.2242
 1656W        W 2853   5.523   5.106   4.179  0.1814  0.2033 -0.3669
 1657W        W 2854   1.522   0.703   0.845  0.2065 -0.1357  0.0955
 1658W        W 2855   0.553   2.550   7.423 -0.0735 -0.1963  0.0029
 1659W        W 2856   4.681   1.058   5.141 -0.0807 -0.0878 -0.2726
 1660W        W 2857   3.331   0.699   3.557  0.2134  0.0835 -0.0316
 1661W        W 2858   4.068   4.558   3.886  0.0103  0.3187 -0.1854
 1662W        W 2859   0.260   6.033   3.357 -0.3216 -0.2087 -0.2240
 1663W        W 2860   4.926   7.498   5.828  0.1780  0.1167 -0.2870
 1664W        W 2861   4.839   3.526   6.634 -0.2106  0.0512  0.1932
 1665W        W 2862   5.073   0.641   4.584  0.0446  0.0204 -0.0940
 1666W        W 2863   0.239   2.604   3.427 -0.4745 -0.0169  0.3336
 1667W        W 2864   7.398   2.161   4.434 -0.1068  0.2106 -0.2041
 1668W        W 2865   1.071   1.649   4.834  0.1478 -0.0223 -0.0399
 1669W        W 2866   7.375   0.388   4.840 -0.1337 -0.2876 -0.4187
 1670W        W 2867   3.767   4.800   5.522  0.0446  0.0342  0.5038
 1671W        W 2868   1.306   7.117   3.345  0.2026 -0.0617 -0.0669
 1672W        W 2869   6.424   3.111   4.498  0.5613  0.1420 -0.1184
 1673W        W 2870   4.266   5.379   3.291  0.1159  0.0214  0.0036
 1674W        W 2871   4.220   3.383   1.934 -0.0139 -0.1046  0.2427
 1675W        W 2872   1.759   6.122   3.622  0.0219 -0.2275 -0.0853
 1676W        W 2873   0.981   4.930   2.732  0.3314 -0.0145  0.1205
 1677W        W 2874   1.842   6.898   0.887 -0.1594  0.1831 -0.0766
 1678W        W 2875   3.306   3.551   7.080  0.0233 -0.0709  0.1232
 1679W        W 2876   1.482   3.623   2.964  0.0388  0.1271  0.1951
 1680W        W 2877   2.672   5.836   7.355  0.1350 -0.1259  0.0122
 1681W        W 2878   6.850   4.868   2.387  0.0312  0.1550 -0.1916
 1682W        W 2879   6.582   0.599   6.157 -0.0456 -0.2993 -0.1603
 1683W        W 2880   1.794   5.684   1.067  0.0731 -0.1249 -0.2765
 1684W        W 2881   4.626   3.047   0.980  0.2624 -0.0278 -0.1599
 1685W        W 2882   7.205   6.233   2.659  0.3179 -0.1015  0.1272
 1686W        W 2883   1.850   4.926   7.595  0.2188 -0.2393 -0.0887
 1687W        W 2884   2.580   5.199   2.629  0.2023 -0.2398  0.0712
 1688W        W 2885   2.888   2.983   1.513 -0.0637  0.0886  0.3044
 1689W        W 2886   7.421   0.418   1.698  0.1013 -0.0241  0.0184
 1690W        W 2887   5.819   4.336   6.178 -0.0212  0.2397  0.3743
 1691W        W 2888   0.071   5.458   2.576 -0.3624  0.3643 -0.1510
 1692W        W 2889   1.377   3.597   0.847 -0.0954 -0.0955 -0.2575
 1693W        W 2890   7.250   6.535   5.890  0.1096  0.1941  0.1214
 1694W        W 2891   4.615   6.268   5.971  0.1396 -0.2923  0.2705
 1695W        W 2892   5.759   3.536   3.651 -0.1459  0.0501 -0.1809
 1696W        W 2893   0.860   2.815   1.114 -0.0494  0.3207 -0.1205
 1697W        W 2894   4.218   2.025   3.626 -0.0245  0.0557  0.0433
 1698W        W 2895   6.043   2.692   4.617  0.1537  0.0716 -0.2445
 1699W        W 2896   0.603   6.626   3.641 -0.2096 -0.0935 -0.1591
 1700W        W 2897   4.060   1.401   1.361  0.3188  0.0521  0.3555
 1701W        W 2898   6.353   7.293   5.959  0.2332 -0.2303 -0.0462
 1702W        W 2899   6.730   7.250   4.765 -0.0453  0.1716  0.2106
 1703W        W 2900   4.866   3.040   2.576 -0.0192 -0.1605 -0.3440
 1704W        W 2901   2.861   0.373   7.412  0.0928 -0.3444  0.4040
 1705W        W 2902   2.780   2.970   4.090  0.1577  0.2643  0.0028
 1706W        W 2903   1.323   1.082   1.931  0.0737  0.3511 -0.1048
 1707W        W 2904   7.486   6.866   6.606  0.1344  0.1131 -0.0120
 1708W        W 2905   5.549   5.105   6.156 -0.0020  0.0523 -0.1739
 1709W        W 2906   4.517   0.717   3.094  0.2807  0.0760 -0.2147
 1710W        W 2907   5.108   1.801   5.866 -0.2189 -0.1697  0.1998
 1711W        W 2908   1.471   1.826   3.255 -0.1552 -0.2700 -0.1356
 1712W        W 2909   7.434   6.802   2.403  0.1592  0.1326 -0.1610
 1713W        W 2910   2.536   0.082   4.743 -0.0137 -0.0297  0.2328
 1714W        W 2911   0.935   7.458   6.971  0.1197  0.1946  0.0814
 1715W        W 2912   0.751   6.306   4.763 -0.0100 -0.0557  0.1825
 1716W        W 2913   5.880   5.307   1.526  0.0787  0.0751 -0.1377
 1717W        W 2914   5.055   4.060   3.982  0.1655 -0.0692 -0.0192
 1718W        W 2915   2.406   1.193   4.778  0.2096 -0.3202 -0.0108
 1719W        W 2916   4.437   6.781   0.790 -0.2603 -0.0464 -0.2284
 1720W        W 2917   3.163   4.571   4.797  0.2790 -0.1483  0.0442
 1721W        W 2918   3.383   7.080   0.670  0.3020  0.1366  0.0539
 1722W        W 2919   5.584   6.995   4.626  0.0428 -0.2044  0.1064
 1723W        W 2920   7.468   2.272   3.379  0.1525  0.0490 -0.0771
 1724W        W 2921   1.738   1.841   7.169  0.1795  0.2808 -0.2428
 1725W        W 2922   0.541   1.385   7.195 -0.1909  0.1644  0.2564
 1726W        W 2923   2.941   5.654   1.533 -0.2056 -0.1575  0.4150
 1727W        W 2924   4.356   1.066   4.266  0.2054  0.2742 -0.2322
 1728W        W 2925   5.261   2.513   6.322 -0.1464  0.0934 -0.1894
 1729W        W 2926   0.973   1.391   5.991 -0.0681  0.0052  0.1733
 1730W        W 2927   4.875   0.768   5.635 -0.1817  0.1692  0.0135
 1731W        W 2928   6.573   2.505   5.992  0.1339 -0.3138 -0.3414
 1732W        W 2929   2.476   5.415   3.152  0.0671 -0.0537  0.1385
 1733W        W 2930   7.487   0.717   3.116  0.0413  0.1879  0.0073
 1734W        W 2931   3.157   2.045   6.142 -0.3449 -0.2357  0.0733
 1735W        W 2932   3.478   4.520   2.726 -0.0526  0.1696  0.0712
 1736W        W 2933   1.876   2.376   6.938  0.0000 -0.0271  0.1207
 1737W        W 2934   5.893   4.222   1.357  0.0681  0.1867  0.0007
 1738W        W 2935   1.678   2.724   0.533 -0.2663 -0.3090 -0.1655
 1739W        W 2936   1.876   2.626   4.198  0.2953 -0.0428  0.0278
 1740W        W 2937   3.234   1.726   5.699  0.2184 -0.1622  0.0216
 1741W        W 2938   6.583   3.450   3.264  0.1863 -0.1243  0.1333
 1742W        W 2939   0.410   7.072   5.068 -0.1024  0.4366  0.0199
 1743W        W 2940   7.395   1.975   0.376 -0.0999  0.1219 -0.1844
 1744W        W 2941   1.746   2.831   4.985  0.1021  0.3982 -0.0500
 1745W        W 2942   0.464   4.309   4.292 -0.0049 -0.1775 -0.2624
 1746W        W 2943   0.860   1.914   6.148  0.2101  0.0728 -0.0162
 1747W        W 2944   1.237   7.478   1.081 -0.2127  0.0590 -0.0561
 1748W        W 2945   2.192   6.510   4.254 -0.2114 -0.1459  0.3338
 1749W        W 2946   3.136   0.771   0.359 -0.0793  0.0171 -0.2364
 1750W        W 2947   1.806   5.464   6.935  0.0956  0.1396 -0.1262
 1751W        W 2948   3.168   6.935   5.290  0.1089  0.1266  0.2066
 1752W        W 2949   1.975   2.228   2.714  0.0117  0.0761  0.0426
 1753W        W 2950   1.678   0.837   0.342  0.0244  0.2863  0.0901
 1754W        W 2951   4.955   4.512   6.425 -0.0687 -0.2169 -0.2475
 1755W        W 2952   5.444   4.000   3.571 -0.1638  0.0238  0.1150
 1756W        W 2953   2.143   5.812   4.429 -0.5286 -0.2829 -0.1611
 1757W        W 2954   1.745   2.995   5.863 -0.3909 -0.2616 -0.1176
 1758W        W 2955   0.448   7.517   1.677 -0.0759  0.0977  0.1666
 1759W        W 2956   5.711   2.266   4.709  0.3234 -0.2066 -0.0398
 1760W        W 2957   4.232   4.599   0.940  0.0830  0.2113  0.4028
 1761W        W 2958   4.389   7.365   6.933 -0.0630  0.0522  0.1863
 1762W        W 2959   5.832   2.997   6.265 -0.0329  0.0338 -0.1994
 1763W        W 2960   1.296   3.472   4.369 -0.3385  0.1166 -0.2695
 1764W        W 2961   6.112   3.418   4.782  0.0575 -0.0957  0.2123
 1765W        W 2962   3.385   3.832   4.797  0.2359  0.4510  0.0132
 1766W        W 2963   3.290   2.005   2.932  0.1239  0.0742  0.2326
 1767W        W 2964   7.017   0.314   6.335  0.1218  0.1121  0.0695
 1768W        W 2965   1.531   5.305   1.345  0.1337 -0.0385 -0.2362
 1769W        W 2966   5.282   3.583   6.404 -0.0620 -0.1817  0.4133
 1770W        W 2967   3.704   6.272   0.836  0.1137 -0.5209 -0.0510
 1771W        W 2968   4.352   6.472   0.426 -0.1711  0.0253  0.4816
 1772W        W 2969   0.797   1.273   0.465  0.1669  0.1181 -0.0424
 1773W        W 2970   4.141   1.459   0.000 -0.1351  0.0116  0.0213
 1774W        W 2971   5.520   7.075   2.489 -0.1488 -0.3977 -0.0205
 1775W        W 2972   2.917   3.510   7.384  0.0495  0.0288  0.1740
 1776W        W 2973   4.511   4.614   0.358 -0.0256  0.0270  0.1153
 1777W        W 2974   1.692   6.890   2.003 -0.0415 -0.1042 -0.0286
 1778W        W 2975   4.209   1.754   0.941 -0.2078 -0.3205  0.0005
 1779W        W 2976   4.273   1.945   4.787  0.1992  0.3110 -0.2664
 1780W        W 2977   0.619   5.993   1.501 -0.0047  0.1218  0.2591
 1781W        W 2978   6.270   1.077   5.902 -0.3190 -0.0160  0.2563
 1782W        W 2979   6.109   4.982   4.066  0.0274 -0.1231 -0.0599
 1783W        W 2980   3.502   1.487   3.198  0.0688 -0.2259 -0.0571
 1784W        W 2981   2.728   7.442   7.214 -0.2444 -0.1007 -0.0027
 1785W        W 2982   0.097   0.069   5.100 -0.0325  0.1155 -0.0156
 1786W        W 2983   3.933   5.752   5.478 -0.0860 -0.0159 -0.3625
 1787W        W 2984   7.371   0.465   0.339 -0.2269  0.2125 -0.0260
 1788W        W 2985   4.984   2.308   3.767  0.1867 -0.3710  0.2169
 1789W        W 2986   3.461   5.385   6.759  0.0877 -0.1468  0.2059
 1790W        W 2987   1.560   0.712   1.588 -0.1215  0.0121 -0.1795
 1791W        W 2988   2.466   0.556   7.281  0.1385  0.2267  0.1044
 1792W        W 2989   0.462   2.704   5.881 -0.1515 -0.3215  0.2962
 1793W        W 2990   6.618   4.630   3.520 -0.1333  0.0143  0.2405
 1794W        W 2991   6.671   3.391   5.454 -0.2998  0.1457 -0.1481
 1795W        W 2992   1.147   2.189   0.427 -0.0419 -0.1305  0.0970
 1796W        W 2993   2.166   1.679   4.841  0.0747 -0.0412  0.3777
 1797W        W 2994   3.948   2.559   5.173 -0.0241 -0.0265 -0.0439
 1798W        W 2995   7.275   7.016   4.991  0.3888 -0.1755  0.1899
 1799W        W 2996   1.441   7.263   3.819  0.0298 -0.2530 -0.1359
 1800W        W 2997   2.159   2.623   4.672  0.2706 -0.1623  0.4077
 1801W        W 2998   7.297   3.148   4.229  0.1986 -0.1210 -0.2045
 1802W        W 2999   1.978   1.988   1.046 -0.2424 -0.3518  0.0998
 1803W        W 3000   4.526   4.038   2.646  0.2245 -0.1326  0.0809
 1804W        W 3001   0.506   0.559   3.068  0.2173  0.1220  0.0851
 1805W        W 3002   1.917   2.236   1.700  0.3186 -0.0401  0.3176
 1806W        W 3003   6.059   6.678   2.404 -0.1258  0.4560 -0.0446
 1807W        W 3004   4.991   5.338   1.330 -0.0937  0.2684  0.0994
 1808W        W 3005   7.035   4.440   5.141  0.0584  0.0803 -0.3653
 1809W        W 3006   0.090   0.318   3.348  0.5369  0.2260  0.3083
 1810W        W 3007   4.049   7.052   2.106  0.2461  0.0986 -0.1509
 1811W        W 3008   2.779   5.419   4.796 -0.0395  0.0362  0.1006
 1812W        W 3009   4.039   6.912   4.502 -0.2470 -0.0185  0.2395
 1813W        W 3010   2.333   1.003   2.183  0.0159 -0.2382  0.0566
 1814W        W 3011   7.523   7.379   0.184 -0.1007  0.0224 -0.1691
 1815W        W 3012   2.288   4.403   2.164 -0.1251 -0.1709 -0.0007
 1816W        W 3013   1.019   0.496   3.718 -0.1112 -0.0115  0.3240
 1817W        W 3014   3.561   7.443   5.036  0.0390  0.0408 -0.0432
 1818W        W 3015   0.139   4.423   2.361  0.2200 -0.0816  0.0271
 1819W        W 3016   1.976   5.490   2.993 -0.2388  0.1875 -0.3712
 1820W        W 3017   1.551   0.281   1.874  0.0469  0.1856  0.0334
 1821W        W 3018   6.811   6.847   5.803  0.0404 -0.1152 -0.1179
 1822W        W 3019   4.045   0.192   3.745  0.4106 -0.0079 -0.2028
 1823W        W 3020   0.303   1.249   1.857  0.1362 -0.0808 -0.0349
 1824W        W 3021   0.504   2.405   6.304 -0.1108  0.0405 -0.2068
 1825W        W 3022   6.370   1.569   5.094  0.0300 -0.4229  0.4756
 1826W        W 3023   3.946   0.413   6.335 -0.2559  0.4542  0.1434
 1827W        W 3024   2.845   4.876   1.420 -0.0263  0.3901  0.2332
 1828W        W 3025   4.477   5.286   4.824 -0.2238 -0.2158 -0.3807
 1829W        W 3026   1.839   0.053   1.438  0.0156  0.0800  0.0954
 1830W        W 3027   6.292   3.440   2.821 -0.1065  0.2893 -0.2973
 1831W        W 3028   1.739   4.524   7.220  0.1412 -0.1078 -0.2511
 1832W        W 3029   3.419   3.877   1.963 -0.1082  0.1698  0.0463
 1833W        W 3030   0.080   0.678   3.884  0.2482 -0.1475 -0.1315
 1834W        W 3031   5.276   5.454   0.222 -0.1280  0.1132  0.1839
 1835W        W 3032   5.285   0.071   3.218  0.0835  0.0132  0.3628
 1836W        W 3033   4.822   4.388   1.801 -0.1138  0.0161  0.3383
 1837W        W 3034   5.091   3.805   3.172 -0.1962  0.1002  0.3574
 1838W        W 3035   7.543   5.722   5.694 -0.2172  0.2184 -0.1219
 1839W        W 3036   6.073   5.569   2.639 -0.0605  0.3029  0.1106
 1840W        W 3037   0.184   1.034   7.058 -0.0767 -0.0227  0.1412
 1841W        W 3038   6.454   5.562   5.727 -0.2850  0.2232  0.2464
 1842W        W 3039   1.713   3.334   6.868 -0.5806 -0.1221 -0.0925
 1843W        W 3040   4.503   2.906   4.682 -0.1400 -0.1085  0.2615
 1844W        W 3041   4.079   5.882   4.105 -0.1829  0.1679 -0.0740
 1845W        W 3042   0.975   0.726   2.801 -0.1727 -0.1375 -0.1958
 1846W        W 3043   0.322   3.107   3.471 -0.1519  0.1552 -0.2854
 1847W        W 3044   0.170   2.523   1.409 -0.0488  0.1308  0.0574
 1848W        W 3045   5.353   0.677   6.091  0.1619  0.0153  0.0240
 1849W        W 3046   4.588   4.402   2.264 -0.2152 -0.2402 -0.0351
 1850W        W 3047   4.043   0.725   2.831  0.0427 -0.0233  0.0435
 1851W        W 3048   3.529   3.438   3.174  0.1709  0.1893  0.0180
 1852W        W 3049   7.303   5.640   3.772  0.4473  0.2549  0.0313
 1853W        W 3050   3.122   5.951   5.085 -0.2317 -0.2889  0.0176
 1854W        W 3051   0.726   0.298   6.279 -0.1472  0.0783  0.0029
 1855W        W 3052   1.065   6.034   3.941 -0.1544 -0.1610 -0.1351
 1856W        W 3053   5.124   3.682   2.320  0.0028 -0.0239  0.2126
 1857W        W 3054   1.973   1.759   1.886  0.0200  0.4807 -0.1683
 1858W        W 3055   3.386   3.279   2.287 -0.1146 -0.2662 -0.1117
 1859W        W 3056   1.569   5.086   5.008  0.3647  0.1209 -0.3596
 1860W        W 3057   3.975   5.855   0.577 -0.1092  0.0713 -0.1339
 1861W        W 3058   2.243   1.347   3.499  0.1026 -0.1373  0.2282
 1862W        W 3059   3.737   3.936   0.364  0.0255  0.0645 -0.0083
 1863W        W 3060   1.367   3.386   2.505  0.0506 -0.1574  0.1218
 1864W        W 3061   0.628   6.107   4.323  0.0004 -0.2732 -0.0904
 1865W        W 3062   4.791   2.785   1.403 -0.0673  0.0622 -0.0795
 1866W        W 3063   1.519   0.617   2.206  0.0680 -0.1131 -0.1981
 1867W        W 3064   2.233   5.599   7.240  0.0905  0.1530 -0.0874
 1868W        W 3065   2.643   5.750   0.729  0.0907  0.1591  0.1983
 1869W        W 3066   3.191   3.315   0.187  0.0689 -0.1354 -0.0122
 1870W        W 3067   1.429   6.423   4.010  0.0332 -0.1334  0.0232
 1871W        W 3068   5.025   4.065   5.555 -0.0548  0.1617  0.0438
 1872W        W 3069   2.116   0.117   0.938  0.0369  0.3833 -0.3318
 1873W        W 3070   2.320   5.578   0.347 -0.0354 -0.1315  0.1206
 1874W        W 3071   5.285   6.120   5.338  0.0785 -0.2339  0.0679
 1875W        W 3072   4.156   2.543   2.422  0.0531 -0.1902  0.1674
 1876W        W 3073   1.859   6.165   4.158 -0.0754  0.0060 -0.0360
 1877W        W 3074   2.755   4.017   5.420  0.0656  0.1032  0.0792
 1878W        W 3075   4.383   5.489   0.399 -0.1578 -0.2106 -0.1618
 1879W        W 3076   6.338   1.028   4.898 -0.0383 -0.3247  0.0777
 1880W        W 3077   2.559   1.598   6.138  0.0102 -0.1051  0.1243
 1881W        W 3078   0.843   5.101   4.142 -0.1981  0.2459 -0.2037
 1882W        W 3079   4.166   5.507   4.476 -0.0438 -0.2687 -0.0932
 1883W        W 3080   7.219   7.073   1.521 -0.2199 -0.3734  0.1705
 1884W        W 3081   5.530   0.772   4.362  0.1701 -0.0906 -0.1202
 1885W        W 3082   2.035   1.642   5.308 -0.1086  0.1170  0.2526
 1886W        W 3083   4.052   5.412   7.636  0.0178  0.0265 -0.0403
 1887W        W 3084   1.346   2.809   1.490 -0.1434  0.2219 -0.0375
 1888W        W 3085   0.152   6.137   1.537  0.1689  0.0292  0.0331
 1889W        W 3086   0.710   2.445   5.032 -0.1673  0.0075 -0.0210
 1890W        W 3087   7.633   4.458   6.241 -0.3436 -0.2385  0.1472
 1891W        W 3088   4.161   3.895   5.837 -0.0292 -0.1319  0.1715
 1892W        W 3089   6.026   6.688   4.512 -0.1096  0.2658  0.1372
 1893W        W 3090   1.606   0.009   5.203 -0.3427 -0.2964 -0.0316
 1894W        W 3091   0.495   4.541   3.514  0.4451  0.2093  0.0610
 1895W        W 3092   6.592   5.438   4.359  0.0615  0.2280  0.3018
 1896W        W 3093   2.918   3.346   6.871  0.0108 -0.3406 -0.0674
 1897W        W 3094   3.462   7.651   0.906  0.4911 -0.0064 -0.1132
 1898W        W 3095   6.782   3.678   2.875  0.0424  0.2299  0.2247
 1899W        W 3096   2.510   2.222   7.170  0.5330 -0.0528 -0.1242
 1900W        W 3097   0.966   5.966   2.286 -0.2468 -0.1963 -0.1015
 1901W        W 3098   7.390   3.843   6.773  0.1757  0.2477  0.1718
 1902W        W 3099   5.532   1.609   6.526 -0.2471  0.0479 -0.2518
 1903W        W 3100   2.515   4.765   1.857 -0.0259  0.2847 -0.0678
 1904W        W 3101   0.941   5.344   3.567  0.1682  0.0821  0.2009
 1905W        W 3102   6.262   6.603   2.906  0.0019  0.0988  0.0016
 1906W        W 3103   1.433   5.239   3.667 -0.0336  0.0683 -0.0435
 1907W        W 3104   7.523   0.468   4.250  0.3666  0.1599  0.2999
 1908W        W 3105   4.043   6.483   4.188 -0.0980  0.2160 -0.1627
 1909W        W 3106   7.176   4.178   6.348 -0.1215 -0.1585  0.2669
 1910W        W 3107   5.794   2.988   3.888  0.1545 -0.1226  0.2799
 1911W        W 3108   2.809   5.754   3.546 -0.2197 -0.2542  0.2473
 1912W        W 3109   0.232   1.391   2.392 -0.1052 -0.1904  0.1984
 1913W        W 3110   0.423   4.319   4.781 -0.1541  0.2450 -0.0674
 1914W        W 3111   7.108   6.169   5.457 -0.3614 -0.0237 -0.1310
 1915W        W 3112   0.344   6.071   5.960  0.0508  0.2388  0.0003
 1916W        W 3113   0.131   7.540   2.065 -0.0346 -0.1855 -0.2305
 1917W        W 3114   5.885   1.587   5.364  0.2335 -0.0770  0.0232
 1918W        W 3115   6.379   0.330   5.074  0.0120  0.3720 -0.2078
 1919W        W 3116   0.047   6.595   0.624 -0.1888  0.1269 -0.4825
 1920W        W 3117   6.923   5.855   4.196  0.1476 -0.0005 -0.0970
 1921W        W 3118   1.359   2.330   3.514  0.3381  0.0827 -0.1752
 1922W        W 3119   7.342   5.388   6.942 -0.1526 -0.1121 -0.1028
 1923W        W 3120   2.013   5.253   6.179 -0.0110  0.0459  0.2497
 1924W        W 3121   1.441   1.917   7.561  0.4578 -0.3368 -0.1442
 1925W        W 3122   4.033   1.613   6.655 -0.2072 -0.1135 -0.0472
 1926W        W 3123   0.048   5.521   4.771  0.3358  0.0552  0.0436
 1927W        W 3124   2.206   4.511   3.922  0.2279  0.3567  0.0519
 1928W        W 3125   0.912   7.091   5.446  0.1636 -0.1060  0.2352
 1929W        W 3126   4.600   0.178   6.890  0.2868  0.0844  0.2306
 1930W        W 3127   3.596   6.619   6.395  0.3502 -0.1371  0.4665
 1931W        W 3128   4.594   0.984   2.032 -0.0687 -0.0647  0.0785
 1932W        W 3129   4.103   5.055   1.766  0.0125  0.0813 -0.0564
 1933W        W 3130   4.945   2.390   5.347 -0.0964 -0.2052  0.1652
 1934W        W 3131   4.240   4.827   2.431  0.1498 -0.0829 -0.3390
 1935W        W 3132   0.959   6.986   3.735  0.0283  0.0674  0.0052
 1936W        W 3133   1.897   1.722   2.895 -0.1258  0.1270  0.2083
 1937W        W 3134   2.767   0.495   5.138  0.0072  0.2949 -0.0167
 1938W        W 3135   5.558   6.027   2.217  0.0433  0.0818 -0.1463
 1939W        W 3136   4.657   6.538   7.089 -0.5334 -0.3536  0.1370
 1940W        W 3137   4.261   6.843   1.727 -0.1943  0.0765 -0.1867
 1941W        W 3138   0.394   3.002   1.077  0.0823 -0.0025  0.1556
 1942W        W 3139   0.055   5.514   5.258  0.1079 -0.0879 -0.2489
 1943W        W 3140   4.618   3.256   4.985  0.0289 -0.1181  0.0506
 1944W        W 3141   6.761   4.661   6.058  0.4656 -0.0014 -0.0195
 1945W        W 3142   6.529   6.780   2.507  0.0507  0.4237  0.0607
 1946W        W 3143   6.400   5.818   4.806 -0.1992  0.3381  0.0004
 1947W        W 3144   2.620   3.384   1.855  0.1208 -0.2102  0.1847
 1948W        W 3145   1.187   6.783   1.888  0.0321  0.1773  0.0318
 1949W        W 3146   2.792   4.202   3.237  0.2167  0.0486  0.0300
 1950W        W 3147   2.645   2.171   2.454 -0.1385  0.0448 -0.3015
 1951W        W 3148   7.427   0.900   3.588  0.1959  0.1113  0.0803
 1952W        W 3149   2.713   1.521   1.617 -0.2058 -0.0198  0.3456
 1953W        W 3150   2.216   3.783   1.215 -0.0605 -0.0231  0.0171
 1954W        W 3151   0.389   4.350   2.936  0.1717 -0.2311  0.3470
 1955W        W 3152   7.091   0.862   4.907  0.2933 -0.0604  0.4752
 1956W        W 3153   2.708   3.203   4.998 -0.0685 -0.0312  0.2637
 1957W        W 3154   0.626   1.044   3.069 -0.0184  0.1956 -0.0167
 1958W        W 3155   1.959   4.184   4.785 -0.0075 -0.3612 -0.4670
 1959W        W 3156   6.423   3.102   3.974  0.1742 -0.1142  0.0945
 1960W        W 3157   2.628   3.777   7.054 -0.0856 -0.0372  0.0869
 1961W        W 3158   4.848   2.773   3.692  0.0876 -0.0857 -0.1390
 1962W        W 3159   5.415   4.674   2.546  0.0295 -0.1644  0.1476
 1963W        W 3160   4.953   6.016   3.844  0.1513  0.1235  0.0509
 1964W        W 3161   1.058   5.216   6.238 -0.1148  0.0279 -0.1404
 1965W        W 3162   3.422   7.057   3.831 -0.2064  0.0539  0.3676
 1966W        W 3163   7.530   7.388   3.544  0.0348  0.1113  0.2512
 1967W        W 3164   6.800   6.329   5.861  0.1985 -0.0525 -0.1794
 1968W        W 3165   6.426   5.037   5.872  0.0746 -0.0880 -0.1931
 1969W        W 3166   5.720   7.590   2.896 -0.1475  0.2054 -0.4492
 1970W        W 3167   1.301   3.388   5.726  0.0263 -0.2611 -0.0020
 1971W        W 3168   1.368   0.419   6.216  0.1954  0.0919  0.0292
 1972W        W 3169   1.195   6.998   6.308 -0.0565  0.0309  0.1033
 1973W        W 3170   3.740   1.030   1.074  0.1340 -0.0082  0.1985
 1974W        W 3171   3.296   4.226   0.013  0.0055 -0.0440  0.2249
 1975W        W 3172   4.918   5.703   0.415  0.0824 -0.0767 -0.0233
 1976W        W 3173   3.240   6.892   6.595 -0.0748  0.0071  0.1068
 1977W        W 3174   5.364   3.024   2.895 -0.3529 -0.0061 -0.1670
 1978W        W 3175   6.762   5.964   2.534 -0.2612  0.2517 -0.0027
 1979W        W 3176   1.158   5.112   2.354  0.0817  0.2237 -0.1294
 1980W        W 3177   3.414   3.102   3.571  0.1863 -0.0720 -0.2400
 1981W        W 3178   1.792   4.022   2.967 -0.1554  0.3016 -0.2200
 1982W        W 3179   5.661   3.596   4.584  0.0590 -0.2616  0.1392
 1983W        W 3180   7.639   5.799   1.937  0.0750 -0.2925  0.2683
 1984W        W 3181   3.932   5.044   3.183  0.1601 -0.0663 -0.0672
 1985W        W 3182   6.705   6.906   2.977 -0.3023  0.0329 -0.0638
 1986W        W 3183   1.798   1.304   3.198  0.2495 -0.0113 -0.1347
 1987W        W 3184   3.451   4.911   6.140  0.0429  0.2022 -0.3189
 1988W        W 3185   3.165   0.168   1.704  0.4806 -0.0003  0.0675
 1989W        W 3186   5.360   4.111   6.299  0.1042  0.1777 -0.0407
 1990W        W 3187   0.506   3.019   0.092 -0.2553  0.2300  0.2489
 1991W        W 3188   4.028   1.395   1.868  0.1168  0.1251 -0.1289
 1992W        W 3189   0.807   1.493   1.593  0.3489 -0.2116 -0.0893
 1993W        W 3190   4.038   0.724   7.153 -0.0193 -0.0682  0.1752
 1994W        W 3191   3.670   7.120   6.511 -0.2621 -0.4157 -0.0325
 1995W        W 3192   1.661   2.807   3.302  0.0954  0.0072 -0.1103
 1996W        W 3193   1.271   7.307   5.098 -0.1776  0.3897  0.2108
 1997W        W 3194   0.481   6.535   7.336 -0.0852  0.2061 -0.0781
 1998W        W 3195   7.040   7.460   6.629  0.1895  0.0668 -0.0229
 1999W        W 3196   2.513   2.076   5.015 -0.0590  0.2038  0.5046
 2000W        W 3197   0.461   6.636   3.083 -0.0456 -0.1119 -0.5131
 2001W        W 3198   7.469   4.262   3.326 -0.1983 -0.3721 -0.1024
 2002W        W 3199   1.853   2.485   5.911  0.2817  0.2439 -0.1289
 2003W        W 3200   2.141   6.798   5.862 -0.4093 -0.0829 -0.0126
 2004W        W 3201   4.192   4.973   3.643 -0.1019  0.0499 -0.3314
 2005W        W 3202   3.046   1.696   2.003 -0.0862  0.0513  0.0847
 2006W        W 3203   4.863   6.089   5.523  0.1676  0.3618 -0.2942
 2007W        W 3204   3.265   1.743   1.529  0.2899  0.2247  0.2253
 2008W        W 3205   4.264   3.277   7.117  0.0454 -0.0082  0.0485
 2009W        W 3206   3.971   4.513   3.339  0.0704 -0.1910 -0.1680
 2010W        W 3207   3.037   0.439   1.168  0.0540 -0.1523 -0.2665
 2011W        W 3208   0.006   0.559   5.204  0.3300 -0.1124  0.1067
 2012W        W 3209   0.816   0.807   5.310  0.2227  0.2086 -0.1865
 2013W        W 3210   1.124   3.852   5.703  0.1607 -0.1693  0.1003
 2014W        W 3211   7.627   6.755   4.738  0.1613  0.0891 -0.1023
 2015W        W 3212   5.759   5.223   4.611  0.1447  0.0656  0.3122
 2016W        W 3213   3.524   5.740   0.876 -0.0738  0.2103  0.3284
 2017W        W 3214   0.069   7.230   1.544 -0.0664  0.1489 -0.1705
 2018W        W 3215   5.835   5.381   3.710  0.0798  0.1382  0.0531
 2019W        W 3216   0.144   0.692   0.444 -0.0449 -0.1023  0.1423
 2020W        W 3217   2.708   1.298   2.070  0.0653 -0.2247  0.0271
 2021W        W 3218   1.001   1.773   0.188  0.0598  0.1709  0.0717
 2022W        W 3219   1.029   1.011   4.445  0.1913 -0.0703  0.1234
 2023W        W 3220   4.504   3.021   2.188  0.0737  0.2941 -0.0941
 2024W        W 3221   1.653   2.941   2.538  0.1056 -0.3499  0.1144
 2025W        W 3222   7.447   2.504   0.331 -0.3350 -0.3635  0.0338
 2026W        W 3223   3.587   2.069   3.536 -0.1285 -0.1961  0.0604
 2027W        W 3224   0.137   5.756   3.811 -0.2324 -0.0301  0.4522
 2028W        W 3225   3.402   5.326   2.984 -0.1156  0.1777 -0.0099
 2029W        W 3226   1.936   1.476   0.728 -0.0024 -0.1193 -0.1216
 2030W        W 3227   1.845   0.407   5.365  0.3293 -0.2014  0.1704
 2031W        W 3228   7.261   4.177   3.880 -0.2054  0.1581 -0.0532
 2032W        W 3229   2.999   7.281   1.763 -0.0621  0.2290 -0.1040
 2033W        W 3230   2.256   2.658   2.541  0.0147 -0.0011  0.1305
 2034W        W 3231   1.144   1.488   2.323  0.1104  0.2204  0.0359
 2035W        W 3232   4.324   6.597   5.771  0.0962  0.0373 -0.2875
 2036W        W 3233   4.775   2.451   4.847 -0.0898 -0.0153  0.1290
 2037W        W 3234   5.439   5.741   3.728 -0.0434  0.2044 -0.1714
 2038W        W 3235   5.034   4.758   2.121  0.2262  0.0927  0.3386
 2039W        W 3236   5.963   0.686   5.134 -0.0617  0.1688 -0.0436
 2040W        W 3237   2.732   3.319   4.406 -0.0786  0.0388 -0.1041
 2041W        W 3238   2.905   4.541   0.502  0.0482 -0.1312  0.1017
 2042W        W 3239   0.283   0.340   1.787  0.2980  0.1261 -0.0986
 2043W        W 3240   4.487   7.083   5.842 -0.0667 -0.3517  0.2867
 2044W        W 3241   2.705   4.731   2.997 -0.0668  0.2760 -0.1492
 2045W        W 3242   4.359   0.197   1.662  0.2448  0.2090 -0.1634
 2046W        W 3243   1.000   0.657   4.839  0.2687 -0.0236  0.1401
 2047W        W 3244   4.032   4.414   5.872  0.3299 -0.2083 -0.0468
 2048W        W 3245   7.273   0.074   5.306 -0.1997 -0.3744  0.1920
 2049W        W 3246   3.481   2.256   6.448  0.0016 -0.1289 -0.1262
 2050W        W 3247   0.101   0.828   1.769 -0.1802  0.1361  0.3134
 2051W        W 3248   3.685   1.474   0.291  0.1959 -0.1990 -0.0796
 2052W        W 3249   2.392   2.587   4.178  0.0836 -0.2778 -0.1370
 2053W        W 3250   5.432   4.040   1.350 -0.1277  0.1018 -0.0847
 2054W        W 3251   7.640   3.406   6.494 -0.0081  0.4323  0.2460
 2055W        W 3252   0.454   1.696   3.770  0.0514  0.3390 -0.1339
 2056W        W 3253   0.457   0.156   1.227  0.0653 -0.2238 -0.2284
 2057W        W 3254   3.285   2.573   0.214  0.0251  0.1256 -0.2275
 2058W        W 3255   7.612   3.981   2.346  0.0993  0.2172  0.0451
 2059W        W 3256   4.319   4.996   4.125  0.1274 -0.0630 -0.2584
 2060W        W 3257   1.322   4.841   4.068 -0.0926 -0.0570  0.2382
 2061W        W 3258   0.961   3.562   3.326 -0.1670 -0.1410  0.1903
 2062W        W 3259   5.931   4.301   5.675  0.1930 -0.0547 -0.0779
 2063W        W 3260   0.487   4.905   4.509  0.2543 -0.0046 -0.1733
 2064W        W 3261   1.370   7.438   1.600 -0.2898  0.0358  0.1455
 2065W        W 3262   2.605   2.981   5.423 -0.4845  0.2020  0.0473
 2066W        W 3263   4.826   1.435   5.516 -0.1636 -0.3974  0.1028
 2067W        W 3264   0.414   2.758   3.864  0.1465  0.1115  0.0366
 2068W        W 3265   5.987   5.761   5.529 -0.0834 -0.1900  0.1236
 2069W        W 3266   4.891   0.919   3.367  0.1061 -0.4550 -0.1175
 2070W        W 3267   1.226   5.491   3.156  0.2986 -0.0897 -0.1922
 2071W        W 3268   5.010   3.606   5.335  0.0690  0.1399 -0.2382
 2072W        W 3269   3.554   0.487   1.137  0.0301 -0.3676  0.0586
 2073W        W 3270   6.288   2.216   6.796  0.1296  0.3521  0.0557
 2074W        W 3271   7.423   6.081   3.132  0.1551 -0.1342  0.1005
 2075W        W 3272   5.840   4.776   6.427  0.1361  0.0828  0.0573
 2076W        W 3273   3.616   6.711   4.408 -0.2647 -0.2109 -0.0173
 2077W        W 3274   3.937   3.775   5.385 -0.0761 -0.1083 -0.3934
 2078W        W 3275   1.308   0.126   4.436 -0.0450 -0.1248 -0.0574
 2079W        W 3276   1.758   1.924   6.638  0.1875 -0.0497 -0.1083
 2080W        W 3277   4.510   7.224   1.964  0.2867 -0.0597  0.1275
 2081W        W 3278   1.877   0.526   1.158  0.1845 -0.3414  0.0406
 2082W        W 3279   1.920   1.707   0.014 -0.0284  0.3138  0.1332
 2083W        W 3280   4.671   4.856   7.610  0.0509  0.0365 -0.0248
 2084W        W 3281   4.783   4.758   5.651 -0.2371 -0.0837 -0.1841
 2085W        W 3282   2.110   0.899   1.387  0.0155 -0.1448  0.2136
 2086W        W 3283   2.031   4.973   5.760  0.0422  0.1591 -0.1957
 2087W        W 3284   7.613   3.912   6.297 -0.1360 -0.4059 -0.2157
 2088W        W 3285   1.048   6.930   2.511  0.1611  0.3991  0.2537
 2089W        W 3286   0.618   3.268   1.880  0.1760 -0.2789 -0.4580
 2090W        W 3287   2.418   7.105   0.278 -0.3051 -0.0458 -0.0693
 2091W        W 3288   1.012   3.204   5.379  0.1440 -0.2524 -0.1013
 2092W        W 3289   0.028   1.469   7.160 -0.0486  0.0076 -0.0882
 2093W        W 3290   3.785   4.622   2.334 -0.0082 -0.1418 -0.0617
 2094W        W 3291   0.795   4.814   6.146 -0.2855  0.1810 -0.2003
 2095W        W 3292   5.273   0.309   5.686  0.2600  0.1719 -0.0629
 2096W        W 3293   2.759   0.710   6.599  0.1132 -0.0304 -0.1015
 2097W        W 3294   5.949   1.403   4.818 -0.0437 -0.1021  0.0868
 2098W        W 3295   4.696   5.406   6.188  0.2187 -0.4209 -0.0737
 2099W        W 3296   1.928   0.665   6.289 -0.0083  0.0020  0.0227
 2100W        W 3297   4.069   2.158   2.798  0.0296 -0.2722  0.1394
 2101W        W 3298   5.234   2.792   3.353 -0.1907 -0.1027  0.2554
 2102W        W 3299   3.966   3.115   7.477  0.0117  0.3370  0.2517
 2103W        W 3300   3.729   1.283   7.346  0.0486 -0.0891  0.2608
 2104W        W 3301   7.468   5.696   1.430 -0.1219 -0.2707 -0.1398
 2105W        W 3302   1.808   5.996   0.262 -0.0361 -0.1763  0.1830
 2106W        W 3303   3.273   0.401   0.694 -0.3750 -0.1043 -0.0284
 2107W        W 3304   5.217   5.918   1.322 -0.0739 -0.1615  0.1306
 2108W        W 3305   0.819   7.269   4.160  0.0571  0.0613 -0.1700
 2109W        W 3306   2.992   1.190   1.288  0.2992  0.0590 -0.2455
 2110W        W 3307   3.018   5.751   4.066  0.0375 -0.2235  0.0755
 2111W        W 3308   0.562   2.005   0.142 -0.0562  0.0099  0.0134
 2112W        W 3309   5.694   0.309   5.909 -0.1374  0.1339 -0.0345
 2113W        W 3310   0.551   7.255   4.605 -0.1730  0.0711 -0.0372
 2114W        W 3311   6.135   6.165   3.212 -0.0100  0.1439  0.0478
 2115W        W 3312   4.413   4.911   3.091  0.1395  0.1428 -0.0422
 2116W        W 3313   1.311   5.462   4.810 -0.2077 -0.0179  0.0172
 2117W        W 3314   0.083   1.944   5.353 -0.1597  0.1451 -0.2036
 2118W        W 3315   7.426   6.123   5.964  0.0860  0.3934 -0.0626
 2119W        W 3316   7.382   4.181   5.893  0.2544 -0.2039  0.0709
 2120W        W 3317   5.483   3.260   5.993  0.1380  0.0932 -0.0764
 2121W        W 3318   1.822   2.180   0.182  0.0039 -0.1856  0.0934
 2122W        W 3319   7.569   1.628   0.724  0.1409 -0.2305 -0.3684
 2123W        W 3320   3.453   7.479   1.923 -0.0756  0.1876 -0.1810
 2124W        W 3321   2.336   3.823   0.699 -0.1582  0.3225  0.0126
 2125W        W 3322   0.305   2.905   2.988  0.0830 -0.0043 -0.0118
 2126W        W 3323   4.067   7.027   3.100 -0.2142 -0.3271  0.1807
 2127W        W 3324   1.901   2.670   7.622  0.1958  0.1847  0.1652
 2128W        W 3325   6.185   4.059   5.997 -0.2151  0.2698  0.0099
 2129W        W 3326   5.524   2.819   4.272 -0.0140 -0.2132  0.0659
 2130W        W 3327   4.234   4.717   5.575 -0.2797 -0.0677  0.0514
 2131W        W 3328   0.658   1.062   5.742  0.0156 -0.0346  0.2783
 2132W        W 3329   5.095   4.337   3.512 -0.0739  0.2141  0.0489
 2133W        W 3330   5.422   5.707   5.023  0.0495 -0.1350 -0.2069
 2134W        W 3331   2.646   3.798   4.890 -0.1395  0.1634  0.2014
 2135W        W 3332   0.168   3.193   5.120  0.0174  0.0575  0.1960
 2136W        W 3333   6.664   5.546   1.807 -0.1098 -0.3567  0.3874
 2137W        W 3334   5.129   0.179   4.210  0.1732 -0.1331 -0.0919
 2138W        W 3335   4.296   3.454   5.321 -0.0595  0.3881 -0.3136
 2139W        W 3336   0.535   3.671   3.547  0.0557 -0.1189  0.4390
 2140W        W 3337   0.949   7.455   3.059  0.2477  0.2615  0.1142
 2141W        W 3338   0.670   7.046   7.125 -0.2426  0.0881 -0.0655
 2142W        W 3339   2.307   3.417   4.743 -0.0614 -0.0823 -0.0819
 2143W        W 3340   4.026   3.829   1.648  0.2599 -0.0603 -0.1105
 2144W        W 3341   6.268   4.636   2.131  0.0129  0.0747  0.0287
 2145W        W 3342   4.871   2.581   4.226  0.0142 -0.0803  0.0596
 2146W        W 3343   3.805   5.246   4.997 -0.0640  0.0917  0.2112
 2147W        W 3344   1.327   1.355   3.550 -0.1432 -0.2387 -0.0740
 2148W        W 3345   7.411   5.261   2.224 -0.0246 -0.2644 -0.1596
 2149W        W 3346   2.111   3.872   0.087 -0.0591  0.2666  0.2487
 2150W        W 3347   7.001   3.783   5.911 -0.0261 -0.1865  0.0516
 2151W        W 3348   7.228   7.296   2.630  0.3435  0.1706  0.0621
 2152W        W 3349   6.444   3.834   5.155 -0.2931 -0.1517 -0.2302
 2153W        W 3350   0.469   0.199   7.257  0.0750 -0.1169 -0.1184
 2154W        W 3351   4.792   6.325   7.503 -0.0583  0.2679 -0.0390
 2155W        W 3352   0.123   5.118   5.526 -0.2079  0.0757 -0.1310
 2156W        W 3353   6.904   0.794   3.465  0.3089  0.1958  0.2122
 2157W        W 3354   3.307   6.004   1.407 -0.1702  0.4091 -0.0194
 2158W        W 3355   2.937   5.216   3.019 -0.0367 -0.1127  0.0701
 2159W        W 3356   4.041   0.352   3.237  0.0204  0.4319 -0.0912
 2160W        W 3357   3.500   6.522   1.376 -0.1270 -0.0671 -0.3865
 2161W        W 3358   2.621   1.299   2.529 -0.2722  0.1742 -0.0468
 2162W        W 3359   3.918   5.201   2.266 -0.1114 -0.1346 -0.0566
 2163W        W 3360   6.760   6.462   6.934 -0.0322  0.2026 -0.1847
 2164W        W 3361   4.452   3.121   0.525 -0.2787  0.2432 -0.1395
 2165W        W 3362   2.644   2.866   7.363 -0.2824 -0.1050 -0.0041
 2166W        W 3363   5.467   3.475   1.922 -0.1104 -0.1596 -0.1214
 2167W        W 3364   2.216   3.461   4.269  0.1043  0.1319 -0.1186
 2168W        W 3365   5.881   3.890   5.012  0.1466  0.1241 -0.0606
 2169W        W 3366   0.936   4.522   5.759  0.0851 -0.1672 -0.1529
 2170W        W 3367   4.630   3.800   3.066 -0.0426  0.1455  0.4133
 2171W        W 3368   5.817   5.032   3.308  0.1596  0.2568  0.2267
 2172W        W 3369   0.806   1.291   2.071  0.0998 -0.4059  0.0828
 2173W        W 3370   5.279   0.585   2.656 -0.1698  0.0840  0.1233
 2174W        W 3371   1.547   0.103   6.544  0.2767  0.5634  0.2532
 2175W        W 3372   6.552   5.736   3.314  0.0489  0.0236 -0.3309
 2176W        W 3373   1.546   6.903   6.607 -0.3252  0.1943 -0.0885
 2177W        W 3374   7.223   5.545   6.123  0.0025  0.1094 -0.1494
 2178W        W 3375   0.367   3.379   3.959 -0.2062 -0.3582  0.1431
 2179W        W 3376   0.031   7.357   4.736  0.0296 -0.3584  0.0643
 2180W        W 3377   2.341   1.936   3.147 -0.1125 -0.1615  0.1382
 2181W        W 3378   3.207   2.578   2.859 -0.2906  0.1854  0.0132
 2182W        W 3379   4.612   1.460   0.633  0.0467 -0.3727  0.0062
 2183W        W 3380   4.553   7.145   3.203  0.2954  0.1087 -0.2926
 2184W        W 3381   3.099   5.028   7.020 -0.1007 -0.1236  0.0095
 2185W        W 3382   7.312   3.562   1.501  0.1422  0.1064  0.1054
 2186W        W 3383   0.646   1.337   4.192 -0.3030  0.0487  0.2347
 2187W        W 3384   1.291   5.747   5.400 -0.3677 -0.1533 -0.1406
 2188W        W 3385   4.269   2.700   6.981  0.1061  0.1871 -0.0334
 2189W        W 3386   1.496   1.535   2.824  0.2141  0.4167  0.0685
 2190W        W 3387   6.607   5.367   6.655  0.1845 -0.0870  0.1258
 2191W        W 3388   7.472   1.027   5.142  0.1727 -0.0417  0.1419
 2192W        W 3389   2.978   1.225   0.787  0.1740 -0.0302  0.1546
 2193W        W 3390   2.448   1.625   0.799 -0.1965 -0.0281 -0.1167
 2194W        W 3391   2.954   2.118   1.465  0.3231  0.1810 -0.1814
 2195W        W 3392   2.276   7.609   2.302 -0.0581 -0.1952  0.1007
 2196W        W 3393   2.773   0.235   0.804 -0.1478 -0.0361  0.0969
 2197W        W 3394   4.309   5.505   0.905  0.1554  0.2810  0.0912
 2198W        W 3395   0.221   0.310   4.616  0.2084  0.0165 -0.0829
 2199W        W 3396   2.601   4.237   5.821 -0.3294 -0.3820  0.1857
 2200W        W 3397   6.900   2.437   6.914 -0.0437  0.1100  0.3587
 2201W        W 3398   2.071   1.028   6.581 -0.0002  0.1315  0.0551
 2202W        W 3399   2.919   4.875   3.819 -0.2761  0.1449 -0.1576
 2203W        W 3400   6.238   3.648   3.561  0.0904 -0.0963 -0.1860
 2204W        W 3401   0.404   6.986   1.860  0.3899 -0.0900 -0.2409
 2205W        W 3402   6.391   5.621   5.224 -0.2166 -0.2446  0.0298
 2206W        W 3403   1.431   5.298   4.237  0.0251 -0.2138 -0.0513
 2207W        W 3404   0.285   2.613   5.159  0.2451  0.0583  0.0646
 2208W        W 3405   3.815   2.578   4.712  0.0767  0.1725  0.1756
 2209W        W 3406   5.423   4.930   4.913  0.2639  0.1662 -0.0929
 2210W        W 3407   7.132   3.523   4.561  0.2761 -0.0449  0.0367
 2211W        W 3408   5.853   4.663   2.408 -0.4782 -0.4441 -0.0954
 2212W        W 3409   7.571   0.933   6.176 -0.0317 -0.0615 -0.0714
 2213W        W 3410   7.546   2.984   3.311  0.2791 -0.1116 -0.1478
 2214W        W 3411   3.934   1.585   6.040  0.2284 -0.1671  0.3128
 2215W        W 3412   4.538   4.304   5.729  0.2164 -0.2538 -0.1044
 2216W        W 3413   6.725   3.432   3.745 -0.2278  0.0102 -0.2754
 2217W        W 3414   0.445   1.977   5.049 -0.0989  0.0029  0.0117
 2218W        W 3415   0.176   5.923   4.279  0.0333 -0.0071 -0.3379
 2219W        W 3416   3.812   3.028   5.916 -0.1068  0.3677 -0.1893
 2220W        W 3417   2.506   6.243   1.692 -0.2663  0.2472  0.0244
 2221W        W 3418   2.886   5.703   3.030 -0.1372  0.3101 -0.1220
 2222W        W 3419   7.221   1.074   7.152 -0.1204  0.2019 -0.1314
 2223W        W 3420   2.666   1.555   3.747  0.1593  0.0889  0.2079
 2224W        W 3421   4.568   4.881   4.569 -0.2220 -0.1586 -0.2532
 2225W        W 3422   5.464   5.505   1.709 -0.0584 -0.0703 -0.1931
 2226W        W 3423   4.166   7.501   3.241  0.2163  0.2848  0.1025
 2227W        W 3424   2.337   0.080   5.886  0.0885 -0.0797  0.2423
 2228W        W 3425   1.002   2.356   5.441 -0.0316 -0.0211  0.0069
 2229W        W 3426   1.580   4.695   5.717  0.1776  0.1594 -0.1533
 2230W        W 3427   3.896   2.391   1.381 -0.1757  0.1839 -0.1755
 2231W        W 3428   3.544   4.331   4.607  0.0708  0.0583  0.2400
 2232W        W 3429   5.301   6.605   5.507  0.0491 -0.2947  0.0362
 2233W        W 3430   3.170   1.311   2.261 -0.2255  0.3255 -0.1753
 2234W        W 3431   1.821   6.800   5.467  0.1631  0.0694  0.3908
 2235W        W 3432   3.601   6.821   2.305  0.0176 -0.1457 -0.0443
 2236W        W 3433   2.532   6.734   5.495 -0.2351 -0.0682 -0.0949
 2237W        W 3434   0.396   7.501   3.662  0.0464  0.0927 -0.0722
 2238W        W 3435   0.650   0.035   2.119 -0.1869  0.1179 -0.1963
 2239W        W 3436   2.826   6.789   7.511  0.1082 -0.3356 -0.3568
 2240W        W 3437   7.360   1.205   4.679  0.0491  0.2240  0.0555
 2241W        W 3438   6.494   4.056   2.624  0.2139 -0.2229  0.0532
 2242W        W 3439   0.798   6.514   2.774 -0.0219 -0.0678  0.3832
 2243W        W 3440   5.463   4.533   2.019 -0.0554 -0.0816  0.1081
 2244W        W 3441   3.933   4.614   6.389 -0.2058  0.0198 -0.1357
 2245W        W 3442   4.220   1.132   0.811 -0.0316  0.0581  0.2066
 2246W        W 3443   2.814   7.070   1.283  0.2761  0.2120 -0.0385
 2247W        W 3444   1.589   5.699   1.681  0.0251 -0.0673  0.0783
 2248W        W 3445   5.765   0.563   6.378  0.1824 -0.0715 -0.0485
 2249W        W 3446   4.573   5.659   5.196 -0.1933 -0.0046 -0.0764
 2250W        W 3447   3.641   7.620   5.546  0.0849  0.0595  0.0644
 2251W        W 3448   6.714   3.216   5.975 -0.2169 -0.3921  0.0357
 2252W        W 3449   5.066   6.032   6.374 -0.2563  0.2299 -0.2699
 2253W        W 3450   7.268   7.148   4.519  0.0668 -0.0138 -0.1642
 2254W        W 3451   6.952   6.117   0.796 -0.1637  0.1308  0.0033
 2255W        W 3452   2.915   1.261   4.822  0.0607  0.0526  0.1226
 2256W        W 3453   3.356   5.389   4.942  0.0225  0.0071  0.2230
 2257W        W 3454   3.438   7.654   4.530 -0.1012 -0.1187 -0.1232
 2258W        W 3455   3.528   0.177   2.298 -0.1137 -0.2372  0.0058
 2259W        W 3456   3.271   0.714   6.614  0.0625 -0.0934  0.3239
 2260W        W 3457   4.518   6.653   3.869  0.3331  0.0551 -0.1841
 2261W        W 3458   0.876   3.032   1.563 -0.5132  0.1844  0.0796
 2262W        W 3459   6.040   2.702   5.970  0.0710 -0.0025 -0.2942
 2263W        W 3460   5.035   2.206   2.399  0.3073 -0.0317 -0.1130
 2264W        W 3461   5.493   6.118   4.031  0.1784  0.4295  0.0847
 2265W        W 3462   1.531   4.591   0.814  0.2258  0.3955  0.2096
 2266W        W 3463   3.561   2.756   0.638 -0.0496  0.3101  0.0532
 2267W        W 3464   4.775   0.197   5.069 -0.1593 -0.3331 -0.1492
 2268W        W 3465   0.899   3.629   6.079 -0.0320 -0.0663  0.0446
 2269W        W 3466   5.629   0.334   2.480 -0.0132 -0.0969  0.0761
 2270W        W 3467   4.801   0.295   2.569  0.1940 -0.2693 -0.0751
 2271W        W 3468   5.417   3.545   1.421 -0.1729  0.0096  0.1204
 2272W        W 3469   7.433   6.389   5.101  0.2357 -0.0697  0.0796
 2273W        W 3470   4.907   6.678   5.818  0.1239  0.4632 -0.2617
 2274W        W 3471   0.195   5.335   6.696 -0.1380 -0.2780  0.1948
 2275W        W 3472   1.178   4.184   2.112 -0.2664  0.1011  0.0865
 2276W        W 3473   1.923   1.766   3.415  0.0206  0.4540  0.3397
 2277W        W 3474   3.605   5.028   2.617 -0.1610  0.2570 -0.1232
 2278W        W 3475   4.406   0.988   5.723  0.0756 -0.0942 -0.2006
 2279W        W 3476   3.528   4.296   3.155 -0.3471 -0.0226 -0.1875
 2280W        W 3477   5.602   3.891   5.875 -0.2794  0.4726  0.3759
 2281W        W 3478   4.633   2.283   1.417  0.3057 -0.2609  0.2877
 2282W        W 3479   3.895   6.543   3.588  0.1765  0.1798  0.1760
 2283W        W 3480   3.498   6.232   7.632  0.0316  0.0481  0.0258
 2284W        W 3481   1.843   3.759   0.776 -0.1302  0.1624  0.1722
 2285W        W 3482   6.603   3.624   2.388 -0.3045  0.0979 -0.2380
 2286W        W 3483   6.722   0.400   3.666  0.0566  0.1550 -0.0139
 2287W        W 3484   0.731   3.480   0.321  0.2323 -0.2086  0.0912
 2288W        W 3485   2.628   1.009   5.186 -0.1324 -0.1175  0.0756
 2289W        W 3486   2.892   1.934   5.294 -0.3570 -0.0844  0.0659
 2290W        W 3487   4.857   3.420   0.144 -0.5042 -0.2939 -0.2437
 2291W        W 3488   1.171   1.005   3.934 -0.2998  0.1774 -0.0883
 2292W        W 3489   1.602   0.610   6.684  0.0394 -0.1060  0.1360
 2293W        W 3490   2.940   6.916   3.177  0.2504  0.0001 -0.0090
 2294W        W 3491   1.136   0.899   0.335  0.1182  0.2438 -0.1500
 2295W        W 3492   0.925   2.343   5.918  0.1700 -0.0293 -0.1426
 2296W        W 3493   3.103   6.867   2.736  0.2222  0.4024  0.1929
 2297W        W 3494   1.019   1.916   2.141  0.0549  0.0893  0.1756
 2298W        W 3495   2.646   4.272   2.559  0.0984  0.2299  0.4669
 2299W        W 3496   0.250   1.802   6.340  0.1017 -0.3053 -0.1607
 2300W        W 3497   2.815   5.337   3.885 -0.1118  0.2690  0.0436
 2301W        W 3498   3.080   3.418   4.014 -0.1577  0.0033  0.2084
 2302W        W 3499   7.013   3.381   2.569 -0.2997 -0.1215  0.0414
 2303W        W 3500   3.176   5.826   4.615  0.4159  0.0817 -0.2884
 2304W        W 3501   4.964   3.243   2.108  0.2486  0.1244 -0.3950
 2305W        W 3502   3.571   1.752   6.411  0.0946  0.1552  0.1529
 2306W        W 3503   0.615   7.550   5.880  0.0020  0.2478 -0.2530
 2307W        W 3504   3.376   4.240   6.486  0.0065  0.0394  0.1651
 2308W        W 3505   0.906   4.530   7.069  0.0257  0.1064  0.3821
 2309W        W 3506   3.094   0.741   4.001  0.0711  0.0447  0.1431
 2310W        W 3507   1.305   3.909   1.496  0.2538  0.2110 -0.0023
 2311W        W 3508   4.661   0.020   7.397  0.0486 -0.0879 -0.0692
 2312W        W 3509   6.363   2.919   6.235 -0.1596  0.0716 -0.1640
 2313W        W 3510   2.709   7.013   4.533  0.3319  0.0971 -0.4139
 2314W        W 3511   3.401   5.791   2.852  0.1921  0.0735  0.3323
 2315W        W 3512   5.025   1.523   4.994 -0.1827 -0.2871 -0.2121
 2316W        W 3513   0.533   4.518   1.968 -0.2256  0.0698 -0.0767
 2317W        W 3514   6.225   0.928   6.391  0.0350 -0.0237 -0.0927
 2318W        W 3515   0.942   2.107   2.596 -0.0551 -0.0138 -0.2372
 2319W        W 3516   3.659   3.212   2.671  0.0101 -0.4462 -0.0869
 2320W        W 3517   4.370   1.574   3.785 -0.0029  0.3930  0.1258
 2321W        W 3518   3.953   1.058   0.398  0.1532 -0.0811 -0.0511
 2322W        W 3519   5.530   3.361   4.181 -0.1390  0.0803  0.0781
 2323W        W 3520   6.109   7.596   2.604 -0.0606 -0.0304  0.0942
 2324W        W 3521   2.798   4.667   5.589 -0.0052 -0.3065 -0.1563
 2325W        W 3522   5.530   2.852   4.979 -0.1881 -0.1876  0.1450
 2326W        W 3523   3.590   7.576   7.193 -0.3402 -0.1911  0.0702
 2327W        W 3524   7.604   2.372   0.892 -0.0987  0.1386  0.0642
 2328W        W 3525   1.206   4.954   4.536 -0.0241 -0.2134 -0.1180
 2329W        W 3526   1.576   4.224   1.237 -0.1124 -0.3898 -0.5245
 2330W        W 3527   1.905   4.126   2.034 -0.1528  0.1382 -0.4785
 2331W        W 3528   1.236   3.115   2.938  0.0680 -0.1352  0.0575
 2332W        W 3529   2.611   1.016   1.702  0.1417  0.0432  0.0289
 2333W        W 3530   4.026   7.074   2.618  0.0312  0.2153  0.1014
 2334W        W 3531   1.124   2.154   4.949 -0.1122 -0.1928  0.2267
 2335W        W 3532   2.883   4.237   6.864 -0.1570  0.0203 -0.4060
 2336W        W 3533   2.772   2.012   5.828 -0.1404 -0.1484 -0.0590
 2337W        W 3534   6.191   5.489   1.867  0.1372  0.0318 -0.0452
 2338W        W 3535   7.621   6.785   2.950 -0.1789  0.1139  0.1993
 2339W        W 3536   0.988   5.893   4.612 -0.1880  0.1584  0.3405
 2340W        W 3537   4.689   6.436   2.481  0.0387 -0.1049  0.0564
 2341W        W 3538   3.179   2.307   3.529  0.1523 -0.1712  0.0973
 2342W        W 3539   3.947   4.951   7.434 -0.2594 -0.1143 -0.1170
 2343W        W 3540   3.341   6.549   0.596  0.0832 -0.2624  0.1300
 2344W        W 3541   1.635   0.130   0.892  0.1886  0.0496 -0.1561
 2345W        W 3542   2.785   1.469   7.580 -0.1022 -0.1812 -0.0141
 2346W        W 3543   0.185   6.678   2.157 -0.0800  0.0142 -0.1859
 2347W        W 3544   1.494   3.039   5.310 -0.1706  0.2728 -0.0409
 2348W        W 3545   2.153   5.834   3.347  0.2370 -0.1879 -0.1433
 2349W        W 3546   4.679   3.747   4.927 -0.0890  0.1296  0.1205
 2350W        W 3547   2.370   1.113   0.748  0.1198 -0.1836 -0.0288
 2351W        W 3548   1.088   3.835   6.526 -0.0540 -0.1350  0.3025
 2352W        W 3549   7.535   6.940   1.154  0.2566  0.0681 -0.0756
 2353W        W 3550   2.091   6.269   6.371 -0.0353  0.1095 -0.0649
 2354W        W 3551   3.908   3.912   3.899  0.0479  0.0191 -0.0302
 2355W        W 3552   7.319   6.923   3.639 -0.0452 -0.1046  0.0224
 2356W        W 3553   0.966   4.475   3.398  0.0527  0.2811 -0.0977
 2357W        W 3554   1.432   1.605   1.884  0.0860  0.6856 -0.0783
 2358W        W 3555   3.561   4.310   5.132  0.0863 -0.1584  0.0025
 2359W        W 3556   5.179   2.059   4.777 -0.0965  0.1680 -0.4328
 2360W        W 3557   0.399   0.765   4.936  0.0760  0.2198  0.1223
 2361W        W 3558   4.696   7.497   4.056  0.0597  0.1072 -0.2474
 2362W        W 3559   2.741   1.998   6.437 -0.0367  0.0860 -0.0876
 2363W        W 3560   2.230   6.744   1.971  0.1570  0.0236 -0.1683
 2364W        W 3561   1.779   5.592   5.866  0.1784  0.1758  0.0755
 2365W        W 3562   5.028   0.634   1.785  0.1025 -0.1716 -0.1368
 2366W        W 3563   2.972   2.231   4.836  0.0135 -0.1012  0.2599
 2367W        W 3564   3.722   3.107   1.001  0.0188  0.0663 -0.0811
 2368W        W 3565   4.947   5.226   1.832 -0.0178  0.2668  0.1339
 2369W        W 3566   0.855   3.259   0.858  0.0225  0.3033 -0.2125
 2370W        W 3567   5.046   5.308   4.981  0.0233 -0.0039 -0.2504
 2371W        W 3568   7.445   4.023   5.390 -0.1573  0.1059  0.0173
 2372W        W 3569   7.508   3.128   2.828  0.1223 -0.0094 -0.2435
 2373W        W 3570   7.380   5.158   6.419  0.4356 -0.0463 -0.2989
 2374W        W 3571   7.515   1.514   3.819 -0.1102 -0.0999 -0.1751
 2375W        W 3572   2.910   2.462   6.086  0.1170 -0.0276 -0.1873
 2376W        W 3573   1.587   0.035   0.261 -0.2319  0.4358  0.0667
 2377W        W 3574   0.183   2.366   2.827 -0.3906  0.1648  0.0675
 2378W        W 3575   4.474   6.016   0.201 -0.0084 -0.3115  0.1044
 2379W        W 3576   3.546   2.878   3.063 -0.0706  0.2041 -0.2499
 2380W        W 3577   5.307   3.099   3.691  0.0152 -0.0965  0.2418
 2381W        W 3578   5.565   1.470   6.065  0.2888  0.0748  0.0554
 2382W        W 3579   0.004   4.470   3.768 -0.1852  0.1175 -0.1314
 2383W        W 3580   6.169   3.388   5.297  0.0528  0.0628 -0.2198
 2384W        W 3581   0.508   3.679   1.000 -0.2606  0.1965 -0.1826
 2385W        W 3582   4.276   2.273   1.034 -0.0794 -0.0183  0.1035
 2386W        W 3583   3.985   1.521   5.051  0.0918 -0.0850 -0.1766
 2387W        W 3584   6.344   5.392   3.565 -0.0995 -0.3713 -0.1972
 2388W        W 3585   0.031   2.764   6.460 -0.2785  0.3924  0.1064
 2389W        W 3586   2.326   3.750   1.698 -0.1908 -0.0255  0.0082
 2390W        W 3587   3.443   3.733   7.559  0.2041 -0.1978 -0.1104
 2391W        W 3588   7.329   6.186   1.694  0.0465  0.1040 -0.0865
 2392W        W 3589   5.776   1.107   5.183  0.0157  0.1051  0.0614
 2393W        W 3590   7.553   0.968   6.688 -0.3957 -0.1617 -0.2806
 2394W        W 3591   3.597   2.910   5.086  0.1393  0.1502  0.0417
 2395W        W 3592   5.777   0.349   4.761 -0.0080 -0.0763  0.0726
 2396W        W 3593   6.517   2.115   4.955 -0.0674 -0.0684 -0.2492
 2397W        W 3594   6.885   5.036   6.302 -0.1088 -0.3230 -0.2524
 2398W        W 3595   2.760   5.584   6.782 -0.3109  0.0673  0.0662
 2399W        W 3596   5.068   6.642   4.527 -0.3879  0.3014  0.2597
 2400W        W 3597   4.116   6.108   3.289 -0.1233 -0.0388  0.2301
 2401W        W 3598   3.132   7.550   0.486  0.2888 -0.2347 -0.1080
 2402W        W 3599   2.292   3.893   5.619 -0.1799  0.1571  0.0041
 2403W        W 3600   1.727   5.596   5.094 -0.1236  0.0541  0.0376
 2404W        W 3601   0.961   5.584   4.151  0.2199 -0.0949  0.0273
 2405W        W 3602   1.290   5.317   6.806  0.0763 -0.0992  0.2537
 2406W        W 3603   2.014   4.077   3.435 -0.1934  0.0719 -0.2893
 2407W        W 3604   2.368   4.509   3.374  0.2190  0.2613  0.1541
 2408W        W 3605   6.998   4.363   5.709  0.1331 -0.1983  0.0481
 2409W        W 3606   4.584   3.100   6.683 -0.2156  0.2823 -0.3006
 2410W        W 3607   0.259   7.359   0.561 -0.4373 -0.0956  0.0773
 2411W        W 3608   4.152   5.439   5.986 -0.0575 -0.1079 -0.3422
 2412W        W 3609   2.244   5.177   1.710  0.2566  0.2718 -0.0210
 2413W        W 3610   5.767   2.384   6.365  0.1621  0.1123  0.2751
 2414W        W 3611   0.776   2.468   4.085 -0.2212 -0.1964 -0.0563
 2415W        W 3612   0.183   4.918   6.433  0.0726  0.2400  0.0113
 2416W        W 3613   1.269   2.930   3.679  0.1996  0.1359  0.1106
 2417W        W 3614   5.120   5.646   2.073  0.0303 -0.1347 -0.0450
 2418W        W 3615   1.756   4.651   4.824 -0.0455  0.1105  0.0179
 2419W        W 3616   1.535   0.189   5.752  0.1489 -0.2689  0.1155
 2420W        W 3617   6.022   5.897   2.290 -0.0648 -0.2586  0.0961
 2421W        W 3618   0.155   1.620   0.167 -0.2384  0.2394  0.1378
 2422W        W 3619   4.347   7.060   4.094 -0.2626  0.1798 -0.2710
 2423W        W 3620   6.891   5.679   5.243 -0.0641 -0.0022  0.0148
 2424W        W 3621   5.379   2.988   1.991  0.0895  0.1147 -0.0801
 2425W        W 3622   5.419   3.467   3.273  0.3228 -0.0251  0.0665
 2426W        W 3623   7.271   5.618   2.867 -0.3609 -0.2804 -0.1516
 2427W        W 3624   5.755   6.758   2.776 -0.1205  0.0747 -0.0306
 2428W        W 3625   0.139   7.215   2.983 -0.1268 -0.0352 -0.1500
 2429W        W 3626   6.183   6.425   3.692  0.0043  0.0736  0.2868
 2430W        W 3627   1.530   1.287   4.205  0.2850 -0.1907  0.1653
 2431W        W 3628   2.893   3.557   1.359  0.3614 -0.0459 -0.0040
 2432W        W 3629   2.288   1.195   5.502  0.0790  0.0197 -0.0634
 2433W        W 3630   2.042   3.073   2.174 -0.2182 -0.0264 -0.1110
 2434W        W 3631   4.611   3.797   6.057 -0.1210  0.0431  0.0621
 2435W        W 3632   4.863   3.471   0.740  0.2414 -0.0967 -0.1153
 2436W        W 3633   4.558   1.733   7.033 -0.0603 -0.1177  0.0967
 2437W        W 3634   0.626   1.093   6.763  0.0629  0.2311  0.1902
 2438W        W 3635   5.020   4.152   4.936  0.0151 -0.0805  0.2176
 2439W        W 3636   5.646   6.290   3.092  0.2253 -0.0309  0.0718
 2440W        W 3637   0.831   5.495   2.208 -0.0588 -0.1460  0.2638
 2441W        W 3638   4.580   5.684   4.160 -0.0677  0.0179 -0.2368
 2442W        W 3639   3.290   5.339   3.879 -0.0163  0.1069  0.2067
 2443W        W 3640   3.520   1.212   5.996  0.0514  0.2316 -0.1362
 2444W        W 3641   2.975   0.000   3.064  0.0559  0.0127 -0.0169
 2445W        W 3642   7.019   1.199   4.266 -0.0249 -0.2336 -0.1427
 2446W        W 3643   2.499   1.294   1.194 -0.2491 -0.2832 -0.1110
 2447W        W 3644   1.370   0.259   1.344  0.0570  0.1115 -0.1249
 2448W        W 3645   4.275   6.250   6.972  0.0164 -0.0308  0.4393
 2449W        W 3646   1.129   1.125   7.114  0.1785  0.1523 -0.2912
 2450W        W 3647   4.301   0.938   1.255  0.0655 -0.0014 -0.3359
 2451W        W 3648   4.322   0.643   3.598 -0.1701  0.1367  0.0903
 2452W        W 3649   5.183   3.691   4.341  0.0789  0.0782 -0.0346
 2453W        W 3650   6.088   0.606   5.994 -0.0323 -0.1610 -0.2998
 2454W        W 3651   0.538   1.657   4.578  0.1387  0.1733  0.0366
 2455W        W 3652   0.576   1.691   3.262  0.2512 -0.1346  0.1205
 2456W        W 3653   0.332   4.359   5.296  0.1376  0.1409  0.2309
 2457W        W 3654   1.615   7.303   4.296  0.1399  0.1368 -0.2453
 2458W        W 3655   0.762   1.943   4.163  0.0556  0.3949 -0.1546
 2459W        W 3656   2.720   1.088   0.289 -0.1840 -0.2167 -0.1210
 2460W        W 3657   2.464   7.037   3.061  0.0494 -0.0400  0.1691
 2461W        W 3658   1.068   1.613   0.744  0.1457 -0.0998 -0.0721
 2462W        W 3659   3.793   4.069   7.505  0.0365  0.0397 -0.1368
 2463W        W 3660   1.664   2.263   0.694  0.1704  0.0896 -0.3029
 2464W        W 3661   2.413   4.642   1.302 -0.0148  0.1998  0.0666
 2465W        W 3662   0.554   0.100   0.659 -0.0789 -0.2737  0.2937
 2466W        W 3663   4.867   0.183   6.457  0.3085 -0.0781 -0.0788
 2467W        W 3664   1.919   6.984   0.374 -0.2333  0.1927 -0.0908
 2468W        W 3665   3.013   5.222   5.461 -0.1162 -0.2600  0.0406
 2469W        W 3666   4.673   5.344   3.024  0.0922 -0.1580 -0.0166
 2470W        W 3667   5.849   2.280   5.849 -0.3461  0.0699 -0.1002
 2471W        W 3668   5.415   6.796   3.288  0.4283  0.0876 -0.4096
 2472W        W 3669   7.172   0.643   6.880  0.1708  0.2144 -0.0486
 2473W        W 3670   5.367   7.268   5.852  0.0280  0.0858  0.0235
 2474W        W 3671   4.600   4.419   4.746  0.1219  0.0146 -0.4351
 2475W        W 3672   1.776   6.407   2.126  0.2605  0.1163 -0.1554
 2476W        W 3673   4.355   4.444   4.305  0.1111  0.0194  0.0328
 2477W        W 3674   2.337   1.787   4.366 -0.2123  0.0441  0.2839
 2478W        W 3675   1.294   3.427   3.849 -0.1677  0.2080 -0.2373
 2479W        W 3676   4.040   4.279   5.406  0.2723  0.2276  0.1248
 2480W        W 3677   4.265   2.269   0.227  0.1054  0.0457  0.2010
 2481W        W 3678   1.575   6.393   4.565  0.0602 -0.0883 -0.1579
 2482W        W 3679   2.878   6.264   3.924  0.1058 -0.0388  0.0325
 2483W        W 3680   2.313   7.255   5.606  0.0251  0.1706 -0.1569
 2484W        W 3681   5.051   7.048   6.190 -0.2222  0.1414 -0.0726
 2485W        W 3682   4.539   2.454   1.909  0.2259  0.2168  0.3379
 2486W        W 3683   6.145   4.415   3.818 -0.2315 -0.0228  0.0011
 2487W        W 3684   3.513   7.554   3.969  0.2576 -0.3145  0.0190
 2488W        W 3685   0.911   4.392   2.827  0.2768  0.0861  0.0025
 2489W        W 3686   4.138   3.172   4.415  0.0936  0.1423  0.0523
 2490W        W 3687   0.660   0.744   7.129 -0.3348  0.3754  0.0165
 2491W        W 3688   0.137   2.197   0.106 -0.0925  0.1027  0.1283
 2492W        W 3689   7.174   5.613   1.865 -0.3102 -0.0466 -0.0601
 2493W        W 3690   2.181   2.656   7.191  0.1660  0.1300  0.0952
 2494W        W 3691   5.210   1.596   4.545 -0.0802  0.0776 -0.0983
 2495W        W 3692   3.948   6.504   4.733 -0.0737 -0.0979  0.2105
 2496W        W 3693   2.780   6.606   6.529  0.0112  0.1728 -0.2468
 2497W        W 3694   2.560   3.619   0.291 -0.1133  0.2210  0.0140
 2498W        W 3695   3.107   6.384   1.065  0.0711  0.3055  0.2753
 2499W        W 3696   6.518   4.361   5.181 -0.2567 -0.0800 -0.3486
 2500W        W 3697   4.715   1.741   2.577  0.0517  0.0670 -0.0726
 2501W        W 3698   1.388   2.555   1.029 -0.1651  0.2517  0.1270
 2502W        W 3699   3.765   5.884   1.361 -0.0943  0.0125 -0.1244
 2503W        W 3700   1.615   6.094   6.404  0.1073  0.0717 -0.2531
 2504W        W 3701   1.136   0.554   4.222  0.0798  0.1097  0.4850
 2505W        W 3702   2.302   0.084   6.404  0.1596 -0.0350  0.4674
 2506W        W 3703   0.525   6.307   2.353  0.1598 -0.0010 -0.0793
 2507W        W 3704   7.617   5.299   1.765 -0.0709 -0.2901 -0.1162
 2508W        W 3705   3.000   7.342   4.822  0.1154  0.0277 -0.1295
 2509W        W 3706   1.804   0.848   2.993 -0.0233 -0.0222  0.0751
 2510W        W 3707   7.066   0.618   5.926 -0.0473  0.0596 -0.2354
 2511W        W 3708   1.287   0.495   5.256 -0.0962 -0.3171  0.2113
 2512W        W 3709   1.247   3.703   2.050 -0.2344  0.0364  0.0925
 2513W        W 3710   5.519   6.692   5.019 -0.0331 -0.1266  0.0748
 2514W        W 3711   3.091   0.362   2.136  0.1138 -0.0751  0.1529
 2515W        W 3712   6.287   1.995   5.429 -0.0350  0.0493  0.1361
 2516W        W 3713   1.766   3.883   5.642 -0.0077  0.1028 -0.2778
 2517W        W 3714   2.015   1.366   1.185  0.1364  0.1420  0.2099
 2518W        W 3715   4.888   1.106   4.669 -0.0350 -0.0657 -0.0335
 2519W        W 3716   4.577   3.830   7.000  0.1380 -0.3275  0.0541
 2520W        W 3717   2.642   5.985   5.003 -0.1855  0.1195 -0.2557
 2521W        W 3718   7.180   4.005   4.893 -0.0842  0.1357  0.2098
 2522W        W 3719   4.272   3.986   4.578  0.0981 -0.0611 -0.1536
 2523W        W 3720   2.359   1.963   5.546 -0.2078 -0.2235 -0.1234
 2524W        W 3721   0.350   3.203   6.742  0.1580 -0.2181  0.1834
 2525W        W 3722   1.220   2.963   0.764  0.2406  0.0929  0.1022
 2526W        W 3723   2.794   5.659   5.385  0.0302 -0.0175  0.0071
 2527W        W 3724   1.990   6.450   1.662 -0.0272 -0.2560  0.0710
 2528W        W 3725   4.238   1.683   2.671  0.2711 -0.0032 -0.2347
 2529W        W 3726   1.608   4.024   7.497 -0.2274 -0.0659 -0.0032
 2530W        W 3727   6.630   5.995   5.494 -0.1439 -0.0966 -0.2939
 2531W        W 3728   3.989   0.618   5.583 -0.1046 -0.0012  0.0862
 2532W        W 3729   2.832   4.888   0.859 -0.3154  0.3404  0.0448
 2533W        W 3730   7.187   5.376   4.959 -0.0822  0.0130 -0.1733
 2534W        W 3731   5.094   4.974   4.555  0.1585  0.0381 -0.0114
 2535W        W 3732   4.120   4.468   4.776 -0.2194 -0.0205 -0.0546
 2536W        W 3733   1.306   4.275   5.511 -0.0094 -0.0978 -0.0488
 2537W        W 3734   3.652   4.596   4.142 -0.0245  0.2284  0.1710
 2538W        W 3735   1.433   5.988   4.903  0.3120 -0.1217 -0.0825
 2539W        W 3736   6.130   5.244   4.968  0.0033  0.1679  0.2746
 2540W        W 3737   7.261   4.448   2.611  0.3162 -0.3527  0.0580
 2541W        W 3738   3.937   6.110   1.794  0.0450  0.0290  0.2556
 2542W        W 3739   0.977   2.782   7.503 -0.2902  0.0145 -0.2604
 2543W        W 3740   1.948   3.098   7.215 -0.0441 -0.1774  0.0160
 2544W        W 3741   3.053   0.747   1.614 -0.1716 -0.2456  0.3963
 2545W        W 3742   2.505   4.771   0.336 -0.2989  0.1119 -0.1123
 2546W        W 3743   0.612   3.012   4.307 -0.0448  0.1246 -0.2421
 2547W        W 3744   3.435   2.610   1.203 -0.0034 -0.1627 -0.3504
 2548W        W 3745   1.072   1.485   4.003 -0.1930 -0.0344 -0.1949
 2549W        W 3746   4.815   4.691   0.742 -0.1957  0.1855  0.1612
 2550W        W 3747   3.167   2.114   2.484 -0.1135  0.1628  0.0281
 2551W        W 3748   2.632   4.111   1.211  0.0555  0.0416  0.0026
 2552W        W 3749   7.405   3.899   1.882  0.2203 -0.2878 -0.5099
 2553W        W 3750   1.807   4.573   2.260 -0.1771  0.0833 -0.1368
 2554W        W 3751   7.476   2.678   4.651 -0.0677 -0.0647 -0.3058
 2555W        W 3752   4.706   6.036   7.067  0.0511 -0.0974  0.1358
 2556W        W 3753   1.793   3.840   1.579  0.5075 -0.1053 -0.2404
 2557W        W 3754   0.336   0.968   5.377  0.2145 -0.2193  0.1091
 2558W        W 3755   5.698   1.113   3.876  0.1260 -0.0782  0.1919
 2559W        W 3756   3.002   6.929   7.042  0.1027 -0.2435  0.0404
 2560W        W 3757   6.835   6.457   1.686  0.0264 -0.0839 -0.1558
 2561W        W 3758   2.935   0.433   6.142 -0.2700 -0.1076 -0.3174
 2562W        W 3759   2.557   1.937   0.334 -0.0259  0.0701  0.1202
 2563W        W 3760   6.792   1.423   5.678  0.2239 -0.0202  0.1254
 2564W        W 3761   7.251   4.707   4.732  0.4606 -0.1848 -0.2152
 2565W        W 3762   4.769   5.112   0.411  0.0390 -0.2709  0.0967
 2566W        W 3763   3.456   3.761   3.763 -0.0907 -0.0551 -0.0022
 2567W        W 3764   2.325   7.238   2.598 -0.0311  0.2053 -0.1026
 2568W        W 3765   4.301   1.891   1.418 -0.2667  0.1094  0.1597
 2569W        W 3766   5.344   2.303   5.677 -0.1819  0.1276 -0.0595
 2570W        W 3767   0.150   6.945   3.397  0.2070 -0.1702 -0.1746
 2571W        W 3768   0.450   5.368   3.916  0.0762  0.0249 -0.2451
 2572W        W 3769   3.496   1.911   4.263  0.1652  0.1771 -0.1801
 2573W        W 3770   5.886   7.116   4.995  0.1239 -0.0996  0.2249
 2574W        W 3771   0.975   3.771   0.632  0.4610 -0.1654  0.1722
 2575W        W 3772   4.148   1.997   5.270 -0.3333 -0.1308 -0.1766
 2576W        W 3773   2.666   2.076   3.990  0.0640  0.1698  0.0309
 2577W        W 3774   6.919   1.472   4.730 -0.0064  0.0027 -0.0596
 2578W        W 3775   4.716   3.874   3.561 -0.0754  0.1132  0.6207
 2579W        W 3776   3.108   1.638   3.376  0.0465  0.1325  0.2055
 2580W        W 3777   5.417   6.740   4.165  0.0260 -0.1501 -0.1955
 2581W        W 3778   1.753   7.521   1.983 -0.1556  0.0590 -0.0375
 2582W        W 3779   5.232   5.468   7.384 -0.0908  0.0053 -0.1311
 2583W        W 3780   1.637   3.418   7.442  0.5765  0.1203 -0.1243
 2584W        W 3781   0.709   2.048   0.682 -0.1587  0.1413 -0.1523
 2585W        W 3782   3.954   1.533   3.473  0.1365  0.0475  0.0213
 2586W        W 3783   2.792   0.918   2.895 -0.0086  0.0008 -0.1275
 2587W        W 3784   4.535   0.685   1.622  0.0831  0.1771  0.6176
 2588W        W 3785   0.903   5.023   4.963 -0.4495 -0.2081  0.0976
 2589W        W 3786   3.289   5.600   3.356  0.1769  0.2407  0.1386
 2590W        W 3787   3.854   6.470   7.317 -0.0606  0.3816 -0.0913
 2591W        W 3788   3.617   0.630   3.156  0.2460 -0.0182 -0.3151
 2592W        W 3789   4.335   1.626   5.707 -0.0669  0.0812  0.2800
 2593W        W 3790   5.800   2.603   5.436  0.1416  0.1076  0.0055
 2594W        W 3791   3.019   3.817   0.131  0.6465  0.4276 -0.4840
 2595W        W 3792   3.865   2.516   6.755  0.2006  0.2432  0.0428
 2596W        W 3793   1.852   4.771   6.164  0.0960  0.0120 -0.1133
 2597W        W 3794   0.582   4.187   2.395  0.1089 -0.2108 -0.1722
 2598W        W 3795   2.168   0.782   5.212  0.1432  0.0084 -0.1126
 2599W        W 3796   0.919   3.600   1.663  0.0106 -0.2026 -0.2723
 2600W        W 3797   0.117   0.230   0.851 -0.0277 -0.1812  0.2185
 2601W        W 3798   1.773   6.094   1.410 -0.1181 -0.0395  0.0238
 2602W        W 3799   7.625   1.833   4.855  0.0493 -0.3203 -0.0633
 2603W        W 3800   7.483   5.789   6.527 -0.0492  0.2146 -0.0831
 2604W        W 3801   0.937   2.163   3.247  0.1853  0.0755 -0.0968
 2605W        W 3802   2.183   3.350   0.926 -0.0284  0.0902 -0.1839
 2606W        W 3803   3.588   0.754   6.191 -0.0351 -0.0343  0.0521
 2607W        W 3804   3.708   3.415   4.936 -0.2449  0.0410  0.0560
 2608W        W 3805   5.704   4.847   3.774 -0.0714  0.0547  0.0652
 2609W        W 3806   3.914   1.751   2.248 -0.2450 -0.0039 -0.3465
 2610W        W 3807   1.250   7.085   7.410 -0.0943  0.0269  0.1407
 2611W        W 3808   4.896   0.406   6.036 -0.0821  0.1544 -0.1371
 2612W        W 3809   7.105   1.017   5.453 -0.0153 -0.2132 -0.1062
 2613W        W 3810   6.734   1.927   5.746  0.0152 -0.1129  0.1329
 2614W        W 3811   1.186   6.581   1.367  0.0661 -0.3009  0.2029
 2615W        W 3812   4.266   5.748   2.907 -0.0457  0.0294  0.0044
 2616W        W 3813   5.485   4.666   4.430  0.1537  0.2356 -0.0567
 2617W        W 3814   1.005   0.791   0.775  0.0955 -0.0467  0.0024
 2618W        W 3815   3.981   2.586   5.735  0.0349  0.0407 -0.1075
 2619W        W 3816   1.921   1.229   4.576  0.0983  0.1322  0.0527
 2620W        W 3817   0.888   1.533   6.868  0.2412 -0.0270  0.0933
 2621W        W 3818   3.932   3.054   5.414 -0.0562  0.0846 -0.0589
 2622W        W 3819   6.818   1.740   5.301  0.1538 -0.0144  0.0939
 2623W        W 3820   4.814   3.385   3.488 -0.1762 -0.0710 -0.1417
 2624W        W 3821   1.406   3.781   6.115 -0.0267 -0.2624  0.3064
 2625W        W 3822   4.112   4.503   0.007  0.1346  0.0144  0.0145
 2626W        W 3823   7.318   6.551   6.965  0.1784  0.0852  0.0378
 2627W        W 3824   2.666   0.435   2.884 -0.1281  0.0782 -0.0792
 2628W        W 3825   2.575   5.214   0.567 -0.0637  0.0608  0.1045
 2629W        W 3826   3.462   4.800   3.657 -0.1007  0.0252 -0.2350
 2630W        W 3827   0.842   6.566   5.222 -0.2575  0.1076 -0.0360
 2631W        W 3828   3.644   6.036   4.960 -0.1149 -0.2817 -0.2870
 2632W        W 3829   1.303   3.613   7.118  0.1132  0.3804 -0.0037
 2633W        W 3830   4.422   3.364   6.226 -0.0427  0.3532  0.1438
 2634W        W 3831   4.839   4.238   3.091 -0.0850  0.1257 -0.3445
 2635W        W 3832   6.485   6.694   6.615 -0.2104  0.3229  0.0165
 2636W        W 3833   4.909   4.546   2.651  0.0865  0.0620 -0.0833
 2637W        W 3834   1.148   1.910   6.668  0.0965  0.0606 -0.1146
 2638W        W 3835   0.604   5.819   2.583  0.0428  0.1124  0.0028
 2639W        W 3836   0.332   5.447   4.366 -0.0509  0.1386 -0.0955
 2640W        W 3837   2.031   4.110   2.512 -0.0314  0.0510 -0.1475
 2641W        W 3838   1.149   6.473   2.288  0.3648  0.1356 -0.1028
 2642W        W 3839   2.262   5.463   6.676  0.0828 -0.0745  0.1999
 2643W        W 3840   1.411   4.249   6.468 -0.1673 -0.0895 -0.2367
 2644W        W 3841   2.258   4.838   4.510  0.0003  0.0946  0.0733
 2645W        W 3842   1.972   2.654   3.713 -0.2968 -0.2367 -0.0106
 2646W        W 3843   2.503   3.887   3.466  0.0258  0.1146 -0.0214
 2647W        W 3844   2.778   0.774   2.326  0.0116 -0.2663  0.3800
 2648W        W 3845   2.156   2.426   5.310 -0.0392 -0.1986  0.3452
 2649W        W 3846   3.869   7.538   7.616 -0.0847  0.1026  0.0038
 2650W        W 3847   6.928   6.054   2.050  0.1322 -0.0090  0.3876
 2651W        W 3848   5.441   1.186   4.818 -0.3625 -0.3806 -0.2083
 2652W        W 3849   3.638   0.415   5.302 -0.1969  0.0480  0.0762
 2653W        W 3850   2.593   7.554   0.441  0.0244 -0.2111  0.2156
 2654W        W 3851   2.185   5.440   0.841  0.0957  0.0475 -0.1816
 2655W        W 3852   1.559   0.437   7.596 -0.3227 -0.0051 -0.0775
 2656W        W 3853   3.646   4.277   3.702 -0.2391  0.0023  0.2092
 2657W        W 3854   0.449   1.209   1.387  0.0151 -0.2439  0.2182
 2658W        W 3855   2.456   0.696   4.772  0.1687 -0.1810 -0.0045
 2659W        W 3856   0.254   0.102   6.222  0.2307  0.1705  0.0130
 2660W        W 3857   1.236   4.148   0.270  0.1153 -0.2629 -0.2288
 2661W        W 3858   0.245   1.919   4.264  0.0918  0.3417  0.1066
 2662W        W 3859   3.595   4.582   7.362  0.2026  0.3219 -0.0249
 2663W        W 3860   3.074   0.300   6.603  0.3551  0.3355  0.2691
 2664W        W 3861   1.512   6.213   2.556 -0.0733  0.0831  0.3931
 2665W        W 3862   5.155   5.167   2.686 -0.0729 -0.1164 -0.3816
 2666W        W 3863   6.219   5.522   4.030  0.1621  0.0231  0.2461
 2667W        W 3864   6.039   1.902   4.930 -0.1682 -0.3750  0.2141
 2668W        W 3865   1.919   3.835   5.149 -0.0135 -0.1335  0.0252
 2669W        W 3866   5.416   0.282   5.203  0.1731  0.1717 -0.0693
 2670W        W 3867   6.769   7.550   5.763  0.1850 -0.2133  0.0662
 2671W        W 3868   7.275   2.675   4.149 -0.2460 -0.0349 -0.2130
 2672W        W 3869   5.285   3.675   4.910 -0.3299  0.1366  0.1729
 2673W        W 3870   2.488   7.171   1.727  0.1324  0.1677 -0.1808
 2674W        W 3871   0.169   6.174   5.468  0.3279 -0.1195  0.0648
 2675W        W 3872   3.110   5.466   2.615  0.4532  0.0248 -0.0787
 2676W        W 3873   7.541   5.452   4.113 -0.3248 -0.1714  0.0006
 2677W        W 3874   3.536   0.153   3.471  0.2569 -0.3900 -0.1151
 2678W        W 3875   0.086   6.672   3.825 -0.3727  0.0227 -0.0064
 2679W        W 3876   1.046   5.424   2.710 -0.2961 -0.0816 -0.2557
 2680W        W 3877   4.064   6.745   6.613  0.0567 -0.0146 -0.1344
 2681W        W 3878   1.929   1.495   6.830  0.2352 -0.0489 -0.0727
 2682W        W 3879   0.388   2.105   1.219  0.0766  0.3839 -0.0069
 2683W        W 3880   7.455   0.920   0.047 -0.0631 -0.0051 -0.0965
 2684W        W 3881   5.756   2.128   5.352  0.3782 -0.4650 -0.2610
 2685W        W 3882   7.196   3.575   6.386 -0.2241  0.3129  0.3611
 2686W        W 3883   3.581   5.627   0.310  0.0577  0.4145  0.1352
 2687W        W 3884   7.606   7.466   7.318 -0.1377 -0.2027  0.1145
 2688W        W 3885   1.622   1.375   7.374 -0.0446  0.0187 -0.0026
 2689W        W 3886   5.809   4.520   3.397 -0.0694 -0.0050  0.0968
 2690W        W 3887   2.334   1.802   2.652 -0.2697  0.2305 -0.0372
 2691W        W 3888   0.305   7.459   4.198 -0.1631 -0.1965  0.0264
 2692W        W 3889   2.738   3.674   0.941 -0.0468 -0.4254  0.0495
 2693W        W 3890   5.918   4.062   3.545  0.0784  0.0847 -0.2626
 2694W        W 3891   1.240   2.062   7.125  0.3045  0.1679  0.0837
 2695W        W 3892   4.522   6.887   6.734  0.2475 -0.1839 -0.0120
 2696W        W 3893   3.651   3.700   5.851  0.1296 -0.2302  0.2080
 2697W        W 3894   1.977   5.968   1.893  0.5215 -0.3190 -0.1274
 2698W        W 3895   3.616   0.769   2.449 -0.1511 -0.2778  0.2222
 2699W        W 3896   3.246   1.020   3.166 -0.4147 -0.0109  0.1626
 2700W        W 3897   4.458   1.927   4.170 -0.5797 -0.3283 -0.1717
 2701W        W 3898   3.598   2.615   3.488  0.0192  0.3086  0.1204
 2702W        W 3899   3.036   7.385   3.757  0.0597  0.2474 -0.0366
 2703W        W 3900   1.096   5.029   3.191 -0.0244  0.2173 -0.3210
 2704W        W 3901   3.108   1.227   5.714 -0.1836  0.0421  0.2196
 2705W        W 3902   2.021   5.490   2.059 -0.0268 -0.1486  0.1887
 2706W        W 3903   5.326   4.254   2.977 -0.2813 -0.0109  0.2104
 2707W        W 3904   6.704   0.498   4.283  0.1661 -0.3197 -0.0590
 2708W        W 3905   2.371   7.196   3.639 -0.3629  0.1554  0.0308
 2709W        W 3906   4.177   4.887   5.090  0.2606 -0.1554  0.1602
 2710W        W 3907   3.033   7.443   0.956 -0.1938  0.5002 -0.2397
 2711W        W 3908   1.955   7.123   4.606 -0.0232  0.2787 -0.1442
 2712W        W 3909   3.874   3.996   4.913 -0.0658 -0.2126  0.0730
 2713W        W 3910   2.089   3.657   6.616  0.0789 -0.0098  0.0467
 2714W        W 3911   1.661   1.018   7.033  0.0994 -0.2723 -0.0524
 2715W        W 3912   5.123   4.739   1.125  0.1037  0.1393 -0.0514
 2716W        W 3913   5.392   0.986   3.217  0.0605 -0.0345 -0.0548
 2717W        W 3914   2.761   1.699   2.947  0.0624 -0.2030  0.2332
 2718W        W 3915   7.398   3.076   1.637 -0.2525 -0.1490 -0.0526
 2719W        W 3916   4.952   2.818   5.053 -0.1705 -0.2560 -0.0001
 2720W        W 3917   0.337   1.287   3.357 -0.3657  0.0267 -0.0170
 2721W        W 3918   4.739   5.238   6.690 -0.1870 -0.2482  0.2906
 2722W        W 3919   3.974   0.578   0.173  0.0037 -0.1922 -0.4177
 2723W        W 3920   6.985   4.266   3.393  0.1681  0.0846 -0.0450
 2724W        W 3921   4.650   3.379   5.748 -0.0861 -0.2247 -0.0326
 2725W        W 3922   4.195   7.182   6.444 -0.2050  0.1071  0.2520
 2726W        W 3923   4.288   4.075   0.198  0.0837 -0.2579 -0.0425
 2727W        W 3924   1.972   1.260   5.059 -0.2379 -0.3307  0.0337
 2728W        W 3925   7.612   6.421   1.114 -0.0786 -0.1159 -0.1267
 2729W        W 3926   4.176   5.346   5.364  0.1971 -0.2133 -0.0527
 2730W        W 3927   4.113   0.873   6.110 -0.3050 -0.1499 -0.1324
 2731W        W 3928   7.159   2.698   3.357  0.1339 -0.2220  0.1673
 2732W        W 3929   3.730   6.788   0.965 -0.0165  0.0084 -0.0019
 2733W        W 3930   5.799   4.946   1.978  0.0380  0.0071 -0.1630
 2734W        W 3931   0.786   2.925   2.798 -0.0806 -0.1004  0.0048
 2735W        W 3932   4.567   4.545   5.251  0.0246  0.0373  0.1423
 2736W        W 3933   4.114   0.981   2.157  0.0106 -0.1906 -0.1408
 2737W        W 3934   7.218   6.128   1.209 -0.1514 -0.0562 -0.1246
 2738W        W 3935   3.699   5.729   5.909 -0.2173  0.1624 -0.1961
 2739W        W 3936   2.414   0.371   1.431  0.1922  0.1002  0.0768
 2740W        W 3937   1.044   6.079   2.743 -0.0924  0.1472  0.2442
 2741W        W 3938   3.952   1.239   4.608  0.0459  0.1500 -0.0691
 2742W        W 3939   0.102   3.545   3.287  0.3073  0.0906  0.1129
 2743W        W 3940   0.489   5.815   5.161 -0.2013 -0.1716  0.3068
 2744W        W 3941   0.962   6.073   5.117 -0.0733  0.3242  0.0289
 2745W        W 3942   2.093   6.359   5.534 -0.0311  0.1603 -0.0725
 2746W        W 3943   1.264   2.065   0.918 -0.1367  0.1329 -0.2429
 2747W        W 3944   6.112   5.806   6.006  0.2439  0.0930 -0.1856
 2748W        W 3945   2.683   4.261   4.649 -0.1979  0.1814 -0.1119
 2749W        W 3946   1.777   7.192   5.141 -0.1247  0.0321 -0.0814
 2750W        W 3947   7.575   3.279   3.727  0.2515  0.1459 -0.3306
 2751W        W 3948   5.262   0.505   3.455  0.2166  0.1202  0.4306
 2752W        W 3949   3.418   4.063   4.202 -0.0993  0.2113 -0.2531
 2753W        W 3950   6.350   5.972   2.793 -0.0764  0.0749 -0.1566
 2754W        W 3951   2.583   4.586   6.574 -0.1387 -0.1764 -0.3367
 2755W        W 3952   2.849   5.912   2.547  0.3117 -0.2473 -0.3495
 2756W        W 3953   5.711   3.358   5.073 -0.2338 -0.1307  0.2372
 2757W        W 3954   7.653   3.927   4.701  0.1064  0.1606  0.2406
 2758W        W 3955   0.367   2.159   3.267  0.2483  0.1307 -0.1506
 2759W        W 3956   4.667   2.749   6.328  0.1780 -0.0707 -0.0589
 2760W        W 3957   3.235   1.201   6.603 -0.1083 -0.2271  0.0083
 2761W        W 3958   1.032   6.816   0.123 -0.0036 -0.5312  0.0600
 2762W        W 3959   1.572   2.139   2.013 -0.1321  0.1131  0.1305
 2763W        W 3960   7.110   0.703   4.449  0.1667 -0.1177  0.3263
 2764W        W 3961   0.800   7.081   6.622  0.0454 -0.2592 -0.0232
 2765W        W 3962   7.481   7.529   6.216 -0.1951 -0.1313  0.0305
 2766W        W 3963   1.877   3.428   2.557 -0.3473 -0.0796 -0.2180
 2767W        W 3964   6.003   1.405   6.292  0.2632 -0.0023 -0.3962
 2768W        W 3965   3.805   7.037   7.448 -0.0371  0.2451 -0.0939
 2769W        W 3966   6.305   1.027   4.338  0.0224  0.0375 -0.1479
 2770W        W 3967   4.210   5.461   6.516 -0.0519  0.1538  0.1938
 2771W        W 3968   5.184   3.587   3.798  0.0703 -0.0858 -0.1861
 2772W        W 3969   0.858   1.025   7.555 -0.2704 -0.1472 -0.3874
 2773W        W 3970   4.409   5.038   6.922 -0.1876  0.2746  0.1275
 2774W        W 3971   6.696   7.241   2.644  0.3346 -0.0730  0.1276
 2775W        W 3972   1.142   0.579   5.817 -0.2548 -0.0885 -0.2369
 2776W        W 3973   4.509   5.168   5.756 -0.0361  0.1959 -0.3328
 2777W        W 3974   1.028   1.147   4.954 -0.0662 -0.2555  0.1743
 2778W        W 3975   0.210   6.991   4.330 -0.4224 -0.3400 -0.1336
 2779W        W 3976   3.107   0.915   6.140  0.0476 -0.0495 -0.2270
 2780W        W 3977   2.233   4.346   4.412  0.1391 -0.0828  0.1641
 2781W        W 3978   1.320   3.841   4.777 -0.0844 -0.1665  0.1468
 2782W        W 3979   0.735   2.168   4.620 -0.2947 -0.0203 -0.3241
 2783W        W 3980   6.747   2.275   4.078 -0.0168  0.0929 -0.0019
 2784W        W 3981   5.458   0.048   3.836  0.3329  0.2001  0.1933
 2785W        W 3982   3.777   2.436   0.121 -0.1144  0.1404  0.0583
 2786W        W 3983   4.434   7.040   0.326 -0.0988 -0.1103  0.1253
 2787W        W 3984   4.229   3.544   0.341 -0.0994  0.0366  0.0117
 2788W        W 3985   7.251   2.008   5.442 -0.1705 -0.1201 -0.1961
 2789W        W 3986   7.276   7.456   5.787 -0.0987 -0.3719  0.2365
 2790W        W 3987   3.353   1.769   0.720 -0.0345  0.0031  0.0182
 2791W        W 3988   0.724   7.379   0.351  0.1678 -0.1185 -0.1102
 2792W        W 3989   5.094   7.553   5.343 -0.2569  0.2448  0.2107
 2793W        W 3990   5.348   3.212   2.441 -0.0702  0.2154  0.0108
 2794W        W 3991   0.290   1.841   7.379  0.0244 -0.1450 -0.3368
 2795W        W 3992   2.173   1.323   4.076 -0.1705 -0.0905  0.2736
 2796W        W 3993   3.641   1.960   6.852 -0.1235 -0.0406 -0.1443
 2797W        W 3994   2.572   7.276   0.905  0.0950 -0.1769 -0.1009
 2798W        W 3995   2.293   5.690   4.861  0.2439 -0.0590  0.0711
 2799W        W 3996   0.470   6.434   0.885 -0.0821  0.1324  0.2746
 2800W        W 3997   2.489   0.162   0.028  0.2252 -0.3212  0.1774
 2801W        W 3998   2.225   3.082   7.647 -0.0840 -0.3091  0.0784
 2802W        W 3999   1.878   4.689   1.180 -0.0409  0.0745  0.1254
 2803W        W 4000   7.025   4.965   5.102 -0.0678  0.4158  0.0475
 2804W        W 4001   0.724   5.842   3.699  0.2847  0.1928  0.3712
 2805W        W 4002   1.959   5.286   3.568  0.0775  0.1855 -0.1332
 2806W        W 4003   0.208   6.923   7.269  0.0637  0.2654  0.0225
 2807W        W 4004   1.471   1.033   5.035  0.1133 -0.1274  0.0194
 2808W        W 4005   7.121   7.606   3.340 -0.0064  0.2087 -0.0836
 2809W        W 4006   4.452   1.586   5.170 -0.0521  0.0746 -0.1677
 2810W        W 4007   3.333   5.380   5.929  0.1837  0.2282  0.0394
 2811W        W 4008   7.277   1.526   5.083  0.1100  0.1000  0.0837
 2812W        W 4009   0.759   1.855   7.309 -0.2181 -0.1049  0.1691
 2813W        W 4010   5.145   6.996   4.965  0.0371 -0.2475  0.1873
 2814W        W 4011   2.483   4.503   0.802 -0.2580 -0.3664  0.1700
 2815W        W 4012   6.277   1.185   5.383  0.0393  0.2884  0.1866
 2816W        W 4013   5.420   1.881   3.118  0.0214 -0.2264  0.1524
 2817W        W 4014   1.234   0.153   2.842 -0.0384  0.0264  0.1057
 2818W        W 4015   4.902   6.902   1.011 -0.1210 -0.1002 -0.2501
 2819W        W 4016   5.656   4.715   5.379 -0.1504  0.0146  0.1587
 2820W        W 4017   7.032   2.794   2.513  0.0375  0.2391 -0.0390
 2821W        W 4018   3.197   7.646   7.558 -0.2743 -0.1128 -0.3529
 2822W        W 4019   7.457   0.996   4.175  0.1407 -0.0617  0.0204
 2823W        W 4020   4.414   6.030   1.511 -0.1358 -0.1263  0.0971
 2824W        W 4021   1.238   2.386   2.276 -0.0788 -0.0883 -0.2196
 2825W        W 4022   4.637   7.020   1.432  0.1216 -0.0363 -0.0508
 2826W        W 4023   4.692   0.074   0.288 -0.1598  0.1169  0.2785
 2827W        W 4024   1.851   2.824   1.561 -0.0111  0.0719 -0.2586
 2828W        W 4025   0.342   3.412   4.641 -0.2784  0.3433 -0.0487
 2829W        W 4026   3.114   3.003   2.573  0.0769 -0.3683  0.1699
 2830W        W 4027   0.373   7.415   7.107 -0.0227 -0.2707 -0.0146
 2831W        W 4028   4.171   1.144   2.631  0.2183  0.0628  0.0035
 2832W        W 4029   2.973   5.330   1.102  0.2862  0.2526  0.1818
 2833W        W 4030   1.586   1.823   4.831 -0.2969  0.1903 -0.2306
 2834W        W 4031   2.152   2.183   4.102  0.0018  0.1029  0.1787
 2835W        W 4032   2.240   6.919   5.173  0.1272  0.2109  0.0323
 2836W        W 4033   5.216   4.219   4.473  0.2550 -0.0151  0.1453
 2837W        W 4034   5.703   5.845   2.754  0.1379  0.1033  0.2162
 2838W        W 4035   1.484   2.036   5.354 -0.0194 -0.1934 -0.0594
 2839W        W 4036   3.724   1.691   4.626 -0.2258  0.1200 -0.0995
 2840W        W 4037   1.835   4.905   3.974  0.2593 -0.4201  0.2322
 2841W        W 4038   2.746   5.250   1.789  0.1461  0.2019  0.0894
 2842W        W 4039   2.572   2.618   3.351  0.0295 -0.0505  0.1043
 2843W        W 4040   0.692   4.063   6.741 -0.0792  0.0258  0.6214
 2844W        W 4041   5.190   6.294   5.869 -0.1362  0.0128  0.0391
 2845W        W 4042   3.732   5.109   1.469  0.0132 -0.0536 -0.0938
 2846W        W 4043   0.281   3.652   6.995  0.0886 -0.1389 -0.2812
 2847W        W 4044   4.744   0.976   6.172 -0.0341  0.0402 -0.1808
 2848W        W 4045   1.342   7.596   7.415 -0.1811  0.0313  0.1203
 2849W        W 4046   3.554   1.663   2.704 -0.0712 -0.1848  0.2639
 2850W        W 4047   4.181   7.088   3.567  0.0339  0.1492  0.0394
 2851W        W 4048   1.102   0.608   1.839 -0.1746 -0.3107 -0.2014
 2852W        W 4049   0.254   3.602   5.458  0.1302 -0.2043  0.2299
 2853W        W 4050   1.327   6.954   1.023 -0.1018 -0.2438 -0.3443
 2854W        W 4051   2.284   0.881   3.281 -0.0535 -0.1365 -0.1718
 2855W        W 4052   4.634   4.448   1.177 -0.3804  0.2789 -0.1152
 2856W        W 4053   1.536   4.308   6.023 -0.1330 -0.0558 -0.0741
 2857W        W 4054   4.093   2.816   1.963  0.5218  0.0067  0.0587
 2858W        W 4055   5.902   5.872   1.752  0.1112 -0.1726 -0.0236
 2859W        W 4056   5.250   2.783   5.460 -0.1949 -0.0188  0.3553
 2860W        W 4057   4.049   0.967   3.240  0.0719  0.0322  0.0599
 2861W        W 4058   2.065   6.714   2.484 -0.1022  0.0533  0.0978
 2862W        W 4059   3.811   3.472   7.058  0.3682 -0.2148 -0.1546
 2863W        W 4060   4.445   0.279   4.072 -0.1397 -0.0652  0.0373
 2864W        W 4061   3.637   6.729   6.939 -0.1790 -0.0115  0.0607
 2865W        W 4062   3.075   4.292   2.869  0.0382 -0.2673 -0.0980
 2866W        W 4063   5.260   6.090   2.723 -0.0464 -0.2916  0.0110
 2867W        W 4064   4.896   5.029   4.104 -0.0599 -0.0917 -0.2046
 2868W        W 4065   7.490   3.803   3.616 -0.0106 -0.2701 -0.2138
 2869W        W 4066   0.668   0.325   5.061  0.0119  0.0761  0.1691
 2870W        W 4067   2.494   5.187   1.282 -0.0657 -0.2162  0.1563
 2871W        W 4068   2.731   7.607   1.434  0.4032 -0.2170  0.1553
 2872W        W 4069   2.080   5.349   2.551 -0.0171 -0.0433 -0.0128
 2873W        W 4070   2.828   4.942   7.609  0.1667  0.0790 -0.1553
 2874W        W 4071   4.887   2.941   0.313 -0.0967 -0.1988  0.0208
 2875W        W 4072   2.829   6.134   6.862 -0.1044 -0.0995 -0.2209
 2876W        W 4073   0.698   2.775   5.481 -0.0973  0.1693 -0.1393
 2877W        W 4074   6.525   2.683   4.742  0.1467 -0.0772  0.2604
 2878W        W 4075   2.954   0.757   4.753 -0.2472  0.0112 -0.2221
 2879W        W 4076   0.273   2.721   6.960 -0.1601 -0.0377  0.3645
 2880W        W 4077   1.011   4.855   3.705  0.2511  0.0139  0.0012
 2881W        W 4078   3.800   6.277   2.293 -0.1433 -0.0729  0.2799
 2882W        W 4079   7.034   7.241   5.409  0.2469  0.0300 -0.0214
 2883W        W 4080   2.729   5.167   4.335 -0.0002  0.0345  0.1623
 2884W        W 4081   5.729   0.737   3.490  0.1863 -0.0115  0.0956
 2885W        W 4082   3.480   0.506   1.842 -0.2724  0.2069  0.3510
 2886W        W 4083   5.736   0.657   5.559  0.1575 -0.2698 -0.5569
 2887W        W 4084   3.912   7.002   6.019 -0.0979  0.1880 -0.0325
 2888W        W 4085   4.324   3.445   0.861 -0.0132 -0.1818  0.1172
 2889W        W 4086   4.010   6.483   6.119  0.2331 -0.0282 -0.0743
 2890W        W 4087   3.806   3.751   4.479  0.0312 -0.1587 -0.0363
 2891W        W 4088   0.608   1.456   0.007 -0.0971  0.1458  0.0872
 2892W        W 4089   0.298   0.667   6.623 -0.2957 -0.0163 -0.3392
 2893W        W 4090   0.862   5.793   3.077 -0.1161  0.0170  0.3486
 2894W        W 4091   2.136   0.522   5.789  0.1899  0.0245 -0.2921
 2895W        W 4092   5.306   0.042   6.115  0.0399 -0.1836 -0.1854
 2896W        W 4093   0.302   1.598   1.004 -0.1051 -0.1264  0.1337
 2897W        W 4094   0.375   0.533   5.581  0.1700  0.0017 -0.4477
 2898W        W 4095   4.351   5.022   6.377  0.3156 -0.0018 -0.0971
 2899W        W 4096   3.659   0.932   5.067  0.0409 -0.4082 -0.1511
 2900W        W 4097   6.346   6.693   5.880  0.4585  0.0580  0.2700
 2901W        W 4098   1.938   0.923   0.753 -0.2695  0.0424  0.1743
 2902W        W 4099   0.594   6.659   4.195 -0.1969  0.4241  0.1059
 2903W        W 4100   0.857   3.058   3.345  0.1800 -0.2398  0.1081
 2904W        W 4101   0.640   0.630   4.505  0.0886 -0.1056  0.0811
 2905W        W 4102   4.525   0.475   2.067 -0.0160 -0.0055 -0.0987
 2906W        W 4103   2.591   6.340   7.541  0.3944 -0.4466 -0.0496
 2907W        W 4104   4.102   0.982   7.578 -0.0325 -0.0791 -0.2406
 2908W        W 4105   3.713   3.456   0.224 -0.0169  0.0261 -0.2703
 2909W        W 4106   0.456   4.052   6.268 -0.0190  0.1237 -0.1826
 2910W        W 4107   0.985   2.977   0.348 -0.0942  0.1909 -0.0158
 2911W        W 4108   0.262   2.274   3.766 -0.0994 -0.1064 -0.0558
 2912W        W 4109   3.139   3.408   1.845 -0.1719  0.2543  0.2656
 2913W        W 4110   1.356   0.946   6.095  0.1056 -0.2061 -0.0812
 2914W        W 4111   3.445   2.798   5.537  0.2196 -0.0771 -0.0479
 2915W        W 4112   1.503   6.791   3.689  0.2022  0.2844 -0.2536
 2916W        W 4113   0.912   6.970   4.959  0.0124 -0.0822 -0.1568
 2917W        W 4114   0.152   5.563   6.098 -0.2080 -0.3223  0.1121
 2918W        W 4115   4.811   7.625   2.035 -0.1971 -0.2751 -0.0246
 2919W        W 4116   4.653   7.378   6.255 -0.1703 -0.3381 -0.1846
 2920W        W 4117   3.406   0.135   6.266  0.3157  0.3638  0.4147
 2921W        W 4118   0.458   6.412   1.841  0.0098 -0.1782  0.0168
 2922W        W 4119   7.040   5.651   5.685 -0.1704 -0.2042  0.1532
 2923W        W 4120   3.690   1.842   1.182 -0.1309  0.0724 -0.1836
 2924W        W 4121   5.392   5.056   7.083 -0.1238  0.3876  0.2157
 2925W        W 4122   1.495   1.479   5.256  0.1239  0.2698 -0.1982
 2926W        W 4123   7.491   7.027   0.621 -0.0632  0.0964  0.0259
 2927W        W 4124   3.068   1.797   3.846 -0.0431  0.0691 -0.1823
 2928W        W 4125   1.412   3.290   3.343  0.1430 -0.1180 -0.1695
 2929W        W 4126   3.766   5.771   6.640  0.3119  0.1500 -0.2061
 2930W        W 4127   5.672   3.070   3.306 -0.0535  0.1057 -0.2657
 2931W        W 4128   0.368   5.767   6.550 -0.0866 -0.0282  0.2204
 2932W        W 4129   0.922   0.405   0.464  0.2463 -0.0766  0.0222
 2933W        W 4130   4.782   5.384   7.632  0.1510  0.1803  0.1040
 2934W        W 4131   0.124   3.832   1.351 -0.0428  0.1230  0.1182
 2935W        W 4132   2.384   1.869   7.545  0.0610  0.1228 -0.0056
 2936W        W 4133   4.208   6.204   3.775  0.0751  0.1020 -0.2432
 2937W        W 4134   6.788   4.394   2.442  0.4954 -0.0667  0.2113
 2938W        W 4135   3.587   6.911   2.893 -0.1687 -0.2576 -0.1571
 2939W        W 4136   2.757   1.137   7.022  0.0486 -0.0918 -0.0204
 2940W        W 4137   3.667   1.365   4.217 -0.3864 -0.1526 -0.0402
 2941W        W 4138   6.763   0.361   5.528  0.1393  0.0353  0.1873
 2942W        W 4139   0.215   4.045   5.707  0.1009 -0.0547  0.0301
 2943W        W 4140   3.191   2.228   3.987 -0.1432  0.3225 -0.2934
 2944W        W 4141   3.236   6.205   4.314  0.3701 -0.0683 -0.0560
 2945W        W 4142   6.463   5.132   2.614 -0.0233  0.0525  0.1093
 2946W        W 4143   4.757   0.265   5.560 -0.2581 -0.0643  0.1740
 2947W        W 4144   1.902   0.800   2.467 -0.2882 -0.0271 -0.0521
 2948W        W 4145   3.411   0.546   4.848 -0.1246 -0.0712 -0.3410
 2949W        W 4146   6.865   6.481   2.275  0.0144 -0.1275 -0.2729
 2950W        W 4147   4.390   3.727   6.575 -0.0256 -0.1204 -0.2792
 2951W        W 4148   0.006   6.817   5.249 -0.0186  0.1974  0.2008
 2952W        W 4149   3.424   7.207   6.961  0.0264 -0.1272 -0.1022
 2953W        W 4150   0.095   1.231   0.470 -0.2301 -0.1542 -0.0500
 2954W        W 4151   4.504   0.798   2.554  0.1310 -0.3528  0.0384
 2955W        W 4152   1.334   3.351   6.577  0.0746 -0.3461 -0.1113
 2956W        W 4153   2.783   3.746   6.024 -0.0889 -0.2419 -0.3584
 2957W        W 4154   2.677   5.906   0.220  0.1397 -0.0823  0.0327
 2958W        W 4155   1.460   1.230   0.606  0.1086  0.2238 -0.2175
 2959W        W 4156   3.092   3.150   5.469  0.0342 -0.0581  0.3862
 2960W        W 4157   2.026   6.913   6.840  0.0682  0.0571  0.2745
 2961W        W 4158   5.591   7.109   5.416 -0.0057 -0.1003  0.1836
 2962W        W 4159   2.500   4.313   1.690  0.5145 -0.1600 -0.0013
 2963W        W 4160   0.581   0.310   3.582 -0.0431 -0.0511  0.1671
 2964W        W 4161   3.707   4.417   0.283  0.0152  0.1962 -0.0330
 2965W        W 4162   3.823   2.154   4.912 -0.0840 -0.1074  0.0959
 2966W        W 4163   1.197   1.295   1.404 -0.2186 -0.1445 -0.1342
 2967W        W 4164   3.686   3.408   1.769 -0.0052  0.3433 -0.1211
 2968W        W 4165   0.353   3.822   2.631 -0.0750 -0.1549  0.0891
 2969W        W 4166   4.518   0.503   6.409  0.0274  0.0066 -0.3788
 2970W        W 4167   7.201   7.038   6.209  0.1433 -0.1347 -0.0563
 2971W        W 4168   3.099   6.149   3.305  0.1266  0.0263 -0.3021
 2972W        W 4169   2.320   3.511   6.183 -0.1041  0.1396  0.0326
 2973W        W 4170   4.530   2.018   0.623 -0.2464 -0.0451  0.1976
 2974W        W 4171   2.757   0.755   0.729  0.1483  0.0713 -0.0914
 2975W        W 4172   0.503   5.751   4.685  0.0535  0.1685 -0.2914
 2976W        W 4173   6.860   3.628   5.012  0.0882  0.2628  0.2734
 2977W        W 4174   0.990   0.236   7.192  0.4277 -0.0732 -0.0953
 2978W        W 4175   7.220   0.085   0.029 -0.1855  0.2843 -0.0352
 2979W        W 4176   4.208   6.380   0.881 -0.0282 -0.1771  0.2358
 2980W        W 4177   4.571   4.516   3.395  0.0771 -0.0474 -0.0254
 2981W        W 4178   1.038   0.361   2.426 -0.1401 -0.2276 -0.0894
 2982W        W 4179   5.034   6.729   1.611 -0.1870 -0.0136  0.2589
 2983W        W 4180   2.273   5.569   5.814  0.0247  0.1429  0.1452
 2984W        W 4181   6.084   5.183   2.293 -0.0302 -0.1557  0.0015
 2985W        W 4182   1.927   2.087   5.613 -0.1100  0.2353  0.2624
 2986W        W 4183   5.390   0.577   3.966  0.0295 -0.0278  0.1348
 2987W        W 4184   2.572   3.103   2.318  0.1118  0.1567  0.1604
 2988W        W 4185   3.815   5.683   3.167  0.3677 -0.2163  0.0886
 2989W        W 4186   5.699   3.954   3.100  0.0991 -0.3497 -0.0993
 2990W        W 4187   4.952   5.567   5.491  0.0033  0.0509 -0.0697
 2991W        W 4188   2.654   4.722   2.375  0.1516 -0.0267  0.0075
 2992W        W 4189   4.577   2.786   2.915  0.0718  0.1021 -0.2635
 2993W        W 4190   2.335   2.303   6.684  0.0503  0.0909 -0.1803
 2994W        W 4191   3.162   6.973   5.772 -0.3872  0.0723 -0.2175
 2995W        W 4192   5.410   2.426   5.129 -0.5019  0.0564 -0.0970
 2996W        W 4193   6.884   0.486   4.826 -0.2153  0.0791  0.1406
 2997W        W 4194   2.487   6.363   2.170  0.0367  0.2208 -0.1471
 2998W        W 4195   3.941   6.530   3.049 -0.0120  0.0840  0.2412
 2999W        W 4196   4.360   4.105   5.081  0.0048  0.1892  0.1514
 3000W        W 4197   4.125   6.081   5.134 -0.0378 -0.3100 -0.4836
 3001W        W 4198   3.824   3.454   4.071 -0.0371 -0.2917 -0.1312
 3002W        W 4199   1.023   0.784   6.739 -0.2477 -0.1312  0.1069
 3003W        W 4200   1.135   7.654   5.403  0.1285 -0.2123 -0.1661
 3004W        W 4201   3.614   0.416   3.898 -0.1935 -0.0655 -0.0680
 3005W        W 4202   3.751   7.290   1.077  0.1184  0.0487 -0.2036
 3006W        W 4203   5.874   0.025   5.116 -0.4726 -0.2158 -0.2667
 3007W        W 4204   5.183   5.298   5.861  0.1533 -0.2187 -0.4013
 3008W        W 4205   1.873   1.271   2.675 -0.0855  0.2750 -0.1893
 3009W        W 4206   6.723   1.069   6.130  0.2150  0.1810 -0.0717
 3010W        W 4207   4.382   7.590   4.479  0.1681  0.1024  0.2389
 3011W        W 4208   2.379   5.882   6.200  0.0022  0.2712 -0.0034
 3012W        W 4209   3.346   0.589   7.446 -0.1370 -0.0745  0.1657
 3013W        W 4210   3.862   3.426   3.584  0.0695 -0.1458 -0.0339
 3014W        W 4211   4.175   3.511   4.797  0.0512 -0.0512  0.2379
 3015W        W 4212   3.150   2.882   7.539 -0.1358 -0.0197 -0.1644
 3016W        W 4213   1.147   0.298   6.685 -0.2760 -0.0152 -0.0983
 3017W        W 4214   2.189   5.015   2.973 -0.1588 -0.1078 -0.1269
 3018W        W 4215   6.827   6.741   4.895 -0.0585  0.0094  0.0295
 3019W        W 4216   2.339   0.277   4.239 -0.3676  0.2730 -0.2554
 3020W        W 4217   4.428   0.049   5.963  0.0975  0.1403 -0.1953
 3021W        W 4218   5.223   4.441   1.541  0.2035  0.1911  0.0141
 3022W        W 4219   1.909   5.700   6.375 -0.0774 -0.1284  0.0270
 3023W        W 4220   1.075   3.959   5.197  0.0048 -0.0238 -0.2238
 3024W        W 4221   3.228   2.562   2.244 -0.1570  0.1643 -0.1325
 3025W        W 4222   2.584   4.069   4.192 -0.0352  0.0061  0.1636
 3026W        W 4223   7.313   5.047   2.642  0.0866  0.1752  0.1154
 3027W        W 4224   1.840   1.290   0.231  0.1831 -0.4383  0.0188
 3028W        W 4225   6.680   2.071   6.265 -0.0230 -0.1340 -0.0812
 3029W        W 4226   2.243   2.889   1.248 -0.1014  0.3747 -0.0965
 3030W        W 4227   3.382   0.501   4.378  0.2779  0.1360 -0.2045
 3031W        W 4228   7.181   6.532   0.913 -0.0864  0.2397  0.1698
 3032W        W 4229   0.692   5.714   6.161 -0.4595  0.1964  0.2675
 3033W        W 4230   2.397   4.695   7.454 -0.0307 -0.2115  0.0105
 3034W        W 4231   7.591   1.438   6.239 -0.0974  0.0953 -0.0106
 3035W        W 4232   4.498   1.911   6.088 -0.1358 -0.2281  0.0951
 3036W        W 4233   1.214   3.095   7.061  0.2521 -0.1577 -0.2061
 3037W        W 4234   1.084   0.097   5.965 -0.0531 -0.0887 -0.0878
 3038W        W 4235   3.465   5.223   0.703  0.4038  0.3614 -0.0479
 3039W        W 4236   1.403   1.476   6.878  0.0302  0.1062 -0.0872
 3040W        W 4237   5.853   4.747   4.830 -0.0223  0.1148 -0.1890
 3041W        W 4238   4.178   0.599   0.781 -0.0897  0.0701  0.2775
 3042W        W 4239   0.705   3.601   5.631  0.2111 -0.2056  0.4218
 3043W        W 4240   7.473   1.681   6.678  0.1003 -0.1416  0.1004
 3044W        W 4241   6.256   4.389   3.174  0.2681 -0.0587 -0.0323
 3045W        W 4242   3.989   4.972   6.009 -0.0668  0.1109 -0.0763
 3046W        W 4243   7.485   0.395   6.611  0.2714 -0.1694 -0.1210
 3047W        W 4244   0.716   2.100   3.710 -0.0216 -0.1734 -0.0183
 3048W        W 4245   4.022   1.192   3.917 -0.2158 -0.0152  0.0864
 3049W        W 4246   1.228   2.770   5.714  0.0799 -0.0792  0.0163
 3050W        W 4247   6.421   6.002   1.962  0.1597 -0.1521 -0.0164
 3051W        W 4248   6.136   5.450   3.103 -0.0154 -0.1074  0.2538
 3052W        W 4249   2.533   5.355   2.190  0.3512  0.0404 -0.4363
 3053W        W 4250   2.678   1.679   7.143  0.2378  0.2322  0.0566
 3054W        W 4251   6.194   3.958   4.628  0.3839  0.1914 -0.0131
 3055W        W 4252   0.853   4.931   6.664  0.1131 -0.0467 -0.2615
 3056W        W 4253   3.288   3.732   0.553  0.1190  0.0345 -0.0511
 3057W        W 4254   7.611   3.538   4.296 -0.0392  0.2309 -0.2398
 3058W        W 4255   3.024   0.249   3.544 -0.2828  0.0660  0.2601
 3059W        W 4256   3.120   2.984   0.970  0.1193  0.0287 -0.0123
 3060W        W 4257   3.976   3.063   0.562 -0.0476 -0.3516  0.1083
 3061W        W 4258   0.455   6.193   2.896 -0.1288  0.0527  0.2021
 3062W        W 4259   2.288   7.358   7.486 -0.4281 -0.2202  0.0531
 3063W        W 4260   1.908   4.888   5.291 -0.5179  0.1409 -0.0488
 3064W        W 4261   3.007   5.926   5.793  0.0935  0.0582 -0.0498
 3065W        W 4262   2.422   3.698   2.620  0.1850  0.0367 -0.0777
 3066W        W 4263   2.408   4.680   6.077  0.0033  0.2158  0.2325
 3067W        W 4264   2.284   6.430   6.764 -0.1546  0.0181 -0.0710
 3068W        W 4265   4.705   2.577   2.443 -0.0402 -0.4096  0.1809
 3069W        W 4266   4.338   1.392   6.198 -0.0401 -0.1346 -0.0830
 3070W        W 4267   5.096   5.683   2.987 -0.0192  0.0837  0.3869
 3071W        W 4268   1.058   7.230   5.870  0.0466 -0.1384  0.0941
 3072W        W 4269   2.167   2.352   0.710  0.3423 -0.1007  0.0241
 3073W        W 4270   5.154   3.058   4.642  0.0733  0.0629 -0.4292
 3074W        W 4271   6.380   6.425   4.164 -0.0253  0.2156  0.5306
 3075W        W 4272   4.716   4.971   2.547  0.1216  0.0937 -0.1145
 3076W        W 4273   2.085   4.371   7.648  0.3532  0.0059  0.0483
 3077W        W 4274   0.706   6.571   6.869  0.1076  0.2362  0.1769
 3078W        W 4275   1.399   6.360   0.419 -0.1475  0.0648  0.1468
 3079W        W 4276   3.645   2.964   0.188  0.1338 -0.1323 -0.1084
 3080W        W 4277   1.792   4.777   2.699 -0.0487 -0.0915  0.0156
 3081W        W 4278   3.983   7.627   2.587 -0.1511 -0.1274 -0.0547
 3082W        W 4279   2.882   5.012   6.028  0.0305  0.0821 -0.1233
 3083W        W 4280   2.514   0.749   5.594 -0.3074  0.1499  0.0979
 3084W        W 4281   7.505   5.003   5.048  0.1266 -0.1017 -0.4827
 3085W        W 4282   5.330   5.502   4.540 -0.3633 -0.1381  0.2455
 3086W        W 4283   1.616   4.541   0.225  0.1549 -0.3961  0.2333
 3087W        W 4284   2.164   0.541   2.018 -0.0715 -0.0172  0.1445
 3088W        W 4285   3.302   5.649   5.493 -0.2040 -0.3386  0.3842
 3089W        W 4286   3.116   0.482   3.115 -0.0759  0.0817  0.1235
 3090W        W 4287   2.125   0.334   4.949  0.0361  0.3952 -0.0359
 3091W        W 4288   6.017   3.396   4.247 -0.0718  0.0475 -0.1290
 3092W        W 4289   3.889   0.222   5.880  0.0283  0.1168  0.0553
 3093W        W 4290   5.205   3.837   0.511 -0.0522 -0.1064  0.3585
 3094W        W 4291   1.502   4.327   1.725  0.0100 -0.0571 -0.2198
 3095W        W 4292   1.639   7.329   0.669  0.3460 -0.1165  0.1520
 3096W        W 4293   3.150   0.211   4.024  0.0006 -0.2419 -0.2863
 3097W        W 4294   2.255   6.975   4.232 -0.0291 -0.2167  0.2218
 3098W        W 4295   0.162   6.263   6.442  0.1856 -0.0641 -0.1429
 3099W        W 4296   0.600   4.782   3.073  0.2754  0.1211 -0.1072
 3100W        W 4297   7.316   1.636   4.396  0.0053 -0.0588 -0.3167
 3101W        W 4298   0.535   4.784   5.557  0.1025  0.1947  0.1622
 3102W        W 4299   3.638   7.191   4.306 -0.1942 -0.2308 -0.0112
 3103W        W 4300   1.783   5.061   4.541 -0.0404 -0.1242  0.2542
 3104W        W 4301   3.061   4.623   3.357  0.0919  0.0990  0.0658
 3105W        W 4302   7.109   0.681   3.912  0.0037 -0.1256 -0.3214
 3106W        W 4303   3.365   6.239   5.414 -0.3117 -0.0572  0.1514
 3107W        W 4304   3.007   6.176   7.369 -0.2125  0.1506  0.0362
 3108W        W 4305   2.697   5.297   7.239  0.2650 -0.3480 -0.0806
 3109W        W 4306   1.341   2.092   6.244 -0.2302  0.1709  0.1193
 3110W        W 4307   4.220   3.836   2.227 -0.2080  0.1423  0.0432
 3111W        W 4308   0.713   0.818   1.202 -0.1246 -0.1188  0.1797
 3112W        W 4309   2.333   5.815   2.778 -0.2924 -0.1257  0.1051
 3113W        W 4310   6.567   6.008   3.764 -0.1132 -0.0948 -0.0546
 3114W        W 4311   2.271   4.108   2.943 -0.0983 -0.0317  0.0823
 3115W        W 4312   3.829   1.236   6.436  0.0771 -0.1969  0.0832
 3116W        W 4313   5.138   3.689   5.900 -0.2241 -0.1132 -0.0464
 3117W        W 4314   7.486   7.197   4.030  0.0328 -0.3009  0.4013
 3118W        W 4315   6.190   6.113   5.229  0.3154 -0.0335 -0.2415
 3119W        W 4316   7.440   1.939   7.470 -0.0917 -0.3128  0.2151
 3120W        W 4317   7.297   4.726   4.151  0.0343 -0.1348 -0.0814
 3121W        W 4318   5.935   6.628   6.492  0.0778 -0.0545 -0.2470
 3122W        W 4319   2.172   1.521   7.277  0.0454 -0.4024  0.0445
 3123W        W 4320   2.923   3.021   2.025 -0.1447  0.0411  0.1786
 3124W        W 4321   6.003   2.932   5.084  0.1939 -0.1467 -0.5047
 3125W        W 4322   0.527   7.444   6.512  0.1409  0.0035 -0.1304
 3126W        W 4323   3.608   6.276   4.004  0.4025 -0.3727  0.2375
 3127W        W 4324   6.320   4.575   2.660  0.3331 -0.0838 -0.2331
 3128W        W 4325   4.399   5.849   7.395 -0.1392 -0.2436 -0.3395
 3129W        W 4326   4.399   6.348   1.917  0.1411  0.3665  0.1094
 3130W        W 4327   0.246   2.170   1.781  0.1257  0.0688 -0.2803
 3131W        W 4328   3.835   5.792   2.183 -0.0597  0.0600  0.1908
 3132W        W 4329   5.716   6.163   5.604 -0.2677 -0.0339 -0.0881
 3133W        W 4330   3.403   6.323   1.992 -0.2228 -0.2329  0.1070
 3134W        W 4331   1.890   3.290   5.083 -0.4067  0.0152  0.2696
 3135W        W 4332   5.181   6.898   3.764 -0.1961  0.0883  0.0527
 3136W        W 4333   4.711   3.376   7.112 -0.1558 -0.0421  0.0162
 3137W        W 4334   1.174   2.166   3.962  0.2860  0.1658  0.2283
 3138W        W 4335   1.629   0.916   3.728  0.2863 -0.1400  0.1046
 3139W        W 4336   4.900   6.351   2.976  0.0249 -0.1865  0.0421
 3140W        W 4337   7.206   6.741   1.887 -0.0028 -0.0208 -0.0988
 3141W        W 4338   2.350   0.535   2.475  0.1366 -0.2561 -0.1224
 3142W        W 4339   6.262   6.204   5.726  0.0056  0.0023 -0.1212
 3143W        W 4340   6.171   3.089   3.500  0.0824 -0.1192  0.0098
 3144W        W 4341   1.368   5.838   6.935  0.1865 -0.3297 -0.0186
 3145W        W 4342   1.970   5.162   1.274  0.1280 -0.1226 -0.0193
 3146W        W 4343   4.541   2.498   3.367 -0.1231  0.2719  0.1007
 3147W        W 4344   1.984   0.685   4.607  0.1613  0.2797 -0.0363
 3148W        W 4345   1.186   2.351   4.444 -0.0269  0.2368 -0.2193
 3149W        W 4346   4.228   5.694   1.916 -0.4147 -0.2593 -0.2427
 3150W        W 4347   3.556   1.477   6.844 -0.1288 -0.1628 -0.0477
 3151W        W 4348   7.340   7.125   3.119  0.2914  0.3278  0.1145
 3152W        W 4349   0.661   2.484   1.556  0.0206 -0.1332  0.4686
 3153W        W 4350   4.253   0.050   4.977 -0.0082  0.1906  0.2029
 3154W        W 4351   1.920   3.944   6.149 -0.3012 -0.0733 -0.0956
   7.65584   7.65584   7.65584
