Martini system from ../2_Creating_coordinates/TYR-ALA-TYR_aa.pdb
 4142
    1TYR     BB    1   3.062   4.792   7.489
    1TYR    SC1    2   3.222   5.008   7.648
    1TYR    SC2    3   3.357   5.203   7.777
    1TYR    SC3    4   3.269   4.987   7.913
    2ALA     BB    5   2.844   4.731   7.766
    3TYR     BB    6   2.750   4.996   7.934
    3TYR    SC1    7   2.916   4.959   0.204
    3TYR    SC2    8   3.030   5.080   0.416
    3TYR    SC3    9   3.107   4.831   0.345
    1TYR     BB   10   0.168   1.055   1.542
    1TYR    SC1   11   0.029   1.324   1.621
    1TYR    SC2   12   7.926   1.557   1.532
    1TYR    SC3   13   7.845   1.456   1.769
    2ALA     BB   14   0.178   1.072   1.212
    3TYR     BB   15   7.955   1.252   1.093
    3TYR    SC1   16   7.701   1.229   1.282
    3TYR    SC2   17   7.447   1.143   1.315
    3TYR    SC3   18   7.619   1.138   1.523
    1TYR     BB   19   6.875   5.659   4.921
    1TYR    SC1   20   6.804   5.732   5.219
    1TYR    SC2   21   6.640   5.715   5.433
    1TYR    SC3   22   6.902   5.768   5.468
    2ALA     BB   23   6.951   5.306   5.035
    3TYR     BB   24   6.846   5.252   5.353
    3TYR    SC1   25   7.057   5.361   5.557
    3TYR    SC2   26   7.065   5.438   5.816
    3TYR    SC3   27   7.271   5.497   5.651
    1TYR     BB   28   4.073   3.638   2.168
    1TYR    SC1   29   4.090   3.346   2.297
    1TYR    SC2   30   4.207   3.178   2.474
    1TYR    SC3   31   4.042   3.080   2.284
    2ALA     BB   32   4.218   3.816   2.423
    3TYR     BB   33   4.429   3.650   2.605
    3TYR    SC1   34   4.259   3.491   2.808
    3TYR    SC2   35   4.262   3.349   3.038
    3TYR    SC3   36   4.035   3.366   2.894
    1TYR     BB   37   7.389   3.385   6.238
    1TYR    SC1   38   7.139   3.493   6.079
    1TYR    SC2   39   6.927   3.658   6.102
    1TYR    SC3   40   7.052   3.632   5.864
    2ALA     BB   41   7.403   3.600   6.489
    3TYR     BB   42   7.262   3.871   6.414
    3TYR    SC1   43   7.480   4.077   6.356
    3TYR    SC2   44   7.518   4.343   6.339
    3TYR    SC3   45   7.699   4.174   6.232
    1TYR     BB   46   4.799   1.113   5.881
    1TYR    SC1   47   4.617   1.021   5.635
    1TYR    SC2   48   4.555   0.854   5.432
    1TYR    SC3   49   4.373   1.033   5.519
    2ALA     BB   50   4.818   0.805   6.030
    3TYR     BB   51   4.533   0.682   6.099
    3TYR    SC1   52   4.348   0.684   5.850
    3TYR    SC2   53   4.239   0.579   5.627
    3TYR    SC3   54   4.096   0.751   5.779
    1TYR     BB   55   2.792   2.683   0.441
    1TYR    SC1   56   2.773   2.948   0.284
    1TYR    SC2   57   2.902   3.182   0.242
    1TYR    SC3   58   2.632   3.174   0.241
    2ALA     BB   59   3.137   2.659   0.487
    3TYR     BB   60   3.318   2.887   0.295
    3TYR    SC1   61   3.363   2.703   0.050
    3TYR    SC2   62   3.371   2.439   7.993
    3TYR    SC3   63   3.248   2.610   7.824
    1TYR     BB   64   4.785   0.162   3.717
    1TYR    SC1   65   4.966   7.926   3.648
    1TYR    SC2   66   5.153   7.853   3.468
    1TYR    SC3   67   5.176   7.774   3.725
    2ALA     BB   68   4.512   0.120   3.833
    3TYR     BB   69   4.348   7.917   3.655
    3TYR    SC1   70   4.368   0.005   3.371
    3TYR    SC2   71   4.283   7.965   3.118
    3TYR    SC3   72   4.403   0.198   3.185
    1TYR     BB   73   2.906   1.658   2.001
    1TYR    SC1   74   2.831   1.351   1.990
    1TYR    SC2   75   2.591   1.228   1.977
    1TYR    SC3   76   2.804   1.099   2.084
    2ALA     BB   77   2.640   1.803   1.999
    3TYR     BB   78   2.375   1.688   2.094
    3TYR    SC1   79   2.188   1.590   1.872
    3TYR    SC2   80   2.150   1.370   1.720
    3TYR    SC3   81   2.045   1.607   1.643
    1TYR     BB   82   2.289   4.541   5.326
    1TYR    SC1   83   2.432   4.654   5.075
    1TYR    SC2   84   2.638   4.663   4.901
    1TYR    SC3   85   2.461   4.866   4.910
    2ALA     BB   86   2.011   4.443   5.223
    3TYR     BB   87   2.056   4.296   4.938
    3TYR    SC1   88   2.160   4.504   4.746
    3TYR    SC2   89   2.323   4.595   4.551
    3TYR    SC3   90   2.060   4.657   4.548
    1TYR     BB   91   0.032   4.583   6.953
    1TYR    SC1   92   0.003   4.287   7.060
    1TYR    SC2   93   7.822   4.117   7.166
    1TYR    SC3   94   0.041   4.020   7.040
    2ALA     BB   95   7.722   4.666   6.883
    3TYR     BB   96   7.520   4.405   6.846
    3TYR    SC1   97   7.705   4.188   6.728
    3TYR    SC2   98   7.742   3.923   6.693
    3TYR    SC3   99   7.932   4.098   6.614
    1TYR     BB  100   0.467   6.011   1.338
    1TYR    SC1  101   0.630   6.276   1.367
    1TYR    SC2  102   0.721   6.486   1.223
    1TYR    SC3  103   0.661   6.517   1.485
    2ALA     BB  104   0.157   6.157   1.265
    3TYR     BB  105   0.161   6.470   1.214
    3TYR    SC1  106   0.238   6.666   1.439
    3TYR    SC2  107   0.367   6.897   1.494
    3TYR    SC3  108   0.279   6.740   1.695
    1TYR     BB  109   1.728   6.808   7.314
    1TYR    SC1  110   1.761   6.779   7.010
    1TYR    SC2  111   1.823   6.938   6.801
    1TYR    SC3  112   1.837   6.670   6.775
    2ALA     BB  113   1.795   7.169   7.303
    3TYR     BB  114   1.807   7.389   7.044
    3TYR    SC1  115   1.583   7.334   6.839
    3TYR    SC2  116   1.344   7.402   6.733
    3TYR    SC3  117   1.484   7.196   6.629
    1TYR     BB  118   3.398   1.572   5.126
    1TYR    SC1  119   3.158   1.593   5.328
    1TYR    SC2  120   3.002   1.461   5.504
    1TYR    SC3  121   2.951   1.720   5.446
    2ALA     BB  122   3.642   1.575   5.352
    3TYR     BB  123   3.565   1.530   5.649
    3TYR    SC1  124   3.304   1.618   5.789
    3TYR    SC2  125   3.134   1.574   5.993
    3TYR    SC3  126   3.125   1.807   5.858
    1TYR     BB  127   4.954   6.031   7.112
    1TYR    SC1  128   5.090   5.861   6.893
    1TYR    SC2  129   5.183   5.787   6.650
    1TYR    SC3  130   5.076   5.603   6.816
    2ALA     BB  131   5.110   6.078   7.353
    3TYR     BB  132   5.410   6.129   7.325
    3TYR    SC1  133   5.485   6.077   7.033
    3TYR    SC2  134   5.443   6.143   6.774
    3TYR    SC3  135   5.566   5.911   6.836
    1TYR     BB  136   4.650   2.493   0.762
    1TYR    SC1  137   4.536   2.737   0.925
    1TYR    SC2  138   4.480   2.812   1.179
    1TYR    SC3  139   4.532   2.999   0.991
    2ALA     BB  140   4.494   2.247   0.922
    3TYR     BB  141   4.288   2.340   1.163
    3TYR    SC1  142   4.420   2.438   1.430
    3TYR    SC2  143   4.447   2.360   1.687
    3TYR    SC3  144   4.561   2.589   1.603
    1TYR     BB  145   2.357   2.747   0.051
    1TYR    SC1  146   2.329   3.034   7.934
    1TYR    SC2  147   2.286   3.125   7.684
    1TYR    SC3  148   2.367   3.295   7.877
    2ALA     BB  149   2.052   2.642   7.828
    3TYR     BB  150   1.842   2.878   7.619
    3TYR    SC1  151   1.609   2.879   7.824
    3TYR    SC2  152   1.500   2.967   0.055
    3TYR    SC3  153   1.517   2.702   0.006
    1TYR     BB  154   5.529   4.895   0.590
    1TYR    SC1  155   5.371   5.093   0.757
    1TYR    SC2  156   5.177   5.275   0.801
    1TYR    SC3  157   5.349   5.211   0.999
    2ALA     BB  158   5.645   4.663   0.738
    3TYR     BB  159   5.542   4.607   1.021
    3TYR    SC1  160   5.288   4.761   1.069
    3TYR    SC2  161   5.044   4.846   0.989
    3TYR    SC3  162   5.128   4.894   1.241
    1TYR     BB  163   7.723   2.862   6.926
    1TYR    SC1  164   7.925   3.086   6.944
    1TYR    SC2  165   0.064   3.237   7.120
    1TYR    SC3  166   0.191   3.116   6.914
    2ALA     BB  167   7.900   2.660   7.173
    3TYR     BB  168   0.201   2.585   7.042
    3TYR    SC1  169   0.192   2.698   6.751
    3TYR    SC2  170   0.328   2.784   6.535
    3TYR    SC3  171   0.059   2.802   6.541
    1TYR     BB  172   4.337   1.128   4.977
    1TYR    SC1  173   4.597   1.208   5.125
    1TYR    SC2  174   4.830   1.188   5.260
    1TYR    SC3  175   4.712   1.429   5.230
    2ALA     BB  176   4.395   1.066   4.668
    3TYR     BB  177   4.661   1.052   4.458
    3TYR    SC1  178   4.852   1.265   4.591
    3TYR    SC2  179   4.955   1.356   4.823
    3TYR    SC3  180   4.919   1.525   4.615
    1TYR     BB  181   1.151   2.403   5.649
    1TYR    SC1  182   1.351   2.646   5.634
    1TYR    SC2  183   1.391   2.911   5.598
    1TYR    SC3  184   1.599   2.750   5.658
    2ALA     BB  185   0.923   2.487   5.852
    3TYR     BB  186   0.941   2.788   5.933
    3TYR    SC1  187   1.213   2.862   6.049
    3TYR    SC2  188   1.357   2.888   6.276
    3TYR    SC3  189   1.445   3.001   6.047
    1TYR     BB  190   2.046   7.751   1.521
    1TYR    SC1  191   2.245   7.535   1.435
    1TYR    SC2  192   2.474   7.421   1.349
    1TYR    SC3  193   2.297   7.277   1.493
    2ALA     BB  194   2.197   0.034   1.439
    3TYR     BB  195   2.488   0.085   1.493
    3TYR    SC1  196   2.618   7.831   1.617
    3TYR    SC2  197   2.790   7.747   1.807
    3TYR    SC3  198   2.562   7.610   1.761
    1TYR     BB  199   3.596   7.464   0.724
    1TYR    SC1  200   3.317   7.414   0.848
    1TYR    SC2  201   3.048   7.422   0.834
    1TYR    SC3  202   3.170   7.423   1.074
    2ALA     BB  203   3.720   7.747   0.867
    3TYR     BB  204   3.660   7.850   1.187
    3TYR    SC1  205   3.573   7.582   1.310
    3TYR    SC2  206   3.596   7.332   1.214
    3TYR    SC3  207   3.453   7.377   1.438
    1TYR     BB  208   6.228   1.068   6.990
    1TYR    SC1  209   6.006   1.001   7.208
    1TYR    SC2  210   5.857   0.834   7.359
    1TYR    SC3  211   5.763   1.079   7.296
    2ALA     BB  212   6.479   1.277   7.102
    3TYR     BB  213   6.553   1.210   7.400
    3TYR    SC1  214   6.299   1.139   7.561
    3TYR    SC2  215   6.180   0.931   7.684
    3TYR    SC3  216   6.052   1.168   7.665
    1TYR     BB  217   4.478   7.777   2.376
    1TYR    SC1  218   4.400   7.625   2.638
    1TYR    SC2  219   4.425   7.400   2.785
    1TYR    SC3  220   4.255   7.595   2.863
    2ALA     BB  221   4.751   7.950   2.486
    3TYR     BB  222   4.788   0.087   2.783
    3TYR    SC1  223   4.719   7.878   2.994
    3TYR    SC2  224   4.763   7.844   3.259
    3TYR    SC3  225   4.627   7.656   3.119
    1TYR     BB  226   0.930   7.870   6.171
    1TYR    SC1  227   1.185   7.998   6.050
    1TYR    SC2  228   1.451   7.988   6.002
    1TYR    SC3  229   1.312   0.214   5.949
    2ALA     BB  230   1.022   7.631   6.388
    3TYR     BB  231   1.196   7.391   6.251
    3TYR    SC1  232   1.305   7.527   5.991
    3TYR    SC2  233   1.462   7.562   5.774
    3TYR    SC3  234   1.203   7.640   5.768
    1TYR     BB  235   2.854   3.020   1.223
    1TYR    SC1  236   2.887   3.062   0.919
    1TYR    SC2  237   2.758   3.134   0.693
    1TYR    SC3  238   3.026   3.100   0.690
    2ALA     BB  239   2.888   3.300   1.353
    3TYR     BB  240   2.730   3.535   1.167
    3TYR    SC1  241   2.912   3.518   0.911
    3TYR    SC2  242   2.933   3.542   0.643
    3TYR    SC3  243   3.155   3.546   0.796
    1TYR     BB  244   6.063   7.011   3.581
    1TYR    SC1  245   6.079   6.791   3.802
    1TYR    SC2  246   6.146   6.707   4.050
    1TYR    SC3  247   5.926   6.608   3.929
    2ALA     BB  248   5.770   7.147   3.666
    3TYR     BB  249   5.642   7.034   3.957
    3TYR    SC1  250   5.770   6.923   4.218
    3TYR    SC2  251   5.973   6.960   4.391
    3TYR    SC3  252   5.840   6.725   4.387
    1TYR     BB  253   6.138   3.618   0.833
    1TYR    SC1  254   5.947   3.755   0.622
    1TYR    SC2  255   5.878   3.907   0.410
    1TYR    SC3  256   5.687   3.812   0.576
    2ALA     BB  257   6.200   3.342   0.770
    3TYR     BB  258   6.296   3.262   0.475
    3TYR    SC1  259   6.238   3.506   0.307
    3TYR    SC2  260   6.274   3.766   0.243
    3TYR    SC3  261   6.089   3.618   0.112
    1TYR     BB  262   2.694   2.385   2.600
    1TYR    SC1  263   2.778   2.644   2.745
    1TYR    SC2  264   2.699   2.816   2.938
    1TYR    SC3  265   2.932   2.681   2.964
    2ALA     BB  266   2.653   2.219   2.904
    3TYR     BB  267   2.479   2.393   3.095
    3TYR    SC1  268   2.670   2.469   3.333
    3TYR    SC2  269   2.759   2.385   3.574
    3TYR    SC3  270   2.916   2.539   3.418
    1TYR     BB  271   5.117   2.806   0.049
    1TYR    SC1  272   5.381   2.849   7.898
    1TYR    SC2  273   5.603   2.712   7.830
    1TYR    SC3  274   5.568   2.965   7.741
    2ALA     BB  275   4.937   2.610   7.853
    3TYR     BB  276   5.122   2.486   7.598
    3TYR    SC1  277   5.330   2.668   7.467
    3TYR    SC2  278   5.573   2.670   7.350
    3TYR    SC3  279   5.401   2.874   7.307
    1TYR     BB  280   6.568   1.946   3.563
    1TYR    SC1  281   6.337   1.741   3.622
    1TYR    SC2  282   6.119   1.679   3.769
    1TYR    SC3  283   6.243   1.488   3.624
    2ALA     BB  284   6.440   2.236   3.590
    3TYR     BB  285   6.184   2.250   3.423
    3TYR    SC1  286   6.029   1.985   3.414
    3TYR    SC2  287   5.795   1.865   3.476
    3TYR    SC3  288   5.974   1.739   3.317
    1TYR     BB  289   3.969   5.408   7.136
    1TYR    SC1  290   3.839   5.510   7.416
    1TYR    SC2  291   3.761   5.444   7.666
    1TYR    SC3  292   3.789   5.704   7.597
    2ALA     BB  293   4.300   5.444   7.223
    3TYR     BB  294   4.352   5.632   7.447
    3TYR    SC1  295   4.221   5.539   7.716
    3TYR    SC2  296   4.177   5.338   7.890
    3TYR    SC3  297   4.093   5.588   7.948
    1TYR     BB  298   2.511   0.931   2.473
    1TYR    SC1  299   2.620   1.198   2.529
    1TYR    SC2  300   2.587   1.435   2.653
    1TYR    SC3  301   2.711   1.425   2.413
    2ALA     BB  302   2.520   0.726   2.716
    3TYR     BB  303   2.406   0.837   2.979
    3TYR    SC1  304   2.481   1.126   3.023
    3TYR    SC2  305   2.413   1.385   3.056
    3TYR    SC3  306   2.668   1.307   3.095
    1TYR     BB  307   2.714   6.530   6.471
    1TYR    SC1  308   2.926   6.380   6.306
    1TYR    SC2  309   3.150   6.410   6.158
    1TYR    SC3  310   3.140   6.222   6.352
    2ALA     BB  311   2.949   6.644   6.715
    3TYR     BB  312   3.250   6.457   6.797
    3TYR    SC1  313   3.422   6.514   6.549
    3TYR    SC2  314   3.480   6.678   6.342
    3TYR    SC3  315   3.617   6.448   6.374
    1TYR     BB  316   6.976   4.517   1.356
    1TYR    SC1  317   6.967   4.332   1.100
    1TYR    SC2  318   7.053   4.130   0.943
    1TYR    SC3  319   6.801   4.225   0.916
    2ALA     BB  320   7.036   4.284   1.594
    3TYR     BB  321   6.957   3.944   1.588
    3TYR    SC1  322   6.883   3.860   1.293
    3TYR    SC2  323   6.922   3.703   1.077
    3TYR    SC3  324   6.685   3.828   1.113
    1TYR     BB  325   3.802   4.421   4.236
    1TYR    SC1  326   3.979   4.439   4.495
    1TYR    SC2  327   3.967   4.538   4.746
    1TYR    SC3  328   4.206   4.493   4.630
    2ALA     BB  329   3.740   4.133   4.214
    3TYR     BB  330   3.784   3.911   4.408
    3TYR    SC1  331   3.881   4.020   4.682
    3TYR    SC2  332   3.865   4.129   4.928
    3TYR    SC3  333   4.106   4.092   4.813
    1TYR     BB  334   5.436   5.788   4.714
    1TYR    SC1  335   5.162   5.696   4.842
    1TYR    SC2  336   4.914   5.625   4.763
    1TYR    SC3  337   5.023   5.511   4.982
    2ALA     BB  338   5.341   5.803   4.390
    3TYR     BB  339   5.019   5.805   4.302
    3TYR    SC1  340   4.896   5.512   4.268
    3TYR    SC2  341   4.677   5.402   4.154
    3TYR    SC3  342   4.863   5.244   4.270
    1TYR     BB  343   7.611   1.677   6.421
    1TYR    SC1  344   7.377   1.742   6.217
    1TYR    SC2  345   7.157   1.891   6.167
    1TYR    SC3  346   7.258   1.730   5.975
    2ALA     BB  347   7.762   1.977   6.438
    3TYR     BB  348   7.482   2.207   6.413
    3TYR    SC1  349   7.483   2.195   6.097
    3TYR    SC2  350   7.383   2.165   5.848
    3TYR    SC3  351   7.608   2.034   5.920
    1TYR     BB  352   1.086   3.697   0.962
    1TYR    SC1  353   1.061   3.676   0.643
    1TYR    SC2  354   1.002   3.827   0.427
    1TYR    SC3  355   1.231   3.684   0.434
    2ALA     BB  356   1.386   3.854   0.953
    3TYR     BB  357   1.313   4.122   0.712
    3TYR    SC1  358   1.591   4.151   0.602
    3TYR    SC2  359   1.846   4.187   0.681
    3TYR    SC3  360   1.775   4.244   0.427
    1TYR     BB  361   3.081   6.472   4.744
    1TYR    SC1  362   3.284   6.269   4.614
    1TYR    SC2  363   3.380   6.040   4.507
    1TYR    SC3  364   3.529   6.265   4.501
    2ALA     BB  365   2.783   6.381   4.585
    3TYR     BB  366   2.821   6.199   4.347
    3TYR    SC1  367   2.679   6.209   4.063
    3TYR    SC2  368   2.436   6.220   3.946
    3TYR    SC3  369   2.659   6.229   3.794
    1TYR     BB  370   1.102   4.658   5.272
    1TYR    SC1  371   0.944   4.661   5.538
    1TYR    SC2  372   0.945   4.845   5.736
    1TYR    SC3  373   0.813   4.611   5.769
    2ALA     BB  374   1.207   4.978   5.284
    3TYR     BB  375   0.963   5.157   5.327
    3TYR    SC1  376   0.849   5.287   5.571
    3TYR    SC2  377   0.819   5.518   5.706
    3TYR    SC3  378   0.621   5.335   5.707
    1TYR     BB  379   6.624   4.360   4.926
    1TYR    SC1  380   6.602   4.665   4.918
    1TYR    SC2  381   6.601   4.897   4.780
    1TYR    SC3  382   6.639   4.899   5.047
    2ALA     BB  383   6.890   4.287   4.748
    3TYR     BB  384   6.881   4.434   4.474
    3TYR    SC1  385   6.605   4.559   4.436
    3TYR    SC2  386   6.394   4.513   4.273
    3TYR    SC3  387   6.356   4.622   4.518
    1TYR     BB  388   3.322   5.127   5.664
    1TYR    SC1  389   3.262   4.860   5.555
    1TYR    SC2  390   3.372   4.617   5.514
    1TYR    SC3  391   3.116   4.637   5.595
    2ALA     BB  392   3.660   5.046   5.783
    3TYR     BB  393   3.696   4.695   5.875
    3TYR    SC1  394   3.426   4.693   6.026
    3TYR    SC2  395   3.170   4.654   6.103
    3TYR    SC3  396   3.286   4.895   6.139
    1TYR     BB  397   7.146   5.990   3.382
    1TYR    SC1  398   7.444   5.996   3.385
    1TYR    SC2  399   7.650   6.169   3.372
    1TYR    SC3  400   7.694   5.911   3.439
    2ALA     BB  401   6.975   5.973   3.615
    3TYR     BB  402   6.642   6.010   3.528
    3TYR    SC1  403   6.690   6.242   3.313
    3TYR    SC2  404   6.622   6.395   3.101
    3TYR    SC3  405   6.876   6.396   3.192
    1TYR     BB  406   7.142   7.332   2.430
    1TYR    SC1  407   7.282   7.153   2.647
    1TYR    SC2  408   7.447   6.945   2.695
    1TYR    SC3  409   7.457   7.165   2.852
    2ALA     BB  410   7.369   7.353   2.200
    3TYR     BB  411   7.577   7.101   2.224
    3TYR    SC1  412   7.772   7.160   2.450
    3TYR    SC2  413   0.010   7.069   2.539
    3TYR    SC3  414   7.885   7.270   2.669
    1TYR     BB  415   6.103   1.028   5.488
    1TYR    SC1  416   6.064   0.770   5.318
    1TYR    SC2  417   6.222   0.611   5.167
    1TYR    SC3  418   5.980   0.523   5.250
    2ALA     BB  419   6.443   1.057   5.414
    3TYR     BB  420   6.606   0.827   5.502
    3TYR    SC1  421   6.428   0.587   5.594
    3TYR    SC2  422   6.401   0.400   5.787
    3TYR    SC3  423   6.320   0.347   5.535
    1TYR     BB  424   7.823   2.582   3.588
    1TYR    SC1  425   7.630   2.824   3.618
    1TYR    SC2  426   7.614   3.092   3.651
    1TYR    SC3  427   7.457   2.969   3.469
    2ALA     BB  428   0.051   2.737   3.379
    3TYR     BB  429   7.914   2.965   3.196
    3TYR    SC1  430   7.661   2.901   3.032
    3TYR    SC2  431   7.508   2.792   2.838
    3TYR    SC3  432   7.404   2.978   3.004
    1TYR     BB  433   4.290   5.562   3.476
    1TYR    SC1  434   4.234   5.827   3.340
    1TYR    SC2  435   4.024   5.980   3.267
    1TYR    SC3  436   4.270   6.090   3.288
    2ALA     BB  437   4.199   5.561   3.785
    3TYR     BB  438   3.912   5.431   3.950
    3TYR    SC1  439   3.719   5.659   4.028
    3TYR    SC2  440   3.498   5.720   4.170
    3TYR    SC3  441   3.651   5.917   4.067
    1TYR     BB  442   2.293   3.540   5.534
    1TYR    SC1  443   2.583   3.503   5.590
    1TYR    SC2  444   2.835   3.460   5.504
    1TYR    SC3  445   2.781   3.460   5.768
    2ALA     BB  446   2.245   3.432   5.245
    3TYR     BB  447   2.530   3.398   5.024
    3TYR    SC1  448   2.684   3.647   5.105
    3TYR    SC2  449   2.878   3.834   5.107
    3TYR    SC3  450   2.685   3.839   5.295
    1TYR     BB  451   3.131   1.625   3.706
    1TYR    SC1  452   3.019   1.862   3.839
    1TYR    SC2  453   2.800   2.017   3.864
    1TYR    SC3  454   2.958   1.971   4.078
    2ALA     BB  455   2.942   1.387   3.709
    3TYR     BB  456   2.675   1.407   3.872
    3TYR    SC1  457   2.670   1.616   4.094
    3TYR    SC2  458   2.539   1.829   4.194
    3TYR    SC3  459   2.680   1.669   4.358
    1TYR     BB  460   2.256   0.388   6.092
    1TYR    SC1  461   2.090   0.270   6.323
    1TYR    SC2  462   1.973   0.037   6.394
    1TYR    SC3  463   2.013   0.230   6.579
    2ALA     BB  464   2.398   0.665   6.168
    3TYR     BB  465   2.403   0.742   6.447
    3TYR    SC1  466   2.208   0.630   6.651
    3TYR    SC2  467   2.194   0.530   6.901
    3TYR    SC3  468   1.983   0.661   6.795
    1TYR     BB  469   2.891   2.260   5.425
    1TYR    SC1  470   3.164   2.135   5.491
    1TYR    SC2  471   3.410   2.245   5.475
    1TYR    SC3  472   3.383   1.980   5.518
    2ALA     BB  473   2.940   2.562   5.514
    3TYR     BB  474   3.066   2.735   5.299
    3TYR    SC1  475   3.343   2.639   5.231
    3TYR    SC2  476   3.489   2.493   5.057
    3TYR    SC3  477   3.608   2.605   5.272
    1TYR     BB  478   2.296   1.431   7.194
    1TYR    SC1  479   2.311   1.276   6.931
    1TYR    SC2  480   2.463   1.179   6.730
    1TYR    SC3  481   2.288   1.017   6.857
    2ALA     BB  482   2.614   1.550   7.232
    3TYR     BB  483   2.939   1.480   7.130
    3TYR    SC1  484   3.096   1.593   6.882
    3TYR    SC2  485   3.083   1.598   6.612
    3TYR    SC3  486   3.318   1.645   6.738
    1TYR     BB  487   5.931   4.377   2.940
    1TYR    SC1  488   6.063   4.180   2.745
    1TYR    SC2  489   6.097   4.065   2.503
    1TYR    SC3  490   6.270   4.012   2.704
    2ALA     BB  491   5.877   4.677   2.811
    3TYR     BB  492   5.904   4.659   2.504
    3TYR    SC1  493   6.187   4.529   2.466
    3TYR    SC2  494   6.378   4.381   2.345
    3TYR    SC3  495   6.402   4.444   2.606
    1TYR     BB  496   1.832   5.506   0.665
    1TYR    SC1  497   1.643   5.259   0.667
    1TYR    SC2  498   1.500   5.070   0.797
    1TYR    SC3  499   1.519   5.064   0.528
    2ALA     BB  500   1.761   5.682   0.908
    3TYR     BB  501   1.456   5.807   0.967
    3TYR    SC1  502   1.281   5.582   0.847
    3TYR    SC2  503   1.149   5.348   0.873
    3TYR    SC3  504   1.224   5.434   0.628
    1TYR     BB  505   6.480   0.882   1.864
    1TYR    SC1  506   6.350   0.609   1.927
    1TYR    SC2  507   6.401   0.344   1.945
    1TYR    SC3  508   6.194   0.452   2.082
    2ALA     BB  509   6.784   0.859   1.894
    3TYR     BB  510   6.870   0.603   2.096
    3TYR    SC1  511   6.636   0.549   2.293
    3TYR    SC2  512   6.514   0.345   2.421
    3TYR    SC3  513   6.437   0.600   2.468
    1TYR     BB  514   6.651   3.645   2.836
    1TYR    SC1  515   6.933   3.559   2.949
    1TYR    SC2  516   7.200   3.522   2.961
    1TYR    SC3  517   7.045   3.456   3.172
    2ALA     BB  518   6.524   3.780   3.097
    3TYR     BB  519   6.777   3.918   3.262
    3TYR    SC1  520   6.806   3.733   3.498
    3TYR    SC2  521   6.699   3.661   3.735
    3TYR    SC3  522   6.733   3.477   3.541
    1TYR     BB  523   7.600   6.204   6.275
    1TYR    SC1  524   7.804   6.149   6.496
    1TYR    SC2  525   0.021   6.133   6.657
    1TYR    SC3  526   7.776   6.080   6.756
    2ALA     BB  527   7.319   6.270   6.461
    3TYR     BB  528   7.416   6.473   6.712
    3TYR    SC1  529   7.700   6.581   6.634
    3TYR    SC2  530   7.970   6.583   6.621
    3TYR    SC3  531   7.830   6.805   6.559
    1TYR     BB  532   7.211   1.703   4.065
    1TYR    SC1  533   7.000   1.744   4.283
    1TYR    SC2  534   6.848   1.659   4.489
    1TYR    SC3  535   6.776   1.878   4.349
    2ALA     BB  536   7.328   1.999   3.995
    3TYR     BB  537   7.326   2.229   4.226
    3TYR    SC1  538   7.128   2.159   4.454
    3TYR    SC2  539   7.105   1.996   4.668
    3TYR    SC3  540   6.942   2.210   4.642
    1TYR     BB  541   3.662   4.955   2.559
    1TYR    SC1  542   3.723   5.243   2.668
    1TYR    SC2  543   3.907   5.427   2.595
    1TYR    SC3  544   3.660   5.506   2.670
    2ALA     BB  545   3.556   5.084   2.237
    3TYR     BB  546   3.762   5.279   2.073
    3TYR    SC1  547   3.809   5.574   2.170
    3TYR    SC2  548   3.944   5.800   2.111
    3TYR    SC3  549   3.774   5.795   2.321
    1TYR     BB  550   4.448   7.809   6.098
    1TYR    SC1  551   4.288   7.546   6.171
    1TYR    SC2  552   4.093   7.367   6.222
    1TYR    SC3  553   4.352   7.295   6.247
    2ALA     BB  554   4.708   7.675   5.926
    3TYR     BB  555   4.646   7.389   5.840
    3TYR    SC1  556   4.737   7.171   6.031
    3TYR    SC2  557   4.911   6.967   6.060
    3TYR    SC3  558   4.765   7.050   6.271
    1TYR     BB  559   3.872   2.643   0.150
    1TYR    SC1  560   4.129   2.552   7.999
    1TYR    SC2  561   4.392   2.557   7.938
    1TYR    SC3  562   4.208   2.561   7.741
    2ALA     BB  563   3.767   2.384   0.289
    3TYR     BB  564   3.899   2.113   0.255
    3TYR    SC1  565   4.111   2.042   0.041
    3TYR    SC2  566   4.195   1.887   7.837
    3TYR    SC3  567   4.337   2.106   7.908
    1TYR     BB  568   0.825   1.894   1.692
    1TYR    SC1  569   1.115   2.009   1.720
    1TYR    SC2  570   1.310   2.101   1.882
    1TYR    SC3  571   1.300   2.181   1.624
    2ALA     BB  572   0.809   1.715   1.467
    3TYR     BB  573   1.109   1.675   1.302
    3TYR    SC1  574   1.198   1.953   1.223
    3TYR    SC2  575   1.415   2.110   1.191
    3TYR    SC3  576   1.194   2.153   1.042
    1TYR     BB  577   5.899   3.019   6.500
    1TYR    SC1  578   5.686   2.970   6.723
    1TYR    SC2  579   5.546   2.767   6.832
    1TYR    SC3  580   5.469   3.022   6.876
    2ALA     BB  581   6.019   3.299   6.526
    3TYR     BB  582   6.125   3.336   6.820
    3TYR    SC1  583   6.030   3.087   6.997
    3TYR    SC2  584   5.984   2.825   7.044
    3TYR    SC3  585   5.836   3.013   7.169
    1TYR     BB  586   2.064   4.026   3.092
    1TYR    SC1  587   1.972   3.994   2.790
    1TYR    SC2  588   1.997   3.847   2.565
    1TYR    SC3  589   1.784   4.009   2.598
    2ALA     BB  590   1.911   4.293   3.177
    3TYR     BB  591   1.901   4.467   2.911
    3TYR    SC1  592   1.664   4.441   2.739
    3TYR    SC2  593   1.446   4.590   2.680
    3TYR    SC3  594   1.482   4.351   2.560
    1TYR     BB  595   4.068   1.429   2.847
    1TYR    SC1  596   3.861   1.533   2.644
    1TYR    SC2  597   3.768   1.780   2.586
    1TYR    SC3  598   3.618   1.563   2.530
    2ALA     BB  599   4.342   1.509   2.727
    3TYR     BB  600   4.332   1.702   2.456
    3TYR    SC1  601   4.110   1.679   2.236
    3TYR    SC2  602   3.873   1.762   2.136
    3TYR    SC3  603   4.056   1.649   1.973
    1TYR     BB  604   1.698   1.048   4.632
    1TYR    SC1  605   1.835   1.250   4.833
    1TYR    SC2  606   1.816   1.478   4.976
    1TYR    SC3  607   1.996   1.289   5.046
    2ALA     BB  608   1.451   1.183   4.533
    3TYR     BB  609   1.434   1.504   4.625
    3TYR    SC1  610   1.233   1.472   4.867
    3TYR    SC2  611   1.119   1.564   5.094
    3TYR    SC3  612   1.000   1.366   4.954
    1TYR     BB  613   0.892   6.858   4.085
    1TYR    SC1  614   0.687   6.631   4.151
    1TYR    SC2  615   0.436   6.560   4.078
    1TYR    SC3  616   0.571   6.412   4.260
    2ALA     BB  617   1.083   6.948   4.341
    3TYR     BB  618   1.332   6.722   4.357
    3TYR    SC1  619   1.214   6.485   4.195
    3TYR    SC2  620   1.220   6.266   4.038
    3TYR    SC3  621   1.013   6.306   4.207
    1TYR     BB  622   4.561   4.140   2.978
    1TYR    SC1  623   4.565   3.834   3.057
    1TYR    SC2  624   4.507   3.662   3.257
    1TYR    SC3  625   4.682   3.591   3.064
    2ALA     BB  626   4.462   4.269   3.294
    3TYR     BB  627   4.269   4.081   3.419
    3TYR    SC1  628   4.363   3.887   3.651
    3TYR    SC2  629   4.428   3.815   3.903
    3TYR    SC3  630   4.387   3.626   3.715
    1TYR     BB  631   0.578   1.539   6.909
    1TYR    SC1  632   0.453   1.490   7.186
    1TYR    SC2  633   0.276   1.337   7.321
    1TYR    SC3  634   0.507   1.412   7.439
    2ALA     BB  635   0.808   1.289   6.912
    3TYR     BB  636   0.794   1.001   6.994
    3TYR    SC1  637   0.638   0.986   7.267
    3TYR    SC2  638   0.432   0.913   7.425
    3TYR    SC3  639   0.669   0.983   7.535
    1TYR     BB  640   3.612   2.354   1.923
    1TYR    SC1  641   3.901   2.246   1.986
    1TYR    SC2  642   4.134   2.111   1.983
    1TYR    SC3  643   4.134   2.379   2.015
    2ALA     BB  644   3.608   2.423   1.610
    3TYR     BB  645   3.918   2.399   1.506
    3TYR    SC1  646   4.069   2.639   1.632
    3TYR    SC2  647   4.196   2.866   1.558
    3TYR    SC3  648   4.191   2.792   1.818
    1TYR     BB  649   0.894   3.637   5.435
    1TYR    SC1  650   0.867   3.712   5.732
    1TYR    SC2  651   1.039   3.772   5.932
    1TYR    SC3  652   0.786   3.697   5.989
    2ALA     BB  653   0.671   3.840   5.265
    3TYR     BB  654   0.420   3.899   5.432
    3TYR    SC1  655   0.406   3.704   5.669
    3TYR    SC2  656   0.301   3.678   5.916
    3TYR    SC3  657   0.408   3.463   5.791
    1TYR     BB  658   0.930   5.811   2.671
    1TYR    SC1  659   0.842   5.524   2.577
    1TYR    SC2  660   0.973   5.290   2.606
    1TYR    SC3  661   0.733   5.296   2.483
    2ALA     BB  662   1.083   5.747   2.945
    3TYR     BB  663   1.332   5.546   2.883
    3TYR    SC1  664   1.240   5.274   3.002
    3TYR    SC2  665   1.278   5.011   3.052
    3TYR    SC3  666   1.029   5.106   3.013
    1TYR     BB  667   2.288   4.882   6.610
    1TYR    SC1  668   2.066   4.681   6.680
    1TYR    SC2  669   1.866   4.587   6.525
    1TYR    SC3  670   1.827   4.621   6.790
    2ALA     BB  671   2.071   5.096   6.433
    3TYR     BB  672   1.856   4.979   6.235
    3TYR    SC1  673   1.591   4.951   6.410
    3TYR    SC2  674   1.383   5.055   6.548
    3TYR    SC3  675   1.450   4.796   6.580
    1TYR     BB  676   2.762   3.788   2.181
    1TYR    SC1  677   2.748   4.052   2.022
    1TYR    SC2  678   2.628   4.145   1.798
    1TYR    SC3  679   2.611   4.285   2.029
    2ALA     BB  680   2.393   3.755   2.118
    3TYR     BB  681   2.198   4.010   2.143
    3TYR    SC1  682   2.186   4.186   1.902
    3TYR    SC2  683   2.186   4.237   1.637
    3TYR    SC3  684   2.233   4.436   1.812
    1TYR     BB  685   5.586   5.773   1.417
    1TYR    SC1  686   5.780   5.787   1.662
    1TYR    SC2  687   5.993   5.700   1.804
    1TYR    SC3  688   5.816   5.871   1.916
    2ALA     BB  689   5.680   5.514   1.234
    3TYR     BB  690   5.956   5.423   1.344
    3TYR    SC1  691   6.114   5.705   1.359
    3TYR    SC2  692   6.272   5.878   1.493
    3TYR    SC3  693   6.309   5.840   1.228
    1TYR     BB  694   4.166   4.508   5.190
    1TYR    SC1  695   4.240   4.221   5.233
    1TYR    SC2  696   4.309   3.964   5.189
    1TYR    SC3  697   4.441   4.109   5.374
    2ALA     BB  698   4.455   4.656   5.336
    3TYR     BB  699   4.539   4.579   5.616
    3TYR    SC1  700   4.756   4.387   5.725
    3TYR    SC2  701   4.994   4.260   5.712
    3TYR    SC3  702   4.887   4.323   5.952
    1TYR     BB  703   1.624   2.427   3.516
    1TYR    SC1  704   1.576   2.690   3.675
    1TYR    SC2  705   1.399   2.889   3.715
    1TYR    SC3  706   1.595   2.844   3.896
    2ALA     BB  707   1.362   2.354   3.410
    3TYR     BB  708   1.076   2.468   3.563
    3TYR    SC1  709   1.153   2.531   3.850
    3TYR    SC2  710   1.176   2.691   4.067
    3TYR    SC3  711   1.340   2.478   4.037
    1TYR     BB  712   1.362   1.784   0.229
    1TYR    SC1  713   1.553   1.616   0.408
    1TYR    SC2  714   1.515   1.416   0.585
    1TYR    SC3  715   1.758   1.530   0.561
    2ALA     BB  716   1.081   1.589   0.259
    3TYR     BB  717   1.131   1.261   0.254
    3TYR    SC1  718   1.423   1.227   0.162
    3TYR    SC2  719   1.586   1.074   0.010
    3TYR    SC3  720   1.641   1.336   0.045
    1TYR     BB  721   3.896   2.666   4.834
    1TYR    SC1  722   4.177   2.662   4.935
    1TYR    SC2  723   4.354   2.853   5.007
    1TYR    SC3  724   4.375   2.604   5.110
    2ALA     BB  725   3.750   2.914   4.907
    3TYR     BB  726   3.898   3.103   5.102
    3TYR    SC1  727   3.994   2.901   5.323
    3TYR    SC2  728   4.101   2.700   5.467
    3TYR    SC3  729   3.885   2.833   5.560
    1TYR     BB  730   6.074   6.740   6.799
    1TYR    SC1  731   5.789   6.658   6.881
    1TYR    SC2  732   5.567   6.564   6.759
    1TYR    SC3  733   5.604   6.523   7.023
    2ALA     BB  734   6.166   6.495   6.575
    3TYR     BB  735   5.925   6.269   6.574
    3TYR    SC1  736   5.918   6.198   6.882
    3TYR    SC2  737   5.977   5.976   7.025
    3TYR    SC3  738   5.913   6.205   7.152
    1TYR     BB  739   4.851   3.473   3.541
    1TYR    SC1  740   5.102   3.603   3.413
    1TYR    SC2  741   5.257   3.802   3.509
    1TYR    SC3  742   5.347   3.646   3.307
    2ALA     BB  743   4.860   3.563   3.821
    3TYR     BB  744   4.984   3.811   3.967
    3TYR    SC1  745   5.142   3.669   4.203
    3TYR    SC2  746   5.355   3.540   4.309
    3TYR    SC3  747   5.118   3.540   4.439
    1TYR     BB  748   6.926   6.866   4.924
    1TYR    SC1  749   6.911   6.824   4.629
    1TYR    SC2  750   6.952   6.606   4.476
    1TYR    SC3  751   6.796   6.807   4.385
    2ALA     BB  752   6.858   6.578   5.053
    3TYR     BB  753   6.686   6.378   4.863
    3TYR    SC1  754   6.519   6.575   4.696
    3TYR    SC2  755   6.326   6.688   4.545
    3TYR    SC3  756   6.427   6.821   4.757
    1TYR     BB  757   4.188   2.105   3.940
    1TYR    SC1  758   4.418   2.168   3.738
    1TYR    SC2  759   4.660   2.096   3.642
    1TYR    SC3  760   4.596   2.357   3.667
    2ALA     BB  761   3.932   1.998   3.778
    3TYR     BB  762   3.941   1.747   3.620
    3TYR    SC1  763   4.185   1.714   3.439
    3TYR    SC2  764   4.450   1.762   3.440
    3TYR    SC3  765   4.344   1.596   3.256
    1TYR     BB  766   1.262   5.452   1.784
    1TYR    SC1  767   1.396   5.180   1.697
    1TYR    SC2  768   1.621   5.056   1.615
    1TYR    SC3  769   1.422   4.913   1.728
    2ALA     BB  770   1.516   5.617   1.882
    3TYR     BB  771   1.762   5.688   1.694
    3TYR    SC1  772   1.911   5.422   1.688
    3TYR    SC2  773   2.027   5.218   1.556
    3TYR    SC3  774   2.072   5.251   1.820
    1TYR     BB  775   7.744   4.839   2.573
    1TYR    SC1  776   7.502   4.783   2.763
    1TYR    SC2  777   7.266   4.659   2.808
    1TYR    SC3  778   7.316   4.900   2.920
    2ALA     BB  779   0.003   4.840   2.764
    3TYR     BB  780   0.060   4.598   2.951
    3TYR    SC1  781   7.780   4.479   3.031
    3TYR    SC2  782   7.648   4.281   3.159
    3TYR    SC3  783   7.550   4.533   3.162
    1TYR     BB  784   7.030   7.093   4.025
    1TYR    SC1  785   6.724   7.035   3.989
    1TYR    SC2  786   6.469   7.047   3.900
    1TYR    SC3  787   6.576   6.810   3.975
    2ALA     BB  788   7.108   7.320   3.823
    3TYR     BB  789   6.901   7.549   3.732
    3TYR    SC1  790   6.658   7.393   3.615
    3TYR    SC2  791   6.397   7.386   3.548
    3TYR    SC3  792   6.557   7.177   3.489
    1TYR     BB  793   5.836   3.547   4.130
    1TYR    SC1  794   5.619   3.489   3.912
    1TYR    SC2  795   5.362   3.500   3.830
    1TYR    SC3  796   5.559   3.445   3.653
    2ALA     BB  797   5.735   3.853   4.234
    3TYR     BB  798   5.478   3.972   4.000
    3TYR    SC1  799   5.649   3.902   3.746
    3TYR    SC2  800   5.712   3.840   3.491
    3TYR    SC3  801   5.895   3.808   3.687
    1TYR     BB  802   5.741   1.968   2.532
    1TYR    SC1  803   5.425   1.942   2.529
    1TYR    SC2  804   5.238   1.990   2.339
    1TYR    SC3  805   5.198   1.796   2.523
    2ALA     BB  806   5.801   2.052   2.225
    3TYR     BB  807   5.578   2.119   2.018
    3TYR    SC1  808   5.559   1.950   1.774
    3TYR    SC2  809   5.650   1.922   1.521
    3TYR    SC3  810   5.440   1.775   1.606
    1TYR     BB  811   7.755   3.052   2.148
    1TYR    SC1  812   7.848   2.995   2.441
    1TYR    SC2  813   7.912   2.802   2.619
    1TYR    SC3  814   7.955   3.061   2.681
    2ALA     BB  815   7.815   2.791   1.954
    3TYR     BB  816   0.148   2.741   1.953
    3TYR    SC1  817   0.225   2.848   2.225
    3TYR    SC2  818   0.356   2.870   2.460
    3TYR    SC3  819   0.292   3.092   2.320
    1TYR     BB  820   5.113   5.173   7.471
    1TYR    SC1  821   4.810   5.132   7.550
    1TYR    SC2  822   4.577   5.024   7.465
    1TYR    SC3  823   4.575   5.224   7.646
    2ALA     BB  824   5.218   5.356   7.668
    3TYR     BB  825   5.126   5.333   7.977
    3TYR    SC1  826   4.836   5.446   7.982
    3TYR    SC2  827   4.582   5.438   0.074
    3TYR    SC3  828   4.648   5.607   7.875
    1TYR     BB  829   6.252   7.139   0.729
    1TYR    SC1  830   6.111   6.883   0.638
    1TYR    SC2  831   6.123   6.613   0.641
    1TYR    SC3  832   5.906   6.737   0.539
    2ALA     BB  833   6.211   7.127   1.067
    3TYR     BB  834   6.028   6.818   1.141
    3TYR    SC1  835   5.786   6.912   0.962
    3TYR    SC2  836   5.565   6.912   0.808
    3TYR    SC3  837   5.737   7.120   0.796
    1TYR     BB  838   7.823   2.187   3.215
    1TYR    SC1  839   7.632   1.986   3.051
    1TYR    SC2  840   7.396   1.859   3.018
    1TYR    SC3  841   7.577   1.862   2.818
    2ALA     BB  842   7.873   2.436   3.000
    3TYR     BB  843   7.727   2.356   2.729
    3TYR    SC1  844   7.421   2.301   2.776
    3TYR    SC2  845   7.191   2.248   2.907
    3TYR    SC3  846   7.230   2.150   2.659
    1TYR     BB  847   5.662   5.698   2.717
    1TYR    SC1  848   5.722   5.620   3.008
    1TYR    SC2  849   5.842   5.662   3.246
    1TYR    SC3  850   5.661   5.464   3.220
    2ALA     BB  851   5.466   5.948   2.699
    3TYR     BB  852   5.487   6.157   2.917
    3TYR    SC1  853   5.503   5.990   3.180
    3TYR    SC2  854   5.539   5.999   3.448
    3TYR    SC3  855   5.391   5.801   3.338
    1TYR     BB  856   4.710   2.754   5.428
    1TYR    SC1  857   4.660   2.624   5.702
    1TYR    SC2  858   4.608   2.681   5.961
    1TYR    SC3  859   4.695   2.435   5.891
    2ALA     BB  860   4.480   3.015   5.450
    3TYR     BB  861   4.560   3.176   5.673
    3TYR    SC1  862   4.789   3.068   5.832
    3TYR    SC2  863   5.003   2.909   5.788
    3TYR    SC3  864   4.991   3.060   6.011
    1TYR     BB  865   6.087   5.828   7.889
    1TYR    SC1  866   5.994   5.806   7.589
    1TYR    SC2  867   5.798   5.818   7.404
    1TYR    SC3  868   5.995   5.635   7.381
    2ALA     BB  869   6.337   5.586   7.881
    3TYR     BB  870   6.446   5.461   7.540
    3TYR    SC1  871   6.440   5.746   7.419
    3TYR    SC2  872   6.472   5.989   7.533
    3TYR    SC3  873   6.329   5.965   7.305
    1TYR     BB  874   6.333   5.602   3.341
    1TYR    SC1  875   6.648   5.556   3.361
    1TYR    SC2  876   6.896   5.505   3.452
    1TYR    SC3  877   6.863   5.625   3.213
    2ALA     BB  878   6.243   5.690   3.636
    3TYR     BB  879   6.341   5.454   3.831
    3TYR    SC1  880   6.642   5.455   3.861
    3TYR    SC2  881   6.883   5.572   3.898
    3TYR    SC3  882   6.820   5.348   4.035
    1TYR     BB  883   7.126   1.337   6.890
    1TYR    SC1  884   7.004   1.449   7.158
    1TYR    SC2  885   7.034   1.454   7.426
    1TYR    SC3  886   6.845   1.607   7.308
    2ALA     BB  887   7.457   1.391   6.840
    3TYR     BB  888   7.630   1.396   7.132
    3TYR    SC1  889   7.460   1.609   7.285
    3TYR    SC2  890   7.398   1.802   7.464
    3TYR    SC3  891   7.281   1.800   7.221
    1TYR     BB  892   1.010   0.749   3.349
    1TYR    SC1  893   0.813   0.806   3.587
    1TYR    SC2  894   0.619   0.966   3.684
    1TYR    SC3  895   0.775   0.825   3.853
    2ALA     BB  896   0.928   0.523   3.158
    3TYR     BB  897   0.620   0.456   3.097
    3TYR    SC1  898   0.475   0.533   3.367
    3TYR    SC2  899   0.304   0.693   3.502
    3TYR    SC3  900   0.459   0.517   3.636
    4W        W  901   0.335   1.961   2.165
    5W        W  902   3.940   5.619   1.625
    6W        W  903   4.869   7.394   1.865
    7W        W  904   3.920   4.146   0.384
    8W        W  905   5.136   0.135   4.090
    9W        W  906   3.617   7.426   2.243
   10W        W  907   2.562   3.279   3.079
   11W        W  908   3.098   5.730   3.256
   12W        W  909   3.624   7.288   4.903
   13W        W  910   3.480   6.667   2.723
   14W        W  911   3.004   3.511   6.225
   15W        W  912   6.531   2.704   3.313
   16W        W  913   0.981   6.535   5.947
   17W        W  914   3.452   6.813   4.736
   18W        W  915   7.218   3.412   3.659
   19W        W  916   5.745   6.462   3.364
   20W        W  917   7.123   3.320   1.974
   21W        W  918   3.869   2.001   1.132
   22W        W  919   4.146   3.738   1.089
   23W        W  920   3.326   5.699   3.710
   24W        W  921   2.681   6.049   3.275
   25W        W  922   5.299   4.744   0.174
   26W        W  923   4.017   5.211   1.263
   27W        W  924   0.436   3.159   4.208
   28W        W  925   2.128   5.858   4.916
   29W        W  926   5.196   2.541   5.500
   30W        W  927   3.068   0.810   4.730
   31W        W  928   1.592   4.172   3.554
   32W        W  929   7.729   6.657   3.412
   33W        W  930   0.296   1.347   3.294
   34W        W  931   0.558   4.565   4.122
   35W        W  932   7.879   6.335   5.634
   36W        W  933   3.253   2.017   1.828
   37W        W  934   4.310   0.555   4.068
   38W        W  935   3.597   5.971   1.340
   39W        W  936   3.549   4.046   2.712
   40W        W  937   3.515   3.265   0.567
   41W        W  938   2.879   6.967   2.414
   42W        W  939   1.570   7.122   5.158
   43W        W  940   5.255   0.327   3.611
   44W        W  941   2.398   0.903   3.897
   45W        W  942   3.857   4.368   6.785
   46W        W  943   4.490   6.367   2.615
   47W        W  944   5.608   4.304   4.852
   48W        W  945   5.653   1.384   3.121
   49W        W  946   4.801   5.727   6.359
   50W        W  947   0.631   2.380   6.260
   51W        W  948   4.880   1.435   0.450
   52W        W  949   1.237   5.594   2.293
   53W        W  950   3.017   6.946   0.647
   54W        W  951   1.046   3.609   4.053
   55W        W  952   3.765   0.486   1.427
   56W        W  953   6.472   1.147   3.915
   57W        W  954   1.702   0.800   3.437
   58W        W  955   3.806   7.343   3.116
   59W        W  956   1.345   7.137   1.825
   60W        W  957   1.946   6.233   3.755
   61W        W  958   5.222   5.696   1.070
   62W        W  959   2.156   4.368   2.506
   63W        W  960   6.054   1.501   4.740
   64W        W  961   0.766   1.379   7.889
   65W        W  962   1.500   7.044   1.229
   66W        W  963   3.444   3.543   4.445
   67W        W  964   3.064   3.971   0.452
   68W        W  965   4.860   0.445   2.390
   69W        W  966   3.267   3.596   5.279
   70W        W  967   6.344   6.147   2.591
   71W        W  968   6.666   0.617   0.427
   72W        W  969   3.388   1.239   7.072
   73W        W  970   6.000   1.352   0.520
   74W        W  971   6.975   3.212   0.932
   75W        W  972   5.787   4.952   6.953
   76W        W  973   2.103   2.449   1.730
   77W        W  974   5.824   4.781   0.199
   78W        W  975   6.020   5.260   6.593
   79W        W  976   1.557   1.751   1.578
   80W        W  977   0.298   1.163   7.859
   81W        W  978   6.041   2.114   1.769
   82W        W  979   5.352   5.923   3.903
   83W        W  980   5.238   2.727   1.479
   84W        W  981   5.986   7.568   0.860
   85W        W  982   7.941   6.611   4.909
   86W        W  983   0.670   0.503   0.837
   87W        W  984   1.069   1.865   4.577
   88W        W  985   1.871   1.097   7.149
   89W        W  986   4.066   4.263   3.826
   90W        W  987   5.340   7.157   3.032
   91W        W  988   5.980   5.671   5.401
   92W        W  989   4.808   3.971   4.422
   93W        W  990   7.923   3.825   5.635
   94W        W  991   2.433   3.529   0.724
   95W        W  992   5.091   4.784   4.316
   96W        W  993   1.856   0.355   1.229
   97W        W  994   5.741   4.254   1.312
   98W        W  995   2.385   2.234   2.159
   99W        W  996   0.698   4.105   3.946
  100W        W  997   2.305   4.588   6.215
  101W        W  998   6.094   5.003   1.608
  102W        W  999   0.270   5.183   1.917
  103W        W 1000   3.494   4.339   4.645
  104W        W 1001   3.634   5.510   5.573
  105W        W 1002   0.457   3.657   3.296
  106W        W 1003   2.735   4.462   5.917
  107W        W 1004   7.599   6.857   7.039
  108W        W 1005   3.007   4.377   0.123
  109W        W 1006   3.856   0.956   4.593
  110W        W 1007   3.427   4.992   4.810
  111W        W 1008   0.016   6.850   2.109
  112W        W 1009   3.891   1.515   7.882
  113W        W 1010   0.771   2.738   1.146
  114W        W 1011   5.283   7.113   5.141
  115W        W 1012   1.955   0.243   2.675
  116W        W 1013   0.901   7.274   1.622
  117W        W 1014   1.911   0.780   6.283
  118W        W 1015   5.594   0.657   6.285
  119W        W 1016   0.877   0.878   0.498
  120W        W 1017   2.615   6.466   7.077
  121W        W 1018   3.231   7.916   0.933
  122W        W 1019   3.715   4.485   2.937
  123W        W 1020   3.523   4.628   7.593
  124W        W 1021   2.580   4.932   3.246
  125W        W 1022   3.041   4.398   1.695
  126W        W 1023   1.189   5.894   4.906
  127W        W 1024   6.617   3.248   5.032
  128W        W 1025   3.624   4.601   5.084
  129W        W 1026   5.361   6.863   7.778
  130W        W 1027   3.495   0.795   2.277
  131W        W 1028   2.782   2.682   2.192
  132W        W 1029   4.208   2.948   5.921
  133W        W 1030   7.021   5.515   2.273
  134W        W 1031   6.398   7.349   5.651
  135W        W 1032   2.360   2.320   1.264
  136W        W 1033   0.927   5.499   3.361
  137W        W 1034   4.839   5.618   2.614
  138W        W 1035   3.356   6.929   1.045
  139W        W 1036   3.912   6.529   4.710
  140W        W 1037   4.045   3.694   0.574
  141W        W 1038   4.339   1.797   1.071
  142W        W 1039   1.304   2.026   5.938
  143W        W 1040   5.787   6.945   3.162
  144W        W 1041   3.203   4.418   2.815
  145W        W 1042   2.699   3.672   1.676
  146W        W 1043   3.539   4.474   2.424
  147W        W 1044   3.142   1.473   4.187
  148W        W 1045   7.072   5.372   1.749
  149W        W 1046   4.849   3.056   1.388
  150W        W 1047   4.019   3.299   1.325
  151W        W 1048   2.580   6.741   3.681
  152W        W 1049   4.850   6.960   7.254
  153W        W 1050   3.764   5.641   0.356
  154W        W 1051   5.973   6.044   2.921
  155W        W 1052   0.636   4.490   6.244
  156W        W 1053   1.007   4.661   1.886
  157W        W 1054   4.792   4.810   6.003
  158W        W 1055   3.551   7.129   3.503
  159W        W 1056   6.989   2.803   7.481
  160W        W 1057   5.641   5.518   0.701
  161W        W 1058   0.184   3.738   5.018
  162W        W 1059   2.738   4.853   1.111
  163W        W 1060   0.772   5.608   6.198
  164W        W 1061   1.528   0.780   6.642
  165W        W 1062   6.870   5.233   4.543
  166W        W 1063   0.300   6.242   1.746
  167W        W 1064   4.164   7.418   2.157
  168W        W 1065   5.737   1.355   0.091
  169W        W 1066   2.744   5.980   1.599
  170W        W 1067   2.340   5.610   2.540
  171W        W 1068   4.025   1.646   4.139
  172W        W 1069   3.708   3.102   0.009
  173W        W 1070   0.319   6.717   3.203
  174W        W 1071   3.697   3.522   0.973
  175W        W 1072   0.064   1.063   0.625
  176W        W 1073   1.496   6.214   5.127
  177W        W 1074   2.674   6.961   1.601
  178W        W 1075   6.426   5.386   1.523
  179W        W 1076   6.116   2.586   3.047
  180W        W 1077   6.243   1.430   0.050
  181W        W 1078   7.377   4.772   6.526
  182W        W 1079   3.188   3.963   3.080
  183W        W 1080   4.109   0.372   3.603
  184W        W 1081   7.300   5.307   4.157
  185W        W 1082   5.340   2.344   0.073
  186W        W 1083   4.647   3.969   6.329
  187W        W 1084   3.104   4.653   4.586
  188W        W 1085   5.807   3.384   4.612
  189W        W 1086   1.516   1.470   5.358
  190W        W 1087   3.122   7.410   2.377
  191W        W 1088   1.642   6.766   1.657
  192W        W 1089   1.072   1.981   3.412
  193W        W 1090   3.280   1.144   1.289
  194W        W 1091   1.126   3.519   2.258
  195W        W 1092   5.911   4.242   0.824
  196W        W 1093   7.097   4.192   2.093
  197W        W 1094   4.425   0.809   1.904
  198W        W 1095   1.214   2.699   2.716
  199W        W 1096   0.895   2.551   4.977
  200W        W 1097   2.611   0.784   4.378
  201W        W 1098   2.763   6.357   0.421
  202W        W 1099   0.436   2.228   1.746
  203W        W 1100   1.501   0.020   5.511
  204W        W 1101   5.326   7.476   4.746
  205W        W 1102   6.410   3.320   7.805
  206W        W 1103   5.987   2.416   4.896
  207W        W 1104   6.092   7.221   4.791
  208W        W 1105   3.404   3.834   4.035
  209W        W 1106   2.257   4.826   0.952
  210W        W 1107   5.349   6.674   4.431
  211W        W 1108   0.497   4.888   0.672
  212W        W 1109   0.932   3.437   2.751
  213W        W 1110   3.842   3.679   5.178
  214W        W 1111   4.448   6.164   6.263
  215W        W 1112   7.938   7.336   1.959
  216W        W 1113   5.183   6.808   3.973
  217W        W 1114   6.458   1.435   6.241
  218W        W 1115   5.647   0.144   3.970
  219W        W 1116   7.452   5.949   4.763
  220W        W 1117   5.454   0.513   6.947
  221W        W 1118   0.776   6.823   1.860
  222W        W 1119   0.935   4.571   0.238
  223W        W 1120   2.444   6.303   4.976
  224W        W 1121   2.240   2.674   4.096
  225W        W 1122   0.988   0.069   0.975
  226W        W 1123   0.274   0.793   4.027
  227W        W 1124   0.895   3.598   6.633
  228W        W 1125   3.954   0.743   0.973
  229W        W 1126   7.298   5.195   3.458
  230W        W 1127   7.379   2.633   7.198
  231W        W 1128   3.660   1.932   5.937
  232W        W 1129   5.665   7.295   7.908
  233W        W 1130   3.876   1.290   3.815
  234W        W 1131   1.424   4.707   2.190
  235W        W 1132   0.982   1.353   4.439
  236W        W 1133   6.122   7.051   0.173
  237W        W 1134   6.031   3.074   0.060
  238W        W 1135   2.573   5.898   4.663
  239W        W 1136   3.574   4.220   3.752
  240W        W 1137   2.922   2.178   2.180
  241W        W 1138   2.906   6.119   5.012
  242W        W 1139   7.853   5.665   4.546
  243W        W 1140   6.663   1.962   0.556
  244W        W 1141   7.329   6.574   1.582
  245W        W 1142   3.303   1.930   6.314
  246W        W 1143   7.783   2.373   6.782
  247W        W 1144   1.367   4.249   5.225
  248W        W 1145   1.796   4.673   0.747
  249W        W 1146   4.541   5.950   2.896
  250W        W 1147   1.128   2.494   7.720
  251W        W 1148   1.679   3.811   0.187
  252W        W 1149   2.406   5.091   4.133
  253W        W 1150   2.735   0.510   3.268
  254W        W 1151   6.240   3.640   4.490
  255W        W 1152   2.490   6.863   6.039
  256W        W 1153   1.919   3.056   4.204
  257W        W 1154   1.342   3.710   3.342
  258W        W 1155   5.990   1.464   6.020
  259W        W 1156   6.396   4.286   3.135
  260W        W 1157   2.148   4.141   3.601
  261W        W 1158   1.851   3.309   7.906
  262W        W 1159   0.801   0.206   1.821
  263W        W 1160   3.523   4.480   1.047
  264W        W 1161   2.929   4.024   4.017
  265W        W 1162   4.666   6.223   1.590
  266W        W 1163   1.791   1.982   5.234
  267W        W 1164   3.733   0.845   4.075
  268W        W 1165   2.231   3.975   0.876
  269W        W 1166   1.020   4.801   2.562
  270W        W 1167   5.069   6.993   1.597
  271W        W 1168   5.868   4.704   4.644
  272W        W 1169   5.567   3.253   2.637
  273W        W 1170   5.633   5.194   2.733
  274W        W 1171   7.403   5.568   3.126
  275W        W 1172   5.021   0.850   3.664
  276W        W 1173   5.603   4.462   6.523
  277W        W 1174   1.347   4.286   1.881
  278W        W 1175   6.839   5.048   3.641
  279W        W 1176   0.685   4.697   4.977
  280W        W 1177   7.450   6.311   4.377
  281W        W 1178   5.126   4.712   7.704
  282W        W 1179   1.650   3.475   1.180
  283W        W 1180   1.793   4.188   5.599
  284W        W 1181   6.744   7.119   2.659
  285W        W 1182   1.382   5.696   3.407
  286W        W 1183   5.051   3.941   7.623
  287W        W 1184   6.347   5.829   5.041
  288W        W 1185   3.225   4.336   7.267
  289W        W 1186   4.215   3.719   1.604
  290W        W 1187   5.608   6.050   7.807
  291W        W 1188   2.865   4.389   3.217
  292W        W 1189   3.756   3.802   1.393
  293W        W 1190   0.625   2.175   3.543
  294W        W 1191   5.596   5.978   5.488
  295W        W 1192   0.764   7.002   1.206
  296W        W 1193   1.636   1.645   1.081
  297W        W 1194   1.608   1.873   7.748
  298W        W 1195   0.349   5.543   2.262
  299W        W 1196   2.906   4.068   6.972
  300W        W 1197   0.927   5.069   1.620
  301W        W 1198   0.527   5.330   1.481
  302W        W 1199   4.576   6.974   4.713
  303W        W 1200   4.943   1.217   6.829
  304W        W 1201   2.971   2.011   3.342
  305W        W 1202   6.417   0.928   1.352
  306W        W 1203   0.616   4.134   3.427
  307W        W 1204   2.053   2.411   6.379
  308W        W 1205   3.158   3.893   1.796
  309W        W 1206   4.200   6.835   1.257
  310W        W 1207   5.036   3.100   0.454
  311W        W 1208   6.577   4.225   1.390
  312W        W 1209   0.834   3.689   7.138
  313W        W 1210   1.860   1.169   6.632
  314W        W 1211   0.627   6.737   5.041
  315W        W 1212   6.075   6.686   7.320
  316W        W 1213   4.749   4.442   6.461
  317W        W 1214   2.685   4.467   2.511
  318W        W 1215   5.789   3.727   2.677
  319W        W 1216   6.597   4.650   3.435
  320W        W 1217   4.844   5.573   1.650
  321W        W 1218   6.833   1.106   0.517
  322W        W 1219   1.707   1.455   2.479
  323W        W 1220   2.139   5.182   2.320
  324W        W 1221   3.430   1.241   4.726
  325W        W 1222   4.225   0.694   3.223
  326W        W 1223   2.170   6.777   3.130
  327W        W 1224   6.987   1.861   7.761
  328W        W 1225   1.148   4.391   7.759
  329W        W 1226   5.411   4.674   3.922
  330W        W 1227   0.617   2.426   6.772
  331W        W 1228   2.959   0.712   1.203
  332W        W 1229   3.310   5.587   7.489
  333W        W 1230   6.629   3.572   0.680
  334W        W 1231   5.043   1.618   7.121
  335W        W 1232   6.371   4.033   0.688
  336W        W 1233   6.682   6.165   1.194
  337W        W 1234   1.126   5.111   2.142
  338W        W 1235   5.058   2.266   3.407
  339W        W 1236   3.353   6.054   2.162
  340W        W 1237   6.313   3.952   6.405
  341W        W 1238   2.360   6.386   5.814
  342W        W 1239   1.425   3.939   2.237
  343W        W 1240   2.695   1.650   4.912
  344W        W 1241   6.231   1.512   6.705
  345W        W 1242   1.534   6.429   2.322
  346W        W 1243   0.728   1.816   0.995
  347W        W 1244   2.720   1.352   6.337
  348W        W 1245   3.349   1.820   2.909
  349W        W 1246   7.242   4.391   5.120
  350W        W 1247   5.809   1.170   5.098
  351W        W 1248   3.020   3.571   6.963
  352W        W 1249   6.097   7.202   7.570
  353W        W 1250   5.654   6.482   7.541
  354W        W 1251   1.696   0.988   2.258
  355W        W 1252   7.985   2.917   1.476
  356W        W 1253   2.432   5.201   1.294
  357W        W 1254   5.557   2.835   1.883
  358W        W 1255   5.769   3.436   3.160
  359W        W 1256   7.772   3.501   4.808
  360W        W 1257   5.142   5.829   7.812
  361W        W 1258   4.470   2.865   4.306
  362W        W 1259   1.291   4.524   1.441
  363W        W 1260   4.363   6.948   6.607
  364W        W 1261   2.616   5.762   6.586
  365W        W 1262   6.227   1.825   2.157
  366W        W 1263   5.361   1.661   3.430
  367W        W 1264   5.975   3.184   3.741
  368W        W 1265   4.815   5.250   7.070
  369W        W 1266   5.141   4.002   0.440
  370W        W 1267   4.530   3.180   0.521
  371W        W 1268   1.065   5.225   6.032
  372W        W 1269   4.782   1.426   2.488
  373W        W 1270   0.982   2.150   4.161
  374W        W 1271   7.069   3.053   4.888
  375W        W 1272   4.043   4.867   5.519
  376W        W 1273   5.230   1.656   0.732
  377W        W 1274   6.005   2.453   2.553
  378W        W 1275   2.363   5.392   4.951
  379W        W 1276   2.534   4.594   0.144
  380W        W 1277   2.321   2.941   0.575
  381W        W 1278   3.039   3.508   4.749
  382W        W 1279   0.383   4.211   4.912
  383W        W 1280   7.853   5.448   1.766
  384W        W 1281   5.236   1.579   5.171
  385W        W 1282   5.296   3.555   2.305
  386W        W 1283   7.634   3.511   6.946
  387W        W 1284   5.132   0.541   1.114
  388W        W 1285   1.186   1.587   3.145
  389W        W 1286   6.149   4.992   4.965
  390W        W 1287   4.502   0.995   6.909
  391W        W 1288   1.928   5.178   1.064
  392W        W 1289   7.416   1.511   0.960
  393W        W 1290   5.715   6.887   6.400
  394W        W 1291   0.834   3.020   2.472
  395W        W 1292   1.899   4.566   3.680
  396W        W 1293   6.853   6.609   1.347
  397W        W 1294   3.985   4.921   4.428
  398W        W 1295   6.934   1.734   1.715
  399W        W 1296   6.212   3.936   2.032
  400W        W 1297   3.550   1.473   3.475
  401W        W 1298   0.801   3.378   1.855
  402W        W 1299   1.092   0.685   5.177
  403W        W 1300   5.230   6.634   7.334
  404W        W 1301   5.019   4.820   2.250
  405W        W 1302   1.455   4.549   3.184
  406W        W 1303   5.433   6.715   1.847
  407W        W 1304   1.814   2.854   3.276
  408W        W 1305   2.883   4.270   7.622
  409W        W 1306   0.737   7.020   3.206
  410W        W 1307   5.994   5.764   6.548
  411W        W 1308   1.460   3.937   4.262
  412W        W 1309   3.802   2.373   5.746
  413W        W 1310   0.896   5.870   7.606
  414W        W 1311   0.800   1.991   5.743
  415W        W 1312   3.265   6.936   3.134
  416W        W 1313   2.623   3.676   0.244
  417W        W 1314   6.606   3.350   6.898
  418W        W 1315   4.822   1.150   1.696
  419W        W 1316   4.007   1.778   5.010
  420W        W 1317   6.176   2.344   7.171
  421W        W 1318   0.336   5.572   3.987
  422W        W 1319   2.155   0.773   0.829
  423W        W 1320   6.480   4.920   5.571
  424W        W 1321   0.324   5.859   6.935
  425W        W 1322   1.387   2.044   3.810
  426W        W 1323   7.617   2.039   2.331
  427W        W 1324   2.911   1.929   7.356
  428W        W 1325   0.965   3.968   4.374
  429W        W 1326   6.154   1.265   3.179
  430W        W 1327   3.623   2.553   4.444
  431W        W 1328   4.463   3.232   7.176
  432W        W 1329   5.219   3.206   1.714
  433W        W 1330   0.382   6.191   5.645
  434W        W 1331   3.376   6.359   3.121
  435W        W 1332   7.361   7.014   6.614
  436W        W 1333   1.366   3.965   1.462
  437W        W 1334   7.191   1.794   6.679
  438W        W 1335   0.783   2.242   1.337
  439W        W 1336   6.711   4.684   6.389
  440W        W 1337   4.064   7.031   3.453
  441W        W 1338   1.874   4.628   5.857
  442W        W 1339   5.824   0.812   6.751
  443W        W 1340   5.210   2.992   5.291
  444W        W 1341   2.595   4.945   7.396
  445W        W 1342   6.172   6.275   4.867
  446W        W 1343   0.682   1.801   0.495
  447W        W 1344   2.483   3.561   6.155
  448W        W 1345   7.236   4.907   1.153
  449W        W 1346   6.282   4.434   3.791
  450W        W 1347   4.518   6.253   4.220
  451W        W 1348   4.248   6.619   2.185
  452W        W 1349   4.892   3.887   5.380
  453W        W 1350   6.424   1.781   3.090
  454W        W 1351   1.020   1.311   7.369
  455W        W 1352   1.082   1.090   1.462
  456W        W 1353   3.514   0.371   4.004
  457W        W 1354   1.304   5.464   4.625
  458W        W 1355   2.708   0.548   1.634
  459W        W 1356   6.862   2.655   0.226
  460W        W 1357   1.582   0.676   7.160
  461W        W 1358   4.959   7.061   1.093
  462W        W 1359   1.743   5.640   5.698
  463W        W 1360   3.409   4.172   6.842
  464W        W 1361   5.855   3.444   5.678
  465W        W 1362   5.200   1.188   3.316
  466W        W 1363   7.591   3.397   3.249
  467W        W 1364   3.408   1.607   2.060
  468W        W 1365   5.873   2.016   0.779
  469W        W 1366   6.631   6.189   5.321
  470W        W 1367   0.314   1.102   6.844
  471W        W 1368   6.709   5.781   2.579
  472W        W 1369   3.125   3.547   3.753
  473W        W 1370   2.745   4.309   4.434
  474W        W 1371   0.211   6.983   6.199
  475W        W 1372   1.461   7.423   2.235
  476W        W 1373   1.702   2.999   5.204
  477W        W 1374   4.947   2.075   7.842
  478W        W 1375   6.298   7.856   3.207
  479W        W 1376   2.629   3.296   2.046
  480W        W 1377   5.840   7.405   0.393
  481W        W 1378   6.923   2.804   5.817
  482W        W 1379   2.552   2.792   3.734
  483W        W 1380   6.638   2.846   5.399
  484W        W 1381   1.375   3.317   0.794
  485W        W 1382   1.252   1.386   2.224
  486W        W 1383   6.552   1.497   4.851
  487W        W 1384   7.666   3.822   5.188
  488W        W 1385   0.752   4.362   4.577
  489W        W 1386   0.454   3.126   3.285
  490W        W 1387   4.359   6.806   6.093
  491W        W 1388   3.754   4.237   5.406
  492W        W 1389   3.704   2.758   7.641
  493W        W 1390   6.796   3.121   0.447
  494W        W 1391   1.715   5.564   2.446
  495W        W 1392   4.711   3.641   1.718
  496W        W 1393   3.316   6.814   5.319
  497W        W 1394   6.276   7.199   1.869
  498W        W 1395   6.838   7.080   5.743
  499W        W 1396   5.018   2.853   0.916
  500W        W 1397   2.100   5.609   1.267
  501W        W 1398   1.044   4.189   1.131
  502W        W 1399   6.519   6.744   0.373
  503W        W 1400   1.957   2.167   3.163
  504W        W 1401   2.873   5.340   7.557
  505W        W 1402   2.064   2.425   5.870
  506W        W 1403   5.615   3.242   5.112
  507W        W 1404   2.883   7.044   4.069
  508W        W 1405   4.604   1.007   3.924
  509W        W 1406   3.483   3.333   4.915
  510W        W 1407   3.071   1.333   2.787
  511W        W 1408   4.971   6.829   3.175
  512W        W 1409   0.236   6.634   5.385
  513W        W 1410   0.935   5.376   7.763
  514W        W 1411   4.973   6.087   2.474
  515W        W 1412   7.137   1.612   3.571
  516W        W 1413   3.541   3.354   2.089
  517W        W 1414   4.913   3.499   7.401
  518W        W 1415   3.013   1.255   5.006
  519W        W 1416   1.871   1.871   4.695
  520W        W 1417   1.275   4.614   0.930
  521W        W 1418   7.050   7.558   2.868
  522W        W 1419   0.109   3.589   6.750
  523W        W 1420   1.278   2.070   7.381
  524W        W 1421   4.956   4.510   3.680
  525W        W 1422   4.113   3.886   7.984
  526W        W 1423   4.952   3.072   7.098
  527W        W 1424   1.298   3.249   4.941
  528W        W 1425   6.529   6.706   6.238
  529W        W 1426   4.525   3.667   0.762
  530W        W 1427   4.849   6.750   7.751
  531W        W 1428   6.497   7.264   7.904
  532W        W 1429   7.670   6.651   1.202
  533W        W 1430   6.811   7.577   5.884
  534W        W 1431   5.808   5.941   5.023
  535W        W 1432   0.979   0.423   4.718
  536W        W 1433   5.884   0.235   0.807
  537W        W 1434   5.646   5.785   0.253
  538W        W 1435   2.729   3.565   2.671
  539W        W 1436   7.257   7.371   5.708
  540W        W 1437   6.056   1.089   1.706
  541W        W 1438   0.619   5.613   1.058
  542W        W 1439   0.400   3.333   4.762
  543W        W 1440   4.204   0.763   1.445
  544W        W 1441   5.257   4.335   7.353
  545W        W 1442   1.500   4.500   6.177
  546W        W 1443   1.310   5.850   5.474
  547W        W 1444   4.522   1.500   5.701
  548W        W 1445   4.097   4.211   1.285
  549W        W 1446   4.641   6.764   0.352
  550W        W 1447   1.871   6.243   6.531
  551W        W 1448   7.190   4.128   5.972
  552W        W 1449   7.738   5.295   2.816
  553W        W 1450   0.078   3.417   3.040
  554W        W 1451   1.968   5.896   6.880
  555W        W 1452   3.748   1.862   7.482
  556W        W 1453   5.358   3.549   0.882
  557W        W 1454   7.927   3.698   6.273
  558W        W 1455   7.604   5.638   6.981
  559W        W 1456   5.619   4.998   1.385
  560W        W 1457   6.172   5.179   7.194
  561W        W 1458   7.324   2.211   6.933
  562W        W 1459   4.701   5.088   5.200
  563W        W 1460   3.244   4.037   0.937
  564W        W 1461   3.057   5.306   3.562
  565W        W 1462   0.900   4.244   1.609
  566W        W 1463   0.581   4.147   5.855
  567W        W 1464   1.603   0.380   6.313
  568W        W 1465   2.605   1.912   2.492
  569W        W 1466   7.466   5.632   2.081
  570W        W 1467   5.835   0.872   0.649
  571W        W 1468   7.684   2.201   7.288
  572W        W 1469   5.036   3.554   1.338
  573W        W 1470   2.802   6.887   4.617
  574W        W 1471   1.832   3.203   5.666
  575W        W 1472   2.373   1.250   4.257
  576W        W 1473   4.361   1.018   2.859
  577W        W 1474   4.218   2.756   0.520
  578W        W 1475   5.129   5.204   6.527
  579W        W 1476   1.151   0.909   4.210
  580W        W 1477   4.570   5.585   5.223
  581W        W 1478   7.222   4.507   5.632
  582W        W 1479   0.360   5.330   6.393
  583W        W 1480   3.560   6.946   0.586
  584W        W 1481   0.365   5.502   4.493
  585W        W 1482   2.240   1.167   6.279
  586W        W 1483   2.196   6.559   5.357
  587W        W 1484   7.095   1.112   0.937
  588W        W 1485   2.177   3.089   2.808
  589W        W 1486   1.821   5.119   6.853
  590W        W 1487   4.805   5.259   2.973
  591W        W 1488   5.518   3.840   6.304
  592W        W 1489   7.119   3.040   1.420
  593W        W 1490   3.006   5.818   5.399
  594W        W 1491   1.276   1.289   1.027
  595W        W 1492   3.290   7.586   1.870
  596W        W 1493   4.210   4.171   7.107
  597W        W 1494   1.547   7.082   4.639
  598W        W 1495   5.756   1.422   1.384
  599W        W 1496   3.237   1.213   6.342
  600W        W 1497   3.546   3.429   6.315
  601W        W 1498   5.076   1.334   6.331
  602W        W 1499   4.707   6.693   1.348
  603W        W 1500   2.386   3.182   4.076
  604W        W 1501   5.320   6.954   6.927
  605W        W 1502   1.440   4.907   5.868
  606W        W 1503   1.638   2.323   4.769
  607W        W 1504   5.119   6.194   6.368
  608W        W 1505   6.729   1.411   7.834
  609W        W 1506   3.059   4.515   6.722
  610W        W 1507   6.050   1.492   7.235
  611W        W 1508   4.640   3.236   4.681
  612W        W 1509   7.680   6.617   4.038
  613W        W 1510   5.186   2.177   1.435
  614W        W 1511   2.243   7.215   6.839
  615W        W 1512   2.823   5.762   3.715
  616W        W 1513   3.290   2.328   3.133
  617W        W 1514   7.589   1.035   0.830
  618W        W 1515   0.343   6.400   6.370
  619W        W 1516   0.400   1.959   6.114
  620W        W 1517   5.322   0.368   2.069
  621W        W 1518   3.267   2.705   6.862
  622W        W 1519   4.169   1.651   7.307
  623W        W 1520   1.017   5.269   6.947
  624W        W 1521   6.282   3.510   7.285
  625W        W 1522   5.712   1.533   7.629
  626W        W 1523   4.930   5.023   4.743
  627W        W 1524   1.628   7.094   5.664
  628W        W 1525   3.796   3.879   6.979
  629W        W 1526   6.106   3.420   5.037
  630W        W 1527   1.681   4.772   1.219
  631W        W 1528   5.579   6.266   4.213
  632W        W 1529   2.056   1.642   3.341
  633W        W 1530   6.137   0.514   0.446
  634W        W 1531   4.662   4.524   7.731
  635W        W 1532   2.957   3.568   4.236
  636W        W 1533   6.854   0.641   3.583
  637W        W 1534   0.889   3.385   3.250
  638W        W 1535   0.837   2.863   7.437
  639W        W 1536   7.656   4.249   5.726
  640W        W 1537   3.761   2.067   4.263
  641W        W 1538   5.553   6.956   0.274
  642W        W 1539   5.253   3.462   6.997
  643W        W 1540   6.378   1.850   7.068
  644W        W 1541   4.694   4.803   3.995
  645W        W 1542   7.624   7.201   5.391
  646W        W 1543   6.348   5.332   5.295
  647W        W 1544   2.546   0.265   6.537
  648W        W 1545   3.466   0.721   1.087
  649W        W 1546   2.986   2.458   4.897
  650W        W 1547   4.393   6.490   7.689
  651W        W 1548   6.938   6.858   3.585
  652W        W 1549   5.370   4.760   4.755
  653W        W 1550   5.322   4.889   1.785
  654W        W 1551   4.380   5.482   2.785
  655W        W 1552   1.002   0.858   0.997
  656W        W 1553   3.738   0.864   1.796
  657W        W 1554   3.810   5.753   4.547
  658W        W 1555   6.521   1.067   4.488
  659W        W 1556   2.120   3.732   7.939
  660W        W 1557   4.467   7.132   0.952
  661W        W 1558   5.560   5.482   6.482
  662W        W 1559   0.959   3.916   1.989
  663W        W 1560   0.623   1.277   1.634
  664W        W 1561   6.605   4.181   1.881
  665W        W 1562   6.923   6.186   5.744
  666W        W 1563   5.351   1.846   6.345
  667W        W 1564   1.661   4.929   3.448
  668W        W 1565   1.962   3.098   1.398
  669W        W 1566   1.874   4.319   7.179
  670W        W 1567   1.154   3.393   6.239
  671W        W 1568   5.122   5.184   2.570
  672W        W 1569   4.770   2.830   2.465
  673W        W 1570   5.567   7.788   0.645
  674W        W 1571   1.480   5.467   6.923
  675W        W 1572   7.546   6.630   2.040
  676W        W 1573   6.907   5.699   4.386
  677W        W 1574   4.621   6.848   2.827
  678W        W 1575   1.680   5.168   4.413
  679W        W 1576   4.642   3.521   4.263
  680W        W 1577   1.837   5.935   3.372
  681W        W 1578   4.433   6.511   4.827
  682W        W 1579   2.914   5.109   4.904
  683W        W 1580   3.262   0.336   2.355
  684W        W 1581   6.596   1.056   2.342
  685W        W 1582   2.558   5.579   6.130
  686W        W 1583   3.779   1.332   7.409
  687W        W 1584   5.251   1.226   2.361
  688W        W 1585   1.121   5.824   3.833
  689W        W 1586   4.207   4.918   2.200
  690W        W 1587   3.253   5.389   5.223
  691W        W 1588   3.477   6.137   2.641
  692W        W 1589   7.238   2.620   4.647
  693W        W 1590   5.437   3.648   4.831
  694W        W 1591   3.127   6.115   0.132
  695W        W 1592   3.770   3.933   6.443
  696W        W 1593   1.683   1.329   3.518
  697W        W 1594   7.101   3.977   4.381
  698W        W 1595   5.922   5.239   4.013
  699W        W 1596   2.744   3.811   6.570
  700W        W 1597   4.685   2.734   0.316
  701W        W 1598   3.825   1.042   2.620
  702W        W 1599   4.804   0.848   3.182
  703W        W 1600   6.363   3.994   3.559
  704W        W 1601   5.233   6.402   3.270
  705W        W 1602   4.307   4.861   7.918
  706W        W 1603   1.478   5.330   7.865
  707W        W 1604   1.367   4.442   5.689
  708W        W 1605   6.965   3.093   2.794
  709W        W 1606   5.042   6.305   4.107
  710W        W 1607   5.808   4.327   3.933
  711W        W 1608   7.047   5.883   1.001
  712W        W 1609   6.727   3.542   0.167
  713W        W 1610   7.831   0.807   3.707
  714W        W 1611   0.266   1.998   0.875
  715W        W 1612   3.099   4.320   2.220
  716W        W 1613   6.942   3.009   3.441
  717W        W 1614   6.040   4.760   6.504
  718W        W 1615   7.963   5.696   2.586
  719W        W 1616   5.238   5.528   2.925
  720W        W 1617   4.751   1.932   2.314
  721W        W 1618   0.352   1.752   2.960
  722W        W 1619   0.140   5.613   1.320
  723W        W 1620   3.586   0.742   7.966
  724W        W 1621   6.139   6.140   5.400
  725W        W 1622   1.156   3.311   1.287
  726W        W 1623   3.557   1.328   2.988
  727W        W 1624   1.277   3.549   1.771
  728W        W 1625   1.030   5.479   1.334
  729W        W 1626   6.046   0.958   0.179
  730W        W 1627   7.387   6.844   4.434
  731W        W 1628   5.095   7.001   2.126
  732W        W 1629   2.738   2.546   6.823
  733W        W 1630   0.538   4.270   1.235
  734W        W 1631   5.741   5.486   4.428
  735W        W 1632   5.926   6.543   1.696
  736W        W 1633   5.106   2.125   2.920
  737W        W 1634   0.513   1.228   0.343
  738W        W 1635   5.327   5.713   1.861
  739W        W 1636   3.152   1.544   1.587
  740W        W 1637   7.459   3.513   5.539
  741W        W 1638   0.701   2.564   2.676
  742W        W 1639   1.843   3.756   3.469
  743W        W 1640   3.548   7.101   1.853
  744W        W 1641   6.208   3.215   6.026
  745W        W 1642   3.731   4.299   7.274
  746W        W 1643   5.609   4.239   2.552
  747W        W 1644   2.537   5.344   2.067
  748W        W 1645   5.626   7.604   3.910
  749W        W 1646   3.065   6.104   1.210
  750W        W 1647   3.845   3.877   7.527
  751W        W 1648   4.852   1.005   7.334
  752W        W 1649   4.077   7.936   2.002
  753W        W 1650   5.279   2.676   3.176
  754W        W 1651   5.299   7.379   0.856
  755W        W 1652   4.978   2.098   7.287
  756W        W 1653   3.643   3.675   3.041
  757W        W 1654   0.751   1.559   2.066
  758W        W 1655   3.496   5.975   7.207
  759W        W 1656   1.619   6.581   3.922
  760W        W 1657   1.681   1.486   3.000
  761W        W 1658   7.444   1.640   1.451
  762W        W 1659   2.160   3.891   0.400
  763W        W 1660   2.529   2.568   6.272
  764W        W 1661   4.141   0.614   6.888
  765W        W 1662   6.993   2.598   4.203
  766W        W 1663   3.306   0.700   1.568
  767W        W 1664   6.361   3.870   4.975
  768W        W 1665   3.002   6.879   6.204
  769W        W 1666   5.940   1.748   4.280
  770W        W 1667   7.088   5.491   6.313
  771W        W 1668   1.073   6.990   4.874
  772W        W 1669   1.759   3.491   1.663
  773W        W 1670   4.626   5.236   3.652
  774W        W 1671   4.104   4.398   5.717
  775W        W 1672   5.070   0.984   4.166
  776W        W 1673   3.559   7.934   2.155
  777W        W 1674   3.288   0.575   3.170
  778W        W 1675   1.885   2.103   1.389
  779W        W 1676   3.032   5.707   4.400
  780W        W 1677   5.596   4.502   7.763
  781W        W 1678   2.450   5.860   7.047
  782W        W 1679   3.956   1.903   5.534
  783W        W 1680   3.153   4.022   3.568
  784W        W 1681   3.243   1.233   2.345
  785W        W 1682   4.831   1.001   2.177
  786W        W 1683   0.358   4.871   3.719
  787W        W 1684   6.533   2.402   6.295
  788W        W 1685   4.768   6.458   7.336
  789W        W 1686   6.910   0.819   2.657
  790W        W 1687   6.747   7.974   2.824
  791W        W 1688   1.333   6.724   6.746
  792W        W 1689   2.260   5.696   3.068
  793W        W 1690   1.453   1.598   7.288
  794W        W 1691   6.262   7.508   5.182
  795W        W 1692   3.844   6.312   2.943
  796W        W 1693   1.210   5.536   7.354
  797W        W 1694   4.069   0.609   2.712
  798W        W 1695   0.115   7.224   6.643
  799W        W 1696   5.751   3.522   7.090
  800W        W 1697   1.738   6.732   6.296
  801W        W 1698   6.425   6.022   6.670
  802W        W 1699   4.188   4.681   1.679
  803W        W 1700   3.438   3.861   4.880
  804W        W 1701   4.257   4.386   2.111
  805W        W 1702   7.617   6.230   5.159
  806W        W 1703   3.888   2.189   4.726
  807W        W 1704   4.962   0.698   6.960
  808W        W 1705   1.094   2.150   0.516
  809W        W 1706   5.701   6.321   4.695
  810W        W 1707   3.372   6.935   2.296
  811W        W 1708   7.204   6.394   1.043
  812W        W 1709   6.360   2.807   4.982
  813W        W 1710   7.041   5.876   1.894
  814W        W 1711   6.168   2.228   5.661
  815W        W 1712   1.764   5.491   6.511
  816W        W 1713   0.762   5.110   1.074
  817W        W 1714   3.994   5.912   7.172
  818W        W 1715   1.792   2.508   5.244
  819W        W 1716   7.094   6.107   5.105
  820W        W 1717   2.329   1.858   2.974
  821W        W 1718   2.865   6.584   5.778
  822W        W 1719   1.490   4.069   3.021
  823W        W 1720   3.437   6.486   1.394
  824W        W 1721   5.724   3.827   2.157
  825W        W 1722   4.169   7.026   2.963
  826W        W 1723   2.546   5.846   2.131
  827W        W 1724   1.554   6.868   3.493
  828W        W 1725   1.435   6.077   3.091
  829W        W 1726   5.926   4.288   3.434
  830W        W 1727   5.415   4.139   0.856
  831W        W 1728   7.091   7.841   2.421
  832W        W 1729   4.231   1.200   2.360
  833W        W 1730   3.633   2.923   7.134
  834W        W 1731   3.613   1.159   0.859
  835W        W 1732   4.989   2.104   0.927
  836W        W 1733   5.809   1.943   4.735
  837W        W 1734   3.943   1.540   0.868
  838W        W 1735   4.121   1.946   6.147
  839W        W 1736   2.446   5.305   5.719
  840W        W 1737   5.304   4.478   1.474
  841W        W 1738   0.140   3.041   5.641
  842W        W 1739   5.442   3.710   5.796
  843W        W 1740   4.936   6.463   4.994
  844W        W 1741   0.591   3.383   3.730
  845W        W 1742   3.084   1.144   7.494
  846W        W 1743   0.914   3.105   4.034
  847W        W 1744   3.539   0.801   4.984
  848W        W 1745   4.562   7.168   3.246
  849W        W 1746   2.531   6.096   6.199
  850W        W 1747   2.681   3.310   6.601
  851W        W 1748   2.623   7.055   6.503
  852W        W 1749   6.843   7.459   5.372
  853W        W 1750   5.579   5.968   6.332
  854W        W 1751   6.574   2.354   4.335
  855W        W 1752   1.787   4.340   2.158
  856W        W 1753   1.919   2.045   3.658
  857W        W 1754   3.599   5.086   7.341
  858W        W 1755   5.995   2.898   0.687
  859W        W 1756   6.704   2.195   1.774
  860W        W 1757   4.804   7.532   6.399
  861W        W 1758   1.518   2.776   2.298
  862W        W 1759   5.332   2.460   1.035
  863W        W 1760   6.388   2.796   0.357
  864W        W 1761   4.096   1.094   0.634
  865W        W 1762   1.826   1.012   0.453
  866W        W 1763   4.938   3.517   5.723
  867W        W 1764   6.868   3.011   2.298
  868W        W 1765   7.261   3.469   4.667
  869W        W 1766   4.060   3.036   6.920
  870W        W 1767   1.413   0.629   3.027
  871W        W 1768   1.202   0.685   6.245
  872W        W 1769   0.901   2.950   3.540
  873W        W 1770   1.897   4.828   7.269
  874W        W 1771   5.389   1.026   6.940
  875W        W 1772   6.381   3.638   2.398
  876W        W 1773   4.801   4.495   0.246
  877W        W 1774   6.859   6.790   1.814
  878W        W 1775   3.733   4.499   1.534
  879W        W 1776   4.166   1.448   5.345
  880W        W 1777   0.844   5.164   6.483
  881W        W 1778   0.448   3.633   6.370
  882W        W 1779   2.319   7.594   0.894
  883W        W 1780   1.000   1.127   6.081
  884W        W 1781   6.826   6.271   2.657
  885W        W 1782   3.752   1.854   6.542
  886W        W 1783   5.267   4.653   5.888
  887W        W 1784   0.963   3.429   7.570
  888W        W 1785   1.320   0.168   1.779
  889W        W 1786   5.331   7.410   0.338
  890W        W 1787   5.253   5.083   5.141
  891W        W 1788   3.321   4.760   1.928
  892W        W 1789   5.696   2.795   1.137
  893W        W 1790   4.434   1.864   5.339
  894W        W 1791   6.938   0.940   1.390
  895W        W 1792   0.044   1.956   2.611
  896W        W 1793   3.182   6.664   4.311
  897W        W 1794   2.681   6.978   7.014
  898W        W 1795   1.272   0.691   0.200
  899W        W 1796   7.806   3.257   6.501
  900W        W 1797   3.287   3.434   5.779
  901W        W 1798   4.524   5.314   4.783
  902W        W 1799   3.136   5.185   4.440
  903W        W 1800   6.748   6.259   6.232
  904W        W 1801   4.434   2.635   3.271
  905W        W 1802   2.769   6.614   7.542
  906W        W 1803   1.036   0.298   5.530
  907W        W 1804   2.025   1.458   5.518
  908W        W 1805   1.455   0.843   1.219
  909W        W 1806   4.895   3.342   0.885
  910W        W 1807   6.803   3.282   7.389
  911W        W 1808   7.913   6.573   6.108
  912W        W 1809   4.801   4.945   0.009
  913W        W 1810   3.026   6.559   3.852
  914W        W 1811   6.543   1.854   0.026
  915W        W 1812   1.223   5.513   6.462
  916W        W 1813   0.522   7.004   2.371
  917W        W 1814   2.259   3.610   2.895
  918W        W 1815   5.324   4.739   6.848
  919W        W 1816   3.841   5.721   6.722
  920W        W 1817   4.400   5.731   1.880
  921W        W 1818   0.286   4.351   3.748
  922W        W 1819   6.558   2.268   3.045
  923W        W 1820   1.597   2.489   6.090
  924W        W 1821   5.848   3.994   5.734
  925W        W 1822   7.007   1.448   1.288
  926W        W 1823   3.990   3.467   7.230
  927W        W 1824   6.043   0.130   7.995
  928W        W 1825   5.071   6.990   4.715
  929W        W 1826   0.904   4.211   5.025
  930W        W 1827   0.534   4.390   5.373
  931W        W 1828   4.618   2.337   7.553
  932W        W 1829   4.414   4.659   2.981
  933W        W 1830   2.990   5.429   0.043
  934W        W 1831   3.325   2.882   3.211
  935W        W 1832   3.875   0.295   2.337
  936W        W 1833   6.343   1.910   4.600
  937W        W 1834   4.703   5.814   1.219
  938W        W 1835   6.801   3.242   3.991
  939W        W 1836   5.529   2.167   4.251
  940W        W 1837   6.318   6.304   3.818
  941W        W 1838   5.735   1.671   5.160
  942W        W 1839   7.999   5.064   6.682
  943W        W 1840   6.145   3.032   1.171
  944W        W 1841   1.275   0.374   1.288
  945W        W 1842   1.746   5.258   5.284
  946W        W 1843   3.111   4.675   5.093
  947W        W 1844   0.627   3.222   1.383
  948W        W 1845   1.352   5.857   1.463
  949W        W 1846   4.679   0.302   1.092
  950W        W 1847   3.821   1.237   5.042
  951W        W 1848   5.069   7.472   1.378
  952W        W 1849   3.109   1.522   3.238
  953W        W 1850   6.811   5.092   1.367
  954W        W 1851   6.283   5.765   2.214
  955W        W 1852   3.026   4.234   4.866
  956W        W 1853   2.928   2.852   6.491
  957W        W 1854   0.478   2.724   1.571
  958W        W 1855   5.461   3.012   0.727
  959W        W 1856   6.725   1.605   3.893
  960W        W 1857   0.521   4.907   5.425
  961W        W 1858   6.052   1.156   1.017
  962W        W 1859   3.429   2.654   2.763
  963W        W 1860   1.434   1.058   5.063
  964W        W 1861   2.694   4.982   3.729
  965W        W 1862   5.750   2.884   2.360
  966W        W 1863   6.096   6.275   4.304
  967W        W 1864   2.583   2.664   0.932
  968W        W 1865   3.248   3.605   2.728
  969W        W 1866   6.749   1.462   5.359
  970W        W 1867   5.312   0.764   7.376
  971W        W 1868   4.640   6.881   5.646
  972W        W 1869   3.018   2.670   3.908
  973W        W 1870   2.327   6.081   1.347
  974W        W 1871   0.801   5.836   2.183
  975W        W 1872   0.154   4.044   7.574
  976W        W 1873   7.220   5.917   6.054
  977W        W 1874   7.301   7.043   1.798
  978W        W 1875   4.097   3.034   7.481
  979W        W 1876   1.222   5.876   4.360
  980W        W 1877   3.687   0.289   0.921
  981W        W 1878   7.153   2.197   2.148
  982W        W 1879   6.882   4.512   2.461
  983W        W 1880   2.152   1.221   2.210
  984W        W 1881   6.855   7.157   6.576
  985W        W 1882   3.217   5.712   2.763
  986W        W 1883   6.473   3.486   6.393
  987W        W 1884   4.558   7.159   1.488
  988W        W 1885   1.816   5.448   4.813
  989W        W 1886   4.738   6.348   0.077
  990W        W 1887   4.277   6.537   3.038
  991W        W 1888   6.101   6.297   7.659
  992W        W 1889   6.247   7.337   2.701
  993W        W 1890   0.940   4.638   3.182
  994W        W 1891   1.925   0.899   4.207
  995W        W 1892   5.498   2.460   2.359
  996W        W 1893   5.184   4.273   7.991
  997W        W 1894   2.813   3.609   3.372
  998W        W 1895   3.992   0.636   7.400
  999W        W 1896   5.328   3.190   3.080
 1000W        W 1897   5.375   5.420   4.064
 1001W        W 1898   7.950   5.600   6.602
 1002W        W 1899   4.739   4.227   0.684
 1003W        W 1900   7.801   1.503   0.631
 1004W        W 1901   0.578   7.336   6.439
 1005W        W 1902   3.836   5.874   5.860
 1006W        W 1903   2.782   4.781   6.381
 1007W        W 1904   1.727   5.774   5.203
 1008W        W 1905   4.951   4.447   3.179
 1009W        W 1906   3.205   6.301   5.478
 1010W        W 1907   1.822   3.680   5.532
 1011W        W 1908   1.662   3.168   4.619
 1012W        W 1909   6.521   2.950   0.839
 1013W        W 1910   3.240   3.154   7.856
 1014W        W 1911   7.544   3.162   1.695
 1015W        W 1912   5.447   2.138   3.707
 1016W        W 1913   2.293   3.039   6.379
 1017W        W 1914   6.072   0.192   3.642
 1018W        W 1915   6.855   3.082   7.914
 1019W        W 1916   1.822   6.801   2.498
 1020W        W 1917   2.734   4.894   6.894
 1021W        W 1918   2.673   3.823   4.610
 1022W        W 1919   0.666   1.715   4.281
 1023W        W 1920   1.468   3.078   1.606
 1024W        W 1921   3.794   1.769   3.130
 1025W        W 1922   1.766   3.395   2.572
 1026W        W 1923   4.211   7.516   3.377
 1027W        W 1924   7.349   5.643   3.741
 1028W        W 1925   3.469   3.114   5.392
 1029W        W 1926   3.173   0.416   0.810
 1030W        W 1927   4.506   0.892   7.702
 1031W        W 1928   0.998   4.131   7.333
 1032W        W 1929   5.285   0.728   2.427
 1033W        W 1930   1.158   3.977   6.865
 1034W        W 1931   4.732   0.707   1.424
 1035W        W 1932   2.681   6.275   7.919
 1036W        W 1933   5.202   5.602   0.421
 1037W        W 1934   3.481   4.573   0.109
 1038W        W 1935   3.307   5.235   1.692
 1039W        W 1936   5.300   2.361   6.556
 1040W        W 1937   4.823   1.636   1.043
 1041W        W 1938   2.111   5.983   7.409
 1042W        W 1939   2.957   5.783   7.189
 1043W        W 1940   4.869   5.979   5.132
 1044W        W 1941   2.368   7.469   6.273
 1045W        W 1942   1.662   0.629   0.811
 1046W        W 1943   0.748   6.939   6.162
 1047W        W 1944   1.396   1.858   2.368
 1048W        W 1945   5.369   2.132   0.586
 1049W        W 1946   2.909   4.884   1.590
 1050W        W 1947   2.067   0.723   2.485
 1051W        W 1948   6.346   6.594   5.217
 1052W        W 1949   4.547   4.618   2.458
 1053W        W 1950   0.899   3.767   3.594
 1054W        W 1951   5.067   6.465   6.876
 1055W        W 1952   5.795   1.619   6.450
 1056W        W 1953   7.425   2.511   3.259
 1057W        W 1954   1.802   2.827   6.539
 1058W        W 1955   0.604   3.815   4.694
 1059W        W 1956   1.066   1.559   5.695
 1060W        W 1957   0.437   4.600   3.285
 1061W        W 1958   3.704   3.185   5.869
 1062W        W 1959   5.133   6.477   1.493
 1063W        W 1960   3.848   2.136   7.014
 1064W        W 1961   0.535   3.672   4.168
 1065W        W 1962   0.495   3.742   2.794
 1066W        W 1963   5.031   6.280   5.508
 1067W        W 1964   1.784   4.238   4.499
 1068W        W 1965   1.257   1.548   6.154
 1069W        W 1966   5.296   4.785   3.451
 1070W        W 1967   4.871   7.395   5.022
 1071W        W 1968   1.403   4.790   7.959
 1072W        W 1969   0.932   2.039   5.058
 1073W        W 1970   1.992   0.267   0.701
 1074W        W 1971   6.428   3.773   1.580
 1075W        W 1972   3.352   2.285   4.056
 1076W        W 1973   1.291   6.536   3.212
 1077W        W 1974   0.389   0.714   0.435
 1078W        W 1975   7.217   0.770   0.577
 1079W        W 1976   1.368   2.633   1.833
 1080W        W 1977   0.510   4.785   1.672
 1081W        W 1978   3.432   7.740   2.624
 1082W        W 1979   5.844   0.612   3.884
 1083W        W 1980   5.920   2.108   3.889
 1084W        W 1981   1.371   3.530   6.805
 1085W        W 1982   5.996   2.115   2.953
 1086W        W 1983   0.692   0.745   4.397
 1087W        W 1984   1.531   2.076   4.326
 1088W        W 1985   6.069   1.866   1.291
 1089W        W 1986   4.476   1.513   1.496
 1090W        W 1987   0.287   1.240   6.053
 1091W        W 1988   2.650   1.604   5.875
 1092W        W 1989   7.328   0.849   3.466
 1093W        W 1990   4.862   5.745   2.119
 1094W        W 1991   6.811   7.813   3.309
 1095W        W 1992   0.663   1.693   3.363
 1096W        W 1993   5.929   4.785   7.435
 1097W        W 1994   1.346   2.033   2.959
 1098W        W 1995   3.464   5.258   0.268
 1099W        W 1996   3.285   1.109   1.870
 1100W        W 1997   5.336   6.137   5.086
 1101W        W 1998   6.139   4.331   4.865
 1102W        W 1999   6.007   7.665   3.603
 1103W        W 2000   4.022   0.802   5.220
 1104W        W 2001   7.227   2.223   5.095
 1105W        W 2002   2.669   0.556   0.796
 1106W        W 2003   0.787   6.289   1.934
 1107W        W 2004   5.940   3.026   4.241
 1108W        W 2005   3.472   1.243   7.826
 1109W        W 2006   3.575   0.443   2.741
 1110W        W 2007   3.201   2.961   2.027
 1111W        W 2008   6.686   4.162   4.055
 1112W        W 2009   2.270   5.077   7.053
 1113W        W 2010   3.918   4.496   0.746
 1114W        W 2011   3.605   6.120   3.539
 1115W        W 2012   0.357   1.693   1.751
 1116W        W 2013   5.580   1.478   2.638
 1117W        W 2014   6.561   2.559   7.388
 1118W        W 2015   3.152   6.471   2.382
 1119W        W 2016   1.754   7.812   0.584
 1120W        W 2017   6.485   2.316   0.193
 1121W        W 2018   3.407   6.094   7.686
 1122W        W 2019   6.915   7.311   4.454
 1123W        W 2020   4.727   3.472   6.223
 1124W        W 2021   4.013   7.034   4.665
 1125W        W 2022   4.726   6.124   4.677
 1126W        W 2023   7.950   1.628   2.231
 1127W        W 2024   1.077   3.019   7.850
 1128W        W 2025   2.731   3.094   6.110
 1129W        W 2026   0.208   3.213   6.208
 1130W        W 2027   3.986   2.285   5.214
 1131W        W 2028   4.515   2.820   6.842
 1132W        W 2029   3.194   6.928   1.517
 1133W        W 2030   3.266   2.882   4.798
 1134W        W 2031   0.186   4.666   5.084
 1135W        W 2032   5.998   1.298   4.059
 1136W        W 2033   3.489   5.694   1.819
 1137W        W 2034   3.780   2.532   2.383
 1138W        W 2035   4.915   1.772   5.509
 1139W        W 2036   2.745   2.924   4.806
 1140W        W 2037   3.535   4.681   6.544
 1141W        W 2038   2.320   2.205   3.923
 1142W        W 2039   3.585   5.872   3.076
 1143W        W 2040   4.864   5.285   6.111
 1144W        W 2041   6.177   1.861   0.406
 1145W        W 2042   7.144   3.050   4.374
 1146W        W 2043   5.281   0.689   3.252
 1147W        W 2044   1.994   6.899   1.287
 1148W        W 2045   4.483   4.883   6.400
 1149W        W 2046   6.536   2.347   5.334
 1150W        W 2047   7.160   2.891   5.363
 1151W        W 2048   3.780   2.844   3.637
 1152W        W 2049   1.950   4.911   4.968
 1153W        W 2050   4.273   7.670   5.619
 1154W        W 2051   1.282   1.000   3.681
 1155W        W 2052   1.150   2.416   6.302
 1156W        W 2053   3.866   4.954   3.087
 1157W        W 2054   1.501   5.911   6.648
 1158W        W 2055   0.803   5.378   3.836
 1159W        W 2056   5.974   4.873   5.646
 1160W        W 2057   3.945   7.161   4.108
 1161W        W 2058   6.714   2.790   4.596
 1162W        W 2059   0.372   4.128   4.352
 1163W        W 2060   4.481   3.603   5.455
 1164W        W 2061   3.014   3.032   5.681
 1165W        W 2062   2.840   1.222   4.517
 1166W        W 2063   5.908   4.193   5.276
 1167W        W 2064   0.919   1.974   6.241
 1168W        W 2065   1.621   2.480   0.937
 1169W        W 2066   3.911   2.871   2.753
 1170W        W 2067   6.883   3.262   5.571
 1171W        W 2068   7.853   5.304   2.287
 1172W        W 2069   1.010   6.056   3.374
 1173W        W 2070   3.654   6.028   5.415
 1174W        W 2071   5.667   5.250   7.384
 1175W        W 2072   1.416   1.916   4.928
 1176W        W 2073   6.788   5.745   1.470
 1177W        W 2074   4.467   0.760   0.978
 1178W        W 2075   7.520   5.201   1.477
 1179W        W 2076   5.487   2.305   4.839
 1180W        W 2077   5.563   6.447   6.186
 1181W        W 2078   0.444   7.210   1.897
 1182W        W 2079   1.090   6.221   2.367
 1183W        W 2080   1.244   6.071   7.296
 1184W        W 2081   1.372   4.424   6.996
 1185W        W 2082   5.680   5.300   1.804
 1186W        W 2083   4.734   0.676   0.118
 1187W        W 2084   6.774   4.717   6.904
 1188W        W 2085   6.653   4.508   5.874
 1189W        W 2086   6.289   3.212   5.487
 1190W        W 2087   7.142   5.988   2.368
 1191W        W 2088   6.400   2.970   6.447
 1192W        W 2089   3.065   6.080   0.694
 1193W        W 2090   5.644   5.536   7.814
 1194W        W 2091   1.150   2.612   0.795
 1195W        W 2092   1.893   7.374   1.107
 1196W        W 2093   2.562   6.679   0.766
 1197W        W 2094   4.081   7.090   1.754
 1198W        W 2095   3.829   4.889   3.941
 1199W        W 2096   5.809   5.509   2.273
 1200W        W 2097   1.561   2.318   2.514
 1201W        W 2098   2.304   6.266   2.209
 1202W        W 2099   2.757   7.739   1.119
 1203W        W 2100   3.778   2.763   6.119
 1204W        W 2101   6.455   2.935   4.165
 1205W        W 2102   2.192   3.728   1.674
 1206W        W 2103   0.272   7.449   2.342
 1207W        W 2104   6.284   5.597   6.936
 1208W        W 2105   2.056   4.100   7.598
 1209W        W 2106   2.363   4.800   5.748
 1210W        W 2107   4.038   0.429   1.843
 1211W        W 2108   7.013   0.333   2.555
 1212W        W 2109   1.440   5.965   2.594
 1213W        W 2110   2.988   0.799   2.476
 1214W        W 2111   4.160   5.846   4.184
 1215W        W 2112   4.401   2.332   6.984
 1216W        W 2113   3.724   2.582   3.170
 1217W        W 2114   0.692   5.036   3.383
 1218W        W 2115   4.646   2.404   2.134
 1219W        W 2116   4.184   5.194   1.776
 1220W        W 2117   5.603   2.416   1.621
 1221W        W 2118   3.675   0.883   3.561
 1222W        W 2119   3.366   2.626   6.369
 1223W        W 2120   1.770   6.535   4.539
 1224W        W 2121   6.351   1.358   2.009
 1225W        W 2122   0.536   5.340   5.132
 1226W        W 2123   0.302   3.837   3.743
 1227W        W 2124   6.237   3.508   3.434
 1228W        W 2125   4.726   1.999   4.557
 1229W        W 2126   6.748   2.298   2.559
 1230W        W 2127   6.390   4.896   2.824
 1231W        W 2128   3.849   5.370   0.772
 1232W        W 2129   5.569   1.016   7.758
 1233W        W 2130   4.609   1.874   7.024
 1234W        W 2131   1.009   0.944   2.869
 1235W        W 2132   0.595   4.981   6.075
 1236W        W 2133   1.680   3.733   7.670
 1237W        W 2134   4.830   6.638   1.863
 1238W        W 2135   0.858   3.555   0.046
 1239W        W 2136   6.112   5.755   0.454
 1240W        W 2137   4.128   1.196   1.739
 1241W        W 2138   5.701   2.414   3.347
 1242W        W 2139   2.106   7.469   1.959
 1243W        W 2140   2.206   5.909   0.882
 1244W        W 2141   2.921   3.053   6.995
 1245W        W 2142   0.798   1.205   2.455
 1246W        W 2143   3.728   4.154   5.934
 1247W        W 2144   6.420   4.163   5.387
 1248W        W 2145   4.026   1.526   5.870
 1249W        W 2146   6.461   0.314   0.795
 1250W        W 2147   3.286   2.527   2.279
 1251W        W 2148   1.541   2.426   7.094
 1252W        W 2149   0.266   6.653   2.656
 1253W        W 2150   5.925   2.515   2.043
 1254W        W 2151   6.696   4.015   2.352
 1255W        W 2152   6.089   5.137   2.491
 1256W        W 2153   3.877   3.464   6.700
 1257W        W 2154   5.741   3.807   1.082
 1258W        W 2155   4.108   1.490   6.391
 1259W        W 2156   3.368   4.876   2.988
 1260W        W 2157   4.977   4.788   5.499
 1261W        W 2158   5.115   5.288   2.016
 1262W        W 2159   3.108   1.742   2.459
 1263W        W 2160   4.163   5.279   5.252
 1264W        W 2161   2.457   6.413   1.746
 1265W        W 2162   5.016   2.386   2.491
 1266W        W 2163   5.437   4.810   7.328
 1267W        W 2164   4.837   6.588   4.497
 1268W        W 2165   3.654   2.467   1.078
 1269W        W 2166   1.059   4.251   6.037
 1270W        W 2167   3.872   5.243   4.806
 1271W        W 2168   2.193   0.957   4.641
 1272W        W 2169   4.164   6.046   7.636
 1273W        W 2170   1.456   0.624   4.786
 1274W        W 2171   0.851   2.943   2.994
 1275W        W 2172   0.368   4.345   6.672
 1276W        W 2173   1.591   3.251   2.096
 1277W        W 2174   0.395   5.435   3.478
 1278W        W 2175   0.251   0.544   1.421
 1279W        W 2176   4.507   7.288   5.363
 1280W        W 2177   1.621   0.099   2.219
 1281W        W 2178   5.396   4.743   2.614
 1282W        W 2179   1.753   1.019   5.464
 1283W        W 2180   1.575   0.228   7.875
 1284W        W 2181   5.727   7.309   2.761
 1285W        W 2182   0.926   4.917   3.991
 1286W        W 2183   6.939   4.924   5.766
 1287W        W 2184   1.371   0.563   2.085
 1288W        W 2185   4.252   6.542   3.875
 1289W        W 2186   6.369   2.295   2.193
 1290W        W 2187   2.671   2.734   7.315
 1291W        W 2188   6.506   0.987   3.427
 1292W        W 2189   4.941   1.749   6.624
 1293W        W 2190   4.889   7.310   2.864
 1294W        W 2191   0.711   1.656   5.341
 1295W        W 2192   4.405   0.303   2.181
 1296W        W 2193   4.886   0.540   7.592
 1297W        W 2194   5.350   0.756   0.696
 1298W        W 2195   3.307   2.135   7.601
 1299W        W 2196   7.687   6.700   5.343
 1300W        W 2197   2.100   5.051   0.523
 1301W        W 2198   2.464   3.259   3.575
 1302W        W 2199   5.652   2.815   0.306
 1303W        W 2200   5.589   1.025   4.119
 1304W        W 2201   4.967   5.600   3.786
 1305W        W 2202   5.845   4.756   3.656
 1306W        W 2203   5.983   3.663   6.132
 1307W        W 2204   7.675   1.862   6.904
 1308W        W 2205   1.203   5.013   4.412
 1309W        W 2206   7.924   1.258   6.453
 1310W        W 2207   4.963   4.965   0.482
 1311W        W 2208   3.813   7.547   1.773
 1312W        W 2209   7.120   7.334   4.947
 1313W        W 2210   4.840   3.090   3.095
 1314W        W 2211   1.721   2.606   1.436
 1315W        W 2212   4.114   1.332   6.908
 1316W        W 2213   7.326   4.686   2.267
 1317W        W 2214   4.782   7.718   5.424
 1318W        W 2215   1.358   3.865   5.553
 1319W        W 2216   4.200   1.974   1.523
 1320W        W 2217   2.778   6.707   2.010
 1321W        W 2218   2.935   2.059   6.836
 1322W        W 2219   1.478   6.652   5.858
 1323W        W 2220   1.281   6.567   7.234
 1324W        W 2221   4.034   2.802   1.002
 1325W        W 2222   4.510   1.962   6.479
 1326W        W 2223   3.117   5.163   7.144
 1327W        W 2224   5.306   5.593   2.373
 1328W        W 2225   5.549   1.142   6.426
 1329W        W 2226   4.036   5.868   2.780
 1330W        W 2227   2.322   6.383   3.439
 1331W        W 2228   4.684   6.737   4.044
 1332W        W 2229   2.220   6.518   6.288
 1333W        W 2230   0.773   7.420   5.960
 1334W        W 2231   6.787   4.620   2.968
 1335W        W 2232   2.119   3.373   4.670
 1336W        W 2233   5.589   6.632   1.347
 1337W        W 2234   3.200   2.864   7.394
 1338W        W 2235   2.929   5.619   4.899
 1339W        W 2236   1.713   6.353   2.786
 1340W        W 2237   5.243   4.072   2.234
 1341W        W 2238   3.421   5.691   7.985
 1342W        W 2239   4.755   2.248   5.392
 1343W        W 2240   6.482   2.341   4.827
 1344W        W 2241   1.667   7.212   6.156
 1345W        W 2242   0.771   1.323   1.149
 1346W        W 2243   5.424   3.373   7.475
 1347W        W 2244   4.269   5.575   0.442
 1348W        W 2245   6.190   1.137   2.679
 1349W        W 2246   4.848   4.366   5.229
 1350W        W 2247   7.655   5.604   1.157
 1351W        W 2248   6.937   1.142   3.680
 1352W        W 2249   7.045   5.453   2.779
 1353W        W 2250   3.744   6.214   6.810
 1354W        W 2251   7.512   2.679   1.536
 1355W        W 2252   1.277   5.418   4.110
 1356W        W 2253   5.581   4.975   6.491
 1357W        W 2254   7.584   3.240   4.142
 1358W        W 2255   3.845   6.061   4.942
 1359W        W 2256   7.879   6.426   7.100
 1360W        W 2257   3.955   6.395   1.420
 1361W        W 2258   6.811   6.286   7.290
 1362W        W 2259   2.586   3.042   5.411
 1363W        W 2260   0.293   4.593   4.571
 1364W        W 2261   0.647   5.827   3.659
 1365W        W 2262   1.165   5.067   3.546
 1366W        W 2263   6.369   6.770   7.756
 1367W        W 2264   0.343   5.852   6.398
 1368W        W 2265   1.346   0.969   0.632
 1369W        W 2266   0.908   3.911   2.522
 1370W        W 2267   5.570   4.320   0.371
 1371W        W 2268   3.429   3.641   7.762
 1372W        W 2269   0.507   3.887   6.809
 1373W        W 2270   1.314   3.169   2.548
 1374W        W 2271   2.940   4.463   3.739
 1375W        W 2272   4.596   2.177   3.156
 1376W        W 2273   5.267   6.132   0.212
 1377W        W 2274   5.481   4.569   2.151
 1378W        W 2275   2.541   2.234   7.163
 1379W        W 2276   5.492   7.270   5.609
 1380W        W 2277   3.327   5.844   5.780
 1381W        W 2278   5.254   7.287   3.785
 1382W        W 2279   2.104   6.366   7.083
 1383W        W 2280   5.764   3.298   1.002
 1384W        W 2281   3.265   3.058   6.133
 1385W        W 2282   6.892   4.231   7.057
 1386W        W 2283   5.629   0.948   1.505
 1387W        W 2284   3.903   5.544   6.229
 1388W        W 2285   0.610   6.790   3.660
 1389W        W 2286   1.256   6.873   6.265
 1390W        W 2287   6.105   2.974   2.708
 1391W        W 2288   6.743   3.760   7.194
 1392W        W 2289   4.583   2.471   6.435
 1393W        W 2290   3.808   0.968   7.027
 1394W        W 2291   7.288   0.677   1.103
 1395W        W 2292   3.470   1.990   3.506
 1396W        W 2293   5.487   1.463   6.030
 1397W        W 2294   0.609   4.368   2.011
 1398W        W 2295   1.940   4.232   6.202
 1399W        W 2296   4.144   2.450   2.903
 1400W        W 2297   3.512   0.577   4.497
 1401W        W 2298   6.466   7.866   3.711
 1402W        W 2299   1.315   3.682   7.291
 1403W        W 2300   2.626   5.674   1.198
 1404W        W 2301   5.849   6.126   3.795
 1405W        W 2302   6.521   3.555   5.824
 1406W        W 2303   1.914   3.952   4.008
 1407W        W 2304   0.325   1.571   6.442
 1408W        W 2305   4.007   7.312   5.270
 1409W        W 2306   1.609   3.285   6.443
 1410W        W 2307   6.912   5.110   3.130
 1411W        W 2308   3.218   5.218   2.637
 1412W        W 2309   7.115   4.591   6.124
 1413W        W 2310   5.247   2.450   7.042
 1414W        W 2311   0.751   6.121   7.149
 1415W        W 2312   2.154   5.561   5.397
 1416W        W 2313   0.425   1.570   2.483
 1417W        W 2314   5.993   4.750   4.146
 1418W        W 2315   6.982   2.576   1.571
 1419W        W 2316   1.116   1.019   7.811
 1420W        W 2317   1.319   4.155   4.707
 1421W        W 2318   5.075   0.831   5.532
 1422W        W 2319   2.649   3.947   3.039
 1423W        W 2320   5.935   7.321   2.293
 1424W        W 2321   3.401   1.106   5.862
 1425W        W 2322   5.785   3.311   0.464
 1426W        W 2323   1.014   3.001   5.277
 1427W        W 2324   3.967   1.232   3.304
 1428W        W 2325   3.368   0.914   2.770
 1429W        W 2326   3.614   0.379   3.510
 1430W        W 2327   5.565   4.027   3.045
 1431W        W 2328   1.396   1.193   5.777
 1432W        W 2329   4.820   3.583   0.347
 1433W        W 2330   5.740   2.129   6.495
 1434W        W 2331   7.133   4.250   3.136
 1435W        W 2332   2.076   5.658   2.112
 1436W        W 2333   4.679   1.195   0.067
 1437W        W 2334   2.848   0.228   1.186
 1438W        W 2335   7.419   6.876   5.756
 1439W        W 2336   5.878   6.159   5.867
 1440W        W 2337   4.370   5.325   6.160
 1441W        W 2338   4.835   5.318   1.163
 1442W        W 2339   4.172   2.147   7.412
 1443W        W 2340   7.387   3.143   7.230
 1444W        W 2341   1.303   0.225   5.081
 1445W        W 2342   5.121   5.768   5.529
 1446W        W 2343   2.441   4.079   4.021
 1447W        W 2344   3.531   6.447   0.081
 1448W        W 2345   2.704   5.833   0.193
 1449W        W 2346   6.366   2.791   2.309
 1450W        W 2347   5.848   6.207   0.461
 1451W        W 2348   4.730   6.125   6.677
 1452W        W 2349   5.563   5.467   5.691
 1453W        W 2350   6.869   2.005   7.012
 1454W        W 2351   6.541   1.023   0.110
 1455W        W 2352   1.667   5.275   7.368
 1456W        W 2353   5.323   1.314   1.710
 1457W        W 2354   2.833   3.456   7.815
 1458W        W 2355   6.654   7.582   2.494
 1459W        W 2356   4.877   0.336   3.260
 1460W        W 2357   7.456   5.775   6.506
 1461W        W 2358   1.048   2.150   6.736
 1462W        W 2359   1.815   6.029   1.286
 1463W        W 2360   4.290   6.899   5.131
 1464W        W 2361   1.891   1.968   6.608
 1465W        W 2362   1.783   0.303   3.246
 1466W        W 2363   2.168   1.652   2.541
 1467W        W 2364   4.462   0.756   2.416
 1468W        W 2365   2.056   2.982   3.711
 1469W        W 2366   4.587   5.703   6.920
 1470W        W 2367   7.129   6.862   2.256
 1471W        W 2368   5.407   6.006   0.685
 1472W        W 2369   7.713   5.004   3.222
 1473W        W 2370   1.135   7.674   1.910
 1474W        W 2371   1.659   3.277   3.550
 1475W        W 2372   7.288   0.788   1.739
 1476W        W 2373   4.396   7.227   4.334
 1477W        W 2374   7.152   1.911   1.118
 1478W        W 2375   7.811   2.513   1.136
 1479W        W 2376   6.915   1.236   4.189
 1480W        W 2377   3.665   5.089   5.262
 1481W        W 2378   1.016   4.927   0.643
 1482W        W 2379   0.525   1.010   0.839
 1483W        W 2380   7.547   2.579   2.329
 1484W        W 2381   3.323   1.595   7.460
 1485W        W 2382   7.868   6.849   2.963
 1486W        W 2383   6.039   0.660   2.777
 1487W        W 2384   5.097   3.492   7.898
 1488W        W 2385   5.755   0.485   2.382
 1489W        W 2386   0.935   1.582   6.542
 1490W        W 2387   6.549   4.300   6.689
 1491W        W 2388   3.404   2.514   3.599
 1492W        W 2389   3.090   0.197   1.766
 1493W        W 2390   5.347   5.125   6.052
 1494W        W 2391   0.465   6.285   2.966
 1495W        W 2392   0.600   5.849   3.160
 1496W        W 2393   3.491   4.810   4.313
 1497W        W 2394   3.406   0.864   6.693
 1498W        W 2395   3.144   4.777   2.436
 1499W        W 2396   6.622   1.767   1.216
 1500W        W 2397   2.332   2.682   2.478
 1501W        W 2398   5.316   2.626   3.677
 1502W        W 2399   2.625   5.257   6.584
 1503W        W 2400   3.742   5.070   6.287
 1504W        W 2401   7.127   3.912   3.853
 1505W        W 2402   2.707   0.680   6.834
 1506W        W 2403   7.178   2.926   6.255
 1507W        W 2404   2.603   1.523   1.561
 1508W        W 2405   0.651   4.903   2.168
 1509W        W 2406   0.871   1.774   7.519
 1510W        W 2407   6.986   5.089   6.622
 1511W        W 2408   2.287   0.347   3.067
 1512W        W 2409   7.340   3.108   5.804
 1513W        W 2410   7.956   6.335   2.114
 1514W        W 2411   6.607   7.293   4.857
 1515W        W 2412   3.495   4.263   1.922
 1516W        W 2413   7.432   1.809   1.917
 1517W        W 2414   1.561   5.333   3.717
 1518W        W 2415   3.525   1.589   1.204
 1519W        W 2416   3.458   4.331   0.561
 1520W        W 2417   1.697   1.429   1.968
 1521W        W 2418   4.805   2.601   7.185
 1522W        W 2419   4.951   2.875   4.474
 1523W        W 2420   6.220   1.984   6.508
 1524W        W 2421   4.124   6.435   0.137
 1525W        W 2422   6.131   0.633   4.670
 1526W        W 2423   0.638   6.136   5.176
 1527W        W 2424   1.607   0.591   1.627
 1528W        W 2425   0.749   4.848   4.482
 1529W        W 2426   1.478   3.262   7.523
 1530W        W 2427   5.073   3.752   6.580
 1531W        W 2428   6.020   7.412   3.174
 1532W        W 2429   1.749   4.928   2.941
 1533W        W 2430   0.021   4.191   5.277
 1534W        W 2431   6.581   3.209   3.123
 1535W        W 2432   3.253   3.436   3.260
 1536W        W 2433   1.562   4.678   4.436
 1537W        W 2434   5.435   2.282   6.081
 1538W        W 2435   1.937   2.874   6.046
 1539W        W 2436   0.181   2.276   6.470
 1540W        W 2437   4.414   4.467   6.107
 1541W        W 2438   5.341   6.075   5.903
 1542W        W 2439   5.992   4.683   1.227
 1543W        W 2440   5.548   5.006   7.807
 1544W        W 2441   5.331   3.970   1.324
 1545W        W 2442   6.319   5.067   1.135
 1546W        W 2443   1.916   5.120   5.733
 1547W        W 2444   3.578   2.020   5.068
 1548W        W 2445   2.177   5.225   3.227
 1549W        W 2446   4.153   0.988   6.525
 1550W        W 2447   1.583   0.558   2.541
 1551W        W 2448   6.181   3.737   5.457
 1552W        W 2449   5.407   4.285   3.532
 1553W        W 2450   0.816   4.325   6.893
 1554W        W 2451   1.945   0.969   7.665
 1555W        W 2452   5.695   2.499   0.705
 1556W        W 2453   4.233   4.921   4.915
 1557W        W 2454   2.964   2.322   6.403
 1558W        W 2455   1.916   6.518   2.012
 1559W        W 2456   2.300   3.647   4.270
 1560W        W 2457   0.960   1.301   3.935
 1561W        W 2458   3.263   1.059   3.328
 1562W        W 2459   5.334   5.210   6.995
 1563W        W 2460   1.989   2.542   0.575
 1564W        W 2461   2.875   5.350   4.043
 1565W        W 2462   1.349   5.338   5.612
 1566W        W 2463   5.706   2.433   5.684
 1567W        W 2464   0.791   4.487   0.801
 1568W        W 2465   2.698   4.897   4.470
 1569W        W 2466   2.367   0.766   2.030
 1570W        W 2467   2.127   6.171   3.027
 1571W        W 2468   1.599   6.247   1.706
 1572W        W 2469   6.514   4.863   2.308
 1573W        W 2470   3.205   3.246   6.625
 1574W        W 2471   2.102   1.177   2.704
 1575W        W 2472   2.518   2.653   5.761
 1576W        W 2473   0.794   6.508   3.292
 1577W        W 2474   5.631   7.808   0.125
 1578W        W 2475   2.688   2.380   4.192
 1579W        W 2476   2.648   5.392   7.089
 1580W        W 2477   2.711   2.861   4.290
 1581W        W 2478   7.944   6.316   3.733
 1582W        W 2479   3.828   7.499   3.718
 1583W        W 2480   3.418   6.631   3.531
 1584W        W 2481   3.083   1.983   5.029
 1585W        W 2482   0.757   0.679   6.496
 1586W        W 2483   1.909   1.941   2.200
 1587W        W 2484   4.410   4.610   7.296
 1588W        W 2485   1.707   6.292   7.478
 1589W        W 2486   4.316   3.508   5.933
 1590W        W 2487   3.963   4.662   0.259
 1591W        W 2488   5.529   1.429   4.767
 1592W        W 2489   4.744   5.424   0.576
 1593W        W 2490   5.010   3.262   2.645
 1594W        W 2491   6.636   2.478   0.686
 1595W        W 2492   1.210   2.654   6.761
 1596W        W 2493   4.247   4.617   4.117
 1597W        W 2494   5.527   3.019   3.932
 1598W        W 2495   6.860   4.266   3.596
 1599W        W 2496   7.105   3.489   6.962
 1600W        W 2497   4.296   4.168   7.603
 1601W        W 2498   1.999   5.321   2.776
 1602W        W 2499   4.278   2.647   2.427
 1603W        W 2500   4.579   6.000   5.537
 1604W        W 2501   3.354   3.176   1.096
 1605W        W 2502   2.537   3.652   7.026
 1606W        W 2503   3.855   1.138   5.581
 1607W        W 2504   2.240   0.734   3.435
 1608W        W 2505   7.309   6.487   4.838
 1609W        W 2506   2.590   4.162   0.403
 1610W        W 2507   3.012   6.554   0.997
 1611W        W 2508   1.545   3.035   6.942
 1612W        W 2509   5.322   2.771   4.815
 1613W        W 2510   3.660   1.330   4.279
 1614W        W 2511   1.943   6.842   4.927
 1615W        W 2512   0.633   1.175   6.439
 1616W        W 2513   1.841   1.568   6.952
 1617W        W 2514   2.576   5.752   4.172
 1618W        W 2515   0.962   4.163   5.531
 1619W        W 2516   1.269   1.558   3.647
 1620W        W 2517   5.158   0.987   1.345
 1621W        W 2518   5.531   0.917   3.622
 1622W        W 2519   1.581   0.733   5.909
 1623W        W 2520   6.296   5.820   5.777
 1624W        W 2521   6.104   0.935   2.216
 1625W        W 2522   5.224   6.520   2.311
 1626W        W 2523   2.128   2.505   3.551
 1627W        W 2524   2.785   1.860   6.301
 1628W        W 2525   4.590   1.406   7.205
 1629W        W 2526   3.022   4.834   4.088
 1630W        W 2527   5.205   6.231   4.605
 1631W        W 2528   6.070   5.248   3.000
 1632W        W 2529   6.823   3.991   0.454
 1633W        W 2530   1.346   7.485   1.460
 1634W        W 2531   1.185   1.725   0.771
 1635W        W 2532   2.338   2.060   6.112
 1636W        W 2533   6.353   4.437   1.003
 1637W        W 2534   3.373   3.827   6.076
 1638W        W 2535   1.184   2.413   4.552
 1639W        W 2536   2.546   5.815   5.170
 1640W        W 2537   3.686   2.774   0.630
 1641W        W 2538   7.356   5.169   2.477
 1642W        W 2539   5.209   7.700   2.963
 1643W        W 2540   4.095   5.073   7.482
 1644W        W 2541   3.016   3.194   2.906
 1645W        W 2542   2.057   7.047   5.388
 1646W        W 2543   1.635   5.812   3.843
 1647W        W 2544   6.081   7.316   4.013
 1648W        W 2545   0.717   2.304   0.833
 1649W        W 2546   4.142   4.886   6.018
 1650W        W 2547   6.715   2.668   3.796
 1651W        W 2548   7.863   1.737   1.083
 1652W        W 2549   2.461   2.152   6.609
 1653W        W 2550   0.113   3.521   2.522
 1654W        W 2551   5.184   4.048   4.999
 1655W        W 2552   7.673   0.539   0.766
 1656W        W 2553   3.911   0.310   3.097
 1657W        W 2554   4.215   6.699   0.735
 1658W        W 2555   4.885   4.777   2.790
 1659W        W 2556   2.141   6.420   0.994
 1660W        W 2557   2.731   4.878   5.379
 1661W        W 2558   2.861   4.791   2.866
 1662W        W 2559   2.123   3.287   1.946
 1663W        W 2560   6.059   1.130   6.407
 1664W        W 2561   7.437   6.693   6.229
 1665W        W 2562   0.629   0.726   4.949
 1666W        W 2563   3.989   6.685   2.630
 1667W        W 2564   4.083   2.146   2.471
 1668W        W 2565   0.763   0.377   1.336
 1669W        W 2566   4.862   2.495   1.224
 1670W        W 2567   4.715   6.331   3.214
 1671W        W 2568   1.798   3.536   4.261
 1672W        W 2569   1.117   0.798   7.352
 1673W        W 2570   3.944   6.169   0.959
 1674W        W 2571   1.116   3.131   6.652
 1675W        W 2572   4.466   0.310   1.610
 1676W        W 2573   0.800   6.099   4.637
 1677W        W 2574   6.634   2.057   7.449
 1678W        W 2575   5.924   6.878   2.068
 1679W        W 2576   3.789   6.483   0.534
 1680W        W 2577   5.080   0.985   0.327
 1681W        W 2578   2.488   4.115   7.295
 1682W        W 2579   2.253   4.311   5.788
 1683W        W 2580   4.187   4.031   6.070
 1684W        W 2581   4.692   2.030   1.361
 1685W        W 2582   1.744   3.981   1.798
 1686W        W 2583   1.074   3.264   5.761
 1687W        W 2584   1.411   1.018   1.841
 1688W        W 2585   0.879   5.692   5.255
 1689W        W 2586   0.542   0.771   1.811
 1690W        W 2587   2.171   5.012   3.681
 1691W        W 2588   6.452   3.076   3.643
 1692W        W 2589   5.323   3.513   0.376
 1693W        W 2590   4.047   6.068   3.760
 1694W        W 2591   4.142   3.077   4.619
 1695W        W 2592   4.977   3.857   0.925
 1696W        W 2593   3.645   1.390   1.680
 1697W        W 2594   2.099   5.853   4.038
 1698W        W 2595   3.688   2.858   1.911
 1699W        W 2596   6.019   1.861   7.923
 1700W        W 2597   3.510   7.203   4.396
 1701W        W 2598   4.491   4.496   1.068
 1702W        W 2599   0.882   6.594   4.614
 1703W        W 2600   4.921   4.727   7.239
 1704W        W 2601   6.029   2.236   4.373
 1705W        W 2602   0.884   2.459   1.784
 1706W        W 2603   4.461   4.969   1.337
 1707W        W 2604   2.351   7.087   0.995
 1708W        W 2605   2.231   5.717   0.397
 1709W        W 2606   1.587   4.380   4.033
 1710W        W 2607   2.246   5.063   5.331
 1711W        W 2608   4.233   4.147   6.557
 1712W        W 2609   6.587   1.263   0.999
 1713W        W 2610   4.696   1.886   0.582
 1714W        W 2611   4.635   5.314   6.603
 1715W        W 2612   4.531   1.479   6.697
 1716W        W 2613   0.391   5.742   5.903
 1717W        W 2614   6.111   7.034   5.336
 1718W        W 2615   3.812   4.653   2.035
 1719W        W 2616   5.560   0.553   2.846
 1720W        W 2617   5.298   7.169   4.305
 1721W        W 2618   5.556   2.366   2.848
 1722W        W 2619   5.778   2.153   5.281
 1723W        W 2620   7.366   5.987   5.534
 1724W        W 2621   1.923   0.954   1.805
 1725W        W 2622   7.205   0.815   3.970
 1726W        W 2623   4.461   3.964   0.350
 1727W        W 2624   0.572   7.174   6.955
 1728W        W 2625   2.318   5.405   0.829
 1729W        W 2626   1.551   7.942   1.377
 1730W        W 2627   4.519   5.726   4.496
 1731W        W 2628   1.248   1.520   7.775
 1732W        W 2629   1.494   0.687   7.695
 1733W        W 2630   4.019   3.229   6.279
 1734W        W 2631   2.490   6.630   1.276
 1735W        W 2632   5.122   1.832   0.261
 1736W        W 2633   7.420   5.722   1.584
 1737W        W 2634   3.728   1.637   7.018
 1738W        W 2635   4.576   4.282   3.906
 1739W        W 2636   6.701   6.601   2.276
 1740W        W 2637   3.210   2.699   0.997
 1741W        W 2638   3.113   6.150   3.539
 1742W        W 2639   3.371   3.838   7.264
 1743W        W 2640   3.993   3.191   0.404
 1744W        W 2641   4.516   6.535   6.892
 1745W        W 2642   3.878   6.978   2.225
 1746W        W 2643   1.822   1.996   7.287
 1747W        W 2644   6.031   5.208   7.736
 1748W        W 2645   1.498   4.622   7.474
 1749W        W 2646   3.652   3.011   6.580
 1750W        W 2647   0.973   4.787   6.790
 1751W        W 2648   1.082   5.989   6.366
 1752W        W 2649   1.635   1.657   5.808
 1753W        W 2650   2.412   4.401   2.974
 1754W        W 2651   6.072   3.508   1.338
 1755W        W 2652   2.615   3.635   3.859
 1756W        W 2653   4.131   2.492   4.397
 1757W        W 2654   3.338   3.850   2.275
 1758W        W 2655   7.084   2.260   0.734
 1759W        W 2656   7.592   6.133   1.279
 1760W        W 2657   4.110   5.747   5.417
 1761W        W 2658   5.926   1.593   1.821
 1762W        W 2659   2.625   1.664   6.753
 1763W        W 2660   6.468   0.130   0.310
 1764W        W 2661   6.812   3.751   4.760
 1765W        W 2662   3.504   6.413   5.054
 1766W        W 2663   3.130   1.651   4.654
 1767W        W 2664   1.680   6.808   2.987
 1768W        W 2665   2.856   2.088   4.576
 1769W        W 2666   5.864   7.035   1.575
 1770W        W 2667   3.633   4.981   1.046
 1771W        W 2668   1.144   3.176   0.355
 1772W        W 2669   6.323   4.943   3.776
 1773W        W 2670   2.368   6.206   6.679
 1774W        W 2671   3.745   4.994   1.634
 1775W        W 2672   6.486   1.867   5.497
 1776W        W 2673   2.377   2.067   3.446
 1777W        W 2674   3.415   4.725   7.039
 1778W        W 2675   5.914   4.329   2.096
 1779W        W 2676   4.481   3.768   7.342
 1780W        W 2677   0.370   6.410   6.904
 1781W        W 2678   6.681   2.187   5.845
 1782W        W 2679   5.737   7.329   5.149
 1783W        W 2680   5.788   6.437   2.636
 1784W        W 2681   0.976   5.969   1.138
 1785W        W 2682   4.256   4.125   0.791
 1786W        W 2683   3.650   5.287   4.361
 1787W        W 2684   0.053   3.479   4.034
 1788W        W 2685   5.769   0.904   3.153
 1789W        W 2686   2.386   1.169   5.795
 1790W        W 2687   6.889   4.035   5.184
 1791W        W 2688   1.298   3.543   4.528
 1792W        W 2689   4.575   3.991   1.204
 1793W        W 2690   0.773   2.865   6.933
 1794W        W 2691   0.357   6.041   2.194
 1795W        W 2692   4.809   3.307   5.224
 1796W        W 2693   3.299   6.591   1.897
 1797W        W 2694   0.604   0.826   6.012
 1798W        W 2695   0.711   5.354   0.612
 1799W        W 2696   5.519   4.463   4.360
 1800W        W 2697   1.288   4.578   3.664
 1801W        W 2698   6.772   6.341   0.729
 1802W        W 2699   1.054   4.347   2.294
 1803W        W 2700   1.358   3.704   2.693
 1804W        W 2701   4.297   2.276   5.616
 1805W        W 2702   6.082   3.489   1.864
 1806W        W 2703   0.584   1.176   4.697
 1807W        W 2704   1.526   3.517   5.929
 1808W        W 2705   6.206   1.969   5.086
 1809W        W 2706   1.589   4.280   1.111
 1810W        W 2707   6.752   4.138   6.224
 1811W        W 2708   1.220   6.005   1.940
 1812W        W 2709   0.438   5.816   2.683
 1813W        W 2710   4.368   5.016   6.974
 1814W        W 2711   1.960   0.843   1.305
 1815W        W 2712   5.718   1.548   0.899
 1816W        W 2713   6.728   4.775   0.972
 1817W        W 2714   5.706   0.597   4.385
 1818W        W 2715   7.360   4.330   3.597
 1819W        W 2716   5.162   4.515   0.625
 1820W        W 2717   4.998   2.743   6.699
 1821W        W 2718   2.784   2.195   5.909
 1822W        W 2719   1.295   2.819   3.230
 1823W        W 2720   6.356   7.480   0.370
 1824W        W 2721   6.153   2.383   0.551
 1825W        W 2722   7.287   4.827   3.817
 1826W        W 2723   0.216   5.064   3.170
 1827W        W 2724   0.686   6.114   6.645
 1828W        W 2725   1.419   3.256   4.101
 1829W        W 2726   4.062   7.948   1.493
 1830W        W 2727   1.851   4.791   2.447
 1831W        W 2728   5.482   2.128   7.360
 1832W        W 2729   4.211   1.948   2.916
 1833W        W 2730   2.215   5.474   6.736
 1834W        W 2731   0.632   6.286   2.513
 1835W        W 2732   3.718   2.886   1.382
 1836W        W 2733   0.983   2.411   3.073
 1837W        W 2734   6.933   0.984   3.159
 1838W        W 2735   5.360   1.498   6.723
 1839W        W 2736   5.595   0.859   5.483
 1840W        W 2737   1.939   4.866   4.107
 1841W        W 2738   6.586   5.373   5.773
 1842W        W 2739   1.677   5.965   4.715
 1843W        W 2740   3.409   2.233   6.702
 1844W        W 2741   7.348   2.065   3.480
 1845W        W 2742   2.870   6.128   6.802
 1846W        W 2743   6.976   2.243   6.574
 1847W        W 2744   2.284   5.948   7.897
 1848W        W 2745   2.068   2.604   2.906
 1849W        W 2746   6.098   5.338   5.740
 1850W        W 2747   5.624   3.407   7.978
 1851W        W 2748   6.295   0.971   5.952
 1852W        W 2749   1.621   4.535   4.910
 1853W        W 2750   2.253   7.990   1.954
 1854W        W 2751   2.256   3.419   2.428
 1855W        W 2752   2.908   6.084   5.868
 1856W        W 2753   1.903   4.792   1.933
 1857W        W 2754   4.867   2.234   6.783
 1858W        W 2755   5.862   3.869   1.626
 1859W        W 2756   5.552   0.827   0.226
 1860W        W 2757   3.921   4.455   6.271
 1861W        W 2758   4.621   1.868   4.072
 1862W        W 2759   3.535   0.883   7.455
 1863W        W 2760   3.381   5.208   3.948
 1864W        W 2761   6.849   1.429   2.108
 1865W        W 2762   3.985   2.936   4.128
 1866W        W 2763   0.238   5.265   2.667
 1867W        W 2764   2.393   3.125   1.051
 1868W        W 2765   3.033   5.178   2.106
 1869W        W 2766   0.123   6.177   5.198
 1870W        W 2767   2.668   5.753   0.686
 1871W        W 2768   2.098   6.527   4.133
 1872W        W 2769   1.882   0.772   5.038
 1873W        W 2770   1.552   0.287   6.809
 1874W        W 2771   4.621   3.824   7.871
 1875W        W 2772   1.532   4.022   5.998
 1876W        W 2773   7.058   6.751   6.975
 1877W        W 2774   4.991   7.256   5.523
 1878W        W 2775   3.764   4.046   0.934
 1879W        W 2776   4.457   1.503   4.363
 1880W        W 2777   3.748   6.796   3.127
 1881W        W 2778   0.705   5.593   7.208
 1882W        W 2779   6.559   2.731   2.785
 1883W        W 2780   7.118   2.245   7.415
 1884W        W 2781   0.842   1.934   2.968
 1885W        W 2782   3.378   6.957   3.953
 1886W        W 2783   2.071   3.489   3.823
 1887W        W 2784   6.143   4.279   1.616
 1888W        W 2785   3.264   3.648   1.294
 1889W        W 2786   7.157   5.964   2.885
 1890W        W 2787   2.937   5.982   2.438
 1891W        W 2788   2.426   3.276   1.544
 1892W        W 2789   5.155   4.724   6.366
 1893W        W 2790   3.164   3.970   4.468
 1894W        W 2791   4.738   3.151   0.035
 1895W        W 2792   5.898   0.187   3.066
 1896W        W 2793   2.319   5.892   3.573
 1897W        W 2794   4.037   4.803   6.608
 1898W        W 2795   4.787   4.586   1.481
 1899W        W 2796   6.825   1.809   2.727
 1900W        W 2797   3.533   5.057   3.479
 1901W        W 2798   1.199   2.999   4.468
 1902W        W 2799   5.694   2.609   4.477
 1903W        W 2800   2.487   6.071   2.673
 1904W        W 2801   4.891   2.276   0.317
 1905W        W 2802   5.545   1.090   1.021
 1906W        W 2803   2.330   4.723   2.214
 1907W        W 2804   7.138   1.014   2.215
 1908W        W 2805   3.587   0.518   7.069
 1909W        W 2806   4.456   4.236   1.654
 1910W        W 2807   2.293   7.017   4.014
 1911W        W 2808   1.555   5.426   1.291
 1912W        W 2809   4.601   1.828   7.536
 1913W        W 2810   7.422   6.932   3.711
 1914W        W 2811   5.128   6.654   0.179
 1915W        W 2812   5.350   0.596   4.012
 1916W        W 2813   4.479   6.713   3.463
 1917W        W 2814   1.189   4.099   3.867
 1918W        W 2815   7.822   4.157   3.649
 1919W        W 2816   0.879   1.349   0.674
 1920W        W 2817   1.969   3.396   7.400
 1921W        W 2818   1.659   1.260   1.452
 1922W        W 2819   1.293   7.062   7.123
 1923W        W 2820   1.840   2.863   1.867
 1924W        W 2821   2.232   6.842   7.227
 1925W        W 2822   3.048   7.892   2.213
 1926W        W 2823   4.315   5.802   5.951
 1927W        W 2824   3.533   3.197   2.863
 1928W        W 2825   1.137   6.268   6.820
 1929W        W 2826   5.762   4.660   6.072
 1930W        W 2827   1.169   0.477   0.696
 1931W        W 2828   1.982   5.360   4.052
 1932W        W 2829   1.486   1.951   6.915
 1933W        W 2830   1.352   1.120   7.019
 1934W        W 2831   1.109   5.137   0.194
 1935W        W 2832   6.667   6.097   2.182
 1936W        W 2833   3.507   6.405   3.980
 1937W        W 2834   4.467   6.082   7.223
 1938W        W 2835   6.711   0.745   4.110
 1939W        W 2836   5.251   5.017   3.021
 1940W        W 2837   3.145   3.370   7.404
 1941W        W 2838   2.925   4.045   6.164
 1942W        W 2839   0.689   5.603   6.687
 1943W        W 2840   1.713   1.671   3.904
 1944W        W 2841   7.898   5.932   1.626
 1945W        W 2842   5.484   4.961   5.568
 1946W        W 2843   5.727   6.421   2.135
 1947W        W 2844   6.758   6.624   5.533
 1948W        W 2845   5.660   0.727   4.908
 1949W        W 2846   4.383   2.138   4.916
 1950W        W 2847   7.303   1.827   0.557
 1951W        W 2848   2.074   0.746   5.772
 1952W        W 2849   1.813   7.049   2.060
 1953W        W 2850   5.755   4.608   1.687
 1954W        W 2851   5.779   2.185   0.276
 1955W        W 2852   5.216   6.628   0.998
 1956W        W 2853   4.709   1.168   1.193
 1957W        W 2854   0.976   2.926   1.596
 1958W        W 2855   6.362   3.023   7.377
 1959W        W 2856   4.569   1.886   1.850
 1960W        W 2857   6.211   2.571   1.013
 1961W        W 2858   5.841   7.686   4.803
 1962W        W 2859   0.429   2.785   6.028
 1963W        W 2860   0.139   6.865   7.004
 1964W        W 2861   6.921   1.920   3.207
 1965W        W 2862   2.067   5.452   6.075
 1966W        W 2863   1.654   5.191   2.116
 1967W        W 2864   1.324   2.357   5.181
 1968W        W 2865   1.503   7.817   6.458
 1969W        W 2866   7.046   7.291   3.302
 1970W        W 2867   6.687   1.467   3.389
 1971W        W 2868   2.804   0.052   0.690
 1972W        W 2869   2.204   3.802   4.911
 1973W        W 2870   7.083   6.378   2.008
 1974W        W 2871   5.328   0.982   4.602
 1975W        W 2872   1.860   7.688   6.048
 1976W        W 2873   5.556   1.875   3.012
 1977W        W 2874   4.386   2.294   0.379
 1978W        W 2875   1.163   1.488   1.755
 1979W        W 2876   6.523   3.208   2.600
 1980W        W 2877   1.614   6.267   6.982
 1981W        W 2878   1.499   1.112   6.266
 1982W        W 2879   0.457   7.390   1.390
 1983W        W 2880   3.544   1.873   7.970
 1984W        W 2881   4.207   6.115   4.607
 1985W        W 2882   1.145   3.048   2.056
 1986W        W 2883   6.201   5.300   2.007
 1987W        W 2884   2.166   5.163   7.573
 1988W        W 2885   1.414   1.485   6.678
 1989W        W 2886   3.126   0.947   0.779
 1990W        W 2887   7.280   3.983   5.493
 1991W        W 2888   7.778   6.605   2.517
 1992W        W 2889   3.354   5.923   5.014
 1993W        W 2890   2.892   1.141   5.903
 1994W        W 2891   6.474   2.798   6.930
 1995W        W 2892   4.607   1.006   0.541
 1996W        W 2893   3.395   4.689   3.783
 1997W        W 2894   3.452   7.197   2.730
 1998W        W 2895   2.225   4.490   0.550
 1999W        W 2896   6.474   1.528   2.483
 2000W        W 2897   1.087   5.783   6.911
 2001W        W 2898   2.457   4.545   3.565
 2002W        W 2899   4.069   3.872   5.610
 2003W        W 2900   0.913   1.261   3.415
 2004W        W 2901   0.547   1.192   4.196
 2005W        W 2902   6.490   0.817   2.944
 2006W        W 2903   2.262   1.697   3.803
 2007W        W 2904   2.575   5.321   0.362
 2008W        W 2905   6.642   5.471   1.066
 2009W        W 2906   4.003   3.449   7.762
 2010W        W 2907   2.958   1.128   6.768
 2011W        W 2908   4.851   6.918   6.745
 2012W        W 2909   7.341   3.843   3.388
 2013W        W 2910   0.712   1.549   6.083
 2014W        W 2911   4.819   4.018   3.527
 2015W        W 2912   1.227   2.582   1.318
 2016W        W 2913   6.820   3.431   1.554
 2017W        W 2914   5.035   3.058   7.611
 2018W        W 2915   6.804   2.381   7.799
 2019W        W 2916   2.120   7.219   2.449
 2020W        W 2917   1.442   6.210   3.597
 2021W        W 2918   0.690   0.854   0.029
 2022W        W 2919   6.421   7.157   4.386
 2023W        W 2920   6.939   3.316   6.513
 2024W        W 2921   2.624   3.091   2.523
 2025W        W 2922   3.987   3.277   1.818
 2026W        W 2923   6.770   7.206   2.111
 2027W        W 2924   2.627   4.826   0.601
 2028W        W 2925   5.683   2.611   6.353
 2029W        W 2926   5.942   3.269   7.586
 2030W        W 2927   5.266   1.310   3.811
 2031W        W 2928   6.876   5.001   2.637
 2032W        W 2929   2.880   3.043   3.394
 2033W        W 2930   4.929   4.086   1.572
 2034W        W 2931   6.422   6.337   5.803
 2035W        W 2932   2.596   2.126   5.044
 2036W        W 2933   1.753   4.442   1.597
 2037W        W 2934   1.853   4.707   0.221
 2038W        W 2935   5.730   2.338   6.956
 2039W        W 2936   4.060   2.947   3.230
 2040W        W 2937   0.820   3.009   4.793
 2041W        W 2938   0.619   3.487   2.338
 2042W        W 2939   4.258   0.915   0.170
 2043W        W 2940   6.727   1.911   2.212
 2044W        W 2941   2.139   5.838   6.392
 2045W        W 2942   4.156   2.782   6.475
 2046W        W 2943   6.046   2.992   1.956
 2047W        W 2944   1.109   4.490   4.222
 2048W        W 2945   3.177   5.023   6.653
 2049W        W 2946   7.976   6.360   3.063
 2050W        W 2947   5.027   4.357   6.882
 2051W        W 2948   6.142   0.328   4.176
 2052W        W 2949   7.584   2.104   0.881
 2053W        W 2950   6.553   7.206   6.145
 2054W        W 2951   2.975   5.247   3.068
 2055W        W 2952   0.369   6.239   3.455
 2056W        W 2953   6.995   6.676   6.466
 2057W        W 2954   6.037   5.772   4.100
 2058W        W 2955   5.439   4.200   5.964
 2059W        W 2956   0.476   2.885   5.148
 2060W        W 2957   3.946   7.785   2.460
 2061W        W 2958   3.634   1.724   4.639
 2062W        W 2959   5.772   5.485   6.958
 2063W        W 2960   5.151   2.534   1.978
 2064W        W 2961   3.365   1.975   7.125
 2065W        W 2962   7.172   3.521   4.167
 2066W        W 2963   1.030   2.584   2.250
 2067W        W 2964   3.428   0.067   3.147
 2068W        W 2965   5.046   4.396   4.672
 2069W        W 2966   4.161   3.289   0.854
 2070W        W 2967   1.117   4.197   3.366
 2071W        W 2968   4.267   0.140   2.664
 2072W        W 2969   5.203   6.702   6.432
 2073W        W 2970   5.002   4.336   1.099
 2074W        W 2971   3.107   0.248   3.535
 2075W        W 2972   7.404   5.805   4.263
 2076W        W 2973   3.577   7.995   1.657
 2077W        W 2974   1.537   0.280   0.407
 2078W        W 2975   2.263   4.095   4.497
 2079W        W 2976   4.835   2.588   2.941
 2080W        W 2977   6.437   7.807   0.755
 2081W        W 2978   5.515   1.618   2.137
 2082W        W 2979   1.746   3.615   3.012
 2083W        W 2980   4.164   5.387   4.411
 2084W        W 2981   3.429   5.425   6.037
 2085W        W 2982   6.378   0.307   2.914
 2086W        W 2983   5.109   6.944   0.598
 2087W        W 2984   0.826   2.803   6.422
 2088W        W 2985   6.763   6.902   3.124
 2089W        W 2986   2.553   4.602   4.065
 2090W        W 2987   1.116   0.615   6.867
 2091W        W 2988   6.547   2.766   1.352
 2092W        W 2989   4.036   4.708   1.193
 2093W        W 2990   1.057   7.107   3.587
 2094W        W 2991   5.983   4.254   4.402
 2095W        W 2992   6.596   6.772   7.275
 2096W        W 2993   0.524   4.695   7.076
 2097W        W 2994   2.897   0.991   4.010
 2098W        W 2995   2.257   0.978   5.344
 2099W        W 2996   5.339   2.976   6.380
 2100W        W 2997   1.052   0.932   4.723
 2101W        W 2998   1.116   6.292   1.518
 2102W        W 2999   5.653   0.380   7.440
 2103W        W 3000   7.114   3.550   0.555
 2104W        W 3001   7.155   4.387   4.056
 2105W        W 3002   1.060   0.636   1.682
 2106W        W 3003   7.304   1.310   0.499
 2107W        W 3004   3.593   4.855   0.553
 2108W        W 3005   6.036   2.564   0.069
 2109W        W 3006   2.045   2.377   4.455
 2110W        W 3007   6.110   6.520   0.127
 2111W        W 3008   0.482   6.826   6.601
 2112W        W 3009   1.927   7.879   1.047
 2113W        W 3010   7.469   6.951   4.947
 2114W        W 3011   2.181   6.494   2.650
 2115W        W 3012   6.040   4.274   6.704
 2116W        W 3013   6.606   7.026   5.280
 2117W        W 3014   0.764   4.031   6.395
 2118W        W 3015   4.363   5.390   0.922
 2119W        W 3016   2.154   1.317   1.224
 2120W        W 3017   6.510   7.844   5.522
 2121W        W 3018   4.837   7.235   4.069
 2122W        W 3019   6.474   5.375   4.814
 2123W        W 3020   6.284   6.997   3.091
 2124W        W 3021   5.450   1.794   5.632
 2125W        W 3022   5.351   0.538   7.836
 2126W        W 3023   3.350   5.292   0.762
 2127W        W 3024   4.861   1.430   4.090
 2128W        W 3025   3.727   5.601   5.105
 2129W        W 3026   4.575   2.357   4.188
 2130W        W 3027   7.018   6.105   4.096
 2131W        W 3028   1.821   0.284   5.846
 2132W        W 3029   2.972   4.019   2.608
 2133W        W 3030   1.361   6.918   2.282
 2134W        W 3031   0.802   0.420   0.320
 2135W        W 3032   2.280   6.241   0.513
 2136W        W 3033   7.990   2.337   2.174
 2137W        W 3034   2.545   4.407   0.944
 2138W        W 3035   4.986   3.245   6.606
 2139W        W 3036   2.970   2.657   6.015
 2140W        W 3037   1.359   3.285   3.047
 2141W        W 3038   5.109   4.318   2.686
 2142W        W 3039   2.602   6.656   4.197
 2143W        W 3040   4.615   6.252   2.131
 2144W        W 3041   4.253   1.435   0.257
 2145W        W 3042   4.444   1.116   3.408
 2146W        W 3043   1.676   6.161   4.217
 2147W        W 3044   0.751   1.414   2.927
 2148W        W 3045   6.642   5.573   1.934
 2149W        W 3046   4.861   0.545   1.891
 2150W        W 3047   6.577   6.765   6.753
 2151W        W 3048   4.887   5.882   0.749
 2152W        W 3049   1.876   0.523   2.077
 2153W        W 3050   4.758   7.751   4.087
 2154W        W 3051   6.279   3.156   4.617
 2155W        W 3052   4.523   1.411   2.018
 2156W        W 3053   5.898   6.012   2.400
 2157W        W 3054   3.725   6.916   1.423
 2158W        W 3055   0.329   6.085   3.946
 2159W        W 3056   0.454   4.833   6.568
 2160W        W 3057   1.587   4.200   6.580
 2161W        W 3058   5.445   6.677   2.906
 2162W        W 3059   7.522   2.698   5.060
 2163W        W 3060   6.234   1.621   0.882
 2164W        W 3061   6.165   0.843   4.198
 2165W        W 3062   7.069   4.332   6.581
 2166W        W 3063   4.701   6.059   7.668
 2167W        W 3064   6.413   5.516   4.338
 2168W        W 3065   4.729   1.339   3.039
 2169W        W 3066   1.854   7.198   3.772
 2170W        W 3067   1.106   0.755   5.741
 2171W        W 3068   3.456   6.280   0.927
 2172W        W 3069   5.446   0.131   1.231
 2173W        W 3070   5.656   4.480   5.600
 2174W        W 3071   7.158   4.869   1.676
 2175W        W 3072   6.935   2.719   1.047
 2176W        W 3073   6.919   1.579   0.787
 2177W        W 3074   3.783   1.135   0.239
 2178W        W 3075   0.351   2.839   4.629
 2179W        W 3076   3.027   6.633   0.074
 2180W        W 3077   4.853   0.964   2.682
 2181W        W 3078   4.374   1.452   3.831
 2182W        W 3079   2.867   2.531   1.347
 2183W        W 3080   7.168   2.785   0.612
 2184W        W 3081   3.837   2.469   3.960
 2185W        W 3082   4.056   3.257   3.725
 2186W        W 3083   4.225   1.081   7.326
 2187W        W 3084   6.381   6.859   5.771
 2188W        W 3085   5.420   6.416   3.752
 2189W        W 3086   3.746   3.585   0.174
 2190W        W 3087   1.631   2.393   7.602
 2191W        W 3088   5.913   4.889   2.069
 2192W        W 3089   3.040   7.141   1.952
 2193W        W 3090   7.438   2.884   1.054
 2194W        W 3091   6.297   4.917   6.061
 2195W        W 3092   3.618   3.245   7.513
 2196W        W 3093   2.026   1.920   4.213
 2197W        W 3094   5.847   5.168   6.121
 2198W        W 3095   1.992   3.387   6.132
 2199W        W 3096   6.166   5.636   2.680
 2200W        W 3097   6.523   5.981   4.576
 2201W        W 3098   2.005   6.009   2.527
 2202W        W 3099   6.254   2.498   3.986
 2203W        W 3100   6.210   2.671   4.512
 2204W        W 3101   7.228   6.494   5.398
 2205W        W 3102   3.819   6.776   3.809
 2206W        W 3103   1.587   2.474   2.991
 2207W        W 3104   2.261   4.838   2.749
 2208W        W 3105   1.993   5.518   3.579
 2209W        W 3106   6.514   5.015   4.237
 2210W        W 3107   4.386   7.090   3.829
 2211W        W 3108   1.761   1.144   0.938
 2212W        W 3109   2.462   5.624   7.532
 2213W        W 3110   1.643   2.237   5.643
 2214W        W 3111   6.003   6.887   2.671
 2215W        W 3112   6.733   5.153   6.191
 2216W        W 3113   0.313   6.003   4.435
 2217W        W 3114   6.158   5.493   0.884
 2218W        W 3115   3.972   6.472   3.442
 2219W        W 3116   1.856   3.659   2.150
 2220W        W 3117   6.011   5.237   3.507
 2221W        W 3118   5.008   6.039   3.537
 2222W        W 3119   1.820   0.150   1.744
 2223W        W 3120   6.589   7.430   3.056
 2224W        W 3121   6.190   3.988   1.182
 2225W        W 3122   1.894   2.744   4.800
 2226W        W 3123   6.364   6.998   2.328
 2227W        W 3124   3.935   7.123   0.913
 2228W        W 3125   6.343   2.004   2.618
 2229W        W 3126   3.920   3.772   3.902
 2230W        W 3127   3.508   5.889   6.259
 2231W        W 3128   4.458   1.440   0.742
 2232W        W 3129   5.506   4.170   1.809
 2233W        W 3130   4.270   3.716   6.889
 2234W        W 3131   7.457   5.650   2.586
 2235W        W 3132   4.363   5.984   0.095
 2236W        W 3133   6.646   3.642   5.343
 2237W        W 3134   5.447   7.114   1.272
 2238W        W 3135   4.167   1.114   4.199
 2239W        W 3136   3.050   2.397   7.212
 2240W        W 3137   2.555   6.466   2.991
 2241W        W 3138   5.303   3.648   2.806
 2242W        W 3139   2.534   4.182   4.948
 2243W        W 3140   2.552   4.405   6.675
 2244W        W 3141   5.321   3.145   1.203
 2245W        W 3142   6.104   2.541   6.631
 2246W        W 3143   2.645   5.389   4.526
 2247W        W 3144   5.031   1.684   5.980
 2248W        W 3145   7.279   6.841   3.196
 2249W        W 3146   5.886   3.882   4.771
 2250W        W 3147   2.741   0.537   3.792
 2251W        W 3148   2.065   3.302   3.262
 2252W        W 3149   1.759   3.969   5.138
 2253W        W 3150   5.888   4.170   6.210
 2254W        W 3151   5.148   3.243   4.841
 2255W        W 3152   5.136   5.332   3.393
 2256W        W 3153   7.108   3.545   5.158
 2257W        W 3154   3.973   5.453   3.086
 2258W        W 3155   1.973   2.997   2.342
 2259W        W 3156   1.057   7.823   5.313
 2260W        W 3157   7.107   4.705   3.361
 2261W        W 3158   7.142   7.109   6.149
 2262W        W 3159   4.605   3.917   5.820
 2263W        W 3160   1.600   2.011   0.723
 2264W        W 3161   6.530   3.357   1.149
 2265W        W 3162   5.411   6.177   1.163
 2266W        W 3163   3.226   6.117   1.683
 2267W        W 3164   6.540   5.908   4.037
 2268W        W 3165   1.516   0.552   5.437
 2269W        W 3166   2.918   6.494   1.530
 2270W        W 3167   1.291   3.758   5.043
 2271W        W 3168   4.853   5.629   7.405
 2272W        W 3169   5.645   6.857   5.362
 2273W        W 3170   4.459   1.625   4.846
 2274W        W 3171   3.459   5.381   3.111
 2275W        W 3172   2.059   2.732   1.047
 2276W        W 3173   5.678   0.317   0.321
 2277W        W 3174   0.388   6.362   4.785
 2278W        W 3175   5.496   5.561   5.184
 2279W        W 3176   4.108   4.955   0.754
 2280W        W 3177   5.445   6.513   0.547
 2281W        W 3178   0.951   5.138   4.839
 2282W        W 3179   2.527   1.160   4.948
 2283W        W 3180   1.176   3.875   7.758
 2284W        W 3181   3.358   2.156   4.615
 2285W        W 3182   1.256   1.673   4.150
 2286W        W 3183   3.820   7.825   2.939
 2287W        W 3184   3.832   1.066   6.128
 2288W        W 3185   7.305   5.473   4.662
 2289W        W 3186   0.701   2.219   4.608
 2290W        W 3187   4.983   6.462   2.801
 2291W        W 3188   3.141   5.671   1.459
 2292W        W 3189   3.532   3.793   0.579
 2293W        W 3190   5.026   2.275   3.960
 2294W        W 3191   0.643   3.042   5.621
 2295W        W 3192   6.793   2.259   1.195
 2296W        W 3193   2.371   5.648   1.682
 2297W        W 3194   4.865   2.741   3.464
 2298W        W 3195   4.002   0.772   2.215
 2299W        W 3196   2.084   6.057   1.798
 2300W        W 3197   2.159   0.501   1.652
 2301W        W 3198   5.705   4.955   3.201
 2302W        W 3199   1.471   5.032   4.863
 2303W        W 3200   6.827   2.731   6.557
 2304W        W 3201   0.055   1.541   6.867
 2305W        W 3202   7.614   3.683   3.833
 2306W        W 3203   3.770   4.109   3.295
 2307W        W 3204   4.849   6.008   5.953
 2308W        W 3205   2.479   6.903   2.709
 2309W        W 3206   0.316   1.269   2.049
 2310W        W 3207   6.366   1.431   5.716
 2311W        W 3208   3.235   3.535   0.230
 2312W        W 3209   5.312   4.531   5.216
 2313W        W 3210   2.399   4.505   7.627
 2314W        W 3211   1.005   7.102   2.632
 2315W        W 3212   0.928   3.855   3.051
 2316W        W 3213   6.551   5.347   2.385
 2317W        W 3214   6.029   7.894   0.445
 2318W        W 3215   4.825   2.742   3.961
 2319W        W 3216   5.039   1.803   3.774
 2320W        W 3217   3.612   0.698   5.534
 2321W        W 3218   4.261   7.570   3.990
 2322W        W 3219   0.335   5.816   4.900
 2323W        W 3220   7.691   5.958   2.919
 2324W        W 3221   5.859   1.071   4.560
 2325W        W 3222   6.333   4.005   5.910
 2326W        W 3223   1.827   2.388   4.002
 2327W        W 3224   0.567   2.070   2.584
 2328W        W 3225   4.574   2.867   7.562
 2329W        W 3226   1.876   1.445   4.353
 2330W        W 3227   2.121   7.031   6.372
 2331W        W 3228   2.585   4.497   1.449
 2332W        W 3229   7.826   3.366   5.887
 2333W        W 3230   6.739   1.949   5.047
 2334W        W 3231   6.452   5.113   3.310
 2335W        W 3232   0.074   3.271   3.574
 2336W        W 3233   7.305   6.445   2.466
 2337W        W 3234   5.791   3.117   1.531
 2338W        W 3235   2.919   4.003   1.357
 2339W        W 3236   3.461   5.444   6.522
 2340W        W 3237   3.275   3.774   6.576
 2341W        W 3238   2.977   6.178   2.889
 2342W        W 3239   2.620   5.474   3.340
 2343W        W 3240   6.032   5.867   4.588
 2344W        W 3241   7.023   6.713   2.761
 2345W        W 3242   4.559   0.535   2.855
 2346W        W 3243   0.791   5.614   4.764
 2347W        W 3244   7.565   2.325   1.886
 2348W        W 3245   1.810   2.030   6.112
 2349W        W 3246   4.648   4.453   4.381
 2350W        W 3247   5.704   1.350   5.569
 2351W        W 3248   5.997   5.487   4.913
 2352W        W 3249   2.836   1.768   2.912
 2353W        W 3250   4.040   2.603   7.228
 2354W        W 3251   7.349   3.093   2.450
 2355W        W 3252   6.320   3.429   4.014
 2356W        W 3253   4.145   0.876   3.722
 2357W        W 3254   5.899   6.179   1.354
 2358W        W 3255   4.994   2.393   4.980
 2359W        W 3256   3.329   5.555   2.287
 2360W        W 3257   6.603   5.045   1.831
 2361W        W 3258   2.113   4.738   3.253
 2362W        W 3259   7.639   6.083   2.414
 2363W        W 3260   5.352   5.635   7.267
 2364W        W 3261   2.089   4.154   6.720
 2365W        W 3262   3.261   6.517   0.520
 2366W        W 3263   0.826   3.387   4.461
 2367W        W 3264   2.636   1.658   3.435
 2368W        W 3265   6.007   6.583   5.596
 2369W        W 3266   4.014   2.333   0.734
 2370W        W 3267   2.739   5.376   5.319
 2371W        W 3268   7.996   3.193   4.459
 2372W        W 3269   0.868   0.597   2.180
 2373W        W 3270   1.524   2.398   0.409
 2374W        W 3271   1.893   1.489   7.513
 2375W        W 3272   5.612   2.636   5.204
 2376W        W 3273   7.320   2.634   6.668
 2377W        W 3274   2.794   2.935   7.772
 2378W        W 3275   0.417   2.255   3.044
 2379W        W 3276   6.535   0.272   3.403
 2380W        W 3277   6.828   4.609   1.955
 2381W        W 3278   2.453   4.937   1.772
 2382W        W 3279   2.518   5.260   2.855
 2383W        W 3280   5.371   0.525   1.568
 2384W        W 3281   0.627   0.867   1.324
 2385W        W 3282   6.379   1.982   4.061
 2386W        W 3283   6.024   2.695   7.557
 2387W        W 3284   2.526   4.036   7.877
 2388W        W 3285   4.973   0.215   1.505
 2389W        W 3286   0.843   0.380   6.037
 2390W        W 3287   6.267   1.419   1.381
 2391W        W 3288   0.836   5.351   4.345
 2392W        W 3289   4.864   0.597   0.682
 2393W        W 3290   4.271   4.083   4.299
 2394W        W 3291   4.173   0.325   1.162
 2395W        W 3292   6.974   1.326   2.587
 2396W        W 3293   1.947   6.335   4.970
 2397W        W 3294   6.982   0.362   0.782
 2398W        W 3295   5.691   3.225   6.101
 2399W        W 3296   1.228   6.365   5.514
 2400W        W 3297   5.361   0.254   0.739
 2401W        W 3298   5.736   1.383   3.621
 2402W        W 3299   1.640   7.692   1.839
 2403W        W 3300   0.836   6.667   6.954
 2404W        W 3301   2.515   1.448   5.372
 2405W        W 3302   2.661   6.237   5.443
 2406W        W 3303   0.584   4.882   2.855
 2407W        W 3304   7.988   2.425   1.610
 2408W        W 3305   5.720   3.725   5.255
 2409W        W 3306   2.166   3.547   1.175
 2410W        W 3307   5.990   3.338   2.357
 2411W        W 3308   7.857   4.039   4.750
 2412W        W 3309   0.672   6.140   6.102
 2413W        W 3310   3.332   0.271   1.296
 2414W        W 3311   4.604   4.951   0.845
 2415W        W 3312   2.046   1.940   5.671
 2416W        W 3313   6.992   6.644   5.969
 2417W        W 3314   0.589   1.179   5.200
 2418W        W 3315   3.559   5.449   1.263
 2419W        W 3316   6.044   3.883   3.142
 2420W        W 3317   4.556   6.478   5.334
 2421W        W 3318   2.034   2.360   6.906
 2422W        W 3319   6.703   0.770   0.931
 2423W        W 3320   3.061   4.832   3.393
 2424W        W 3321   3.556   3.338   1.563
 2425W        W 3322   0.579   1.958   6.613
 2426W        W 3323   6.080   7.593   7.961
 2427W        W 3324   1.533   7.188   2.689
 2428W        W 3325   5.537   3.425   6.585
 2429W        W 3326   1.784   1.912   2.743
 2430W        W 3327   0.575   3.213   6.620
 2431W        W 3328   4.305   3.379   5.044
 2432W        W 3329   1.796   0.622   0.123
 2433W        W 3330   2.530   7.181   2.040
 2434W        W 3331   0.371   4.773   1.168
 2435W        W 3332   5.515   1.869   7.958
 2436W        W 3333   5.556   6.909   2.417
 2437W        W 3334   6.985   5.042   2.146
 2438W        W 3335   3.009   3.192   5.139
 2439W        W 3336   0.420   6.821   4.555
 2440W        W 3337   4.176   5.655   4.880
 2441W        W 3338   0.061   5.102   1.443
 2442W        W 3339   2.469   3.988   2.569
 2443W        W 3340   0.930   1.706   2.523
 2444W        W 3341   3.501   3.403   7.022
 2445W        W 3342   3.993   5.696   1.120
 2446W        W 3343   5.181   1.332   5.614
 2447W        W 3344   4.475   6.294   0.531
 2448W        W 3345   1.766   6.749   0.857
 2449W        W 3346   3.777   2.576   6.776
 2450W        W 3347   1.230   7.888   0.559
 2451W        W 3348   1.135   7.072   5.818
 2452W        W 3349   1.497   1.151   7.507
 2453W        W 3350   1.873   1.189   5.935
 2454W        W 3351   6.346   2.282   1.416
 2455W        W 3352   6.596   6.366   4.243
 2456W        W 3353   7.286   2.479   3.776
 2457W        W 3354   5.963   1.952   7.410
 2458W        W 3355   5.329   1.031   2.857
 2459W        W 3356   1.544   6.477   1.242
 2460W        W 3357   5.542   5.259   0.250
 2461W        W 3358   2.947   7.228   2.853
 2462W        W 3359   3.102   3.388   1.791
 2463W        W 3360   0.174   0.646   0.916
 2464W        W 3361   0.167   2.053   6.935
 2465W        W 3362   5.064   6.193   1.929
 2466W        W 3363   5.059   1.153   0.835
 2467W        W 3364   6.574   4.501   0.543
 2468W        W 3365   6.133   4.765   0.691
 2469W        W 3366   0.706   3.209   6.122
 2470W        W 3367   0.863   1.797   3.825
 2471W        W 3368   5.268   5.355   1.486
 2472W        W 3369   5.596   7.053   4.717
 2473W        W 3370   0.746   5.397   1.955
 2474W        W 3371   4.081   6.422   7.183
 2475W        W 3372   5.088   2.339   4.491
 2476W        W 3373   3.753   0.813   3.075
 2477W        W 3374   3.013   3.899   7.945
 2478W        W 3375   1.912   5.606   7.698
 2479W        W 3376   6.883   2.589   5.031
 2480W        W 3377   1.104   0.128   2.242
 2481W        W 3378   5.250   3.546   5.302
 2482W        W 3379   2.883   3.803   7.427
 2483W        W 3380   2.672   1.039   7.201
 2484W        W 3381   2.226   4.013   5.377
 2485W        W 3382   2.602   7.393   2.508
 2486W        W 3383   2.331   3.712   3.396
 2487W        W 3384   2.326   6.715   6.741
 2488W        W 3385   5.533   7.487   3.380
 2489W        W 3386   7.148   5.447   1.237
 2490W        W 3387   4.072   5.358   5.761
 2491W        W 3388   6.690   3.702   4.237
 2492W        W 3389   4.387   4.570   0.546
 2493W        W 3390   7.013   2.417   5.518
 2494W        W 3391   6.718   3.678   1.984
 2495W        W 3392   3.760   1.241   2.152
 2496W        W 3393   2.455   5.080   6.153
 2497W        W 3394   1.778   3.465   5.058
 2498W        W 3395   5.242   7.658   4.240
 2499W        W 3396   3.387   4.142   7.681
 2500W        W 3397   4.734   6.714   2.350
 2501W        W 3398   4.243   1.973   4.446
 2502W        W 3399   4.062   6.445   5.175
 2503W        W 3400   6.296   1.875   6.006
 2504W        W 3401   7.861   6.050   4.187
 2505W        W 3402   5.749   2.571   3.960
 2506W        W 3403   5.469   4.034   6.801
 2507W        W 3404   1.542   2.957   1.108
 2508W        W 3405   3.148   2.217   2.664
 2509W        W 3406   5.377   6.868   3.486
 2510W        W 3407   5.752   6.393   5.211
 2511W        W 3408   5.856   5.908   0.932
 2512W        W 3409   3.975   4.140   1.778
 2513W        W 3410   5.575   4.989   4.311
 2514W        W 3411   0.802   4.101   0.037
 2515W        W 3412   0.643   1.687   4.805
 2516W        W 3413   5.287   7.609   5.261
 2517W        W 3414   4.078   7.386   1.338
 2518W        W 3415   7.506   1.365   2.153
 2519W        W 3416   2.876   1.052   1.576
 2520W        W 3417   1.654   4.759   5.394
 2521W        W 3418   1.139   0.122   0.107
 2522W        W 3419   6.269   1.059   4.931
 2523W        W 3420   1.447   5.118   2.569
 2524W        W 3421   5.693   2.850   2.941
 2525W        W 3422   5.084   4.296   4.127
 2526W        W 3423   0.381   7.114   2.856
 2527W        W 3424   0.487   5.201   6.913
 2528W        W 3425   5.270   2.085   5.263
 2529W        W 3426   1.394   7.036   3.957
 2530W        W 3427   2.831   2.013   1.557
 2531W        W 3428   6.001   5.219   0.464
 2532W        W 3429   2.015   6.453   1.494
 2533W        W 3430   0.421   6.615   5.908
 2534W        W 3431   3.698   3.255   3.353
 2535W        W 3432   3.021   5.756   6.260
 2536W        W 3433   2.090   3.837   7.155
 2537W        W 3434   1.882   3.932   1.312
 2538W        W 3435   6.143   4.723   3.247
 2539W        W 3436   0.384   5.742   5.402
 2540W        W 3437   6.108   3.064   3.219
 2541W        W 3438   1.968   0.106   0.200
 2542W        W 3439   2.309   7.144   3.498
 2543W        W 3440   3.330   5.921   6.729
 2544W        W 3441   5.027   7.394   3.341
 2545W        W 3442   3.825   4.275   7.894
 2546W        W 3443   2.820   4.723   2.054
 2547W        W 3444   6.299   5.460   6.204
 2548W        W 3445   4.195   7.182   5.763
 2549W        W 3446   1.221   0.919   2.410
 2550W        W 3447   4.129   6.203   5.596
 2551W        W 3448   2.654   4.068   3.556
 2552W        W 3449   1.107   1.070   6.579
 2553W        W 3450   3.779   1.053   1.335
 2554W        W 3451   3.714   1.901   1.650
 2555W        W 3452   6.324   6.457   1.401
 2556W        W 3453   5.392   4.073   5.453
 2557W        W 3454   2.739   5.708   2.898
 2558W        W 3455   3.516   6.070   0.437
 2559W        W 3456   5.335   4.016   4.502
 2560W        W 3457   1.546   2.876   0.582
 2561W        W 3458   3.962   6.053   6.344
 2562W        W 3459   5.105   5.964   1.485
 2563W        W 3460   4.182   5.020   2.697
 2564W        W 3461   4.131   3.434   4.227
 2565W        W 3462   2.520   1.937   5.527
 2566W        W 3463   4.032   4.551   2.541
 2567W        W 3464   1.490   4.130   7.433
 2568W        W 3465   2.786   5.364   1.625
 2569W        W 3466   3.808   6.723   6.811
 2570W        W 3467   4.601   1.541   6.204
 2571W        W 3468   5.781   1.023   5.961
 2572W        W 3469   3.133   0.787   7.124
 2573W        W 3470   5.856   0.595   7.876
 2574W        W 3471   7.966   4.583   6.432
 2575W        W 3472   0.454   3.377   5.279
 2576W        W 3473   3.784   4.969   7.879
 2577W        W 3474   2.990   5.702   1.956
 2578W        W 3475   2.579   3.945   5.794
 2579W        W 3476   3.560   3.715   3.556
 2580W        W 3477   4.054   2.373   3.476
 2581W        W 3478   7.915   6.137   4.727
 2582W        W 3479   5.986   1.769   5.588
 2583W        W 3480   1.775   3.769   6.401
 2584W        W 3481   1.612   2.687   4.392
 2585W        W 3482   5.291   1.265   7.411
 2586W        W 3483   3.048   3.867   5.652
 2587W        W 3484   6.811   2.556   2.114
 2588W        W 3485   2.627   6.201   0.949
 2589W        W 3486   5.546   1.717   3.959
 2590W        W 3487   6.359   1.656   7.587
 2591W        W 3488   3.066   3.389   2.308
 2592W        W 3489   4.906   1.791   3.276
 2593W        W 3490   6.833   6.322   6.784
 2594W        W 3491   4.655   7.509   3.649
 2595W        W 3492   2.866   6.613   5.184
 2596W        W 3493   0.966   7.064   6.634
 2597W        W 3494   4.892   6.258   1.095
 2598W        W 3495   4.858   7.015   3.627
 2599W        W 3496   4.031   5.131   3.548
 2600W        W 3497   6.811   3.825   6.656
 2601W        W 3498   7.255   6.037   6.929
 2602W        W 3499   7.086   4.795   4.768
 2603W        W 3500   4.390   6.365   1.109
 2604W        W 3501   4.827   0.548   4.040
 2605W        W 3502   7.661   2.094   1.405
 2606W        W 3503   1.212   5.696   5.954
 2607W        W 3504   3.475   5.508   7.025
 2608W        W 3505   4.197   1.864   0.573
 2609W        W 3506   5.865   6.833   7.810
 2610W        W 3507   2.336   2.012   1.669
 2611W        W 3508   1.067   4.767   6.224
 2612W        W 3509   3.369   4.433   3.319
 2613W        W 3510   6.431   2.645   5.832
 2614W        W 3511   0.594   3.250   7.197
 2615W        W 3512   1.454   4.919   3.984
 2616W        W 3513   4.495   4.933   4.454
 2617W        W 3514   5.449   2.785   5.924
 2618W        W 3515   5.045   2.606   6.202
 2619W        W 3516   2.843   7.025   1.130
 2620W        W 3517   0.485   4.175   7.221
 2621W        W 3518   1.692   5.367   3.197
 2622W        W 3519   6.310   4.627   1.919
 2623W        W 3520   1.997   6.748   5.826
 2624W        W 3521   3.153   6.051   4.028
 2625W        W 3522   4.850   1.891   5.025
 2626W        W 3523   2.960   4.426   0.649
 2627W        W 3524   7.116   5.535   6.833
 2628W        W 3525   2.081   5.515   7.210
 2629W        W 3526   5.643   1.722   0.425
 2630W        W 3527   4.616   4.744   1.944
 2631W        W 3528   5.967   1.434   2.329
 2632W        W 3529   0.753   5.089   7.351
 2633W        W 3530   3.559   6.481   7.210
 2634W        W 3531   7.561   3.033   4.655
 2635W        W 3532   2.161   1.597   6.015
 2636W        W 3533   3.548   2.444   7.272
 2637W        W 3534   2.833   5.495   2.451
 2638W        W 3535   6.375   6.678   1.884
 2639W        W 3536   4.571   0.604   3.585
 2640W        W 3537   2.974   6.689   2.822
 2641W        W 3538   2.436   3.984   1.316
 2642W        W 3539   1.531   7.789   0.133
 2643W        W 3540   1.060   4.304   2.825
 2644W        W 3541   1.110   3.216   7.144
 2645W        W 3542   0.781   2.701   4.370
 2646W        W 3543   6.363   3.169   1.599
 2647W        W 3544   5.123   0.845   6.491
 2648W        W 3545   4.835   2.865   4.966
 2649W        W 3546   3.363   6.747   5.842
 2650W        W 3547   5.729   5.625   3.726
 2651W        W 3548   3.118   6.770   7.184
 2652W        W 3549   3.713   6.745   4.305
 2653W        W 3550   2.089   3.838   5.925
 2654W        W 3551   5.715   0.991   2.537
 2655W        W 3552   4.291   2.749   3.765
 2656W        W 3553   6.451   2.773   7.847
 2657W        W 3554   1.004   4.640   7.298
 2658W        W 3555   0.328   2.439   1.177
 2659W        W 3556   4.069   3.944   2.910
 2660W        W 3557   6.023   2.668   1.514
 2661W        W 3558   7.503   5.270   6.583
 2662W        W 3559   5.606   6.484   0.066
 2663W        W 3560   5.290   0.177   2.571
 2664W        W 3561   7.255   2.804   1.976
 2665W        W 3562   4.343   3.489   0.172
 2666W        W 3563   1.080   0.477   2.646
 2667W        W 3564   3.262   4.254   5.839
 2668W        W 3565   0.851   4.668   1.294
 2669W        W 3566   5.079   5.067   3.835
 2670W        W 3567   0.251   4.103   6.231
 2671W        W 3568   4.046   6.213   2.411
 2672W        W 3569   5.012   1.554   2.052
 2673W        W 3570   3.333   7.528   3.117
 2674W        W 3571   5.504   5.089   2.252
 2675W        W 3572   4.747   5.663   3.289
 2676W        W 3573   1.249   1.363   2.715
 2677W        W 3574   1.244   5.016   1.235
 2678W        W 3575   4.372   6.063   5.084
 2679W        W 3576   4.186   6.197   1.888
 2680W        W 3577   5.078   5.266   5.616
 2681W        W 3578   4.646   1.716   0.063
 2682W        W 3579   0.930   1.066   1.978
 2683W        W 3580   3.543   1.715   3.959
 2684W        W 3581   7.199   1.729   2.371
 2685W        W 3582   4.369   5.131   3.182
 2686W        W 3583   8.000   3.061   4.972
 2687W        W 3584   2.179   5.617   4.476
 2688W        W 3585   4.859   1.410   7.649
 2689W        W 3586   1.143   6.624   3.698
 2690W        W 3587   4.846   7.430   4.524
 2691W        W 3588   1.379   2.759   4.882
 2692W        W 3589   1.517   1.236   4.046
 2693W        W 3590   5.445   3.076   4.435
 2694W        W 3591   3.788   6.856   5.115
 2695W        W 3592   2.867   6.229   2.017
 2696W        W 3593   1.063   2.212   2.592
 2697W        W 3594   5.044   3.977   3.070
 2698W        W 3595   1.315   5.458   5.120
 2699W        W 3596   4.274   6.705   4.365
 2700W        W 3597   3.827   4.087   2.274
 2701W        W 3598   4.045   3.348   5.532
 2702W        W 3599   6.126   6.517   3.035
 2703W        W 3600   0.896   6.536   6.450
 2704W        W 3601   7.366   3.134   6.703
 2705W        W 3602   1.558   5.349   6.081
 2706W        W 3603   6.540   5.863   0.768
 2707W        W 3604   4.681   5.551   5.729
 2708W        W 3605   1.995   1.131   3.186
 2709W        W 3606   6.514   2.288   6.795
 2710W        W 3607   0.942   7.227   2.137
 2711W        W 3608   2.342   2.832   1.983
 2712W        W 3609   7.011   1.910   5.509
 2713W        W 3610   5.178   6.353   7.761
 2714W        W 3611   1.941   2.484   2.217
 2715W        W 3612   7.273   5.074   6.128
 2716W        W 3613   6.962   2.996   6.979
 2717W        W 3614   7.298   3.945   4.858
 2718W        W 3615   3.025   4.448   1.168
 2719W        W 3616   1.255   3.866   6.383
 2720W        W 3617   6.783   2.973   1.799
 2721W        W 3618   2.265   1.504   4.672
 2722W        W 3619   2.929   6.549   3.326
 2723W        W 3620   4.415   4.536   6.810
 2724W        W 3621   6.145   4.428   5.750
 2725W        W 3622   6.501   1.471   0.481
 2726W        W 3623   7.187   1.290   1.749
 2727W        W 3624   1.438   7.636   0.977
 2728W        W 3625   3.819   6.024   0.011
 2729W        W 3626   4.609   4.143   4.843
 2730W        W 3627   0.435   5.090   4.171
 2731W        W 3628   2.231   1.882   6.984
 2732W        W 3629   6.749   5.841   7.015
 2733W        W 3630   2.256   6.447   7.581
 2734W        W 3631   6.308   4.429   6.238
 2735W        W 3632   1.751   6.186   0.785
 2736W        W 3633   3.024   5.513   6.756
 2737W        W 3634   4.232   3.669   6.395
 2738W        W 3635   6.368   6.214   0.433
 2739W        W 3636   5.028   5.983   2.998
 2740W        W 3637   7.325   5.638   5.161
 2741W        W 3638   2.666   6.949   3.184
 2742W        W 3639   2.402   0.545   1.224
 2743W        W 3640   1.748   1.557   6.304
 2744W        W 3641   5.761   2.974   5.539
 2745W        W 3642   4.723   1.813   2.810
 2746W        W 3643   1.579   1.846   3.361
 2747W        W 3644   6.468   6.943   1.458
 2748W        W 3645   6.361   0.554   7.992
 2749W        W 3646   4.867   5.064   1.624
 2750W        W 3647   2.306   7.287   2.979
 2751W        W 3648   6.551   5.386   2.888
 2752W        W 3649   3.562   5.783   0.846
 2753W        W 3650   0.591   2.630   3.331
 2754W        W 3651   3.536   0.415   1.933
 2755W        W 3652   3.179   5.660   0.449
 2756W        W 3653   6.487   5.149   0.662
 2757W        W 3654   1.511   0.145   0.903
 2758W        W 3655   1.235   7.028   3.094
 2759W        W 3656   0.868   6.024   5.655
 2760W        W 3657   2.983   5.267   6.252
 2761W        W 3658   2.243   2.330   5.417
 2762W        W 3659   2.881   0.843   6.346
 2763W        W 3660   3.116   2.505   1.801
 2764W        W 3661   0.349   5.718   1.782
 2765W        W 3662   7.299   2.400   1.179
 2766W        W 3663   4.607   2.519   4.661
 2767W        W 3664   3.375   1.124   5.351
 2768W        W 3665   0.523   2.446   2.200
 2769W        W 3666   7.040   2.428   6.123
 2770W        W 3667   5.398   6.902   5.972
 2771W        W 3668   6.777   4.522   5.383
 2772W        W 3669   7.138   6.998   5.350
 2773W        W 3670   4.920   6.521   3.646
 2774W        W 3671   2.616   3.318   4.517
 2775W        W 3672   2.940   7.375   1.512
 2776W        W 3673   5.514   6.476   5.669
 2777W        W 3674   1.403   6.375   6.392
 2778W        W 3675   2.614   2.437   1.768
 2779W        W 3676   0.654   4.405   7.633
 2780W        W 3677   1.695   5.996   2.136
 2781W        W 3678   4.552   6.415   5.839
 2782W        W 3679   5.043   4.441   1.914
 2783W        W 3680   3.938   4.751   7.112
 2784W        W 3681   2.245   3.669   6.591
 2785W        W 3682   7.467   6.149   3.869
 2786W        W 3683   1.642   3.916   6.978
 2787W        W 3684   3.848   3.655   6.003
 2788W        W 3685   4.218   1.183   1.126
 2789W        W 3686   1.144   4.638   4.759
 2790W        W 3687   6.035   1.619   2.809
 2791W        W 3688   5.665   5.145   4.823
 2792W        W 3689   4.237   6.109   6.776
 2793W        W 3690   4.477   3.144   3.433
 2794W        W 3691   2.432   5.448   3.798
 2795W        W 3692   1.410   3.383   5.412
 2796W        W 3693   3.686   1.291   6.630
 2797W        W 3694   2.862   3.161   3.911
 2798W        W 3695   3.469   4.025   0.149
 2799W        W 3696   5.280   1.477   1.208
 2800W        W 3697   6.109   2.644   5.386
 2801W        W 3698   4.015   6.427   6.014
 2802W        W 3699   5.164   7.412   5.987
 2803W        W 3700   2.567   1.017   1.081
 2804W        W 3701   5.059   0.535   2.840
 2805W        W 3702   3.963   5.172   0.309
 2806W        W 3703   3.956   6.311   4.216
 2807W        W 3704   3.539   6.273   5.910
 2808W        W 3705   5.256   0.869   1.925
 2809W        W 3706   5.240   3.437   6.183
 2810W        W 3707   7.836   5.759   5.077
 2811W        W 3708   2.288   6.616   4.601
 2812W        W 3709   2.743   3.964   0.860
 2813W        W 3710   1.235   6.559   1.935
 2814W        W 3711   1.393   4.588   0.438
 2815W        W 3712   4.734   4.227   7.314
 2816W        W 3713   5.071   3.909   7.109
 2817W        W 3714   3.146   7.821   1.430
 2818W        W 3715   5.177   0.467   0.302
 2819W        W 3716   4.377   5.901   0.844
 2820W        W 3717   7.833   6.433   1.635
 2821W        W 3718   0.674   0.744   5.482
 2822W        W 3719   1.006   0.516   7.791
 2823W        W 3720   2.172   5.131   4.565
 2824W        W 3721   5.931   0.586   5.776
 2825W        W 3722   3.854   6.901   6.078
 2826W        W 3723   6.490   5.918   3.007
 2827W        W 3724   5.060   0.964   7.808
 2828W        W 3725   4.403   5.479   1.427
 2829W        W 3726   3.397   4.150   1.417
 2830W        W 3727   3.724   3.583   2.535
 2831W        W 3728   3.904   3.512   4.701
 2832W        W 3729   5.234   1.398   0.014
 2833W        W 3730   1.813   3.684   0.724
 2834W        W 3731   5.651   0.599   1.103
 2835W        W 3732   5.291   2.657   4.176
 2836W        W 3733   3.786   2.279   7.752
 2837W        W 3734   5.895   1.859   6.897
 2838W        W 3735   7.031   4.868   4.253
 2839W        W 3736   5.826   2.300   1.191
 2840W        W 3737   7.510   6.124   1.904
 2841W        W 3738   2.416   4.079   6.274
 2842W        W 3739   1.789   5.771   2.906
 2843W        W 3740   5.629   7.976   3.488
 2844W        W 3741   5.624   3.332   1.990
 2845W        W 3742   4.035   6.040   0.481
 2846W        W 3743   5.272   1.871   4.739
 2847W        W 3744   4.625   5.267   2.002
 2848W        W 3745   4.350   7.391   4.875
 2849W        W 3746   3.926   0.013   3.932
 2850W        W 3747   6.240   4.689   6.973
 2851W        W 3748   1.615   1.024   2.758
 2852W        W 3749   2.851   4.978   5.860
 2853W        W 3750   7.788   6.933   1.654
 2854W        W 3751   1.066   1.142   5.399
 2855W        W 3752   1.179   3.340   3.654
 2856W        W 3753   4.025   3.642   3.364
 2857W        W 3754   6.727   3.169   6.080
 2858W        W 3755   6.244   6.248   0.938
 2859W        W 3756   0.669   1.225   5.698
 2860W        W 3757   1.355   3.454   7.974
 2861W        W 3758   2.669   6.488   2.468
 2862W        W 3759   4.817   1.388   3.578
 2863W        W 3760   3.491   2.062   2.309
 2864W        W 3761   0.345   1.549   1.265
 2865W        W 3762   4.822   5.884   0.256
 2866W        W 3763   4.528   7.029   1.993
 2867W        W 3764   0.837   5.838   1.647
 2868W        W 3765   5.177   3.111   3.567
 2869W        W 3766   6.799   6.417   3.762
 2870W        W 3767   3.767   5.614   3.506
 2871W        W 3768   2.282   2.917   4.536
 2872W        W 3769   3.024   7.001   3.573
 2873W        W 3770   5.699   0.475   3.424
 2874W        W 3771   0.738   5.848   4.182
 2875W        W 3772   2.185   2.200   2.622
 2876W        W 3773   2.166   6.065   5.390
 2877W        W 3774   6.915   2.360   3.445
 2878W        W 3775   2.449   6.855   5.020
 2879W        W 3776   0.669   2.893   2.009
 2880W        W 3777   7.291   3.951   6.908
 2881W        W 3778   5.226   1.743   7.576
 2882W        W 3779   6.071   7.827   4.081
 2883W        W 3780   2.036   6.738   3.656
 2884W        W 3781   4.190   2.447   6.085
 2885W        W 3782   6.184   6.523   2.324
 2886W        W 3783   0.271   5.246   0.982
 2887W        W 3784   2.537   6.886   5.531
 2888W        W 3785   4.539   3.177   3.922
 2889W        W 3786   6.749   3.302   4.529
 2890W        W 3787   6.463   5.045   6.642
 2891W        W 3788   7.927   3.732   3.412
 2892W        W 3789   3.063   0.546   4.210
 2893W        W 3790   3.837   6.649   1.839
 2894W        W 3791   3.458   7.908   3.703
 2895W        W 3792   0.429   2.893   3.751
 2896W        W 3793   5.055   3.178   4.076
 2897W        W 3794   3.271   4.368   4.165
 2898W        W 3795   3.686   2.210   2.806
 2899W        W 3796   5.749   0.666   1.913
 2900W        W 3797   2.518   2.484   4.661
 2901W        W 3798   6.791   4.028   5.691
 2902W        W 3799   1.918   7.493   6.521
 2903W        W 3800   6.681   6.260   1.705
 2904W        W 3801   3.782   6.650   1.007
 2905W        W 3802   6.163   6.123   3.375
 2906W        W 3803   4.236   3.031   7.983
 2907W        W 3804   5.871   2.917   4.834
 2908W        W 3805   2.549   5.794   5.668
 2909W        W 3806   6.984   2.668   3.056
 2910W        W 3807   6.774   1.167   5.871
 2911W        W 3808   3.111   2.574   4.414
 2912W        W 3809   7.953   6.907   5.731
 2913W        W 3810   4.354   1.397   7.720
 2914W        W 3811   5.460   1.952   1.073
 2915W        W 3812   7.615   4.689   6.015
 2916W        W 3813   0.172   2.004   1.383
 2917W        W 3814   1.669   5.851   6.167
 2918W        W 3815   5.759   2.269   7.752
 2919W        W 3816   7.503   3.214   5.132
 2920W        W 3817   6.443   6.671   3.475
 2921W        W 3818   4.168   1.817   6.813
 2922W        W 3819   4.038   1.432   4.622
 2923W        W 3820   7.169   6.602   4.030
 2924W        W 3821   2.132   4.766   1.441
 2925W        W 3822   2.245   2.985   5.038
 2926W        W 3823   5.365   3.235   5.701
 2927W        W 3824   3.647   3.088   4.467
 2928W        W 3825   4.144   6.514   6.491
 2929W        W 3826   1.046   1.717   7.024
 2930W        W 3827   4.119   2.266   6.571
 2931W        W 3828   3.842   4.610   3.488
 2932W        W 3829   1.136   6.799   1.491
 2933W        W 3830   5.343   0.179   3.112
 2934W        W 3831   3.146   3.114   4.357
 2935W        W 3832   2.108   7.239   5.884
 2936W        W 3833   6.691   1.902   6.344
 2937W        W 3834   0.305   3.196   1.805
 2938W        W 3835   6.469   3.247   2.092
 2939W        W 3836   4.714   6.680   0.846
 2940W        W 3837   0.588   0.966   3.145
 2941W        W 3838   1.363   1.116   3.190
 2942W        W 3839   2.361   1.993   4.612
 2943W        W 3840   3.377   1.179   3.849
 2944W        W 3841   5.737   7.420   4.379
 2945W        W 3842   6.374   6.379   7.028
 2946W        W 3843   5.284   0.987   5.995
 2947W        W 3844   1.658   5.796   7.264
 2948W        W 3845   4.645   4.049   6.836
 2949W        W 3846   4.255   5.416   2.278
 2950W        W 3847   1.585   2.369   6.590
 2951W        W 3848   5.517   6.218   1.698
 2952W        W 3849   5.398   6.648   4.951
 2953W        W 3850   0.884   4.840   7.804
 2954W        W 3851   5.644   6.961   7.343
 2955W        W 3852   2.919   0.885   2.985
 2956W        W 3853   6.765   4.141   2.816
 2957W        W 3854   6.211   1.476   5.235
 2958W        W 3855   4.366   4.712   3.597
 2959W        W 3856   6.859   0.466   3.052
 2960W        W 3857   5.242   5.626   6.096
 2961W        W 3858   2.759   4.333   5.397
 2962W        W 3859   1.401   4.934   7.061
 2963W        W 3860   7.120   6.133   1.473
 2964W        W 3861   6.600   1.316   2.923
 2965W        W 3862   0.146   4.169   3.250
 2966W        W 3863   0.115   5.607   3.066
 2967W        W 3864   7.931   5.812   2.104
 2968W        W 3865   4.652   1.074   6.419
 2969W        W 3866   1.134   0.239   6.486
 2970W        W 3867   7.477   5.128   1.985
 2971W        W 3868   2.954   5.485   5.789
 2972W        W 3869   2.119   2.281   4.941
 2973W        W 3870   4.023   4.597   7.596
 2974W        W 3871   3.222   0.710   3.716
 2975W        W 3872   5.765   6.420   0.920
 2976W        W 3873   1.684   2.931   2.786
 2977W        W 3874   3.681   5.098   6.821
 2978W        W 3875   0.661   3.855   7.605
 2979W        W 3876   3.972   1.019   7.762
 2980W        W 3877   4.344   6.636   1.692
 2981W        W 3878   5.245   3.728   1.813
 2982W        W 3879   6.730   4.649   3.926
 2983W        W 3880   6.940   1.610   0.260
 2984W        W 3881   7.017   6.132   4.599
 2985W        W 3882   6.211   6.185   1.922
 2986W        W 3883   0.472   3.231   2.783
 2987W        W 3884   6.343   0.981   0.612
 2988W        W 3885   7.452   6.421   2.964
 2989W        W 3886   6.642   5.525   6.575
 2990W        W 3887   2.300   4.570   7.095
 2991W        W 3888   0.746   6.701   2.812
 2992W        W 3889   7.132   4.867   5.267
 2993W        W 3890   5.832   5.205   5.303
 2994W        W 3891   0.362   1.641   5.715
 2995W        W 3892   3.607   1.513   6.185
 2996W        W 3893   5.144   6.779   5.519
 2997W        W 3894   1.923   3.186   0.811
 2998W        W 3895   0.250   0.840   6.396
 2999W        W 3896   5.770   1.918   6.020
 3000W        W 3897   4.113   5.294   6.630
 3001W        W 3898   7.969   1.757   7.327
 3002W        W 3899   1.509   3.688   3.832
 3003W        W 3900   3.078   6.268   7.277
 3004W        W 3901   2.138   6.138   4.481
 3005W        W 3902   4.256   5.981   1.427
 3006W        W 3903   6.499   6.705   0.969
 3007W        W 3904   1.924   0.690   2.962
 3008W        W 3905   6.158   0.662   0.985
 3009W        W 3906   6.071   2.710   3.573
 3010W        W 3907   5.085   2.145   5.773
 3011W        W 3908   0.610   4.499   2.510
 3012W        W 3909   5.864   5.679   6.044
 3013W        W 3910   6.685   5.294   7.045
 3014W        W 3911   4.412   3.284   6.652
 3015W        W 3912   1.272   6.649   2.708
 3016W        W 3913   7.437   5.005   5.647
 3017W        W 3914   5.539   3.527   1.450
 3018W        W 3915   5.303   1.080   5.116
 3019W        W 3916   6.715   5.769   6.076
 3020W        W 3917   3.416   2.729   5.742
 3021W        W 3918   5.053   2.040   1.894
 3022W        W 3919   7.090   1.463   3.063
 3023W        W 3920   6.677   1.298   1.635
 3024W        W 3921   3.312   3.084   3.665
 3025W        W 3922   0.346   1.488   0.767
 3026W        W 3923   0.601   5.381   2.990
 3027W        W 3924   1.191   6.836   5.361
 3028W        W 3925   4.585   1.955   5.898
 3029W        W 3926   6.403   1.513   4.284
 3030W        W 3927   7.700   7.112   6.151
 3031W        W 3928   0.770   6.297   3.772
 3032W        W 3929   6.242   6.079   6.211
 3033W        W 3930   3.780   1.627   0.380
 3034W        W 3931   6.045   0.994   3.624
 3035W        W 3932   6.168   0.608   3.288
 3036W        W 3933   3.719   2.287   6.278
 3037W        W 3934   3.291   0.992   4.313
 3038W        W 3935   7.104   2.648   2.556
 3039W        W 3936   3.601   0.725   0.579
 3040W        W 3937   3.700   6.525   5.517
 3041W        W 3938   1.034   6.415   5.053
 3042W        W 3939   3.702   6.162   1.815
 3043W        W 3940   1.823   6.944   4.230
 3044W        W 3941   0.138   3.688   4.496
 3045W        W 3942   4.319   5.719   6.478
 3046W        W 3943   7.958   3.984   4.104
 3047W        W 3944   3.056   0.661   1.998
 3048W        W 3945   1.799   7.266   1.597
 3049W        W 3946   5.945   6.746   4.912
 3050W        W 3947   4.954   1.647   1.557
 3051W        W 3948   3.342   4.778   1.403
 3052W        W 3949   4.933   2.120   6.259
 3053W        W 3950   6.342   3.826   6.886
 3054W        W 3951   5.227   7.200   6.454
 3055W        W 3952   6.048   6.588   6.100
 3056W        W 3953   4.450   5.056   0.370
 3057W        W 3954   4.530   3.449   1.249
 3058W        W 3955   5.761   4.721   5.149
 3059W        W 3956   3.290   6.585   7.638
 3060W        W 3957   5.961   2.788   5.967
 3061W        W 3958   4.975   6.348   0.571
 3062W        W 3959   1.462   6.672   4.928
 3063W        W 3960   7.523   2.724   4.200
 3064W        W 3961   5.429   6.046   2.221
 3065W        W 3962   3.657   3.774   1.876
 3066W        W 3963   5.475   1.247   0.527
 3067W        W 3964   4.856   3.679   4.872
 3068W        W 3965   4.162   6.712   5.604
 3069W        W 3966   2.671   5.012   2.447
 3070W        W 3967   2.155   3.383   0.332
 3071W        W 3968   2.107   2.814   5.503
 3072W        W 3969   6.549   7.536   4.091
 3073W        W 3970   1.661   4.312   7.887
 3074W        W 3971   7.189   2.956   3.888
 3075W        W 3972   0.382   5.061   4.749
 3076W        W 3973   0.784   4.550   3.665
 3077W        W 3974   5.541   5.164   3.660
 3078W        W 3975   3.994   1.549   1.376
 3079W        W 3976   6.472   4.085   4.521
 3080W        W 3977   4.833   4.849   6.760
 3081W        W 3978   5.895   3.782   6.643
 3082W        W 3979   6.913   2.507   7.022
 3083W        W 3980   2.785   2.931   1.727
 3084W        W 3981   6.055   2.325   6.143
 3085W        W 3982   5.246   3.032   2.231
 3086W        W 3983   1.346   2.799   7.374
 3087W        W 3984   2.389   0.102   0.979
 3088W        W 3985   5.095   6.921   2.634
 3089W        W 3986   0.995   2.443   7.173
 3090W        W 3987   5.642   2.958   3.431
 3091W        W 3988   5.888   7.017   5.831
 3092W        W 3989   4.803   6.913   5.164
 3093W        W 3990   3.929   7.303   2.618
 3094W        W 3991   2.119   5.929   5.888
 3095W        W 3992   3.262   4.165   5.303
 3096W        W 3993   5.533   7.209   1.964
 3097W        W 3994   4.488   3.369   7.664
 3098W        W 3995   6.181   3.464   2.868
 3099W        W 3996   3.822   6.417   7.654
 3100W        W 3997   3.379   4.256   6.339
 3101W        W 3998   4.639   4.643   4.867
 3102W        W 3999   6.857   2.166   3.931
 3103W        W 4000   4.381   3.706   4.651
 3104W        W 4001   6.985   5.198   0.811
 3105W        W 4002   2.193   1.585   6.540
 3106W        W 4003   6.240   4.609   5.273
 3107W        W 4004   0.490   1.446   3.766
 3108W        W 4005   2.777   4.509   7.189
 3109W        W 4006   6.275   2.267   7.722
 3110W        W 4007   5.053   6.505   5.966
 3111W        W 4008   2.400   3.670   7.532
 3112W        W 4009   2.616   6.112   7.444
 3113W        W 4010   3.649   6.482   2.271
 3114W        W 4011   0.928   7.517   1.151
 3115W        W 4012   6.915   0.126   3.721
 3116W        W 4013   6.361   2.104   0.932
 3117W        W 4014   1.797   6.441   3.308
 3118W        W 4015   2.807   5.265   0.821
 3119W        W 4016   1.873   3.451   6.870
 3120W        W 4017   4.713   6.563   6.393
 3121W        W 4018   5.052   3.872   6.060
 3122W        W 4019   6.096   5.136   4.492
 3123W        W 4020   6.423   1.778   1.695
 3124W        W 4021   1.093   2.660   0.275
 3125W        W 4022   3.244   2.912   1.521
 3126W        W 4023   1.691   6.642   5.384
 3127W        W 4024   2.090   4.403   4.119
 3128W        W 4025   1.936   2.930   0.249
 3129W        W 4026   0.421   6.558   2.151
 3130W        W 4027   2.568   2.610   5.166
 3131W        W 4028   0.214   2.423   2.606
 3132W        W 4029   2.339   2.864   3.269
 3133W        W 4030   4.750   3.558   6.922
 3134W        W 4031   0.095   6.187   2.601
 3135W        W 4032   0.566   4.238   2.939
 3136W        W 4033   4.427   5.870   2.404
 3137W        W 4034   7.957   4.632   3.474
 3138W        W 4035   2.354   1.246   3.520
 3139W        W 4036   1.237   5.050   7.518
 3140W        W 4037   0.323   3.668   7.246
 3141W        W 4038   4.331   7.034   2.464
 3142W        W 4039   6.406   2.631   1.820
 3143W        W 4040   7.977   2.949   3.987
 3144W        W 4041   4.502   5.082   5.677
 3145W        W 4042   0.051   6.485   4.388
 3146W        W 4043   0.064   6.098   6.054
 3147W        W 4044   7.611   3.715   4.371
 3148W        W 4045   2.301   6.779   2.242
 3149W        W 4046   1.711   6.155   5.582
 3150W        W 4047   4.637   2.965   6.348
 3151W        W 4048   7.196   2.129   1.594
 3152W        W 4049   5.843   5.098   0.946
 3153W        W 4050   5.113   1.867   4.260
 3154W        W 4051   2.389   2.785   1.445
 3155W        W 4052   4.319   1.150   6.037
 3156W        W 4053   0.745   6.532   5.495
 3157W        W 4054   6.917   3.504   2.429
 3158W        W 4055   1.829   6.314   6.036
 3159W        W 4056   3.617   3.344   3.992
 3160W        W 4057   2.384   0.966   1.559
 3161W        W 4058   2.786   1.013   5.406
 3162W        W 4059   2.226   1.776   5.108
 3163W        W 4060   5.178   1.529   2.937
 3164W        W 4061   7.414   6.371   5.849
 3165W        W 4062   6.956   5.917   6.527
 3166W        W 4063   5.553   1.628   7.175
 3167W        W 4064   6.219   3.948   4.060
 3168W        W 4065   0.567   7.898   1.268
 3169W        W 4066   4.753   7.307   2.376
 3170W        W 4067   3.395   5.509   4.730
 3171W        W 4068   5.345   1.979   6.874
 3172W        W 4069   6.487   6.680   2.723
 3173W        W 4070   7.788   0.741   1.241
 3174W        W 4071   0.657   2.032   7.118
 3175W        W 4072   0.898   3.738   1.462
 3176W        W 4073   3.726   7.030   5.595
 3177W        W 4074   4.505   0.625   7.254
 3178W        W 4075   1.287   1.924   5.434
 3179W        W 4076   5.698   4.449   7.055
 3180W        W 4077   6.358   0.610   3.768
 3181W        W 4078   3.879   7.922   3.427
 3182W        W 4079   2.322   3.140   5.838
 3183W        W 4080   1.726   3.781   4.681
 3184W        W 4081   1.310   6.297   4.632
 3185W        W 4082   7.971   1.664   6.069
 3186W        W 4083   5.800   1.309   6.845
 3187W        W 4084   4.550   6.160   3.707
 3188W        W 4085   7.942   3.412   5.345
 3189W        W 4086   5.277   5.316   4.555
 3190W        W 4087   1.400   1.938   6.423
 3191W        W 4088   0.993   6.254   2.887
 3192W        W 4089   2.940   5.844   7.727
 3193W        W 4090   7.521   7.623   2.618
 3194W        W 4091   1.130   4.373   6.520
 3195W        W 4092   2.076   4.379   1.136
 3196W        W 4093   0.861   2.070   2.154
 3197W        W 4094   6.032   0.611   1.491
 3198W        W 4095   6.765   1.678   5.892
 3199W        W 4096   2.189   6.868   1.756
 3200W        W 4097   0.910   6.685   2.325
 3201W        W 4098   3.105   5.203   1.224
 3202W        W 4099   4.882   0.851   4.888
 3203W        W 4100   3.092   2.924   2.512
 3204W        W 4101   2.775   0.967   3.489
 3205W        W 4102   7.538   3.780   5.957
 3206W        W 4103   0.644   7.702   1.759
 3207W        W 4104   2.136   4.284   0.074
 3208W        W 4105   0.309   2.776   2.943
 3209W        W 4106   5.182   4.215   6.404
 3210W        W 4107   1.861   7.201   3.244
 3211W        W 4108   7.260   6.460   3.532
 3212W        W 4109   4.549   2.269   2.647
 3213W        W 4110   1.688   5.661   4.325
 3214W        W 4111   3.566   2.984   2.403
 3215W        W 4112   1.648   3.339   0.377
 3216W        W 4113   6.716   1.599   6.758
 3217W        W 4114   3.300   2.288   5.962
 3218W        W 4115   2.017   1.264   3.886
 3219W        W 4116   4.317   4.360   0.073
 3220W        W 4117   6.991   2.137   0.217
 3221W        W 4118   3.087   5.659   0.968
 3222W        W 4119   6.100   4.359   0.365
 3223W        W 4120   3.566   3.816   5.601
 3224W        W 4121   1.291   4.152   0.191
 3225W        W 4122   1.337   6.166   5.946
 3226W        W 4123   4.423   2.914   2.847
 3227W        W 4124   6.488   4.706   1.450
 3228W        W 4125   0.858   3.478   4.967
 3229W        W 4126   5.257   2.802   2.685
 3230W        W 4127   4.289   5.105   4.006
 3231W        W 4128   2.650   3.263   7.370
 3232W        W 4129   4.632   5.128   2.488
 3233W        W 4130   5.450   4.514   3.057
 3234W        W 4131   5.278   7.372   2.494
 3235W        W 4132   4.808   4.897   3.335
 3236W        W 4133   6.973   1.447   6.334
 3237W        W 4134   3.473   2.826   4.059
 3238W        W 4135   5.326   1.415   4.314
 3239W        W 4136   7.925   1.962   1.838
 3240W        W 4137   3.176   4.830   0.861
 3241W        W 4138   1.039   7.910   1.458
 3242W        W 4139   1.429   5.833   7.721
 3243W        W 4140   5.213   2.612   0.515
 3244W        W 4141   4.596   0.599   6.604
 3245W        W 4142   5.670   1.149   2.038
   8.00000   8.00000   8.00000
