Martini system from ../2_Creating_coordinates/TYR-MET-TYR_aa.pdb
 4200
    1TYR     BB    1   4.577   3.220   4.913
    1TYR    SC1    2   4.540   3.499   4.769
    1TYR    SC2    3   4.596   3.763   4.755
    1TYR    SC3    4   4.548   3.623   4.529
    2MET     BB    5   4.918   3.241   4.923
    2MET    SC1    6   4.997   2.996   5.209
    3TYR     BB    7   4.982   3.551   5.008
    3TYR    SC1    8   5.271   3.617   5.002
    3TYR    SC2    9   5.459   3.795   5.079
    3TYR    SC3   10   5.488   3.661   4.847
    1TYR     BB   11   7.486   3.026   4.458
    1TYR    SC1   12   7.218   2.992   4.311
    1TYR    SC2   13   7.021   3.168   4.255
    1TYR    SC3   14   7.106   2.996   4.065
    2MET     BB   15   7.463   3.404   4.391
    2MET    SC1   16   7.726   3.443   4.097
    3TYR     BB   17   7.245   3.592   4.171
    3TYR    SC1   18   7.227   3.410   3.914
    3TYR    SC2   19   7.347   3.322   3.689
    3TYR    SC3   20   7.081   3.290   3.722
    1TYR     BB   21   6.775   3.119   2.957
    1TYR    SC1   22   6.542   2.914   2.893
    1TYR    SC2   23   6.366   2.804   2.720
    1TYR    SC3   24   6.428   2.675   2.949
    2MET     BB   25   6.858   3.013   3.254
    2MET    SC1   26   7.223   3.143   3.228
    3TYR     BB   27   6.957   2.694   3.198
    3TYR    SC1   28   6.731   2.517   3.291
    3TYR    SC2   29   6.578   2.305   3.221
    3TYR    SC3   30   6.574   2.396   3.475
    1TYR     BB   31   6.851   6.272   2.560
    1TYR    SC1   32   6.757   5.978   2.479
    1TYR    SC2   33   6.599   5.825   2.324
    1TYR    SC3   34   6.832   5.726   2.418
    2MET     BB   35   6.687   6.457   2.350
    2MET    SC1   36   6.705   6.796   2.506
    3TYR     BB   37   6.662   6.331   2.081
    3TYR    SC1   38   6.897   6.111   2.066
    3TYR    SC2   39   6.991   5.866   2.002
    3TYR    SC3   40   7.115   6.012   2.192
    1TYR     BB   41   1.901   4.575   5.566
    1TYR    SC1   42   2.085   4.809   5.619
    1TYR    SC2   43   2.128   5.051   5.507
    1TYR    SC3   44   2.175   5.014   5.770
    2MET     BB   45   1.948   4.587   5.209
    2MET    SC1   46   1.702   4.296   5.191
    3TYR     BB   47   2.183   4.462   5.019
    3TYR    SC1   48   2.182   4.575   4.736
    3TYR    SC2   49   2.348   4.750   4.615
    3TYR    SC3   50   2.104   4.703   4.512
    1TYR     BB   51   5.078   5.688   3.694
    1TYR    SC1   52   5.252   5.564   3.927
    1TYR    SC2   53   5.380   5.610   4.161
    1TYR    SC3   54   5.423   5.380   4.026
    2MET     BB   55   4.886   5.891   3.834
    2MET    SC1   56   4.662   6.077   3.579
    3TYR     BB   57   5.000   6.002   4.099
    3TYR    SC1   58   4.998   5.796   4.317
    3TYR    SC2   59   5.097   5.673   4.536
    3TYR    SC3   60   4.930   5.540   4.371
    1TYR     BB   61   3.182   4.022   3.850
    1TYR    SC1   62   3.078   3.761   4.006
    1TYR    SC2   63   2.911   3.668   4.197
    1TYR    SC3   64   2.969   3.516   3.982
    2MET     BB   65   2.858   4.139   3.797
    2MET    SC1   66   2.828   4.199   4.157
    3TYR     BB   67   2.618   3.870   3.808
    3TYR    SC1   68   2.473   3.948   3.550
    3TYR    SC2   69   2.249   4.014   3.413
    3TYR    SC3   70   2.467   4.173   3.400
    1TYR     BB   71   6.561   1.419   1.436
    1TYR    SC1   72   6.751   1.467   1.680
    1TYR    SC2   73   6.966   1.402   1.831
    1TYR    SC3   74   6.844   1.641   1.865
    2MET     BB   75   6.473   1.721   1.360
    2MET    SC1   76   6.614   1.741   0.995
    3TYR     BB   77   6.659   1.948   1.490
    3TYR    SC1   78   6.546   2.146   1.690
    3TYR    SC2   79   6.540   2.383   1.821
    3TYR    SC3   80   6.443   2.160   1.939
    1TYR     BB   81   3.651   5.185   2.650
    1TYR    SC1   82   3.615   4.909   2.528
    1TYR    SC2   83   3.510   4.700   2.662
    1TYR    SC3   84   3.575   4.674   2.402
    2MET     BB   85   3.363   5.334   2.592
    2MET    SC1   86   3.156   5.063   2.792
    3TYR     BB   87   3.224   5.265   2.345
    3TYR    SC1   88   3.342   5.047   2.179
    3TYR    SC2   89   3.356   4.823   2.028
    3TYR    SC3   90   3.572   4.984   2.051
    1TYR     BB   91   1.495   7.487   5.427
    1TYR    SC1   92   1.518   7.175   5.430
    1TYR    SC2   93   1.555   6.979   5.613
    1TYR    SC3   94   1.431   6.924   5.379
    2MET     BB   95   1.188   7.548   5.460
    2MET    SC1   96   1.178   7.943   5.399
    3TYR     BB   97   1.011   7.281   5.370
    3TYR    SC1   98   1.160   7.177   5.119
    3TYR    SC2   99   1.143   7.122   4.855
    3TYR    SC3  100   1.385   7.135   4.975
    1TYR     BB  101   5.811   0.727   5.039
    1TYR    SC1  102   5.975   0.906   5.231
    1TYR    SC2  103   6.059   1.147   5.319
    1TYR    SC3  104   5.986   0.956   5.496
    2MET     BB  105   5.526   0.709   5.208
    2MET    SC1  106   5.559   0.319   5.182
    3TYR     BB  107   5.477   0.960   5.407
    3TYR    SC1  108   5.571   0.929   5.702
    3TYR    SC2  109   5.578   1.046   5.945
    3TYR    SC3  110   5.638   0.784   5.920
    1TYR     BB  111   1.101   4.820   3.161
    1TYR    SC1  112   0.874   4.940   3.001
    1TYR    SC2  113   0.665   5.111   2.995
    1TYR    SC3  114   0.719   4.956   2.781
    2MET     BB  115   1.408   4.855   3.138
    2MET    SC1  116   1.602   4.558   3.290
    3TYR     BB  117   1.524   5.074   2.944
    3TYR    SC1  118   1.341   5.019   2.686
    3TYR    SC2  119   1.311   4.933   2.432
    3TYR    SC3  120   1.141   4.850   2.624
    1TYR     BB  121   5.760   7.137   5.627
    1TYR    SC1  122   5.956   7.170   5.388
    1TYR    SC2  123   6.024   7.381   5.234
    1TYR    SC3  124   6.159   7.148   5.210
    2MET     BB  125   5.869   7.024   5.909
    2MET    SC1  126   5.861   7.397   6.066
    3TYR     BB  127   6.222   7.065   5.997
    3TYR    SC1  128   6.270   7.239   5.742
    3TYR    SC2  129   6.204   7.477   5.633
    3TYR    SC3  130   6.404   7.331   5.527
    1TYR     BB  131   3.952   0.252   0.590
    1TYR    SC1  132   4.245   0.305   0.516
    1TYR    SC2  133   4.431   0.347   0.326
    1TYR    SC3  134   4.505   0.330   0.585
    2MET     BB  135   3.803   0.534   0.490
    2MET    SC1  136   3.458   0.334   0.556
    3TYR     BB  137   4.025   0.785   0.421
    3TYR    SC1  138   4.325   0.768   0.511
    3TYR    SC2  139   4.584   0.769   0.436
    3TYR    SC3  140   4.519   0.791   0.697
    1TYR     BB  141   3.791   6.997   5.817
    1TYR    SC1  142   4.010   7.205   5.894
    1TYR    SC2  143   4.109   7.452   5.849
    1TYR    SC3  144   4.269   7.257   5.946
    2MET     BB  145   3.712   6.809   6.042
    2MET    SC1  146   3.314   6.876   6.038
    3TYR     BB  147   3.769   6.909   6.320
    3TYR    SC1  148   3.921   6.710   6.502
    3TYR    SC2  149   4.050   6.717   6.739
    3TYR    SC3  150   4.137   6.553   6.543
    1TYR     BB  151   5.390   6.918   0.652
    1TYR    SC1  152   5.127   7.047   0.751
    1TYR    SC2  153   4.936   7.235   0.720
    1TYR    SC3  154   4.912   7.048   0.914
    2MET     BB  155   5.400   6.812   0.332
    2MET    SC1  156   5.696   7.015   0.222
    3TYR     BB  157   5.287   6.672   0.051
    3TYR    SC1  158   5.370   6.370   0.046
    3TYR    SC2  159   5.322   6.118   7.961
    3TYR    SC3  160   5.463   6.160   0.188
    1TYR     BB  161   2.244   2.892   7.551
    1TYR    SC1  162   2.006   2.779   7.714
    1TYR    SC2  163   1.948   2.613   7.919
    1TYR    SC3  164   1.774   2.808   7.849
    2MET     BB  165   2.470   2.980   7.746
    2MET    SC1  166   2.724   3.105   7.470
    3TYR     BB  167   2.447   3.000   0.052
    3TYR    SC1  168   2.205   2.879   0.207
    3TYR    SC2  169   2.112   2.751   0.426
    3TYR    SC3  170   1.946   2.906   0.280
    1TYR     BB  171   7.699   7.752   0.036
    1TYR    SC1  172   7.484   7.657   7.833
    1TYR    SC2  173   7.380   7.602   7.590
    1TYR    SC3  174   7.255   7.516   7.814
    2MET     BB  175   7.663   0.068   0.138
    2MET    SC1  176   7.724   0.203   0.507
    3TYR     BB  177   7.534   0.341   0.031
    3TYR    SC1  178   7.309   0.241   7.848
    3TYR    SC2  179   7.062   0.183   7.756
    3TYR    SC3  180   7.274   0.037   7.675
    1TYR     BB  181   0.183   6.412   3.585
    1TYR    SC1  182   0.343   6.178   3.463
    1TYR    SC2  183   0.519   5.977   3.500
    1TYR    SC3  184   0.312   5.947   3.328
    2MET     BB  185   0.136   6.252   3.904
    2MET    SC1  186   7.797   6.464   3.946
    3TYR     BB  187   0.413   6.097   3.983
    3TYR    SC1  188   0.384   5.916   4.224
    3TYR    SC2  189   0.431   5.881   4.487
    3TYR    SC3  190   0.371   5.669   4.332
    1TYR     BB  191   6.642   0.727   5.962
    1TYR    SC1  192   6.578   0.436   6.004
    1TYR    SC2  193   6.448   0.249   6.149
    1TYR    SC3  194   6.442   0.239   5.879
    2MET     BB  195   6.871   0.849   6.088
    2MET    SC1  196   7.013   1.039   5.770
    3TYR     BB  197   7.153   0.669   6.071
    3TYR    SC1  198   7.058   0.401   6.182
    3TYR    SC2  199   7.117   0.157   6.281
    3TYR    SC3  200   6.877   0.270   6.334
    1TYR     BB  201   3.333   6.062   0.764
    1TYR    SC1  202   3.541   6.022   0.537
    1TYR    SC2  203   3.723   6.124   0.365
    1TYR    SC3  204   3.582   5.903   0.298
    2MET     BB  205   3.454   5.863   0.992
    2MET    SC1  206   3.416   6.090   1.297
    3TYR     BB  207   3.739   5.819   0.996
    3TYR    SC1  208   3.880   5.734   0.723
    3TYR    SC2  209   3.994   5.762   0.479
    3TYR    SC3  210   4.007   5.525   0.608
    1TYR     BB  211   6.625   5.234   5.456
    1TYR    SC1  212   6.809   5.438   5.309
    1TYR    SC2  213   7.049   5.470   5.189
    1TYR    SC3  214   6.845   5.637   5.129
    2MET     BB  215   6.634   4.962   5.287
    2MET    SC1  216   6.782   4.744   5.552
    3TYR     BB  217   6.905   4.993   5.068
    3TYR    SC1  218   6.765   5.217   4.893
    3TYR    SC2  219   6.657   5.311   4.665
    3TYR    SC3  220   6.546   5.374   4.903
    1TYR     BB  221   4.606   5.429   1.081
    1TYR    SC1  222   4.529   5.702   1.222
    1TYR    SC2  223   4.638   5.937   1.148
    1TYR    SC3  224   4.469   5.927   1.359
    2MET     BB  225   4.504   5.488   0.775
    2MET    SC1  226   4.434   5.273   0.464
    3TYR     BB  227   4.525   5.756   0.592
    3TYR    SC1  228   4.335   5.947   0.743
    3TYR    SC2  229   4.132   6.120   0.781
    3TYR    SC3  230   4.207   5.955   0.980
    1TYR     BB  231   2.752   5.153   0.834
    1TYR    SC1  232   2.689   5.314   1.093
    1TYR    SC2  233   2.716   5.551   1.220
    1TYR    SC3  234   2.661   5.328   1.361
    2MET     BB  235   2.507   5.143   0.632
    2MET    SC1  236   2.445   4.748   0.596
    3TYR     BB  237   2.184   5.139   0.775
    3TYR    SC1  238   2.244   5.324   1.005
    3TYR    SC2  239   2.303   5.581   1.061
    3TYR    SC3  240   2.235   5.411   1.260
    1TYR     BB  241   4.566   2.256   5.945
    1TYR    SC1  242   4.481   2.535   5.869
    1TYR    SC2  243   4.307   2.693   5.738
    1TYR    SC3  244   4.386   2.758   5.988
    2MET     BB  245   4.328   2.165   6.156
    2MET    SC1  246   4.568   1.959   6.364
    3TYR     BB  247   4.041   2.117   6.111
    3TYR    SC1  248   3.891   2.366   6.032
    3TYR    SC2  249   3.667   2.515   6.016
    3TYR    SC3  250   3.905   2.623   5.952
    1TYR     BB  251   1.046   3.402   5.173
    1TYR    SC1  252   1.059   3.318   5.474
    1TYR    SC2  253   1.181   3.309   5.714
    1TYR    SC3  254   0.941   3.191   5.681
    2MET     BB  255   1.022   3.733   5.208
    2MET    SC1  256   0.703   3.677   5.439
    3TYR     BB  257   1.222   3.837   5.419
    3TYR    SC1  258   1.129   3.763   5.697
    3TYR    SC2  259   1.188   3.736   5.959
    3TYR    SC3  260   0.945   3.665   5.867
    1TYR     BB  261   0.834   4.187   5.416
    1TYR    SC1  262   0.681   4.462   5.381
    1TYR    SC2  263   0.494   4.620   5.495
    1TYR    SC3  264   0.670   4.724   5.319
    2MET     BB  265   0.750   4.109   5.721
    2MET    SC1  266   1.098   4.229   5.856
    3TYR     BB  267   0.583   4.310   5.870
    3TYR    SC1  268   0.344   4.274   6.048
    3TYR    SC2  269   0.172   4.117   6.184
    3TYR    SC3  270   0.097   4.364   6.106
    1TYR     BB  271   1.471   6.608   4.946
    1TYR    SC1  272   1.401   6.764   4.686
    1TYR    SC2  273   1.392   6.971   4.512
    1TYR    SC3  274   1.256   6.743   4.459
    2MET     BB  275   1.753   6.654   5.026
    2MET    SC1  276   1.831   6.630   5.397
    3TYR     BB  277   1.847   6.940   5.012
    3TYR    SC1  278   1.804   7.040   4.722
    3TYR    SC2  279   1.873   7.230   4.543
    3TYR    SC3  280   1.841   6.975   4.463
    1TYR     BB  281   7.846   7.285   3.311
    1TYR    SC1  282   7.984   7.561   3.360
    1TYR    SC2  283   0.190   7.719   3.284
    1TYR    SC3  284   0.063   7.766   3.517
    2MET     BB  285   0.094   7.129   3.129
    2MET    SC1  286   0.061   6.742   3.088
    3TYR     BB  287   0.385   7.258   3.208
    3TYR    SC1  288   0.363   7.333   3.501
    3TYR    SC2  289   0.217   7.371   3.724
    3TYR    SC3  290   0.446   7.509   3.688
    1TYR     BB  291   6.018   4.270   0.289
    1TYR    SC1  292   5.740   4.409   0.250
    1TYR    SC2  293   5.636   4.653   0.194
    1TYR    SC3  294   5.551   4.435   0.059
    2MET     BB  295   6.129   4.380   7.968
    2MET    SC1  296   5.905   4.099   7.821
    3TYR     BB  297   6.020   4.683   7.845
    3TYR    SC1  298   5.788   4.584   7.660
    3TYR    SC2  299   5.587   4.418   7.589
    3TYR    SC3  300   5.667   4.613   7.420
    1TYR     BB  301   2.871   0.649   3.029
    1TYR    SC1  302   2.976   0.875   2.860
    1TYR    SC2  303   3.203   0.921   2.721
    1TYR    SC3  304   3.051   1.128   2.804
    2MET     BB  305   2.844   0.411   2.783
    2MET    SC1  306   3.185   0.435   2.594
    3TYR     BB  307   2.687   0.543   2.522
    3TYR    SC1  308   2.861   0.778   2.417
    3TYR    SC2  309   3.077   0.885   2.296
    3TYR    SC3  310   2.882   1.046   2.390
    1TYR     BB  311   3.173   1.916   1.528
    1TYR    SC1  312   3.028   1.890   1.803
    1TYR    SC2  313   2.830   1.779   1.950
    1TYR    SC3  314   3.076   1.808   2.056
    2MET     BB  315   3.082   1.583   1.420
    2MET    SC1  316   3.179   1.649   1.066
    3TYR     BB  317   2.805   1.564   1.483
    3TYR    SC1  318   2.661   1.308   1.565
    3TYR    SC2  319   2.410   1.209   1.555
    3TYR    SC3  320   2.562   1.171   1.775
    1TYR     BB  321   0.771   3.275   7.039
    1TYR    SC1  322   0.462   3.355   7.035
    1TYR    SC2  323   0.225   3.377   7.161
    1TYR    SC3  324   0.329   3.590   7.032
    2MET     BB  325   0.857   3.486   7.302
    2MET    SC1  326   1.105   3.432   7.589
    3TYR     BB  327   0.596   3.548   7.474
    3TYR    SC1  328   0.677   3.735   7.694
    3TYR    SC2  329   0.708   3.776   7.959
    3TYR    SC3  330   0.907   3.841   7.789
    1TYR     BB  331   5.742   2.248   2.368
    1TYR    SC1  332   5.831   2.423   2.606
    1TYR    SC2  333   5.833   2.678   2.695
    1TYR    SC3  334   6.025   2.506   2.775
    2MET     BB  335   5.511   2.061   2.407
    2MET    SC1  336   5.227   2.247   2.236
    3TYR     BB  337   5.387   2.041   2.718
    3TYR    SC1  338   5.672   2.049   2.857
    3TYR    SC2  339   5.909   2.120   2.965
    3TYR    SC3  340   5.903   1.962   2.746
    1TYR     BB  341   0.735   1.411   6.470
    1TYR    SC1  342   0.696   1.718   6.538
    1TYR    SC2  343   0.632   1.978   6.570
    1TYR    SC3  344   0.885   1.895   6.615
    2MET     BB  345   1.019   1.373   6.645
    2MET    SC1  346   1.201   1.137   6.443
    3TYR     BB  347   1.056   1.484   6.896
    3TYR    SC1  348   1.175   1.753   6.929
    3TYR    SC2  349   1.132   2.009   7.004
    3TYR    SC3  350   1.335   1.949   6.836
    1TYR     BB  351   5.054   6.125   7.158
    1TYR    SC1  352   4.849   6.245   6.954
    1TYR    SC2  353   4.603   6.337   6.890
    1TYR    SC3  354   4.785   6.289   6.696
    2MET     BB  355   5.292   6.352   7.142
    2MET    SC1  356   5.347   6.456   7.519
    3TYR     BB  357   5.411   6.409   6.881
    3TYR    SC1  358   5.216   6.515   6.655
    3TYR    SC2  359   5.013   6.608   6.503
    3TYR    SC3  360   5.265   6.694   6.458
    1TYR     BB  361   6.780   0.246   0.735
    1TYR    SC1  362   6.985   0.283   0.501
    1TYR    SC2  363   7.230   0.197   0.427
    1TYR    SC3  364   7.061   0.296   0.242
    2MET     BB  365   6.715   7.901   0.694
    2MET    SC1  366   6.676   7.598   0.968
    3TYR     BB  367   6.968   7.744   0.579
    3TYR    SC1  368   7.010   7.825   0.288
    3TYR    SC2  369   7.204   7.875   0.108
    3TYR    SC3  370   6.951   7.833   0.025
    1TYR     BB  371   4.614   4.575   4.451
    1TYR    SC1  372   4.740   4.845   4.411
    1TYR    SC2  373   4.993   4.919   4.354
    1TYR    SC3  374   4.797   5.104   4.362
    2MET     BB  375   4.855   4.382   4.532
    2MET    SC1  376   4.685   4.260   4.853
    3TYR     BB  377   5.115   4.497   4.687
    3TYR    SC1  378   5.015   4.772   4.787
    3TYR    SC2  379   4.777   4.813   4.906
    3TYR    SC3  380   4.916   5.022   4.807
    1TYR     BB  381   6.789   3.107   5.443
    1TYR    SC1  382   6.566   3.131   5.630
    1TYR    SC2  383   6.314   3.156   5.724
    1TYR    SC3  384   6.495   3.008   5.860
    2MET     BB  385   6.978   2.867   5.610
    2MET    SC1  386   6.698   2.611   5.544
    3TYR     BB  387   6.976   2.809   5.923
    3TYR    SC1  388   7.215   2.911   6.089
    3TYR    SC2  389   7.437   2.894   6.242
    3TYR    SC3  390   7.313   3.132   6.210
    1TYR     BB  391   6.665   7.862   7.083
    1TYR    SC1  392   6.703   7.581   6.980
    1TYR    SC2  393   6.815   7.336   7.005
    1TYR    SC3  394   6.735   7.424   6.763
    2MET     BB  395   6.469   7.890   7.327
    2MET    SC1  396   6.608   0.207   7.506
    3TYR     BB  397   6.202   7.710   7.349
    3TYR    SC1  398   6.241   7.509   7.106
    3TYR    SC2  399   6.349   7.283   7.005
    3TYR    SC3  400   6.274   7.483   6.840
    1TYR     BB  401   4.933   4.971   5.921
    1TYR    SC1  402   4.717   5.145   5.794
    1TYR    SC2  403   4.509   5.296   5.878
    1TYR    SC3  404   4.591   5.309   5.621
    2MET     BB  405   4.706   4.907   6.217
    2MET    SC1  406   5.009   4.956   6.421
    3TYR     BB  407   4.522   5.063   6.442
    3TYR    SC1  408   4.468   5.349   6.394
    3TYR    SC2  409   4.391   5.577   6.516
    3TYR    SC3  410   4.425   5.572   6.248
    1TYR     BB  411   2.578   2.813   3.952
    1TYR    SC1  412   2.602   2.553   4.135
    1TYR    SC2  413   2.700   2.307   4.182
    1TYR    SC3  414   2.533   2.421   4.360
    2MET     BB  415   2.855   2.953   4.019
    2MET    SC1  416   2.938   3.088   3.683
    3TYR     BB  417   3.094   2.683   3.904
    3TYR    SC1  418   3.115   2.559   4.168
    3TYR    SC2  419   3.124   2.349   4.338
    3TYR    SC3  420   3.008   2.580   4.415
    1TYR     BB  421   4.495   1.575   4.585
    1TYR    SC1  422   4.660   1.659   4.843
    1TYR    SC2  423   4.903   1.640   4.960
    1TYR    SC3  424   4.690   1.724   5.103
    2MET     BB  425   4.745   1.657   4.373
    2MET    SC1  426   4.608   1.626   4.042
    3TYR     BB  427   4.974   1.788   4.455
    3TYR    SC1  428   5.049   2.073   4.534
    3TYR    SC2  429   5.192   2.167   4.743
    3TYR    SC3  430   5.111   2.335   4.548
    1TYR     BB  431   6.890   7.931   3.571
    1TYR    SC1  432   6.843   0.241   3.526
    1TYR    SC2  433   6.757   0.496   3.545
    1TYR    SC3  434   6.954   0.432   3.372
    2MET     BB  435   7.215   7.904   3.411
    2MET    SC1  436   7.508   7.674   3.573
    3TYR     BB  437   7.402   0.171   3.428
    3TYR    SC1  438   7.687   0.088   3.321
    3TYR    SC2  439   7.942   0.120   3.239
    3TYR    SC3  440   7.796   7.913   3.146
    1TYR     BB  441   4.852   7.728   4.150
    1TYR    SC1  442   4.704   7.444   4.157
    1TYR    SC2  443   4.548   7.225   4.185
    1TYR    SC3  444   4.810   7.197   4.125
    2MET     BB  445   5.139   7.601   3.980
    2MET    SC1  446   5.135   7.886   3.741
    3TYR     BB  447   5.111   7.377   3.759
    3TYR    SC1  448   5.110   7.073   3.789
    3TYR    SC2  449   5.087   6.838   3.657
    3TYR    SC3  450   5.175   6.842   3.913
    1TYR     BB  451   4.505   0.832   6.004
    1TYR    SC1  452   4.668   0.639   5.826
    1TYR    SC2  453   4.836   0.440   5.756
    1TYR    SC3  454   4.653   0.530   5.579
    2MET     BB  455   4.189   0.744   5.892
    2MET    SC1  456   4.040   0.777   6.260
    3TYR     BB  457   4.165   0.427   5.886
    3TYR    SC1  458   4.341   0.217   5.729
    3TYR    SC2  459   4.556   0.070   5.656
    3TYR    SC3  460   4.312   0.011   5.556
    1TYR     BB  461   6.614   3.619   5.465
    1TYR    SC1  462   6.549   3.895   5.595
    1TYR    SC2  463   6.456   4.052   5.794
    1TYR    SC3  464   6.556   4.163   5.569
    2MET     BB  465   6.936   3.582   5.562
    2MET    SC1  466   7.038   3.313   5.826
    3TYR     BB  467   7.026   3.805   5.809
    3TYR    SC1  468   6.951   4.101   5.793
    3TYR    SC2  469   6.833   4.328   5.878
    3TYR    SC3  470   7.029   4.339   5.693
    1TYR     BB  471   3.913   2.437   7.568
    1TYR    SC1  472   3.773   2.682   7.454
    1TYR    SC2  473   3.583   2.869   7.414
    1TYR    SC3  474   3.825   2.896   7.298
    2MET     BB  475   3.939   2.235   7.313
    2MET    SC1  476   3.715   1.940   7.465
    3TYR     BB  477   3.946   2.429   7.047
    3TYR    SC1  478   4.063   2.255   6.819
    3TYR    SC2  479   4.282   2.200   6.670
    3TYR    SC3  480   4.049   2.074   6.619
    1TYR     BB  481   6.915   5.050   1.808
    1TYR    SC1  482   6.726   5.243   1.959
    1TYR    SC2  483   6.692   5.511   1.977
    1TYR    SC3  484   6.641   5.353   2.190
    2MET     BB  485   6.764   4.857   1.603
    2MET    SC1  486   6.942   4.741   1.274
    3TYR     BB  487   6.493   4.778   1.650
    3TYR    SC1  488   6.331   4.976   1.822
    3TYR    SC2  489   6.079   5.054   1.882
    3TYR    SC3  490   6.274   5.072   2.068
    1TYR     BB  491   3.194   1.432   7.740
    1TYR    SC1  492   3.499   1.401   7.693
    1TYR    SC2  493   3.713   1.237   7.690
    1TYR    SC3  494   3.686   1.426   7.499
    2MET     BB  495   3.108   1.275   7.434
    2MET    SC1  496   2.865   1.010   7.572
    3TYR     BB  497   3.336   1.073   7.320
    3TYR    SC1  498   3.182   0.831   7.191
    3TYR    SC2  499   2.984   0.649   7.212
    3TYR    SC3  500   3.090   0.706   6.970
    1TYR     BB  501   6.049   2.055   5.057
    1TYR    SC1  502   6.082   2.306   4.880
    1TYR    SC2  503   6.190   2.553   4.863
    1TYR    SC3  504   5.977   2.488   4.710
    2MET     BB  505   6.254   1.840   4.928
    2MET    SC1  506   6.053   1.508   4.938
    3TYR     BB  507   6.532   1.942   4.928
    3TYR    SC1  508   6.546   2.230   4.809
    3TYR    SC2  509   6.626   2.487   4.822
    3TYR    SC3  510   6.625   2.358   4.585
    1TYR     BB  511   2.614   5.141   5.546
    1TYR    SC1  512   2.566   4.844   5.611
    1TYR    SC2  513   2.483   4.596   5.542
    1TYR    SC3  514   2.563   4.646   5.795
    2MET     BB  515   2.666   5.130   5.231
    2MET    SC1  516   2.399   4.889   5.125
    3TYR     BB  517   2.939   4.976   5.153
    3TYR    SC1  518   2.951   4.741   5.355
    3TYR    SC2  519   2.910   4.481   5.416
    3TYR    SC3  520   2.985   4.655   5.609
    1TYR     BB  521   6.639   2.876   0.912
    1TYR    SC1  522   6.680   2.594   0.792
    1TYR    SC2  523   6.700   2.326   0.814
    1TYR    SC3  524   6.774   2.449   0.585
    2MET     BB  525   6.450   3.107   0.727
    2MET    SC1  526   6.235   3.420   0.844
    3TYR     BB  527   6.431   3.253   0.390
    3TYR    SC1  528   6.452   3.076   0.124
    3TYR    SC2  529   6.516   2.839   0.012
    3TYR    SC3  530   6.359   3.013   7.879
    1TYR     BB  531   0.199   2.492   0.991
    1TYR    SC1  532   7.910   2.613   1.045
    1TYR    SC2  533   7.674   2.728   0.980
    1TYR    SC3  534   7.749   2.712   1.238
    2MET     BB  535   0.186   2.202   1.153
    2MET    SC1  536   7.912   2.036   0.911
    3TYR     BB  537   7.971   2.205   1.387
    3TYR    SC1  538   7.690   2.270   1.305
    3TYR    SC2  539   7.508   2.325   1.113
    3TYR    SC3  540   7.435   2.324   1.373
    1TYR     BB  541   2.055   3.397   1.696
    1TYR    SC1  542   2.162   3.503   1.971
    1TYR    SC2  543   2.219   3.729   2.108
    1TYR    SC3  544   2.281   3.488   2.213
    2MET     BB  545   1.773   3.481   1.659
    2MET    SC1  546   1.591   3.173   1.747
    3TYR     BB  547   1.648   3.683   1.888
    3TYR    SC1  548   1.750   3.568   2.159
    3TYR    SC2  549   1.678   3.414   2.368
    3TYR    SC3  550   1.883   3.588   2.392
    1TYR     BB  551   6.773   4.311   0.942
    1TYR    SC1  552   6.752   4.264   1.247
    1TYR    SC2  553   6.701   4.356   1.496
    1TYR    SC3  554   6.908   4.189   1.454
    2MET     BB  555   6.568   4.220   0.704
    2MET    SC1  556   6.506   3.832   0.602
    3TYR     BB  557   6.286   4.388   0.707
    3TYR    SC1  558   6.292   4.503   0.996
    3TYR    SC2  559   6.458   4.657   1.143
    3TYR    SC3  560   6.323   4.455   1.260
    1TYR     BB  561   3.899   3.769   6.761
    1TYR    SC1  562   3.736   4.027   6.781
    1TYR    SC2  563   3.792   4.290   6.805
    1TYR    SC3  564   3.560   4.212   6.691
    2MET     BB  565   4.210   3.897   6.735
    2MET    SC1  566   4.174   4.088   7.087
    3TYR     BB  567   4.287   4.215   6.617
    3TYR    SC1  568   4.049   4.227   6.420
    3TYR    SC2  569   3.834   4.367   6.335
    3TYR    SC3  570   3.828   4.097   6.334
    1TYR     BB  571   0.815   1.402   1.306
    1TYR    SC1  572   0.583   1.327   1.486
    1TYR    SC2  573   0.336   1.412   1.552
    1TYR    SC3  574   0.402   1.153   1.584
    2MET     BB  575   0.669   1.395   1.012
    2MET    SC1  576   0.396   1.676   1.099
    3TYR     BB  577   0.398   1.168   1.027
    3TYR    SC1  578   0.128   1.223   1.180
    3TYR    SC2  579   7.965   1.183   1.391
    3TYR    SC3  580   7.860   1.224   1.146
    1TYR     BB  581   1.405   1.370   3.107
    1TYR    SC1  582   1.677   1.495   3.223
    1TYR    SC2  583   1.788   1.644   3.419
    1TYR    SC3  584   1.901   1.410   3.346
    2MET     BB  585   1.343   1.168   3.356
    2MET    SC1  586   1.025   0.964   3.355
    3TYR     BB  587   1.342   1.340   3.619
    3TYR    SC1  588   1.616   1.341   3.736
    3TYR    SC2  589   1.823   1.474   3.848
    3TYR    SC3  590   1.758   1.227   3.936
    1TYR     BB  591   2.506   1.561   7.176
    1TYR    SC1  592   2.734   1.628   6.974
    1TYR    SC2  593   2.894   1.554   6.770
    1TYR    SC3  594   2.907   1.806   6.866
    2MET     BB  595   2.206   1.561   7.069
    2MET    SC1  596   1.979   1.450   7.393
    3TYR     BB  597   2.064   1.569   6.725
    3TYR    SC1  598   2.292   1.735   6.621
    3TYR    SC2  599   2.551   1.752   6.549
    3TYR    SC3  600   2.454   1.911   6.745
    1TYR     BB  601   4.967   1.098   2.963
    1TYR    SC1  602   5.089   0.939   3.208
    1TYR    SC2  603   5.139   1.022   3.460
    1TYR    SC3  604   5.074   0.764   3.413
    2MET     BB  605   4.688   1.186   3.086
    2MET    SC1  606   4.593   1.537   3.083
    3TYR     BB  607   4.615   1.069   3.359
    3TYR    SC1  608   4.350   0.906   3.303
    3TYR    SC2  609   4.184   0.692   3.290
    3TYR    SC3  610   4.174   0.882   3.099
    1TYR     BB  611   6.612   5.994   0.050
    1TYR    SC1  612   6.787   6.170   0.241
    1TYR    SC2  613   7.039   6.194   0.336
    1TYR    SC3  614   6.872   6.406   0.341
    2MET     BB  615   6.761   6.067   7.753
    2MET    SC1  616   6.878   5.715   7.628
    3TYR     BB  617   6.938   6.375   7.816
    3TYR    SC1  618   6.677   6.505   7.948
    3TYR    SC2  619   6.527   6.634   0.132
    3TYR    SC3  620   6.412   6.458   7.964
    1TYR     BB  621   1.078   1.706   0.085
    1TYR    SC1  622   1.237   1.588   7.840
    1TYR    SC2  623   1.479   1.579   7.723
    1TYR    SC3  624   1.314   1.366   7.707
    2MET     BB  625   1.349   1.734   0.298
    2MET    SC1  626   1.198   1.848   0.617
    3TYR     BB  627   1.547   1.508   0.240
    3TYR    SC1  628   1.368   1.269   0.166
    3TYR    SC2  629   1.333   1.019   0.070
    3TYR    SC3  630   1.120   1.180   0.108
    1TYR     BB  631   4.203   1.776   2.142
    1TYR    SC1  632   4.490   1.689   2.184
    1TYR    SC2  633   4.719   1.554   2.137
    1TYR    SC3  634   4.722   1.824   2.155
    2MET     BB  635   4.338   2.022   1.875
    2MET    SC1  636   4.046   1.856   1.682
    3TYR     BB  637   4.579   1.976   1.662
    3TYR    SC1  638   4.884   2.016   1.729
    3TYR    SC2  639   5.073   1.930   1.901
    3TYR    SC3  640   5.144   2.069   1.680
    1TYR     BB  641   6.607   6.763   0.618
    1TYR    SC1  642   6.478   6.489   0.547
    1TYR    SC2  643   6.261   6.392   0.419
    1TYR    SC3  644   6.444   6.223   0.522
    2MET     BB  645   6.659   6.768   0.931
    2MET    SC1  646   6.639   7.085   1.170
    3TYR     BB  647   6.514   6.531   1.076
    3TYR    SC1  648   6.249   6.485   0.923
    3TYR    SC2  649   6.002   6.573   0.859
    3TYR    SC3  650   6.066   6.313   0.824
    1TYR     BB  651   1.450   6.699   3.139
    1TYR    SC1  652   1.404   6.522   3.388
    1TYR    SC2  653   1.309   6.362   3.584
    1TYR    SC3  654   1.482   6.561   3.644
    2MET     BB  655   1.760   6.739   3.109
    2MET    SC1  656   1.816   7.107   3.218
    3TYR     BB  657   1.958   6.530   3.175
    3TYR    SC1  658   1.871   6.385   3.438
    3TYR    SC2  659   1.729   6.202   3.577
    3TYR    SC3  660   1.954   6.308   3.684
    1TYR     BB  661   5.732   0.238   2.442
    1TYR    SC1  662   5.950   0.133   2.649
    1TYR    SC2  663   6.180   0.154   2.788
    1TYR    SC3  664   6.013   7.946   2.833
    2MET     BB  665   5.590   0.479   2.650
    2MET    SC1  666   5.406   0.736   2.408
    3TYR     BB  667   5.817   0.569   2.866
    3TYR    SC1  668   5.871   0.332   3.066
    3TYR    SC2  669   6.028   0.203   3.243
    3TYR    SC3  670   5.783   0.106   3.184
    1TYR     BB  671   1.149   5.757   2.290
    1TYR    SC1  672   0.864   5.769   2.422
    1TYR    SC2  673   0.606   5.721   2.360
    1TYR    SC3  674   0.688   5.706   2.617
    2MET     BB  675   1.191   5.429   2.299
    2MET    SC1  676   1.541   5.450   2.177
    3TYR     BB  677   0.944   5.282   2.447
    3TYR    SC1  678   0.986   5.356   2.748
    3TYR    SC2  679   0.893   5.496   2.959
    3TYR    SC3  680   1.101   5.327   2.990
    1TYR     BB  681   2.136   6.003   5.599
    1TYR    SC1  682   2.151   6.309   5.676
    1TYR    SC2  683   2.168   6.469   5.894
    1TYR    SC3  684   2.243   6.562   5.652
    2MET     BB  685   2.446   5.933   5.591
    2MET    SC1  686   2.472   5.603   5.396
    3TYR     BB  687   2.660   6.088   5.758
    3TYR    SC1  688   2.609   6.365   5.869
    3TYR    SC2  689   2.584   6.572   6.040
    3TYR    SC3  690   2.678   6.613   5.790
    1TYR     BB  691   2.509   0.419   5.313
    1TYR    SC1  692   2.796   0.466   5.390
    1TYR    SC2  693   3.030   0.332   5.395
    1TYR    SC3  694   3.013   0.570   5.269
    2MET     BB  695   2.620   0.408   4.936
    2MET    SC1  696   2.353   0.140   4.858
    3TYR     BB  697   2.924   0.396   4.795
    3TYR    SC1  698   3.129   0.637   4.822
    3TYR    SC2  699   3.391   0.699   4.798
    3TYR    SC3  700   3.230   0.850   4.953
    1TYR     BB  701   2.454   2.512   1.812
    1TYR    SC1  702   2.686   2.724   1.795
    1TYR    SC2  703   2.941   2.714   1.883
    1TYR    SC3  704   2.879   2.856   1.662
    2MET     BB  705   2.655   2.244   1.883
    2MET    SC1  706   2.401   2.046   2.109
    3TYR     BB  707   2.855   2.267   2.124
    3TYR    SC1  708   3.153   2.278   2.031
    3TYR    SC2  709   3.396   2.380   2.089
    3TYR    SC3  710   3.377   2.150   1.949
    1TYR     BB  711   3.015   6.242   2.506
    1TYR    SC1  712   2.856   6.505   2.587
    1TYR    SC2  713   2.635   6.653   2.630
    1TYR    SC3  714   2.874   6.740   2.718
    2MET     BB  715   3.084   6.100   2.782
    2MET    SC1  716   3.221   5.750   2.869
    3TYR     BB  717   3.007   6.214   3.022
    3TYR    SC1  718   2.736   6.368   2.997
    3TYR    SC2  719   2.470   6.396   2.961
    3TYR    SC3  720   2.611   6.591   3.082
    1TYR     BB  721   4.191   5.670   2.052
    1TYR    SC1  722   4.366   5.825   2.248
    1TYR    SC2  723   4.598   5.962   2.242
    1TYR    SC3  724   4.465   5.933   2.475
    2MET     BB  725   4.397   5.600   1.795
    2MET    SC1  726   4.115   5.680   1.555
    3TYR     BB  727   4.679   5.709   1.807
    3TYR    SC1  728   4.792   5.972   1.679
    3TYR    SC2  729   5.029   6.094   1.634
    3TYR    SC3  730   4.805   6.184   1.513
    1TYR     BB  731   3.781   5.794   2.346
    1TYR    SC1  732   3.976   6.022   2.408
    1TYR    SC2  733   4.112   6.196   2.563
    1TYR    SC3  734   4.117   6.223   2.295
    2MET     BB  735   3.696   5.829   2.038
    2MET    SC1  736   3.521   5.488   1.989
    3TYR     BB  737   3.848   6.004   1.856
    3TYR    SC1  738   3.883   6.310   1.898
    3TYR    SC2  739   3.918   6.535   1.753
    3TYR    SC3  740   3.800   6.548   1.995
    1TYR     BB  741   5.687   2.472   5.916
    1TYR    SC1  742   5.941   2.603   5.799
    1TYR    SC2  743   6.132   2.758   5.911
    1TYR    SC3  744   6.193   2.600   5.701
    2MET     BB  745   5.874   2.239   6.113
    2MET    SC1  746   5.783   1.916   6.335
    3TYR     BB  747   6.160   2.321   6.178
    3TYR    SC1  748   6.307   2.067   6.267
    3TYR    SC2  749   6.275   1.877   6.456
    3TYR    SC3  750   6.428   1.827   6.240
    1TYR     BB  751   1.490   4.820   0.360
    1TYR    SC1  752   1.424   5.034   0.173
    1TYR    SC2  753   1.376   5.080   7.911
    1TYR    SC3  754   1.307   5.265   0.096
    2MET     BB  755   1.245   4.694   0.490
    2MET    SC1  756   1.287   4.373   0.293
    3TYR     BB  757   0.978   4.849   0.463
    3TYR    SC1  758   1.054   5.133   0.501
    3TYR    SC2  759   1.047   5.340   0.676
    3TYR    SC3  760   1.284   5.250   0.582
    1TYR     BB  761   3.031   1.838   4.989
    1TYR    SC1  762   2.992   1.561   5.103
    1TYR    SC2  763   2.993   1.398   5.319
    1TYR    SC3  764   3.030   1.296   5.071
    2MET     BB  765   3.002   2.123   5.098
    2MET    SC1  766   3.199   2.347   4.855
    3TYR     BB  767   2.930   2.256   5.396
    3TYR    SC1  768   2.748   2.031   5.504
    3TYR    SC2  769   2.552   1.891   5.626
    3TYR    SC3  770   2.705   1.772   5.438
    1TYR     BB  771   2.527   3.339   4.321
    1TYR    SC1  772   2.444   3.625   4.223
    1TYR    SC2  773   2.518   3.868   4.315
    1TYR    SC3  774   2.267   3.828   4.225
    2MET     BB  775   2.568   3.446   4.647
    2MET    SC1  776   2.772   3.240   4.853
    3TYR     BB  777   2.378   3.646   4.775
    3TYR    SC1  778   2.505   3.930   4.756
    3TYR    SC2  779   2.449   4.186   4.690
    3TYR    SC3  780   2.703   4.097   4.679
    1TYR     BB  781   1.707   4.139   0.050
    1TYR    SC1  782   1.921   3.955   0.182
    1TYR    SC2  783   2.181   3.883   0.170
    1TYR    SC3  784   2.038   3.837   0.394
    2MET     BB  785   1.788   4.428   0.186
    2MET    SC1  786   1.571   4.609   7.897
    3TYR     BB  787   2.099   4.390   0.352
    3TYR    SC1  788   2.079   4.222   0.607
    3TYR    SC2  789   2.225   4.069   0.775
    3TYR    SC3  790   1.957   4.084   0.804
    1TYR     BB  791   3.296   5.170   7.914
    1TYR    SC1  792   3.227   5.273   7.630
    1TYR    SC2  793   3.096   5.480   7.516
    1TYR    SC3  794   3.283   5.345   7.376
    2MET     BB  795   3.230   5.415   0.112
    2MET    SC1  796   3.016   5.264   0.400
    3TYR     BB  797   3.241   5.706   7.967
    3TYR    SC1  798   3.455   5.661   7.744
    3TYR    SC2  799   3.543   5.742   7.502
    3TYR    SC3  800   3.639   5.515   7.612
    1TYR     BB  801   3.534   4.613   0.720
    1TYR    SC1  802   3.640   4.323   0.764
    1TYR    SC2  803   3.592   4.065   0.700
    1TYR    SC3  804   3.846   4.157   0.712
    2MET     BB  805   3.209   4.543   0.689
    2MET    SC1  806   2.946   4.772   0.518
    3TYR     BB  807   3.000   4.324   0.788
    3TYR    SC1  808   3.146   4.055   0.815
    3TYR    SC2  809   3.252   3.878   0.989
    3TYR    SC3  810   3.178   3.797   0.743
    1TYR     BB  811   7.657   6.659   2.037
    1TYR    SC1  812   7.364   6.630   2.120
    1TYR    SC2  813   7.177   6.469   2.230
    1TYR    SC3  814   7.137   6.736   2.221
    2MET     BB  815   7.836   6.678   2.309
    2MET    SC1  816   0.176   6.664   2.092
    3TYR     BB  817   7.615   6.659   2.563
    3TYR    SC1  818   7.635   6.850   2.802
    3TYR    SC2  819   7.583   6.919   3.058
    3TYR    SC3  820   7.623   7.110   2.872
    1TYR     BB  821   6.932   2.735   2.632
    1TYR    SC1  822   7.050   2.693   2.340
    1TYR    SC2  823   7.016   2.541   2.120
    1TYR    SC3  824   7.238   2.692   2.146
    2MET     BB  825   6.755   2.459   2.655
    2MET    SC1  826   6.973   2.262   2.885
    3TYR     BB  827   6.716   2.261   2.443
    3TYR    SC1  828   6.894   2.125   2.244
    3TYR    SC2  829   7.080   1.964   2.132
    3TYR    SC3  830   6.898   2.089   1.977
    1TYR     BB  831   5.605   4.914   3.781
    1TYR    SC1  832   5.551   4.832   4.076
    1TYR    SC2  833   5.409   4.742   4.287
    1TYR    SC3  834   5.631   4.892   4.327
    2MET     BB  835   5.796   4.720   3.667
    2MET    SC1  836   6.116   4.928   3.627
    3TYR     BB  837   5.909   4.451   3.778
    3TYR    SC1  838   5.769   4.383   4.051
    3TYR    SC2  839   5.760   4.173   4.220
    3TYR    SC3  840   5.751   4.425   4.317
    1TYR     BB  841   2.248   5.842   7.257
    1TYR    SC1  842   1.995   5.844   7.433
    1TYR    SC2  843   1.764   5.980   7.459
    1TYR    SC3  844   1.804   5.755   7.602
    2MET     BB  845   2.134   5.943   6.959
    2MET    SC1  846   2.405   6.245   6.969
    3TYR     BB  847   1.803   5.968   6.937
    3TYR    SC1  848   1.646   5.765   6.750
    3TYR    SC2  849   1.417   5.624   6.718
    3TYR    SC3  850   1.644   5.542   6.597
    1TYR     BB  851   1.998   3.836   5.725
    1TYR    SC1  852   1.843   3.912   5.984
    1TYR    SC2  853   1.629   3.821   6.122
    1TYR    SC3  854   1.817   3.970   6.247
    2MET     BB  855   2.294   3.842   5.789
    2MET    SC1  856   2.396   3.499   5.809
    3TYR     BB  857   2.344   3.902   6.105
    3TYR    SC1  858   2.165   3.700   6.243
    3TYR    SC2  859   1.991   3.514   6.152
    3TYR    SC3  860   2.011   3.561   6.417
    1TYR     BB  861   0.650   0.790   5.451
    1TYR    SC1  862   0.904   0.664   5.315
    1TYR    SC2  863   1.087   0.465   5.317
    1TYR    SC3  864   1.149   0.704   5.209
    2MET     BB  865   0.567   1.020   5.257
    2MET    SC1  866   0.267   1.183   5.432
    3TYR     BB  867   0.445   0.919   4.984
    3TYR    SC1  868   0.665   0.743   4.847
    3TYR    SC2  869   0.817   0.705   4.627
    3TYR    SC3  870   0.878   0.579   4.858
    1TYR     BB  871   1.549   6.979   0.500
    1TYR    SC1  872   1.618   6.808   0.254
    1TYR    SC2  873   1.722   6.576   0.161
    1TYR    SC3  874   1.648   6.770   7.988
    2MET     BB  875   1.254   6.846   0.596
    2MET    SC1  876   1.353   6.931   0.979
    3TYR     BB  877   1.193   6.551   0.470
    3TYR    SC1  878   1.216   6.549   0.163
    3TYR    SC2  879   1.326   6.461   7.933
    3TYR    SC3  880   1.082   6.577   7.930
    1TYR     BB  881   6.474   5.774   4.567
    1TYR    SC1  882   6.494   5.833   4.866
    1TYR    SC2  883   6.599   5.996   5.053
    1TYR    SC3  884   6.339   5.926   5.066
    2MET     BB  885   6.329   6.014   4.443
    2MET    SC1  886   5.984   5.925   4.331
    3TYR     BB  887   6.401   6.284   4.313
    3TYR    SC1  888   6.144   6.461   4.355
    3TYR    SC2  889   6.014   6.680   4.446
    3TYR    SC3  890   5.890   6.440   4.444
    1TYR     BB  891   4.719   5.619   2.759
    1TYR    SC1  892   4.883   5.693   3.019
    1TYR    SC2  893   4.953   5.857   3.222
    1TYR    SC3  894   5.071   5.616   3.197
    2MET     BB  895   4.463   5.446   2.895
    2MET    SC1  896   4.168   5.617   2.704
    3TYR     BB  897   4.602   5.258   3.093
    3TYR    SC1  898   4.423   5.111   3.303
    3TYR    SC2  899   4.195   4.991   3.382
    3TYR    SC3  900   4.434   4.875   3.434
    1TYR     BB  901   5.596   6.812   3.076
    1TYR    SC1  902   5.449   7.012   2.885
    1TYR    SC2  903   5.449   7.140   2.647
    1TYR    SC3  904   5.327   7.251   2.861
    2MET     BB  905   5.445   6.537   3.053
    2MET    SC1  906   5.659   6.298   3.267
    3TYR     BB  907   5.362   6.509   2.739
    3TYR    SC1  908   5.142   6.728   2.707
    3TYR    SC2  909   4.873   6.737   2.694
    3TYR    SC3  910   5.018   6.962   2.654
    1TYR     BB  911   1.428   2.855   6.490
    1TYR    SC1  912   1.695   2.684   6.548
    1TYR    SC2  913   1.857   2.556   6.723
    1TYR    SC3  914   1.952   2.633   6.482
    2MET     BB  915   1.373   2.771   6.183
    2MET    SC1  916   1.114   3.034   6.121
    3TYR     BB  917   1.416   2.470   6.108
    3TYR    SC1  918   1.529   2.385   5.823
    3TYR    SC2  919   1.686   2.196   5.711
    3TYR    SC3  920   1.607   2.409   5.566
    1TYR     BB  921   0.004   6.829   6.394
    1TYR    SC1  922   7.941   7.081   6.579
    1TYR    SC2  923   7.797   7.162   6.792
    1TYR    SC3  924   7.917   7.344   6.633
    2MET     BB  925   7.754   6.640   6.471
    2MET    SC1  926   7.796   6.339   6.226
    3TYR     BB  927   7.534   6.762   6.637
    3TYR    SC1  928   7.565   6.766   6.940
    3TYR    SC2  929   7.621   6.604   7.149
    3TYR    SC3  930   7.499   6.841   7.191
    1TYR     BB  931   5.095   1.986   0.034
    1TYR    SC1  932   4.904   1.766   0.129
    1TYR    SC2  933   4.871   1.498   0.124
    1TYR    SC3  934   4.799   1.639   0.343
    2MET     BB  935   5.332   1.974   0.248
    2MET    SC1  936   5.677   2.147   0.140
    3TYR     BB  937   5.289   2.004   0.553
    3TYR    SC1  938   5.029   1.897   0.686
    3TYR    SC2  939   4.881   1.697   0.790
    3TYR    SC3  940   4.836   1.952   0.867
    1TYR     BB  941   5.189   3.361   3.061
    1TYR    SC1  942   5.226   3.592   3.265
    1TYR    SC2  943   5.116   3.703   3.485
    1TYR    SC3  944   5.384   3.675   3.467
    2MET     BB  945   4.914   3.223   3.162
    2MET    SC1  946   4.701   3.243   2.856
    3TYR     BB  947   4.739   3.383   3.366
    3TYR    SC1  948   4.783   3.425   3.672
    3TYR    SC2  949   4.716   3.418   3.934
    3TYR    SC3  950   4.858   3.626   3.836
    1TYR     BB  951   1.505   6.758   1.863
    1TYR    SC1  952   1.598   6.460   1.836
    1TYR    SC2  953   1.558   6.228   1.968
    1TYR    SC3  954   1.521   6.240   1.700
    2MET     BB  955   1.171   6.654   1.956
    2MET    SC1  956   1.071   6.948   2.180
    3TYR     BB  957   1.055   6.404   1.813
    3TYR    SC1  958   0.881   6.500   1.583
    3TYR    SC2  959   0.708   6.441   1.384
    3TYR    SC3  960   0.827   6.684   1.393
    1TYR     BB  961   5.780   1.026   6.881
    1TYR    SC1  962   5.540   1.088   7.060
    1TYR    SC2  963   5.468   0.986   7.299
    1TYR    SC3  964   5.383   1.232   7.226
    2MET     BB  965   5.960   0.843   7.107
    2MET    SC1  966   5.922   0.524   6.921
    3TYR     BB  967   5.956   0.944   7.425
    3TYR    SC1  968   5.855   1.242   7.385
    3TYR    SC2  969   5.712   1.452   7.477
    3TYR    SC3  970   5.792   1.445   7.219
    1TYR     BB  971   3.503   4.308   4.726
    1TYR    SC1  972   3.789   4.277   4.618
    1TYR    SC2  973   3.993   4.104   4.652
    1TYR    SC3  974   4.040   4.349   4.550
    2MET     BB  975   3.434   3.948   4.705
    2MET    SC1  976   3.154   4.033   4.469
    3TYR     BB  977   3.650   3.703   4.741
    3TYR    SC1  978   3.851   3.699   4.501
    3TYR    SC2  979   4.111   3.711   4.429
    3TYR    SC3  980   3.918   3.716   4.240
    1TYR     BB  981   4.433   6.010   5.543
    1TYR    SC1  982   4.124   5.982   5.481
    1TYR    SC2  983   3.968   6.035   5.267
    1TYR    SC3  984   3.912   5.824   5.426
    2MET     BB  985   4.552   6.121   5.276
    2MET    SC1  986   4.301   6.414   5.226
    3TYR     BB  987   4.426   5.950   5.019
    3TYR    SC1  988   4.300   5.699   5.150
    3TYR    SC2  989   4.157   5.470   5.166
    3TYR    SC3  990   4.298   5.556   5.379
    1TYR     BB  991   2.373   1.135   5.863
    1TYR    SC1  992   2.112   0.975   5.888
    1TYR    SC2  993   1.842   0.954   5.887
    1TYR    SC3  994   1.988   0.817   6.069
    2MET     BB  995   2.461   1.342   5.660
    2MET    SC1  996   2.785   1.416   5.784
    3TYR     BB  997   2.261   1.514   5.509
    3TYR    SC1  998   2.060   1.300   5.404
    3TYR    SC2  999   1.852   1.237   5.243
    3TYR    SC3 1000   1.911   1.081   5.455
    4W        W 1001   0.767   1.699   1.754
    5W        W 1002   4.853   7.696   1.554
    6W        W 1003   5.402   0.058   4.107
    7W        W 1004   3.509   7.336   2.199
    8W        W 1005   2.708   3.454   2.922
    9W        W 1006   3.011   5.800   3.327
   10W        W 1007   3.564   7.433   5.011
   11W        W 1008   3.781   6.557   2.499
   12W        W 1009   3.048   3.375   6.085
   13W        W 1010   3.757   2.601   5.468
   14W        W 1011   6.097   2.459   3.272
   15W        W 1012   1.195   6.688   6.021
   16W        W 1013   3.052   7.295   4.803
   17W        W 1014   6.579   3.254   3.636
   18W        W 1015   5.987   5.965   3.521
   19W        W 1016   7.347   3.110   1.891
   20W        W 1017   4.683   7.020   6.218
   21W        W 1018   3.580   1.935   1.030
   22W        W 1019   4.515   4.365   3.988
   23W        W 1020   4.159   3.698   1.215
   24W        W 1021   3.347   5.764   3.743
   25W        W 1022   2.647   6.175   3.436
   26W        W 1023   3.560   5.364   1.108
   27W        W 1024   0.762   3.133   4.271
   28W        W 1025   2.037   5.823   5.115
   29W        W 1026   5.410   2.363   5.481
   30W        W 1027   2.726   7.933   5.326
   31W        W 1028   1.605   4.402   3.799
   32W        W 1029   0.514   6.788   3.389
   33W        W 1030   2.713   0.900   4.976
   34W        W 1031   0.276   0.461   3.425
   35W        W 1032   0.831   4.734   4.444
   36W        W 1033   6.689   4.787   2.180
   37W        W 1034   7.136   6.787   5.542
   38W        W 1035   3.121   2.207   1.109
   39W        W 1036   4.559   0.142   4.361
   40W        W 1037   3.728   6.336   0.976
   41W        W 1038   3.337   3.842   2.461
   42W        W 1039   3.770   3.179   0.580
   43W        W 1040   1.821   7.427   5.058
   44W        W 1041   5.305   0.381   3.691
   45W        W 1042   2.430   0.887   4.061
   46W        W 1043   3.681   4.744   6.684
   47W        W 1044   7.605   2.975   3.961
   48W        W 1045   4.578   6.424   2.433
   49W        W 1046   5.570   4.664   4.776
   50W        W 1047   5.389   1.352   3.107
   51W        W 1048   4.787   5.936   6.314
   52W        W 1049   0.954   2.591   5.938
   53W        W 1050   4.098   1.222   0.035
   54W        W 1051   2.903   6.651   0.657
   55W        W 1052   1.553   3.384   3.941
   56W        W 1053   3.441   0.200   1.577
   57W        W 1054   6.282   1.330   3.802
   58W        W 1055   1.774   0.921   3.478
   59W        W 1056   1.912   2.564   3.900
   60W        W 1057   4.031   7.031   2.976
   61W        W 1058   1.117   7.039   1.619
   62W        W 1059   1.614   6.307   4.069
   63W        W 1060   4.982   5.674   0.820
   64W        W 1061   2.427   4.351   2.703
   65W        W 1062   1.102   2.094   7.743
   66W        W 1063   2.348   6.968   1.466
   67W        W 1064   6.239   3.484   3.940
   68W        W 1065   3.369   3.558   4.367
   69W        W 1066   4.776   0.448   2.049
   70W        W 1067   3.289   3.710   5.163
   71W        W 1068   6.276   1.022   0.640
   72W        W 1069   7.569   3.207   1.173
   73W        W 1070   5.748   5.099   6.996
   74W        W 1071   6.046   5.206   7.949
   75W        W 1072   5.876   5.217   6.444
   76W        W 1073   1.564   1.819   1.375
   77W        W 1074   0.700   0.817   7.279
   78W        W 1075   2.139   2.143   7.080
   79W        W 1076   5.124   2.571   1.767
   80W        W 1077   6.238   7.675   0.712
   81W        W 1078   7.066   7.441   4.833
   82W        W 1079   0.692   0.389   1.278
   83W        W 1080   0.973   1.793   4.364
   84W        W 1081   2.123   0.866   6.709
   85W        W 1082   4.063   4.168   4.078
   86W        W 1083   0.415   6.641   1.040
   87W        W 1084   5.821   5.739   5.191
   88W        W 1085   5.062   3.936   4.655
   89W        W 1086   7.925   3.525   5.804
   90W        W 1087   2.244   3.573   0.788
   91W        W 1088   5.322   5.229   4.523
   92W        W 1089   2.144   0.623   1.233
   93W        W 1090   5.889   4.222   1.307
   94W        W 1091   5.964   0.684   2.364
   95W        W 1092   1.093   4.274   3.708
   96W        W 1093   2.174   4.279   6.412
   97W        W 1094   0.841   5.528   1.932
   98W        W 1095   7.267   3.785   1.480
   99W        W 1096   0.601   3.721   3.183
  100W        W 1097   6.186   6.902   1.197
  101W        W 1098   2.672   4.142   5.704
  102W        W 1099   7.170   7.691   7.111
  103W        W 1100   2.940   4.743   1.064
  104W        W 1101   3.885   0.747   4.615
  105W        W 1102   3.697   5.244   4.730
  106W        W 1103   7.916   6.593   1.232
  107W        W 1104   4.250   1.038   7.586
  108W        W 1105   0.270   3.549   6.219
  109W        W 1106   0.951   3.096   0.415
  110W        W 1107   5.121   7.556   4.987
  111W        W 1108   1.481   0.163   3.161
  112W        W 1109   0.605   7.146   1.436
  113W        W 1110   2.182   0.337   6.036
  114W        W 1111   3.988   2.409   4.242
  115W        W 1112   1.294   0.940   0.580
  116W        W 1113   2.632   6.756   6.804
  117W        W 1114   3.238   0.316   1.079
  118W        W 1115   3.787   4.897   3.057
  119W        W 1116   3.406   4.522   7.060
  120W        W 1117   2.426   5.123   3.071
  121W        W 1118   3.094   4.103   1.730
  122W        W 1119   1.222   6.190   5.057
  123W        W 1120   3.996   5.006   5.071
  124W        W 1121   5.736   6.804   7.253
  125W        W 1122   5.763   3.579   3.775
  126W        W 1123   4.674   2.649   7.832
  127W        W 1124   7.309   5.819   3.682
  128W        W 1125   4.226   7.116   6.449
  129W        W 1126   7.172   5.383   2.134
  130W        W 1127   2.097   2.412   1.437
  131W        W 1128   6.322   6.515   6.613
  132W        W 1129   0.941   5.634   3.441
  133W        W 1130   3.649   6.838   0.950
  134W        W 1131   3.719   6.522   4.630
  135W        W 1132   4.118   3.746   0.728
  136W        W 1133   4.353   1.616   0.807
  137W        W 1134   3.264   4.291   2.697
  138W        W 1135   2.518   3.708   1.688
  139W        W 1136   3.022   1.124   4.577
  140W        W 1137   4.916   2.996   1.559
  141W        W 1138   4.103   3.304   1.522
  142W        W 1139   2.475   6.851   3.900
  143W        W 1140   4.994   7.099   6.623
  144W        W 1141   6.173   6.201   3.124
  145W        W 1142   0.493   4.768   6.120
  146W        W 1143   1.145   4.423   0.902
  147W        W 1144   0.736   4.728   1.786
  148W        W 1145   4.033   7.354   4.225
  149W        W 1146   6.695   2.885   7.503
  150W        W 1147   4.251   2.992   2.170
  151W        W 1148   5.451   5.674   1.030
  152W        W 1149   0.222   3.515   5.369
  153W        W 1150   6.807   1.871   5.898
  154W        W 1151   2.808   4.876   1.546
  155W        W 1152   0.498   5.679   6.452
  156W        W 1153   6.539   1.014   1.753
  157W        W 1154   1.676   0.994   6.527
  158W        W 1155   0.277   6.209   1.328
  159W        W 1156   3.976   7.479   2.095
  160W        W 1157   1.436   5.254   7.063
  161W        W 1158   6.141   1.418   0.312
  162W        W 1159   2.740   5.732   1.688
  163W        W 1160   2.448   6.048   2.559
  164W        W 1161   7.219   6.416   6.863
  165W        W 1162   3.742   1.587   4.415
  166W        W 1163   3.533   3.173   0.134
  167W        W 1164   3.646   3.580   0.875
  168W        W 1165   2.647   6.654   1.765
  169W        W 1166   6.620   5.096   1.062
  170W        W 1167   5.876   1.674   7.911
  171W        W 1168   7.097   4.969   6.618
  172W        W 1169   2.956   3.971   3.330
  173W        W 1170   4.144   0.607   3.795
  174W        W 1171   7.238   5.289   4.755
  175W        W 1172   4.931   3.704   6.336
  176W        W 1173   3.144   4.856   4.694
  177W        W 1174   5.898   3.385   4.765
  178W        W 1175   1.401   1.133   5.143
  179W        W 1176   3.108   7.144   2.464
  180W        W 1177   1.343   6.616   1.399
  181W        W 1178   1.289   1.781   3.389
  182W        W 1179   3.762   4.559   4.159
  183W        W 1180   2.815   1.249   1.079
  184W        W 1181   7.209   4.016   1.922
  185W        W 1182   4.280   0.490   1.865
  186W        W 1183   2.778   3.462   0.795
  187W        W 1184   1.580   2.569   2.374
  188W        W 1185   0.691   2.461   5.150
  189W        W 1186   2.587   0.213   4.406
  190W        W 1187   2.738   6.479   0.190
  191W        W 1188   0.710   2.224   1.694
  192W        W 1189   1.569   0.314   5.389
  193W        W 1190   5.465   7.980   4.807
  194W        W 1191   6.838   2.932   0.416
  195W        W 1192   5.741   7.568   4.591
  196W        W 1193   3.567   4.070   4.222
  197W        W 1194   2.441   4.897   1.157
  198W        W 1195   5.509   6.789   4.518
  199W        W 1196   2.908   2.254   7.658
  200W        W 1197   0.560   4.726   0.222
  201W        W 1198   3.683   2.561   1.711
  202W        W 1199   6.989   0.668   7.085
  203W        W 1200   3.750   3.516   5.249
  204W        W 1201   2.275   5.167   7.047
  205W        W 1202   4.221   6.770   6.070
  206W        W 1203   0.119   0.030   2.761
  207W        W 1204   6.076   1.464   6.323
  208W        W 1205   5.798   0.051   4.414
  209W        W 1206   7.151   6.025   4.946
  210W        W 1207   6.264   0.163   6.962
  211W        W 1208   0.829   4.378   0.510
  212W        W 1209   2.609   6.429   4.847
  213W        W 1210   1.224   0.030   1.412
  214W        W 1211   1.178   3.627   6.937
  215W        W 1212   3.486   0.676   1.397
  216W        W 1213   7.229   5.053   3.011
  217W        W 1214   7.345   2.518   7.563
  218W        W 1215   3.606   1.988   5.859
  219W        W 1216   6.141   7.105   7.451
  220W        W 1217   3.746   1.237   4.035
  221W        W 1218   1.599   4.194   1.750
  222W        W 1219   1.005   1.120   4.415
  223W        W 1220   6.269   7.372   7.884
  224W        W 1221   5.973   3.030   0.238
  225W        W 1222   2.805   5.991   4.641
  226W        W 1223   1.792   5.395   1.495
  227W        W 1224   3.690   4.145   3.745
  228W        W 1225   3.058   6.235   5.021
  229W        W 1226   7.724   5.938   4.094
  230W        W 1227   6.635   1.939   0.487
  231W        W 1228   6.840   7.221   0.633
  232W        W 1229   3.140   1.837   6.352
  233W        W 1230   5.693   3.166   6.387
  234W        W 1231   0.094   2.900   6.403
  235W        W 1232   2.050   4.610   0.913
  236W        W 1233   4.946   6.042   2.628
  237W        W 1234   2.248   1.392   4.102
  238W        W 1235   1.357   2.519   7.925
  239W        W 1236   1.690   3.514   0.221
  240W        W 1237   2.488   5.371   4.062
  241W        W 1238   2.730   7.962   2.990
  242W        W 1239   6.338   3.631   4.813
  243W        W 1240   5.115   0.852   6.016
  244W        W 1241   2.468   7.035   5.641
  245W        W 1242   1.613   3.001   3.608
  246W        W 1243   2.192   2.833   4.264
  247W        W 1244   1.353   3.853   3.810
  248W        W 1245   6.027   1.244   5.890
  249W        W 1246   6.491   4.343   3.030
  250W        W 1247   2.039   4.477   3.504
  251W        W 1248   7.124   7.164   2.981
  252W        W 1249   1.087   0.228   2.250
  253W        W 1250   3.803   4.482   1.267
  254W        W 1251   1.790   1.721   5.458
  255W        W 1252   3.724   0.684   4.094
  256W        W 1253   2.850   7.185   1.508
  257W        W 1254   2.600   1.362   3.686
  258W        W 1255   5.265   6.979   1.275
  259W        W 1256   5.792   5.120   4.755
  260W        W 1257   5.593   3.482   2.692
  261W        W 1258   3.436   6.527   6.419
  262W        W 1259   5.628   5.032   2.740
  263W        W 1260   7.532   5.451   2.964
  264W        W 1261   5.000   0.791   3.949
  265W        W 1262   5.900   4.400   7.033
  266W        W 1263   1.802   5.364   7.934
  267W        W 1264   0.516   0.031   3.594
  268W        W 1265   0.962   4.265   1.777
  269W        W 1266   6.732   5.177   3.575
  270W        W 1267   4.218   5.227   3.832
  271W        W 1268   0.609   5.225   5.194
  272W        W 1269   7.256   6.138   4.447
  273W        W 1270   4.237   6.257   3.374
  274W        W 1271   5.144   4.625   7.384
  275W        W 1272   1.631   3.329   1.172
  276W        W 1273   7.036   7.176   2.468
  277W        W 1274   1.386   5.809   3.642
  278W        W 1275   5.788   3.976   7.344
  279W        W 1276   2.423   4.682   7.166
  280W        W 1277   4.330   3.745   1.683
  281W        W 1278   5.884   5.747   7.705
  282W        W 1279   2.919   4.520   3.474
  283W        W 1280   4.457   0.173   3.836
  284W        W 1281   4.170   0.902   5.035
  285W        W 1282   3.841   3.740   1.621
  286W        W 1283   1.438   5.709   0.572
  287W        W 1284   0.890   2.078   3.501
  288W        W 1285   3.003   2.655   3.372
  289W        W 1286   3.442   7.506   0.491
  290W        W 1287   5.557   6.031   5.498
  291W        W 1288   1.650   1.860   0.878
  292W        W 1289   1.921   1.934   7.527
  293W        W 1290   0.069   4.909   2.373
  294W        W 1291   6.690   5.531   3.231
  295W        W 1292   2.543   3.890   6.553
  296W        W 1293   0.967   5.086   1.486
  297W        W 1294   0.744   5.251   1.050
  298W        W 1295   4.607   6.876   4.705
  299W        W 1296   7.619   4.063   2.275
  300W        W 1297   5.033   0.959   6.910
  301W        W 1298   2.930   2.139   3.275
  302W        W 1299   6.479   0.921   1.250
  303W        W 1300   2.333   2.089   6.253
  304W        W 1301   3.140   3.635   1.952
  305W        W 1302   4.460   6.915   1.094
  306W        W 1303   4.979   2.890   0.666
  307W        W 1304   2.720   2.341   5.993
  308W        W 1305   1.832   0.508   6.453
  309W        W 1306   6.119   6.601   7.542
  310W        W 1307   6.803   6.689   4.644
  311W        W 1308   4.780   4.176   6.445
  312W        W 1309   2.820   4.323   3.008
  313W        W 1310   5.478   3.900   2.379
  314W        W 1311   6.553   4.747   3.362
  315W        W 1312   1.782   1.533   2.701
  316W        W 1313   2.381   5.537   2.714
  317W        W 1314   6.617   7.297   5.030
  318W        W 1315   2.318   7.115   3.441
  319W        W 1316   6.774   1.645   7.524
  320W        W 1317   1.227   4.236   7.811
  321W        W 1318   0.836   2.362   6.838
  322W        W 1319   3.099   1.252   0.246
  323W        W 1320   2.738   5.731   7.237
  324W        W 1321   7.197   3.558   1.032
  325W        W 1322   6.497   7.102   0.260
  326W        W 1323   4.944   1.443   7.207
  327W        W 1324   6.749   3.811   1.037
  328W        W 1325   4.797   1.979   3.117
  329W        W 1326   3.273   5.791   2.364
  330W        W 1327   6.410   3.936   6.579
  331W        W 1328   1.108   2.417   5.464
  332W        W 1329   1.319   4.370   2.589
  333W        W 1330   2.217   1.487   4.590
  334W        W 1331   6.101   1.454   6.835
  335W        W 1332   2.747   1.381   6.304
  336W        W 1333   3.563   1.737   2.743
  337W        W 1334   2.840   3.406   7.019
  338W        W 1335   7.097   3.300   1.486
  339W        W 1336   5.786   6.306   7.252
  340W        W 1337   1.612   0.969   2.507
  341W        W 1338   5.365   3.020   1.905
  342W        W 1339   5.702   3.372   3.202
  343W        W 1340   5.453   5.958   7.480
  344W        W 1341   4.717   3.144   4.424
  345W        W 1342   1.272   4.658   1.718
  346W        W 1343   4.368   6.699   7.136
  347W        W 1344   2.514   5.931   6.611
  348W        W 1345   6.339   1.661   1.839
  349W        W 1346   5.656   5.169   1.057
  350W        W 1347   4.995   1.510   3.381
  351W        W 1348   6.030   3.199   3.562
  352W        W 1349   4.436   2.934   0.762
  353W        W 1350   1.069   5.436   6.388
  354W        W 1351   0.477   1.799   4.509
  355W        W 1352   6.915   2.803   5.074
  356W        W 1353   4.143   5.105   5.567
  357W        W 1354   5.270   1.503   0.476
  358W        W 1355   4.498   3.661   2.180
  359W        W 1356   2.671   0.177   5.808
  360W        W 1357   2.290   5.365   4.998
  361W        W 1358   2.428   3.087   0.703
  362W        W 1359   3.003   3.665   4.730
  363W        W 1360   0.126   4.304   5.594
  364W        W 1361   6.040   5.860   7.229
  365W        W 1362   7.029   5.246   1.352
  366W        W 1363   5.256   1.443   5.247
  367W        W 1364   7.270   3.796   6.978
  368W        W 1365   4.886   0.226   1.491
  369W        W 1366   6.192   5.032   5.030
  370W        W 1367   0.946   6.086   0.529
  371W        W 1368   1.916   4.997   1.196
  372W        W 1369   2.377   4.211   2.211
  373W        W 1370   0.697   0.340   2.608
  374W        W 1371   7.403   0.670   0.398
  375W        W 1372   6.176   7.026   6.526
  376W        W 1373   1.205   2.908   2.252
  377W        W 1374   1.744   4.902   3.632
  378W        W 1375   3.930   5.256   4.276
  379W        W 1376   6.241   4.044   2.197
  380W        W 1377   3.511   1.378   3.581
  381W        W 1378   0.269   3.393   1.193
  382W        W 1379   1.686   0.729   5.119
  383W        W 1380   5.202   4.672   1.960
  384W        W 1381   5.534   6.829   1.718
  385W        W 1382   2.016   3.018   3.300
  386W        W 1383   0.394   2.408   4.701
  387W        W 1384   2.488   3.787   7.057
  388W        W 1385   0.700   7.675   3.273
  389W        W 1386   6.361   5.796   6.027
  390W        W 1387   1.391   3.656   4.376
  391W        W 1388   2.783   7.071   6.046
  392W        W 1389   1.071   6.062   0.045
  393W        W 1390   1.138   2.100   5.879
  394W        W 1391   3.107   6.670   3.187
  395W        W 1392   2.202   3.364   0.332
  396W        W 1393   7.128   1.907   5.485
  397W        W 1394   6.422   3.540   6.949
  398W        W 1395   4.671   1.170   1.447
  399W        W 1396   4.201   1.841   5.268
  400W        W 1397   6.103   2.363   7.265
  401W        W 1398   0.128   5.737   3.772
  402W        W 1399   2.310   1.095   1.091
  403W        W 1400   3.585   1.928   0.328
  404W        W 1401   6.177   4.965   5.531
  405W        W 1402   0.225   5.865   6.846
  406W        W 1403   1.481   1.822   3.875
  407W        W 1404   0.077   2.288   1.867
  408W        W 1405   2.666   1.151   3.162
  409W        W 1406   0.991   4.027   4.186
  410W        W 1407   5.631   0.960   3.325
  411W        W 1408   4.244   3.397   6.696
  412W        W 1409   2.731   4.973   6.887
  413W        W 1410   4.981   3.317   2.010
  414W        W 1411   0.488   6.632   6.271
  415W        W 1412   3.513   6.326   3.154
  416W        W 1413   0.656   3.861   1.798
  417W        W 1414   7.005   1.508   6.833
  418W        W 1415   0.714   2.429   1.183
  419W        W 1416   6.573   4.894   6.467
  420W        W 1417   4.278   6.910   3.428
  421W        W 1418   1.686   4.910   5.904
  422W        W 1419   5.488   2.843   5.269
  423W        W 1420   2.648   5.566   0.215
  424W        W 1421   6.359   6.387   4.808
  425W        W 1422   1.157   2.200   0.254
  426W        W 1423   2.566   3.438   6.276
  427W        W 1424   0.334   4.478   0.638
  428W        W 1425   4.515   6.149   4.112
  429W        W 1426   4.294   6.653   2.073
  430W        W 1427   4.742   4.482   5.301
  431W        W 1428   6.219   1.612   2.953
  432W        W 1429   1.169   1.034   1.559
  433W        W 1430   5.644   4.813   0.672
  434W        W 1431   3.059   0.618   3.507
  435W        W 1432   1.330   5.705   4.639
  436W        W 1433   3.340   0.704   1.914
  437W        W 1434   7.238   2.714   0.652
  438W        W 1435   1.700   0.698   6.965
  439W        W 1436   1.693   6.158   5.393
  440W        W 1437   2.911   4.471   6.896
  441W        W 1438   5.685   3.357   5.242
  442W        W 1439   2.380   1.586   1.233
  443W        W 1440   5.866   7.167   6.910
  444W        W 1441   0.828   3.392   1.869
  445W        W 1442   1.043   1.185   7.285
  446W        W 1443   1.685   2.398   7.547
  447W        W 1444   5.769   2.113   0.687
  448W        W 1445   6.522   3.745   3.617
  449W        W 1446   6.420   6.354   5.323
  450W        W 1447   7.087   0.691   6.587
  451W        W 1448   4.173   1.374   3.263
  452W        W 1449   2.781   4.590   4.459
  453W        W 1450   1.611   0.030   2.197
  454W        W 1451   1.803   2.875   5.543
  455W        W 1452   4.556   2.147   0.012
  456W        W 1453   3.054   2.058   3.927
  457W        W 1454   6.337   7.267   3.170
  458W        W 1455   2.597   2.681   2.300
  459W        W 1456   6.062   7.350   0.358
  460W        W 1457   2.521   3.007   3.424
  461W        W 1458   1.467   3.074   0.317
  462W        W 1459   1.661   1.377   2.221
  463W        W 1460   6.904   1.598   5.055
  464W        W 1461   7.189   3.627   5.071
  465W        W 1462   1.163   4.348   4.580
  466W        W 1463   1.009   3.438   3.066
  467W        W 1464   3.910   4.284   5.486
  468W        W 1465   7.106   3.049   1.027
  469W        W 1466   4.529   3.288   1.795
  470W        W 1467   3.116   7.543   5.312
  471W        W 1468   4.318   4.638   4.855
  472W        W 1469   6.203   6.817   2.150
  473W        W 1470   4.676   4.124   2.425
  474W        W 1471   6.688   7.386   5.935
  475W        W 1472   5.284   2.618   1.247
  476W        W 1473   0.898   3.960   1.345
  477W        W 1474   6.466   3.809   3.121
  478W        W 1475   2.285   2.861   5.452
  479W        W 1476   1.681   2.088   3.213
  480W        W 1477   2.143   2.422   5.696
  481W        W 1478   5.417   3.147   4.875
  482W        W 1479   6.150   2.210   3.745
  483W        W 1480   2.954   7.108   3.891
  484W        W 1481   4.562   0.636   4.141
  485W        W 1482   3.344   3.301   4.828
  486W        W 1483   3.322   1.423   3.100
  487W        W 1484   5.049   6.863   3.168
  488W        W 1485   7.880   6.191   5.332
  489W        W 1486   0.605   5.846   0.106
  490W        W 1487   5.070   6.438   2.341
  491W        W 1488   6.629   1.922   3.616
  492W        W 1489   3.401   3.351   2.285
  493W        W 1490   4.775   3.366   7.132
  494W        W 1491   1.887   1.879   4.660
  495W        W 1492   1.565   4.608   1.137
  496W        W 1493   3.265   7.031   0.673
  497W        W 1494   7.443   7.551   3.085
  498W        W 1495   7.219   4.690   2.683
  499W        W 1496   1.435   1.967   7.394
  500W        W 1497   5.363   4.456   3.730
  501W        W 1498   4.091   3.976   0.267
  502W        W 1499   4.809   2.914   6.874
  503W        W 1500   1.307   3.056   4.865
  504W        W 1501   6.421   7.445   6.357
  505W        W 1502   4.560   3.933   0.976
  506W        W 1503   6.572   7.385   7.462
  507W        W 1504   6.954   6.900   0.177
  508W        W 1505   6.938   0.137   5.781
  509W        W 1506   5.928   6.061   4.796
  510W        W 1507   6.129   7.870   0.222
  511W        W 1508   5.805   6.002   0.530
  512W        W 1509   4.289   2.844   1.654
  513W        W 1510   2.574   3.184   2.493
  514W        W 1511   4.804   2.726   1.131
  515W        W 1512   6.742   7.830   6.150
  516W        W 1513   6.109   1.208   1.528
  517W        W 1514   1.015   5.760   0.938
  518W        W 1515   6.235   5.127   4.487
  519W        W 1516   4.230   0.996   1.679
  520W        W 1517   1.311   4.646   6.095
  521W        W 1518   1.163   5.894   5.463
  522W        W 1519   4.036   1.708   5.769
  523W        W 1520   4.081   4.202   1.608
  524W        W 1521   6.538   5.309   1.510
  525W        W 1522   4.754   7.932   1.086
  526W        W 1523   1.673   6.443   6.756
  527W        W 1524   7.444   5.150   2.508
  528W        W 1525   0.733   3.664   2.684
  529W        W 1526   0.635   3.745   0.962
  530W        W 1527   0.777   3.575   0.458
  531W        W 1528   3.996   1.710   7.129
  532W        W 1529   3.373   1.064   5.388
  533W        W 1530   5.390   3.530   1.122
  534W        W 1531   0.268   3.943   6.644
  535W        W 1532   7.356   5.928   6.946
  536W        W 1533   5.781   4.687   1.152
  537W        W 1534   6.128   5.349   7.263
  538W        W 1535   5.160   5.528   7.549
  539W        W 1536   7.328   2.298   7.096
  540W        W 1537   4.800   5.670   5.330
  541W        W 1538   0.531   1.620   2.718
  542W        W 1539   3.324   4.331   1.183
  543W        W 1540   3.127   5.348   3.505
  544W        W 1541   0.507   4.326   1.535
  545W        W 1542   2.759   1.875   2.453
  546W        W 1543   5.814   0.778   0.663
  547W        W 1544   7.861   2.559   6.757
  548W        W 1545   5.115   3.466   1.533
  549W        W 1546   2.735   7.305   4.374
  550W        W 1547   1.842   2.714   6.006
  551W        W 1548   2.302   0.621   4.537
  552W        W 1549   4.550   0.852   2.740
  553W        W 1550   4.138   2.409   0.544
  554W        W 1551   2.515   0.662   5.786
  555W        W 1552   0.099   5.355   6.549
  556W        W 1553   3.761   7.068   0.511
  557W        W 1554   2.365   6.801   5.198
  558W        W 1555   6.997   0.655   1.189
  559W        W 1556   2.360   3.043   2.936
  560W        W 1557   1.883   5.493   7.101
  561W        W 1558   4.397   0.991   5.506
  562W        W 1559   5.158   5.159   2.996
  563W        W 1560   5.422   3.604   6.427
  564W        W 1561   7.311   2.828   1.468
  565W        W 1562   2.904   5.913   5.363
  566W        W 1563   1.192   1.639   1.062
  567W        W 1564   3.413   7.410   1.625
  568W        W 1565   1.957   7.762   4.707
  569W        W 1566   3.405   4.729   5.860
  570W        W 1567   5.617   1.347   1.311
  571W        W 1568   3.241   1.309   6.341
  572W        W 1569   6.442   4.268   4.694
  573W        W 1570   3.569   3.376   6.112
  574W        W 1571   5.160   1.307   6.263
  575W        W 1572   4.827   6.661   1.304
  576W        W 1573   2.518   3.322   3.827
  577W        W 1574   1.163   5.119   5.838
  578W        W 1575   1.616   2.300   4.668
  579W        W 1576   5.183   6.240   6.196
  580W        W 1577   6.301   0.777   7.804
  581W        W 1578   2.601   4.655   6.530
  582W        W 1579   6.227   1.595   7.461
  583W        W 1580   6.128   0.327   5.154
  584W        W 1581   7.378   6.623   4.284
  585W        W 1582   5.123   1.743   1.272
  586W        W 1583   6.134   3.252   6.164
  587W        W 1584   6.538   4.710   4.306
  588W        W 1585   2.594   7.464   6.968
  589W        W 1586   2.878   5.956   3.832
  590W        W 1587   3.315   2.328   3.578
  591W        W 1588   7.154   0.924   0.778
  592W        W 1589   5.205   4.909   1.463
  593W        W 1590   0.047   6.719   6.893
  594W        W 1591   0.716   1.895   6.069
  595W        W 1592   7.501   4.262   2.744
  596W        W 1593   2.458   1.254   6.705
  597W        W 1594   5.234   0.273   1.873
  598W        W 1595   3.427   2.526   7.078
  599W        W 1596   4.241   0.418   4.832
  600W        W 1597   4.238   1.209   6.468
  601W        W 1598   0.995   5.493   7.242
  602W        W 1599   6.284   3.802   7.382
  603W        W 1600   2.037   6.946   5.932
  604W        W 1601   5.948   3.783   5.131
  605W        W 1602   1.456   5.020   1.409
  606W        W 1603   5.665   6.691   4.049
  607W        W 1604   2.388   1.578   3.287
  608W        W 1605   6.706   0.500   7.932
  609W        W 1606   7.430   3.489   6.574
  610W        W 1607   4.945   5.051   7.675
  611W        W 1608   5.578   5.436   3.049
  612W        W 1609   7.523   2.787   7.117
  613W        W 1610   3.725   5.163   5.848
  614W        W 1611   1.240   3.464   2.612
  615W        W 1612   0.914   2.555   7.662
  616W        W 1613   7.884   3.889   5.415
  617W        W 1614   3.886   2.053   4.593
  618W        W 1615   2.442   6.479   4.373
  619W        W 1616   5.250   3.080   7.134
  620W        W 1617   6.558   1.574   7.068
  621W        W 1618   7.094   7.641   5.788
  622W        W 1619   6.238   5.481   5.278
  623W        W 1620   3.031   0.075   6.202
  624W        W 1621   3.216   1.107   0.743
  625W        W 1622   2.711   2.458   4.830
  626W        W 1623   3.859   6.739   7.317
  627W        W 1624   6.825   7.121   3.425
  628W        W 1625   5.700   5.014   1.564
  629W        W 1626   4.451   5.925   3.062
  630W        W 1627   1.153   1.136   1.029
  631W        W 1628   3.638   1.068   1.668
  632W        W 1629   4.007   6.064   4.731
  633W        W 1630   2.591   1.785   4.091
  634W        W 1631   1.485   7.512   4.656
  635W        W 1632   7.939   6.224   3.137
  636W        W 1633   4.541   7.450   1.003
  637W        W 1634   3.310   6.639   4.237
  638W        W 1635   5.266   5.728   6.249
  639W        W 1636   1.298   4.117   2.147
  640W        W 1637   6.976   6.647   6.047
  641W        W 1638   5.322   1.780   6.462
  642W        W 1639   1.658   5.399   3.769
  643W        W 1640   1.961   2.892   1.586
  644W        W 1641   1.632   3.950   7.062
  645W        W 1642   1.412   3.399   6.283
  646W        W 1643   5.252   5.145   2.433
  647W        W 1644   4.632   2.619   2.476
  648W        W 1645   1.694   2.444   0.292
  649W        W 1646   0.926   5.192   6.819
  650W        W 1647   7.934   6.397   1.702
  651W        W 1648   6.964   5.697   4.614
  652W        W 1649   4.551   6.917   3.011
  653W        W 1650   1.729   5.081   4.480
  654W        W 1651   4.873   4.005   4.175
  655W        W 1652   2.934   4.741   6.151
  656W        W 1653   6.594   0.662   6.483
  657W        W 1654   4.121   6.753   4.903
  658W        W 1655   3.301   5.324   5.031
  659W        W 1656   3.260   2.657   2.930
  660W        W 1657   6.220   1.107   2.525
  661W        W 1658   2.314   5.978   6.105
  662W        W 1659   3.664   1.327   7.009
  663W        W 1660   5.130   1.290   2.065
  664W        W 1661   1.293   5.912   4.136
  665W        W 1662   4.470   4.836   2.399
  666W        W 1663   3.583   2.675   4.960
  667W        W 1664   3.185   3.390   1.091
  668W        W 1665   3.385   5.760   5.306
  669W        W 1666   3.577   6.118   2.699
  670W        W 1667   6.881   2.276   5.203
  671W        W 1668   3.181   6.230   0.247
  672W        W 1669   4.202   0.523   5.368
  673W        W 1670   4.671   3.163   2.373
  674W        W 1671   6.618   4.118   3.935
  675W        W 1672   0.114   3.552   1.697
  676W        W 1673   4.352   2.435   5.233
  677W        W 1674   5.933   5.238   3.950
  678W        W 1675   2.975   3.619   6.560
  679W        W 1676   6.060   0.819   1.871
  680W        W 1677   4.576   2.689   0.332
  681W        W 1678   3.923   1.478   2.449
  682W        W 1679   6.418   4.581   3.822
  683W        W 1680   4.384   4.775   0.513
  684W        W 1681   0.980   5.606   7.762
  685W        W 1682   4.870   6.435   3.871
  686W        W 1683   7.371   3.237   0.645
  687W        W 1684   0.344   1.914   1.551
  688W        W 1685   2.842   4.253   2.441
  689W        W 1686   6.803   2.811   3.710
  690W        W 1687   5.921   4.751   6.670
  691W        W 1688   7.923   5.342   2.657
  692W        W 1689   5.237   5.595   2.701
  693W        W 1690   3.008   7.114   6.879
  694W        W 1691   0.917   1.323   2.912
  695W        W 1692   0.565   5.145   0.543
  696W        W 1693   3.300   0.954   7.857
  697W        W 1694   5.946   6.231   5.276
  698W        W 1695   1.279   3.102   0.842
  699W        W 1696   3.583   1.206   2.688
  700W        W 1697   1.313   5.380   1.094
  701W        W 1698   0.651   1.776   7.049
  702W        W 1699   6.420   0.588   0.366
  703W        W 1700   7.223   7.014   4.578
  704W        W 1701   5.030   6.821   1.743
  705W        W 1702   4.214   7.768   2.835
  706W        W 1703   2.822   2.440   6.904
  707W        W 1704   0.655   4.253   1.002
  708W        W 1705   5.492   6.019   4.465
  709W        W 1706   6.186   6.341   1.881
  710W        W 1707   5.115   2.343   3.007
  711W        W 1708   4.321   1.969   4.323
  712W        W 1709   7.662   0.861   0.828
  713W        W 1710   5.173   5.629   1.811
  714W        W 1711   0.639   2.773   5.590
  715W        W 1712   7.545   3.163   5.760
  716W        W 1713   0.860   2.616   2.484
  717W        W 1714   5.536   2.678   7.391
  718W        W 1715   1.737   4.007   3.486
  719W        W 1716   3.564   6.963   1.823
  720W        W 1717   6.115   3.634   5.650
  721W        W 1718   5.461   4.231   2.752
  722W        W 1719   2.291   5.176   2.346
  723W        W 1720   5.656   7.609   4.095
  724W        W 1721   3.419   6.297   1.737
  725W        W 1722   5.060   0.715   7.348
  726W        W 1723   2.510   6.337   3.899
  727W        W 1724   4.071   0.002   2.029
  728W        W 1725   5.160   2.776   3.245
  729W        W 1726   4.898   2.240   7.629
  730W        W 1727   3.473   3.926   2.963
  731W        W 1728   1.166   1.538   2.094
  732W        W 1729   3.232   5.779   7.099
  733W        W 1730   1.578   6.818   4.057
  734W        W 1731   7.485   1.446   1.481
  735W        W 1732   2.475   3.909   2.989
  736W        W 1733   2.739   2.660   6.415
  737W        W 1734   6.866   1.467   5.569
  738W        W 1735   6.396   4.022   5.132
  739W        W 1736   2.604   1.849   0.451
  740W        W 1737   3.071   7.864   5.723
  741W        W 1738   5.665   1.385   4.522
  742W        W 1739   7.224   5.503   6.614
  743W        W 1740   4.040   4.522   5.888
  744W        W 1741   4.964   0.835   4.486
  745W        W 1742   3.604   7.823   1.897
  746W        W 1743   3.331   0.397   3.086
  747W        W 1744   2.015   1.965   1.221
  748W        W 1745   3.180   5.815   4.270
  749W        W 1746   1.327   5.412   1.721
  750W        W 1747   1.145   6.490   4.032
  751W        W 1748   3.731   1.864   5.388
  752W        W 1749   4.429   5.348   2.373
  753W        W 1750   3.378   4.538   3.807
  754W        W 1751   3.165   1.496   2.458
  755W        W 1752   4.684   1.069   1.945
  756W        W 1753   0.373   4.976   3.377
  757W        W 1754   6.445   2.410   6.612
  758W        W 1755   4.944   6.728   7.015
  759W        W 1756   6.738   0.398   2.698
  760W        W 1757   6.866   0.040   3.046
  761W        W 1758   1.385   6.771   7.094
  762W        W 1759   2.192   6.084   3.217
  763W        W 1760   5.586   1.912   1.424
  764W        W 1761   1.457   1.471   7.226
  765W        W 1762   6.124   7.992   5.547
  766W        W 1763   3.949   6.025   3.029
  767W        W 1764   1.007   6.018   7.160
  768W        W 1765   3.561   0.723   2.403
  769W        W 1766   7.570   7.723   6.785
  770W        W 1767   5.596   3.822   6.863
  771W        W 1768   4.765   1.244   5.848
  772W        W 1769   1.917   6.603   6.318
  773W        W 1770   6.540   6.070   6.777
  774W        W 1771   4.124   2.354   1.558
  775W        W 1772   4.403   5.087   1.940
  776W        W 1773   3.859   4.511   5.045
  777W        W 1774   4.253   4.377   2.296
  778W        W 1775   7.351   6.383   5.280
  779W        W 1776   6.562   0.397   1.231
  780W        W 1777   6.496   7.899   6.588
  781W        W 1778   3.509   1.960   4.933
  782W        W 1779   5.419   0.622   6.926
  783W        W 1780   6.612   1.858   4.444
  784W        W 1781   1.441   2.272   0.690
  785W        W 1782   5.694   6.516   4.911
  786W        W 1783   3.357   6.749   2.239
  787W        W 1784   0.428   6.121   0.540
  788W        W 1785   1.812   2.547   3.381
  789W        W 1786   6.859   5.706   1.546
  790W        W 1787   6.343   2.108   5.766
  791W        W 1788   6.860   6.446   5.095
  792W        W 1789   0.317   6.722   1.542
  793W        W 1790   3.675   6.012   7.067
  794W        W 1791   1.712   2.097   5.114
  795W        W 1792   6.778   6.449   5.642
  796W        W 1793   3.922   5.318   2.272
  797W        W 1794   2.558   1.943   2.970
  798W        W 1795   2.986   6.958   5.604
  799W        W 1796   1.594   4.152   2.975
  800W        W 1797   3.562   6.627   1.399
  801W        W 1798   5.805   3.763   2.031
  802W        W 1799   3.960   6.527   2.973
  803W        W 1800   2.392   5.663   2.186
  804W        W 1801   1.434   7.064   3.596
  805W        W 1802   5.605   4.448   3.259
  806W        W 1803   6.452   6.020   0.976
  807W        W 1804   3.456   6.969   4.752
  808W        W 1805   5.430   3.915   0.746
  809W        W 1806   7.063   7.650   2.734
  810W        W 1807   7.330   2.588   6.664
  811W        W 1808   4.300   1.234   2.228
  812W        W 1809   2.736   3.123   1.176
  813W        W 1810   6.900   3.998   6.682
  814W        W 1811   3.448   1.541   0.609
  815W        W 1812   5.801   1.887   4.667
  816W        W 1813   3.832   1.487   0.936
  817W        W 1814   4.174   1.668   6.258
  818W        W 1815   6.444   3.354   2.669
  819W        W 1816   2.285   5.506   5.859
  820W        W 1817   5.508   4.509   1.554
  821W        W 1818   0.100   3.044   5.897
  822W        W 1819   5.616   3.755   5.546
  823W        W 1820   5.070   6.895   4.916
  824W        W 1821   0.798   3.423   3.561
  825W        W 1822   1.125   3.057   3.813
  826W        W 1823   3.389   0.246   5.052
  827W        W 1824   4.758   7.204   3.423
  828W        W 1825   2.797   3.121   6.593
  829W        W 1826   2.855   7.744   6.611
  830W        W 1827   6.594   7.784   5.657
  831W        W 1828   5.618   6.003   6.008
  832W        W 1829   6.195   2.134   4.425
  833W        W 1830   1.825   4.062   2.182
  834W        W 1831   1.863   2.101   3.688
  835W        W 1832   3.568   5.010   7.100
  836W        W 1833   5.936   2.975   0.756
  837W        W 1834   6.112   3.158   6.714
  838W        W 1835   6.381   7.111   1.677
  839W        W 1836   1.492   2.680   1.853
  840W        W 1837   5.375   2.131   1.038
  841W        W 1838   6.333   2.722   0.455
  842W        W 1839   3.711   1.102   0.640
  843W        W 1840   1.758   1.044   0.379
  844W        W 1841   0.626   2.972   3.800
  845W        W 1842   5.075   3.776   5.478
  846W        W 1843   7.140   3.216   4.778
  847W        W 1844   3.962   2.891   6.793
  848W        W 1845   1.406   0.657   3.255
  849W        W 1846   1.424   0.815   6.120
  850W        W 1847   2.175   1.121   3.679
  851W        W 1848   0.947   3.000   3.326
  852W        W 1849   1.508   4.894   7.439
  853W        W 1850   4.831   4.006   5.922
  854W        W 1851   6.621   3.659   2.287
  855W        W 1852   4.837   4.544   0.500
  856W        W 1853   7.000   6.481   1.748
  857W        W 1854   3.801   4.384   2.047
  858W        W 1855   3.960   1.368   5.359
  859W        W 1856   0.560   5.167   6.453
  860W        W 1857   3.744   0.278   1.117
  861W        W 1858   0.663   3.616   6.658
  862W        W 1859   2.508   6.917   0.405
  863W        W 1860   1.127   1.212   5.956
  864W        W 1861   3.610   2.019   6.385
  865W        W 1862   1.383   0.287   1.821
  866W        W 1863   5.780   6.252   7.761
  867W        W 1864   4.642   0.763   5.116
  868W        W 1865   4.962   5.156   5.303
  869W        W 1866   5.794   2.790   1.230
  870W        W 1867   5.361   2.472   0.370
  871W        W 1868   4.434   1.492   5.518
  872W        W 1869   6.936   0.675   1.706
  873W        W 1870   0.552   1.053   3.210
  874W        W 1871   6.255   4.412   2.583
  875W        W 1872   3.211   7.122   4.339
  876W        W 1873   2.699   7.065   7.285
  877W        W 1874   0.067   3.379   6.656
  878W        W 1875   2.979   6.805   6.426
  879W        W 1876   3.394   3.431   5.623
  880W        W 1877   4.672   5.478   4.860
  881W        W 1878   5.807   4.310   0.784
  882W        W 1879   3.240   5.352   4.528
  883W        W 1880   6.828   6.534   6.511
  884W        W 1881   4.311   2.751   3.591
  885W        W 1882   2.893   6.288   4.249
  886W        W 1883   2.890   6.599   7.306
  887W        W 1884   3.872   2.871   1.337
  888W        W 1885   3.885   2.512   3.720
  889W        W 1886   1.504   0.818   1.238
  890W        W 1887   6.347   7.179   0.772
  891W        W 1888   4.974   3.216   1.085
  892W        W 1889   6.560   3.397   7.576
  893W        W 1890   4.739   4.954   0.177
  894W        W 1891   4.731   3.384   5.406
  895W        W 1892   2.959   6.580   3.837
  896W        W 1893   6.435   1.630   7.942
  897W        W 1894   0.438   7.624   2.840
  898W        W 1895   2.247   3.521   2.743
  899W        W 1896   6.105   6.681   5.118
  900W        W 1897   5.465   4.685   6.964
  901W        W 1898   4.038   5.756   6.819
  902W        W 1899   0.712   4.196   3.292
  903W        W 1900   0.752   5.901   5.790
  904W        W 1901   6.385   2.115   2.807
  905W        W 1902   4.389   5.481   7.079
  906W        W 1903   6.944   6.368   3.048
  907W        W 1904   5.740   3.976   6.291
  908W        W 1905   0.316   3.851   5.771
  909W        W 1906   3.869   3.352   7.087
  910W        W 1907   4.923   7.275   4.592
  911W        W 1908   4.264   2.796   7.535
  912W        W 1909   4.288   4.959   2.852
  913W        W 1910   3.472   3.087   3.120
  914W        W 1911   3.481   0.241   2.202
  915W        W 1912   6.514   1.437   4.737
  916W        W 1913   2.670   1.887   3.616
  917W        W 1914   5.493   5.816   3.431
  918W        W 1915   6.581   3.068   4.104
  919W        W 1916   0.749   3.468   1.371
  920W        W 1917   5.446   1.782   4.296
  921W        W 1918   6.417   6.462   3.846
  922W        W 1919   5.701   1.403   5.544
  923W        W 1920   7.106   5.247   7.054
  924W        W 1921   3.933   3.736   2.887
  925W        W 1922   6.292   3.010   1.265
  926W        W 1923   7.337   4.290   6.756
  927W        W 1924   1.141   0.543   1.460
  928W        W 1925   7.349   7.193   3.455
  929W        W 1926   1.839   5.367   5.239
  930W        W 1927   6.765   3.711   1.522
  931W        W 1928   2.729   2.383   3.683
  932W        W 1929   1.205   2.219   3.106
  933W        W 1930   6.989   5.923   3.302
  934W        W 1931   0.768   3.268   0.880
  935W        W 1932   1.469   5.781   1.361
  936W        W 1933   4.231   0.100   0.991
  937W        W 1934   3.706   1.072   4.999
  938W        W 1935   4.027   5.748   7.357
  939W        W 1936   5.090   7.515   1.121
  940W        W 1937   3.306   1.833   3.448
  941W        W 1938   7.414   4.603   1.131
  942W        W 1939   3.202   2.703   6.636
  943W        W 1940   0.465   2.916   1.160
  944W        W 1941   5.435   3.044   0.921
  945W        W 1942   6.330   1.779   4.004
  946W        W 1943   0.598   5.073   5.705
  947W        W 1944   5.954   0.979   1.107
  948W        W 1945   3.793   2.786   2.850
  949W        W 1946   1.369   0.351   4.895
  950W        W 1947   2.733   5.057   3.736
  951W        W 1948   5.543   2.984   2.404
  952W        W 1949   2.629   2.681   0.926
  953W        W 1950   2.961   3.886   2.804
  954W        W 1951   5.636   0.529   7.377
  955W        W 1952   4.478   7.375   5.494
  956W        W 1953   4.688   2.829   1.974
  957W        W 1954   4.231   4.231   3.580
  958W        W 1955   2.471   5.977   1.315
  959W        W 1956   4.500   2.920   5.336
  960W        W 1957   1.761   5.327   0.442
  961W        W 1958   0.507   3.995   0.526
  962W        W 1959   2.212   4.730   6.192
  963W        W 1960   6.706   3.319   1.150
  964W        W 1961   7.575   5.908   5.918
  965W        W 1962   7.446   6.640   1.550
  966W        W 1963   4.646   4.339   3.258
  967W        W 1964   4.140   3.281   7.543
  968W        W 1965   1.315   6.237   4.537
  969W        W 1966   6.110   6.886   3.931
  970W        W 1967   3.479   0.416   0.041
  971W        W 1968   3.502   4.855   5.040
  972W        W 1969   7.182   4.336   2.335
  973W        W 1970   2.098   1.232   2.432
  974W        W 1971   6.479   3.458   6.460
  975W        W 1972   4.799   7.195   1.391
  976W        W 1973   1.854   5.530   4.721
  977W        W 1974   4.890   6.904   0.330
  978W        W 1975   4.452   6.418   2.923
  979W        W 1976   5.214   4.878   0.364
  980W        W 1977   6.252   6.113   7.629
  981W        W 1978   1.021   5.623   0.285
  982W        W 1979   6.228   7.513   2.713
  983W        W 1980   2.245   0.398   4.056
  984W        W 1981   5.361   2.542   2.613
  985W        W 1982   5.587   2.033   1.913
  986W        W 1983   4.028   0.563   7.594
  987W        W 1984   6.263   4.813   2.917
  988W        W 1985   5.796   5.452   4.377
  989W        W 1986   7.740   5.643   6.767
  990W        W 1987   4.971   4.206   0.860
  991W        W 1988   6.349   5.753   1.379
  992W        W 1989   0.804   1.321   7.720
  993W        W 1990   7.996   7.561   7.083
  994W        W 1991   6.664   0.580   5.049
  995W        W 1992   7.026   2.158   4.287
  996W        W 1993   3.700   5.920   5.869
  997W        W 1994   2.561   5.094   6.066
  998W        W 1995   1.525   5.749   5.113
  999W        W 1996   4.882   4.644   3.570
 1000W        W 1997   3.068   6.404   5.551
 1001W        W 1998   2.002   3.342   5.503
 1002W        W 1999   2.161   3.171   4.643
 1003W        W 2000   2.130   4.687   6.727
 1004W        W 2001   4.976   4.474   1.307
 1005W        W 2002   3.418   2.718   7.891
 1006W        W 2003   5.911   5.477   1.382
 1007W        W 2004   7.604   3.441   1.623
 1008W        W 2005   5.259   2.273   3.496
 1009W        W 2006   2.325   2.999   6.437
 1010W        W 2007   6.373   0.029   3.573
 1011W        W 2008   6.906   3.138   7.903
 1012W        W 2009   6.761   4.439   5.131
 1013W        W 2010   2.376   5.111   6.542
 1014W        W 2011   0.675   1.436   4.157
 1015W        W 2012   1.233   3.382   1.498
 1016W        W 2013   3.747   1.678   3.224
 1017W        W 2014   4.332   7.387   3.201
 1018W        W 2015   6.817   5.666   3.736
 1019W        W 2016   3.550   3.056   5.291
 1020W        W 2017   5.198   5.998   6.663
 1021W        W 2018   3.406   0.824   0.349
 1022W        W 2019   5.011   3.538   4.355
 1023W        W 2020   4.300   0.733   0.001
 1024W        W 2021   0.739   4.230   7.502
 1025W        W 2022   5.163   0.293   2.406
 1026W        W 2023   1.240   4.104   6.790
 1027W        W 2024   4.396   0.305   1.418
 1028W        W 2025   2.573   6.661   7.730
 1029W        W 2026   5.404   5.651   0.330
 1030W        W 2027   3.067   5.300   1.737
 1031W        W 2028   5.502   2.337   6.485
 1032W        W 2029   4.643   1.239   0.953
 1033W        W 2030   1.728   6.165   7.909
 1034W        W 2031   2.895   6.164   7.037
 1035W        W 2032   4.811   6.457   4.994
 1036W        W 2033   2.797   7.600   6.131
 1037W        W 2034   1.825   0.999   0.902
 1038W        W 2035   0.549   6.668   6.790
 1039W        W 2036   1.594   1.762   1.876
 1040W        W 2037   1.498   1.829   2.384
 1041W        W 2038   5.617   1.586   2.178
 1042W        W 2039   2.890   4.491   1.980
 1043W        W 2040   1.969   0.361   2.384
 1044W        W 2041   4.949   4.684   2.550
 1045W        W 2042   1.091   3.854   3.365
 1046W        W 2043   5.648   1.398   6.566
 1047W        W 2044   5.776   1.438   4.026
 1048W        W 2045   1.049   3.878   4.711
 1049W        W 2046   5.612   3.858   3.058
 1050W        W 2047   1.022   1.638   5.696
 1051W        W 2048   0.451   4.576   3.073
 1052W        W 2049   3.984   3.030   5.564
 1053W        W 2050   5.277   6.475   1.416
 1054W        W 2051   1.030   3.523   4.018
 1055W        W 2052   1.094   3.970   2.859
 1056W        W 2053   4.871   6.580   5.490
 1057W        W 2054   1.525   1.770   5.901
 1058W        W 2055   5.306   4.839   3.386
 1059W        W 2056   4.988   0.042   4.972
 1060W        W 2057   4.756   0.443   4.737
 1061W        W 2058   0.886   1.988   5.254
 1062W        W 2059   2.101   6.999   0.062
 1063W        W 2060   6.309   3.651   1.881
 1064W        W 2061   3.525   2.247   4.025
 1065W        W 2062   4.940   2.243   1.265
 1066W        W 2063   1.472   2.881   1.355
 1067W        W 2064   1.586   5.026   1.919
 1068W        W 2065   0.503   4.891   1.358
 1069W        W 2066   3.402   7.504   2.670
 1070W        W 2067   6.158   0.628   4.217
 1071W        W 2068   5.865   1.959   4.094
 1072W        W 2069   1.547   3.261   6.764
 1073W        W 2070   2.575   3.728   0.418
 1074W        W 2071   1.463   1.854   4.395
 1075W        W 2072   5.975   1.700   1.187
 1076W        W 2073   4.219   1.339   1.277
 1077W        W 2074   7.001   0.957   3.460
 1078W        W 2075   5.071   5.995   2.125
 1079W        W 2076   7.523   7.103   7.639
 1080W        W 2077   0.676   6.360   0.142
 1081W        W 2078   6.381   5.061   7.598
 1082W        W 2079   1.388   1.810   2.878
 1083W        W 2080   5.290   6.544   5.217
 1084W        W 2081   1.179   6.034   3.260
 1085W        W 2082   5.971   4.276   4.956
 1086W        W 2083   6.018   7.659   3.395
 1087W        W 2084   3.790   0.561   5.083
 1088W        W 2085   2.789   1.131   7.070
 1089W        W 2086   5.956   3.501   7.123
 1090W        W 2087   7.019   2.320   5.790
 1091W        W 2088   7.069   7.225   7.414
 1092W        W 2089   2.232   1.007   0.589
 1093W        W 2090   0.792   6.051   2.045
 1094W        W 2091   5.838   2.951   4.476
 1095W        W 2092   3.659   0.268   2.680
 1096W        W 2093   3.394   2.883   2.005
 1097W        W 2094   6.067   4.785   4.128
 1098W        W 2095   4.046   4.626   0.858
 1099W        W 2096   3.651   6.160   3.605
 1100W        W 2097   5.232   1.227   2.549
 1101W        W 2098   6.442   2.478   7.636
 1102W        W 2099   2.234   6.512   0.113
 1103W        W 2100   3.904   5.879   7.876
 1104W        W 2101   6.516   2.339   0.163
 1105W        W 2102   3.331   6.325   7.291
 1106W        W 2103   6.737   7.177   4.530
 1107W        W 2104   4.863   3.453   5.892
 1108W        W 2105   3.202   1.595   5.928
 1109W        W 2106   4.204   6.909   4.417
 1110W        W 2107   4.842   6.290   4.474
 1111W        W 2108   0.050   1.649   1.882
 1112W        W 2109   5.890   5.613   0.200
 1113W        W 2110   1.120   2.962   7.936
 1114W        W 2111   3.150   2.868   6.161
 1115W        W 2112   0.533   3.117   6.593
 1116W        W 2113   4.092   2.212   5.612
 1117W        W 2114   4.391   2.624   6.899
 1118W        W 2115   3.139   6.739   1.669
 1119W        W 2116   3.076   2.851   4.829
 1120W        W 2117   7.223   4.089   1.061
 1121W        W 2118   6.136   1.143   4.230
 1122W        W 2119   3.953   5.258   1.769
 1123W        W 2120   3.815   2.664   2.227
 1124W        W 2121   4.913   1.665   5.553
 1125W        W 2122   2.625   2.891   4.532
 1126W        W 2123   3.365   4.526   6.332
 1127W        W 2124   5.303   2.413   7.861
 1128W        W 2125   3.528   5.809   3.267
 1129W        W 2126   4.907   5.398   6.194
 1130W        W 2127   6.966   6.055   5.409
 1131W        W 2128   6.154   1.955   0.229
 1132W        W 2129   0.648   6.491   3.816
 1133W        W 2130   6.767   2.933   4.597
 1134W        W 2131   4.558   4.682   5.749
 1135W        W 2132   5.396   0.487   3.146
 1136W        W 2133   1.873   6.641   1.440
 1137W        W 2134   3.491   1.496   5.152
 1138W        W 2135   6.378   2.322   5.297
 1139W        W 2136   3.790   3.214   3.777
 1140W        W 2137   1.947   4.992   4.915
 1141W        W 2138   5.830   4.351   2.309
 1142W        W 2139   4.019   0.082   5.130
 1143W        W 2140   1.078   0.519   3.633
 1144W        W 2141   1.312   2.429   6.707
 1145W        W 2142   3.408   4.910   3.423
 1146W        W 2143   1.251   6.086   6.684
 1147W        W 2144   0.655   5.645   3.879
 1148W        W 2145   2.047   3.923   1.677
 1149W        W 2146   5.854   4.604   5.715
 1150W        W 2147   4.073   6.924   3.922
 1151W        W 2148   4.515   1.544   3.576
 1152W        W 2149   6.332   2.751   4.424
 1153W        W 2150   0.710   4.460   4.001
 1154W        W 2151   4.619   3.870   5.252
 1155W        W 2152   3.081   3.038   5.695
 1156W        W 2153   2.788   0.688   4.392
 1157W        W 2154   6.038   4.144   5.508
 1158W        W 2155   3.070   6.643   4.690
 1159W        W 2156   1.222   4.205   5.080
 1160W        W 2157   1.145   1.649   6.235
 1161W        W 2158   1.940   2.312   0.737
 1162W        W 2159   3.979   3.233   2.941
 1163W        W 2160   7.684   4.935   1.997
 1164W        W 2161   0.829   6.374   3.353
 1165W        W 2162   3.911   6.487   5.627
 1166W        W 2163   5.804   5.080   7.528
 1167W        W 2164   1.624   1.595   4.995
 1168W        W 2165   4.456   2.162   1.194
 1169W        W 2166   1.515   0.981   4.302
 1170W        W 2167   6.723   5.593   1.061
 1171W        W 2168   4.065   0.616   0.915
 1172W        W 2169   7.802   4.637   1.557
 1173W        W 2170   5.585   2.235   5.009
 1174W        W 2171   5.528   6.672   6.044
 1175W        W 2172   1.170   6.273   2.335
 1176W        W 2173   1.877   6.810   7.185
 1177W        W 2174   1.299   6.036   7.599
 1178W        W 2175   1.262   4.580   6.607
 1179W        W 2176   6.159   5.030   1.335
 1180W        W 2177   6.685   4.938   6.978
 1181W        W 2178   4.226   3.942   2.543
 1182W        W 2179   6.373   4.569   5.785
 1183W        W 2180   6.227   3.348   5.239
 1184W        W 2181   4.249   4.189   5.086
 1185W        W 2182   6.616   3.020   6.762
 1186W        W 2183   2.807   6.139   0.585
 1187W        W 2184   5.547   5.398   7.854
 1188W        W 2185   1.215   2.663   0.469
 1189W        W 2186   6.370   2.843   6.354
 1190W        W 2187   2.029   6.758   0.535
 1191W        W 2188   2.651   6.363   1.013
 1192W        W 2189   4.056   7.043   1.785
 1193W        W 2190   3.739   4.976   3.858
 1194W        W 2191   6.212   5.520   1.840
 1195W        W 2192   1.678   2.206   2.723
 1196W        W 2193   2.829   7.102   0.940
 1197W        W 2194   6.084   3.020   4.045
 1198W        W 2195   0.319   0.555   2.908
 1199W        W 2196   6.209   5.760   6.499
 1200W        W 2197   3.778   0.446   1.858
 1201W        W 2198   4.248   4.643   5.359
 1202W        W 2199   5.457   6.072   2.472
 1203W        W 2200   4.320   4.041   3.032
 1204W        W 2201   2.008   6.247   2.730
 1205W        W 2202   2.676   3.937   0.895
 1206W        W 2203   6.656   0.735   7.457
 1207W        W 2204   4.128   5.859   4.292
 1208W        W 2205   4.413   2.332   7.522
 1209W        W 2206   3.649   2.521   3.256
 1210W        W 2207   0.701   6.167   0.981
 1211W        W 2208   0.843   5.144   3.492
 1212W        W 2209   5.598   2.416   1.584
 1213W        W 2210   3.700   0.642   3.438
 1214W        W 2211   2.180   6.686   4.745
 1215W        W 2212   6.058   1.285   2.058
 1216W        W 2213   0.615   5.530   4.788
 1217W        W 2214   4.580   2.428   0.781
 1218W        W 2215   0.746   3.900   3.744
 1219W        W 2216   2.514   1.085   4.544
 1220W        W 2217   6.061   3.703   3.400
 1221W        W 2218   6.241   2.313   2.364
 1222W        W 2219   6.437   5.063   2.538
 1223W        W 2220   5.595   1.072   7.785
 1224W        W 2221   4.891   1.957   7.207
 1225W        W 2222   1.099   0.424   2.909
 1226W        W 2223   0.219   5.226   6.055
 1227W        W 2224   1.417   3.771   7.848
 1228W        W 2225   4.750   6.419   1.947
 1229W        W 2226   0.703   3.256   7.891
 1230W        W 2227   3.906   1.413   1.930
 1231W        W 2228   5.595   2.503   3.101
 1232W        W 2229   2.554   7.144   1.940
 1233W        W 2230   2.970   2.911   7.029
 1234W        W 2231   0.751   0.830   2.789
 1235W        W 2232   3.592   4.265   5.900
 1236W        W 2233   3.584   1.458   5.659
 1237W        W 2234   6.585   0.111   0.244
 1238W        W 2235   2.011   2.642   7.187
 1239W        W 2236   0.356   6.584   2.556
 1240W        W 2237   6.697   4.014   1.914
 1241W        W 2238   2.062   4.328   3.033
 1242W        W 2239   6.184   5.480   2.360
 1243W        W 2240   3.700   7.931   0.283
 1244W        W 2241   3.760   3.313   6.587
 1245W        W 2242   5.810   3.794   1.060
 1246W        W 2243   3.701   1.142   6.484
 1247W        W 2244   5.339   5.157   1.919
 1248W        W 2245   3.243   2.051   2.471
 1249W        W 2246   2.481   6.160   1.790
 1250W        W 2247   4.886   2.149   2.590
 1251W        W 2248   5.018   6.805   4.406
 1252W        W 2249   3.638   2.309   0.676
 1253W        W 2250   0.870   4.436   6.262
 1254W        W 2251   0.319   7.151   6.960
 1255W        W 2252   4.141   5.552   4.685
 1256W        W 2253   3.831   6.242   7.482
 1257W        W 2254   1.563   0.473   4.183
 1258W        W 2255   1.477   6.156   0.350
 1259W        W 2256   5.614   7.151   3.835
 1260W        W 2257   1.535   3.032   2.610
 1261W        W 2258   0.369   4.461   6.521
 1262W        W 2259   3.710   2.294   7.995
 1263W        W 2260   0.444   5.472   3.438
 1264W        W 2261   0.633   0.703   1.705
 1265W        W 2262   4.417   7.743   5.091
 1266W        W 2263   1.898   0.367   1.875
 1267W        W 2264   5.454   4.665   2.429
 1268W        W 2265   7.874   7.494   7.574
 1269W        W 2266   3.193   6.745   0.160
 1270W        W 2267   5.706   7.615   2.600
 1271W        W 2268   4.365   0.221   3.315
 1272W        W 2269   0.930   4.978   3.983
 1273W        W 2270   7.056   5.139   5.751
 1274W        W 2271   1.518   0.540   2.227
 1275W        W 2272   4.761   5.372   3.912
 1276W        W 2273   4.332   6.511   3.795
 1277W        W 2274   2.628   2.602   7.367
 1278W        W 2275   6.483   0.974   3.481
 1279W        W 2276   6.427   3.942   2.654
 1280W        W 2277   5.200   1.407   6.777
 1281W        W 2278   4.050   7.159   0.938
 1282W        W 2279   4.826   7.346   2.936
 1283W        W 2280   0.429   1.901   5.031
 1284W        W 2281   3.995   0.431   2.324
 1285W        W 2282   4.699   1.040   0.037
 1286W        W 2283   2.737   2.676   5.629
 1287W        W 2284   5.028   0.667   0.672
 1288W        W 2285   3.356   1.909   7.814
 1289W        W 2286   1.082   5.035   5.308
 1290W        W 2287   7.019   6.947   5.045
 1291W        W 2288   1.973   4.857   0.430
 1292W        W 2289   2.798   3.516   3.456
 1293W        W 2290   5.198   3.347   0.580
 1294W        W 2291   5.699   0.922   4.227
 1295W        W 2292   6.976   4.491   0.519
 1296W        W 2293   5.744   3.542   6.014
 1297W        W 2294   7.620   2.202   6.463
 1298W        W 2295   1.174   5.266   4.383
 1299W        W 2296   4.804   5.030   0.714
 1300W        W 2297   3.930   7.561   1.602
 1301W        W 2298   6.378   7.730   5.173
 1302W        W 2299   4.410   3.017   3.177
 1303W        W 2300   1.675   2.452   1.137
 1304W        W 2301   7.512   4.444   1.958
 1305W        W 2302   5.040   0.471   5.232
 1306W        W 2303   2.221   2.344   7.541
 1307W        W 2304   1.715   3.818   5.277
 1308W        W 2305   4.091   1.827   1.202
 1309W        W 2306   1.664   6.576   5.858
 1310W        W 2307   1.078   6.470   7.427
 1311W        W 2308   3.910   2.755   0.835
 1312W        W 2309   4.859   1.776   6.727
 1313W        W 2310   3.126   5.322   6.896
 1314W        W 2311   4.896   5.534   2.274
 1315W        W 2312   5.389   0.946   6.525
 1316W        W 2313   2.275   1.745   2.574
 1317W        W 2314   2.337   6.584   3.492
 1318W        W 2315   3.704   6.128   4.262
 1319W        W 2316   2.370   6.378   6.423
 1320W        W 2317   0.442   7.099   6.473
 1321W        W 2318   6.107   6.848   0.476
 1322W        W 2319   6.709   4.654   2.681
 1323W        W 2320   5.717   6.348   1.615
 1324W        W 2321   1.958   4.357   7.095
 1325W        W 2322   3.113   2.726   7.472
 1326W        W 2323   6.331   5.511   3.666
 1327W        W 2324   2.799   5.553   4.962
 1328W        W 2325   5.140   4.267   2.333
 1329W        W 2326   4.589   2.057   5.483
 1330W        W 2327   5.624   6.328   6.422
 1331W        W 2328   1.975   7.274   6.358
 1332W        W 2329   5.553   3.145   7.583
 1333W        W 2330   1.279   3.527   0.559
 1334W        W 2331   5.877   1.215   2.900
 1335W        W 2332   6.786   1.291   3.783
 1336W        W 2333   3.651   2.102   1.500
 1337W        W 2334   7.025   5.490   2.843
 1338W        W 2335   3.791   6.179   6.583
 1339W        W 2336   1.960   5.842   1.271
 1340W        W 2337   7.725   2.678   1.749
 1341W        W 2338   0.840   6.171   4.271
 1342W        W 2339   5.479   4.909   6.511
 1343W        W 2340   7.066   6.685   7.420
 1344W        W 2341   4.040   6.705   1.272
 1345W        W 2342   7.141   4.714   7.064
 1346W        W 2343   7.014   6.175   7.285
 1347W        W 2344   2.709   2.859   5.163
 1348W        W 2345   0.718   4.228   4.914
 1349W        W 2346   1.326   5.239   3.444
 1350W        W 2347   6.597   6.469   7.470
 1351W        W 2348   0.003   5.901   6.394
 1352W        W 2349   0.844   4.166   2.439
 1353W        W 2350   3.635   3.298   7.644
 1354W        W 2351   0.738   3.909   7.086
 1355W        W 2352   1.938   1.655   7.967
 1356W        W 2353   2.910   4.642   3.972
 1357W        W 2354   4.491   2.298   3.413
 1358W        W 2355   5.084   6.432   0.448
 1359W        W 2356   5.711   4.740   1.998
 1360W        W 2357   2.613   2.090   7.221
 1361W        W 2358   5.330   7.423   5.508
 1362W        W 2359   3.524   6.214   5.451
 1363W        W 2360   1.999   6.336   7.246
 1364W        W 2361   5.848   3.298   1.190
 1365W        W 2362   3.559   2.968   5.823
 1366W        W 2363   6.611   4.556   7.273
 1367W        W 2364   6.252   4.541   2.066
 1368W        W 2365   5.686   0.850   1.519
 1369W        W 2366   7.618   7.893   7.280
 1370W        W 2367   3.977   5.812   6.299
 1371W        W 2368   3.891   2.252   5.102
 1372W        W 2369   7.848   3.695   1.257
 1373W        W 2370   1.584   6.981   6.179
 1374W        W 2371   5.983   3.147   2.616
 1375W        W 2372   6.655   4.125   7.550
 1376W        W 2373   4.608   2.513   6.398
 1377W        W 2374   3.587   0.822   6.872
 1378W        W 2375   3.763   2.043   3.576
 1379W        W 2376   0.111   6.279   7.127
 1380W        W 2377   5.567   1.537   6.064
 1381W        W 2378   3.652   0.638   5.931
 1382W        W 2379   5.130   1.321   4.582
 1383W        W 2380   0.537   4.351   2.077
 1384W        W 2381   1.752   4.419   6.055
 1385W        W 2382   4.156   2.568   3.127
 1386W        W 2383   3.778   0.233   4.679
 1387W        W 2384   1.566   3.581   7.393
 1388W        W 2385   5.919   6.253   3.956
 1389W        W 2386   6.590   3.515   5.959
 1390W        W 2387   2.386   1.649   1.791
 1391W        W 2388   2.109   4.146   3.870
 1392W        W 2389   0.159   2.212   6.490
 1393W        W 2390   3.986   7.672   4.812
 1394W        W 2391   1.837   3.105   6.357
 1395W        W 2392   6.722   5.071   2.994
 1396W        W 2393   5.037   1.613   2.847
 1397W        W 2394   1.999   1.481   0.479
 1398W        W 2395   6.961   4.731   6.156
 1399W        W 2396   5.168   2.578   7.050
 1400W        W 2397   0.775   6.087   7.632
 1401W        W 2398   0.650   1.541   2.220
 1402W        W 2399   0.186   4.049   1.861
 1403W        W 2400   0.609   7.020   3.840
 1404W        W 2401   6.996   2.435   1.612
 1405W        W 2402   1.556   4.035   4.733
 1406W        W 2403   6.133   7.824   2.314
 1407W        W 2404   3.316   1.072   5.883
 1408W        W 2405   5.702   3.434   0.698
 1409W        W 2406   1.314   2.832   5.664
 1410W        W 2407   3.749   1.158   3.161
 1411W        W 2408   3.266   0.443   3.933
 1412W        W 2409   1.478   1.348   5.607
 1413W        W 2410   4.536   3.425   0.865
 1414W        W 2411   6.798   4.096   3.350
 1415W        W 2412   1.957   5.591   2.423
 1416W        W 2413   3.067   0.804   1.124
 1417W        W 2414   7.126   7.125   5.939
 1418W        W 2415   7.269   7.315   6.756
 1419W        W 2416   4.369   7.154   2.201
 1420W        W 2417   5.872   6.373   5.801
 1421W        W 2418   4.395   2.039   7.120
 1422W        W 2419   7.195   2.998   7.490
 1423W        W 2420   1.541   7.857   5.056
 1424W        W 2421   5.053   6.114   5.356
 1425W        W 2422   3.766   7.410   0.103
 1426W        W 2423   2.790   6.004   7.978
 1427W        W 2424   6.033   2.776   2.250
 1428W        W 2425   5.585   6.454   0.631
 1429W        W 2426   0.697   5.448   6.034
 1430W        W 2427   5.616   5.549   5.692
 1431W        W 2428   6.381   6.882   3.494
 1432W        W 2429   6.960   1.935   7.130
 1433W        W 2430   7.041   0.171   7.242
 1434W        W 2431   1.424   5.417   7.566
 1435W        W 2432   5.191   1.129   1.518
 1436W        W 2433   3.156   2.874   0.306
 1437W        W 2434   6.354   0.313   2.354
 1438W        W 2435   4.859   0.200   3.468
 1439W        W 2436   7.461   3.612   6.042
 1440W        W 2437   7.486   5.936   6.431
 1441W        W 2438   1.816   5.950   0.805
 1442W        W 2439   4.195   7.236   5.107
 1443W        W 2440   1.664   0.433   3.636
 1444W        W 2441   2.190   1.335   2.908
 1445W        W 2442   4.410   0.744   2.270
 1446W        W 2443   2.100   3.036   3.794
 1447W        W 2444   4.723   5.794   6.811
 1448W        W 2445   2.202   7.189   7.292
 1449W        W 2446   5.320   6.029   0.676
 1450W        W 2447   7.709   4.915   2.849
 1451W        W 2448   0.693   6.867   1.854
 1452W        W 2449   6.222   5.672   3.138
 1453W        W 2450   2.490   3.557   1.216
 1454W        W 2451   1.790   3.463   3.427
 1455W        W 2452   7.434   0.935   1.289
 1456W        W 2453   7.015   1.582   1.276
 1457W        W 2454   7.698   3.921   1.776
 1458W        W 2455   2.036   1.681   2.144
 1459W        W 2456   6.955   1.066   4.249
 1460W        W 2457   4.072   2.025   0.233
 1461W        W 2458   3.721   5.344   5.364
 1462W        W 2459   0.773   0.958   0.732
 1463W        W 2460   2.633   4.306   6.186
 1464W        W 2461   3.338   1.672   7.227
 1465W        W 2462   5.776   1.664   3.177
 1466W        W 2463   0.072   7.026   2.614
 1467W        W 2464   5.085   3.370   7.546
 1468W        W 2465   6.369   4.569   6.815
 1469W        W 2466   3.449   2.849   3.589
 1470W        W 2467   3.026   0.494   1.543
 1471W        W 2468   5.418   5.261   6.134
 1472W        W 2469   0.443   6.410   3.027
 1473W        W 2470   0.735   5.958   3.052
 1474W        W 2471   3.482   4.958   4.317
 1475W        W 2472   3.062   4.711   2.438
 1476W        W 2473   7.077   7.454   4.284
 1477W        W 2474   4.689   0.573   3.128
 1478W        W 2475   2.090   2.611   2.436
 1479W        W 2476   6.005   0.304   1.984
 1480W        W 2477   5.279   2.711   3.746
 1481W        W 2478   2.558   5.544   6.294
 1482W        W 2479   3.332   5.074   6.225
 1483W        W 2480   7.028   3.835   3.727
 1484W        W 2481   3.277   2.346   0.260
 1485W        W 2482   2.837   0.303   6.669
 1486W        W 2483   7.123   3.057   6.657
 1487W        W 2484   0.659   4.904   2.259
 1488W        W 2485   1.014   1.686   7.400
 1489W        W 2486   6.722   5.336   6.701
 1490W        W 2487   2.245   0.080   3.167
 1491W        W 2488   7.702   5.504   6.255
 1492W        W 2489   0.438   6.325   1.815
 1493W        W 2490   6.193   7.422   4.764
 1494W        W 2491   3.309   4.294   2.181
 1495W        W 2492   7.393   1.602   1.967
 1496W        W 2493   1.141   5.445   3.902
 1497W        W 2494   3.207   1.996   0.663
 1498W        W 2495   3.463   4.822   1.170
 1499W        W 2496   1.594   1.261   1.746
 1500W        W 2497   4.728   2.647   7.299
 1501W        W 2498   5.068   2.847   4.625
 1502W        W 2499   6.190   1.933   6.965
 1503W        W 2500   3.962   7.545   0.587
 1504W        W 2501   6.596   0.356   4.005
 1505W        W 2502   0.817   6.284   5.385
 1506W        W 2503   1.573   0.756   1.751
 1507W        W 2504   1.011   4.653   4.960
 1508W        W 2505   1.526   3.255   7.798
 1509W        W 2506   5.150   3.530   6.853
 1510W        W 2507   5.885   7.216   2.932
 1511W        W 2508   1.983   5.263   2.836
 1512W        W 2509   0.262   4.461   5.079
 1513W        W 2510   2.547   1.432   2.238
 1514W        W 2511   3.182   3.542   3.105
 1515W        W 2512   5.447   6.060   5.006
 1516W        W 2513   1.661   4.615   4.279
 1517W        W 2514   5.402   2.086   6.050
 1518W        W 2515   2.317   2.598   6.134
 1519W        W 2516   0.541   2.401   6.181
 1520W        W 2517   4.385   7.281   2.692
 1521W        W 2518   4.440   4.449   6.184
 1522W        W 2519   3.175   2.704   5.293
 1523W        W 2520   5.300   6.388   5.712
 1524W        W 2521   2.905   3.619   5.655
 1525W        W 2522   5.416   4.893   7.812
 1526W        W 2523   5.484   3.976   1.478
 1527W        W 2524   6.560   4.810   0.640
 1528W        W 2525   1.815   5.368   5.750
 1529W        W 2526   1.828   5.292   3.308
 1530W        W 2527   1.571   0.536   2.751
 1531W        W 2528   6.742   1.033   6.807
 1532W        W 2529   5.203   4.154   3.291
 1533W        W 2530   6.443   0.798   2.206
 1534W        W 2531   0.933   4.386   7.059
 1535W        W 2532   2.131   0.405   6.959
 1536W        W 2533   5.570   2.568   0.831
 1537W        W 2534   4.481   5.086   5.178
 1538W        W 2535   2.791   2.172   6.470
 1539W        W 2536   5.798   5.880   3.028
 1540W        W 2537   0.969   1.124   3.871
 1541W        W 2538   4.172   4.528   3.151
 1542W        W 2539   3.330   0.905   3.200
 1543W        W 2540   5.421   5.409   6.651
 1544W        W 2541   2.427   2.504   7.965
 1545W        W 2542   2.973   5.468   3.970
 1546W        W 2543   1.167   5.627   5.921
 1547W        W 2544   0.699   4.747   0.877
 1548W        W 2545   2.685   5.094   4.725
 1549W        W 2546   2.792   0.758   1.906
 1550W        W 2547   2.062   6.669   7.659
 1551W        W 2548   3.278   3.217   6.513
 1552W        W 2549   2.049   0.765   2.672
 1553W        W 2550   2.473   2.415   5.270
 1554W        W 2551   1.962   1.546   1.527
 1555W        W 2552   6.240   0.274   7.895
 1556W        W 2553   2.624   5.471   6.815
 1557W        W 2554   5.758   5.644   2.587
 1558W        W 2555   7.757   6.086   3.598
 1559W        W 2556   3.566   7.456   4.484
 1560W        W 2557   3.407   6.650   3.599
 1561W        W 2558   0.612   1.267   6.993
 1562W        W 2559   1.913   2.145   2.280
 1563W        W 2560   3.815   1.676   7.955
 1564W        W 2561   4.454   5.106   7.476
 1565W        W 2562   1.604   6.511   7.535
 1566W        W 2563   3.938   3.494   5.761
 1567W        W 2564   7.365   1.342   0.985
 1568W        W 2565   4.006   5.069   0.316
 1569W        W 2566   5.646   1.239   5.022
 1570W        W 2567   4.927   5.407   0.379
 1571W        W 2568   5.119   3.309   2.563
 1572W        W 2569   7.210   2.198   0.712
 1573W        W 2570   1.542   2.794   7.023
 1574W        W 2571   4.145   4.674   3.806
 1575W        W 2572   5.606   3.069   3.911
 1576W        W 2573   6.897   4.481   3.655
 1577W        W 2574   6.800   3.753   7.206
 1578W        W 2575   4.429   4.437   0.139
 1579W        W 2576   1.912   5.765   2.903
 1580W        W 2577   1.478   4.043   0.965
 1581W        W 2578   4.105   2.481   2.603
 1582W        W 2579   4.408   6.476   5.715
 1583W        W 2580   3.654   3.344   1.308
 1584W        W 2581   3.868   0.890   5.499
 1585W        W 2582   2.182   0.563   3.563
 1586W        W 2583   7.261   6.526   4.786
 1587W        W 2584   2.591   4.253   0.479
 1588W        W 2585   3.191   6.479   1.058
 1589W        W 2586   1.801   3.109   7.362
 1590W        W 2587   5.514   2.660   4.749
 1591W        W 2588   3.563   1.125   4.519
 1592W        W 2589   2.263   7.219   4.866
 1593W        W 2590   2.060   1.246   6.339
 1594W        W 2591   2.540   5.893   4.198
 1595W        W 2592   4.932   0.861   1.139
 1596W        W 2593   5.759   0.519   3.517
 1597W        W 2594   1.472   0.830   5.580
 1598W        W 2595   6.020   5.869   5.654
 1599W        W 2596   1.409   0.864   3.811
 1600W        W 2597   5.606   0.621   1.980
 1601W        W 2598   5.295   6.416   1.908
 1602W        W 2599   2.301   2.196   3.921
 1603W        W 2600   4.412   2.458   3.993
 1604W        W 2601   2.745   1.839   6.065
 1605W        W 2602   4.468   1.543   7.210
 1606W        W 2603   0.895   0.897   6.785
 1607W        W 2604   2.915   5.056   4.269
 1608W        W 2605   5.276   6.415   4.207
 1609W        W 2606   6.052   5.290   2.825
 1610W        W 2607   7.009   3.940   0.616
 1611W        W 2608   3.865   5.654   3.922
 1612W        W 2609   3.320   3.818   5.973
 1613W        W 2610   1.178   2.414   4.954
 1614W        W 2611   2.509   5.972   5.053
 1615W        W 2612   1.890   5.141   6.718
 1616W        W 2613   3.633   2.709   0.369
 1617W        W 2614   7.211   4.833   2.171
 1618W        W 2615   5.598   7.617   3.100
 1619W        W 2616   3.978   5.210   7.341
 1620W        W 2617   2.783   2.796   2.781
 1621W        W 2618   2.014   7.127   5.445
 1622W        W 2619   1.792   5.857   3.922
 1623W        W 2620   6.085   7.403   3.854
 1624W        W 2621   0.928   2.267   0.734
 1625W        W 2622   4.233   4.945   6.046
 1626W        W 2623   6.386   2.635   3.910
 1627W        W 2624   6.921   4.172   2.777
 1628W        W 2625   7.938   1.697   1.314
 1629W        W 2626   0.474   3.827   2.267
 1630W        W 2627   5.099   4.142   5.111
 1631W        W 2628   7.476   7.743   0.509
 1632W        W 2629   3.873   0.265   3.147
 1633W        W 2630   4.447   7.098   0.611
 1634W        W 2631   4.797   4.788   3.054
 1635W        W 2632   2.066   6.420   0.972
 1636W        W 2633   2.725   4.776   2.813
 1637W        W 2634   2.412   2.785   1.367
 1638W        W 2635   5.874   0.989   6.341
 1639W        W 2636   7.123   6.933   6.441
 1640W        W 2637   3.918   2.018   2.493
 1641W        W 2638   0.867   0.220   1.761
 1642W        W 2639   4.947   4.489   6.067
 1643W        W 2640   4.947   6.362   3.027
 1644W        W 2641   1.198   0.680   7.166
 1645W        W 2642   2.090   7.592   6.936
 1646W        W 2643   1.055   3.230   6.618
 1647W        W 2644   3.093   4.180   5.015
 1648W        W 2645   4.547   0.024   1.836
 1649W        W 2646   0.882   6.462   4.697
 1650W        W 2647   6.715   2.070   7.793
 1651W        W 2648   5.956   7.220   2.397
 1652W        W 2649   2.068   3.897   7.313
 1653W        W 2650   2.203   4.323   5.891
 1654W        W 2651   4.417   3.912   6.229
 1655W        W 2652   3.034   1.568   3.788
 1656W        W 2653   1.783   0.645   4.627
 1657W        W 2654   1.168   3.801   1.765
 1658W        W 2655   1.625   3.153   5.908
 1659W        W 2656   1.306   1.047   2.112
 1660W        W 2657   0.688   5.815   5.238
 1661W        W 2658   0.656   0.740   2.245
 1662W        W 2659   2.253   4.956   3.592
 1663W        W 2660   6.378   2.854   3.423
 1664W        W 2661   4.977   3.688   0.872
 1665W        W 2662   4.060   6.115   3.864
 1666W        W 2663   4.221   3.219   4.528
 1667W        W 2664   5.013   3.947   1.315
 1668W        W 2665   2.110   6.153   4.164
 1669W        W 2666   3.858   3.004   1.851
 1670W        W 2667   6.186   2.047   7.725
 1671W        W 2668   3.906   7.176   4.717
 1672W        W 2669   4.292   4.664   1.349
 1673W        W 2670   0.755   6.724   4.263
 1674W        W 2671   4.997   4.873   6.933
 1675W        W 2672   0.687   2.713   1.600
 1676W        W 2673   4.363   5.200   1.453
 1677W        W 2674   2.418   6.452   0.583
 1678W        W 2675   2.174   5.605   0.580
 1679W        W 2676   1.950   4.202   4.437
 1680W        W 2677   1.431   3.572   4.900
 1681W        W 2678   6.038   4.117   3.081
 1682W        W 2679   6.676   0.744   0.803
 1683W        W 2680   4.432   1.279   0.415
 1684W        W 2681   0.737   6.222   2.617
 1685W        W 2682   4.883   5.334   6.708
 1686W        W 2683   4.662   1.288   6.800
 1687W        W 2684   0.250   5.737   5.985
 1688W        W 2685   7.006   7.461   3.758
 1689W        W 2686   5.310   7.204   4.240
 1690W        W 2687   5.850   2.122   5.570
 1691W        W 2688   4.022   0.909   2.569
 1692W        W 2689   7.265   6.305   5.792
 1693W        W 2690   2.079   1.233   1.918
 1694W        W 2691   4.348   4.247   0.613
 1695W        W 2692   1.333   7.518   1.521
 1696W        W 2693   4.557   5.868   4.544
 1697W        W 2694   1.816   0.007   7.052
 1698W        W 2695   5.816   3.015   7.154
 1699W        W 2696   4.031   3.111   6.125
 1700W        W 2697   2.352   6.467   1.396
 1701W        W 2698   6.869   6.278   0.830
 1702W        W 2699   3.872   1.599   6.643
 1703W        W 2700   3.212   2.562   0.725
 1704W        W 2701   3.148   6.241   3.498
 1705W        W 2702   3.391   3.528   6.914
 1706W        W 2703   4.103   2.874   0.354
 1707W        W 2704   4.571   6.782   6.658
 1708W        W 2705   3.888   6.987   2.255
 1709W        W 2706   7.420   4.267   1.505
 1710W        W 2707   6.369   5.606   7.641
 1711W        W 2708   1.086   4.600   7.496
 1712W        W 2709   3.634   2.882   6.350
 1713W        W 2710   0.775   4.712   6.694
 1714W        W 2711   0.948   6.410   6.381
 1715W        W 2712   1.925   1.437   5.857
 1716W        W 2713   2.457   4.638   3.225
 1717W        W 2714   6.314   3.567   1.310
 1718W        W 2715   5.834   6.655   6.750
 1719W        W 2716   4.326   2.005   4.829
 1720W        W 2717   2.933   3.546   2.421
 1721W        W 2718   7.108   6.723   0.666
 1722W        W 2719   5.308   2.799   5.730
 1723W        W 2720   1.323   2.668   3.342
 1724W        W 2721   5.858   1.600   1.716
 1725W        W 2722   6.900   7.743   7.530
 1726W        W 2723   6.386   3.818   4.325
 1727W        W 2724   3.258   7.069   5.206
 1728W        W 2725   3.045   1.683   4.282
 1729W        W 2726   4.335   1.985   3.801
 1730W        W 2727   2.850   2.040   4.579
 1731W        W 2728   6.025   6.744   1.641
 1732W        W 2729   3.510   5.133   1.574
 1733W        W 2730   0.294   3.514   0.679
 1734W        W 2731   6.435   5.100   3.981
 1735W        W 2732   4.018   4.830   2.192
 1736W        W 2733   6.409   1.583   5.779
 1737W        W 2734   2.280   2.111   3.385
 1738W        W 2735   3.191   4.851   6.693
 1739W        W 2736   6.349   4.031   1.539
 1740W        W 2737   4.322   3.604   7.158
 1741W        W 2738   0.355   6.750   7.299
 1742W        W 2739   5.609   7.556   5.084
 1743W        W 2740   1.337   6.123   0.846
 1744W        W 2741   4.175   4.203   1.102
 1745W        W 2742   3.659   5.677   4.467
 1746W        W 2743   7.001   1.602   3.447
 1747W        W 2744   5.467   0.923   2.860
 1748W        W 2745   1.673   3.242   4.577
 1749W        W 2746   4.569   4.184   1.434
 1750W        W 2747   1.036   2.829   6.951
 1751W        W 2748   0.350   6.159   2.292
 1752W        W 2749   3.468   6.242   2.232
 1753W        W 2750   0.645   1.237   5.788
 1754W        W 2751   2.828   5.971   6.202
 1755W        W 2752   0.634   5.653   0.624
 1756W        W 2753   1.252   4.760   3.637
 1757W        W 2754   4.931   5.964   4.891
 1758W        W 2755   1.042   4.570   2.189
 1759W        W 2756   1.512   3.885   2.553
 1760W        W 2757   6.075   3.269   1.645
 1761W        W 2758   0.553   1.254   4.621
 1762W        W 2759   3.335   5.045   5.476
 1763W        W 2760   1.582   3.586   5.690
 1764W        W 2761   1.291   4.266   1.376
 1765W        W 2762   6.517   4.413   6.284
 1766W        W 2763   1.184   5.890   1.786
 1767W        W 2764   0.297   5.984   2.789
 1768W        W 2765   4.491   4.997   6.951
 1769W        W 2766   1.935   1.035   1.444
 1770W        W 2767   5.842   1.312   0.738
 1771W        W 2768   3.577   1.756   2.208
 1772W        W 2769   5.277   0.478   4.784
 1773W        W 2770   7.265   4.118   3.176
 1774W        W 2771   5.343   4.408   0.567
 1775W        W 2772   5.073   2.621   6.560
 1776W        W 2773   1.427   3.106   3.114
 1777W        W 2774   3.226   1.184   6.827
 1778W        W 2775   6.795   7.361   7.923
 1779W        W 2776   5.859   2.555   0.431
 1780W        W 2777   7.151   4.904   3.489
 1781W        W 2778   7.964   5.248   3.185
 1782W        W 2779   1.080   0.685   4.161
 1783W        W 2780   5.705   5.516   1.842
 1784W        W 2781   0.657   6.139   6.709
 1785W        W 2782   2.021   3.353   4.181
 1786W        W 2783   4.373   7.789   1.404
 1787W        W 2784   7.279   0.239   6.787
 1788W        W 2785   4.831   3.000   6.231
 1789W        W 2786   1.781   5.066   2.427
 1790W        W 2787   5.323   2.218   7.362
 1791W        W 2788   5.407   5.390   1.449
 1792W        W 2789   4.386   2.168   2.898
 1793W        W 2790   2.147   5.572   6.616
 1794W        W 2791   7.952   6.313   2.645
 1795W        W 2792   5.191   4.760   0.929
 1796W        W 2793   3.468   2.990   0.951
 1797W        W 2794   0.872   2.585   3.018
 1798W        W 2795   6.724   0.770   3.068
 1799W        W 2796   5.858   0.474   5.563
 1800W        W 2797   1.993   5.132   4.056
 1801W        W 2798   6.724   5.503   5.870
 1802W        W 2799   1.710   6.160   4.890
 1803W        W 2800   3.231   2.184   6.717
 1804W        W 2801   7.771   4.009   5.901
 1805W        W 2802   7.036   2.110   3.355
 1806W        W 2803   2.853   6.323   6.558
 1807W        W 2804   3.284   3.339   0.559
 1808W        W 2805   6.884   2.363   6.847
 1809W        W 2806   5.830   4.560   2.826
 1810W        W 2807   1.864   5.805   0.251
 1811W        W 2808   2.109   2.338   2.964
 1812W        W 2809   6.232   5.397   5.769
 1813W        W 2810   6.372   1.053   6.221
 1814W        W 2811   1.677   4.540   4.770
 1815W        W 2812   2.416   0.411   2.113
 1816W        W 2813   2.070   3.109   2.516
 1817W        W 2814   3.171   5.966   5.798
 1818W        W 2815   2.033   4.843   2.061
 1819W        W 2816   4.769   2.292   6.836
 1820W        W 2817   5.928   3.758   1.545
 1821W        W 2818   5.675   1.232   0.254
 1822W        W 2819   3.771   4.827   6.205
 1823W        W 2820   4.285   1.278   2.770
 1824W        W 2821   6.277   5.536   4.185
 1825W        W 2822   3.515   0.626   7.537
 1826W        W 2823   3.469   5.403   4.076
 1827W        W 2824   6.545   1.321   2.171
 1828W        W 2825   3.765   3.241   4.287
 1829W        W 2826   0.417   5.282   2.495
 1830W        W 2827   2.139   3.197   1.193
 1831W        W 2828   0.976   5.593   1.409
 1832W        W 2829   6.656   5.374   7.274
 1833W        W 2830   0.340   6.061   5.545
 1834W        W 2831   0.809   1.918   1.285
 1835W        W 2832   2.662   5.655   0.715
 1836W        W 2833   2.049   6.644   4.089
 1837W        W 2834   1.997   0.210   4.458
 1838W        W 2835   2.348   0.444   6.509
 1839W        W 2836   4.574   3.770   0.481
 1840W        W 2837   1.560   4.142   5.659
 1841W        W 2838   7.066   6.896   6.950
 1842W        W 2839   4.843   7.715   5.386
 1843W        W 2840   5.964   5.917   1.652
 1844W        W 2841   3.720   3.979   1.186
 1845W        W 2842   3.583   6.832   3.139
 1846W        W 2843   1.387   5.412   5.473
 1847W        W 2844   0.561   5.800   7.235
 1848W        W 2845   7.180   2.018   7.583
 1849W        W 2846   7.010   2.023   4.772
 1850W        W 2847   0.891   1.824   3.041
 1851W        W 2848   3.477   7.043   3.902
 1852W        W 2849   2.137   3.634   3.749
 1853W        W 2850   6.879   1.192   7.265
 1854W        W 2851   5.747   2.120   3.415
 1855W        W 2852   3.360   3.738   1.475
 1856W        W 2853   7.153   5.972   2.820
 1857W        W 2854   2.492   3.205   1.603
 1858W        W 2855   5.144   4.512   6.578
 1859W        W 2856   4.720   3.209   0.376
 1860W        W 2857   2.290   5.919   3.718
 1861W        W 2858   3.990   5.280   6.323
 1862W        W 2859   6.580   7.887   2.627
 1863W        W 2860   4.302   4.592   1.847
 1864W        W 2861   6.594   1.468   2.662
 1865W        W 2862   3.656   5.377   3.554
 1866W        W 2863   1.705   2.944   4.159
 1867W        W 2864   5.597   2.265   4.421
 1868W        W 2865   2.898   1.752   7.477
 1869W        W 2866   2.726   1.548   4.663
 1870W        W 2867   4.887   2.289   0.363
 1871W        W 2868   1.519   5.494   2.674
 1872W        W 2869   5.435   0.902   1.091
 1873W        W 2870   2.009   4.478   2.410
 1874W        W 2871   2.167   3.080   5.929
 1875W        W 2872   6.831   0.472   2.185
 1876W        W 2873   3.141   7.325   7.336
 1877W        W 2874   4.514   4.133   1.936
 1878W        W 2875   2.336   6.989   4.371
 1879W        W 2876   1.783   5.462   0.948
 1880W        W 2877   6.025   6.515   3.534
 1881W        W 2878   2.715   3.359   2.010
 1882W        W 2879   4.565   1.857   7.594
 1883W        W 2880   7.349   6.737   3.770
 1884W        W 2881   5.408   6.930   6.883
 1885W        W 2882   5.316   0.547   4.267
 1886W        W 2883   4.676   6.573   3.401
 1887W        W 2884   1.476   4.149   4.234
 1888W        W 2885   1.027   1.386   0.578
 1889W        W 2886   5.984   6.652   6.243
 1890W        W 2887   1.917   3.507   7.011
 1891W        W 2888   1.560   1.327   1.248
 1892W        W 2889   1.300   6.915   7.601
 1893W        W 2890   2.284   2.990   2.025
 1894W        W 2891   2.379   6.673   7.250
 1895W        W 2892   3.244   7.787   2.275
 1896W        W 2893   4.351   6.035   6.030
 1897W        W 2894   3.108   3.191   2.727
 1898W        W 2895   1.020   6.470   6.899
 1899W        W 2896   5.672   4.526   6.217
 1900W        W 2897   1.100   0.621   0.960
 1901W        W 2898   1.593   5.503   4.248
 1902W        W 2899   1.768   1.797   7.043
 1903W        W 2900   1.358   1.082   6.908
 1904W        W 2901   0.811   5.169   0.049
 1905W        W 2902   3.738   6.541   3.969
 1906W        W 2903   4.101   6.271   6.991
 1907W        W 2904   6.522   0.890   3.977
 1908W        W 2905   5.294   4.672   2.917
 1909W        W 2906   3.232   3.230   7.328
 1910W        W 2907   2.836   3.846   6.108
 1911W        W 2908   0.475   5.404   6.914
 1912W        W 2909   1.514   3.806   1.396
 1913W        W 2910   0.528   5.715   1.140
 1914W        W 2911   5.375   5.107   5.023
 1915W        W 2912   3.898   2.826   4.542
 1916W        W 2913   5.756   6.519   2.120
 1917W        W 2914   1.722   5.776   1.832
 1918W        W 2915   6.205   6.729   5.621
 1919W        W 2916   4.694   7.683   3.651
 1920W        W 2917   7.048   1.698   0.763
 1921W        W 2918   3.425   2.261   5.348
 1922W        W 2919   2.038   0.590   5.536
 1923W        W 2920   6.016   4.629   1.608
 1924W        W 2921   5.698   6.695   1.221
 1925W        W 2922   4.395   0.836   1.205
 1926W        W 2923   4.213   1.888   3.319
 1927W        W 2924   0.967   2.988   1.258
 1928W        W 2925   6.319   3.089   7.199
 1929W        W 2926   6.203   2.601   0.965
 1930W        W 2927   7.263   2.004   6.133
 1931W        W 2928   5.974   7.899   4.903
 1932W        W 2929   0.574   2.924   6.099
 1933W        W 2930   7.536   7.354   7.185
 1934W        W 2931   6.709   1.819   3.061
 1935W        W 2932   1.908   5.673   6.165
 1936W        W 2933   1.269   1.928   4.862
 1937W        W 2934   2.098   7.798   6.090
 1938W        W 2935   6.897   7.563   3.213
 1939W        W 2936   6.492   1.488   3.376
 1940W        W 2937   3.045   0.620   0.654
 1941W        W 2938   6.616   1.882   5.410
 1942W        W 2939   5.460   0.932   4.661
 1943W        W 2940   1.774   7.381   5.867
 1944W        W 2941   5.315   1.871   3.201
 1945W        W 2942   4.486   2.002   0.507
 1946W        W 2943   1.207   1.531   1.579
 1947W        W 2944   1.446   6.252   7.146
 1948W        W 2945   7.646   4.623   2.410
 1949W        W 2946   1.564   1.328   6.167
 1950W        W 2947   7.862   6.921   1.655
 1951W        W 2948   7.723   6.244   6.773
 1952W        W 2949   4.405   6.377   4.701
 1953W        W 2950   1.106   2.973   1.749
 1954W        W 2951   1.540   1.512   6.648
 1955W        W 2952   2.941   1.533   0.653
 1956W        W 2953   7.446   3.629   5.533
 1957W        W 2954   3.568   6.137   4.959
 1958W        W 2955   6.001   4.827   2.431
 1959W        W 2956   2.851   0.978   6.037
 1960W        W 2957   5.809   7.143   4.307
 1961W        W 2958   6.069   2.684   6.862
 1962W        W 2959   3.227   5.018   3.875
 1963W        W 2960   2.902   2.282   2.793
 1964W        W 2961   3.584   7.011   2.654
 1965W        W 2962   1.376   5.080   6.593
 1966W        W 2963   4.785   1.249   5.274
 1967W        W 2964   6.051   1.567   2.480
 1968W        W 2965   3.850   4.793   4.624
 1969W        W 2966   4.037   5.204   6.820
 1970W        W 2967   2.236   5.218   4.504
 1971W        W 2968   0.898   5.701   6.782
 1972W        W 2969   2.483   4.517   3.754
 1973W        W 2970   4.114   3.830   5.412
 1974W        W 2971   7.534   7.100   2.344
 1975W        W 2972   4.057   2.841   5.085
 1976W        W 2973   2.432   0.902   6.306
 1977W        W 2974   0.598   0.912   4.192
 1978W        W 2975   6.306   0.659   2.757
 1979W        W 2976   2.763   3.920   2.072
 1980W        W 2977   2.209   1.724   3.724
 1981W        W 2978   2.226   5.255   0.215
 1982W        W 2979   6.483   4.998   0.136
 1983W        W 2980   3.986   3.394   0.031
 1984W        W 2981   2.867   0.944   6.561
 1985W        W 2982   6.870   3.534   3.305
 1986W        W 2983   4.849   4.120   3.674
 1987W        W 2984   0.777   2.763   0.770
 1988W        W 2985   6.577   3.276   1.656
 1989W        W 2986   5.106   2.834   7.604
 1990W        W 2987   6.911   2.573   7.868
 1991W        W 2988   2.585   7.147   2.533
 1992W        W 2989   6.297   7.221   4.302
 1993W        W 2990   6.902   3.497   6.755
 1994W        W 2991   3.094   2.566   2.436
 1995W        W 2992   4.054   3.442   2.015
 1996W        W 2993   6.695   6.849   2.002
 1997W        W 2994   6.045   3.312   7.586
 1998W        W 2995   5.085   1.680   3.967
 1999W        W 2996   6.940   5.105   2.521
 2000W        W 2997   2.957   3.102   3.187
 2001W        W 2998   4.811   3.761   1.792
 2002W        W 2999   6.354   6.230   5.799
 2003W        W 3000   2.535   1.937   4.987
 2004W        W 3001   1.776   4.675   1.595
 2005W        W 3002   1.634   4.444   0.668
 2006W        W 3003   5.660   2.353   7.011
 2007W        W 3004   3.908   2.955   3.361
 2008W        W 3005   0.975   2.672   4.160
 2009W        W 3006   1.026   3.962   0.735
 2010W        W 3007   1.285   3.370   2.074
 2011W        W 3008   3.985   0.331   0.066
 2012W        W 3009   6.495   1.820   2.312
 2013W        W 3010   1.959   6.083   6.486
 2014W        W 3011   0.983   3.385   4.660
 2015W        W 3012   4.101   2.580   6.413
 2016W        W 3013   4.418   0.812   4.593
 2017W        W 3014   5.878   3.232   2.099
 2018W        W 3015   1.195   4.563   4.115
 2019W        W 3016   2.882   5.176   6.451
 2020W        W 3017   7.703   6.586   3.422
 2021W        W 3018   5.390   4.219   7.140
 2022W        W 3019   6.133   0.128   4.020
 2023W        W 3020   6.238   7.783   6.028
 2024W        W 3021   2.849   5.421   3.015
 2025W        W 3022   6.612   6.933   6.748
 2026W        W 3023   5.266   4.140   6.242
 2027W        W 3024   1.010   2.870   5.235
 2028W        W 3025   4.650   7.804   3.148
 2029W        W 3026   3.746   7.836   2.406
 2030W        W 3027   3.913   1.637   4.900
 2031W        W 3028   5.896   5.550   6.844
 2032W        W 3029   5.634   2.777   7.944
 2033W        W 3030   5.543   2.588   2.082
 2034W        W 3031   0.454   4.557   2.553
 2035W        W 3032   6.818   2.184   6.320
 2036W        W 3033   3.633   2.029   6.961
 2037W        W 3034   1.020   2.508   1.992
 2038W        W 3035   6.528   5.822   5.530
 2039W        W 3036   3.641   7.336   3.085
 2040W        W 3037   4.064   3.237   0.993
 2041W        W 3038   1.188   4.332   3.218
 2042W        W 3039   4.202   0.464   2.805
 2043W        W 3040   1.993   5.349   1.971
 2044W        W 3041   5.411   4.307   1.094
 2045W        W 3042   3.223   7.971   2.784
 2046W        W 3043   7.244   5.703   4.175
 2047W        W 3044   3.954   0.072   1.533
 2048W        W 3045   1.204   7.049   0.105
 2049W        W 3046   2.381   4.366   4.237
 2050W        W 3047   4.664   2.594   3.028
 2051W        W 3048   5.369   1.575   1.720
 2052W        W 3049   1.963   3.799   3.071
 2053W        W 3050   2.288   1.059   7.166
 2054W        W 3051   4.419   5.426   4.284
 2055W        W 3052   5.713   4.052   3.546
 2056W        W 3053   3.588   5.527   6.187
 2057W        W 3054   6.426   7.792   3.113
 2058W        W 3055   5.886   2.696   6.368
 2059W        W 3056   0.905   2.745   6.465
 2060W        W 3057   6.693   6.848   3.027
 2061W        W 3058   2.456   4.873   4.141
 2062W        W 3059   1.317   0.643   6.612
 2063W        W 3060   6.608   2.438   1.284
 2064W        W 3061   3.831   4.740   1.695
 2065W        W 3062   0.867   7.224   3.442
 2066W        W 3063   7.285   2.781   3.610
 2067W        W 3064   6.573   6.942   7.743
 2068W        W 3065   0.639   4.749   7.704
 2069W        W 3066   2.945   0.897   3.943
 2070W        W 3067   2.391   0.930   5.367
 2071W        W 3068   5.405   2.770   6.226
 2072W        W 3069   1.124   6.144   1.323
 2073W        W 3070   5.682   6.762   7.760
 2074W        W 3071   6.376   0.629   5.489
 2075W        W 3072   0.182   4.021   0.938
 2076W        W 3073   6.898   4.891   3.969
 2077W        W 3074   1.069   0.656   1.950
 2078W        W 3075   7.171   0.714   7.914
 2079W        W 3076   3.798   5.070   0.778
 2080W        W 3077   5.502   2.953   0.430
 2081W        W 3078   2.032   2.341   4.355
 2082W        W 3079   6.123   6.891   7.969
 2083W        W 3080   7.939   7.060   7.287
 2084W        W 3081   1.992   7.257   0.511
 2085W        W 3082   1.497   2.711   5.179
 2086W        W 3083   6.620   7.666   4.637
 2087W        W 3084   2.166   0.620   5.022
 2088W        W 3085   2.502   6.423   2.216
 2089W        W 3086   4.082   5.466   1.107
 2090W        W 3087   1.964   1.478   0.992
 2091W        W 3088   6.887   7.728   5.241
 2092W        W 3089   6.091   6.717   3.077
 2093W        W 3090   5.414   1.808   5.635
 2094W        W 3091   5.296   0.670   7.792
 2095W        W 3092   3.495   5.468   0.576
 2096W        W 3093   5.465   3.782   4.355
 2097W        W 3094   4.630   1.163   4.268
 2098W        W 3095   3.745   5.673   4.970
 2099W        W 3096   4.751   2.098   4.101
 2100W        W 3097   6.853   6.183   3.732
 2101W        W 3098   6.999   6.956   4.119
 2102W        W 3099   1.686   0.450   5.880
 2103W        W 3100   0.885   3.002   7.449
 2104W        W 3101   2.537   3.838   2.504
 2105W        W 3102   6.861   3.408   0.668
 2106W        W 3103   6.709   3.950   6.195
 2107W        W 3104   2.327   6.018   0.822
 2108W        W 3105   2.524   4.427   0.970
 2109W        W 3106   5.204   3.116   6.570
 2110W        W 3107   3.234   2.368   6.249
 2111W        W 3108   1.833   3.319   2.917
 2112W        W 3109   5.174   3.793   2.784
 2113W        W 3110   2.816   6.801   4.280
 2114W        W 3111   7.655   3.036   6.681
 2115W        W 3112   4.340   6.113   1.836
 2116W        W 3113   6.237   0.574   4.729
 2117W        W 3114   4.420   4.208   5.621
 2118W        W 3115   1.779   6.482   4.508
 2119W        W 3116   0.737   0.558   3.228
 2120W        W 3117   4.711   0.688   1.595
 2121W        W 3118   6.649   6.935   7.252
 2122W        W 3119   4.965   5.929   0.323
 2123W        W 3120   1.925   0.817   2.142
 2124W        W 3121   1.145   2.509   1.492
 2125W        W 3122   4.995   3.744   2.296
 2126W        W 3123   6.355   3.076   4.833
 2127W        W 3124   4.383   1.488   1.742
 2128W        W 3125   3.297   6.221   4.546
 2129W        W 3126   5.828   6.304   2.762
 2130W        W 3127   3.764   7.127   1.371
 2131W        W 3128   0.021   4.839   6.378
 2132W        W 3129   1.337   4.175   6.293
 2133W        W 3130   7.279   2.548   5.374
 2134W        W 3131   6.166   1.751   0.710
 2135W        W 3132   6.510   0.940   4.495
 2136W        W 3133   6.181   4.332   7.448
 2137W        W 3134   4.468   5.979   7.214
 2138W        W 3135   2.251   7.498   4.361
 2139W        W 3136   1.019   0.733   5.803
 2140W        W 3137   7.463   3.584   2.100
 2141W        W 3138   5.191   0.342   1.045
 2142W        W 3139   5.594   4.169   5.833
 2143W        W 3140   6.338   5.960   3.923
 2144W        W 3141   7.306   4.782   1.631
 2145W        W 3142   7.067   2.561   1.104
 2146W        W 3143   6.795   1.235   0.972
 2147W        W 3144   3.785   0.821   7.973
 2148W        W 3145   0.857   2.678   4.660
 2149W        W 3146   3.028   6.417   7.768
 2150W        W 3147   4.907   0.850   2.362
 2151W        W 3148   4.407   1.079   3.810
 2152W        W 3149   6.885   0.585   5.550
 2153W        W 3150   1.388   2.241   3.590
 2154W        W 3151   2.744   2.415   1.380
 2155W        W 3152   3.595   2.738   4.070
 2156W        W 3153   4.260   3.307   3.555
 2157W        W 3154   4.160   1.222   6.978
 2158W        W 3155   2.674   1.467   2.756
 2159W        W 3156   4.635   2.484   1.587
 2160W        W 3157   5.543   6.695   3.559
 2161W        W 3158   3.694   3.652   0.379
 2162W        W 3159   1.568   2.036   7.934
 2163W        W 3160   1.713   1.139   4.759
 2164W        W 3161   3.097   7.168   1.953
 2165W        W 3162   0.064   6.910   3.601
 2166W        W 3163   7.957   3.088   1.510
 2167W        W 3164   6.553   5.012   5.927
 2168W        W 3165   3.895   2.904   7.879
 2169W        W 3166   1.956   1.868   4.149
 2170W        W 3167   5.849   5.095   5.916
 2171W        W 3168   6.199   5.922   2.669
 2172W        W 3169   6.136   0.709   5.937
 2173W        W 3170   2.069   6.064   2.142
 2174W        W 3171   5.957   2.528   4.182
 2175W        W 3172   6.666   6.925   5.751
 2176W        W 3173   3.812   7.110   3.512
 2177W        W 3174   3.089   4.888   7.231
 2178W        W 3175   1.367   2.616   2.838
 2179W        W 3176   7.188   5.633   6.131
 2180W        W 3177   6.365   3.312   3.184
 2181W        W 3178   6.990   1.536   4.521
 2182W        W 3179   2.211   4.822   2.714
 2183W        W 3180   1.860   5.773   3.429
 2184W        W 3181   4.621   6.902   3.795
 2185W        W 3182   4.899   7.355   5.817
 2186W        W 3183   1.521   1.387   0.727
 2187W        W 3184   5.809   6.774   2.590
 2188W        W 3185   6.888   5.231   6.245
 2189W        W 3186   6.230   5.421   0.977
 2190W        W 3187   3.892   6.598   3.486
 2191W        W 3188   5.878   5.443   3.463
 2192W        W 3189   1.668   0.365   1.404
 2193W        W 3190   6.678   7.320   2.802
 2194W        W 3191   6.270   3.993   1.036
 2195W        W 3192   1.895   3.004   5.066
 2196W        W 3193   6.490   7.242   2.309
 2197W        W 3194   3.046   6.415   6.093
 2198W        W 3195   4.008   7.640   1.094
 2199W        W 3196   6.021   1.913   2.122
 2200W        W 3197   4.008   3.738   3.726
 2201W        W 3198   3.362   6.017   6.267
 2202W        W 3199   4.171   1.128   0.817
 2203W        W 3200   5.949   4.191   1.815
 2204W        W 3201   4.461   3.405   6.214
 2205W        W 3202   7.390   5.666   2.498
 2206W        W 3203   4.256   3.429   2.560
 2207W        W 3204   1.291   1.436   4.666
 2208W        W 3205   3.467   6.149   7.835
 2209W        W 3206   5.775   7.166   1.388
 2210W        W 3207   4.135   0.948   4.202
 2211W        W 3208   3.124   2.133   7.205
 2212W        W 3209   2.714   4.555   4.950
 2213W        W 3210   2.058   3.929   6.764
 2214W        W 3211   5.412   3.072   1.412
 2215W        W 3212   5.973   2.246   6.639
 2216W        W 3213   2.779   5.518   4.449
 2217W        W 3214   5.032   1.734   6.041
 2218W        W 3215   7.162   6.754   3.277
 2219W        W 3216   5.518   4.163   4.743
 2220W        W 3217   1.578   4.560   2.143
 2221W        W 3218   5.054   3.061   4.034
 2222W        W 3219   2.639   0.346   3.380
 2223W        W 3220   1.397   2.642   3.887
 2224W        W 3221   2.308   3.470   3.277
 2225W        W 3222   2.275   3.712   5.290
 2226W        W 3223   6.066   4.293   6.523
 2227W        W 3224   6.729   3.379   5.036
 2228W        W 3225   1.782   2.975   2.141
 2229W        W 3226   6.567   5.935   7.287
 2230W        W 3227   1.085   7.642   4.964
 2231W        W 3228   6.959   4.567   3.123
 2232W        W 3229   7.008   7.429   6.330
 2233W        W 3230   4.451   3.707   5.754
 2234W        W 3231   2.377   2.265   1.020
 2235W        W 3232   6.790   2.882   1.416
 2236W        W 3233   5.615   6.216   1.088
 2237W        W 3234   3.172   7.280   6.369
 2238W        W 3235   3.198   5.864   1.864
 2239W        W 3236   6.785   5.935   4.182
 2240W        W 3237   1.861   0.233   4.958
 2241W        W 3238   1.913   0.763   3.958
 2242W        W 3239   2.920   6.252   1.505
 2243W        W 3240   2.034   4.001   4.926
 2244W        W 3241   5.176   5.632   7.042
 2245W        W 3242   6.861   4.509   6.676
 2246W        W 3243   4.330   1.372   5.040
 2247W        W 3244   3.429   5.319   3.103
 2248W        W 3245   2.105   2.735   0.963
 2249W        W 3246   6.032   0.889   0.215
 2250W        W 3247   1.021   6.694   5.125
 2251W        W 3248   5.309   5.616   5.268
 2252W        W 3249   3.920   5.011   1.274
 2253W        W 3250   5.166   6.558   0.930
 2254W        W 3251   5.468   1.370   3.619
 2255W        W 3252   0.940   5.129   4.802
 2256W        W 3253   3.411   1.970   4.435
 2257W        W 3254   1.512   5.326   6.159
 2258W        W 3255   1.305   1.422   4.139
 2259W        W 3256   3.705   7.820   2.932
 2260W        W 3257   6.387   5.622   6.935
 2261W        W 3258   3.812   1.121   5.966
 2262W        W 3259   7.486   5.730   4.652
 2263W        W 3260   0.803   2.124   4.766
 2264W        W 3261   3.161   5.658   1.389
 2265W        W 3262   5.222   2.212   4.055
 2266W        W 3263   6.988   2.073   1.148
 2267W        W 3264   2.510   5.288   1.851
 2268W        W 3265   4.847   2.450   3.732
 2269W        W 3266   3.922   0.894   2.069
 2270W        W 3267   2.226   5.704   1.690
 2271W        W 3268   2.249   0.751   1.744
 2272W        W 3269   5.790   4.981   3.221
 2273W        W 3270   1.451   5.240   4.897
 2274W        W 3271   2.501   0.979   2.719
 2275W        W 3272   6.516   2.616   7.100
 2276W        W 3273   7.407   1.589   6.455
 2277W        W 3274   3.360   4.291   3.360
 2278W        W 3275   4.814   6.217   5.842
 2279W        W 3276   2.236   6.904   2.951
 2280W        W 3277   0.828   1.164   1.906
 2281W        W 3278   6.467   1.095   5.675
 2282W        W 3279   5.250   4.634   5.206
 2283W        W 3280   4.426   3.828   4.013
 2284W        W 3281   0.850   7.313   2.930
 2285W        W 3282   1.468   3.656   3.055
 2286W        W 3283   6.047   5.924   2.164
 2287W        W 3284   5.971   1.709   3.645
 2288W        W 3285   6.556   7.595   0.310
 2289W        W 3286   4.872   2.618   4.206
 2290W        W 3287   4.842   1.950   3.618
 2291W        W 3288   4.924   0.278   4.007
 2292W        W 3289   3.544   3.439   2.763
 2293W        W 3290   3.820   0.235   5.571
 2294W        W 3291   1.635   4.977   0.800
 2295W        W 3292   4.332   7.328   3.735
 2296W        W 3293   0.488   6.198   4.950
 2297W        W 3294   7.793   5.849   2.779
 2298W        W 3295   5.988   1.028   4.687
 2299W        W 3296   6.198   3.778   6.140
 2300W        W 3297   1.583   2.257   4.135
 2301W        W 3298   0.999   1.736   2.546
 2302W        W 3299   4.340   3.082   7.103
 2303W        W 3300   1.758   1.456   4.378
 2304W        W 3301   2.681   7.231   6.514
 2305W        W 3302   2.525   4.212   1.726
 2306W        W 3303   7.796   3.283   6.237
 2307W        W 3304   6.468   1.422   5.252
 2308W        W 3305   6.300   5.189   3.260
 2309W        W 3306   0.512   3.482   3.982
 2310W        W 3307   7.480   6.182   2.498
 2311W        W 3308   5.822   2.850   1.742
 2312W        W 3309   2.887   3.830   1.344
 2313W        W 3310   1.702   7.273   7.094
 2314W        W 3311   3.537   5.732   6.647
 2315W        W 3312   3.469   3.744   6.453
 2316W        W 3313   2.643   5.549   3.574
 2317W        W 3314   7.142   6.713   2.734
 2318W        W 3315   1.795   1.950   0.398
 2319W        W 3316   4.665   0.383   2.567
 2320W        W 3317   0.896   5.952   4.757
 2321W        W 3318   7.404   2.288   1.892
 2322W        W 3319   1.428   4.395   7.183
 2323W        W 3320   1.873   2.245   6.164
 2324W        W 3321   0.366   3.331   2.110
 2325W        W 3322   6.078   5.548   4.787
 2326W        W 3323   3.055   1.794   2.866
 2327W        W 3324   6.112   6.048   0.112
 2328W        W 3325   3.092   0.581   5.825
 2329W        W 3326   4.279   2.505   2.040
 2330W        W 3327   7.846   3.210   2.013
 2331W        W 3328   6.274   3.315   4.414
 2332W        W 3329   3.945   1.053   3.613
 2333W        W 3330   6.159   6.280   1.356
 2334W        W 3331   5.137   2.536   5.062
 2335W        W 3332   2.868   5.506   2.131
 2336W        W 3333   2.716   5.231   7.318
 2337W        W 3334   1.982   4.845   3.157
 2338W        W 3335   0.101   5.728   2.378
 2339W        W 3336   5.581   5.929   6.985
 2340W        W 3337   1.705   4.299   6.644
 2341W        W 3338   3.428   6.538   0.587
 2342W        W 3339   1.261   3.155   4.297
 2343W        W 3340   2.886   1.589   3.283
 2344W        W 3341   3.981   1.940   0.714
 2345W        W 3342   3.007   5.430   5.415
 2346W        W 3343   0.472   2.711   4.269
 2347W        W 3344   1.118   0.691   2.468
 2348W        W 3345   1.753   6.948   6.690
 2349W        W 3346   2.340   2.298   0.435
 2350W        W 3347   0.159   2.941   6.924
 2351W        W 3348   2.189   1.877   0.749
 2352W        W 3349   1.834   1.207   6.976
 2353W        W 3350   5.897   2.528   5.284
 2354W        W 3351   7.012   2.786   7.068
 2355W        W 3352   2.882   2.696   7.923
 2356W        W 3353   0.662   2.127   2.530
 2357W        W 3354   6.472   0.346   3.158
 2358W        W 3355   6.972   4.475   1.888
 2359W        W 3356   7.494   5.914   3.192
 2360W        W 3357   2.457   4.702   1.848
 2361W        W 3358   2.273   5.573   3.218
 2362W        W 3359   4.836   2.965   5.723
 2363W        W 3360   5.240   0.604   1.470
 2364W        W 3361   0.771   0.899   1.260
 2365W        W 3362   6.136   1.606   4.433
 2366W        W 3363   6.030   2.791   7.551
 2367W        W 3364   1.086   2.171   3.977
 2368W        W 3365   1.915   3.706   7.757
 2369W        W 3366   5.304   7.961   1.395
 2370W        W 3367   0.790   0.941   6.238
 2371W        W 3368   6.292   1.350   1.017
 2372W        W 3369   0.888   5.671   4.334
 2373W        W 3370   4.684   0.440   1.037
 2374W        W 3371   5.985   6.146   6.758
 2375W        W 3372   4.975   4.535   4.052
 2376W        W 3373   3.992   0.603   1.435
 2377W        W 3374   6.717   0.973   2.600
 2378W        W 3375   2.140   6.330   5.155
 2379W        W 3376   5.717   3.038   5.912
 2380W        W 3377   1.296   6.454   5.506
 2381W        W 3378   5.944   0.389   0.310
 2382W        W 3379   5.469   0.855   3.790
 2383W        W 3380   1.675   7.901   1.679
 2384W        W 3381   0.618   6.332   7.190
 2385W        W 3382   2.535   1.379   5.117
 2386W        W 3383   2.603   6.362   5.351
 2387W        W 3384   1.620   6.155   3.063
 2388W        W 3385   0.199   2.836   1.956
 2389W        W 3386   5.579   4.237   5.297
 2390W        W 3387   1.985   3.704   1.216
 2391W        W 3388   6.111   3.587   2.382
 2392W        W 3389   0.384   4.005   5.266
 2393W        W 3390   7.019   3.573   6.275
 2394W        W 3391   0.480   6.129   6.207
 2395W        W 3392   3.529   0.708   0.891
 2396W        W 3393   4.734   4.933   1.218
 2397W        W 3394   2.084   1.921   5.830
 2398W        W 3395   6.671   7.020   6.265
 2399W        W 3396   0.944   1.139   4.946
 2400W        W 3397   3.635   5.668   1.522
 2401W        W 3398   5.907   3.983   2.622
 2402W        W 3399   4.553   6.855   5.203
 2403W        W 3400   1.650   2.284   7.059
 2404W        W 3401   6.275   0.173   0.640
 2405W        W 3402   2.887   4.976   3.258
 2406W        W 3403   3.534   3.372   1.798
 2407W        W 3404   1.008   2.271   6.333
 2408W        W 3405   6.488   7.818   7.829
 2409W        W 3406   1.251   2.142   1.147
 2410W        W 3407   0.441   2.614   6.646
 2411W        W 3408   1.869   0.114   2.816
 2412W        W 3409   5.597   3.318   6.834
 2413W        W 3410   2.047   1.826   3.014
 2414W        W 3411   1.915   7.602   7.433
 2415W        W 3412   2.811   7.508   2.240
 2416W        W 3413   7.974   3.695   2.174
 2417W        W 3414   0.229   4.515   1.142
 2418W        W 3415   5.489   1.927   7.720
 2419W        W 3416   5.348   6.851   2.228
 2420W        W 3417   3.567   7.788   1.305
 2421W        W 3418   7.553   5.398   5.776
 2422W        W 3419   3.074   3.240   5.244
 2423W        W 3420   0.252   6.719   4.051
 2424W        W 3421   6.413   5.539   0.146
 2425W        W 3422   7.052   1.191   6.420
 2426W        W 3423   6.593   0.182   5.363
 2427W        W 3424   0.529   5.385   1.546
 2428W        W 3425   3.036   1.152   3.510
 2429W        W 3426   1.324   1.367   2.597
 2430W        W 3427   4.385   5.723   3.875
 2431W        W 3428   3.486   3.014   6.928
 2432W        W 3429   5.002   0.890   5.529
 2433W        W 3430   4.680   6.646   0.720
 2434W        W 3431   1.965   6.261   0.456
 2435W        W 3432   3.654   2.461   6.623
 2436W        W 3433   1.218   7.216   5.866
 2437W        W 3434   1.546   1.003   7.396
 2438W        W 3435   3.770   4.779   5.497
 2439W        W 3436   6.296   2.102   1.091
 2440W        W 3437   6.516   6.777   4.242
 2441W        W 3438   6.979   2.342   3.796
 2442W        W 3439   5.828   1.941   7.338
 2443W        W 3440   3.506   4.992   0.340
 2444W        W 3441   5.063   0.634   2.787
 2445W        W 3442   1.651   6.246   1.213
 2446W        W 3443   5.786   5.510   0.693
 2447W        W 3444   2.895   7.520   2.758
 2448W        W 3445   3.004   3.344   1.564
 2449W        W 3446   5.661   5.151   0.287
 2450W        W 3447   0.279   0.741   1.300
 2451W        W 3448   0.367   2.219   6.978
 2452W        W 3449   5.237   1.318   5.737
 2453W        W 3450   4.901   1.156   0.538
 2454W        W 3451   6.092   4.758   0.368
 2455W        W 3452   0.768   3.381   6.223
 2456W        W 3453   0.993   1.685   3.836
 2457W        W 3454   5.094   5.247   1.090
 2458W        W 3455   5.405   7.231   4.730
 2459W        W 3456   1.076   5.052   1.992
 2460W        W 3457   6.170   0.466   7.406
 2461W        W 3458   3.710   0.714   2.913
 2462W        W 3459   2.232   5.688   7.904
 2463W        W 3460   1.369   0.070   2.654
 2464W        W 3461   2.469   3.499   7.911
 2465W        W 3462   2.569   0.698   6.897
 2466W        W 3463   6.537   4.608   7.767
 2467W        W 3464   2.162   4.178   5.416
 2468W        W 3465   4.854   5.256   1.633
 2469W        W 3466   2.433   7.654   2.596
 2470W        W 3467   2.529   0.027   6.294
 2471W        W 3468   2.138   6.625   6.791
 2472W        W 3469   5.536   7.600   3.600
 2473W        W 3470   6.754   5.823   0.589
 2474W        W 3471   4.079   5.558   5.851
 2475W        W 3472   6.740   3.546   4.034
 2476W        W 3473   4.305   2.653   1.172
 2477W        W 3474   3.464   6.962   6.710
 2478W        W 3475   2.043   0.028   6.564
 2479W        W 3476   4.580   4.533   0.953
 2480W        W 3477   6.244   0.990   6.697
 2481W        W 3478   3.985   1.577   3.698
 2482W        W 3479   6.974   3.502   1.950
 2483W        W 3480   3.490   1.189   2.175
 2484W        W 3481   2.005   5.191   6.216
 2485W        W 3482   1.929   3.485   4.986
 2486W        W 3483   5.250   7.658   4.474
 2487W        W 3484   4.789   6.861   2.205
 2488W        W 3485   5.975   1.775   5.911
 2489W        W 3486   5.639   2.353   3.846
 2490W        W 3487   5.583   4.290   6.659
 2491W        W 3488   1.648   2.748   0.713
 2492W        W 3489   3.373   2.151   3.025
 2493W        W 3490   0.909   4.683   5.786
 2494W        W 3491   5.399   7.170   3.370
 2495W        W 3492   5.717   6.671   5.443
 2496W        W 3493   5.963   5.858   1.040
 2497W        W 3494   4.062   3.952   2.063
 2498W        W 3495   3.967   2.298   1.072
 2499W        W 3496   0.837   1.625   4.834
 2500W        W 3497   5.320   7.915   5.337
 2501W        W 3498   4.278   7.267   1.394
 2502W        W 3499   7.329   1.059   1.791
 2503W        W 3500   2.744   1.058   0.576
 2504W        W 3501   0.707   6.556   0.617
 2505W        W 3502   6.803   1.027   5.298
 2506W        W 3503   5.499   2.990   2.906
 2507W        W 3504   5.313   3.976   3.875
 2508W        W 3505   0.310   4.903   6.817
 2509W        W 3506   5.660   1.764   5.188
 2510W        W 3507   1.543   7.316   4.165
 2511W        W 3508   2.725   1.867   0.997
 2512W        W 3509   6.140   5.247   0.458
 2513W        W 3510   2.005   6.174   1.632
 2514W        W 3511   4.194   2.503   8.000
 2515W        W 3512   3.789   3.483   3.329
 2516W        W 3513   2.775   5.602   5.819
 2517W        W 3514   1.848   4.212   1.293
 2518W        W 3515   6.086   4.564   3.297
 2519W        W 3516   2.753   3.632   5.166
 2520W        W 3517   0.392   5.528   5.553
 2521W        W 3518   6.004   2.947   3.087
 2522W        W 3519   2.789   2.273   0.687
 2523W        W 3520   7.931   7.521   2.845
 2524W        W 3521   1.787   7.101   7.606
 2525W        W 3522   2.671   2.708   0.409
 2526W        W 3523   2.493   7.357   3.902
 2527W        W 3524   0.884   1.443   3.406
 2528W        W 3525   5.332   6.033   2.970
 2529W        W 3526   3.307   6.163   6.753
 2530W        W 3527   5.097   7.577   3.296
 2531W        W 3528   2.534   4.695   2.342
 2532W        W 3529   6.358   5.325   6.281
 2533W        W 3530   3.989   7.620   5.370
 2534W        W 3531   1.250   0.942   2.878
 2535W        W 3532   3.389   1.215   1.206
 2536W        W 3533   2.031   2.019   1.757
 2537W        W 3534   7.470   5.876   5.325
 2538W        W 3535   3.410   1.526   1.791
 2539W        W 3536   6.523   6.627   1.571
 2540W        W 3537   5.138   4.285   5.610
 2541W        W 3538   2.619   5.883   3.013
 2542W        W 3539   5.289   4.251   4.297
 2543W        W 3540   3.954   6.331   6.123
 2544W        W 3541   4.997   5.662   1.348
 2545W        W 3542   4.796   5.143   2.645
 2546W        W 3543   4.005   4.598   2.662
 2547W        W 3544   1.161   2.267   4.457
 2548W        W 3545   1.181   3.954   7.357
 2549W        W 3546   2.850   4.989   2.070
 2550W        W 3547   5.222   3.194   3.564
 2551W        W 3548   4.280   1.282   5.952
 2552W        W 3549   2.458   7.989   6.844
 2553W        W 3550   5.830   0.606   7.833
 2554W        W 3551   7.461   4.657   6.407
 2555W        W 3552   3.781   5.044   7.813
 2556W        W 3553   2.776   5.987   2.156
 2557W        W 3554   1.176   2.024   1.657
 2558W        W 3555   3.429   3.814   3.457
 2559W        W 3556   4.070   2.880   4.044
 2560W        W 3557   7.636   6.175   4.872
 2561W        W 3558   6.102   1.712   5.417
 2562W        W 3559   7.182   5.444   3.346
 2563W        W 3560   1.857   2.743   4.638
 2564W        W 3561   6.659   1.929   6.731
 2565W        W 3562   3.699   5.643   2.818
 2566W        W 3563   5.099   1.164   7.640
 2567W        W 3564   7.357   3.148   2.397
 2568W        W 3565   3.143   4.044   5.520
 2569W        W 3566   6.549   2.716   2.254
 2570W        W 3567   2.939   5.968   1.061
 2571W        W 3568   5.488   1.863   3.752
 2572W        W 3569   6.552   1.205   7.660
 2573W        W 3570   2.992   3.030   2.263
 2574W        W 3571   1.113   7.032   4.041
 2575W        W 3572   2.967   3.002   0.749
 2576W        W 3573   6.727   6.496   6.994
 2577W        W 3574   2.902   6.715   5.166
 2578W        W 3575   0.852   6.865   7.179
 2579W        W 3576   5.125   6.087   1.132
 2580W        W 3577   6.953   4.005   5.300
 2581W        W 3578   6.511   4.130   7.035
 2582W        W 3579   0.522   4.842   4.841
 2583W        W 3580   6.242   5.754   0.581
 2584W        W 3581   4.437   6.390   1.089
 2585W        W 3582   5.062   0.126   4.475
 2586W        W 3583   7.454   1.834   1.147
 2587W        W 3584   0.935   5.912   6.288
 2588W        W 3585   3.665   5.500   7.072
 2589W        W 3586   3.973   1.523   0.433
 2590W        W 3587   5.842   6.510   0.193
 2591W        W 3588   2.471   2.017   1.468
 2592W        W 3589   0.970   4.949   6.281
 2593W        W 3590   3.208   4.647   3.044
 2594W        W 3591   1.454   5.018   4.041
 2595W        W 3592   4.369   5.100   4.676
 2596W        W 3593   1.432   2.210   2.063
 2597W        W 3594   4.977   2.551   6.027
 2598W        W 3595   2.804   6.735   1.289
 2599W        W 3596   3.565   2.445   4.515
 2600W        W 3597   1.465   5.633   3.154
 2601W        W 3598   2.350   6.892   6.339
 2602W        W 3599   3.309   6.219   3.972
 2603W        W 3600   5.165   1.985   5.222
 2604W        W 3601   7.127   4.246   6.279
 2605W        W 3602   2.748   1.301   4.165
 2606W        W 3603   5.729   1.706   0.407
 2607W        W 3604   5.469   3.556   7.274
 2608W        W 3605   4.744   4.525   2.123
 2609W        W 3606   5.716   1.137   2.418
 2610W        W 3607   0.564   5.292   7.433
 2611W        W 3608   6.572   6.844   5.262
 2612W        W 3609   2.066   2.147   0.008
 2613W        W 3610   4.497   4.469   2.759
 2614W        W 3611   3.632   6.519   6.922
 2615W        W 3612   7.421   2.821   4.946
 2616W        W 3613   2.245   7.124   6.786
 2617W        W 3614   2.334   1.583   6.105
 2618W        W 3615   3.423   2.336   7.556
 2619W        W 3616   2.828   5.709   2.582
 2620W        W 3617   6.183   6.369   2.395
 2621W        W 3618   4.628   0.627   3.632
 2622W        W 3619   3.340   6.571   2.740
 2623W        W 3620   2.359   4.047   1.277
 2624W        W 3621   0.882   4.461   2.842
 2625W        W 3622   1.287   3.204   7.190
 2626W        W 3623   0.678   2.238   4.282
 2627W        W 3624   6.343   2.845   1.799
 2628W        W 3625   4.798   0.975   6.413
 2629W        W 3626   4.644   2.707   4.885
 2630W        W 3627   3.178   7.362   5.849
 2631W        W 3628   5.816   5.717   3.915
 2632W        W 3629   3.349   6.861   7.240
 2633W        W 3630   3.718   6.932   4.317
 2634W        W 3631   2.799   2.232   0.171
 2635W        W 3632   4.556   2.962   3.979
 2636W        W 3633   0.686   4.839   7.191
 2637W        W 3634   1.189   5.874   2.780
 2638W        W 3635   7.462   4.599   3.155
 2639W        W 3636   3.692   4.386   2.992
 2640W        W 3637   3.530   2.520   1.167
 2641W        W 3638   5.987   2.389   1.927
 2642W        W 3639   6.877   4.949   7.466
 2643W        W 3640   5.449   0.025   2.812
 2644W        W 3641   4.241   3.342   0.463
 2645W        W 3642   0.901   7.911   2.835
 2646W        W 3643   3.090   4.292   5.963
 2647W        W 3644   0.913   4.589   1.326
 2648W        W 3645   5.119   4.998   3.884
 2649W        W 3646   0.647   3.905   6.201
 2650W        W 3647   4.880   1.534   1.681
 2651W        W 3648   3.188   7.114   2.951
 2652W        W 3649   5.746   5.216   2.254
 2653W        W 3650   1.158   4.919   0.983
 2654W        W 3651   7.180   5.312   3.839
 2655W        W 3652   5.125   5.402   5.716
 2656W        W 3653   4.376   1.657   0.053
 2657W        W 3654   0.907   1.159   2.422
 2658W        W 3655   3.473   1.718   3.967
 2659W        W 3656   6.996   1.496   2.336
 2660W        W 3657   0.600   3.188   5.279
 2661W        W 3658   2.357   5.706   4.648
 2662W        W 3659   4.638   1.373   7.671
 2663W        W 3660   1.012   6.771   3.617
 2664W        W 3661   4.732   7.741   4.658
 2665W        W 3662   1.374   2.712   4.491
 2666W        W 3663   5.393   3.201   4.384
 2667W        W 3664   3.759   6.969   5.197
 2668W        W 3665   3.016   6.390   2.017
 2669W        W 3666   1.191   2.221   2.548
 2670W        W 3667   4.802   3.854   3.140
 2671W        W 3668   1.067   5.540   5.065
 2672W        W 3669   4.577   6.649   4.230
 2673W        W 3670   2.419   0.918   2.211
 2674W        W 3671   3.746   4.165   2.513
 2675W        W 3672   4.237   3.353   5.271
 2676W        W 3673   6.458   6.460   2.812
 2677W        W 3674   6.516   7.536   3.570
 2678W        W 3675   0.193   6.340   6.589
 2679W        W 3676   7.323   3.280   7.063
 2680W        W 3677   5.444   6.062   3.877
 2681W        W 3678   1.593   5.807   5.732
 2682W        W 3679   4.851   5.282   7.214
 2683W        W 3680   4.719   5.729   5.848
 2684W        W 3681   2.207   0.941   3.209
 2685W        W 3682   6.509   2.051   7.325
 2686W        W 3683   0.539   7.004   2.338
 2687W        W 3684   6.317   4.185   3.506
 2688W        W 3685   6.585   2.513   6.021
 2689W        W 3686   0.433   1.965   2.061
 2690W        W 3687   1.963   2.516   1.940
 2691W        W 3688   7.614   5.136   6.630
 2692W        W 3689   6.820   3.241   7.172
 2693W        W 3690   6.787   3.881   4.832
 2694W        W 3691   5.913   7.079   3.432
 2695W        W 3692   3.251   4.623   1.596
 2696W        W 3693   1.655   4.756   6.923
 2697W        W 3694   1.086   3.756   6.440
 2698W        W 3695   6.858   2.965   1.920
 2699W        W 3696   2.639   0.808   1.402
 2700W        W 3697   2.182   1.096   4.914
 2701W        W 3698   4.159   4.733   6.532
 2702W        W 3699   6.070   4.255   6.022
 2703W        W 3700   6.510   1.084   0.167
 2704W        W 3701   6.926   0.990   2.119
 2705W        W 3702   5.820   3.439   4.253
 2706W        W 3703   1.304   0.835   4.734
 2707W        W 3704   4.420   7.504   1.828
 2708W        W 3705   3.488   6.632   7.684
 2709W        W 3706   0.465   5.168   3.862
 2710W        W 3707   2.058   4.382   1.874
 2711W        W 3708   6.895   5.731   6.963
 2712W        W 3709   2.201   6.174   7.739
 2713W        W 3710   6.141   4.777   6.202
 2714W        W 3711   2.380   6.013   0.294
 2715W        W 3712   3.004   5.769   6.640
 2716W        W 3713   3.997   3.626   6.268
 2717W        W 3714   7.917   5.730   5.575
 2718W        W 3715   2.697   7.105   3.035
 2719W        W 3716   3.095   1.034   1.578
 2720W        W 3717   1.875   1.730   6.277
 2721W        W 3718   5.934   2.994   5.477
 2722W        W 3719   4.570   1.755   2.655
 2723W        W 3720   6.953   6.960   1.562
 2724W        W 3721   5.008   4.235   1.765
 2725W        W 3722   2.799   7.388   3.457
 2726W        W 3723   6.520   5.509   2.750
 2727W        W 3724   4.376   7.677   2.336
 2728W        W 3725   1.041   3.010   2.775
 2729W        W 3726   2.986   0.350   2.130
 2730W        W 3727   3.090   5.761   0.442
 2731W        W 3728   6.524   4.472   0.260
 2732W        W 3729   3.233   1.806   5.460
 2733W        W 3730   1.669   7.286   0.082
 2734W        W 3731   1.207   7.655   3.170
 2735W        W 3732   1.068   6.524   0.974
 2736W        W 3733   4.113   2.018   7.748
 2737W        W 3734   0.777   6.411   5.883
 2738W        W 3735   3.099   5.546   6.190
 2739W        W 3736   2.164   2.042   5.345
 2740W        W 3737   2.757   0.511   6.213
 2741W        W 3738   3.214   2.441   1.566
 2742W        W 3739   1.210   2.621   0.992
 2743W        W 3740   0.363   5.793   1.909
 2744W        W 3741   4.758   2.211   5.008
 2745W        W 3742   3.465   0.577   5.464
 2746W        W 3743   0.520   2.460   2.118
 2747W        W 3744   6.869   2.672   6.435
 2748W        W 3745   5.231   7.101   6.136
 2749W        W 3746   6.910   7.261   5.461
 2750W        W 3747   5.175   6.262   3.479
 2751W        W 3748   3.262   7.018   1.237
 2752W        W 3749   4.445   4.103   4.431
 2753W        W 3750   5.303   6.900   5.655
 2754W        W 3751   1.289   6.761   6.564
 2755W        W 3752   0.755   4.289   0.014
 2756W        W 3753   1.604   5.967   2.451
 2757W        W 3754   4.619   6.939   5.729
 2758W        W 3755   7.959   4.172   1.411
 2759W        W 3756   5.482   4.241   1.973
 2760W        W 3757   4.037   4.741   7.055
 2761W        W 3758   2.368   3.395   6.758
 2762W        W 3759   7.322   6.239   3.956
 2763W        W 3760   1.621   2.268   1.595
 2764W        W 3761   1.575   3.748   6.618
 2765W        W 3762   4.036   3.993   5.894
 2766W        W 3763   3.844   1.011   1.183
 2767W        W 3764   1.308   4.831   4.580
 2768W        W 3765   5.571   1.576   2.689
 2769W        W 3766   5.542   5.597   4.796
 2770W        W 3767   4.335   6.082   6.547
 2771W        W 3768   4.358   3.535   3.080
 2772W        W 3769   2.150   5.443   3.695
 2773W        W 3770   1.521   3.247   5.309
 2774W        W 3771   7.247   1.556   7.307
 2775W        W 3772   3.291   0.787   6.314
 2776W        W 3773   5.153   1.317   0.992
 2777W        W 3774   6.363   2.833   5.265
 2778W        W 3775   4.569   0.231   5.173
 2779W        W 3776   2.450   1.447   0.749
 2780W        W 3777   4.974   0.165   2.958
 2781W        W 3778   0.890   5.458   5.545
 2782W        W 3779   4.115   6.422   4.287
 2783W        W 3780   3.497   6.380   5.919
 2784W        W 3781   5.136   0.802   1.917
 2785W        W 3782   5.278   3.241   6.073
 2786W        W 3783   0.189   5.786   5.117
 2787W        W 3784   2.664   6.933   4.759
 2788W        W 3785   2.838   4.348   1.359
 2789W        W 3786   6.031   1.265   3.376
 2790W        W 3787   4.892   4.336   7.001
 2791W        W 3788   5.027   3.850   7.223
 2792W        W 3789   3.639   7.889   0.802
 2793W        W 3790   5.540   0.718   0.241
 2794W        W 3791   7.116   7.052   1.057
 2795W        W 3792   6.447   0.644   7.001
 2796W        W 3793   1.097   0.865   7.662
 2797W        W 3794   2.090   5.622   4.232
 2798W        W 3795   6.110   0.540   6.437
 2799W        W 3796   6.623   5.977   2.952
 2800W        W 3797   5.196   1.074   0.136
 2801W        W 3798   3.572   4.213   1.626
 2802W        W 3799   3.813   3.661   2.399
 2803W        W 3800   5.371   1.518   7.973
 2804W        W 3801   1.729   3.631   0.773
 2805W        W 3802   5.720   0.489   1.091
 2806W        W 3803   5.408   2.699   4.239
 2807W        W 3804   4.706   1.162   4.787
 2808W        W 3805   5.700   1.837   6.836
 2809W        W 3806   2.468   2.850   6.924
 2810W        W 3807   1.872   6.912   0.995
 2811W        W 3808   6.947   4.957   4.485
 2812W        W 3809   5.838   2.275   1.161
 2813W        W 3810   7.441   6.211   1.852
 2814W        W 3811   5.743   0.042   3.695
 2815W        W 3812   5.437   3.434   2.202
 2816W        W 3813   5.356   1.707   4.802
 2817W        W 3814   4.753   4.750   1.681
 2818W        W 3815   4.377   7.363   4.627
 2819W        W 3816   4.129   0.424   4.307
 2820W        W 3817   6.139   4.817   7.214
 2821W        W 3818   1.752   1.034   2.987
 2822W        W 3819   3.013   5.139   5.846
 2823W        W 3820   7.604   7.008   1.211
 2824W        W 3821   1.024   1.140   5.467
 2825W        W 3822   1.297   3.415   3.501
 2826W        W 3823   3.873   4.020   3.295
 2827W        W 3824   6.787   3.131   6.258
 2828W        W 3825   6.879   1.745   4.017
 2829W        W 3826   0.672   1.511   5.318
 2830W        W 3827   1.132   3.446   0.090
 2831W        W 3828   4.878   1.254   3.806
 2832W        W 3829   3.581   2.394   2.606
 2833W        W 3830   1.705   4.641   2.772
 2834W        W 3831   4.544   6.964   1.751
 2835W        W 3832   4.668   3.697   2.684
 2836W        W 3833   0.697   5.975   1.553
 2837W        W 3834   4.789   2.914   3.545
 2838W        W 3835   6.844   6.695   3.702
 2839W        W 3836   4.068   5.755   3.454
 2840W        W 3837   2.766   6.874   3.481
 2841W        W 3838   5.735   0.450   4.014
 2842W        W 3839   7.302   6.402   6.350
 2843W        W 3840   2.437   2.259   2.570
 2844W        W 3841   2.721   7.197   5.206
 2845W        W 3842   0.708   2.924   2.047
 2846W        W 3843   6.998   4.227   7.144
 2847W        W 3844   5.045   1.697   7.627
 2848W        W 3845   5.754   0.531   4.561
 2849W        W 3846   2.018   7.160   4.009
 2850W        W 3847   0.250   4.992   0.920
 2851W        W 3848   2.713   7.482   5.642
 2852W        W 3849   4.227   3.365   4.050
 2853W        W 3850   6.745   3.462   4.533
 2854W        W 3851   6.244   5.139   6.796
 2855W        W 3852   0.125   4.176   2.387
 2856W        W 3853   6.364   1.129   7.187
 2857W        W 3854   2.725   0.449   3.899
 2858W        W 3855   3.198   7.596   3.161
 2859W        W 3856   0.936   2.571   3.654
 2860W        W 3857   3.267   4.495   4.311
 2861W        W 3858   5.332   5.093   7.302
 2862W        W 3859   3.877   2.154   2.993
 2863W        W 3860   5.669   0.321   1.572
 2864W        W 3861   4.602   5.589   3.453
 2865W        W 3862   2.350   7.601   6.500
 2866W        W 3863   6.689   6.174   1.411
 2867W        W 3864   4.121   6.666   0.763
 2868W        W 3865   6.497   5.957   3.450
 2869W        W 3866   4.389   3.058   7.984
 2870W        W 3867   5.894   2.935   4.981
 2871W        W 3868   4.155   1.536   7.602
 2872W        W 3869   5.524   1.674   0.902
 2873W        W 3870   7.853   4.303   6.555
 2874W        W 3871   0.201   2.630   1.491
 2875W        W 3872   1.451   5.859   6.263
 2876W        W 3873   1.163   3.593   1.051
 2877W        W 3874   5.776   2.340   7.666
 2878W        W 3875   7.263   3.175   5.307
 2879W        W 3876   3.729   4.025   5.103
 2880W        W 3877   6.080   1.230   7.837
 2881W        W 3878   6.557   6.444   3.346
 2882W        W 3879   4.357   1.683   6.736
 2883W        W 3880   4.078   1.228   4.624
 2884W        W 3881   6.895   6.442   4.181
 2885W        W 3882   2.171   5.030   1.604
 2886W        W 3883   2.354   3.240   5.111
 2887W        W 3884   5.261   3.296   5.548
 2888W        W 3885   3.412   2.932   4.484
 2889W        W 3886   3.783   4.567   3.474
 2890W        W 3887   1.621   6.522   0.746
 2891W        W 3888   5.324   0.020   3.318
 2892W        W 3889   3.005   3.217   4.423
 2893W        W 3890   2.386   0.538   2.978
 2894W        W 3891   2.356   7.350   6.033
 2895W        W 3892   5.057   2.816   0.144
 2896W        W 3893   0.585   2.685   7.155
 2897W        W 3894   0.446   3.152   1.629
 2898W        W 3895   6.387   3.205   2.157
 2899W        W 3896   4.798   6.160   0.755
 2900W        W 3897   4.177   1.467   4.174
 2901W        W 3898   0.499   0.110   3.088
 2902W        W 3899   2.358   1.960   4.490
 2903W        W 3900   3.259   1.255   4.125
 2904W        W 3901   6.148   7.698   4.309
 2905W        W 3902   6.269   6.313   7.131
 2906W        W 3903   5.332   0.487   5.641
 2907W        W 3904   1.429   5.747   7.194
 2908W        W 3905   4.695   3.809   6.815
 2909W        W 3906   3.413   6.592   5.085
 2910W        W 3907   1.910   2.077   6.638
 2911W        W 3908   5.474   5.905   1.484
 2912W        W 3909   5.487   7.043   5.189
 2913W        W 3910   1.060   4.709   7.993
 2914W        W 3911   4.609   2.318   4.536
 2915W        W 3912   6.679   4.283   2.331
 2916W        W 3913   6.396   0.999   4.988
 2917W        W 3914   0.023   4.519   2.023
 2918W        W 3915   6.089   3.962   3.897
 2919W        W 3916   4.604   4.885   3.928
 2920W        W 3917   5.185   5.886   5.784
 2921W        W 3918   1.771   1.180   7.853
 2922W        W 3919   6.582   7.135   3.883
 2923W        W 3920   2.611   4.123   5.200
 2924W        W 3921   3.304   1.533   4.687
 2925W        W 3922   1.173   4.828   7.048
 2926W        W 3923   7.012   6.565   1.237
 2927W        W 3924   6.374   1.131   3.003
 2928W        W 3925   7.994   4.491   2.773
 2929W        W 3926   7.708   5.562   3.495
 2930W        W 3927   7.725   5.426   2.178
 2931W        W 3928   4.665   1.469   6.317
 2932W        W 3929   1.668   0.068   6.218
 2933W        W 3930   3.374   5.504   5.741
 2934W        W 3931   2.168   2.264   4.846
 2935W        W 3932   4.285   4.905   7.928
 2936W        W 3933   3.421   0.916   3.760
 2937W        W 3934   4.100   1.724   2.859
 2938W        W 3935   1.863   2.773   2.884
 2939W        W 3936   3.565   5.234   6.632
 2940W        W 3937   0.313   3.971   7.375
 2941W        W 3938   3.840   0.952   7.302
 2942W        W 3939   1.525   3.974   0.476
 2943W        W 3940   4.402   6.523   1.571
 2944W        W 3941   5.292   3.792   1.894
 2945W        W 3942   6.796   5.406   4.192
 2946W        W 3943   6.581   1.438   0.562
 2947W        W 3944   3.389   1.653   6.725
 2948W        W 3945   6.790   6.187   4.632
 2949W        W 3946   6.483   5.939   1.831
 2950W        W 3947   0.979   3.732   2.236
 2951W        W 3948   6.895   0.776   0.345
 2952W        W 3949   7.470   6.390   2.981
 2953W        W 3950   6.723   5.699   6.364
 2954W        W 3951   0.511   6.921   2.880
 2955W        W 3952   5.785   5.238   5.305
 2956W        W 3953   0.217   4.963   2.852
 2957W        W 3954   0.674   2.239   5.670
 2958W        W 3955   3.665   1.567   6.166
 2959W        W 3956   4.960   7.106   5.368
 2960W        W 3957   1.913   3.171   0.720
 2961W        W 3958   7.004   7.835   6.648
 2962W        W 3959   0.668   1.828   7.749
 2963W        W 3960   1.789   3.811   4.061
 2964W        W 3961   3.128   6.610   6.867
 2965W        W 3962   2.173   6.167   4.675
 2966W        W 3963   4.004   6.181   1.393
 2967W        W 3964   5.157   1.713   2.368
 2968W        W 3965   7.186   7.361   0.284
 2969W        W 3966   1.894   0.526   3.142
 2970W        W 3967   2.395   6.814   0.951
 2971W        W 3968   6.210   0.588   0.912
 2972W        W 3969   5.950   2.700   3.683
 2973W        W 3970   5.020   2.138   5.726
 2974W        W 3971   3.735   5.453   0.125
 2975W        W 3972   5.903   5.590   6.107
 2976W        W 3973   4.399   3.211   5.758
 2977W        W 3974   0.956   6.821   3.116
 2978W        W 3975   7.369   5.117   6.177
 2979W        W 3976   5.594   3.429   1.702
 2980W        W 3977   6.857   6.001   5.919
 2981W        W 3978   3.248   2.554   5.759
 2982W        W 3979   4.768   2.335   2.072
 2983W        W 3980   6.856   1.279   3.065
 2984W        W 3981   4.168   2.467   4.747
 2985W        W 3982   3.326   3.340   3.547
 2986W        W 3983   0.979   0.113   3.314
 2987W        W 3984   0.344   5.505   2.945
 2988W        W 3985   4.541   1.758   5.911
 2989W        W 3986   6.892   1.101   4.798
 2990W        W 3987   7.526   7.206   6.314
 2991W        W 3988   0.944   6.061   3.768
 2992W        W 3989   6.563   6.172   6.290
 2993W        W 3990   3.596   1.275   0.176
 2994W        W 3991   5.974   0.926   3.775
 2995W        W 3992   6.106   0.759   3.228
 2996W        W 3993   7.140   5.653   5.637
 2997W        W 3994   3.279   0.767   4.317
 2998W        W 3995   1.167   1.559   5.208
 2999W        W 3996   3.453   6.745   5.562
 3000W        W 3997   0.606   3.636   4.942
 3001W        W 3998   6.894   3.938   4.330
 3002W        W 3999   2.998   1.308   1.986
 3003W        W 4000   1.599   7.072   1.427
 3004W        W 4001   5.858   7.028   4.819
 3005W        W 4002   4.613   1.669   1.256
 3006W        W 4003   5.687   5.834   6.491
 3007W        W 4004   5.007   2.163   6.366
 3008W        W 4005   6.066   3.947   6.924
 3009W        W 4006   5.666   7.022   6.418
 3010W        W 4007   6.456   6.614   6.092
 3011W        W 4008   5.999   3.864   0.598
 3012W        W 4009   2.566   2.495   3.145
 3013W        W 4010   4.316   5.039   0.941
 3014W        W 4011   4.496   3.110   1.269
 3015W        W 4012   6.358   6.921   4.750
 3016W        W 4013   4.660   3.579   1.335
 3017W        W 4014   4.468   3.794   3.508
 3018W        W 4015   5.805   4.724   5.214
 3019W        W 4016   3.042   6.925   7.674
 3020W        W 4017   1.993   3.028   6.847
 3021W        W 4018   7.111   2.553   4.625
 3022W        W 4019   3.068   2.744   1.180
 3023W        W 4020   5.575   6.004   1.978
 3024W        W 4021   3.565   3.886   2.012
 3025W        W 4022   5.387   1.039   0.619
 3026W        W 4023   4.167   6.914   5.510
 3027W        W 4024   2.751   5.200   2.538
 3028W        W 4025   4.819   2.525   5.464
 3029W        W 4026   5.833   7.065   0.856
 3030W        W 4027   2.786   3.247   0.322
 3031W        W 4028   1.969   2.520   5.222
 3032W        W 4029   6.606   7.601   4.092
 3033W        W 4030   1.658   4.117   7.545
 3034W        W 4031   6.814   2.622   4.200
 3035W        W 4032   0.652   5.218   4.361
 3036W        W 4033   0.765   4.647   3.512
 3037W        W 4034   7.187   2.006   6.667
 3038W        W 4035   5.390   5.314   3.513
 3039W        W 4036   3.749   1.524   1.429
 3040W        W 4037   3.088   1.777   0.220
 3041W        W 4038   6.241   4.309   4.233
 3042W        W 4039   4.643   4.615   6.643
 3043W        W 4040   5.957   3.602   6.556
 3044W        W 4041   6.885   2.394   7.379
 3045W        W 4042   5.085   2.795   2.266
 3046W        W 4043   1.384   2.830   7.517
 3047W        W 4044   2.587   0.704   0.906
 3048W        W 4045   5.634   5.515   7.300
 3049W        W 4046   1.207   2.437   7.249
 3050W        W 4047   5.611   2.920   3.406
 3051W        W 4048   4.683   7.319   5.023
 3052W        W 4049   3.905   7.398   2.606
 3053W        W 4050   1.823   6.140   6.011
 3054W        W 4051   3.423   4.436   5.355
 3055W        W 4052   5.893   7.162   1.898
 3056W        W 4053   4.655   3.101   7.546
 3057W        W 4054   6.053   3.594   2.899
 3058W        W 4055   4.399   2.756   4.415
 3059W        W 4056   3.524   7.145   7.661
 3060W        W 4057   3.053   4.139   6.480
 3061W        W 4058   6.569   2.202   4.066
 3062W        W 4059   4.122   3.703   4.926
 3063W        W 4060   6.607   5.334   0.605
 3064W        W 4061   6.288   4.542   5.262
 3065W        W 4062   0.630   0.791   3.673
 3066W        W 4063   2.427   4.277   6.861
 3067W        W 4064   6.096   2.552   7.999
 3068W        W 4065   4.984   6.675   5.997
 3069W        W 4066   2.242   3.399   7.417
 3070W        W 4067   2.614   6.200   7.463
 3071W        W 4068   2.643   3.204   5.524
 3072W        W 4069   6.252   2.255   0.609
 3073W        W 4070   1.910   6.836   3.631
 3074W        W 4071   3.840   3.235   4.846
 3075W        W 4072   6.461   0.489   1.794
 3076W        W 4073   6.761   0.287   6.819
 3077W        W 4074   3.907   1.928   4.068
 3078W        W 4075   4.582   6.450   6.248
 3079W        W 4076   2.061   4.004   2.623
 3080W        W 4077   2.816   7.995   2.470
 3081W        W 4078   0.433   4.348   7.018
 3082W        W 4079   5.284   3.742   5.939
 3083W        W 4080   0.816   2.609   0.172
 3084W        W 4081   3.386   2.955   1.504
 3085W        W 4082   2.041   4.642   3.975
 3086W        W 4083   0.718   6.518   2.199
 3087W        W 4084   2.299   2.752   4.898
 3088W        W 4085   0.416   2.908   2.452
 3089W        W 4086   2.282   2.593   3.567
 3090W        W 4087   4.742   3.337   6.621
 3091W        W 4088   7.861   6.171   2.158
 3092W        W 4089   0.488   4.109   2.811
 3093W        W 4090   7.963   4.708   3.243
 3094W        W 4091   2.602   0.846   3.561
 3095W        W 4092   1.020   5.093   7.563
 3096W        W 4093   7.088   3.494   7.534
 3097W        W 4094   4.249   6.783   2.581
 3098W        W 4095   6.152   2.523   1.471
 3099W        W 4096   7.333   2.544   4.120
 3100W        W 4097   0.401   6.385   4.433
 3101W        W 4098   2.836   6.818   2.203
 3102W        W 4099   4.402   2.968   6.502
 3103W        W 4100   7.180   1.924   1.598
 3104W        W 4101   6.108   4.937   0.849
 3105W        W 4102   0.955   6.832   5.605
 3106W        W 4103   6.845   3.189   2.392
 3107W        W 4104   1.469   6.362   6.303
 3108W        W 4105   3.547   3.638   3.910
 3109W        W 4106   4.139   5.417   7.789
 3110W        W 4107   3.875   2.187   2.018
 3111W        W 4108   2.870   0.973   5.528
 3112W        W 4109   1.730   4.771   6.405
 3113W        W 4110   2.115   1.648   5.047
 3114W        W 4111   4.734   1.292   2.542
 3115W        W 4112   7.484   6.760   6.041
 3116W        W 4113   7.009   6.048   6.570
 3117W        W 4114   5.363   1.736   7.209
 3118W        W 4115   5.935   3.881   4.596
 3119W        W 4116   0.131   7.070   1.220
 3120W        W 4117   4.895   7.299   1.905
 3121W        W 4118   3.243   5.778   4.803
 3122W        W 4119   5.243   2.100   6.854
 3123W        W 4120   5.334   5.269   0.664
 3124W        W 4121   6.214   6.800   7.042
 3125W        W 4122   6.289   6.977   2.702
 3126W        W 4123   7.327   0.439   0.857
 3127W        W 4124   0.774   2.177   7.335
 3128W        W 4125   0.372   3.860   1.382
 3129W        W 4126   6.570   1.391   4.234
 3130W        W 4127   6.841   3.643   2.794
 3131W        W 4128   7.093   3.835   2.384
 3132W        W 4129   3.574   7.336   5.519
 3133W        W 4130   4.647   1.039   7.264
 3134W        W 4131   1.350   1.964   5.437
 3135W        W 4132   6.254   0.518   3.661
 3136W        W 4133   3.252   7.120   3.447
 3137W        W 4134   2.668   3.001   6.025
 3138W        W 4135   1.897   3.696   4.540
 3139W        W 4136   7.203   1.512   5.966
 3140W        W 4137   0.486   3.365   5.788
 3141W        W 4138   1.458   2.028   6.358
 3142W        W 4139   1.138   6.374   2.898
 3143W        W 4140   3.075   5.969   7.545
 3144W        W 4141   7.358   0.043   2.918
 3145W        W 4142   0.753   4.138   6.642
 3146W        W 4143   2.236   4.525   1.413
 3147W        W 4144   5.240   6.419   4.723
 3148W        W 4145   0.952   2.014   2.120
 3149W        W 4146   6.113   0.588   1.423
 3150W        W 4147   2.365   0.163   2.645
 3151W        W 4148   6.732   1.347   6.060
 3152W        W 4149   2.145   6.597   1.878
 3153W        W 4150   0.900   6.724   2.615
 3154W        W 4151   3.575   7.368   0.963
 3155W        W 4152   6.071   4.666   4.637
 3156W        W 4153   3.120   5.167   1.258
 3157W        W 4154   5.118   0.957   5.020
 3158W        W 4155   3.445   2.897   2.514
 3159W        W 4156   7.831   3.785   6.378
 3160W        W 4157   0.265   7.133   1.886
 3161W        W 4158   5.553   2.793   6.759
 3162W        W 4159   0.827   3.265   2.382
 3163W        W 4160   6.546   4.769   4.801
 3164W        W 4161   6.237   1.962   3.301
 3165W        W 4162   5.161   4.008   6.718
 3166W        W 4163   2.357   2.405   6.670
 3167W        W 4164   2.440   7.543   3.105
 3168W        W 4165   7.281   6.301   3.459
 3169W        W 4166   4.410   2.156   2.385
 3170W        W 4167   6.964   1.098   1.427
 3171W        W 4168   1.739   5.953   4.435
 3172W        W 4169   3.858   3.150   2.434
 3173W        W 4170   2.026   3.241   7.876
 3174W        W 4171   6.538   1.425   6.559
 3175W        W 4172   3.119   2.085   5.849
 3176W        W 4173   2.032   1.025   4.378
 3177W        W 4174   5.318   3.485   3.963
 3178W        W 4175   3.942   4.539   0.364
 3179W        W 4176   7.014   2.186   0.212
 3180W        W 4177   3.109   5.520   0.892
 3181W        W 4178   6.058   6.153   6.229
 3182W        W 4179   3.625   3.877   5.577
 3183W        W 4180   1.084   3.934   0.240
 3184W        W 4181   1.222   6.152   5.910
 3185W        W 4182   4.301   2.935   2.689
 3186W        W 4183   5.003   2.861   2.768
 3187W        W 4184   4.218   4.823   4.275
 3188W        W 4185   3.110   3.142   7.833
 3189W        W 4186   4.868   5.034   2.123
 3190W        W 4187   4.956   4.261   2.845
 3191W        W 4188   4.807   7.358   2.409
 3192W        W 4189   5.406   5.599   2.239
 3193W        W 4190   4.906   5.162   3.463
 3194W        W 4191   6.919   1.693   6.364
 3195W        W 4192   3.328   3.161   4.022
 3196W        W 4193   5.298   1.225   4.115
 3197W        W 4194   7.676   1.923   1.675
 3198W        W 4195   3.266   5.056   0.782
 3199W        W 4196   1.196   7.827   1.920
 3200W        W 4197   1.444   5.734   7.990
 3201W        W 4198   5.078   2.427   0.801
 3202W        W 4199   6.076   2.031   1.572
 3203W        W 4200   5.590   1.143   1.907
   8.00000   8.00000   8.00000
