Martini system from ../2_Creating_coordinates/TYR-TRP-TYR_aa.pdb
 4380
    1TYR     BB    1   3.876   5.608   5.654
    1TYR    SC1    2   3.944   5.862   5.795
    1TYR    SC2    3   3.976   6.110   5.692
    1TYR    SC3    4   4.041   6.061   5.950
    2TRP     BB    5   3.877   5.731   5.321
    2TRP    SC1    6   4.054   5.536   5.161
    2TRP    SC2    7   4.193   5.395   4.978
    2TRP    SC3    8   4.262   5.650   5.032
    2TRP    SC4    9   4.404   5.507   4.852
    3TYR     BB   10   3.970   6.022   5.201
    3TYR    SC1   11   3.757   6.222   5.282
    3TYR    SC2   12   3.725   6.424   5.459
    3TYR    SC3   13   3.531   6.369   5.279
    1TYR     BB   14   7.295   3.516   1.640
    1TYR    SC1   15   7.246   3.422   1.349
    1TYR    SC2   16   7.094   3.253   1.203
    1TYR    SC3   17   7.287   3.400   1.083
    2TRP     BB   18   7.389   3.830   1.624
    2TRP    SC1   19   7.158   4.032   1.678
    2TRP    SC2   20   7.007   4.211   1.543
    2TRP    SC3   21   6.929   3.953   1.559
    2TRP    SC4   22   6.786   4.128   1.412
    3TYR     BB   23   7.366   3.913   1.269
    3TYR    SC1   24   7.567   3.748   1.117
    3TYR    SC2   25   7.628   3.673   0.865
    3TYR    SC3   26   7.728   3.535   1.075
    1TYR     BB   27   3.155   3.901   0.436
    1TYR    SC1   28   3.059   3.714   0.215
    1TYR    SC2   29   3.048   3.602   7.970
    1TYR    SC3   30   2.834   3.589   0.134
    2TRP     BB   31   3.447   3.754   0.567
    2TRP    SC1   32   3.561   4.023   0.668
    2TRP    SC2   33   3.471   4.274   0.706
    2TRP    SC3   34   3.590   4.207   0.473
    2TRP    SC4   35   3.496   4.458   0.509
    3TYR     BB   36   3.502   3.464   0.437
    3TYR    SC1   37   3.777   3.384   0.565
    3TYR    SC2   38   4.047   3.372   0.578
    3TYR    SC3   39   3.899   3.344   0.803
    1TYR     BB   40   1.009   7.120   1.103
    1TYR    SC1   41   0.940   6.996   1.388
    1TYR    SC2   42   0.999   6.876   1.622
    1TYR    SC3   43   0.842   7.096   1.619
    2TRP     BB   44   1.306   7.252   1.187
    2TRP    SC1   45   1.549   7.361   1.040
    2TRP    SC2   46   1.815   7.410   1.029
    2TRP    SC3   47   1.718   7.168   0.956
    2TRP    SC4   48   1.983   7.219   0.937
    3TYR     BB   49   1.414   7.129   1.461
    3TYR    SC1   50   1.268   7.282   1.680
    3TYR    SC2   51   1.193   7.516   1.791
    3TYR    SC3   52   1.146   7.285   1.921
    1TYR     BB   53   6.708   6.634   6.683
    1TYR    SC1   54   6.520   6.726   6.917
    1TYR    SC2   55   6.312   6.717   7.089
    1TYR    SC3   56   6.427   6.954   7.029
    2TRP     BB   57   6.722   6.319   6.622
    2TRP    SC1   58   6.916   6.213   6.843
    2TRP    SC2   59   7.092   6.093   7.010
    2TRP    SC3   60   6.866   5.964   6.935
    2TRP    SC4   61   7.038   5.847   7.107
    3TYR     BB   62   6.487   6.092   6.623
    3TYR    SC1   63   6.420   6.096   6.928
    3TYR    SC2   64   6.384   6.061   7.194
    3TYR    SC3   65   6.502   6.286   7.102
    1TYR     BB   66   3.584   1.533   4.260
    1TYR    SC1   67   3.386   1.572   4.022
    1TYR    SC2   68   3.211   1.731   3.891
    1TYR    SC3   69   3.161   1.466   3.914
    2TRP     BB   70   3.869   1.589   4.175
    2TRP    SC1   71   4.024   1.647   4.424
    2TRP    SC2   72   4.132   1.725   4.658
    2TRP    SC3   73   3.938   1.539   4.656
    2TRP    SC4   74   4.055   1.608   4.889
    3TYR     BB   75   3.907   1.672   3.878
    3TYR    SC1   76   3.724   1.916   3.818
    3TYR    SC2   77   3.552   2.112   3.890
    3TYR    SC3   78   3.678   2.124   3.652
    1TYR     BB   79   4.294   3.191   2.244
    1TYR    SC1   80   4.064   2.999   2.176
    1TYR    SC2   81   3.803   3.002   2.108
    1TYR    SC3   82   3.970   2.823   1.993
    2TRP     BB   83   4.202   3.447   2.034
    2TRP    SC1   84   4.027   3.623   2.228
    2TRP    SC2   85   3.828   3.729   2.376
    2TRP    SC3   86   3.828   3.465   2.319
    2TRP    SC4   87   3.627   3.572   2.464
    3TYR     BB   88   3.928   3.369   1.823
    3TYR    SC1   89   3.927   3.312   1.525
    3TYR    SC2   90   3.735   3.334   1.337
    3TYR    SC3   91   3.995   3.351   1.266
    1TYR     BB   92   3.621   3.583   5.024
    1TYR    SC1   93   3.896   3.722   5.036
    1TYR    SC2   94   4.007   3.940   5.150
    1TYR    SC3   95   4.162   3.730   5.082
    2TRP     BB   96   3.445   3.688   5.264
    2TRP    SC1   97   3.159   3.598   5.229
    2TRP    SC2   98   2.898   3.585   5.160
    2TRP    SC3   99   3.089   3.525   4.978
    2TRP    SC4  100   2.828   3.507   4.911
    3TYR     BB  101   3.473   3.938   5.434
    3TYR    SC1  102   3.696   4.057   5.618
    3TYR    SC2  103   3.921   4.202   5.660
    3TYR    SC3  104   3.832   4.032   5.850
    1TYR     BB  105   5.291   1.028   4.573
    1TYR    SC1  106   5.588   1.089   4.576
    1TYR    SC2  107   5.812   0.963   4.660
    1TYR    SC3  108   5.830   1.165   4.482
    2TRP     BB  109   5.260   0.812   4.843
    2TRP    SC1  110   5.097   1.010   5.018
    2TRP    SC2  111   4.946   1.229   5.062
    2TRP    SC3  112   5.213   1.253   5.033
    2TRP    SC4  113   5.062   1.473   5.074
    3TYR     BB  114   5.535   0.664   4.960
    3TYR    SC1  115   5.491   0.362   4.880
    3TYR    SC2  116   5.379   0.125   4.942
    3TYR    SC3  117   5.482   0.165   4.696
    1TYR     BB  118   6.338   6.860   5.297
    1TYR    SC1  119   6.134   6.764   5.514
    1TYR    SC2  120   5.889   6.663   5.563
    1TYR    SC3  121   6.064   6.696   5.765
    2TRP     BB  122   6.128   6.850   5.030
    2TRP    SC1  123   6.208   7.097   4.870
    2TRP    SC2  124   6.274   7.335   4.761
    2TRP    SC3  125   6.065   7.318   4.931
    2TRP    SC4  126   6.136   7.557   4.827
    3TYR     BB  127   5.853   6.740   5.079
    3TYR    SC1  128   5.711   6.579   4.859
    3TYR    SC2  129   5.557   6.597   4.638
    3TYR    SC3  130   5.505   6.407   4.823
    1TYR     BB  131   4.157   5.422   2.508
    1TYR    SC1  132   3.918   5.458   2.694
    1TYR    SC2  133   3.873   5.525   2.951
    1TYR    SC3  134   3.671   5.534   2.772
    2TRP     BB  135   4.230   5.716   2.413
    2TRP    SC1  136   4.449   5.713   2.198
    2TRP    SC2  137   4.683   5.735   2.064
    2TRP    SC3  138   4.675   5.610   2.303
    2TRP    SC4  139   4.909   5.634   2.171
    3TYR     BB  140   4.409   5.855   2.697
    3TYR    SC1  141   4.146   5.922   2.844
    3TYR    SC2  142   3.948   5.988   3.015
    3TYR    SC3  143   3.889   5.924   2.760
    1TYR     BB  144   0.379   5.327   6.512
    1TYR    SC1  145   0.102   5.298   6.383
    1TYR    SC2  146   7.951   5.247   6.165
    1TYR    SC3  147   7.908   5.110   6.394
    2TRP     BB  148   0.442   4.979   6.516
    2TRP    SC1  149   0.627   4.890   6.740
    2TRP    SC2  150   0.817   4.760   6.881
    2TRP    SC3  151   0.888   4.925   6.679
    2TRP    SC4  152   1.078   4.792   6.817
    3TYR     BB  153   0.294   4.752   6.363
    3TYR    SC1  154   0.096   4.792   6.123
    3TYR    SC2  155   0.054   4.884   5.873
    3TYR    SC3  156   7.844   4.817   6.029
    1TYR     BB  157   4.430   2.703   5.750
    1TYR    SC1  158   4.677   2.724   5.941
    1TYR    SC2  159   4.890   2.871   6.018
    1TYR    SC3  160   4.787   2.683   6.184
    2TRP     BB  161   4.204   2.604   5.981
    2TRP    SC1  162   3.963   2.775   5.917
    2TRP    SC2  163   3.835   3.005   5.978
    2TRP    SC3  164   3.990   2.991   5.757
    2TRP    SC4  165   3.863   3.221   5.818
    3TYR     BB  166   4.264   2.666   6.296
    3TYR    SC1  167   4.487   2.528   6.465
    3TYR    SC2  168   4.693   2.578   6.632
    3TYR    SC3  169   4.574   2.335   6.633
    1TYR     BB  170   0.587   0.736   0.364
    1TYR    SC1  171   0.414   0.810   0.624
    1TYR    SC2  172   0.326   0.736   0.869
    1TYR    SC3  173   0.326   0.997   0.798
    2TRP     BB  174   0.857   0.620   0.518
    2TRP    SC1  175   0.987   0.408   0.330
    2TRP    SC2  176   1.070   0.191   0.192
    2TRP    SC3  177   0.811   0.213   0.267
    2TRP    SC4  178   0.895   7.995   0.132
    3TYR     BB  179   0.714   0.402   0.748
    3TYR    SC1  180   0.853   0.344   1.013
    3TYR    SC2  181   0.896   0.115   1.149
    3TYR    SC3  182   0.918   0.353   1.275
    1TYR     BB  183   7.067   3.638   3.425
    1TYR    SC1  184   6.773   3.651   3.353
    1TYR    SC2  185   6.598   3.568   3.165
    1TYR    SC3  186   6.532   3.554   3.426
    2TRP     BB  187   7.124   3.325   3.440
    2TRP    SC1  188   7.338   3.292   3.215
    2TRP    SC2  189   7.454   3.176   3.001
    2TRP    SC3  190   7.208   3.286   2.978
    2TRP    SC4  191   7.324   3.169   2.764
    3TYR     BB  192   6.839   3.145   3.316
    3TYR    SC1  193   6.701   3.156   3.597
    3TYR    SC2  194   6.562   3.204   3.824
    3TYR    SC3  195   6.818   3.118   3.838
    1TYR     BB  196   5.625   4.109   4.007
    1TYR    SC1  197   5.733   3.815   4.031
    1TYR    SC2  198   5.731   3.583   4.168
    1TYR    SC3  199   5.817   3.587   3.912
    2TRP     BB  200   5.305   4.053   4.093
    2TRP    SC1  201   5.151   4.310   4.057
    2TRP    SC2  202   5.043   4.557   4.058
    2TRP    SC3  203   5.306   4.525   4.006
    2TRP    SC4  204   5.197   4.772   4.005
    3TYR     BB  205   5.235   3.767   4.034
    3TYR    SC1  206   5.366   3.717   3.740
    3TYR    SC2  207   5.396   3.559   3.523
    3TYR    SC3  208   5.572   3.758   3.570
    1TYR     BB  209   5.359   4.784   7.927
    1TYR    SC1  210   5.461   4.896   7.649
    1TYR    SC2  211   5.682   4.995   7.531
    1TYR    SC3  212   5.495   4.869   7.383
    2TRP     BB  213   5.580   4.589   0.021
    2TRP    SC1  214   5.580   4.592   0.337
    2TRP    SC2  215   5.617   4.643   0.599
    2TRP    SC3  216   5.646   4.841   0.418
    2TRP    SC4  217   5.686   4.892   0.680
    3TYR     BB  218   5.862   4.619   7.877
    3TYR    SC1  219   5.831   4.545   7.572
    3TYR    SC2  220   5.894   4.632   7.325
    3TYR    SC3  221   5.815   4.377   7.362
    1TYR     BB  222   4.312   6.818   4.109
    1TYR    SC1  223   4.137   6.629   3.928
    1TYR    SC2  224   3.899   6.501   3.929
    1TYR    SC3  225   4.037   6.528   3.699
    2TRP     BB  226   4.308   7.103   3.968
    2TRP    SC1  227   4.074   7.299   4.000
    2TRP    SC2  228   3.989   7.554   3.975
    2TRP    SC3  229   3.984   7.388   3.761
    2TRP    SC4  230   3.905   7.645   3.735
    3TYR     BB  231   4.452   7.113   3.687
    3TYR    SC1  232   4.327   7.277   3.462
    3TYR    SC2  233   4.183   7.487   3.373
    3TYR    SC3  234   4.281   7.306   3.198
    1TYR     BB  235   5.793   0.269   6.751
    1TYR    SC1  236   5.703   7.981   6.847
    1TYR    SC2  237   5.587   7.763   6.958
    1TYR    SC3  238   5.680   7.753   6.704
    2TRP     BB  239   5.727   0.230   6.434
    2TRP    SC1  240   5.796   0.490   6.278
    2TRP    SC2  241   5.764   0.707   6.122
    2TRP    SC3  242   5.617   0.680   6.347
    2TRP    SC4  243   5.581   0.895   6.187
    3TYR     BB  244   5.479   0.091   6.370
    3TYR    SC1  245   5.497   7.796   6.277
    3TYR    SC2  246   5.556   7.651   6.057
    3TYR    SC3  247   5.574   7.538   6.301
    1TYR     BB  248   1.605   2.363   4.388
    1TYR    SC1  249   1.310   2.272   4.304
    1TYR    SC2  250   1.223   2.016   4.304
    1TYR    SC3  251   1.047   2.219   4.277
    2TRP     BB  252   1.646   2.087   4.602
    2TRP    SC1  253   1.845   1.918   4.446
    2TRP    SC2  254   1.962   1.767   4.255
    2TRP    SC3  255   1.743   1.676   4.384
    2TRP    SC4  256   1.860   1.524   4.194
    3TYR     BB  257   1.405   2.010   4.788
    3TYR    SC1  258   1.470   2.032   5.094
    3TYR    SC2  259   1.644   2.069   5.297
    3TYR    SC3  260   1.389   1.998   5.349
    1TYR     BB  261   3.232   0.667   5.362
    1TYR    SC1  262   3.200   0.649   5.672
    1TYR    SC2  263   3.001   0.685   5.852
    1TYR    SC3  264   3.189   0.495   5.894
    2TRP     BB  265   2.884   0.753   5.309
    2TRP    SC1  266   2.882   0.759   5.006
    2TRP    SC2  267   2.851   0.852   4.754
    2TRP    SC3  268   3.056   0.941   4.907
    2TRP    SC4  269   3.016   1.045   4.661
    3TYR     BB  270   2.830   0.978   5.483
    3TYR    SC1  271   2.555   1.089   5.533
    3TYR    SC2  272   2.412   1.318   5.531
    3TYR    SC3  273   2.386   1.144   5.736
    1TYR     BB  274   7.215   0.577   3.032
    1TYR    SC1  275   7.456   0.645   2.835
    1TYR    SC2  276   7.645   0.575   2.656
    1TYR    SC3  277   7.619   0.833   2.730
    2TRP     BB  278   7.083   0.243   2.968
    2TRP    SC1  279   6.789   0.314   2.905
    2TRP    SC2  280   6.525   0.312   2.848
    2TRP    SC3  281   6.613   0.204   3.079
    2TRP    SC4  282   6.350   0.199   3.019
    3TYR     BB  283   7.017   7.952   3.201
    3TYR    SC1  284   7.105   7.703   3.039
    3TYR    SC2  285   7.272   7.491   3.044
    3TYR    SC3  286   7.157   7.567   2.811
    1TYR     BB  287   3.135   6.975   2.821
    1TYR    SC1  288   2.906   6.782   2.840
    1TYR    SC2  289   2.654   6.738   2.753
    1TYR    SC3  290   2.829   6.533   2.767
    2TRP     BB  291   3.071   7.108   2.539
    2TRP    SC1  292   2.879   7.347   2.591
    2TRP    SC2  293   2.668   7.515   2.571
    2TRP    SC3  294   2.628   7.253   2.622
    2TRP    SC4  295   2.417   7.420   2.602
    3TYR     BB  296   2.902   6.913   2.333
    3TYR    SC1  297   2.787   6.617   2.325
    3TYR    SC2  298   2.563   6.478   2.383
    3TYR    SC3  299   2.796   6.348   2.343
    1TYR     BB  300   1.794   6.224   6.622
    1TYR    SC1  301   2.081   6.314   6.600
    1TYR    SC2  302   2.265   6.347   6.795
    1TYR    SC3  303   2.332   6.392   6.537
    2TRP     BB  304   1.689   6.123   6.347
    2TRP    SC1  305   1.403   6.226   6.340
    2TRP    SC2  306   1.151   6.314   6.378
    2TRP    SC3  307   1.269   6.157   6.563
    2TRP    SC4  308   1.017   6.247   6.603
    3TYR     BB  309   1.765   5.835   6.242
    3TYR    SC1  310   2.045   5.794   6.361
    3TYR    SC2  311   2.299   5.720   6.309
    3TYR    SC3  312   2.247   5.893   6.509
    1TYR     BB  313   2.221   3.229   1.749
    1TYR    SC1  314   1.951   3.148   1.643
    1TYR    SC2  315   1.693   3.066   1.654
    1TYR    SC3  316   1.819   3.084   1.416
    2TRP     BB  317   2.208   3.559   1.606
    2TRP    SC1  318   2.453   3.681   1.763
    2TRP    SC2  319   2.616   3.809   1.935
    2TRP    SC3  320   2.387   3.926   1.853
    2TRP    SC4  321   2.553   4.057   2.022
    3TYR     BB  322   2.002   3.550   1.325
    3TYR    SC1  323   1.769   3.752   1.277
    3TYR    SC2  324   1.626   3.956   1.379
    3TYR    SC3  325   1.542   3.831   1.155
    1TYR     BB  326   1.110   6.481   0.706
    1TYR    SC1  327   1.321   6.421   0.493
    1TYR    SC2  328   1.490   6.252   0.368
    1TYR    SC3  329   1.531   6.519   0.353
    2TRP     BB  330   0.834   6.447   0.541
    2TRP    SC1  331   0.613   6.332   0.718
    2TRP    SC2  332   0.363   6.229   0.707
    2TRP    SC3  333   0.578   6.067   0.682
    2TRP    SC4  334   0.328   5.966   0.657
    3TYR     BB  335   0.790   6.236   0.250
    3TYR    SC1  336   1.073   6.279   0.119
    3TYR    SC2  337   1.193   6.509   0.045
    3TYR    SC3  338   1.294   6.272   7.965
    1TYR     BB  339   7.941   5.382   4.059
    1TYR    SC1  340   7.855   5.218   3.810
    1TYR    SC2  341   7.685   5.195   3.602
    1TYR    SC3  342   7.945   5.129   3.571
    2TRP     BB  343   0.132   5.627   3.888
    2TRP    SC1  344   0.025   5.879   4.036
    2TRP    SC2  345   7.885   6.064   4.174
    2TRP    SC3  346   7.755   5.876   4.030
    2TRP    SC4  347   7.615   6.063   4.166
    3TYR     BB  348   0.157   5.596   3.624
    3TYR    SC1  349   0.232   5.787   3.397
    3TYR    SC2  350   0.124   5.965   3.226
    3TYR    SC3  351   0.383   5.987   3.297
    1TYR     BB  352   5.893   5.572   6.394
    1TYR    SC1  353   5.800   5.681   6.670
    1TYR    SC2  354   5.825   5.894   6.835
    1TYR    SC3  355   5.590   5.761   6.820
    2TRP     BB  356   5.655   5.701   6.208
    2TRP    SC1  357   5.783   5.876   5.989
    2TRP    SC2  358   5.779   6.031   5.768
    2TRP    SC3  359   5.735   6.141   6.010
    2TRP    SC4  360   5.739   6.297   5.789
    3TYR     BB  361   5.354   5.645   6.355
    3TYR    SC1  362   5.165   5.877   6.274
    3TYR    SC2  363   5.053   6.110   6.351
    3TYR    SC3  364   4.939   5.963   6.155
    1TYR     BB  365   3.701   7.653   6.055
    1TYR    SC1  366   3.752   7.389   5.905
    1TYR    SC2  367   3.836   7.264   5.680
    1TYR    SC3  368   3.735   7.121   5.885
    2TRP     BB  369   3.899   7.626   6.313
    2TRP    SC1  370   3.863   7.898   6.454
    2TRP    SC2  371   3.817   0.155   6.522
    2TRP    SC3  372   3.960   0.097   6.300
    2TRP    SC4  373   3.905   0.354   6.361
    3TYR     BB  374   4.075   7.399   6.344
    3TYR    SC1  375   4.145   7.238   6.089
    3TYR    SC2  376   4.276   7.221   5.853
    3TYR    SC3  377   4.166   7.000   5.964
    1TYR     BB  378   1.280   5.678   1.906
    1TYR    SC1  379   1.386   5.390   1.917
    1TYR    SC2  380   1.504   5.210   2.079
    1TYR    SC3  381   1.375   5.127   1.857
    2TRP     BB  382   1.245   5.721   2.246
    2TRP    SC1  383   1.497   5.588   2.368
    2TRP    SC2  384   1.739   5.614   2.485
    2TRP    SC3  385   1.722   5.583   2.218
    2TRP    SC4  386   1.963   5.618   2.334
    3TYR     BB  387   1.011   5.452   2.295
    3TYR    SC1  388   1.182   5.273   2.482
    3TYR    SC2  389   1.418   5.148   2.524
    3TYR    SC3  390   1.206   5.094   2.683
    1TYR     BB  391   1.587   3.233   4.355
    1TYR    SC1  392   1.886   3.303   4.380
    1TYR    SC2  393   2.073   3.490   4.323
    1TYR    SC3  394   2.104   3.328   4.537
    2TRP     BB  395   1.438   3.295   4.658
    2TRP    SC1  396   1.146   3.194   4.650
    2TRP    SC2  397   0.884   3.133   4.624
    2TRP    SC3  398   1.029   3.197   4.406
    2TRP    SC4  399   0.766   3.145   4.382
    3TYR     BB  400   1.482   3.405   4.970
    3TYR    SC1  401   1.632   3.228   5.168
    3TYR    SC2  402   1.701   3.205   5.429
    3TYR    SC3  403   1.774   3.015   5.252
    1TYR     BB  404   1.694   4.780   4.070
    1TYR    SC1  405   1.484   4.931   4.249
    1TYR    SC2  406   1.277   4.945   4.422
    1TYR    SC3  407   1.473   5.130   4.430
    2TRP     BB  408   1.928   4.711   4.267
    2TRP    SC1  409   1.907   4.418   4.363
    2TRP    SC2  410   1.975   4.156   4.369
    2TRP    SC3  411   1.816   4.249   4.172
    2TRP    SC4  412   1.889   3.989   4.176
    3TYR     BB  413   1.929   4.867   4.539
    3TYR    SC1  414   1.677   4.787   4.689
    3TYR    SC2  415   1.445   4.656   4.730
    3TYR    SC3  416   1.496   4.885   4.863
    1TYR     BB  417   2.286   2.830   7.244
    1TYR    SC1  418   2.220   2.745   6.953
    1TYR    SC2  419   2.273   2.603   6.730
    1TYR    SC3  420   2.078   2.789   6.728
    2TRP     BB  421   1.994   2.926   7.370
    2TRP    SC1  422   1.905   2.709   7.584
    2TRP    SC2  423   1.766   2.502   7.687
    2TRP    SC3  424   1.922   2.465   7.471
    2TRP    SC4  425   1.783   2.258   7.573
    3TYR     BB  426   1.746   2.832   7.143
    3TYR    SC1  427   1.498   2.888   7.324
    3TYR    SC2  428   1.251   2.950   7.412
    3TYR    SC3  429   1.421   2.814   7.572
    1TYR     BB  430   4.877   1.880   5.852
    1TYR    SC1  431   4.678   2.039   6.041
    1TYR    SC2  432   4.534   2.068   6.267
    1TYR    SC3  433   4.570   2.279   6.102
    2TRP     BB  434   5.115   1.838   6.086
    2TRP    SC1  435   5.276   1.604   5.950
    2TRP    SC2  436   5.391   1.371   5.875
    2TRP    SC3  437   5.175   1.370   6.038
    2TRP    SC4  438   5.290   1.137   5.963
    3TYR     BB  439   5.003   1.707   6.367
    3TYR    SC1  440   4.812   1.847   6.562
    3TYR    SC2  441   4.572   1.874   6.682
    3TYR    SC3  442   4.796   1.959   6.807
    1TYR     BB  443   4.824   1.513   1.866
    1TYR    SC1  444   4.882   1.625   1.588
    1TYR    SC2  445   4.954   1.831   1.429
    1TYR    SC3  446   4.867   1.600   1.320
    2TRP     BB  447   5.110   1.394   1.988
    2TRP    SC1  448   5.109   1.327   2.290
    2TRP    SC2  449   5.226   1.201   2.498
    2TRP    SC3  450   5.314   1.444   2.422
    2TRP    SC4  451   5.435   1.315   2.626
    3TYR     BB  452   5.375   1.522   1.883
    3TYR    SC1  453   5.381   1.556   1.570
    3TYR    SC2  454   5.556   1.455   1.390
    3TYR    SC3  455   5.318   1.554   1.307
    1TYR     BB  456   1.622   0.805   3.378
    1TYR    SC1  457   1.506   1.064   3.248
    1TYR    SC2  458   1.396   1.183   3.032
    1TYR    SC3  459   1.533   1.330   3.212
    2TRP     BB  460   1.483   0.572   3.196
    2TRP    SC1  461   1.215   0.457   3.292
    2TRP    SC2  462   0.997   0.302   3.329
    2TRP    SC3  463   1.242   0.205   3.387
    2TRP    SC4  464   1.023   0.051   3.424
    3TYR     BB  465   1.496   0.551   2.896
    3TYR    SC1  466   1.360   0.794   2.759
    3TYR    SC2  467   1.395   1.018   2.612
    3TYR    SC3  468   1.190   0.852   2.557
    1TYR     BB  469   6.617   6.377   1.339
    1TYR    SC1  470   6.755   6.213   1.558
    1TYR    SC2  471   6.654   5.989   1.670
    1TYR    SC3  472   6.877   6.102   1.772
    2TRP     BB  473   6.513   6.134   1.134
    2TRP    SC1  474   6.306   6.269   0.964
    2TRP    SC2  475   6.099   6.369   0.823
    2TRP    SC3  476   6.087   6.361   1.092
    2TRP    SC4  477   5.878   6.457   0.950
    3TYR     BB  478   6.481   5.865   1.230
    3TYR    SC1  479   6.441   5.587   1.102
    3TYR    SC2  480   6.325   5.424   0.921
    3TYR    SC3  481   6.413   5.324   1.156
    1TYR     BB  482   1.153   2.477   1.671
    1TYR    SC1  483   1.360   2.554   1.872
    1TYR    SC2  484   1.575   2.713   1.913
    1TYR    SC3  485   1.408   2.656   2.117
    2TRP     BB  486   0.857   2.550   1.824
    2TRP    SC1  487   0.667   2.637   1.595
    2TRP    SC2  488   0.540   2.850   1.489
    2TRP    SC3  489   0.802   2.809   1.436
    2TRP    SC4  490   0.681   3.035   1.351
    3TYR     BB  491   0.937   2.842   1.972
    3TYR    SC1  492   0.980   2.765   2.267
    3TYR    SC2  493   0.851   2.773   2.504
    3TYR    SC3  494   1.094   2.656   2.486
    1TYR     BB  495   4.296   6.670   2.468
    1TYR    SC1  496   4.163   6.848   2.691
    1TYR    SC2  497   4.129   7.115   2.718
    1TYR    SC3  498   4.129   6.955   2.936
    2TRP     BB  499   4.242   6.901   2.219
    2TRP    SC1  500   4.532   7.024   2.224
    2TRP    SC2  501   4.797   7.033   2.176
    2TRP    SC3  502   4.623   7.086   1.977
    2TRP    SC4  503   4.889   7.096   1.930
    3TYR     BB  504   4.042   7.152   2.213
    3TYR    SC1  505   3.765   7.137   2.349
    3TYR    SC2  506   3.564   7.257   2.482
    3TYR    SC3  507   3.511   7.057   2.308
    1TYR     BB  508   3.104   4.536   1.789
    1TYR    SC1  509   3.107   4.402   1.508
    1TYR    SC2  510   3.120   4.156   1.396
    1TYR    SC3  511   3.116   4.376   1.240
    2TRP     BB  512   2.993   4.290   1.984
    2TRP    SC1  513   2.990   4.402   2.274
    2TRP    SC2  514   3.075   4.542   2.488
    2TRP    SC3  515   2.989   4.672   2.267
    2TRP    SC4  516   3.078   4.812   2.480
    3TYR     BB  517   3.093   4.035   1.966
    3TYR    SC1  518   3.016   3.858   1.735
    3TYR    SC2  519   2.961   3.599   1.678
    3TYR    SC3  520   2.853   3.797   1.529
    1TYR     BB  521   6.746   1.824   1.307
    1TYR    SC1  522   7.004   1.650   1.233
    1TYR    SC2  523   7.051   1.409   1.119
    1TYR    SC3  524   7.251   1.541   1.242
    2TRP     BB  525   6.537   1.673   1.100
    2TRP    SC1  526   6.482   1.857   0.859
    2TRP    SC2  527   6.492   2.011   0.638
    2TRP    SC3  528   6.656   2.062   0.846
    2TRP    SC4  529   6.661   2.222   0.628
    3TYR     BB  530   6.537   1.375   1.110
    3TYR    SC1  531   6.651   1.253   0.855
    3TYR    SC2  532   6.598   1.129   0.622
    3TYR    SC3  533   6.843   1.107   0.733
    1TYR     BB  534   2.251   5.940   0.735
    1TYR    SC1  535   2.398   5.727   0.902
    1TYR    SC2  536   2.519   5.657   1.133
    1TYR    SC3  537   2.514   5.484   0.926
    2TRP     BB  538   1.950   5.928   0.866
    2TRP    SC1  539   1.937   6.191   1.032
    2TRP    SC2  540   1.958   6.354   1.246
    2TRP    SC3  541   2.180   6.276   1.114
    2TRP    SC4  542   2.201   6.431   1.334
    3TYR     BB  543   1.755   5.738   1.106
    3TYR    SC1  544   1.960   5.519   1.137
    3TYR    SC2  545   2.171   5.391   1.247
    3TYR    SC3  546   2.094   5.333   0.994
    1TYR     BB  547   5.301   5.243   3.965
    1TYR    SC1  548   5.456   5.494   4.018
    1TYR    SC2  549   5.554   5.671   4.196
    1TYR    SC3  550   5.673   5.641   3.956
    2TRP     BB  551   5.079   5.229   4.198
    2TRP    SC1  552   4.858   5.041   4.115
    2TRP    SC2  553   4.677   4.870   4.012
    2TRP    SC3  554   4.807   5.042   3.850
    2TRP    SC4  555   4.610   4.886   3.751
    3TYR     BB  556   5.130   5.255   4.486
    3TYR    SC1  557   5.386   5.393   4.568
    3TYR    SC2  558   5.431   5.645   4.655
    3TYR    SC3  559   5.599   5.445   4.724
    1TYR     BB  560   6.950   1.958   3.761
    1TYR    SC1  561   6.820   1.749   3.957
    1TYR    SC2  562   6.894   1.554   4.127
    1TYR    SC3  563   6.651   1.669   4.152
    2TRP     BB  564   7.113   2.145   3.977
    2TRP    SC1  565   7.397   2.254   3.960
    2TRP    SC2  566   7.666   2.276   3.974
    2TRP    SC3  567   7.552   2.139   3.771
    2TRP    SC4  568   7.820   2.168   3.781
    3TYR     BB  569   7.145   1.997   4.292
    3TYR    SC1  570   6.934   1.863   4.468
    3TYR    SC2  571   6.856   1.643   4.605
    3TYR    SC3  572   6.686   1.851   4.575
    1TYR     BB  573   3.591   6.193   6.643
    1TYR    SC1  574   3.339   6.011   6.612
    1TYR    SC2  575   3.096   6.009   6.494
    1TYR    SC3  576   3.143   5.855   6.711
    2TRP     BB  577   3.742   6.131   6.352
    2TRP    SC1  578   3.840   6.387   6.209
    2TRP    SC2  579   3.855   6.626   6.085
    2TRP    SC3  580   3.735   6.418   5.963
    2TRP    SC4  581   3.750   6.657   5.839
    3TYR     BB  582   3.584   5.919   6.168
    3TYR    SC1  583   3.778   5.674   6.185
    3TYR    SC2  584   3.880   5.432   6.125
    3TYR    SC3  585   3.966   5.564   6.345
    1TYR     BB  586   3.119   2.634   3.546
    1TYR    SC1  587   3.204   2.349   3.636
    1TYR    SC2  588   3.110   2.166   3.812
    1TYR    SC3  589   3.217   2.085   3.578
    2TRP     BB  590   2.791   2.521   3.459
    2TRP    SC1  591   2.609   2.735   3.504
    2TRP    SC2  592   2.436   2.937   3.454
    2TRP    SC3  593   2.426   2.805   3.690
    2TRP    SC4  594   2.256   3.009   3.642
    3TYR     BB  595   2.703   2.300   3.273
    3TYR    SC1  596   2.931   2.112   3.204
    3TYR    SC2  597   3.070   1.881   3.204
    3TYR    SC3  598   3.078   2.043   2.988
    1TYR     BB  599   7.995   3.328   2.558
    1TYR    SC1  600   7.741   3.473   2.690
    1TYR    SC2  601   7.739   3.733   2.763
    1TYR    SC3  602   7.513   3.586   2.780
    2TRP     BB  603   0.180   3.610   2.496
    2TRP    SC1  604   0.420   3.556   2.316
    2TRP    SC2  605   0.567   3.505   2.095
    2TRP    SC3  606   0.482   3.756   2.145
    2TRP    SC4  607   0.634   3.706   1.928
    3TYR     BB  608   0.002   3.846   2.323
    3TYR    SC1  609   7.728   3.709   2.268
    3TYR    SC2  610   7.476   3.627   2.321
    3TYR    SC3  611   7.574   3.611   2.070
    1TYR     BB  612   5.452   5.034   2.436
    1TYR    SC1  613   5.674   4.935   2.637
    1TYR    SC2  614   5.847   4.728   2.656
    1TYR    SC3  615   5.906   4.964   2.774
    2TRP     BB  616   5.650   5.252   2.250
    2TRP    SC1  617   5.601   5.206   1.953
    2TRP    SC2  618   5.641   5.034   1.749
    2TRP    SC3  619   5.411   5.026   1.889
    2TRP    SC4  620   5.459   4.842   1.697
    3TYR     BB  621   5.955   5.249   2.352
    3TYR    SC1  622   6.116   4.977   2.379
    3TYR    SC2  623   6.197   4.723   2.339
    3TYR    SC3  624   6.320   4.877   2.524
    1TYR     BB  625   3.841   1.065   7.374
    1TYR    SC1  626   3.970   0.824   7.209
    1TYR    SC2  627   4.034   0.562   7.201
    1TYR    SC3  628   4.129   0.731   7.012
    2TRP     BB  629   3.569   1.115   7.221
    2TRP    SC1  630   3.394   1.328   7.344
    2TRP    SC2  631   3.348   1.579   7.432
    2TRP    SC3  632   3.372   1.377   7.609
    2TRP    SC4  633   3.331   1.628   7.697
    3TYR     BB  634   3.518   1.029   6.921
    3TYR    SC1  635   3.659   0.765   6.813
    3TYR    SC2  636   3.768   0.518   6.817
    3TYR    SC3  637   3.609   0.592   6.612
    1TYR     BB  638   2.834   0.051   3.080
    1TYR    SC1  639   3.024   0.255   2.935
    1TYR    SC2  640   3.230   0.294   2.766
    1TYR    SC3  641   3.195   0.460   2.976
    2TRP     BB  642   2.908   7.765   2.938
    2TRP    SC1  643   2.702   7.547   3.022
    2TRP    SC2  644   2.547   7.329   3.054
    2TRP    SC3  645   2.816   7.303   3.043
    2TRP    SC4  646   2.661   7.084   3.073
    3TYR     BB  647   3.064   7.812   2.658
    3TYR    SC1  648   2.897   0.053   2.533
    3TYR    SC2  649   2.665   0.153   2.438
    3TYR    SC3  650   2.868   0.319   2.502
    1TYR     BB  651   7.691   3.112   6.714
    1TYR    SC1  652   7.453   3.305   6.649
    1TYR    SC2  653   7.294   3.501   6.746
    1TYR    SC3  654   7.253   3.405   6.497
    2TRP     BB  655   7.952   3.288   6.598
    2TRP    SC1  656   0.193   3.257   6.787
    2TRP    SC2  657   0.427   3.250   6.922
    2TRP    SC3  658   0.356   3.472   6.785
    2TRP    SC4  659   0.591   3.465   6.919
    3TYR     BB  660   7.857   3.608   6.646
    3TYR    SC1  661   7.698   3.693   6.392
    3TYR    SC2  662   7.707   3.760   6.130
    3TYR    SC3  663   7.469   3.731   6.255
    1TYR     BB  664   5.271   0.629   1.468
    1TYR    SC1  665   5.568   0.559   1.443
    1TYR    SC2  666   5.819   0.650   1.486
    1TYR    SC3  667   5.767   0.385   1.502
    2TRP     BB  668   5.178   0.355   1.675
    2TRP    SC1  669   5.118   0.503   1.932
    2TRP    SC2  670   5.191   0.638   2.154
    2TRP    SC3  671   5.143   0.772   1.924
    2TRP    SC4  672   5.214   0.907   2.146
    3TYR     BB  673   5.459   0.145   1.825
    3TYR    SC1  674   5.538   7.885   1.993
    3TYR    SC2  675   5.498   7.689   2.174
    3TYR    SC3  676   5.749   7.752   2.096
    1TYR     BB  677   0.111   5.844   1.546
    1TYR    SC1  678   7.997   5.996   1.797
    1TYR    SC2  679   0.060   6.048   2.054
    1TYR    SC3  680   7.881   6.203   1.926
    2TRP     BB  681   0.443   5.915   1.624
    2TRP    SC1  682   0.690   5.773   1.478
    2TRP    SC2  683   0.928   5.705   1.371
    2TRP    SC3  684   0.912   5.914   1.541
    2TRP    SC4  685   1.150   5.847   1.433
    3TYR     BB  686   0.509   6.192   1.741
    3TYR    SC1  687   0.325   6.397   1.890
    3TYR    SC2  688   0.368   6.604   2.057
    3TYR    SC3  689   0.149   6.601   1.901
    1TYR     BB  690   3.584   7.353   4.222
    1TYR    SC1  691   3.708   7.069   4.229
    1TYR    SC2  692   3.819   6.923   4.031
    1TYR    SC3  693   3.811   6.826   4.283
    2TRP     BB  694   3.498   7.383   3.894
    2TRP    SC1  695   3.194   7.467   3.910
    2TRP    SC2  696   2.925   7.464   3.890
    2TRP    SC3  697   3.055   7.247   3.984
    2TRP    SC4  698   2.787   7.240   3.952
    3TYR     BB  699   3.463   7.083   3.738
    3TYR    SC1  700   3.734   7.043   3.601
    3TYR    SC2  701   3.990   6.958   3.605
    3TYR    SC3  702   3.903   7.111   3.400
    1TYR     BB  703   2.149   7.676   0.739
    1TYR    SC1  704   1.891   7.808   0.849
    1TYR    SC2  705   1.660   7.944   0.815
    1TYR    SC3  706   1.762   7.911   1.063
    2TRP     BB  707   2.349   7.577   0.983
    2TRP    SC1  708   2.544   7.367   0.855
    2TRP    SC2  709   2.619   7.180   0.674
    2TRP    SC3  710   2.438   7.118   0.865
    2TRP    SC4  711   2.509   6.934   0.681
    3TYR     BB  712   2.260   7.487   1.259
    3TYR    SC1  713   2.086   7.711   1.388
    3TYR    SC2  714   2.019   7.803   1.633
    3TYR    SC3  715   2.049   7.976   1.428
    1TYR     BB  716   4.742   6.796   6.732
    1TYR    SC1  717   4.851   7.084   6.746
    1TYR    SC2  718   4.784   7.311   6.615
    1TYR    SC3  719   4.802   7.311   6.884
    2TRP     BB  720   4.411   6.941   6.831
    2TRP    SC1  721   4.234   6.711   6.899
    2TRP    SC2  722   4.029   6.549   6.833
    2TRP    SC3  723   4.275   6.502   6.733
    2TRP    SC4  724   4.068   6.344   6.662
    3TYR     BB  725   4.305   7.217   6.742
    3TYR    SC1  726   4.353   7.427   6.954
    3TYR    SC2  727   4.245   7.606   7.125
    3TYR    SC3  728   4.514   7.586   7.102
    1TYR     BB  729   6.254   6.758   3.227
    1TYR    SC1  730   6.115   6.973   3.064
    1TYR    SC2  731   6.088   7.218   2.955
    1TYR    SC3  732   5.883   7.043   2.944
    2TRP     BB  733   6.355   6.541   2.997
    2TRP    SC1  734   6.610   6.677   2.877
    2TRP    SC2  735   6.778   6.797   2.703
    2TRP    SC3  736   6.534   6.903   2.751
    2TRP    SC4  737   6.696   7.015   2.566
    3TYR     BB  738   6.141   6.505   2.775
    3TYR    SC1  739   6.094   6.771   2.638
    3TYR    SC2  740   6.142   7.017   2.538
    3TYR    SC3  741   6.006   6.835   2.391
    1TYR     BB  742   4.466   2.000   0.952
    1TYR    SC1  743   4.494   1.891   1.246
    1TYR    SC2  744   4.524   1.949   1.509
    1TYR    SC3  745   4.444   1.702   1.432
    2TRP     BB  746   4.773   1.989   0.818
    2TRP    SC1  747   4.726   2.087   0.523
    2TRP    SC2  748   4.689   2.105   0.256
    2TRP    SC3  749   4.532   1.942   0.403
    2TRP    SC4  750   4.488   1.969   0.138
    3TYR     BB  751   5.048   1.873   0.921
    3TYR    SC1  752   5.243   2.006   1.126
    3TYR    SC2  753   5.369   2.002   1.365
    3TYR    SC3  754   5.340   2.235   1.232
    1TYR     BB  755   5.262   2.015   7.843
    1TYR    SC1  756   4.995   1.896   7.923
    1TYR    SC2  757   4.794   1.816   7.761
    1TYR    SC3  758   4.824   1.705   0.006
    2TRP     BB  759   5.258   1.915   7.500
    2TRP    SC1  760   5.348   2.179   7.357
    2TRP    SC2  761   5.495   2.356   7.216
    2TRP    SC3  762   5.446   2.111   7.115
    2TRP    SC4  763   5.602   2.284   6.979
    3TYR     BB  764   5.071   1.753   7.251
    3TYR    SC1  765   5.199   1.477   7.195
    3TYR    SC2  766   5.318   1.316   7.014
    3TYR    SC3  767   5.209   1.210   7.237
    1TYR     BB  768   4.723   1.322   3.782
    1TYR    SC1  769   4.838   1.529   3.566
    1TYR    SC2  770   4.855   1.666   3.334
    1TYR    SC3  771   5.069   1.652   3.497
    2TRP     BB  772   4.775   1.513   4.059
    2TRP    SC1  773   4.541   1.635   4.193
    2TRP    SC2  774   4.395   1.830   4.309
    2TRP    SC3  775   4.380   1.790   4.042
    2TRP    SC4  776   4.234   1.986   4.157
    3TYR     BB  777   4.995   1.729   3.990
    3TYR    SC1  778   5.205   1.823   4.179
    3TYR    SC2  779   5.224   2.010   4.373
    3TYR    SC3  780   5.446   1.927   4.243
    1TYR     BB  781   0.218   7.687   1.734
    1TYR    SC1  782   0.188   7.976   1.845
    1TYR    SC2  783   0.091   0.141   2.036
    1TYR    SC3  784   0.257   0.237   1.845
    2TRP     BB  785   0.147   7.494   2.001
    2TRP    SC1  786   7.934   7.298   1.882
    2TRP    SC2  787   7.781   7.083   1.827
    2TRP    SC3  788   7.751   7.214   2.061
    2TRP    SC4  789   7.597   6.999   2.007
    3TYR     BB  790   0.164   7.674   2.275
    3TYR    SC1  791   0.419   7.864   2.232
    3TYR    SC2  792   0.500   0.119   2.265
    3TYR    SC3  793   0.612   7.965   2.073
    1TYR     BB  794   5.955   2.831   3.263
    1TYR    SC1  795   5.704   2.644   3.288
    1TYR    SC2  796   5.684   2.380   3.340
    1TYR    SC3  797   5.479   2.546   3.399
    2TRP     BB  798   6.076   2.764   3.586
    2TRP    SC1  799   6.371   2.802   3.613
    2TRP    SC2  800   6.624   2.720   3.657
    2TRP    SC3  801   6.528   2.732   3.405
    2TRP    SC4  802   6.783   2.656   3.448
    3TYR     BB  803   5.861   2.662   3.756
    3TYR    SC1  804   5.847   2.599   4.047
    3TYR    SC2  805   5.869   2.400   4.228
    3TYR    SC3  806   5.851   2.656   4.311
    1TYR     BB  807   6.577   4.490   1.700
    1TYR    SC1  808   6.473   4.197   1.735
    1TYR    SC2  809   6.323   4.034   1.890
    1TYR    SC3  810   6.503   3.929   1.718
    2TRP     BB  811   6.560   4.665   1.979
    2TRP    SC1  812   6.647   4.960   1.921
    2TRP    SC2  813   6.806   5.178   1.915
    2TRP    SC3  814   6.849   4.975   1.742
    2TRP    SC4  815   7.008   5.193   1.736
    3TYR     BB  816   6.713   4.653   2.292
    3TYR    SC1  817   6.571   4.412   2.413
    3TYR    SC2  818   6.505   4.179   2.533
    3TYR    SC3  819   6.386   4.250   2.301
    1TYR     BB  820   1.527   1.750   1.022
    1TYR    SC1  821   1.343   1.980   0.891
    1TYR    SC2  822   1.278   2.152   0.694
    1TYR    SC3  823   1.115   2.124   0.907
    2TRP     BB  824   1.523   1.533   0.804
    2TRP    SC1  825   1.753   1.337   0.797
    2TRP    SC2  826   1.990   1.208   0.802
    2TRP    SC3  827   1.960   1.431   0.652
    2TRP    SC4  828   2.199   1.304   0.660
    3TYR     BB  829   1.504   1.684   0.508
    3TYR    SC1  830   1.341   1.492   0.340
    3TYR    SC2  831   1.138   1.417   0.178
    3TYR    SC3  832   1.240   1.242   0.357
    1TYR     BB  833   6.762   2.118   6.467
    1TYR    SC1  834   6.709   1.811   6.509
    1TYR    SC2  835   6.754   1.548   6.465
    1TYR    SC3  836   6.568   1.625   6.644
    2TRP     BB  837   7.073   2.137   6.429
    2TRP    SC1  838   7.193   2.287   6.183
    2TRP    SC2  839   7.362   2.335   5.978
    2TRP    SC3  840   7.199   2.120   5.971
    2TRP    SC4  841   7.375   2.163   5.771
    3TYR     BB  842   7.230   1.831   6.403
    3TYR    SC1  843   7.131   1.716   6.676
    3TYR    SC2  844   7.006   1.557   6.854
    3TYR    SC3  845   6.994   1.825   6.881
    1TYR     BB  846   5.458   4.691   5.341
    1TYR    SC1  847   5.444   4.876   5.077
    1TYR    SC2  848   5.554   5.015   4.874
    1TYR    SC3  849   5.299   4.926   4.855
    2TRP     BB  850   5.546   4.402   5.228
    2TRP    SC1  851   5.824   4.326   5.343
    2TRP    SC2  852   6.092   4.343   5.366
    2TRP    SC3  853   5.934   4.524   5.490
    2TRP    SC4  854   6.203   4.545   5.508
    3TYR     BB  855   5.644   4.448   4.902
    3TYR    SC1  856   5.498   4.450   4.644
    3TYR    SC2  857   5.541   4.429   4.379
    3TYR    SC3  858   5.290   4.411   4.476
    1TYR     BB  859   0.420   1.916   2.738
    1TYR    SC1  860   0.117   1.854   2.682
    1TYR    SC2  861   7.978   1.628   2.631
    1TYR    SC3  862   7.876   1.814   2.798
    2TRP     BB  863   0.418   1.796   3.068
    2TRP    SC1  864   0.695   1.756   3.187
    2TRP    SC2  865   0.954   1.715   3.253
    2TRP    SC3  866   0.854   1.608   3.027
    2TRP    SC4  867   1.114   1.572   3.090
    3TYR     BB  868   0.191   1.593   3.112
    3TYR    SC1  869   7.986   1.769   3.278
    3TYR    SC2  870   7.843   1.791   3.506
    3TYR    SC3  871   0.027   1.979   3.443
    1TYR     BB  872   2.524   1.087   1.644
    1TYR    SC1  873   2.601   1.065   1.950
    1TYR    SC2  874   2.605   1.267   2.130
    1TYR    SC3  875   2.545   1.016   2.210
    2TRP     BB  876   2.284   1.322   1.699
    2TRP    SC1  877   2.188   1.562   1.574
    2TRP    SC2  878   2.112   1.820   1.551
    2TRP    SC3  879   2.363   1.746   1.484
    2TRP    SC4  880   2.286   2.004   1.456
    3TYR     BB  881   2.142   1.298   1.980
    3TYR    SC1  882   2.093   1.004   2.015
    3TYR    SC2  883   1.892   0.824   2.009
    3TYR    SC3  884   2.129   0.757   2.120
    1TYR     BB  885   6.591   5.184   3.911
    1TYR    SC1  886   6.840   5.313   3.749
    1TYR    SC2  887   7.051   5.461   3.669
    1TYR    SC3  888   6.860   5.392   3.491
    2TRP     BB  889   6.490   4.989   3.661
    2TRP    SC1  890   6.360   4.738   3.761
    2TRP    SC2  891   6.331   4.470   3.775
    2TRP    SC3  892   6.499   4.596   3.944
    2TRP    SC4  893   6.464   4.329   3.963
    3TYR     BB  894   6.757   4.877   3.521
    3TYR    SC1  895   6.785   5.010   3.250
    3TYR    SC2  896   6.986   5.142   3.127
    3TYR    SC3  897   6.734   5.161   3.032
    1TYR     BB  898   6.502   6.588   4.816
    1TYR    SC1  899   6.809   6.598   4.748
    1TYR    SC2  900   6.995   6.466   4.603
    1TYR    SC3  901   7.007   6.734   4.626
    2TRP     BB  902   6.394   6.470   4.540
    2TRP    SC1  903   6.429   6.156   4.557
    2TRP    SC2  904   6.413   5.913   4.440
    2TRP    SC3  905   6.625   6.072   4.391
    2TRP    SC4  906   6.601   5.836   4.262
    3TYR     BB  907   6.611   6.551   4.292
    3TYR    SC1  908   6.525   6.663   4.029
    3TYR    SC2  909   6.654   6.676   3.792
    3TYR    SC3  910   6.386   6.699   3.800
    1TYR     BB  911   3.637   0.447   1.524
    1TYR    SC1  912   3.499   0.647   1.317
    1TYR    SC2  913   3.282   0.703   1.167
    1TYR    SC3  914   3.464   0.895   1.216
    2TRP     BB  915   3.405   0.367   1.737
    2TRP    SC1  916   3.401   0.052   1.773
    2TRP    SC2  917   3.371   7.784   1.764
    2TRP    SC3  918   3.404   7.924   1.535
    2TRP    SC4  919   3.375   7.656   1.526
    3TYR     BB  920   3.113   0.377   1.528
    3TYR    SC1  921   3.035   0.671   1.565
    3TYR    SC2  922   2.959   0.846   1.756
    3TYR    SC3  923   2.999   0.931   1.503
    1TYR     BB  924   7.129   4.446   0.252
    1TYR    SC1  925   6.867   4.448   0.079
    1TYR    SC2  926   6.638   4.559   7.988
    1TYR    SC3  927   6.662   4.290   0.002
    2TRP     BB  928   7.336   4.301   0.024
    2TRP    SC1  929   7.594   4.481   0.049
    2TRP    SC2  930   7.814   4.636   0.024
    2TRP    SC3  931   7.685   4.548   7.804
    2TRP    SC4  932   7.906   4.702   7.779
    3TYR     BB  933   7.251   4.295   7.693
    3TYR    SC1  934   6.948   4.272   7.630
    3TYR    SC2  935   6.732   4.419   7.562
    3TYR    SC3  936   6.731   4.152   7.523
    1TYR     BB  937   1.052   2.701   3.469
    1TYR    SC1  938   0.744   2.646   3.498
    1TYR    SC2  939   0.531   2.776   3.600
    1TYR    SC3  940   0.496   2.584   3.413
    2TRP     BB  941   1.001   3.005   3.317
    2TRP    SC1  942   1.238   3.149   3.460
    2TRP    SC2  943   1.418   3.170   3.660
    2TRP    SC3  944   1.159   3.230   3.706
    2TRP    SC4  945   1.338   3.244   3.907
    3TYR     BB  946   0.677   3.067   3.203
    3TYR    SC1  947   0.538   2.847   3.023
    3TYR    SC2  948   0.311   2.703   2.996
    3TYR    SC3  949   0.494   2.706   2.797
    1TYR     BB  950   5.619   5.853   3.098
    1TYR    SC1  951   5.462   5.721   3.333
    1TYR    SC2  952   5.407   5.697   3.596
    1TYR    SC3  953   5.206   5.705   3.416
    2TRP     BB  954   5.427   6.143   3.059
    2TRP    SC1  955   5.624   6.380   3.080
    2TRP    SC2  956   5.772   6.604   3.102
    2TRP    SC3  957   5.553   6.571   3.256
    2TRP    SC4  958   5.698   6.799   3.274
    3TYR     BB  959   5.168   6.160   3.202
    3TYR    SC1  960   4.926   5.965   3.147
    3TYR    SC2  961   4.656   5.959   3.139
    3TYR    SC3  962   4.793   5.736   3.204
    1TYR     BB  963   5.291   4.216   0.562
    1TYR    SC1  964   5.134   4.003   0.748
    1TYR    SC2  965   4.929   3.835   0.800
    1TYR    SC3  966   5.139   3.849   0.970
    2TRP     BB  967   5.615   4.147   0.678
    2TRP    SC1  968   5.786   4.197   0.427
    2TRP    SC2  969   5.908   4.205   0.186
    2TRP    SC3  970   5.651   4.124   0.205
    2TRP    SC4  971   5.773   4.130   7.964
    3TYR     BB  972   5.636   3.926   0.864
    3TYR    SC1  973   5.576   3.967   1.173
    3TYR    SC2  974   5.639   3.912   1.429
    3TYR    SC3  975   5.382   3.960   1.361
    1TYR     BB  976   5.136   3.725   6.268
    1TYR    SC1  977   5.066   3.543   6.518
    1TYR    SC2  978   5.114   3.339   6.688
    1TYR    SC3  979   4.866   3.443   6.669
    2TRP     BB  980   5.071   4.014   6.432
    2TRP    SC1  981   5.334   4.068   6.595
    2TRP    SC2  982   5.572   4.045   6.721
    2TRP    SC3  983   5.389   3.847   6.741
    2TRP    SC4  984   5.628   3.823   6.864
    3TYR     BB  985   4.889   3.969   6.771
    3TYR    SC1  986   4.973   4.267   6.838
    3TYR    SC2  987   4.918   4.523   6.903
    3TYR    SC3  988   5.063   4.469   6.682
    1TYR     BB  989   7.748   6.472   3.882
    1TYR    SC1  990   7.830   6.216   3.739
    1TYR    SC2  991   7.827   6.007   3.568
    1TYR    SC3  992   0.062   6.112   3.647
    2TRP     BB  993   7.906   6.688   3.644
    2TRP    SC1  994   7.741   6.937   3.735
    2TRP    SC2  995   7.570   7.139   3.790
    2TRP    SC3  996   7.632   7.080   3.534
    2TRP    SC4  997   7.465   7.286   3.590
    3TYR     BB  998   7.961   6.523   3.347
    3TYR    SC1  999   0.258   6.429   3.367
    3TYR    SC2 1000   0.514   6.425   3.283
    3TYR    SC3 1001   0.457   6.385   3.544
    1TYR     BB 1002   6.534   3.485   6.355
    1TYR    SC1 1003   6.745   3.483   6.601
    1TYR    SC2 1004   6.822   3.561   6.848
    1TYR    SC3 1005   6.863   3.306   6.767
    2TRP     BB 1006   6.264   3.524   6.531
    2TRP    SC1 1007   5.994   3.447   6.416
    2TRP    SC2 1008   5.739   3.420   6.332
    2TRP    SC3 1009   5.791   3.547   6.564
    2TRP    SC4 1010   5.536   3.512   6.484
    3TYR     BB 1011   6.278   3.616   6.814
    3TYR    SC1 1012   6.407   3.416   7.015
    3TYR    SC2 1013   6.352   3.314   7.259
    3TYR    SC3 1014   6.579   3.243   7.131
    1TYR     BB 1015   5.742   0.500   5.616
    1TYR    SC1 1016   5.498   0.502   5.816
    1TYR    SC2 1017   5.364   0.444   6.043
    1TYR    SC3 1018   5.290   0.656   5.893
    2TRP     BB 1019   5.830   0.226   5.479
    2TRP    SC1 1020   6.115   0.265   5.364
    2TRP    SC2 1021   6.317   0.280   5.186
    2TRP    SC3 1022   6.115   0.459   5.177
    2TRP    SC4 1023   6.317   0.475   4.999
    3TYR     BB 1024   5.637   0.014   5.422
    3TYR    SC1 1025   5.393   0.033   5.632
    3TYR    SC2 1026   5.181   0.143   5.757
    3TYR    SC3 1027   5.255   7.889   5.814
    1TYR     BB 1028   6.285   1.385   3.241
    1TYR    SC1 1029   6.083   1.497   3.441
    1TYR    SC2 1030   5.897   1.481   3.636
    1TYR    SC3 1031   5.870   1.662   3.437
    2TRP     BB 1032   6.586   1.376   3.373
    2TRP    SC1 1033   6.742   1.131   3.256
    2TRP    SC2 1034   6.825   0.888   3.173
    2TRP    SC3 1035   6.565   0.958   3.147
    2TRP    SC4 1036   6.646   0.709   3.079
    3TYR     BB 1037   6.649   1.669   3.462
    3TYR    SC1 1038   6.446   1.742   3.672
    3TYR    SC2 1039   6.261   1.653   3.847
    3TYR    SC3 1040   6.374   1.896   3.882
    1TYR     BB 1041   3.026   7.829   6.201
    1TYR    SC1 1042   3.242   0.063   6.212
    1TYR    SC2 1043   3.348   0.300   6.285
    1TYR    SC3 1044   3.507   0.107   6.183
    2TRP     BB 1045   2.718   7.986   6.156
    2TRP    SC1 1046   2.532   7.744   6.069
    2TRP    SC2 1047   2.399   7.514   6.024
    2TRP    SC3 1048   2.580   7.528   6.223
    2TRP    SC4 1049   2.450   7.296   6.175
    3TYR     BB 1050   2.751   0.258   5.997
    3TYR    SC1 1051   2.651   0.519   6.136
    3TYR    SC2 1052   2.630   0.788   6.136
    3TYR    SC3 1053   2.488   0.642   6.313
    1TYR     BB 1054   4.702   6.455   1.038
    1TYR    SC1 1055   4.947   6.572   1.202
    1TYR    SC2 1056   5.093   6.795   1.245
    1TYR    SC3 1057   5.180   6.557   1.339
    2TRP     BB 1058   4.522   6.262   1.254
    2TRP    SC1 1059   4.249   6.223   1.094
    2TRP    SC2 1060   3.981   6.256   1.081
    2TRP    SC3 1061   4.146   6.462   1.020
    2TRP    SC4 1062   3.878   6.495   1.008
    3TYR     BB 1063   4.420   6.471   1.499
    3TYR    SC1 1064   4.618   6.706   1.495
    3TYR    SC2 1065   4.672   6.970   1.507
    3TYR    SC3 1066   4.845   6.792   1.613
    1TYR     BB 1067   0.496   3.122   4.977
    1TYR    SC1 1068   0.495   3.149   5.289
    1TYR    SC2 1069   0.434   3.331   5.479
    1TYR    SC3 1070   0.341   3.079   5.499
    2TRP     BB 1071   0.128   3.211   4.983
    2TRP    SC1 1072   0.110   3.366   4.712
    2TRP    SC2 1073   0.026   3.513   4.501
    2TRP    SC3 1074   0.016   3.616   4.751
    2TRP    SC4 1075   7.930   3.762   4.541
    3TYR     BB 1076   0.018   3.429   5.235
    3TYR    SC1 1077   7.770   3.340   5.389
    3TYR    SC2 1078   7.500   3.352   5.389
    3TYR    SC3 1079   7.631   3.239   5.597
    1TYR     BB 1080   4.035   2.325   4.635
    1TYR    SC1 1081   4.046   2.606   4.771
    1TYR    SC2 1082   3.851   2.776   4.850
    1TYR    SC3 1083   4.109   2.857   4.850
    2TRP     BB 1084   3.954   2.139   4.897
    2TRP    SC1 1085   3.749   1.926   4.817
    2TRP    SC2 1086   3.530   1.801   4.721
    2TRP    SC3 1087   3.510   1.962   4.937
    2TRP    SC4 1088   3.288   1.850   4.831
    3TYR     BB 1089   3.835   2.326   5.116
    3TYR    SC1 1090   3.929   2.309   5.400
    3TYR    SC2 1091   3.869   2.359   5.658
    3TYR    SC3 1092   4.122   2.296   5.589
    1TYR     BB 1093   1.418   7.052   3.873
    1TYR    SC1 1094   1.176   6.903   4.004
    1TYR    SC2 1095   1.080   6.662   4.078
    1TYR    SC3 1096   1.020   6.881   4.224
    2TRP     BB 1097   1.567   7.165   4.164
    2TRP    SC1 1098   1.878   7.136   4.119
    2TRP    SC2 1099   2.146   7.110   4.142
    2TRP    SC3 1100   1.982   6.965   4.300
    2TRP    SC4 1101   2.249   6.940   4.325
    3TYR     BB 1102   1.483   7.009   4.416
    3TYR    SC1 1103   1.326   7.001   4.671
    3TYR    SC2 1104   1.123   6.906   4.822
    3TYR    SC3 1105   1.361   6.964   4.937
    1TYR     BB 1106   0.287   3.816   5.503
    1TYR    SC1 1107   0.590   3.786   5.452
    1TYR    SC2 1108   0.828   3.851   5.563
    1TYR    SC3 1109   0.788   3.603   5.465
    2TRP     BB 1110   0.356   3.819   5.864
    2TRP    SC1 1111   0.098   3.957   5.949
    2TRP    SC2 1112   7.943   4.152   6.052
    2TRP    SC3 1113   0.076   4.193   5.821
    2TRP    SC4 1114   7.930   4.393   5.930
    3TYR     BB 1115   0.611   3.883   6.053
    3TYR    SC1 1116   0.868   3.737   6.002
    3TYR    SC2 1117   1.085   3.620   6.110
    3TYR    SC3 1118   1.009   3.556   5.859
    1TYR     BB 1119   1.438   0.291   6.464
    1TYR    SC1 1120   1.523   0.004   6.548
    1TYR    SC2 1121   1.444   7.780   6.677
    1TYR    SC3 1122   1.595   7.761   6.454
    2TRP     BB 1123   1.227   0.212   6.224
    2TRP    SC1 1124   1.260   0.410   5.990
    2TRP    SC2 1125   1.260   0.612   5.812
    2TRP    SC3 1126   1.197   0.660   6.070
    2TRP    SC4 1127   1.195   0.862   5.891
    3TYR     BB 1128   1.226   7.925   6.116
    3TYR    SC1 1129   1.145   7.679   6.282
    3TYR    SC2 1130   1.035   7.440   6.222
    3TYR    SC3 1131   1.216   7.460   6.422
    1TYR     BB 1132   2.524   4.225   4.521
    1TYR    SC1 1133   2.359   4.368   4.287
    1TYR    SC2 1134   2.373   4.571   4.109
    1TYR    SC3 1135   2.246   4.342   4.043
    2TRP     BB 1136   2.797   4.161   4.324
    2TRP    SC1 1137   3.053   4.264   4.453
    2TRP    SC2 1138   3.318   4.311   4.477
    2TRP    SC3 1139   3.166   4.473   4.324
    2TRP    SC4 1140   3.432   4.513   4.339
    3TYR     BB 1141   2.793   4.309   4.020
    3TYR    SC1 1142   2.602   4.112   3.865
    3TYR    SC2 1143   2.585   3.878   3.732
    3TYR    SC3 1144   2.383   4.057   3.716
    1TYR     BB 1145   6.280   2.923   0.938
    1TYR    SC1 1146   6.562   2.802   0.971
    1TYR    SC2 1147   6.828   2.778   1.010
    1TYR    SC3 1148   6.707   2.639   0.813
    2TRP     BB 1149   6.083   2.664   0.997
    2TRP    SC1 1150   6.109   2.643   1.304
    2TRP    SC2 1151   6.256   2.511   1.487
    2TRP    SC3 1152   6.318   2.766   1.421
    2TRP    SC4 1153   6.464   2.635   1.607
    3TYR     BB 1154   6.266   2.375   0.941
    3TYR    SC1 1155   6.097   2.190   0.767
    3TYR    SC2 1156   6.028   1.934   0.717
    3TYR    SC3 1157   6.061   2.107   0.513
    1TYR     BB 1158   1.959   5.334   5.410
    1TYR    SC1 1159   1.975   5.056   5.280
    1TYR    SC2 1160   1.789   4.882   5.192
    1TYR    SC3 1161   2.013   4.924   5.047
    2TRP     BB 1162   1.761   5.445   5.088
    2TRP    SC1 1163   1.493   5.402   5.245
    2TRP    SC2 1164   1.238   5.346   5.314
    2TRP    SC3 1165   1.405   5.147   5.238
    2TRP    SC4 1166   1.149   5.091   5.305
    3TYR     BB 1167   1.826   5.301   4.779
    3TYR    SC1 1168   1.892   5.349   4.470
    3TYR    SC2 1169   1.857   5.244   4.223
    3TYR    SC3 1170   2.006   5.467   4.256
    1TYR     BB 1171   3.135   4.758   5.762
    1TYR    SC1 1172   3.109   4.439   5.755
    1TYR    SC2 1173   3.227   4.200   5.797
    1TYR    SC3 1174   2.958   4.216   5.775
    2TRP     BB 1175   3.142   4.769   6.108
    2TRP    SC1 1176   3.312   5.013   6.211
    2TRP    SC2 1177   3.494   5.190   6.302
    2TRP    SC3 1178   3.544   4.926   6.317
    2TRP    SC4 1179   3.728   5.104   6.405
    3TYR     BB 1180   3.215   4.504   6.250
    3TYR    SC1 1181   3.087   4.220   6.248
    3TYR    SC2 1182   2.936   4.013   6.161
    3TYR    SC3 1183   3.037   4.011   6.412
    1TYR     BB 1184   4.334   0.905   2.386
    1TYR    SC1 1185   4.144   1.036   2.181
    1TYR    SC2 1186   3.900   1.152   2.188
    1TYR    SC3 1187   4.036   1.136   1.955
    2TRP     BB 1188   4.220   1.076   2.663
    2TRP    SC1 1189   4.304   0.927   2.906
    2TRP    SC2 1190   4.240   0.868   3.162
    2TRP    SC3 1191   4.146   0.715   2.960
    2TRP    SC4 1192   4.065   0.668   3.213
    3TYR     BB 1193   4.099   1.358   2.588
    3TYR    SC1 1194   4.297   1.434   2.353
    3TYR    SC2 1195   4.537   1.530   2.272
    3TYR    SC3 1196   4.351   1.459   2.089
    1TYR     BB 1197   0.379   6.107   5.980
    1TYR    SC1 1198   0.376   6.381   5.840
    1TYR    SC2 1199   0.482   6.569   5.677
    1TYR    SC3 1200   0.215   6.562   5.721
    2TRP     BB 1201   0.245   5.914   5.709
    2TRP    SC1 1202   0.415   5.775   5.489
    2TRP    SC2 1203   0.632   5.713   5.340
    2TRP    SC3 1204   0.585   5.583   5.572
    2TRP    SC4 1205   0.806   5.527   5.428
    3TYR     BB 1206   7.937   5.905   5.557
    3TYR    SC1 1207   7.745   5.757   5.751
    3TYR    SC2 1208   7.490   5.770   5.840
    3TYR    SC3 1209   7.645   5.558   5.903
    1TYR     BB 1210   4.494   5.416   3.935
    1TYR    SC1 1211   4.522   5.324   3.635
    1TYR    SC2 1212   4.401   5.179   3.441
    1TYR    SC3 1213   4.625   5.319   3.385
    2TRP     BB 1214   4.195   5.535   3.948
    2TRP    SC1 1215   4.164   5.705   4.197
    2TRP    SC2 1216   4.032   5.808   4.409
    2TRP    SC3 1217   4.143   5.563   4.426
    2TRP    SC4 1218   4.019   5.670   4.641
    3TYR     BB 1219   4.052   5.523   3.695
    3TYR    SC1 1220   3.841   5.694   3.550
    3TYR    SC2 1221   3.584   5.774   3.533
    3TYR    SC3 1222   3.723   5.716   3.309
    1TYR     BB 1223   0.528   2.441   1.144
    1TYR    SC1 1224   0.620   2.161   1.006
    1TYR    SC2 1225   0.678   2.012   0.789
    1TYR    SC3 1226   0.719   1.912   1.036
    2TRP     BB 1227   0.697   2.653   0.964
    2TRP    SC1 1228   0.544   2.920   0.916
    2TRP    SC2 1229   0.457   3.165   0.989
    2TRP    SC3 1230   0.334   2.944   1.083
    2TRP    SC4 1231   0.254   3.188   1.166
    3TYR     BB 1232   0.829   2.515   0.695
    3TYR    SC1 1233   0.838   2.769   0.505
    3TYR    SC2 1234   0.820   3.038   0.516
    3TYR    SC3 1235   0.962   2.921   0.319
    1TYR     BB 1236   3.517   3.452   7.075
    1TYR    SC1 1237   3.379   3.612   6.847
    1TYR    SC2 1238   3.155   3.680   6.712
    1TYR    SC3 1239   3.397   3.750   6.615
    2TRP     BB 1240   3.264   3.300   7.227
    2TRP    SC1 1241   3.332   2.999   7.178
    2TRP    SC2 1242   3.359   2.731   7.192
    2TRP    SC3 1243   3.113   2.842   7.198
    2TRP    SC4 1244   3.141   2.574   7.212
    3TYR     BB 1245   3.018   3.511   7.258
    3TYR    SC1 1246   3.137   3.792   7.207
    3TYR    SC2 1247   3.318   3.971   7.118
    3TYR    SC3 1248   3.158   4.033   7.327
    1TYR     BB 1249   3.025   6.143   5.450
    1TYR    SC1 1250   2.765   6.073   5.611
    1TYR    SC2 1251   2.545   6.117   5.762
    1TYR    SC3 1252   2.531   5.955   5.546
    2TRP     BB 1253   2.913   6.020   5.138
    2TRP    SC1 1254   3.016   6.226   4.942
    2TRP    SC2 1255   3.082   6.318   4.697
    2TRP    SC3 1256   3.273   6.285   4.885
    2TRP    SC4 1257   3.340   6.375   4.639
    3TYR     BB 1258   2.575   6.049   5.011
    3TYR    SC1 1259   2.332   5.903   5.115
    3TYR    SC2 1260   2.069   5.848   5.088
    3TYR    SC3 1261   2.206   5.753   5.301
    1TYR     BB 1262   4.396   5.302   6.436
    1TYR    SC1 1263   4.398   5.502   6.200
    1TYR    SC2 1264   4.532   5.693   6.064
    1TYR    SC3 1265   4.276   5.633   5.998
    2TRP     BB 1266   4.729   5.350   6.535
    2TRP    SC1 1267   4.750   5.223   6.807
    2TRP    SC2 1268   4.752   5.058   7.020
    2TRP    SC3 1269   4.518   5.123   6.902
    2TRP    SC4 1270   4.520   4.955   7.113
    3TYR     BB 1271   4.808   5.617   6.489
    3TYR    SC1 1272   4.926   5.802   6.691
    3TYR    SC2 1273   4.944   5.970   6.902
    3TYR    SC3 1274   5.162   5.918   6.751
    1TYR     BB 1275   1.057   5.338   4.071
    1TYR    SC1 1276   1.276   5.517   4.217
    1TYR    SC2 1277   1.358   5.766   4.283
    1TYR    SC3 1278   1.535   5.563   4.276
    2TRP     BB 1279   0.868   5.184   4.286
    2TRP    SC1 1280   0.611   5.070   4.165
    2TRP    SC2 1281   0.368   5.093   4.050
    2TRP    SC3 1282   0.591   5.121   3.900
    2TRP    SC4 1283   0.347   5.144   3.785
    3TYR     BB 1284   0.883   5.264   4.561
    3TYR    SC1 1285   1.154   5.359   4.637
    3TYR    SC2 1286   1.329   5.301   4.835
    3TYR    SC3 1287   1.361   5.525   4.688
    1TYR     BB 1288   2.686   2.665   5.071
    1TYR    SC1 1289   2.383   2.655   5.116
    1TYR    SC2 1290   2.146   2.529   5.083
    1TYR    SC3 1291   2.153   2.795   5.132
    2TRP     BB 1292   2.693   3.011   4.954
    2TRP    SC1 1293   2.926   3.123   5.123
    2TRP    SC2 1294   3.029   3.189   5.364
    2TRP    SC3 1295   3.049   2.935   5.274
    2TRP    SC4 1296   3.137   2.998   5.521
    3TYR     BB 1297   2.439   3.211   5.062
    3TYR    SC1 1298   2.145   3.316   5.048
    3TYR    SC2 1299   1.993   3.479   5.200
    3TYR    SC3 1300   1.982   3.496   4.931
    4W        W 1301   0.352   1.656   1.938
    5W        W 1302   3.818   5.585   1.633
    6W        W 1303   5.403   0.089   1.300
    7W        W 1304   5.505   0.140   4.170
    8W        W 1305   2.595   3.333   3.048
    9W        W 1306   3.097   5.697   3.339
   10W        W 1307   3.729   6.384   2.786
   11W        W 1308   2.612   3.650   5.989
   12W        W 1309   3.567   3.203   5.433
   13W        W 1310   0.854   6.438   6.006
   14W        W 1311   6.050   6.175   3.189
   15W        W 1312   7.183   3.245   2.072
   16W        W 1313   4.541   7.003   6.319
   17W        W 1314   3.953   2.116   0.956
   18W        W 1315   4.635   4.373   3.743
   19W        W 1316   4.148   3.952   1.205
   20W        W 1317   3.222   5.709   3.852
   21W        W 1318   2.740   6.377   3.617
   22W        W 1319   4.120   5.287   1.324
   23W        W 1320   0.123   3.074   4.276
   24W        W 1321   5.551   2.142   5.275
   25W        W 1322   3.178   0.378   4.935
   26W        W 1323   1.384   4.537   3.756
   27W        W 1324   3.444   2.187   5.392
   28W        W 1325   0.361   6.900   3.531
   29W        W 1326   1.538   7.530   5.994
   30W        W 1327   7.613   1.474   3.134
   31W        W 1328   0.342   4.638   4.260
   32W        W 1329   7.715   6.667   5.847
   33W        W 1330   3.103   1.825   1.358
   34W        W 1331   4.584   0.486   4.361
   35W        W 1332   3.621   6.059   1.468
   36W        W 1333   3.289   3.954   2.448
   37W        W 1334   5.383   0.533   3.882
   38W        W 1335   7.424   7.363   2.415
   39W        W 1336   2.459   0.955   4.018
   40W        W 1337   3.746   4.641   6.677
   41W        W 1338   0.016   2.830   3.829
   42W        W 1339   4.645   6.184   2.340
   43W        W 1340   1.052   2.286   6.061
   44W        W 1341   4.651   1.248   7.849
   45W        W 1342   2.563   6.578   1.018
   46W        W 1343   6.544   1.247   3.879
   47W        W 1344   1.523   2.769   3.962
   48W        W 1345   1.790   6.240   3.873
   49W        W 1346   5.228   5.723   0.622
   50W        W 1347   2.189   4.352   2.808
   51W        W 1348   6.278   1.647   4.784
   52W        W 1349   0.982   1.953   7.870
   53W        W 1350   1.330   6.936   0.762
   54W        W 1351   2.322   7.116   1.758
   55W        W 1352   6.327   3.675   3.874
   56W        W 1353   3.521   3.434   4.364
   57W        W 1354   4.688   0.565   2.195
   58W        W 1355   6.844   7.888   0.644
   59W        W 1356   6.198   1.033   0.959
   60W        W 1357   7.461   3.266   0.623
   61W        W 1358   5.720   4.879   6.930
   62W        W 1359   2.337   2.293   1.869
   63W        W 1360   6.300   4.742   7.633
   64W        W 1361   1.616   1.735   1.514
   65W        W 1362   6.045   2.144   2.311
   66W        W 1363   5.303   6.015   3.939
   67W        W 1364   1.945   2.323   6.984
   68W        W 1365   5.226   2.634   1.741
   69W        W 1366   6.365   7.617   1.334
   70W        W 1367   1.636   4.264   2.963
   71W        W 1368   7.106   6.464   5.118
   72W        W 1369   1.698   0.603   6.787
   73W        W 1370   4.243   4.186   4.221
   74W        W 1371   2.133   4.961   5.747
   75W        W 1372   0.477   7.075   1.230
   76W        W 1373   5.978   5.832   5.296
   77W        W 1374   5.366   4.025   4.950
   78W        W 1375   2.187   3.528   0.850
   79W        W 1376   6.053   4.165   1.467
   80W        W 1377   2.408   2.426   2.369
   81W        W 1378   6.277   0.314   2.305
   82W        W 1379   0.579   4.639   3.813
   83W        W 1380   2.340   4.336   6.464
   84W        W 1381   6.446   4.905   1.443
   85W        W 1382   3.616   4.614   4.810
   86W        W 1383   7.887   3.891   3.635
   87W        W 1384   6.216   6.655   1.502
   88W        W 1385   7.133   0.141   6.807
   89W        W 1386   3.063   4.423   0.247
   90W        W 1387   4.263   0.797   4.599
   91W        W 1388   3.468   5.062   4.966
   92W        W 1389   0.044   6.864   1.450
   93W        W 1390   4.401   0.929   7.462
   94W        W 1391   0.532   3.364   5.948
   95W        W 1392   5.285   7.286   5.175
   96W        W 1393   2.123   0.774   5.976
   97W        W 1394   3.988   2.390   4.009
   98W        W 1395   1.277   0.600   0.773
   99W        W 1396   2.641   7.031   6.597
  100W        W 1397   2.926   7.595   1.230
  101W        W 1398   3.690   4.573   3.040
  102W        W 1399   3.566   4.660   7.142
  103W        W 1400   2.619   5.018   3.473
  104W        W 1401   0.999   6.113   5.165
  105W        W 1402   6.801   3.284   4.939
  106W        W 1403   3.967   4.947   5.065
  107W        W 1404   5.691   6.879   7.143
  108W        W 1405   3.447   0.971   2.211
  109W        W 1406   2.816   2.658   2.160
  110W        W 1407   5.046   2.644   7.389
  111W        W 1408   7.112   5.433   2.241
  112W        W 1409   5.991   7.716   5.768
  113W        W 1410   2.482   2.443   1.379
  114W        W 1411   6.422   6.596   6.274
  115W        W 1412   4.725   5.423   2.790
  116W        W 1413   3.380   6.742   1.085
  117W        W 1414   4.182   6.651   4.588
  118W        W 1415   4.033   3.876   0.671
  119W        W 1416   1.416   2.366   5.730
  120W        W 1417   3.282   4.304   2.892
  121W        W 1418   3.717   4.173   2.641
  122W        W 1419   2.820   1.228   4.253
  123W        W 1420   6.876   5.107   1.259
  124W        W 1421   4.869   3.011   1.628
  125W        W 1422   1.985   6.760   3.805
  126W        W 1423   3.492   5.587   0.564
  127W        W 1424   6.095   5.709   2.971
  128W        W 1425   0.711   4.351   1.091
  129W        W 1426   0.836   4.560   1.933
  130W        W 1427   4.689   5.060   6.120
  131W        W 1428   3.851   7.806   3.192
  132W        W 1429   6.425   2.896   7.509
  133W        W 1430   5.456   5.750   1.083
  134W        W 1431   0.947   1.224   7.128
  135W        W 1432   2.753   4.751   1.469
  136W        W 1433   6.751   0.882   1.739
  137W        W 1434   1.291   0.770   6.543
  138W        W 1435   6.996   5.143   4.719
  139W        W 1436   0.533   6.664   1.529
  140W        W 1437   6.154   3.767   7.953
  141W        W 1438   1.269   5.042   7.203
  142W        W 1439   5.910   1.040   0.523
  143W        W 1440   2.764   5.975   1.966
  144W        W 1441   7.207   6.526   6.620
  145W        W 1442   0.598   7.073   2.707
  146W        W 1443   3.721   3.754   1.050
  147W        W 1444   1.471   6.256   5.435
  148W        W 1445   2.422   6.655   1.953
  149W        W 1446   6.438   2.763   2.884
  150W        W 1447   5.667   1.734   7.729
  151W        W 1448   6.976   4.839   6.861
  152W        W 1449   2.951   4.193   3.541
  153W        W 1450   4.197   7.992   3.525
  154W        W 1451   4.631   3.795   6.353
  155W        W 1452   3.110   4.816   4.701
  156W        W 1453   5.784   3.195   4.544
  157W        W 1454   1.516   1.522   5.344
  158W        W 1455   1.442   6.638   1.650
  159W        W 1456   3.796   4.336   4.021
  160W        W 1457   3.327   1.397   1.074
  161W        W 1458   1.646   3.924   2.218
  162W        W 1459   6.137   4.063   0.815
  163W        W 1460   7.393   4.113   2.102
  164W        W 1461   4.340   0.736   1.864
  165W        W 1462   2.574   3.201   0.959
  166W        W 1463   1.592   2.663   2.579
  167W        W 1464   0.729   2.598   4.958
  168W        W 1465   2.386   7.542   3.994
  169W        W 1466   2.511   6.386   0.566
  170W        W 1467   0.547   2.162   1.972
  171W        W 1468   1.809   0.449   5.682
  172W        W 1469   5.278   7.589   4.785
  173W        W 1470   6.760   2.643   0.308
  174W        W 1471   5.945   2.318   4.703
  175W        W 1472   3.508   3.938   4.202
  176W        W 1473   2.094   4.635   0.812
  177W        W 1474   5.544   6.953   4.294
  178W        W 1475   3.126   2.624   0.312
  179W        W 1476   0.236   4.719   0.309
  180W        W 1477   3.694   2.426   1.864
  181W        W 1478   1.217   3.531   2.700
  182W        W 1479   6.730   1.120   6.764
  183W        W 1480   2.421   4.956   7.224
  184W        W 1481   4.330   6.519   6.242
  185W        W 1482   0.128   0.866   2.533
  186W        W 1483   5.237   6.441   3.638
  187W        W 1484   6.459   1.353   6.118
  188W        W 1485   6.781   6.113   4.893
  189W        W 1486   0.730   6.933   2.076
  190W        W 1487   0.628   4.212   0.554
  191W        W 1488   1.984   2.626   3.811
  192W        W 1489   1.254   7.766   1.065
  193W        W 1490   1.186   0.332   3.870
  194W        W 1491   1.016   3.751   6.940
  195W        W 1492   7.473   5.142   3.082
  196W        W 1493   7.018   2.726   7.317
  197W        W 1494   3.649   1.894   5.789
  198W        W 1495   6.086   7.350   7.042
  199W        W 1496   1.542   5.072   3.120
  200W        W 1497   3.730   1.176   3.907
  201W        W 1498   1.752   4.382   1.987
  202W        W 1499   0.895   1.596   4.218
  203W        W 1500   5.984   7.552   0.552
  204W        W 1501   6.011   3.247   0.158
  205W        W 1502   2.742   5.600   4.765
  206W        W 1503   1.848   5.334   1.624
  207W        W 1504   3.671   3.992   3.652
  208W        W 1505   2.764   2.150   2.125
  209W        W 1506   7.144   7.226   1.068
  210W        W 1507   3.213   1.895   6.123
  211W        W 1508   7.427   2.467   6.600
  212W        W 1509   1.284   4.264   5.031
  213W        W 1510   1.601   4.691   0.959
  214W        W 1511   4.917   5.881   2.654
  215W        W 1512   2.377   1.481   4.245
  216W        W 1513   1.107   2.384   0.257
  217W        W 1514   1.489   3.646   0.445
  218W        W 1515   2.309   5.058   4.197
  219W        W 1516   6.442   3.585   4.765
  220W        W 1517   4.879   0.538   5.609
  221W        W 1518   2.287   6.554   5.788
  222W        W 1519   1.905   2.794   4.300
  223W        W 1520   1.419   4.038   3.938
  224W        W 1521   1.019   4.939   0.265
  225W        W 1522   6.150   1.595   5.813
  226W        W 1523   6.572   4.050   3.042
  227W        W 1524   1.880   4.436   3.708
  228W        W 1525   1.428   2.771   0.106
  229W        W 1526   0.991   7.649   2.232
  230W        W 1527   3.578   4.681   0.980
  231W        W 1528   4.754   5.839   1.550
  232W        W 1529   3.692   0.696   4.156
  233W        W 1530   2.972   7.429   1.734
  234W        W 1531   1.851   4.257   1.053
  235W        W 1532   1.284   4.594   2.661
  236W        W 1533   2.401   1.517   3.402
  237W        W 1534   5.333   6.870   1.724
  238W        W 1535   5.911   4.749   4.567
  239W        W 1536   5.778   3.442   2.620
  240W        W 1537   7.780   5.393   2.770
  241W        W 1538   5.057   0.937   3.811
  242W        W 1539   5.878   4.424   6.797
  243W        W 1540   1.480   5.196   0.204
  244W        W 1541   0.716   0.521   3.682
  245W        W 1542   0.942   4.243   1.549
  246W        W 1543   7.238   5.022   3.539
  247W        W 1544   0.409   5.070   5.512
  248W        W 1545   4.485   5.817   3.626
  249W        W 1546   4.993   4.741   7.352
  250W        W 1547   1.385   3.364   1.293
  251W        W 1548   1.571   4.179   5.450
  252W        W 1549   6.878   7.444   2.376
  253W        W 1550   1.181   5.537   3.593
  254W        W 1551   5.348   3.927   7.768
  255W        W 1552   6.249   5.695   4.871
  256W        W 1553   3.096   4.499   7.102
  257W        W 1554   4.299   3.642   1.587
  258W        W 1555   5.365   5.967   7.640
  259W        W 1556   2.908   4.602   3.230
  260W        W 1557   4.274   0.489   3.616
  261W        W 1558   4.760   0.827   4.699
  262W        W 1559   3.821   3.804   1.575
  263W        W 1560   1.154   5.467   0.513
  264W        W 1561   0.534   2.085   3.517
  265W        W 1562   2.637   2.734   3.013
  266W        W 1563   3.274   6.986   0.656
  267W        W 1564   5.332   5.761   5.824
  268W        W 1565   0.252   6.607   1.042
  269W        W 1566   1.880   1.372   1.269
  270W        W 1567   7.684   4.769   2.753
  271W        W 1568   6.803   5.656   3.041
  272W        W 1569   2.872   4.079   6.886
  273W        W 1570   0.935   5.253   1.620
  274W        W 1571   0.593   5.329   1.199
  275W        W 1572   2.240   4.547   5.265
  276W        W 1573   4.636   7.023   4.544
  277W        W 1574   7.441   4.089   2.627
  278W        W 1575   4.586   0.796   6.546
  279W        W 1576   6.360   1.016   1.455
  280W        W 1577   0.487   4.299   3.412
  281W        W 1578   1.934   2.343   6.459
  282W        W 1579   4.918   2.871   0.785
  283W        W 1580   2.568   2.703   5.962
  284W        W 1581   0.535   3.943   7.096
  285W        W 1582   2.005   0.901   6.473
  286W        W 1583   0.613   5.989   4.842
  287W        W 1584   4.625   4.295   6.476
  288W        W 1585   2.763   4.325   2.821
  289W        W 1586   5.604   3.883   2.372
  290W        W 1587   6.651   4.487   3.262
  291W        W 1588   5.038   5.469   1.724
  292W        W 1589   1.779   1.407   2.770
  293W        W 1590   2.329   5.342   2.506
  294W        W 1591   6.699   7.034   4.965
  295W        W 1592   2.167   6.833   3.310
  296W        W 1593   6.390   2.014   7.403
  297W        W 1594   1.006   4.141   0.060
  298W        W 1595   5.719   4.909   3.938
  299W        W 1596   0.741   2.543   6.790
  300W        W 1597   2.967   1.781   0.369
  301W        W 1598   6.734   5.183   5.555
  302W        W 1599   2.900   5.859   7.164
  303W        W 1600   6.930   6.773   1.243
  304W        W 1601   4.850   1.447   6.852
  305W        W 1602   6.540   3.748   0.731
  306W        W 1603   1.103   4.878   2.203
  307W        W 1604   4.995   2.171   3.300
  308W        W 1605   3.713   5.628   2.289
  309W        W 1606   6.557   3.940   6.535
  310W        W 1607   2.169   6.192   6.102
  311W        W 1608   1.261   2.469   5.245
  312W        W 1609   1.742   4.360   2.494
  313W        W 1610   2.342   1.927   4.564
  314W        W 1611   6.103   1.559   6.422
  315W        W 1612   1.281   6.357   2.284
  316W        W 1613   1.031   1.574   0.813
  317W        W 1614   2.730   1.410   6.465
  318W        W 1615   3.553   1.998   3.160
  319W        W 1616   7.194   4.783   5.499
  320W        W 1617   6.180   1.478   5.301
  321W        W 1618   2.695   3.616   6.892
  322W        W 1619   6.540   7.442   6.842
  323W        W 1620   5.942   6.303   7.128
  324W        W 1621   7.856   3.065   0.895
  325W        W 1622   2.447   5.001   1.154
  326W        W 1623   5.577   2.986   1.902
  327W        W 1624   5.821   3.307   3.186
  328W        W 1625   4.971   5.619   7.637
  329W        W 1626   4.451   2.966   4.399
  330W        W 1627   0.996   4.745   1.444
  331W        W 1628   2.735   5.632   6.506
  332W        W 1629   6.211   1.695   2.129
  333W        W 1630   5.819   5.381   1.048
  334W        W 1631   5.443   1.437   3.205
  335W        W 1632   5.434   3.743   0.418
  336W        W 1633   4.292   3.058   0.923
  337W        W 1634   0.839   5.397   6.343
  338W        W 1635   0.078   2.041   4.200
  339W        W 1636   7.632   3.307   4.870
  340W        W 1637   4.083   5.176   5.508
  341W        W 1638   4.900   1.611   0.499
  342W        W 1639   4.446   3.886   2.054
  343W        W 1640   2.895   0.280   5.503
  344W        W 1641   6.311   2.299   2.708
  345W        W 1642   2.294   5.360   5.013
  346W        W 1643   2.494   4.477   0.523
  347W        W 1644   2.048   3.029   0.918
  348W        W 1645   7.907   4.186   5.351
  349W        W 1646   5.757   5.814   7.319
  350W        W 1647   7.635   5.583   1.568
  351W        W 1648   5.235   3.823   2.704
  352W        W 1649   7.092   3.951   7.096
  353W        W 1650   4.617   4.734   3.296
  354W        W 1651   1.019   2.054   2.882
  355W        W 1652   6.374   4.816   4.792
  356W        W 1653   4.309   0.540   6.168
  357W        W 1654   1.955   4.913   1.251
  358W        W 1655   2.515   4.468   2.415
  359W        W 1656   0.482   0.466   2.662
  360W        W 1657   7.571   1.135   1.203
  361W        W 1658   5.631   7.044   6.364
  362W        W 1659   7.270   6.441   1.406
  363W        W 1660   3.812   5.243   4.136
  364W        W 1661   6.704   1.701   1.949
  365W        W 1662   3.332   1.122   3.569
  366W        W 1663   0.427   3.403   1.591
  367W        W 1664   0.454   1.074   1.282
  368W        W 1665   1.401   0.639   5.318
  369W        W 1666   5.157   4.645   2.059
  370W        W 1667   1.709   4.899   3.576
  371W        W 1668   1.827   2.967   3.380
  372W        W 1669   0.228   2.711   5.113
  373W        W 1670   2.630   3.921   7.307
  374W        W 1671   1.049   7.605   3.148
  375W        W 1672   6.331   5.697   6.193
  376W        W 1673   1.267   3.643   4.284
  377W        W 1674   2.566   6.979   5.750
  378W        W 1675   0.708   5.678   0.347
  379W        W 1676   0.960   2.125   5.583
  380W        W 1677   2.982   6.713   3.320
  381W        W 1678   1.969   3.402   0.414
  382W        W 1679   7.579   2.482   4.968
  383W        W 1680   6.322   3.779   7.468
  384W        W 1681   5.068   1.170   1.548
  385W        W 1682   4.327   2.025   5.205
  386W        W 1683   5.950   2.565   7.362
  387W        W 1684   1.879   0.437   1.276
  388W        W 1685   3.795   2.057   0.458
  389W        W 1686   6.363   4.960   5.294
  390W        W 1687   7.963   6.143   6.983
  391W        W 1688   1.053   1.941   3.831
  392W        W 1689   7.561   1.864   2.411
  393W        W 1690   2.419   2.120   6.759
  394W        W 1691   2.736   1.222   3.052
  395W        W 1692   0.600   4.192   4.264
  396W        W 1693   3.504   2.400   4.721
  397W        W 1694   4.255   3.210   6.888
  398W        W 1695   2.821   4.897   6.910
  399W        W 1696   5.191   3.330   1.937
  400W        W 1697   3.314   6.517   3.016
  401W        W 1698   7.038   7.824   6.420
  402W        W 1699   0.906   3.298   1.739
  403W        W 1700   0.855   2.172   1.445
  404W        W 1701   6.554   4.778   6.544
  405W        W 1702   4.339   6.721   3.346
  406W        W 1703   1.714   4.868   6.132
  407W        W 1704   5.744   0.101   5.953
  408W        W 1705   5.371   2.877   5.247
  409W        W 1706   2.108   4.718   0.266
  410W        W 1707   5.922   6.275   4.503
  411W        W 1708   1.004   1.875   0.396
  412W        W 1709   2.141   3.629   6.199
  413W        W 1710   7.552   4.411   0.707
  414W        W 1711   4.273   6.235   4.244
  415W        W 1712   4.117   6.460   1.974
  416W        W 1713   4.808   4.012   5.553
  417W        W 1714   1.145   1.174   7.600
  418W        W 1715   1.227   1.004   1.695
  419W        W 1716   3.015   4.742   7.824
  420W        W 1717   5.206   4.799   0.818
  421W        W 1718   3.573   7.856   4.093
  422W        W 1719   2.805   7.796   2.109
  423W        W 1720   6.780   2.649   7.784
  424W        W 1721   1.587   0.138   7.028
  425W        W 1722   1.511   5.573   5.872
  426W        W 1723   3.335   4.278   6.712
  427W        W 1724   5.962   3.403   5.700
  428W        W 1725   4.895   3.461   3.817
  429W        W 1726   2.173   1.706   1.015
  430W        W 1727   5.639   7.270   6.823
  431W        W 1728   0.429   3.074   2.451
  432W        W 1729   5.047   1.152   3.358
  433W        W 1730   7.815   3.518   3.215
  434W        W 1731   0.988   0.531   7.824
  435W        W 1732   3.348   1.610   2.272
  436W        W 1733   1.302   2.350   7.770
  437W        W 1734   5.543   2.118   0.722
  438W        W 1735   6.833   3.652   3.862
  439W        W 1736   6.617   6.437   5.273
  440W        W 1737   0.236   1.574   6.564
  441W        W 1738   4.116   1.367   3.086
  442W        W 1739   6.751   5.654   2.537
  443W        W 1740   0.839   6.951   0.644
  444W        W 1741   3.050   3.863   3.974
  445W        W 1742   7.752   7.487   6.217
  446W        W 1743   1.503   7.286   2.326
  447W        W 1744   4.907   2.379   7.858
  448W        W 1745   2.816   2.546   3.952
  449W        W 1746   0.147   1.277   1.653
  450W        W 1747   6.257   7.936   3.482
  451W        W 1748   2.580   3.311   2.091
  452W        W 1749   6.205   7.310   0.938
  453W        W 1750   7.211   2.932   5.554
  454W        W 1751   2.437   3.729   4.684
  455W        W 1752   6.759   2.919   5.292
  456W        W 1753   1.320   3.179   0.567
  457W        W 1754   1.224   1.200   2.175
  458W        W 1755   7.220   3.583   5.040
  459W        W 1756   0.436   4.432   4.706
  460W        W 1757   3.590   2.030   7.309
  461W        W 1758   6.679   3.287   0.925
  462W        W 1759   4.685   3.435   1.842
  463W        W 1760   2.725   6.977   5.263
  464W        W 1761   4.156   4.548   4.799
  465W        W 1762   6.358   7.346   2.208
  466W        W 1763   4.698   4.072   2.494
  467W        W 1764   6.473   7.671   5.637
  468W        W 1765   5.133   2.701   1.226
  469W        W 1766   0.620   3.869   1.459
  470W        W 1767   6.870   6.911   0.761
  471W        W 1768   1.869   2.152   3.137
  472W        W 1769   2.803   5.359   7.100
  473W        W 1770   2.190   2.651   5.632
  474W        W 1771   5.784   3.097   5.045
  475W        W 1772   5.880   1.507   2.941
  476W        W 1773   6.290   2.406   3.924
  477W        W 1774   4.640   1.016   4.198
  478W        W 1775   3.092   1.580   2.796
  479W        W 1776   5.176   6.898   3.428
  480W        W 1777   7.780   7.063   5.525
  481W        W 1778   0.215   5.547   0.202
  482W        W 1779   5.143   6.344   2.527
  483W        W 1780   3.417   3.284   1.913
  484W        W 1781   5.205   3.138   7.382
  485W        W 1782   1.094   4.646   0.938
  486W        W 1783   2.910   6.948   1.024
  487W        W 1784   7.176   4.866   2.734
  488W        W 1785   1.230   1.998   7.398
  489W        W 1786   4.283   4.218   0.380
  490W        W 1787   4.560   3.032   6.521
  491W        W 1788   6.318   7.458   6.113
  492W        W 1789   4.513   4.082   0.887
  493W        W 1790   5.404   7.060   0.527
  494W        W 1791   7.040   7.595   6.873
  495W        W 1792   7.866   6.453   0.692
  496W        W 1793   7.316   0.238   6.319
  497W        W 1794   5.730   5.957   4.885
  498W        W 1795   0.964   0.737   4.087
  499W        W 1796   6.370   7.791   0.842
  500W        W 1797   5.668   6.000   0.649
  501W        W 1798   4.350   3.058   1.748
  502W        W 1799   2.693   3.452   2.572
  503W        W 1800   3.131   1.415   4.983
  504W        W 1801   4.629   2.791   1.217
  505W        W 1802   6.908   0.123   6.009
  506W        W 1803   6.013   0.947   1.856
  507W        W 1804   0.797   5.676   0.878
  508W        W 1805   3.945   0.851   1.548
  509W        W 1806   5.340   4.410   7.580
  510W        W 1807   1.268   4.638   6.293
  511W        W 1808   1.215   5.803   5.495
  512W        W 1809   4.264   1.517   5.316
  513W        W 1810   3.983   4.279   1.539
  514W        W 1811   6.830   5.578   1.450
  515W        W 1812   4.878   7.171   0.552
  516W        W 1813   7.109   4.102   6.115
  517W        W 1814   7.509   5.142   2.436
  518W        W 1815   0.175   3.690   1.266
  519W        W 1816   2.006   5.944   6.989
  520W        W 1817   0.724   3.497   0.701
  521W        W 1818   6.194   2.407   3.198
  522W        W 1819   4.220   1.388   7.317
  523W        W 1820   3.291   1.174   5.409
  524W        W 1821   5.456   3.491   1.147
  525W        W 1822   0.049   4.061   6.523
  526W        W 1823   3.365   6.853   6.091
  527W        W 1824   7.604   5.745   7.050
  528W        W 1825   5.603   4.857   1.182
  529W        W 1826   6.100   5.127   7.288
  530W        W 1827   5.120   5.210   7.873
  531W        W 1828   6.991   2.364   6.902
  532W        W 1829   4.739   5.575   5.222
  533W        W 1830   0.099   2.228   3.018
  534W        W 1831   3.589   4.207   1.214
  535W        W 1832   3.097   5.206   3.567
  536W        W 1833   0.481   4.199   1.831
  537W        W 1834   0.559   4.244   5.662
  538W        W 1835   2.532   1.936   2.527
  539W        W 1836   7.620   5.774   2.044
  540W        W 1837   5.755   0.780   0.971
  541W        W 1838   7.232   2.891   6.843
  542W        W 1839   5.106   3.552   1.498
  543W        W 1840   1.753   2.860   5.792
  544W        W 1841   2.455   1.107   4.605
  545W        W 1842   4.099   2.603   0.909
  546W        W 1843   5.125   5.069   6.385
  547W        W 1844   0.711   1.113   4.300
  548W        W 1845   7.376   4.593   5.985
  549W        W 1846   0.027   4.844   6.800
  550W        W 1847   3.769   7.021   0.920
  551W        W 1848   0.564   5.565   4.130
  552W        W 1849   2.349   1.204   6.230
  553W        W 1850   2.226   6.411   5.096
  554W        W 1851   2.209   2.996   3.023
  555W        W 1852   1.733   5.093   7.413
  556W        W 1853   4.443   1.271   5.711
  557W        W 1854   5.633   3.918   6.210
  558W        W 1855   7.216   2.988   1.634
  559W        W 1856   1.397   1.297   1.300
  560W        W 1857   1.784   4.411   5.044
  561W        W 1858   3.179   7.466   2.206
  562W        W 1859   4.297   3.905   6.719
  563W        W 1860   3.206   1.445   6.368
  564W        W 1861   6.607   4.143   4.708
  565W        W 1862   3.474   3.579   5.771
  566W        W 1863   4.903   6.300   1.666
  567W        W 1864   2.340   3.114   4.122
  568W        W 1865   5.310   6.899   6.746
  569W        W 1866   0.853   4.909   6.197
  570W        W 1867   6.741   0.457   6.974
  571W        W 1868   2.826   4.481   6.603
  572W        W 1869   5.751   1.399   6.763
  573W        W 1870   4.787   3.216   4.713
  574W        W 1871   6.239   3.190   6.079
  575W        W 1872   6.844   4.386   4.281
  576W        W 1873   2.762   5.884   3.738
  577W        W 1874   0.005   0.856   1.331
  578W        W 1875   6.491   3.046   0.500
  579W        W 1876   5.146   4.679   1.355
  580W        W 1877   0.662   7.677   6.489
  581W        W 1878   0.576   2.306   5.879
  582W        W 1879   7.055   3.782   2.938
  583W        W 1880   2.479   1.016   6.695
  584W        W 1881   3.229   2.736   6.709
  585W        W 1882   4.536   0.302   4.826
  586W        W 1883   3.992   1.276   6.352
  587W        W 1884   0.481   5.259   7.466
  588W        W 1885   5.841   3.904   7.539
  589W        W 1886   4.818   5.163   4.852
  590W        W 1887   1.566   7.001   5.921
  591W        W 1888   3.783   4.061   6.809
  592W        W 1889   6.022   3.531   5.186
  593W        W 1890   1.475   4.905   1.408
  594W        W 1891   5.782   6.129   4.031
  595W        W 1892   6.015   6.807   4.533
  596W        W 1893   1.922   1.653   3.238
  597W        W 1894   6.325   0.173   0.049
  598W        W 1895   4.389   4.727   7.535
  599W        W 1896   5.892   5.279   3.152
  600W        W 1897   2.919   3.674   4.427
  601W        W 1898   7.868   2.786   6.377
  602W        W 1899   3.708   5.050   5.856
  603W        W 1900   7.103   0.588   3.895
  604W        W 1901   0.975   2.737   7.837
  605W        W 1902   7.669   4.591   5.548
  606W        W 1903   3.768   2.046   4.335
  607W        W 1904   2.689   6.039   4.509
  608W        W 1905   5.694   7.292   0.895
  609W        W 1906   5.511   3.323   6.961
  610W        W 1907   6.147   1.772   6.989
  611W        W 1908   7.287   7.215   5.511
  612W        W 1909   6.327   5.461   5.338
  613W        W 1910   3.297   1.412   0.568
  614W        W 1911   2.609   2.466   4.620
  615W        W 1912   3.837   7.018   6.890
  616W        W 1913   7.110   6.886   3.723
  617W        W 1914   5.472   4.917   4.380
  618W        W 1915   1.249   0.760   1.250
  619W        W 1916   3.463   0.931   1.720
  620W        W 1917   3.675   6.000   4.771
  621W        W 1918   2.813   1.741   4.178
  622W        W 1919   7.003   0.212   5.289
  623W        W 1920   0.862   6.441   4.780
  624W        W 1921   1.844   3.809   0.087
  625W        W 1922   5.086   7.269   1.494
  626W        W 1923   3.395   6.583   4.133
  627W        W 1924   1.216   3.645   2.087
  628W        W 1925   0.686   1.262   1.709
  629W        W 1926   6.610   6.160   5.688
  630W        W 1927   1.408   4.037   7.191
  631W        W 1928   4.766   2.744   2.473
  632W        W 1929   5.914   7.760   1.048
  633W        W 1930   1.629   2.385   0.395
  634W        W 1931   0.789   5.277   7.021
  635W        W 1932   0.111   6.353   1.461
  636W        W 1933   5.084   3.956   4.539
  637W        W 1934   1.845   5.998   3.440
  638W        W 1935   6.598   0.514   6.061
  639W        W 1936   4.578   6.516   4.884
  640W        W 1937   2.795   5.138   4.963
  641W        W 1938   3.185   2.659   2.513
  642W        W 1939   3.406   0.461   2.292
  643W        W 1940   6.371   0.742   2.632
  644W        W 1941   3.994   1.200   6.864
  645W        W 1942   1.754   5.712   3.851
  646W        W 1943   4.460   4.541   2.428
  647W        W 1944   3.406   3.119   4.972
  648W        W 1945   2.957   3.494   1.136
  649W        W 1946   3.150   5.457   5.121
  650W        W 1947   3.172   6.144   2.643
  651W        W 1948   7.419   2.837   4.636
  652W        W 1949   5.575   3.552   4.919
  653W        W 1950   2.681   5.890   0.485
  654W        W 1951   4.382   0.751   5.716
  655W        W 1952   4.794   3.216   2.292
  656W        W 1953   7.129   3.950   4.259
  657W        W 1954   0.060   3.383   2.030
  658W        W 1955   4.354   2.599   5.242
  659W        W 1956   6.101   5.305   3.825
  660W        W 1957   2.556   3.888   6.468
  661W        W 1958   6.414   0.750   2.100
  662W        W 1959   4.899   2.562   0.355
  663W        W 1960   3.587   1.294   2.573
  664W        W 1961   4.788   0.878   3.010
  665W        W 1962   6.568   4.043   3.575
  666W        W 1963   4.356   5.038   7.944
  667W        W 1964   1.019   5.402   0.024
  668W        W 1965   1.163   4.781   5.799
  669W        W 1966   4.948   6.342   4.059
  670W        W 1967   5.796   4.485   3.649
  671W        W 1968   7.188   5.943   1.368
  672W        W 1969   7.022   3.560   0.644
  673W        W 1970   7.664   0.922   3.262
  674W        W 1971   7.236   2.833   3.355
  675W        W 1972   6.022   4.819   6.479
  676W        W 1973   7.989   5.842   2.507
  677W        W 1974   5.206   5.540   2.952
  678W        W 1975   7.947   5.154   0.416
  679W        W 1976   6.141   6.266   4.974
  680W        W 1977   1.036   3.060   0.986
  681W        W 1978   3.614   1.489   3.043
  682W        W 1979   1.587   3.557   1.722
  683W        W 1980   1.092   5.143   1.129
  684W        W 1981   0.553   1.533   7.010
  685W        W 1982   6.121   0.578   0.678
  686W        W 1983   7.210   6.988   5.031
  687W        W 1984   5.328   7.201   2.126
  688W        W 1985   2.876   2.548   6.389
  689W        W 1986   0.272   4.211   1.315
  690W        W 1987   5.932   5.747   4.488
  691W        W 1988   2.871   1.481   5.465
  692W        W 1989   6.428   6.376   1.913
  693W        W 1990   5.376   2.277   2.962
  694W        W 1991   4.754   2.134   4.171
  695W        W 1992   5.400   5.662   2.014
  696W        W 1993   0.858   2.622   5.525
  697W        W 1994   2.770   1.539   1.711
  698W        W 1995   0.709   2.296   2.547
  699W        W 1996   5.812   2.711   6.881
  700W        W 1997   1.887   3.925   3.677
  701W        W 1998   3.260   6.733   1.995
  702W        W 1999   6.343   3.120   5.553
  703W        W 2000   4.126   4.342   6.500
  704W        W 2001   5.594   4.195   2.803
  705W        W 2002   2.208   5.247   1.996
  706W        W 2003   5.797   7.733   4.067
  707W        W 2004   3.138   6.091   1.613
  708W        W 2005   4.826   0.347   6.604
  709W        W 2006   2.487   6.189   4.051
  710W        W 2007   4.093   0.323   1.713
  711W        W 2008   5.105   2.702   3.091
  712W        W 2009   5.928   7.375   1.378
  713W        W 2010   4.844   2.186   7.377
  714W        W 2011   3.517   3.789   2.906
  715W        W 2012   0.771   1.435   2.185
  716W        W 2013   3.363   6.098   7.110
  717W        W 2014   1.608   6.639   4.119
  718W        W 2015   1.515   1.837   2.955
  719W        W 2016   7.168   1.618   1.729
  720W        W 2017   2.463   3.859   2.854
  721W        W 2018   2.254   3.838   0.444
  722W        W 2019   2.523   2.896   6.422
  723W        W 2020   4.292   7.788   6.635
  724W        W 2021   7.528   2.543   5.473
  725W        W 2022   7.169   2.506   4.338
  726W        W 2023   6.343   3.973   5.102
  727W        W 2024   2.786   2.179   0.719
  728W        W 2025   6.940   7.173   1.554
  729W        W 2026   5.672   1.468   4.130
  730W        W 2027   7.252   5.699   6.687
  731W        W 2028   4.944   5.570   3.814
  732W        W 2029   4.048   4.692   5.691
  733W        W 2030   5.044   0.727   4.258
  734W        W 2031   3.771   0.143   2.093
  735W        W 2032   3.493   0.735   3.273
  736W        W 2033   1.869   2.082   1.199
  737W        W 2034   2.980   5.670   4.295
  738W        W 2035   1.387   5.417   1.431
  739W        W 2036   1.313   6.220   4.077
  740W        W 2037   2.454   5.705   6.946
  741W        W 2038   3.852   1.832   5.318
  742W        W 2039   4.128   4.905   2.620
  743W        W 2040   3.312   4.289   3.890
  744W        W 2041   3.062   1.185   2.501
  745W        W 2042   4.716   1.059   2.072
  746W        W 2043   0.044   4.720   3.865
  747W        W 2044   6.432   2.515   6.634
  748W        W 2045   2.476   6.008   3.306
  749W        W 2046   5.830   1.843   1.532
  750W        W 2047   1.386   1.473   7.231
  751W        W 2048   6.129   7.773   5.281
  752W        W 2049   0.760   5.754   7.228
  753W        W 2050   7.532   7.840   6.569
  754W        W 2051   5.420   4.020   7.257
  755W        W 2052   4.834   0.963   5.906
  756W        W 2053   1.939   7.348   6.262
  757W        W 2054   6.654   6.071   6.168
  758W        W 2055   4.182   2.461   1.717
  759W        W 2056   4.292   4.445   1.927
  760W        W 2057   3.888   4.431   5.225
  761W        W 2058   4.193   4.073   2.454
  762W        W 2059   7.476   6.188   5.542
  763W        W 2060   6.660   0.508   1.411
  764W        W 2061   6.002   7.826   6.294
  765W        W 2062   5.014   0.054   6.234
  766W        W 2063   6.037   7.382   6.524
  767W        W 2064   7.919   5.670   0.637
  768W        W 2065   1.611   2.529   3.469
  769W        W 2066   6.520   2.679   4.902
  770W        W 2067   7.366   6.171   1.836
  771W        W 2068   6.339   2.204   5.705
  772W        W 2069   1.622   5.314   6.961
  773W        W 2070   0.295   4.987   0.751
  774W        W 2071   0.362   7.088   1.777
  775W        W 2072   3.863   6.201   7.151
  776W        W 2073   7.021   6.431   5.635
  777W        W 2074   3.763   5.114   2.335
  778W        W 2075   2.628   1.745   2.996
  779W        W 2076   2.612   6.488   5.413
  780W        W 2077   1.507   4.160   3.441
  781W        W 2078   3.407   6.533   1.545
  782W        W 2079   5.859   3.909   1.927
  783W        W 2080   3.832   6.653   3.209
  784W        W 2081   1.698   7.011   3.441
  785W        W 2082   1.572   6.262   3.059
  786W        W 2083   5.729   4.137   3.293
  787W        W 2084   3.770   6.492   4.839
  788W        W 2085   7.358   2.906   6.356
  789W        W 2086   3.775   2.989   6.949
  790W        W 2087   2.649   3.283   1.489
  791W        W 2088   7.070   3.903   6.572
  792W        W 2089   3.622   1.740   0.821
  793W        W 2090   5.811   1.743   4.563
  794W        W 2091   4.045   1.629   1.122
  795W        W 2092   4.076   1.550   5.930
  796W        W 2093   6.680   3.214   2.800
  797W        W 2094   1.949   5.346   6.015
  798W        W 2095   5.587   4.409   1.488
  799W        W 2096   0.070   2.939   5.933
  800W        W 2097   5.651   4.263   5.799
  801W        W 2098   4.851   6.969   5.014
  802W        W 2099   3.351   0.695   4.550
  803W        W 2100   4.728   7.027   3.226
  804W        W 2101   2.654   6.103   6.252
  805W        W 2102   2.640   3.389   6.422
  806W        W 2103   6.589   0.175   5.598
  807W        W 2104   6.669   2.197   4.175
  808W        W 2105   2.130   4.170   2.245
  809W        W 2106   1.949   2.152   3.630
  810W        W 2107   3.565   5.108   6.883
  811W        W 2108   5.878   2.965   0.597
  812W        W 2109   6.624   2.145   1.710
  813W        W 2110   4.543   7.533   6.252
  814W        W 2111   6.138   7.586   1.806
  815W        W 2112   6.266   2.597   0.496
  816W        W 2113   3.803   1.426   0.460
  817W        W 2114   1.782   0.473   0.795
  818W        W 2115   5.051   3.489   5.759
  819W        W 2116   6.986   2.966   2.451
  820W        W 2117   7.184   3.300   4.611
  821W        W 2118   3.957   3.039   6.464
  822W        W 2119   1.886   1.458   7.041
  823W        W 2120   2.143   1.316   3.817
  824W        W 2121   5.668   2.293   7.739
  825W        W 2122   1.222   4.989   7.751
  826W        W 2123   4.811   4.165   6.023
  827W        W 2124   5.105   0.788   6.346
  828W        W 2125   6.587   3.791   2.208
  829W        W 2126   5.167   4.299   0.069
  830W        W 2127   7.189   6.785   1.791
  831W        W 2128   3.811   4.593   1.879
  832W        W 2129   4.452   1.137   5.000
  833W        W 2130   3.879   7.832   1.684
  834W        W 2131   0.836   1.184   5.784
  835W        W 2132   7.094   6.407   2.555
  836W        W 2133   3.682   1.945   6.322
  837W        W 2134   5.560   4.772   5.904
  838W        W 2135   1.153   3.229   7.833
  839W        W 2136   1.113   0.124   2.041
  840W        W 2137   5.664   7.419   7.322
  841W        W 2138   4.707   0.961   5.396
  842W        W 2139   5.223   5.376   5.068
  843W        W 2140   3.418   4.837   2.075
  844W        W 2141   5.646   2.710   1.429
  845W        W 2142   5.351   2.429   0.128
  846W        W 2143   4.393   1.835   5.684
  847W        W 2144   6.954   0.715   2.161
  848W        W 2145   7.273   1.084   2.989
  849W        W 2146   2.991   7.393   6.497
  850W        W 2147   1.513   0.331   0.401
  851W        W 2148   2.879   7.013   6.145
  852W        W 2149   4.632   5.390   4.413
  853W        W 2150   5.844   4.421   1.045
  854W        W 2151   3.161   5.313   4.638
  855W        W 2152   6.902   6.513   6.160
  856W        W 2153   4.410   2.870   3.400
  857W        W 2154   3.014   6.227   4.036
  858W        W 2155   3.100   6.844   7.068
  859W        W 2156   0.883   0.748   5.487
  860W        W 2157   3.650   2.892   1.603
  861W        W 2158   1.997   1.707   5.304
  862W        W 2159   4.045   2.545   3.538
  863W        W 2160   1.615   0.151   1.616
  864W        W 2161   6.356   7.150   1.569
  865W        W 2162   4.961   3.246   1.127
  866W        W 2163   6.432   3.334   7.799
  867W        W 2164   7.553   7.011   6.172
  868W        W 2165   4.849   4.761   7.848
  869W        W 2166   3.015   6.767   3.826
  870W        W 2167   6.292   1.733   0.259
  871W        W 2168   1.203   5.309   6.674
  872W        W 2169   0.926   0.043   2.525
  873W        W 2170   2.091   3.485   2.925
  874W        W 2171   5.494   4.692   6.510
  875W        W 2172   3.944   5.856   6.775
  876W        W 2173   4.320   5.644   1.689
  877W        W 2174   7.762   4.282   3.955
  878W        W 2175   0.503   5.632   6.050
  879W        W 2176   6.691   2.367   3.046
  880W        W 2177   1.566   2.627   6.193
  881W        W 2178   4.416   5.660   6.795
  882W        W 2179   6.810   6.200   3.067
  883W        W 2180   6.146   4.213   5.875
  884W        W 2181   6.751   1.369   1.555
  885W        W 2182   5.990   7.853   7.253
  886W        W 2183   5.164   7.112   4.637
  887W        W 2184   0.389   4.201   5.171
  888W        W 2185   0.203   4.576   5.512
  889W        W 2186   4.595   2.551   7.118
  890W        W 2187   4.591   4.886   2.830
  891W        W 2188   2.669   5.382   0.425
  892W        W 2189   3.383   2.963   3.208
  893W        W 2190   3.847   0.760   2.497
  894W        W 2191   2.737   1.887   3.619
  895W        W 2192   4.986   5.566   1.166
  896W        W 2193   0.478   3.040   1.944
  897W        W 2194   6.672   6.167   3.864
  898W        W 2195   5.699   1.433   5.460
  899W        W 2196   7.511   4.804   6.981
  900W        W 2197   4.098   3.206   3.145
  901W        W 2198   7.470   4.322   7.221
  902W        W 2199   1.200   0.467   1.674
  903W        W 2200   1.006   2.211   3.375
  904W        W 2201   2.733   4.525   5.436
  905W        W 2202   6.933   5.911   3.486
  906W        W 2203   1.277   5.625   0.985
  907W        W 2204   4.366   0.647   1.357
  908W        W 2205   3.961   1.086   4.890
  909W        W 2206   4.283   5.389   7.249
  910W        W 2207   5.557   7.416   1.725
  911W        W 2208   3.457   1.616   3.500
  912W        W 2209   7.282   4.923   0.973
  913W        W 2210   6.622   6.098   2.304
  914W        W 2211   3.135   4.387   4.938
  915W        W 2212   3.019   3.038   6.349
  916W        W 2213   5.388   3.043   0.932
  917W        W 2214   0.122   5.424   5.741
  918W        W 2215   5.877   1.099   1.361
  919W        W 2216   3.626   2.764   2.828
  920W        W 2217   1.504   0.786   4.799
  921W        W 2218   2.737   4.890   3.967
  922W        W 2219   5.633   2.992   2.424
  923W        W 2220   6.248   6.263   4.108
  924W        W 2221   2.315   2.953   1.331
  925W        W 2222   3.007   3.874   2.873
  926W        W 2223   7.072   1.644   5.372
  927W        W 2224   5.204   0.027   6.771
  928W        W 2225   0.805   5.180   0.726
  929W        W 2226   4.571   7.207   5.437
  930W        W 2227   3.218   2.823   4.079
  931W        W 2228   4.473   2.704   2.074
  932W        W 2229   4.156   4.129   3.710
  933W        W 2230   2.148   5.891   1.405
  934W        W 2231   4.728   3.121   5.634
  935W        W 2232   1.649   5.542   0.636
  936W        W 2233   7.981   4.031   0.928
  937W        W 2234   1.949   4.417   6.116
  938W        W 2235   6.894   3.725   1.120
  939W        W 2236   7.577   5.974   6.264
  940W        W 2237   4.881   4.282   3.297
  941W        W 2238   1.221   6.063   4.669
  942W        W 2239   3.455   0.896   7.679
  943W        W 2240   3.110   4.809   5.226
  944W        W 2241   7.120   1.900   2.146
  945W        W 2242   7.160   4.461   2.397
  946W        W 2243   2.151   1.065   2.531
  947W        W 2244   6.529   7.779   6.451
  948W        W 2245   3.186   5.650   2.815
  949W        W 2246   4.678   6.972   1.009
  950W        W 2247   4.218   6.416   2.916
  951W        W 2248   1.075   5.970   0.556
  952W        W 2249   6.547   7.705   3.125
  953W        W 2250   1.410   4.616   3.251
  954W        W 2251   2.353   0.649   4.441
  955W        W 2252   4.940   6.148   4.549
  956W        W 2253   5.346   2.613   2.600
  957W        W 2254   5.701   1.892   2.029
  958W        W 2255   2.775   3.761   3.289
  959W        W 2256   3.425   7.668   6.500
  960W        W 2257   5.540   2.953   2.943
  961W        W 2258   6.246   4.480   2.826
  962W        W 2259   0.006   5.692   6.712
  963W        W 2260   4.794   4.304   0.528
  964W        W 2261   6.079   5.684   1.454
  965W        W 2262   0.800   1.153   0.578
  966W        W 2263   0.468   0.144   6.589
  967W        W 2264   6.758   0.656   5.151
  968W        W 2265   2.305   4.768   6.191
  969W        W 2266   5.035   4.675   3.560
  970W        W 2267   1.651   3.673   5.540
  971W        W 2268   2.110   4.534   7.115
  972W        W 2269   4.809   4.536   0.996
  973W        W 2270   3.645   2.508   0.257
  974W        W 2271   5.616   5.546   1.555
  975W        W 2272   7.632   3.151   1.867
  976W        W 2273   5.458   1.942   3.317
  977W        W 2274   2.131   3.204   6.460
  978W        W 2275   6.277   0.638   3.893
  979W        W 2276   6.858   3.142   7.591
  980W        W 2277   7.030   4.404   5.175
  981W        W 2278   1.863   6.911   2.445
  982W        W 2279   2.381   4.754   6.717
  983W        W 2280   2.880   3.980   4.814
  984W        W 2281   0.554   1.919   3.998
  985W        W 2282   1.243   2.950   1.529
  986W        W 2283   3.557   4.690   2.563
  987W        W 2284   3.924   1.733   3.374
  988W        W 2285   1.698   3.501   2.507
  989W        W 2286   7.504   5.648   3.674
  990W        W 2287   3.137   1.356   0.079
  991W        W 2288   5.325   3.475   4.441
  992W        W 2289   4.627   0.593   7.025
  993W        W 2290   0.579   4.189   7.747
  994W        W 2291   4.993   0.741   2.586
  995W        W 2292   0.900   4.237   6.880
  996W        W 2293   4.772   0.790   1.618
  997W        W 2294   2.554   6.535   0.059
  998W        W 2295   5.435   5.588   0.105
  999W        W 2296   3.336   4.848   0.199
 1000W        W 2297   3.169   5.035   1.669
 1001W        W 2298   5.413   2.520   6.597
 1002W        W 2299   4.559   1.513   0.915
 1003W        W 2300   1.681   5.941   7.790
 1004W        W 2301   2.703   6.117   6.763
 1005W        W 2302   4.686   6.031   5.003
 1006W        W 2303   1.138   2.761   5.943
 1007W        W 2304   2.851   7.414   5.803
 1008W        W 2305   1.835   1.699   1.972
 1009W        W 2306   1.693   1.796   2.467
 1010W        W 2307   5.802   1.601   2.436
 1011W        W 2308   5.183   2.029   0.386
 1012W        W 2309   1.756   0.691   2.464
 1013W        W 2310   4.946   4.738   2.508
 1014W        W 2311   0.997   4.027   3.463
 1015W        W 2312   5.131   6.421   6.728
 1016W        W 2313   5.928   1.963   6.108
 1017W        W 2314   7.642   2.679   3.084
 1018W        W 2315   1.605   2.627   6.706
 1019W        W 2316   0.402   3.931   4.652
 1020W        W 2317   6.061   3.739   3.373
 1021W        W 2318   0.540   1.820   5.599
 1022W        W 2319   0.273   4.775   3.421
 1023W        W 2320   3.882   3.612   5.509
 1024W        W 2321   5.421   6.357   1.767
 1025W        W 2322   3.798   1.990   6.829
 1026W        W 2323   0.162   3.774   4.079
 1027W        W 2324   0.871   3.780   2.443
 1028W        W 2325   4.994   6.433   5.165
 1029W        W 2326   1.555   4.186   4.627
 1030W        W 2327   1.289   1.868   5.878
 1031W        W 2328   5.491   4.835   3.459
 1032W        W 2329   4.906   7.945   4.871
 1033W        W 2330   1.323   4.575   0.034
 1034W        W 2331   5.026   0.373   4.616
 1035W        W 2332   0.932   2.138   5.079
 1036W        W 2333   6.774   3.479   1.657
 1037W        W 2334   1.332   6.755   3.150
 1038W        W 2335   1.341   4.605   1.787
 1039W        W 2336   0.147   4.861   1.234
 1040W        W 2337   2.476   4.986   5.327
 1041W        W 2338   3.582   7.744   2.645
 1042W        W 2339   6.207   0.858   4.353
 1043W        W 2340   5.897   1.914   4.041
 1044W        W 2341   1.221   3.434   6.550
 1045W        W 2342   2.325   3.572   0.025
 1046W        W 2343   6.285   1.906   3.197
 1047W        W 2344   0.837   0.667   4.578
 1048W        W 2345   5.693   1.789   1.047
 1049W        W 2346   4.199   1.159   1.213
 1050W        W 2347   7.100   0.628   6.086
 1051W        W 2348   2.220   1.598   5.896
 1052W        W 2349   7.192   0.950   3.502
 1053W        W 2350   0.324   7.357   6.777
 1054W        W 2351   6.887   3.827   5.643
 1055W        W 2352   6.916   0.425   3.424
 1056W        W 2353   0.561   1.276   3.290
 1057W        W 2354   6.334   4.379   7.275
 1058W        W 2355   1.410   2.348   3.043
 1059W        W 2356   3.150   5.222   0.474
 1060W        W 2357   3.085   1.252   2.005
 1061W        W 2358   5.690   6.267   5.283
 1062W        W 2359   1.272   5.852   3.155
 1063W        W 2360   6.129   4.362   4.840
 1064W        W 2361   6.213   7.509   3.835
 1065W        W 2362   4.373   0.659   5.159
 1066W        W 2363   3.091   0.951   7.219
 1067W        W 2364   5.922   3.550   7.159
 1068W        W 2365   5.288   3.391   3.036
 1069W        W 2366   7.059   2.553   5.054
 1070W        W 2367   7.791   7.428   6.750
 1071W        W 2368   2.201   0.181   0.968
 1072W        W 2369   3.706   0.451   2.879
 1073W        W 2370   3.339   2.794   2.021
 1074W        W 2371   2.110   5.413   7.230
 1075W        W 2372   3.950   4.617   0.453
 1076W        W 2373   3.753   6.213   3.416
 1077W        W 2374   0.811   1.767   1.756
 1078W        W 2375   5.977   2.901   7.737
 1079W        W 2376   3.294   6.608   2.492
 1080W        W 2377   1.768   6.922   0.527
 1081W        W 2378   4.172   5.772   0.734
 1082W        W 2379   3.131   6.426   6.765
 1083W        W 2380   6.646   7.411   4.234
 1084W        W 2381   7.570   2.810   5.907
 1085W        W 2382   4.781   3.328   6.175
 1086W        W 2383   3.226   1.526   5.801
 1087W        W 2384   4.135   7.151   4.496
 1088W        W 2385   4.638   6.542   4.384
 1089W        W 2386   7.917   1.481   2.147
 1090W        W 2387   6.472   5.884   0.690
 1091W        W 2388   1.580   3.266   0.112
 1092W        W 2389   2.847   3.188   5.896
 1093W        W 2390   0.716   3.523   6.436
 1094W        W 2391   4.199   2.696   6.817
 1095W        W 2392   2.814   6.963   1.856
 1096W        W 2393   3.095   2.744   4.782
 1097W        W 2394   7.929   4.621   5.069
 1098W        W 2395   7.201   4.030   0.808
 1099W        W 2396   6.193   1.479   4.305
 1100W        W 2397   3.845   5.064   1.726
 1101W        W 2398   3.675   2.600   2.360
 1102W        W 2399   4.927   1.381   5.601
 1103W        W 2400   2.787   2.869   4.352
 1104W        W 2401   2.425   2.299   3.736
 1105W        W 2402   6.848   5.551   5.180
 1106W        W 2403   3.434   6.023   3.057
 1107W        W 2404   4.971   5.461   6.046
 1108W        W 2405   6.984   6.014   5.357
 1109W        W 2406   5.818   1.580   0.402
 1110W        W 2407   0.256   6.375   4.026
 1111W        W 2408   7.142   3.002   4.221
 1112W        W 2409   4.598   4.835   5.677
 1113W        W 2410   5.399   0.815   3.438
 1114W        W 2411   1.745   6.805   1.272
 1115W        W 2412   3.642   1.426   5.081
 1116W        W 2413   6.623   2.372   5.284
 1117W        W 2414   4.012   3.377   3.751
 1118W        W 2415   5.902   4.303   2.406
 1119W        W 2416   0.834   0.788   3.266
 1120W        W 2417   1.181   2.420   6.517
 1121W        W 2418   3.514   4.890   3.408
 1122W        W 2419   1.562   5.775   6.748
 1123W        W 2420   0.665   5.514   3.623
 1124W        W 2421   2.198   4.037   1.378
 1125W        W 2422   5.949   5.011   5.586
 1126W        W 2423   6.723   2.718   4.182
 1127W        W 2424   7.617   2.193   3.246
 1128W        W 2425   0.082   4.209   4.351
 1129W        W 2426   4.657   3.604   5.283
 1130W        W 2427   2.898   0.723   4.256
 1131W        W 2428   0.815   3.953   5.013
 1132W        W 2429   0.804   1.855   6.027
 1133W        W 2430   1.615   2.424   0.931
 1134W        W 2431   3.978   3.096   2.647
 1135W        W 2432   6.998   3.375   5.444
 1136W        W 2433   7.468   5.221   1.918
 1137W        W 2434   1.106   6.332   3.286
 1138W        W 2435   4.341   2.370   1.263
 1139W        W 2436   1.648   1.215   4.544
 1140W        W 2437   7.260   5.436   1.205
 1141W        W 2438   3.942   0.743   1.046
 1142W        W 2439   7.662   5.114   1.282
 1143W        W 2440   5.495   2.130   4.749
 1144W        W 2441   5.604   6.787   5.936
 1145W        W 2442   4.624   2.273   5.596
 1146W        W 2443   0.552   7.356   2.284
 1147W        W 2444   0.815   5.898   2.026
 1148W        W 2445   2.127   6.797   7.856
 1149W        W 2446   1.198   5.853   7.569
 1150W        W 2447   1.165   4.504   7.219
 1151W        W 2448   6.008   5.187   1.457
 1152W        W 2449   4.453   0.807   0.882
 1153W        W 2450   6.629   4.828   7.246
 1154W        W 2451   4.434   3.616   2.514
 1155W        W 2452   6.789   4.496   6.049
 1156W        W 2453   6.317   3.139   5.040
 1157W        W 2454   7.119   5.964   2.241
 1158W        W 2455   4.427   4.198   5.160
 1159W        W 2456   6.435   3.057   6.601
 1160W        W 2457   2.761   6.093   0.941
 1161W        W 2458   5.489   5.456   7.604
 1162W        W 2459   1.299   2.681   0.644
 1163W        W 2460   6.532   2.779   6.181
 1164W        W 2461   2.094   6.714   0.864
 1165W        W 2462   3.753   6.835   1.903
 1166W        W 2463   4.034   5.014   3.745
 1167W        W 2464   5.989   5.480   1.912
 1168W        W 2465   1.873   2.260   2.637
 1169W        W 2466   2.351   5.940   2.278
 1170W        W 2467   2.664   7.198   1.386
 1171W        W 2468   3.522   2.729   5.679
 1172W        W 2469   6.263   2.894   4.087
 1173W        W 2470   2.184   3.826   7.603
 1174W        W 2471   2.640   4.892   5.817
 1175W        W 2472   3.802   0.657   1.994
 1176W        W 2473   4.323   4.669   5.285
 1177W        W 2474   6.781   0.293   2.407
 1178W        W 2475   5.412   5.920   2.610
 1179W        W 2476   4.289   3.985   2.940
 1180W        W 2477   1.434   5.991   2.646
 1181W        W 2478   2.705   3.799   0.743
 1182W        W 2479   6.264   0.292   6.925
 1183W        W 2480   2.976   0.749   2.250
 1184W        W 2481   4.271   2.175   6.990
 1185W        W 2482   3.590   2.493   3.270
 1186W        W 2483   0.539   6.209   1.217
 1187W        W 2484   4.583   2.279   2.345
 1188W        W 2485   4.352   4.915   1.643
 1189W        W 2486   5.627   2.284   1.699
 1190W        W 2487   3.820   0.728   3.661
 1191W        W 2488   3.476   2.800   6.266
 1192W        W 2489   1.777   6.641   4.627
 1193W        W 2490   6.134   1.205   2.320
 1194W        W 2491   4.601   2.477   0.814
 1195W        W 2492   0.267   4.239   3.872
 1196W        W 2493   2.696   1.542   4.653
 1197W        W 2494   6.103   3.270   3.634
 1198W        W 2495   4.845   1.791   4.544
 1199W        W 2496   6.891   2.021   2.692
 1200W        W 2497   3.842   5.382   0.877
 1201W        W 2498   5.325   0.511   6.708
 1202W        W 2499   0.923   1.124   2.899
 1203W        W 2500   1.669   3.745   7.564
 1204W        W 2501   5.089   6.600   2.075
 1205W        W 2502   0.844   3.715   7.817
 1206W        W 2503   3.721   1.279   1.412
 1207W        W 2504   1.676   7.568   1.928
 1208W        W 2505   2.979   3.200   6.824
 1209W        W 2506   0.675   0.945   2.483
 1210W        W 2507   3.586   4.537   5.855
 1211W        W 2508   6.560   4.186   5.544
 1212W        W 2509   3.715   1.406   5.593
 1213W        W 2510   6.424   7.752   0.332
 1214W        W 2511   3.245   2.307   2.088
 1215W        W 2512   1.483   2.404   7.197
 1216W        W 2513   0.407   6.622   2.577
 1217W        W 2514   6.030   2.642   2.395
 1218W        W 2515   7.051   3.722   2.038
 1219W        W 2516   2.051   4.207   3.290
 1220W        W 2517   4.021   0.065   6.976
 1221W        W 2518   3.676   3.440   6.232
 1222W        W 2519   5.963   3.636   1.089
 1223W        W 2520   3.939   1.043   5.900
 1224W        W 2521   3.252   4.850   2.955
 1225W        W 2522   5.084   4.972   5.804
 1226W        W 2523   5.015   5.143   2.163
 1227W        W 2524   3.112   2.016   2.483
 1228W        W 2525   2.318   6.186   1.805
 1229W        W 2526   4.926   2.358   2.741
 1230W        W 2527   5.041   6.823   4.231
 1231W        W 2528   3.629   2.503   0.765
 1232W        W 2529   0.953   4.315   6.000
 1233W        W 2530   0.995   0.029   6.632
 1234W        W 2531   3.887   5.183   4.633
 1235W        W 2532   2.399   0.793   5.066
 1236W        W 2533   3.892   6.687   7.332
 1237W        W 2534   1.310   0.527   4.394
 1238W        W 2535   5.745   7.257   3.930
 1239W        W 2536   1.008   3.090   2.828
 1240W        W 2537   0.399   4.302   6.191
 1241W        W 2538   3.577   4.121   4.968
 1242W        W 2539   1.340   3.163   1.987
 1243W        W 2540   3.670   1.996   7.811
 1244W        W 2541   0.347   5.289   3.289
 1245W        W 2542   0.365   0.812   1.722
 1246W        W 2543   4.410   7.452   4.806
 1247W        W 2544   1.466   7.858   2.304
 1248W        W 2545   5.426   4.528   2.472
 1249W        W 2546   1.916   1.317   5.582
 1250W        W 2547   1.155   7.972   7.688
 1251W        W 2548   2.875   6.791   0.383
 1252W        W 2549   6.000   7.841   3.020
 1253W        W 2550   4.163   0.204   3.039
 1254W        W 2551   7.003   4.966   5.937
 1255W        W 2552   2.998   1.981   5.588
 1256W        W 2553   1.345   0.344   2.466
 1257W        W 2554   6.560   2.057   2.300
 1258W        W 2555   2.735   2.747   6.874
 1259W        W 2556   6.710   0.824   3.656
 1260W        W 2557   6.596   3.701   2.688
 1261W        W 2558   3.671   6.983   1.427
 1262W        W 2559   5.178   7.511   3.217
 1263W        W 2560   0.614   1.736   5.089
 1264W        W 2561   4.793   7.794   6.617
 1265W        W 2562   2.620   2.901   5.506
 1266W        W 2563   5.340   0.480   0.987
 1267W        W 2564   3.124   1.938   7.152
 1268W        W 2565   0.429   4.764   5.096
 1269W        W 2566   7.406   6.711   5.441
 1270W        W 2567   1.849   5.053   0.610
 1271W        W 2568   2.566   3.394   3.556
 1272W        W 2569   5.483   3.239   0.304
 1273W        W 2570   6.391   0.650   5.554
 1274W        W 2571   6.110   3.752   6.070
 1275W        W 2572   0.401   0.927   6.189
 1276W        W 2573   4.769   5.119   0.226
 1277W        W 2574   3.680   7.597   2.122
 1278W        W 2575   6.626   7.865   5.178
 1279W        W 2576   4.783   3.127   3.130
 1280W        W 2577   1.606   2.611   1.424
 1281W        W 2578   4.065   0.816   6.514
 1282W        W 2579   7.097   4.571   1.873
 1283W        W 2580   4.834   0.076   5.390
 1284W        W 2581   1.225   3.838   5.291
 1285W        W 2582   2.817   2.030   6.394
 1286W        W 2583   1.907   3.948   1.782
 1287W        W 2584   1.368   6.525   5.897
 1288W        W 2585   3.705   2.931   1.047
 1289W        W 2586   3.097   5.274   6.659
 1290W        W 2587   5.244   5.476   2.467
 1291W        W 2588   2.157   1.557   2.404
 1292W        W 2589   2.233   6.360   3.603
 1293W        W 2590   3.788   6.294   4.363
 1294W        W 2591   4.811   6.776   3.776
 1295W        W 2592   7.803   0.029   6.172
 1296W        W 2593   6.440   6.746   1.046
 1297W        W 2594   6.703   4.708   2.810
 1298W        W 2595   5.917   6.472   1.878
 1299W        W 2596   2.037   4.710   7.598
 1300W        W 2597   2.683   5.569   5.264
 1301W        W 2598   1.673   6.449   2.581
 1302W        W 2599   5.170   4.141   2.278
 1303W        W 2600   3.089   5.684   0.260
 1304W        W 2601   5.094   2.183   5.454
 1305W        W 2602   6.800   2.352   4.639
 1306W        W 2603   5.540   6.135   6.471
 1307W        W 2604   1.710   0.119   6.066
 1308W        W 2605   0.907   1.280   1.240
 1309W        W 2606   5.536   3.181   7.788
 1310W        W 2607   4.464   5.501   0.400
 1311W        W 2608   1.204   3.562   0.866
 1312W        W 2609   4.810   4.484   5.360
 1313W        W 2610   0.041   5.335   1.030
 1314W        W 2611   7.037   1.089   4.004
 1315W        W 2612   4.021   2.028   1.464
 1316W        W 2613   7.150   5.390   2.750
 1317W        W 2614   1.649   5.815   1.594
 1318W        W 2615   7.717   2.671   1.778
 1319W        W 2616   5.590   5.200   6.531
 1320W        W 2617   7.625   3.235   4.358
 1321W        W 2618   7.523   6.930   6.688
 1322W        W 2619   3.914   6.535   1.508
 1323W        W 2620   7.118   4.675   7.343
 1324W        W 2621   7.534   6.534   7.031
 1325W        W 2622   7.984   4.155   4.847
 1326W        W 2623   0.864   5.934   3.453
 1327W        W 2624   1.221   5.011   3.524
 1328W        W 2625   0.021   6.166   6.467
 1329W        W 2626   1.628   0.919   0.549
 1330W        W 2627   0.884   4.288   2.517
 1331W        W 2628   0.546   3.979   6.578
 1332W        W 2629   1.368   3.094   2.482
 1333W        W 2630   4.499   2.352   3.328
 1334W        W 2631   1.549   1.175   7.958
 1335W        W 2632   5.047   6.718   0.734
 1336W        W 2633   5.743   4.751   2.148
 1337W        W 2634   5.543   7.536   5.568
 1338W        W 2635   3.488   5.997   5.678
 1339W        W 2636   5.240   7.139   3.890
 1340W        W 2637   2.302   6.093   0.203
 1341W        W 2638   5.850   3.121   1.113
 1342W        W 2639   3.349   3.147   5.944
 1343W        W 2640   5.519   1.041   1.713
 1344W        W 2641   0.766   0.221   7.466
 1345W        W 2642   7.805   3.517   1.576
 1346W        W 2643   0.695   7.171   3.243
 1347W        W 2644   1.407   6.758   6.357
 1348W        W 2645   6.023   3.020   2.776
 1349W        W 2646   6.665   3.794   7.896
 1350W        W 2647   6.620   0.172   1.045
 1351W        W 2648   7.968   6.612   6.741
 1352W        W 2649   5.676   0.979   5.687
 1353W        W 2650   0.935   4.068   2.030
 1354W        W 2651   1.489   4.430   5.875
 1355W        W 2652   4.083   2.691   3.039
 1356W        W 2653   3.859   0.244   3.863
 1357W        W 2654   6.668   0.303   3.880
 1358W        W 2655   1.184   3.596   7.446
 1359W        W 2656   2.527   5.622   1.637
 1360W        W 2657   6.167   6.066   3.672
 1361W        W 2658   6.506   3.544   5.828
 1362W        W 2659   1.682   3.588   3.990
 1363W        W 2660   0.330   1.932   6.186
 1364W        W 2661   3.850   6.969   5.001
 1365W        W 2662   1.671   3.111   6.298
 1366W        W 2663   5.402   1.774   2.823
 1367W        W 2664   3.335   5.216   2.583
 1368W        W 2665   7.107   4.743   6.382
 1369W        W 2666   5.053   2.385   6.932
 1370W        W 2667   1.733   5.801   5.478
 1371W        W 2668   0.623   6.705   3.916
 1372W        W 2669   5.960   4.485   4.120
 1373W        W 2670   6.964   2.551   1.606
 1374W        W 2671   1.291   0.758   0.195
 1375W        W 2672   0.999   4.208   4.594
 1376W        W 2673   5.314   0.436   5.355
 1377W        W 2674   2.540   4.199   3.245
 1378W        W 2675   6.263   7.917   2.605
 1379W        W 2676   3.360   1.058   5.929
 1380W        W 2677   5.687   3.421   0.718
 1381W        W 2678   0.876   3.118   5.655
 1382W        W 2679   3.792   1.194   3.412
 1383W        W 2680   3.369   0.810   2.677
 1384W        W 2681   3.518   7.918   3.593
 1385W        W 2682   5.250   3.946   3.201
 1386W        W 2683   1.438   1.380   5.815
 1387W        W 2684   4.672   3.309   0.691
 1388W        W 2685   5.478   2.104   6.318
 1389W        W 2686   7.021   4.128   3.326
 1390W        W 2687   4.575   0.075   6.983
 1391W        W 2688   2.455   0.086   1.803
 1392W        W 2689   7.174   7.327   6.023
 1393W        W 2690   7.335   7.374   6.505
 1394W        W 2691   5.272   6.276   5.946
 1395W        W 2692   4.879   5.370   0.687
 1396W        W 2693   4.190   1.675   6.907
 1397W        W 2694   7.132   3.269   7.182
 1398W        W 2695   1.187   0.393   4.891
 1399W        W 2696   4.823   5.855   5.666
 1400W        W 2697   2.947   6.286   0.292
 1401W        W 2698   6.410   2.491   2.079
 1402W        W 2699   5.500   6.775   0.945
 1403W        W 2700   0.439   5.149   6.036
 1404W        W 2701   4.644   6.214   6.596
 1405W        W 2702   5.817   5.496   5.691
 1406W        W 2703   6.630   7.168   3.787
 1407W        W 2704   6.567   2.073   6.928
 1408W        W 2705   6.433   0.121   7.391
 1409W        W 2706   0.977   5.367   7.516
 1410W        W 2707   3.129   3.152   0.207
 1411W        W 2708   6.536   7.858   2.176
 1412W        W 2709   5.005   0.498   3.528
 1413W        W 2710   7.337   3.657   5.768
 1414W        W 2711   7.524   6.137   6.723
 1415W        W 2712   1.081   2.209   6.956
 1416W        W 2713   4.350   6.971   4.983
 1417W        W 2714   1.969   1.879   6.708
 1418W        W 2715   2.246   1.365   2.945
 1419W        W 2716   1.868   3.131   3.908
 1420W        W 2717   2.507   7.061   0.144
 1421W        W 2718   5.418   6.276   0.998
 1422W        W 2719   0.075   4.530   3.016
 1423W        W 2720   6.365   5.369   3.342
 1424W        W 2721   2.492   3.671   1.204
 1425W        W 2722   1.396   3.670   3.549
 1426W        W 2723   4.776   7.245   4.092
 1427W        W 2724   7.961   2.676   1.300
 1428W        W 2725   1.729   1.248   2.278
 1429W        W 2726   7.365   1.691   3.950
 1430W        W 2727   4.228   2.313   0.517
 1431W        W 2728   3.554   5.333   5.398
 1432W        W 2729   0.685   4.709   0.600
 1433W        W 2730   0.813   0.843   0.985
 1434W        W 2731   7.258   2.282   2.439
 1435W        W 2732   2.699   4.477   6.109
 1436W        W 2733   3.752   1.576   7.125
 1437W        W 2734   0.771   7.566   2.703
 1438W        W 2735   5.983   0.374   2.734
 1439W        W 2736   5.168   3.484   7.991
 1440W        W 2737   5.685   0.252   2.329
 1441W        W 2738   1.068   1.462   6.165
 1442W        W 2739   6.377   4.332   6.783
 1443W        W 2740   3.324   3.097   3.673
 1444W        W 2741   5.438   5.281   6.001
 1445W        W 2742   0.809   6.686   2.981
 1446W        W 2743   0.777   6.112   2.965
 1447W        W 2744   3.487   4.986   4.428
 1448W        W 2745   3.167   0.604   6.844
 1449W        W 2746   6.270   2.036   1.307
 1450W        W 2747   6.992   7.244   4.600
 1451W        W 2748   4.596   0.434   3.209
 1452W        W 2749   2.103   2.748   2.595
 1453W        W 2750   5.991   0.155   1.908
 1454W        W 2751   2.444   5.265   6.163
 1455W        W 2752   7.245   3.960   3.772
 1456W        W 2753   3.115   2.557   0.812
 1457W        W 2754   6.885   3.107   6.313
 1458W        W 2755   2.833   1.406   1.221
 1459W        W 2756   0.785   4.785   2.581
 1460W        W 2757   0.903   1.616   7.453
 1461W        W 2758   6.995   5.354   6.950
 1462W        W 2759   2.593   7.482   3.519
 1463W        W 2760   7.246   3.217   5.972
 1464W        W 2761   7.633   5.514   6.430
 1465W        W 2762   6.332   0.010   4.728
 1466W        W 2763   3.484   4.338   2.193
 1467W        W 2764   7.116   1.584   2.553
 1468W        W 2765   0.810   7.164   3.767
 1469W        W 2766   3.415   2.157   1.055
 1470W        W 2767   3.154   4.749   0.690
 1471W        W 2768   5.340   2.825   7.005
 1472W        W 2769   5.027   2.776   4.577
 1473W        W 2770   5.770   1.907   6.697
 1474W        W 2771   4.220   7.075   7.275
 1475W        W 2772   6.759   0.243   4.829
 1476W        W 2773   1.628   0.706   1.617
 1477W        W 2774   0.489   4.966   4.636
 1478W        W 2775   5.986   7.488   3.378
 1479W        W 2776   1.938   5.303   2.866
 1480W        W 2777   7.521   4.298   5.024
 1481W        W 2778   6.335   3.144   3.199
 1482W        W 2779   3.156   3.442   3.126
 1483W        W 2780   5.224   5.998   4.963
 1484W        W 2781   5.494   2.063   5.801
 1485W        W 2782   0.733   1.670   6.532
 1486W        W 2783   2.081   2.761   6.181
 1487W        W 2784   0.308   2.534   6.260
 1488W        W 2785   5.072   0.020   3.294
 1489W        W 2786   4.432   4.610   6.126
 1490W        W 2787   3.437   2.648   5.168
 1491W        W 2788   5.232   6.090   5.462
 1492W        W 2789   6.355   4.453   1.171
 1493W        W 2790   2.604   3.416   5.525
 1494W        W 2791   6.591   4.843   0.898
 1495W        W 2792   1.601   5.066   5.680
 1496W        W 2793   2.095   5.109   3.326
 1497W        W 2794   6.188   3.837   5.558
 1498W        W 2795   6.454   0.693   6.576
 1499W        W 2796   5.340   4.242   3.604
 1500W        W 2797   6.901   0.731   2.667
 1501W        W 2798   0.636   4.426   7.269
 1502W        W 2799   1.736   0.583   7.301
 1503W        W 2800   2.602   4.484   7.998
 1504W        W 2801   5.575   2.588   0.940
 1505W        W 2802   4.511   5.123   5.242
 1506W        W 2803   2.834   2.269   5.956
 1507W        W 2804   1.675   6.588   2.090
 1508W        W 2805   2.373   3.864   4.210
 1509W        W 2806   5.693   5.481   2.726
 1510W        W 2807   0.808   1.530   3.707
 1511W        W 2808   4.291   4.353   3.294
 1512W        W 2809   2.972   0.804   3.315
 1513W        W 2810   5.204   5.412   6.796
 1514W        W 2811   2.050   2.541   0.657
 1515W        W 2812   2.765   5.389   3.894
 1516W        W 2813   0.997   5.597   5.903
 1517W        W 2814   5.901   2.396   5.573
 1518W        W 2815   0.261   4.488   0.864
 1519W        W 2816   2.387   4.993   4.693
 1520W        W 2817   2.567   0.561   1.967
 1521W        W 2818   2.186   6.724   0.351
 1522W        W 2819   2.084   6.256   3.080
 1523W        W 2820   1.300   6.170   1.812
 1524W        W 2821   3.106   3.526   6.209
 1525W        W 2822   1.849   0.924   2.919
 1526W        W 2823   2.583   2.354   5.503
 1527W        W 2824   0.895   6.748   3.485
 1528W        W 2825   6.150   7.781   7.737
 1529W        W 2826   2.474   5.245   6.711
 1530W        W 2827   5.791   5.765   2.305
 1531W        W 2828   2.816   3.045   3.843
 1532W        W 2829   3.465   6.603   3.586
 1533W        W 2830   2.870   1.830   5.106
 1534W        W 2831   0.869   0.489   6.450
 1535W        W 2832   2.094   2.041   2.249
 1536W        W 2833   4.056   2.226   0.039
 1537W        W 2834   4.402   4.519   6.899
 1538W        W 2835   1.892   6.351   0.043
 1539W        W 2836   4.109   3.613   5.972
 1540W        W 2837   3.853   4.963   0.089
 1541W        W 2838   5.858   1.367   4.941
 1542W        W 2839   4.936   5.598   0.202
 1543W        W 2840   5.299   3.396   2.432
 1544W        W 2841   1.177   2.748   6.944
 1545W        W 2842   0.581   1.187   6.624
 1546W        W 2843   4.225   4.602   3.936
 1547W        W 2844   6.913   4.421   3.719
 1548W        W 2845   6.801   3.624   7.397
 1549W        W 2846   2.255   5.717   2.811
 1550W        W 2847   1.418   4.206   0.792
 1551W        W 2848   4.261   2.680   2.550
 1552W        W 2849   4.464   6.208   5.416
 1553W        W 2850   3.417   3.381   0.949
 1554W        W 2851   2.454   3.168   6.848
 1555W        W 2852   4.088   1.047   5.395
 1556W        W 2853   1.959   0.837   3.809
 1557W        W 2854   2.689   4.063   0.302
 1558W        W 2855   2.981   6.470   1.287
 1559W        W 2856   1.524   3.113   6.802
 1560W        W 2857   5.536   2.680   4.706
 1561W        W 2858   3.910   1.109   4.377
 1562W        W 2859   1.832   7.132   4.769
 1563W        W 2860   0.898   0.991   6.284
 1564W        W 2861   1.603   1.123   6.748
 1565W        W 2862   2.477   5.676   4.174
 1566W        W 2863   1.055   4.292   5.496
 1567W        W 2864   1.311   1.588   3.577
 1568W        W 2865   3.894   2.790   5.336
 1569W        W 2866   5.846   0.667   3.615
 1570W        W 2867   6.230   5.816   5.722
 1571W        W 2868   1.207   0.796   3.651
 1572W        W 2869   5.959   0.716   2.331
 1573W        W 2870   5.581   6.756   2.143
 1574W        W 2871   2.192   2.513   3.341
 1575W        W 2872   4.486   2.470   3.819
 1576W        W 2873   2.736   1.717   5.962
 1577W        W 2874   4.497   1.087   6.986
 1578W        W 2875   0.908   0.733   7.343
 1579W        W 2876   2.714   4.690   4.433
 1580W        W 2877   5.432   6.488   4.133
 1581W        W 2878   6.865   4.020   0.411
 1582W        W 2879   3.705   5.723   4.018
 1583W        W 2880   2.392   1.764   6.369
 1584W        W 2881   6.715   4.186   0.922
 1585W        W 2882   3.003   3.713   5.683
 1586W        W 2883   7.681   2.281   2.734
 1587W        W 2884   1.181   2.439   4.750
 1588W        W 2885   2.000   4.998   6.945
 1589W        W 2886   3.423   2.966   0.601
 1590W        W 2887   7.118   4.934   2.210
 1591W        W 2888   5.601   7.826   3.376
 1592W        W 2889   4.026   4.886   7.084
 1593W        W 2890   3.022   3.035   2.832
 1594W        W 2891   1.787   6.716   5.127
 1595W        W 2892   1.518   5.256   3.864
 1596W        W 2893   6.222   7.077   4.102
 1597W        W 2894   4.208   5.085   5.995
 1598W        W 2895   7.105   2.662   3.847
 1599W        W 2896   7.008   4.308   2.858
 1600W        W 2897   0.055   1.356   1.144
 1601W        W 2898   2.414   2.362   6.310
 1602W        W 2899   7.038   0.514   1.054
 1603W        W 2900   3.758   0.296   3.363
 1604W        W 2901   4.185   6.907   1.231
 1605W        W 2902   5.427   6.186   7.096
 1606W        W 2903   5.060   4.882   3.054
 1607W        W 2904   2.922   5.182   5.498
 1608W        W 2905   6.803   3.140   0.109
 1609W        W 2906   2.728   4.853   2.805
 1610W        W 2907   5.877   1.262   6.068
 1611W        W 2908   7.088   6.938   6.373
 1612W        W 2909   1.024   0.867   5.007
 1613W        W 2910   4.126   6.210   2.420
 1614W        W 2911   3.944   2.298   2.692
 1615W        W 2912   1.149   7.961   1.551
 1616W        W 2913   5.169   4.460   5.709
 1617W        W 2914   4.836   2.280   1.225
 1618W        W 2915   1.275   0.382   7.401
 1619W        W 2916   1.383   7.653   7.321
 1620W        W 2917   0.801   3.050   6.664
 1621W        W 2918   2.992   4.070   5.301
 1622W        W 2919   4.633   0.320   1.725
 1623W        W 2920   0.887   5.755   4.463
 1624W        W 2921   6.092   1.995   7.851
 1625W        W 2922   5.953   7.511   2.544
 1626W        W 2923   3.511   6.500   0.640
 1627W        W 2924   5.040   1.229   0.189
 1628W        W 2925   2.347   3.482   7.245
 1629W        W 2926   2.328   4.476   5.752
 1630W        W 2927   4.299   4.085   6.083
 1631W        W 2928   2.003   0.931   4.770
 1632W        W 2929   1.392   4.086   1.787
 1633W        W 2930   1.372   3.214   5.901
 1634W        W 2931   1.358   0.711   2.098
 1635W        W 2932   0.404   0.611   2.179
 1636W        W 2933   2.182   4.845   3.753
 1637W        W 2934   5.166   3.413   0.680
 1638W        W 2935   4.066   6.036   3.824
 1639W        W 2936   4.292   3.350   4.733
 1640W        W 2937   3.234   1.382   1.554
 1641W        W 2938   2.052   5.956   4.215
 1642W        W 2939   5.892   2.057   7.364
 1643W        W 2940   4.358   4.420   1.222
 1644W        W 2941   0.858   6.242   4.291
 1645W        W 2942   5.219   4.923   6.890
 1646W        W 2943   6.241   2.004   4.390
 1647W        W 2944   4.450   4.900   1.147
 1648W        W 2945   1.330   4.457   4.262
 1649W        W 2946   0.948   3.464   5.014
 1650W        W 2947   6.069   4.025   2.896
 1651W        W 2948   3.659   4.300   6.310
 1652W        W 2949   6.585   0.676   0.877
 1653W        W 2950   4.431   1.466   0.267
 1654W        W 2951   0.917   6.101   2.479
 1655W        W 2952   4.423   1.364   6.582
 1656W        W 2953   0.034   5.753   6.173
 1657W        W 2954   7.086   7.372   3.936
 1658W        W 2955   5.978   7.291   5.406
 1659W        W 2956   3.961   4.504   2.336
 1660W        W 2957   5.648   0.627   3.035
 1661W        W 2958   5.714   7.721   4.591
 1662W        W 2959   5.822   2.521   2.829
 1663W        W 2960   5.955   1.935   5.033
 1664W        W 2961   7.352   6.349   6.006
 1665W        W 2962   7.535   1.329   3.612
 1666W        W 2963   4.966   3.872   0.282
 1667W        W 2964   0.852   7.656   7.403
 1668W        W 2965   4.516   5.878   4.549
 1669W        W 2966   1.655   0.046   7.526
 1670W        W 2967   5.988   3.176   6.819
 1671W        W 2968   1.995   6.732   1.699
 1672W        W 2969   7.669   6.100   1.440
 1673W        W 2970   3.660   1.530   6.628
 1674W        W 2971   4.465   4.619   4.392
 1675W        W 2972   7.154   6.904   2.296
 1676W        W 2973   2.948   2.309   1.221
 1677W        W 2974   3.200   6.163   3.522
 1678W        W 2975   3.930   2.879   0.529
 1679W        W 2976   3.798   6.619   2.349
 1680W        W 2977   7.515   4.382   1.641
 1681W        W 2978   1.367   1.622   7.741
 1682W        W 2979   7.218   4.785   7.870
 1683W        W 2980   0.968   4.517   7.683
 1684W        W 2981   3.447   3.189   6.605
 1685W        W 2982   0.834   5.964   6.222
 1686W        W 2983   1.767   1.827   5.736
 1687W        W 2984   2.400   4.688   3.153
 1688W        W 2985   6.330   3.295   1.290
 1689W        W 2986   2.664   3.495   4.038
 1690W        W 2987   5.655   6.528   6.763
 1691W        W 2988   7.997   6.108   1.039
 1692W        W 2989   5.278   3.034   5.718
 1693W        W 2990   6.192   3.373   0.730
 1694W        W 2991   5.883   1.429   1.824
 1695W        W 2992   2.346   1.518   6.816
 1696W        W 2993   6.654   7.836   7.795
 1697W        W 2994   6.911   3.722   4.654
 1698W        W 2995   3.085   6.608   5.280
 1699W        W 2996   1.800   6.750   2.964
 1700W        W 2997   4.675   1.987   3.676
 1701W        W 2998   4.480   0.236   5.770
 1702W        W 2999   2.858   2.019   4.625
 1703W        W 3000   6.271   6.869   1.978
 1704W        W 3001   3.651   5.102   1.263
 1705W        W 3002   0.161   3.533   0.781
 1706W        W 3003   4.176   4.908   2.115
 1707W        W 3004   6.810   2.007   5.609
 1708W        W 3005   2.315   2.000   3.313
 1709W        W 3006   3.244   4.777   6.677
 1710W        W 3007   5.112   3.622   7.104
 1711W        W 3008   0.790   7.199   6.599
 1712W        W 3009   6.735   2.317   6.015
 1713W        W 3010   5.686   7.604   5.089
 1714W        W 3011   4.371   4.565   0.734
 1715W        W 3012   3.552   5.542   4.444
 1716W        W 3013   7.641   3.803   4.112
 1717W        W 3014   7.348   1.807   3.451
 1718W        W 3015   5.808   1.090   3.272
 1719W        W 3016   6.845   3.928   5.131
 1720W        W 3017   4.911   4.166   1.299
 1721W        W 3018   0.735   2.906   7.167
 1722W        W 3019   5.046   3.267   5.271
 1723W        W 3020   3.202   6.205   2.119
 1724W        W 3021   0.728   0.594   5.960
 1725W        W 3022   3.297   6.389   6.255
 1726W        W 3023   0.384   5.469   0.681
 1727W        W 3024   1.037   4.833   3.963
 1728W        W 3025   4.923   5.648   4.754
 1729W        W 3026   7.470   6.171   0.969
 1730W        W 3027   1.295   4.352   2.218
 1731W        W 3028   1.327   4.032   2.608
 1732W        W 3029   4.098   2.063   6.023
 1733W        W 3030   6.212   3.529   2.016
 1734W        W 3031   0.416   1.422   4.043
 1735W        W 3032   1.572   3.655   6.153
 1736W        W 3033   5.523   7.083   1.327
 1737W        W 3034   6.391   2.166   4.864
 1738W        W 3035   1.351   4.368   1.286
 1739W        W 3036   6.828   4.351   6.529
 1740W        W 3037   0.208   5.596   2.913
 1741W        W 3038   2.062   0.919   1.489
 1742W        W 3039   5.727   1.307   0.912
 1743W        W 3040   3.866   1.646   2.237
 1744W        W 3041   7.038   4.542   0.749
 1745W        W 3042   7.429   4.368   3.554
 1746W        W 3043   5.066   2.883   6.543
 1747W        W 3044   2.353   2.093   5.897
 1748W        W 3045   3.540   1.063   6.418
 1749W        W 3046   6.665   7.401   0.682
 1750W        W 3047   5.751   2.492   0.485
 1751W        W 3048   7.542   4.781   3.864
 1752W        W 3049   7.983   5.040   3.067
 1753W        W 3050   1.120   1.203   3.951
 1754W        W 3051   0.444   5.847   6.515
 1755W        W 3052   3.922   7.314   1.749
 1756W        W 3053   0.718   0.365   6.972
 1757W        W 3054   1.897   5.126   2.377
 1758W        W 3055   5.304   5.204   1.389
 1759W        W 3056   4.009   1.805   2.869
 1760W        W 3057   2.028   5.497   6.741
 1761W        W 3058   0.285   6.165   2.802
 1762W        W 3059   5.073   4.708   0.343
 1763W        W 3060   3.315   2.666   1.277
 1764W        W 3061   0.971   2.592   2.979
 1765W        W 3062   5.331   1.224   6.513
 1766W        W 3063   6.733   5.402   6.052
 1767W        W 3064   1.450   5.861   5.060
 1768W        W 3065   3.322   2.325   6.395
 1769W        W 3066   7.514   4.141   5.805
 1770W        W 3067   0.005   2.509   3.420
 1771W        W 3068   2.813   6.558   6.403
 1772W        W 3069   6.655   1.014   5.781
 1773W        W 3070   3.020   3.421   0.627
 1774W        W 3071   6.925   2.622   6.472
 1775W        W 3072   5.839   4.610   3.135
 1776W        W 3073   1.480   6.060   0.822
 1777W        W 3074   1.848   2.627   3.006
 1778W        W 3075   6.294   5.319   5.820
 1779W        W 3076   0.444   3.612   5.030
 1780W        W 3077   5.678   3.622   7.995
 1781W        W 3078   6.164   1.112   5.660
 1782W        W 3079   2.200   0.260   2.221
 1783W        W 3080   2.193   3.252   2.488
 1784W        W 3081   3.086   6.021   5.982
 1785W        W 3082   1.811   4.870   1.815
 1786W        W 3083   5.013   2.265   6.409
 1787W        W 3084   6.092   3.652   1.561
 1788W        W 3085   5.636   0.452   0.571
 1789W        W 3086   3.942   4.691   6.179
 1790W        W 3087   2.510   0.604   5.660
 1791W        W 3088   3.501   0.604   7.251
 1792W        W 3089   3.219   5.243   4.091
 1793W        W 3090   6.646   1.077   2.370
 1794W        W 3091   4.026   3.315   4.272
 1795W        W 3092   0.216   5.149   2.617
 1796W        W 3093   3.039   5.183   2.153
 1797W        W 3094   6.575   5.601   7.141
 1798W        W 3095   1.111   1.741   1.318
 1799W        W 3096   2.084   6.472   4.223
 1800W        W 3097   1.823   0.620   4.408
 1801W        W 3098   1.999   0.367   6.431
 1802W        W 3099   4.509   3.756   0.492
 1803W        W 3100   1.303   3.960   5.818
 1804W        W 3101   6.833   7.368   6.436
 1805W        W 3102   5.018   7.483   5.575
 1806W        W 3103   6.105   6.245   2.305
 1807W        W 3104   3.956   4.334   0.894
 1808W        W 3105   4.241   1.291   4.043
 1809W        W 3106   3.428   6.985   3.221
 1810W        W 3107   0.804   4.739   5.441
 1811W        W 3108   0.002   5.099   7.409
 1812W        W 3109   2.991   5.226   7.995
 1813W        W 3110   6.777   2.502   2.552
 1814W        W 3111   6.897   2.081   7.329
 1815W        W 3112   7.637   2.356   4.473
 1816W        W 3113   2.190   3.553   3.850
 1817W        W 3114   6.847   4.606   1.270
 1818W        W 3115   6.251   1.287   6.861
 1819W        W 3116   6.028   2.124   3.587
 1820W        W 3117   3.364   3.691   1.411
 1821W        W 3118   7.146   5.932   2.773
 1822W        W 3119   2.789   5.848   2.499
 1823W        W 3120   3.343   3.812   4.662
 1824W        W 3121   4.966   3.096   0.318
 1825W        W 3122   6.135   0.727   3.086
 1826W        W 3123   2.241   5.863   3.742
 1827W        W 3124   6.763   7.861   2.685
 1828W        W 3125   4.705   4.548   1.579
 1829W        W 3126   6.632   1.656   2.941
 1830W        W 3127   3.568   5.306   3.705
 1831W        W 3128   2.498   6.156   2.780
 1832W        W 3129   2.794   1.764   6.818
 1833W        W 3130   3.156   1.518   4.480
 1834W        W 3131   1.457   5.488   2.871
 1835W        W 3132   5.376   1.032   1.177
 1836W        W 3133   2.127   4.707   2.184
 1837W        W 3134   2.179   3.146   5.526
 1838W        W 3135   7.204   1.071   2.452
 1839W        W 3136   4.463   4.107   1.589
 1840W        W 3137   1.597   5.212   1.025
 1841W        W 3138   6.488   6.365   3.434
 1842W        W 3139   3.028   3.583   2.168
 1843W        W 3140   4.551   1.802   7.244
 1844W        W 3141   5.224   7.203   7.141
 1845W        W 3142   5.489   0.589   4.437
 1846W        W 3143   4.788   6.472   3.344
 1847W        W 3144   0.961   4.304   3.929
 1848W        W 3145   7.473   3.895   3.248
 1849W        W 3146   1.246   1.104   0.854
 1850W        W 3147   5.880   6.538   6.283
 1851W        W 3148   1.519   3.540   7.069
 1852W        W 3149   1.699   1.233   1.736
 1853W        W 3150   1.608   6.751   7.902
 1854W        W 3151   2.050   2.673   1.687
 1855W        W 3152   2.270   6.306   7.696
 1856W        W 3153   3.310   7.959   2.251
 1857W        W 3154   1.853   4.580   5.580
 1858W        W 3155   4.528   6.172   5.946
 1859W        W 3156   3.190   3.471   2.630
 1860W        W 3157   1.242   6.052   7.062
 1861W        W 3158   5.833   4.379   6.281
 1862W        W 3159   1.404   0.268   1.155
 1863W        W 3160   1.503   1.625   6.745
 1864W        W 3161   1.343   0.882   7.118
 1865W        W 3162   0.534   5.146   0.305
 1866W        W 3163   6.477   6.592   2.364
 1867W        W 3164   7.969   7.055   6.461
 1868W        W 3165   4.360   6.105   7.030
 1869W        W 3166   7.058   0.868   4.472
 1870W        W 3167   2.332   4.068   6.036
 1871W        W 3168   0.261   5.306   6.991
 1872W        W 3169   1.117   3.733   1.558
 1873W        W 3170   1.606   2.052   3.984
 1874W        W 3171   0.342   5.754   1.107
 1875W        W 3172   5.478   5.160   5.496
 1876W        W 3173   3.810   3.245   4.713
 1877W        W 3174   6.568   6.658   5.763
 1878W        W 3175   5.957   0.097   4.391
 1879W        W 3176   4.768   1.802   5.351
 1880W        W 3177   4.687   0.116   3.641
 1881W        W 3178   2.090   0.842   5.466
 1882W        W 3179   1.658   7.053   1.910
 1883W        W 3180   5.996   4.685   1.485
 1884W        W 3181   5.676   2.036   0.191
 1885W        W 3182   5.688   6.583   1.402
 1886W        W 3183   4.702   1.110   1.210
 1887W        W 3184   4.413   1.856   3.215
 1888W        W 3185   5.890   0.062   4.954
 1889W        W 3186   0.559   2.829   5.900
 1890W        W 3187   0.133   7.739   6.477
 1891W        W 3188   6.940   1.979   3.210
 1892W        W 3189   1.643   5.381   6.420
 1893W        W 3190   2.231   0.264   5.979
 1894W        W 3191   6.917   7.445   3.448
 1895W        W 3192   7.033   1.425   3.638
 1896W        W 3193   2.536   7.941   1.289
 1897W        W 3194   2.081   4.033   4.843
 1898W        W 3195   7.250   2.158   4.756
 1899W        W 3196   7.475   6.536   2.160
 1900W        W 3197   1.670   0.658   6.172
 1901W        W 3198   5.845   2.029   2.972
 1902W        W 3199   1.235   1.493   1.759
 1903W        W 3200   6.480   2.892   2.386
 1904W        W 3201   1.658   5.708   7.300
 1905W        W 3202   7.549   4.672   2.121
 1906W        W 3203   1.435   1.126   6.250
 1907W        W 3204   0.111   6.607   6.222
 1908W        W 3205   4.997   4.957   5.296
 1909W        W 3206   3.839   1.549   7.623
 1910W        W 3207   4.175   6.170   4.768
 1911W        W 3208   6.428   5.384   1.676
 1912W        W 3209   2.117   5.856   7.495
 1913W        W 3210   1.116   1.286   6.648
 1914W        W 3211   3.098   1.798   0.860
 1915W        W 3212   7.786   3.778   5.594
 1916W        W 3213   0.162   7.003   2.263
 1917W        W 3214   3.399   5.883   5.204
 1918W        W 3215   2.853   1.206   5.967
 1919W        W 3216   5.895   7.292   4.419
 1920W        W 3217   6.265   2.827   7.039
 1921W        W 3218   4.714   1.144   0.583
 1922W        W 3219   3.575   4.808   3.929
 1923W        W 3220   2.801   2.366   2.687
 1924W        W 3221   3.643   6.876   2.779
 1925W        W 3222   1.967   4.265   0.457
 1926W        W 3223   6.336   1.250   2.773
 1927W        W 3224   3.926   4.723   4.358
 1928W        W 3225   4.023   5.322   6.791
 1929W        W 3226   0.933   5.753   6.719
 1930W        W 3227   2.565   4.539   3.624
 1931W        W 3228   4.293   3.890   5.554
 1932W        W 3229   4.004   3.249   5.173
 1933W        W 3230   0.319   0.832   3.430
 1934W        W 3231   0.684   1.034   3.744
 1935W        W 3232   1.799   1.676   3.721
 1936W        W 3233   2.155   5.492   0.512
 1937W        W 3234   6.831   5.312   0.806
 1938W        W 3235   3.861   3.505   6.713
 1939W        W 3236   3.037   1.072   6.696
 1940W        W 3237   5.093   7.056   6.323
 1941W        W 3238   0.541   1.422   6.137
 1942W        W 3239   4.931   3.962   3.695
 1943W        W 3240   5.146   2.850   7.906
 1944W        W 3241   6.456   2.238   0.159
 1945W        W 3242   2.367   6.937   2.353
 1946W        W 3243   1.366   6.027   3.620
 1947W        W 3244   6.522   6.989   4.498
 1948W        W 3245   2.589   2.921   2.551
 1949W        W 3246   7.200   7.311   1.963
 1950W        W 3247   2.374   5.020   0.640
 1951W        W 3248   5.751   2.460   6.050
 1952W        W 3249   4.239   1.921   2.445
 1953W        W 3250   5.969   3.404   7.635
 1954W        W 3251   6.766   5.132   2.515
 1955W        W 3252   2.915   3.065   3.342
 1956W        W 3253   4.870   3.892   1.760
 1957W        W 3254   6.166   6.270   5.478
 1958W        W 3255   2.506   2.173   5.025
 1959W        W 3256   1.795   4.480   1.492
 1960W        W 3257   1.603   4.619   0.455
 1961W        W 3258   3.809   2.989   3.490
 1962W        W 3259   0.501   2.773   4.093
 1963W        W 3260   1.041   3.974   1.102
 1964W        W 3261   0.920   3.261   2.327
 1965W        W 3262   6.616   1.568   2.434
 1966W        W 3263   0.810   3.650   4.555
 1967W        W 3264   4.371   1.300   4.534
 1968W        W 3265   6.044   3.066   2.130
 1969W        W 3266   0.842   4.659   4.403
 1970W        W 3267   2.770   4.944   6.392
 1971W        W 3268   6.380   0.374   4.341
 1972W        W 3269   0.208   1.848   1.028
 1973W        W 3270   6.397   7.988   6.018
 1974W        W 3271   2.936   5.238   3.090
 1975W        W 3272   6.459   7.051   6.532
 1976W        W 3273   6.146   5.747   4.051
 1977W        W 3274   5.339   4.340   6.179
 1978W        W 3275   0.952   2.993   5.174
 1979W        W 3276   4.636   7.709   3.309
 1980W        W 3277   3.272   1.986   4.310
 1981W        W 3278   6.024   5.243   6.790
 1982W        W 3279   5.509   2.733   7.560
 1983W        W 3280   5.576   2.528   2.154
 1984W        W 3281   0.427   4.053   2.578
 1985W        W 3282   3.271   1.889   6.640
 1986W        W 3283   7.247   3.481   4.099
 1987W        W 3284   6.479   5.936   5.251
 1988W        W 3285   3.376   7.937   3.090
 1989W        W 3286   5.114   4.477   4.956
 1990W        W 3287   4.334   3.572   0.949
 1991W        W 3288   0.950   4.545   3.473
 1992W        W 3289   5.366   6.598   6.331
 1993W        W 3290   5.330   4.362   1.034
 1994W        W 3291   3.202   0.289   3.445
 1995W        W 3292   7.039   5.826   4.004
 1996W        W 3293   1.522   7.646   7.866
 1997W        W 3294   2.203   4.520   4.759
 1998W        W 3295   4.598   2.685   2.955
 1999W        W 3296   6.665   7.980   1.539
 2000W        W 3297   1.783   3.809   3.160
 2001W        W 3298   2.025   0.960   6.995
 2002W        W 3299   3.438   5.480   5.866
 2003W        W 3300   5.939   0.283   3.271
 2004W        W 3301   6.032   2.827   6.389
 2005W        W 3302   5.452   7.584   1.238
 2006W        W 3303   0.793   2.677   6.310
 2007W        W 3304   6.739   6.843   3.332
 2008W        W 3305   1.207   0.438   6.895
 2009W        W 3306   6.749   3.010   1.434
 2010W        W 3307   3.985   4.737   1.345
 2011W        W 3308   1.200   7.171   3.414
 2012W        W 3309   7.749   3.057   3.430
 2013W        W 3310   6.926   7.071   6.843
 2014W        W 3311   7.917   4.608   7.272
 2015W        W 3312   3.165   1.840   1.864
 2016W        W 3313   2.921   0.990   3.808
 2017W        W 3314   2.663   1.236   5.063
 2018W        W 3315   5.334   2.712   6.137
 2019W        W 3316   1.177   1.048   4.480
 2020W        W 3317   0.967   6.395   1.487
 2021W        W 3318   5.228   7.506   6.674
 2022W        W 3319   3.728   5.043   2.887
 2023W        W 3320   6.458   1.055   5.249
 2024W        W 3321   6.829   0.964   1.235
 2025W        W 3322   7.289   4.393   4.063
 2026W        W 3323   0.724   0.412   1.819
 2027W        W 3324   3.623   5.025   0.574
 2028W        W 3325   5.665   2.820   0.111
 2029W        W 3326   2.068   2.230   4.121
 2030W        W 3327   6.394   6.968   0.588
 2031W        W 3328   0.607   7.847   6.982
 2032W        W 3329   1.372   2.872   4.954
 2033W        W 3330   6.673   7.622   4.730
 2034W        W 3331   2.153   1.248   5.125
 2035W        W 3332   2.181   6.547   2.684
 2036W        W 3333   5.423   4.476   7.042
 2037W        W 3334   6.457   7.365   5.245
 2038W        W 3335   4.397   5.323   0.880
 2039W        W 3336   2.356   1.245   1.175
 2040W        W 3337   6.989   7.792   5.588
 2041W        W 3338   5.389   7.445   4.290
 2042W        W 3339   6.533   5.267   4.908
 2043W        W 3340   6.430   7.254   3.336
 2044W        W 3341   5.276   1.721   5.474
 2045W        W 3342   5.024   7.702   7.114
 2046W        W 3343   3.323   5.267   0.937
 2047W        W 3344   5.595   3.951   4.506
 2048W        W 3345   3.627   5.526   4.929
 2049W        W 3346   4.935   2.299   4.624
 2050W        W 3347   7.343   6.145   3.738
 2051W        W 3348   7.418   6.796   4.137
 2052W        W 3349   1.648   0.921   5.716
 2053W        W 3350   0.211   2.893   7.216
 2054W        W 3351   2.779   3.969   2.436
 2055W        W 3352   1.229   6.826   2.094
 2056W        W 3353   1.158   0.106   0.700
 2057W        W 3354   6.452   3.513   0.289
 2058W        W 3355   6.597   4.005   6.035
 2059W        W 3356   7.731   2.470   2.263
 2060W        W 3357   2.290   4.125   0.855
 2061W        W 3358   5.068   5.727   4.284
 2062W        W 3359   5.264   3.215   6.191
 2063W        W 3360   3.074   2.723   5.950
 2064W        W 3361   1.503   3.375   3.110
 2065W        W 3362   5.079   4.302   2.767
 2066W        W 3363   2.480   6.692   3.951
 2067W        W 3364   7.709   3.248   6.165
 2068W        W 3365   4.468   6.119   1.867
 2069W        W 3366   4.135   1.197   7.835
 2070W        W 3367   5.954   0.502   4.668
 2071W        W 3368   4.575   1.284   3.218
 2072W        W 3369   4.436   4.353   5.678
 2073W        W 3370   1.670   6.204   4.419
 2074W        W 3371   7.979   1.170   2.922
 2075W        W 3372   6.728   5.669   2.020
 2076W        W 3373   5.029   6.206   0.674
 2077W        W 3374   1.696   0.331   2.083
 2078W        W 3375   4.927   3.698   2.235
 2079W        W 3376   4.653   7.981   4.414
 2080W        W 3377   6.458   3.046   4.546
 2081W        W 3378   4.457   1.214   1.651
 2082W        W 3379   3.374   5.999   4.315
 2083W        W 3380   5.865   6.092   2.717
 2084W        W 3381   3.426   7.224   1.825
 2085W        W 3382   1.361   4.393   6.727
 2086W        W 3383   5.602   6.595   2.632
 2087W        W 3384   7.740   2.911   5.179
 2088W        W 3385   6.205   1.470   0.712
 2089W        W 3386   6.593   0.711   4.657
 2090W        W 3387   6.222   4.230   7.746
 2091W        W 3388   4.771   5.568   7.157
 2092W        W 3389   6.380   5.390   4.381
 2093W        W 3390   4.495   1.582   2.796
 2094W        W 3391   3.384   6.247   1.075
 2095W        W 3392   5.787   7.851   1.543
 2096W        W 3393   6.534   5.687   3.754
 2097W        W 3394   7.277   4.836   1.482
 2098W        W 3395   7.343   2.889   0.970
 2099W        W 3396   0.409   2.793   4.604
 2100W        W 3397   3.388   6.523   7.462
 2101W        W 3398   4.712   1.167   2.582
 2102W        W 3399   7.305   0.253   5.736
 2103W        W 3400   1.263   2.384   3.804
 2104W        W 3401   2.749   2.063   1.633
 2105W        W 3402   6.994   3.034   0.602
 2106W        W 3403   3.589   2.630   3.762
 2107W        W 3404   4.473   3.374   3.524
 2108W        W 3405   2.607   1.404   2.598
 2109W        W 3406   6.336   7.150   5.726
 2110W        W 3407   4.703   2.515   1.656
 2111W        W 3408   5.975   6.515   3.576
 2112W        W 3409   1.437   1.992   0.115
 2113W        W 3410   6.145   4.977   1.892
 2114W        W 3411   1.694   1.617   4.889
 2115W        W 3412   0.149   6.875   4.044
 2116W        W 3413   7.631   3.086   1.354
 2117W        W 3414   6.514   4.917   6.036
 2118W        W 3415   2.288   1.817   3.858
 2119W        W 3416   4.649   5.918   4.077
 2120W        W 3417   5.908   5.159   6.106
 2121W        W 3418   1.870   3.340   5.887
 2122W        W 3419   6.253   5.727   2.462
 2123W        W 3420   1.680   6.063   2.170
 2124W        W 3421   6.341   2.510   4.441
 2125W        W 3422   6.811   7.297   5.645
 2126W        W 3423   3.195   5.005   7.249
 2127W        W 3424   1.408   2.863   3.061
 2128W        W 3425   7.184   5.577   6.203
 2129W        W 3426   2.232   4.862   2.685
 2130W        W 3427   2.143   5.608   3.296
 2131W        W 3428   6.906   5.378   4.252
 2132W        W 3429   4.790   7.220   5.926
 2133W        W 3430   1.696   0.909   1.094
 2134W        W 3431   2.457   6.152   7.218
 2135W        W 3432   1.750   2.540   5.399
 2136W        W 3433   6.864   5.178   6.470
 2137W        W 3434   0.508   5.970   3.827
 2138W        W 3435   5.930   6.648   4.071
 2139W        W 3436   4.265   6.190   3.362
 2140W        W 3437   1.967   3.516   2.070
 2141W        W 3438   5.642   5.284   3.592
 2142W        W 3439   4.912   6.057   3.632
 2143W        W 3440   1.560   7.651   1.447
 2144W        W 3441   6.807   7.247   2.996
 2145W        W 3442   6.407   3.866   1.216
 2146W        W 3443   1.826   2.969   4.762
 2147W        W 3444   6.448   7.441   2.696
 2148W        W 3445   2.808   6.530   5.897
 2149W        W 3446   3.782   7.467   1.279
 2150W        W 3447   6.219   1.793   2.669
 2151W        W 3448   3.960   3.790   4.039
 2152W        W 3449   4.216   1.223   0.687
 2153W        W 3450   6.073   4.447   1.925
 2154W        W 3451   4.274   3.454   6.425
 2155W        W 3452   7.476   5.666   2.499
 2156W        W 3453   1.281   1.579   4.559
 2157W        W 3454   4.911   6.061   7.382
 2158W        W 3455   6.536   3.540   5.306
 2159W        W 3456   5.854   6.966   1.694
 2160W        W 3457   4.201   0.758   4.064
 2161W        W 3458   2.922   2.278   6.821
 2162W        W 3459   2.524   6.511   3.174
 2163W        W 3460   5.663   3.737   3.004
 2164W        W 3461   2.677   4.647   4.944
 2165W        W 3462   2.320   4.084   6.914
 2166W        W 3463   5.339   3.099   1.458
 2167W        W 3464   5.885   2.363   6.525
 2168W        W 3465   2.741   5.220   4.390
 2169W        W 3466   7.200   7.042   3.261
 2170W        W 3467   5.852   3.976   5.002
 2171W        W 3468   1.581   4.764   2.252
 2172W        W 3469   4.938   3.120   4.217
 2173W        W 3470   1.013   2.829   3.976
 2174W        W 3471   1.855   3.443   3.495
 2175W        W 3472   1.667   3.878   5.059
 2176W        W 3473   6.047   3.992   6.534
 2177W        W 3474   5.303   3.129   4.816
 2178W        W 3475   7.234   3.045   5.066
 2179W        W 3476   3.902   5.231   3.323
 2180W        W 3477   1.801   3.035   2.224
 2181W        W 3478   0.568   7.119   4.230
 2182W        W 3479   7.144   4.648   3.214
 2183W        W 3480   6.783   7.638   6.024
 2184W        W 3481   4.602   3.674   5.867
 2185W        W 3482   2.306   2.202   0.939
 2186W        W 3483   5.723   6.078   1.351
 2187W        W 3484   3.276   7.361   6.075
 2188W        W 3485   3.201   5.656   2.292
 2189W        W 3486   1.871   0.558   5.104
 2190W        W 3487   1.519   0.916   4.120
 2191W        W 3488   2.868   6.454   1.823
 2192W        W 3489   1.248   3.800   4.773
 2193W        W 3490   6.820   4.386   7.047
 2194W        W 3491   5.565   7.025   5.490
 2195W        W 3492   4.572   1.623   4.917
 2196W        W 3493   3.421   5.336   3.171
 2197W        W 3494   2.035   2.574   1.170
 2198W        W 3495   6.003   0.064   0.589
 2199W        W 3496   0.517   6.232   5.312
 2200W        W 3497   5.500   5.693   5.331
 2201W        W 3498   4.022   4.913   0.880
 2202W        W 3499   5.446   1.259   3.688
 2203W        W 3500   0.682   5.225   5.061
 2204W        W 3501   1.339   3.723   7.960
 2205W        W 3502   3.546   2.479   4.234
 2206W        W 3503   1.534   4.927   6.626
 2207W        W 3504   1.388   1.602   4.063
 2208W        W 3505   3.777   7.345   2.966
 2209W        W 3506   6.299   5.648   6.711
 2210W        W 3507   6.777   5.642   4.682
 2211W        W 3508   4.718   6.342   2.829
 2212W        W 3509   3.018   5.563   1.797
 2213W        W 3510   5.105   2.212   3.822
 2214W        W 3511   6.680   2.349   1.242
 2215W        W 3512   4.231   1.948   1.932
 2216W        W 3513   2.071   5.745   1.879
 2217W        W 3514   4.915   2.602   3.548
 2218W        W 3515   2.077   0.427   1.736
 2219W        W 3516   6.000   4.928   3.502
 2220W        W 3517   2.859   0.794   2.775
 2221W        W 3518   7.516   3.554   3.642
 2222W        W 3519   3.830   4.110   3.171
 2223W        W 3520   4.876   6.394   5.658
 2224W        W 3521   2.215   7.018   2.830
 2225W        W 3522   0.350   1.142   2.120
 2226W        W 3523   6.611   1.506   5.609
 2227W        W 3524   2.341   4.303   7.532
 2228W        W 3525   4.475   3.782   3.873
 2229W        W 3526   1.281   7.566   2.688
 2230W        W 3527   1.300   3.859   3.079
 2231W        W 3528   6.417   5.323   2.199
 2232W        W 3529   6.640   7.196   1.151
 2233W        W 3530   4.890   2.616   4.111
 2234W        W 3531   4.675   0.593   3.897
 2235W        W 3532   3.597   3.289   2.900
 2236W        W 3533   1.317   5.008   0.663
 2237W        W 3534   0.464   5.519   4.649
 2238W        W 3535   7.677   5.892   2.927
 2239W        W 3536   6.291   1.136   4.775
 2240W        W 3537   4.841   2.993   6.989
 2241W        W 3538   2.651   4.262   1.591
 2242W        W 3539   0.049   3.429   5.822
 2243W        W 3540   6.849   1.992   5.036
 2244W        W 3541   6.307   4.895   3.107
 2245W        W 3542   7.871   3.342   3.920
 2246W        W 3543   7.665   6.889   2.491
 2247W        W 3544   5.960   3.102   1.600
 2248W        W 3545   3.190   3.905   0.976
 2249W        W 3546   1.086   0.010   7.126
 2250W        W 3547   3.445   3.897   6.137
 2251W        W 3548   2.922   6.164   3.102
 2252W        W 3549   2.617   5.513   3.428
 2253W        W 3550   5.441   6.085   4.443
 2254W        W 3551   7.222   7.044   2.765
 2255W        W 3552   4.527   0.530   2.693
 2256W        W 3553   0.973   5.650   4.975
 2257W        W 3554   7.383   2.296   1.902
 2258W        W 3555   1.526   4.631   7.561
 2259W        W 3556   1.525   2.142   6.216
 2260W        W 3557   0.024   2.887   2.152
 2261W        W 3558   4.947   4.774   4.515
 2262W        W 3559   6.053   5.213   4.741
 2263W        W 3560   6.623   6.464   0.651
 2264W        W 3561   3.627   7.185   6.403
 2265W        W 3562   3.852   2.452   7.125
 2266W        W 3563   4.091   2.357   2.200
 2267W        W 3564   7.592   3.112   2.359
 2268W        W 3565   6.203   3.381   4.259
 2269W        W 3566   4.217   1.042   3.623
 2270W        W 3567   6.184   6.159   1.538
 2271W        W 3568   5.225   2.450   5.033
 2272W        W 3569   3.480   5.335   1.950
 2273W        W 3570   2.842   4.361   7.538
 2274W        W 3571   1.904   4.664   3.176
 2275W        W 3572   7.563   6.153   2.469
 2276W        W 3573   5.261   5.711   7.209
 2277W        W 3574   1.796   4.204   6.907
 2278W        W 3575   3.016   6.504   0.775
 2279W        W 3576   4.828   3.593   4.316
 2280W        W 3577   2.419   5.381   5.654
 2281W        W 3578   0.059   2.560   4.275
 2282W        W 3579   0.885   0.499   2.317
 2283W        W 3580   1.967   2.690   0.126
 2284W        W 3581   1.703   1.113   7.408
 2285W        W 3582   5.767   2.572   5.126
 2286W        W 3583   6.746   2.821   6.906
 2287W        W 3584   2.614   3.121   0.067
 2288W        W 3585   0.598   2.268   3.049
 2289W        W 3586   6.393   0.463   3.446
 2290W        W 3587   6.842   4.194   2.045
 2291W        W 3588   7.322   6.139   3.222
 2292W        W 3589   2.612   4.628   1.942
 2293W        W 3590   2.443   5.252   2.995
 2294W        W 3591   0.817   0.801   1.498
 2295W        W 3592   5.793   3.058   7.285
 2296W        W 3593   0.768   2.374   3.892
 2297W        W 3594   2.234   4.136   0.029
 2298W        W 3595   0.736   0.084   6.156
 2299W        W 3596   4.074   5.392   2.029
 2300W        W 3597   6.077   1.527   1.213
 2301W        W 3598   4.852   0.465   1.233
 2302W        W 3599   6.167   6.455   6.692
 2303W        W 3600   4.740   4.087   4.178
 2304W        W 3601   6.842   1.228   2.789
 2305W        W 3602   1.065   5.317   3.140
 2306W        W 3603   1.774   6.230   4.954
 2307W        W 3604   6.824   7.676   1.118
 2308W        W 3605   5.722   3.032   6.017
 2309W        W 3606   0.792   6.032   5.700
 2310W        W 3607   5.830   0.272   1.024
 2311W        W 3608   5.567   0.951   4.084
 2312W        W 3609   0.411   6.845   6.587
 2313W        W 3610   2.393   1.680   5.015
 2314W        W 3611   1.795   5.815   2.983
 2315W        W 3612   0.990   4.817   3.044
 2316W        W 3613   0.215   2.559   1.782
 2317W        W 3614   5.687   3.851   5.487
 2318W        W 3615   6.286   3.346   2.479
 2319W        W 3616   7.689   3.791   5.077
 2320W        W 3617   6.955   3.613   6.124
 2321W        W 3618   0.527   6.359   6.400
 2322W        W 3619   3.648   1.278   0.007
 2323W        W 3620   4.719   4.906   0.675
 2324W        W 3621   1.897   2.340   5.908
 2325W        W 3622   6.689   7.039   6.075
 2326W        W 3623   0.849   1.366   4.734
 2327W        W 3624   3.358   5.464   1.449
 2328W        W 3625   6.113   3.824   2.426
 2329W        W 3626   4.583   6.703   5.368
 2330W        W 3627   1.676   1.912   7.169
 2331W        W 3628   6.195   0.106   1.363
 2332W        W 3629   3.106   4.702   3.688
 2333W        W 3630   0.711   2.184   6.421
 2334W        W 3631   6.451   7.617   7.314
 2335W        W 3632   1.392   2.168   1.339
 2336W        W 3633   0.388   3.087   6.342
 2337W        W 3634   1.900   7.393   2.645
 2338W        W 3635   2.119   1.847   2.814
 2339W        W 3636   4.494   3.113   5.153
 2340W        W 3637   2.614   7.328   2.119
 2341W        W 3638   7.815   4.463   1.178
 2342W        W 3639   5.613   7.124   2.538
 2343W        W 3640   7.157   5.414   5.720
 2344W        W 3641   0.535   6.621   4.408
 2345W        W 3642   6.912   5.791   0.972
 2346W        W 3643   7.020   0.655   6.593
 2347W        W 3644   6.899   0.582   5.632
 2348W        W 3645   7.680   5.711   1.088
 2349W        W 3646   2.966   1.451   3.430
 2350W        W 3647   2.327   3.725   2.358
 2351W        W 3648   3.911   5.768   1.174
 2352W        W 3649   4.895   0.541   5.099
 2353W        W 3650   1.624   6.537   0.865
 2354W        W 3651   3.735   2.581   6.634
 2355W        W 3652   1.679   7.440   0.533
 2356W        W 3653   0.539   6.845   6.086
 2357W        W 3654   4.036   1.555   1.678
 2358W        W 3655   1.427   0.771   7.677
 2359W        W 3656   3.622   4.838   5.414
 2360W        W 3657   1.880   1.222   6.061
 2361W        W 3658   7.576   2.624   3.639
 2362W        W 3659   5.650   1.663   7.187
 2363W        W 3660   2.793   4.865   0.337
 2364W        W 3661   5.304   0.981   2.958
 2365W        W 3662   1.470   6.225   1.311
 2366W        W 3663   5.682   5.465   0.558
 2367W        W 3664   0.437   0.508   1.314
 2368W        W 3665   0.605   2.033   6.898
 2369W        W 3666   5.103   6.078   2.084
 2370W        W 3667   5.207   0.952   5.490
 2371W        W 3668   4.989   0.835   0.890
 2372W        W 3669   6.597   4.467   0.506
 2373W        W 3670   6.109   4.545   0.621
 2374W        W 3671   0.916   3.152   6.167
 2375W        W 3672   0.339   1.625   3.595
 2376W        W 3673   5.342   5.278   0.893
 2377W        W 3674   5.635   7.120   4.816
 2378W        W 3675   0.718   5.277   2.733
 2379W        W 3676   5.361   2.454   4.271
 2380W        W 3677   3.764   1.009   2.941
 2381W        W 3678   2.657   3.962   7.811
 2382W        W 3679   1.840   5.890   0.319
 2383W        W 3680   6.918   2.860   4.658
 2384W        W 3681   1.264   0.060   2.908
 2385W        W 3682   5.205   3.753   5.353
 2386W        W 3683   2.668   3.482   7.644
 2387W        W 3684   2.902   0.311   6.512
 2388W        W 3685   2.064   4.075   5.374
 2389W        W 3686   4.913   5.066   1.115
 2390W        W 3687   2.262   3.738   3.337
 2391W        W 3688   5.353   7.634   3.789
 2392W        W 3689   7.572   5.303   0.778
 2393W        W 3690   6.609   3.898   4.256
 2394W        W 3691   4.117   2.848   1.362
 2395W        W 3692   3.159   6.904   6.560
 2396W        W 3693   4.554   4.651   0.252
 2397W        W 3694   7.028   2.463   5.571
 2398W        W 3695   6.250   0.873   6.101
 2399W        W 3696   4.325   1.548   3.603
 2400W        W 3697   3.591   1.395   1.894
 2401W        W 3698   2.045   5.084   6.457
 2402W        W 3699   5.153   7.892   4.412
 2403W        W 3700   3.354   4.457   7.560
 2404W        W 3701   5.170   6.865   2.510
 2405W        W 3702   4.474   2.106   4.720
 2406W        W 3703   6.449   1.885   6.096
 2407W        W 3704   5.589   2.249   3.821
 2408W        W 3705   1.537   2.930   1.021
 2409W        W 3706   3.121   2.562   3.043
 2410W        W 3707   0.544   4.686   5.882
 2411W        W 3708   5.549   7.249   3.454
 2412W        W 3709   3.929   4.082   2.012
 2413W        W 3710   3.783   2.458   1.317
 2414W        W 3711   5.836   5.275   4.286
 2415W        W 3712   0.523   3.895   0.954
 2416W        W 3713   0.867   1.897   4.639
 2417W        W 3714   5.223   7.789   5.246
 2418W        W 3715   7.410   1.442   2.147
 2419W        W 3716   2.636   1.564   0.754
 2420W        W 3717   1.385   4.651   5.349
 2421W        W 3718   1.183   7.420   0.683
 2422W        W 3719   6.944   1.131   5.375
 2423W        W 3720   0.743   0.009   2.990
 2424W        W 3721   0.373   4.841   7.162
 2425W        W 3722   5.510   1.699   5.032
 2426W        W 3723   2.662   1.897   1.132
 2427W        W 3724   1.821   6.261   1.720
 2428W        W 3725   0.382   7.302   6.271
 2429W        W 3726   4.462   2.524   0.092
 2430W        W 3727   3.613   3.463   3.375
 2431W        W 3728   2.689   5.683   5.970
 2432W        W 3729   1.954   3.787   7.134
 2433W        W 3730   6.197   4.298   3.319
 2434W        W 3731   2.509   2.687   0.914
 2435W        W 3732   1.809   7.190   0.084
 2436W        W 3733   2.788   2.950   0.545
 2437W        W 3734   2.157   7.219   3.650
 2438W        W 3735   4.885   7.356   3.601
 2439W        W 3736   3.621   4.478   0.010
 2440W        W 3737   6.341   5.235   6.387
 2441W        W 3738   4.121   7.378   5.237
 2442W        W 3739   4.211   6.519   5.725
 2443W        W 3740   0.885   0.833   6.827
 2444W        W 3741   3.681   1.905   1.833
 2445W        W 3742   6.686   6.737   1.678
 2446W        W 3743   2.720   5.702   2.977
 2447W        W 3744   3.205   6.033   0.648
 2448W        W 3745   1.744   2.927   0.519
 2449W        W 3746   5.268   5.915   1.573
 2450W        W 3747   4.550   5.129   2.402
 2451W        W 3748   4.343   3.708   4.360
 2452W        W 3749   2.497   1.830   5.489
 2453W        W 3750   4.114   4.440   2.815
 2454W        W 3751   0.952   4.054   7.411
 2455W        W 3752   2.680   5.140   1.799
 2456W        W 3753   5.618   3.065   3.566
 2457W        W 3754   4.562   1.563   6.122
 2458W        W 3755   3.372   0.133   6.749
 2459W        W 3756   7.607   4.721   6.471
 2460W        W 3757   3.491   4.939   7.707
 2461W        W 3758   2.634   5.513   2.143
 2462W        W 3759   1.264   1.997   1.784
 2463W        W 3760   2.184   3.666   5.668
 2464W        W 3761   3.288   3.880   3.344
 2465W        W 3762   4.185   2.904   3.888
 2466W        W 3763   7.389   5.699   5.356
 2467W        W 3764   6.405   1.912   5.303
 2468W        W 3765   7.287   5.611   3.205
 2469W        W 3766   1.506   4.158   6.282
 2470W        W 3767   1.368   2.798   4.444
 2471W        W 3768   2.551   4.016   5.573
 2472W        W 3769   6.910   2.369   2.078
 2473W        W 3770   2.631   6.126   1.429
 2474W        W 3771   5.478   1.756   3.770
 2475W        W 3772   6.101   1.591   7.469
 2476W        W 3773   3.001   3.104   2.316
 2477W        W 3774   3.069   3.030   0.956
 2478W        W 3775   4.471   7.633   3.798
 2479W        W 3776   2.686   6.581   4.924
 2480W        W 3777   1.025   7.565   6.886
 2481W        W 3778   4.997   6.069   1.171
 2482W        W 3779   6.834   4.900   5.140
 2483W        W 3780   5.580   6.802   3.749
 2484W        W 3781   7.309   3.977   5.364
 2485W        W 3782   4.125   4.813   3.167
 2486W        W 3783   6.572   3.943   7.058
 2487W        W 3784   7.305   4.771   4.950
 2488W        W 3785   6.019   5.857   0.983
 2489W        W 3786   4.987   0.240   4.077
 2490W        W 3787   7.637   1.392   1.655
 2491W        W 3788   1.269   5.709   6.324
 2492W        W 3789   3.300   5.524   7.080
 2493W        W 3790   4.155   1.743   0.637
 2494W        W 3791   5.900   6.882   0.646
 2495W        W 3792   3.397   4.381   3.394
 2496W        W 3793   6.583   2.668   5.690
 2497W        W 3794   4.357   5.016   4.701
 2498W        W 3795   5.432   2.549   5.630
 2499W        W 3796   1.590   2.161   2.128
 2500W        W 3797   5.061   2.348   5.920
 2501W        W 3798   2.591   6.704   1.492
 2502W        W 3799   0.381   4.440   6.787
 2503W        W 3800   2.757   1.311   7.052
 2504W        W 3801   1.700   1.045   5.203
 2505W        W 3802   1.646   5.499   3.380
 2506W        W 3803   1.859   6.592   6.150
 2507W        W 3804   3.548   6.171   3.878
 2508W        W 3805   5.076   1.953   4.975
 2509W        W 3806   7.270   4.406   6.756
 2510W        W 3807   2.647   1.419   3.822
 2511W        W 3808   2.719   4.622   0.970
 2512W        W 3809   7.757   5.268   6.888
 2513W        W 3810   1.467   5.444   7.722
 2514W        W 3811   5.363   1.617   0.148
 2515W        W 3812   5.499   3.545   7.444
 2516W        W 3813   4.757   4.296   2.040
 2517W        W 3814   5.862   1.027   2.743
 2518W        W 3815   0.194   5.091   7.919
 2519W        W 3816   6.883   6.862   5.406
 2520W        W 3817   1.851   2.010   0.698
 2521W        W 3818   4.605   4.391   2.892
 2522W        W 3819   3.612   6.688   6.521
 2523W        W 3820   7.909   2.857   4.689
 2524W        W 3821   2.092   7.856   6.298
 2525W        W 3822   1.964   1.914   6.194
 2526W        W 3823   3.415   2.299   6.905
 2527W        W 3824   2.830   5.334   2.601
 2528W        W 3825   6.746   7.057   2.051
 2529W        W 3826   4.653   0.864   3.489
 2530W        W 3827   2.703   4.121   1.127
 2531W        W 3828   1.330   7.013   0.264
 2532W        W 3829   1.093   4.307   3.024
 2533W        W 3830   1.087   3.257   7.038
 2534W        W 3831   0.516   2.305   4.347
 2535W        W 3832   6.417   3.116   1.794
 2536W        W 3833   4.801   0.484   6.100
 2537W        W 3834   4.898   2.834   5.056
 2538W        W 3835   3.078   6.949   5.673
 2539W        W 3836   5.949   5.674   3.477
 2540W        W 3837   3.380   7.266   6.848
 2541W        W 3838   2.526   2.517   0.423
 2542W        W 3839   1.838   3.997   5.876
 2543W        W 3840   1.336   2.880   5.499
 2544W        W 3841   5.502   0.723   2.545
 2545W        W 3842   7.691   7.724   2.046
 2546W        W 3843   1.236   2.910   6.450
 2547W        W 3844   4.704   2.974   3.793
 2548W        W 3845   6.369   2.848   0.041
 2549W        W 3846   0.400   4.682   7.654
 2550W        W 3847   1.026   5.688   2.742
 2551W        W 3848   7.549   4.361   3.048
 2552W        W 3849   4.001   3.594   2.824
 2553W        W 3850   3.363   2.213   1.555
 2554W        W 3851   5.969   2.645   1.857
 2555W        W 3852   7.538   4.917   7.486
 2556W        W 3853   5.203   6.661   7.183
 2557W        W 3854   5.553   0.122   2.941
 2558W        W 3855   7.309   2.749   2.108
 2559W        W 3856   0.960   0.487   2.845
 2560W        W 3857   0.514   4.606   1.519
 2561W        W 3858   3.993   5.933   2.004
 2562W        W 3859   3.282   7.433   2.939
 2563W        W 3860   4.249   5.653   3.238
 2564W        W 3861   0.645   4.847   1.088
 2565W        W 3862   3.070   2.291   5.020
 2566W        W 3863   7.360   5.253   4.005
 2567W        W 3864   4.110   6.067   1.534
 2568W        W 3865   5.071   5.423   5.554
 2569W        W 3866   0.836   0.887   2.006
 2570W        W 3867   7.569   1.366   2.643
 2571W        W 3868   4.282   5.247   2.963
 2572W        W 3869   2.270   5.695   4.636
 2573W        W 3870   4.735   1.351   7.364
 2574W        W 3871   1.357   6.570   3.667
 2575W        W 3872   4.847   7.502   4.541
 2576W        W 3873   0.871   2.661   4.435
 2577W        W 3874   1.609   1.206   3.721
 2578W        W 3875   5.412   2.956   4.311
 2579W        W 3876   4.147   6.517   5.164
 2580W        W 3877   1.365   2.208   2.564
 2581W        W 3878   4.797   3.915   2.960
 2582W        W 3879   2.445   0.623   2.509
 2583W        W 3880   4.302   3.357   5.574
 2584W        W 3881   6.668   7.741   3.805
 2585W        W 3882   0.893   6.731   6.440
 2586W        W 3883   5.645   6.135   3.538
 2587W        W 3884   1.277   5.181   6.125
 2588W        W 3885   4.347   5.739   5.516
 2589W        W 3886   2.009   1.153   3.355
 2590W        W 3887   6.118   2.295   6.975
 2591W        W 3888   1.016   7.178   2.415
 2592W        W 3889   2.281   2.889   2.139
 2593W        W 3890   6.049   4.065   3.751
 2594W        W 3891   7.277   2.129   5.275
 2595W        W 3892   4.738   6.928   7.228
 2596W        W 3893   5.579   2.143   2.508
 2597W        W 3894   1.936   2.519   2.173
 2598W        W 3895   7.342   5.145   6.624
 2599W        W 3896   7.127   4.179   4.720
 2600W        W 3897   6.043   7.027   3.599
 2601W        W 3898   1.623   4.679   7.066
 2602W        W 3899   1.029   4.006   6.423
 2603W        W 3900   6.814   2.861   1.972
 2604W        W 3901   2.496   7.596   1.690
 2605W        W 3902   2.103   1.458   4.660
 2606W        W 3903   2.599   6.960   3.549
 2607W        W 3904   4.689   4.804   6.558
 2608W        W 3905   6.068   4.700   5.969
 2609W        W 3906   6.954   1.258   2.026
 2610W        W 3907   2.154   7.247   0.465
 2611W        W 3908   5.814   3.098   4.034
 2612W        W 3909   1.330   1.248   4.940
 2613W        W 3910   4.224   6.897   1.730
 2614W        W 3911   3.543   6.586   6.993
 2615W        W 3912   4.888   4.038   5.066
 2616W        W 3913   2.202   4.387   1.773
 2617W        W 3914   2.195   1.886   7.168
 2618W        W 3915   1.968   6.325   0.553
 2619W        W 3916   6.347   4.391   6.292
 2620W        W 3917   3.921   3.870   6.358
 2621W        W 3918   6.977   6.308   1.000
 2622W        W 3919   5.144   6.605   2.973
 2623W        W 3920   1.560   1.622   6.243
 2624W        W 3921   5.799   2.926   5.524
 2625W        W 3922   4.882   1.890   2.891
 2626W        W 3923   1.481   2.034   3.457
 2627W        W 3924   6.655   7.516   1.803
 2628W        W 3925   6.654   7.945   6.926
 2629W        W 3926   5.157   4.293   1.711
 2630W        W 3927   6.324   5.312   2.766
 2631W        W 3928   4.184   0.433   2.261
 2632W        W 3929   3.423   5.750   1.043
 2633W        W 3930   2.855   1.660   2.234
 2634W        W 3931   2.985   0.275   2.011
 2635W        W 3932   2.980   5.606   0.790
 2636W        W 3933   3.337   1.704   5.346
 2637W        W 3934   1.384   7.816   0.345
 2638W        W 3935   1.557   7.204   2.975
 2639W        W 3936   4.372   6.546   7.347
 2640W        W 3937   0.769   6.647   1.066
 2641W        W 3938   4.434   2.174   7.677
 2642W        W 3939   3.186   5.597   6.270
 2643W        W 3940   2.110   2.176   5.446
 2644W        W 3941   3.135   0.753   6.326
 2645W        W 3942   2.993   2.529   1.697
 2646W        W 3943   1.157   2.579   1.151
 2647W        W 3944   7.422   2.575   1.378
 2648W        W 3945   4.745   2.311   5.109
 2649W        W 3946   0.024   2.008   2.200
 2650W        W 3947   7.040   2.733   5.993
 2651W        W 3948   5.320   7.225   5.904
 2652W        W 3949   6.690   4.679   5.586
 2653W        W 3950   6.957   7.443   5.160
 2654W        W 3951   2.598   3.291   4.525
 2655W        W 3952   3.135   6.956   1.486
 2656W        W 3953   4.239   4.061   4.712
 2657W        W 3954   5.365   6.567   5.531
 2658W        W 3955   2.548   2.785   1.745
 2659W        W 3956   4.608   6.765   5.872
 2660W        W 3957   7.825   4.021   1.447
 2661W        W 3958   5.567   4.307   2.004
 2662W        W 3959   4.188   4.874   6.579
 2663W        W 3960   2.224   3.622   6.728
 2664W        W 3961   1.819   2.213   1.690
 2665W        W 3962   1.444   3.889   6.700
 2666W        W 3963   3.767   1.218   0.917
 2667W        W 3964   0.995   4.881   4.857
 2668W        W 3965   4.472   3.528   3.040
 2669W        W 3966   2.236   5.358   3.777
 2670W        W 3967   1.237   3.369   5.428
 2671W        W 3968   6.597   1.599   7.158
 2672W        W 3969   2.413   1.763   1.990
 2673W        W 3970   3.638   0.668   6.097
 2674W        W 3971   3.129   3.329   4.097
 2675W        W 3972   3.151   4.095   7.872
 2676W        W 3973   5.054   1.349   0.923
 2677W        W 3974   6.223   2.695   5.311
 2678W        W 3975   4.743   7.805   5.862
 2679W        W 3976   2.181   0.765   1.000
 2680W        W 3977   5.144   0.491   3.034
 2681W        W 3978   0.851   5.154   5.744
 2682W        W 3979   3.944   5.406   0.376
 2683W        W 3980   3.288   6.472   5.737
 2684W        W 3981   5.527   3.536   5.894
 2685W        W 3982   2.548   6.530   4.440
 2686W        W 3983   2.955   4.268   0.712
 2687W        W 3984   0.864   6.437   1.997
 2688W        W 3985   1.099   4.448   0.468
 2689W        W 3986   2.908   7.927   1.630
 2690W        W 3987   5.506   7.947   0.800
 2691W        W 3988   4.700   5.831   0.794
 2692W        W 3989   7.739   6.551   1.182
 2693W        W 3990   6.233   0.263   6.412
 2694W        W 3991   0.303   0.406   6.189
 2695W        W 3992   1.460   0.323   7.902
 2696W        W 3993   6.134   0.402   5.906
 2697W        W 3994   6.412   6.074   2.787
 2698W        W 3995   4.991   0.946   6.828
 2699W        W 3996   4.617   5.326   1.422
 2700W        W 3997   3.506   4.192   1.713
 2701W        W 3998   3.870   3.738   4.554
 2702W        W 3999   5.151   1.452   7.701
 2703W        W 4000   1.829   3.868   0.735
 2704W        W 4001   5.331   2.742   3.848
 2705W        W 4002   4.074   1.921   7.380
 2706W        W 4003   4.872   1.299   4.565
 2707W        W 4004   5.591   1.611   6.317
 2708W        W 4005   7.214   4.755   4.424
 2709W        W 4006   5.834   2.250   1.211
 2710W        W 4007   1.954   4.004   6.470
 2711W        W 4008   1.979   6.067   2.596
 2712W        W 4009   5.817   0.153   3.754
 2713W        W 4010   5.703   3.446   2.120
 2714W        W 4011   3.720   6.022   0.728
 2715W        W 4012   5.326   1.545   4.589
 2716W        W 4013   4.928   4.990   1.671
 2717W        W 4014   4.400   7.541   4.293
 2718W        W 4015   4.351   0.153   4.020
 2719W        W 4016   6.220   4.774   6.950
 2720W        W 4017   2.948   5.251   5.997
 2721W        W 4018   7.451   6.945   1.387
 2722W        W 4019   1.239   1.108   5.438
 2723W        W 4020   0.981   3.491   3.182
 2724W        W 4021   4.072   3.700   3.355
 2725W        W 4022   6.769   3.121   5.820
 2726W        W 4023   0.798   1.268   5.243
 2727W        W 4024   1.022   3.471   0.275
 2728W        W 4025   3.446   2.300   2.751
 2729W        W 4026   0.482   1.604   1.396
 2730W        W 4027   1.731   4.810   2.736
 2731W        W 4028   4.689   5.170   7.546
 2732W        W 4029   4.871   3.478   2.730
 2733W        W 4030   1.009   6.127   1.043
 2734W        W 4031   5.120   3.098   3.501
 2735W        W 4032   7.051   6.453   4.046
 2736W        W 4033   2.315   2.878   4.638
 2737W        W 4034   3.047   7.201   3.470
 2738W        W 4035   5.865   0.521   4.127
 2739W        W 4036   0.979   5.837   3.956
 2740W        W 4037   7.641   6.521   6.367
 2741W        W 4038   2.323   2.325   2.883
 2742W        W 4039   2.075   6.192   5.507
 2743W        W 4040   7.177   2.327   3.478
 2744W        W 4041   2.235   6.812   4.805
 2745W        W 4042   0.489   2.614   2.210
 2746W        W 4043   6.251   0.024   3.983
 2747W        W 4044   7.807   4.850   0.834
 2748W        W 4045   2.224   6.847   5.370
 2749W        W 4046   4.465   3.321   4.049
 2750W        W 4047   6.758   3.374   4.297
 2751W        W 4048   6.526   5.175   6.866
 2752W        W 4049   7.965   4.023   3.111
 2753W        W 4050   5.985   1.008   6.510
 2754W        W 4051   3.094   7.973   3.871
 2755W        W 4052   3.648   6.323   1.920
 2756W        W 4053   7.209   2.366   2.961
 2757W        W 4054   3.059   7.707   3.424
 2758W        W 4055   5.350   3.277   3.943
 2759W        W 4056   5.140   5.229   7.307
 2760W        W 4057   4.021   2.200   3.183
 2761W        W 4058   5.644   0.604   1.954
 2762W        W 4059   2.368   2.624   4.176
 2763W        W 4060   7.055   4.315   5.662
 2764W        W 4061   6.908   6.490   2.091
 2765W        W 4062   3.815   4.240   4.521
 2766W        W 4063   6.446   5.880   3.295
 2767W        W 4064   4.473   2.852   0.492
 2768W        W 4065   6.054   2.805   4.750
 2769W        W 4066   6.960   2.811   2.937
 2770W        W 4067   6.759   0.972   6.274
 2771W        W 4068   3.061   2.431   4.386
 2772W        W 4069   0.055   7.044   5.959
 2773W        W 4070   4.343   1.657   7.735
 2774W        W 4071   5.393   1.621   0.665
 2775W        W 4072   7.548   4.229   6.351
 2776W        W 4073   0.825   3.483   1.210
 2777W        W 4074   6.980   6.423   3.514
 2778W        W 4075   4.147   1.749   6.411
 2779W        W 4076   7.368   1.876   2.902
 2780W        W 4077   2.279   4.880   1.637
 2781W        W 4078   5.535   3.360   5.405
 2782W        W 4079   3.495   2.907   4.502
 2783W        W 4080   4.060   6.894   6.451
 2784W        W 4081   1.037   1.711   6.946
 2785W        W 4082   4.091   2.240   6.506
 2786W        W 4083   3.869   4.536   3.545
 2787W        W 4084   1.258   6.676   1.182
 2788W        W 4085   5.465   0.317   3.422
 2789W        W 4086   3.095   3.215   4.588
 2790W        W 4087   2.369   0.867   2.982
 2791W        W 4088   2.074   7.020   5.875
 2792W        W 4089   6.250   2.023   6.545
 2793W        W 4090   5.338   2.783   0.505
 2794W        W 4091   0.293   2.769   6.725
 2795W        W 4092   0.071   3.046   1.630
 2796W        W 4093   6.692   3.311   2.174
 2797W        W 4094   0.452   0.915   2.939
 2798W        W 4095   1.052   1.204   3.411
 2799W        W 4096   2.585   2.172   4.198
 2800W        W 4097   6.225   7.661   4.348
 2801W        W 4098   1.215   5.554   7.116
 2802W        W 4099   4.571   5.273   1.924
 2803W        W 4100   1.532   2.130   6.732
 2804W        W 4101   5.778   5.968   1.836
 2805W        W 4102   5.330   6.803   5.082
 2806W        W 4103   0.695   4.560   0.112
 2807W        W 4104   0.548   5.756   2.578
 2808W        W 4105   6.171   7.809   6.789
 2809W        W 4106   4.396   2.460   4.315
 2810W        W 4107   3.246   1.144   3.041
 2811W        W 4108   6.975   3.984   2.474
 2812W        W 4109   6.657   1.518   5.091
 2813W        W 4110   0.298   4.608   2.560
 2814W        W 4111   7.434   0.494   3.481
 2815W        W 4112   1.778   0.700   0.083
 2816W        W 4113   6.910   6.952   4.177
 2817W        W 4114   2.518   4.191   5.072
 2818W        W 4115   3.499   1.195   4.658
 2819W        W 4116   0.829   4.889   7.373
 2820W        W 4117   7.674   6.588   1.689
 2821W        W 4118   7.952   4.374   3.486
 2822W        W 4119   7.814   5.526   3.260
 2823W        W 4120   4.845   1.214   6.373
 2824W        W 4121   7.186   5.674   1.799
 2825W        W 4122   3.064   5.666   5.592
 2826W        W 4123   2.097   2.408   4.594
 2827W        W 4124   3.865   4.598   7.550
 2828W        W 4125   3.321   0.659   3.794
 2829W        W 4126   3.543   1.811   2.681
 2830W        W 4127   1.778   3.093   2.786
 2831W        W 4128   3.554   5.561   6.633
 2832W        W 4129   7.526   3.958   6.798
 2833W        W 4130   1.481   4.133   0.276
 2834W        W 4131   4.597   6.582   2.002
 2835W        W 4132   5.353   3.827   1.903
 2836W        W 4133   6.998   4.861   3.971
 2837W        W 4134   3.239   1.476   6.916
 2838W        W 4135   6.269   5.886   1.970
 2839W        W 4136   0.642   3.438   2.759
 2840W        W 4137   6.485   0.241   0.552
 2841W        W 4138   7.120   6.598   3.038
 2842W        W 4139   6.768   5.681   6.510
 2843W        W 4140   1.836   4.225   7.436
 2844W        W 4141   1.065   7.135   2.910
 2845W        W 4142   7.226   5.217   5.230
 2846W        W 4143   5.843   5.332   5.182
 2847W        W 4144   0.479   4.900   2.981
 2848W        W 4145   0.511   2.289   5.341
 2849W        W 4146   3.618   1.483   6.102
 2850W        W 4147   5.027   6.968   5.486
 2851W        W 4148   0.431   0.670   6.638
 2852W        W 4149   5.906   1.900   5.530
 2853W        W 4150   0.882   1.005   0.034
 2854W        W 4151   2.189   6.199   4.643
 2855W        W 4152   4.410   5.742   1.197
 2856W        W 4153   7.323   6.694   0.928
 2857W        W 4154   2.224   6.958   1.282
 2858W        W 4155   6.200   0.584   1.188
 2859W        W 4156   0.604   4.413   2.932
 2860W        W 4157   3.494   5.332   0.107
 2861W        W 4158   7.655   5.110   7.970
 2862W        W 4159   4.350   3.117   6.050
 2863W        W 4160   1.375   6.857   2.611
 2864W        W 4161   7.446   5.123   6.124
 2865W        W 4162   5.615   3.475   1.633
 2866W        W 4163   7.051   5.961   5.874
 2867W        W 4164   3.057   2.497   5.497
 2868W        W 4165   5.074   2.390   2.210
 2869W        W 4166   7.078   1.508   3.140
 2870W        W 4167   4.553   2.627   4.761
 2871W        W 4168   6.431   1.252   1.925
 2872W        W 4169   3.052   3.507   3.624
 2873W        W 4170   0.502   0.422   3.175
 2874W        W 4171   0.537   1.446   0.912
 2875W        W 4172   0.674   5.627   3.104
 2876W        W 4173   1.373   6.794   5.437
 2877W        W 4174   6.838   4.606   4.735
 2878W        W 4175   6.827   1.104   4.869
 2879W        W 4176   7.345   7.807   6.017
 2880W        W 4177   0.911   6.313   3.771
 2881W        W 4178   6.213   6.255   5.982
 2882W        W 4179   4.002   1.718   0.105
 2883W        W 4180   6.030   1.123   3.959
 2884W        W 4181   6.246   0.983   3.524
 2885W        W 4182   3.762   2.409   6.149
 2886W        W 4183   6.703   5.675   5.642
 2887W        W 4184   3.309   1.064   4.185
 2888W        W 4185   1.118   1.674   5.051
 2889W        W 4186   7.408   2.713   2.628
 2890W        W 4187   3.472   1.742   0.212
 2891W        W 4188   3.541   6.884   5.433
 2892W        W 4189   1.332   6.466   5.001
 2893W        W 4190   3.470   5.838   1.898
 2894W        W 4191   4.262   5.975   6.388
 2895W        W 4192   7.579   4.206   4.467
 2896W        W 4193   0.029   0.642   3.009
 2897W        W 4194   1.890   7.263   1.517
 2898W        W 4195   3.507   4.671   1.495
 2899W        W 4196   6.050   4.022   7.060
 2900W        W 4197   5.057   7.556   6.197
 2901W        W 4198   6.115   6.980   6.184
 2902W        W 4199   5.962   3.730   0.431
 2903W        W 4200   4.270   5.023   0.454
 2904W        W 4201   4.504   3.266   1.330
 2905W        W 4202   4.692   3.728   1.262
 2906W        W 4203   4.528   3.915   3.393
 2907W        W 4204   5.943   4.803   5.086
 2908W        W 4205   3.519   7.030   7.297
 2909W        W 4206   6.125   2.749   5.862
 2910W        W 4207   5.175   7.203   0.974
 2911W        W 4208   7.596   2.760   4.144
 2912W        W 4209   2.820   2.826   1.322
 2913W        W 4210   5.584   6.243   2.245
 2914W        W 4211   3.512   3.768   1.991
 2915W        W 4212   5.374   1.079   0.619
 2916W        W 4213   5.078   3.590   4.886
 2917W        W 4214   4.101   6.922   5.458
 2918W        W 4215   2.586   4.975   2.301
 2919W        W 4216   4.945   2.669   5.523
 2920W        W 4217   5.972   6.918   1.151
 2921W        W 4218   2.521   3.403   0.485
 2922W        W 4219   1.682   2.480   4.902
 2923W        W 4220   6.655   7.935   4.305
 2924W        W 4221   1.377   4.164   7.700
 2925W        W 4222   7.397   3.086   3.796
 2926W        W 4223   0.823   4.448   5.034
 2927W        W 4224   0.730   5.011   3.441
 2928W        W 4225   3.600   1.766   1.346
 2929W        W 4226   3.300   2.154   0.538
 2930W        W 4227   6.110   4.023   4.287
 2931W        W 4228   4.946   4.630   6.165
 2932W        W 4229   6.566   2.474   7.237
 2933W        W 4230   2.960   3.062   1.815
 2934W        W 4231   6.248   2.366   6.173
 2935W        W 4232   5.177   2.894   2.201
 2936W        W 4233   5.369   7.055   2.983
 2937W        W 4234   5.616   5.337   7.111
 2938W        W 4235   1.006   2.501   7.371
 2939W        W 4236   1.052   6.929   5.988
 2940W        W 4237   5.829   7.255   5.898
 2941W        W 4238   4.834   7.482   5.079
 2942W        W 4239   2.126   5.777   5.820
 2943W        W 4240   3.394   4.409   5.364
 2944W        W 4241   5.863   7.242   2.109
 2945W        W 4242   4.582   2.685   7.613
 2946W        W 4243   6.175   3.538   2.920
 2947W        W 4244   3.967   2.791   4.335
 2948W        W 4245   3.853   7.525   6.804
 2949W        W 4246   4.706   4.267   4.657
 2950W        W 4247   4.615   3.736   4.779
 2951W        W 4248   7.485   4.843   0.410
 2952W        W 4249   1.955   1.419   6.512
 2953W        W 4250   6.532   4.469   5.127
 2954W        W 4251   0.019   1.257   3.439
 2955W        W 4252   2.601   4.465   7.095
 2956W        W 4253   6.010   2.458   0.069
 2957W        W 4254   5.107   6.763   5.923
 2958W        W 4255   1.973   3.256   6.981
 2959W        W 4256   2.665   6.618   6.895
 2960W        W 4257   3.618   6.110   2.377
 2961W        W 4258   4.756   6.424   7.057
 2962W        W 4259   6.911   0.377   4.352
 2963W        W 4260   1.784   6.509   3.422
 2964W        W 4261   2.835   5.107   0.844
 2965W        W 4262   1.756   3.520   6.598
 2966W        W 4263   6.654   0.334   1.915
 2967W        W 4264   6.738   0.245   6.484
 2968W        W 4265   4.185   2.066   3.655
 2969W        W 4266   4.844   6.561   6.290
 2970W        W 4267   1.944   3.919   2.675
 2971W        W 4268   7.798   4.392   6.813
 2972W        W 4269   4.211   7.765   5.941
 2973W        W 4270   5.247   3.960   5.830
 2974W        W 4271   6.200   4.939   4.184
 2975W        W 4272   6.324   1.657   1.626
 2976W        W 4273   3.253   3.175   1.415
 2977W        W 4274   1.810   6.620   5.633
 2978W        W 4275   2.270   2.967   0.463
 2979W        W 4276   4.658   4.689   4.924
 2980W        W 4277   0.455   6.183   2.310
 2981W        W 4278   0.180   2.367   2.539
 2982W        W 4279   7.970   6.459   2.364
 2983W        W 4280   0.796   3.911   2.932
 2984W        W 4281   7.666   4.761   3.346
 2985W        W 4282   2.506   1.027   3.489
 2986W        W 4283   0.722   5.015   7.853
 2987W        W 4284   0.267   2.371   3.845
 2988W        W 4285   4.588   5.341   5.702
 2989W        W 4286   0.410   5.997   4.353
 2990W        W 4287   7.884   6.213   5.957
 2991W        W 4288   7.445   3.729   4.602
 2992W        W 4289   2.096   6.379   2.217
 2993W        W 4290   1.728   6.154   5.857
 2994W        W 4291   7.123   2.079   1.520
 2995W        W 4292   6.093   4.908   1.022
 2996W        W 4293   4.395   1.051   6.158
 2997W        W 4294   0.988   6.472   5.519
 2998W        W 4295   7.035   3.483   2.514
 2999W        W 4296   3.523   3.550   3.864
 3000W        W 4297   3.994   5.090   7.577
 3001W        W 4298   3.655   2.102   2.297
 3002W        W 4299   1.905   4.589   6.596
 3003W        W 4300   2.006   2.048   4.942
 3004W        W 4301   5.006   1.403   2.919
 3005W        W 4302   7.155   6.852   5.867
 3006W        W 4303   7.104   6.079   6.389
 3007W        W 4304   5.977   3.655   4.627
 3008W        W 4305   0.905   7.542   1.369
 3009W        W 4306   3.201   5.806   4.744
 3010W        W 4307   5.292   1.762   6.770
 3011W        W 4308   5.262   5.182   0.390
 3012W        W 4309   5.995   6.919   6.715
 3013W        W 4310   0.629   7.977   1.558
 3014W        W 4311   0.502   2.441   7.226
 3015W        W 4312   0.156   3.817   1.777
 3016W        W 4313   6.632   1.212   4.400
 3017W        W 4314   3.368   6.801   4.914
 3018W        W 4315   4.299   0.367   6.663
 3019W        W 4316   1.027   1.605   5.549
 3020W        W 4317   2.391   6.786   6.217
 3021W        W 4318   6.672   0.772   4.153
 3022W        W 4319   3.517   7.461   3.394
 3023W        W 4320   2.354   3.185   6.000
 3024W        W 4321   1.711   3.720   4.565
 3025W        W 4322   1.285   6.532   4.500
 3026W        W 4323   6.911   1.700   6.011
 3027W        W 4324   4.513   6.342   3.786
 3028W        W 4325   1.159   1.901   6.450
 3029W        W 4326   1.184   6.408   2.788
 3030W        W 4327   2.940   6.366   7.241
 3031W        W 4328   0.788   4.478   6.455
 3032W        W 4329   2.308   4.512   1.266
 3033W        W 4330   5.051   6.617   4.690
 3034W        W 4331   1.050   2.252   2.166
 3035W        W 4332   6.244   0.527   1.688
 3036W        W 4333   2.061   7.305   2.156
 3037W        W 4334   0.901   6.668   2.469
 3038W        W 4335   3.325   7.264   1.128
 3039W        W 4336   6.367   4.491   4.418
 3040W        W 4337   2.849   5.280   1.331
 3041W        W 4338   3.480   3.083   2.453
 3042W        W 4339   0.222   3.603   6.298
 3043W        W 4340   0.682   7.523   1.830
 3044W        W 4341   5.568   3.004   6.545
 3045W        W 4342   1.797   4.384   7.950
 3046W        W 4343   7.924   2.806   2.656
 3047W        W 4344   6.675   4.920   4.366
 3048W        W 4345   6.567   2.210   3.525
 3049W        W 4346   2.027   7.335   3.169
 3050W        W 4347   7.449   6.595   3.458
 3051W        W 4348   4.428   2.205   2.836
 3052W        W 4349   7.197   1.121   1.574
 3053W        W 4350   1.783   5.796   4.671
 3054W        W 4351   1.691   3.395   0.874
 3055W        W 4352   3.348   2.302   5.876
 3056W        W 4353   2.045   1.070   4.274
 3057W        W 4354   4.144   4.552   7.976
 3058W        W 4355   6.320   2.433   7.685
 3059W        W 4356   4.915   3.580   3.328
 3060W        W 4357   2.972   5.765   1.281
 3061W        W 4358   6.359   4.042   0.336
 3062W        W 4359   6.038   6.054   6.410
 3063W        W 4360   1.056   3.926   0.541
 3064W        W 4361   1.245   6.042   5.927
 3065W        W 4362   4.485   3.126   2.714
 3066W        W 4363   7.304   4.407   1.168
 3067W        W 4364   5.089   3.033   2.711
 3068W        W 4365   4.271   5.072   4.210
 3069W        W 4366   2.409   3.723   5.182
 3070W        W 4367   2.712   3.113   7.279
 3071W        W 4368   4.666   4.787   2.044
 3072W        W 4369   5.345   4.467   3.155
 3073W        W 4370   5.636   7.492   2.968
 3074W        W 4371   5.121   5.202   3.479
 3075W        W 4372   3.675   3.064   4.022
 3076W        W 4373   5.196   1.286   4.154
 3077W        W 4374   7.616   1.847   1.898
 3078W        W 4375   3.149   4.874   1.187
 3079W        W 4376   1.350   5.783   0.154
 3080W        W 4377   5.113   2.386   0.786
 3081W        W 4378   4.500   0.070   6.269
 3082W        W 4379   6.128   2.136   1.812
 3083W        W 4380   5.652   1.126   2.201
   8.00000   8.00000   8.00000
