Martini system from ../2_Creating_coordinates/TYR-LEU-TYR_aa.pdb
 4228
    1TYR     BB    1   3.053   3.944   0.220  0.2557 -0.2967 -0.1657
    1TYR    SC1    2   3.098   3.656   0.173 -0.0314 -0.0592  0.1950
    1TYR    SC2    3   3.257   3.489   0.033 -0.0935  0.1303 -0.1137
    1TYR    SC3    4   3.051   3.390   0.176  0.2738 -0.1168  0.2726
    2LEU     BB    5   2.849   3.976   0.472  0.1703  0.1888  0.0176
    2LEU    SC1    6   2.692   3.683   0.458 -0.0224 -0.0915  0.0830
    3TYR     BB    7   2.726   4.215   0.506  0.0403  0.0261  0.2321
    3TYR    SC1    8   2.412   4.252   0.558 -0.2814  0.1039 -0.2115
    3TYR    SC2    9   2.164   4.225   0.454 -0.3107  0.3315 -0.2075
    3TYR    SC3   10   2.195   4.317   0.706 -0.2309  0.0035 -0.0917
    1TYR     BB   11   2.595   4.031   0.971  0.3515  0.0544 -0.0638
    1TYR    SC1   12   2.865   4.141   0.989  0.0386 -0.2354  0.0632
    1TYR    SC2   13   3.099   4.275   0.981  0.0500 -0.2522  0.1115
    1TYR    SC3   14   3.095   4.009   0.940  0.0285 -0.2390  0.0253
    2LEU     BB   15   2.656   3.680   0.942  0.3465  0.0897  0.2884
    2LEU    SC1   16   2.434   3.542   1.155  0.1748  0.2660  0.0534
    3TYR     BB   17   2.809   3.426   0.804 -0.2841 -0.2644  0.1668
    3TYR    SC1   18   2.743   3.152   0.928  0.0985 -0.0500 -0.1044
    3TYR    SC2   19   2.804   2.975   1.122 -0.0072  0.2033  0.1689
    3TYR    SC3   20   2.671   2.893   0.902  0.1696 -0.1004  0.1678
    1TYR     BB   21   1.072   2.135   0.601 -0.3204 -0.0061  0.0501
    1TYR    SC1   22   0.921   2.037   0.837 -0.0659  0.1239 -0.0916
    1TYR    SC2   23   0.881   2.046   1.104  0.0705 -0.0056 -0.0657
    1TYR    SC3   24   0.769   1.849   0.958 -0.3441  0.2912 -0.1691
    2LEU     BB   25   1.180   2.049   0.365 -0.1227  0.3652  0.1148
    2LEU    SC1   26   1.426   1.838   0.481  0.0324  0.2466  0.0671
    3TYR     BB   27   1.179   1.864   0.068 -0.0429 -0.1926 -0.4352
    3TYR    SC1   28   1.339   1.568   0.096 -0.2412 -0.0144 -0.0523
    3TYR    SC2   29   1.529   1.378   0.068 -0.1710  0.0333  0.0898
    3TYR    SC3   30   1.407   1.480  -0.150  0.0079  0.0442 -0.0079
    1TYR     BB   31   4.184   3.271   0.715 -0.1559 -0.1831  0.0881
    1TYR    SC1   32   4.220   3.038   0.875 -0.3157  0.0839 -0.2743
    1TYR    SC2   33   4.280   2.958   1.126 -0.5015  0.4719 -0.0952
    1TYR    SC3   34   4.229   2.775   0.934 -0.2144  0.1652  0.1077
    2LEU     BB   35   3.904   3.316   0.555 -0.0173 -0.2730  0.0958
    2LEU    SC1   36   4.016   3.620   0.445 -0.0861  0.2586  0.0124
    3TYR     BB   37   3.610   3.352   0.500  0.2030  0.1340 -0.0324
    3TYR    SC1   38   3.434   3.517   0.639  0.0732  0.0117 -0.0443
    3TYR    SC2   39   3.330   3.644   0.854  0.0090 -0.1684  0.0340
    3TYR    SC3   40   3.220   3.679   0.610  0.2529  0.2580 -0.0264
    1TYR     BB   41   1.769   0.957   0.853 -0.0111  0.3177  0.1330
    1TYR    SC1   42   1.741   1.220   0.656 -0.1325 -0.0495 -0.2738
    1TYR    SC2   43   1.740   1.485   0.603 -0.0973 -0.0041 -0.0590
    1TYR    SC3   44   1.851   1.312   0.428  0.0138  0.1382 -0.1315
    2LEU     BB   45   1.536   0.760   0.865 -0.3284 -0.1223  0.0460
    2LEU    SC1   46   1.591   0.515   1.059 -0.0615 -0.1459 -0.0800
    3TYR     BB   47   1.277   0.785   0.757  0.1170 -0.2111  0.3600
    3TYR    SC1   48   1.039   0.672   0.892  0.0319  0.0169 -0.0017
    3TYR    SC2   49   0.778   0.650   0.957 -0.0149  0.0110 -0.1845
    3TYR    SC3   50   0.966   0.541   1.116 -0.1348 -0.1376 -0.1417
    1TYR     BB   51   4.545   4.672   3.346 -0.1473  0.2417 -0.2126
    1TYR    SC1   52   4.554   4.380   3.462  0.2113  0.0730  0.1504
    1TYR    SC2   53   4.660   4.175   3.321 -0.0060  0.0011  0.0876
    1TYR    SC3   54   4.543   4.129   3.560  0.1086  0.0812  0.1607
    2LEU     BB   55   4.690   4.767   3.056 -0.3289 -0.0009  0.0528
    2LEU    SC1   56   4.664   4.495   2.868 -0.2468 -0.1004 -0.2219
    3TYR     BB   57   4.877   4.907   3.025  0.1874  0.1589 -0.0593
    3TYR    SC1   58   5.116   4.972   3.229  0.1410 -0.1593  0.0469
    3TYR    SC2   59   5.351   4.928   3.354  0.1940  0.0173  0.0123
    3TYR    SC3   60   5.279   5.179   3.286  0.2478 -0.0863 -0.4709
    1TYR     BB   61   1.059   0.080   2.272  0.1959 -0.0778  0.3284
    1TYR    SC1   62   0.977  -0.194   2.152  0.2784 -0.0949  0.1229
    1TYR    SC2   63   0.737  -0.307   2.107  0.1020  0.2181  0.2381
    1TYR    SC3   64   0.933  -0.329   1.922 -0.0946  0.1689  0.0287
    2LEU     BB   65   0.776   0.232   2.219 -0.1982  0.2306  0.0668
    2LEU    SC1   66   0.728   0.202   1.913  0.2793  0.4465  0.0745
    3TYR     BB   67   0.608   0.449   2.366  0.1268  0.0220  0.4992
    3TYR    SC1   68   0.582   0.625   2.613  0.0004 -0.0352  0.1319
    3TYR    SC2   69   0.612   0.660   2.880  0.2192 -0.0620  0.1133
    3TYR    SC3   70   0.592   0.874   2.717  0.0190 -0.0459  0.1560
    1TYR     BB   71   2.165   3.579   7.436  0.0498  0.1278 -0.1174
    1TYR    SC1   72   2.323   3.331   7.297 -0.1538  0.0671 -0.2208
    1TYR    SC2   73   2.484   3.187   7.136  0.1129  0.0069  0.0879
    1TYR    SC3   74   2.219   3.199   7.085  0.1435 -0.2606 -0.1722
    2LEU     BB   75   2.111   3.457   7.751 -0.2661  0.1398  0.1099
    2LEU    SC1   76   2.253   3.732   7.909  0.1332  0.0924 -0.0704
    3TYR     BB   77   2.088   3.258   7.873 -0.0121 -0.1252  0.0085
    3TYR    SC1   78   2.206   3.187   8.136  0.0549 -0.1138  0.1564
    3TYR    SC2   79   2.453   3.107   8.209  0.3174  0.4606 -0.0322
    3TYR    SC3   80   2.337   3.317   8.333 -0.1220  0.1539  0.1053
    1TYR     BB   81   2.443   2.031   3.223 -0.3271  0.2421 -0.4108
    1TYR    SC1   82   2.465   1.966   3.521 -0.2838  0.0824 -0.0507
    1TYR    SC2   83   2.612   2.109   3.696 -0.1572  0.1047 -0.1727
    1TYR    SC3   84   2.377   2.001   3.773 -0.1980  0.2792 -0.0460
    2LEU     BB   85   2.530   2.390   3.193 -0.0144  0.0245  0.0180
    2LEU    SC1   86   2.368   2.476   2.895 -0.0480  0.2192 -0.1217
    3TYR     BB   87   2.542   2.575   3.398 -0.1941 -0.0930  0.4341
    3TYR    SC1   88   2.464   2.871   3.340 -0.0098 -0.0983 -0.3821
    3TYR    SC2   89   2.348   3.001   3.134 -0.0585  0.1478 -0.2057
    3TYR    SC3   90   2.369   3.121   3.375 -0.1518 -0.1935 -0.0184
    1TYR     BB   91   1.009   1.198   0.855 -0.0558 -0.2350  0.1211
    1TYR    SC1   92   0.690   1.132   0.785  0.0910 -0.1342 -0.0367
    1TYR    SC2   93   0.514   0.943   0.707 -0.0281 -0.0263 -0.0325
    1TYR    SC3   94   0.505   1.190   0.598  0.0942 -0.0073 -0.0017
    2LEU     BB   95   1.022   1.447   0.672 -0.2155 -0.1365 -0.0908
    2LEU    SC1   96   1.289   1.336   0.522  0.1939 -0.1573  0.1349
    3TYR     BB   97   0.902   1.650   0.543 -0.1558  0.2224  0.2043
    3TYR    SC1   98   0.545   1.626   0.579  0.0697 -0.0529 -0.0342
    3TYR    SC2   99   0.397   1.794   0.730 -0.1008 -0.1701 -0.0679
    3TYR    SC3  100   0.281   1.581   0.611 -0.0116  0.0186 -0.5172
    1TYR     BB  101   2.028   2.800   3.547 -0.2112  0.3612  0.3061
    1TYR    SC1  102   1.850   3.058   3.501 -0.0097 -0.2060 -0.1458
    1TYR    SC2  103   1.740   3.234   3.674 -0.0092 -0.2906 -0.0582
    1TYR    SC3  104   1.930   3.316   3.500 -0.0341 -0.1975 -0.0420
    2LEU     BB  105   2.004   2.601   3.292 -0.0537 -0.5482  0.0229
    2LEU    SC1  106   2.157   2.338   3.457  0.1872 -0.0044 -0.2172
    3TYR     BB  107   1.750   2.700   3.155 -0.2414 -0.2621 -0.2703
    3TYR    SC1  108   1.701   3.035   3.064 -0.1033  0.2796  0.0932
    3TYR    SC2  109   1.934   3.169   3.044 -0.0575  0.1738 -0.1135
    3TYR    SC3  110   1.713   3.263   2.920 -0.1320  0.2833  0.0962
    1TYR     BB  111   5.290   4.326   2.518 -0.1069  0.0971 -0.0567
    1TYR    SC1  112   5.249   4.090   2.336 -0.0070 -0.2647 -0.1332
    1TYR    SC2  113   5.144   4.056   2.090  0.2892  0.0643 -0.3178
    1TYR    SC3  114   5.233   3.842   2.230 -0.1276 -0.1585 -0.3719
    2LEU     BB  115   5.176   4.577   2.356  0.1024 -0.2063  0.2035
    2LEU    SC1  116   5.035   4.709   2.602  0.0188 -0.0905  0.5486
    3TYR     BB  117   5.211   4.589   1.991  0.1945  0.0438 -0.1537
    3TYR    SC1  118   5.376   4.405   1.823  0.1312  0.0916 -0.0030
    3TYR    SC2  119   5.543   4.211   1.737 -0.1200 -0.0603 -0.1662
    3TYR    SC3  120   5.319   4.268   1.597 -0.1438  0.2266 -0.0210
    1TYR     BB  121   5.633   4.579   1.246 -0.1137  0.0221  0.3713
    1TYR    SC1  122   5.507   4.746   1.050 -0.0040  0.1587  0.0900
    1TYR    SC2  123   5.348   4.964   1.066  0.0384  0.2442 -0.4198
    1TYR    SC3  124   5.353   4.817   0.840  0.0011 -0.3080 -0.0861
    2LEU     BB  125   5.550   4.707   1.515 -0.3912  0.3566 -0.1919
    2LEU    SC1  126   5.261   4.842   1.557  0.1440  0.4692 -0.2787
    3TYR     BB  127   5.736   4.706   1.776  0.1130  0.2196  0.1335
    3TYR    SC1  128   5.625   4.893   2.060  0.2213 -0.1457  0.0098
    3TYR    SC2  129   5.416   4.976   2.210 -0.0590 -0.0253 -0.4247
    3TYR    SC3  130   5.622   5.144   2.162  0.1443 -0.1385 -0.0094
    1TYR     BB  131   2.343   0.564   2.499  0.0517 -0.1294 -0.4116
    1TYR    SC1  132   2.509   0.327   2.545  0.2543  0.2781 -0.1999
    1TYR    SC2  133   2.758   0.270   2.457  0.3103 -0.0348  0.1300
    1TYR    SC3  134   2.596   0.071   2.541 -0.1111  0.1468 -0.2061
    2LEU     BB  135   2.081   0.640   2.575  0.3498 -0.2968 -0.2904
    2LEU    SC1  136   1.869   0.770   2.370  0.3116  0.0990 -0.3590
    3TYR     BB  137   1.958   0.672   2.887  0.0006 -0.0805 -0.3627
    3TYR    SC1  138   1.685   0.512   2.988 -0.0129  0.3262  0.3248
    3TYR    SC2  139   1.617   0.375   3.210 -0.1131 -0.1907 -0.0033
    3TYR    SC3  140   1.443   0.393   3.004  0.0511  0.1077 -0.1229
    1TYR     BB  141   0.755   0.895   2.282  0.0224 -0.2220  0.4129
    1TYR    SC1  142   0.571   1.117   2.285  0.6167  0.6701 -0.2966
    1TYR    SC2  143   0.355   1.278   2.275 -0.0049 -0.0467  0.1808
    1TYR    SC3  144   0.528   1.299   2.480 -0.1209 -0.0263  0.2781
    2LEU     BB  145   0.695   0.778   1.947 -0.0441 -0.1604  0.0619
    2LEU    SC1  146   0.395   0.702   1.911  0.2082 -0.0280  0.1565
    3TYR     BB  147   0.830   0.737   1.647  0.1983 -0.0913 -0.0974
    3TYR    SC1  148   0.709   0.878   1.428 -0.1338  0.1700 -0.0834
    3TYR    SC2  149   0.791   1.019   1.213  0.1027 -0.2850 -0.3091
    3TYR    SC3  150   0.528   0.979   1.255  0.0248  0.2445 -0.2095
    1TYR     BB  151   1.818   2.975   1.417  0.0404  0.0948  0.3133
    1TYR    SC1  152   2.047   3.134   1.563  0.2572 -0.3334  0.5035
    1TYR    SC2  153   2.118   3.394   1.553  0.2066 -0.3173 -0.3073
    1TYR    SC3  154   2.283   3.213   1.667  0.3082  0.0351  0.1422
    2LEU     BB  155   1.845   2.917   0.994 -0.2410  0.3168 -0.1666
    2LEU    SC1  156   1.772   2.570   0.995  0.0893  0.0118 -0.0814
    3TYR     BB  157   2.152   2.872   0.832 -0.1940  0.3298 -0.0687
    3TYR    SC1  158   2.276   2.830   1.136  0.0298  0.0076  0.1037
    3TYR    SC2  159   2.371   3.062   1.237  0.1841  0.0887 -0.2121
    3TYR    SC3  160   2.329   2.851   1.400  0.1830  0.2898  0.0557
    1TYR     BB  161   2.185   2.832   7.550 -0.3516 -0.0448  0.0842
    1TYR    SC1  162   2.288   2.795   7.820  0.0368  0.2374 -0.2356
    1TYR    SC2  163   2.367   2.705   8.062 -0.1409  0.1029 -0.2249
    1TYR    SC3  164   2.515   2.651   7.843 -0.1036  0.0186 -0.1794
    2LEU     BB  165   2.222   2.612   7.303  0.0248  0.1441 -0.3749
    2LEU    SC1  166   2.093   2.708   7.064  0.3788 -0.1732  0.0472
    3TYR     BB  167   2.410   2.372   7.318 -0.0797  0.3030  0.0842
    3TYR    SC1  168   2.341   2.063   7.327  0.2467  0.0467 -0.1089
    3TYR    SC2  169   2.284   1.895   7.530  0.1828  0.1643 -0.0282
    3TYR    SC3  170   2.274   1.807   7.275 -0.0675  0.1010 -0.0006
    1TYR     BB  171   1.919   0.133   7.378 -0.0649 -0.1011 -0.1367
    1TYR    SC1  172   2.179   0.051   7.356 -0.0042 -0.0075  0.3754
    1TYR    SC2  173   2.417   0.174   7.393  0.0786  0.1500 -0.4420
    1TYR    SC3  174   2.387  -0.007   7.195 -0.3441 -0.3426  0.0300
    2LEU     BB  175   1.818   0.322   7.667 -0.0572  0.1279 -0.2608
    2LEU    SC1  176   1.677   0.095   7.834  0.0066 -0.2242  0.3238
    3TYR     BB  177   1.975   0.453   7.761  0.1002  0.0951  0.1381
    3TYR    SC1  178   2.260   0.433   7.790  0.0628  0.3413  0.0916
    3TYR    SC2  179   2.443   0.579   7.924  0.1774 -0.0021  0.3269
    3TYR    SC3  180   2.520   0.359   7.787 -0.0213  0.0234  0.1692
    1TYR     BB  181   2.048   0.633   7.324  0.1463  0.2982 -0.2386
    1TYR    SC1  182   2.353   0.665   7.416  0.2297 -0.1853  0.1706
    1TYR    SC2  183   2.610   0.583   7.397  0.2372 -0.0844 -0.3169
    1TYR    SC3  184   2.553   0.826   7.500  0.3302 -0.1221 -0.1724
    2LEU     BB  185   1.772   0.783   7.357 -0.3645  0.1301 -0.0607
    2LEU    SC1  186   1.531   0.519   7.265 -0.0013 -0.2647  0.2675
    3TYR     BB  187   1.696   0.976   7.535  0.0523  0.1871 -0.3363
    3TYR    SC1  188   1.685   0.934   7.802  0.2337  0.2348  0.2687
    3TYR    SC2  189   1.682   0.801   8.037  0.0065  0.2177  0.2594
    3TYR    SC3  190   1.480   0.969   7.975  0.1579  0.3654  0.1550
    1TYR     BB  191   6.155   4.105   2.929 -0.1993 -0.1803 -0.0599
    1TYR    SC1  192   6.153   3.921   3.166  0.1137  0.2503  0.0744
    1TYR    SC2  193   6.250   3.839   3.404  0.1123  0.2406  0.0716
    1TYR    SC3  194   6.100   3.672   3.254 -0.1387  0.3440  0.2000
    2LEU     BB  195   6.207   4.407   2.896 -0.0625  0.0700 -0.0167
    2LEU    SC1  196   6.497   4.417   3.062  0.1370 -0.2292  0.3031
    3TYR     BB  197   5.961   4.593   2.954 -0.2672  0.0851 -0.1704
    3TYR    SC1  198   5.946   4.845   3.096  0.2220  0.1779  0.2052
    3TYR    SC2  199   5.881   4.933   3.343 -0.1378  0.1624  0.1225
    3TYR    SC3  200   5.740   5.017   3.128  0.1948  0.2065 -0.0870
    1TYR     BB  201   2.772   2.045   7.116  0.0059 -0.0778 -0.1290
    1TYR    SC1  202   2.675   2.203   6.925 -0.1441  0.3158 -0.1790
    1TYR    SC2  203   2.507   2.395   6.838 -0.1179  0.2645 -0.3476
    1TYR    SC3  204   2.666   2.266   6.663 -0.2488 -0.0229 -0.2631
    2LEU     BB  205   3.022   2.275   7.373  0.2012  0.1451  0.0271
    2LEU    SC1  206   2.790   2.290   7.597 -0.1788  0.1021  0.1951
    3TYR     BB  207   3.262   2.216   7.302 -0.5083 -0.0594  0.0085
    3TYR    SC1  208   3.315   2.210   7.013  0.0950  0.2428 -0.0560
    3TYR    SC2  209   3.158   2.115   6.815  0.2170  0.1385 -0.1040
    3TYR    SC3  210   3.409   2.200   6.760  0.4220 -0.3160  0.0665
    1TYR     BB  211   3.710   1.382   6.906 -0.0198  0.1783  0.1721
    1TYR    SC1  212   3.442   1.467   6.753  0.2275  0.1664  0.0895
    1TYR    SC2  213   3.337   1.715   6.731  0.2135  0.1436 -0.1234
    1TYR    SC3  214   3.273   1.524   6.551  0.4324  0.0608 -0.1182
    2LEU     BB  215   3.674   1.141   7.075 -0.2196 -0.2335  0.0191
    2LEU    SC1  216   3.336   1.085   7.128 -0.0900 -0.0608  0.0525
    3TYR     BB  217   3.813   0.987   7.260 -0.2395 -0.1770 -0.2130
    3TYR    SC1  218   3.770   0.704   7.380  0.2854 -0.1538  0.4054
    3TYR    SC2  219   3.721   0.492   7.539  0.2391 -0.2900  0.2147
    3TYR    SC3  220   3.591   0.517   7.304  0.1846 -0.0063  0.2704
    1TYR     BB  221   0.146   2.608   2.651 -0.1142  0.1574  0.3049
    1TYR    SC1  222   0.261   2.615   2.945  0.3573  0.0365 -0.0116
    1TYR    SC2  223   0.204   2.565   3.204 -0.0982 -0.0222 -0.1119
    1TYR    SC3  224   0.409   2.438   3.083 -0.0252 -0.1678  0.1562
    2LEU     BB  225   0.388   2.692   2.475 -0.0891  0.0501 -0.1324
    2LEU    SC1  226   0.312   2.694   2.124  0.3526 -0.2410  0.0746
    3TYR     BB  227   0.657   2.748   2.659 -0.1225  0.1030  0.0039
    3TYR    SC1  228   0.808   2.974   2.806 -0.1613 -0.3059  0.2703
    3TYR    SC2  229   0.947   3.054   3.023 -0.1721  0.3131  0.0742
    3TYR    SC3  230   0.898   3.228   2.823 -0.2369 -0.2113 -0.3981
    1TYR     BB  231   2.498   2.305   2.155  0.0297 -0.2444  0.1544
    1TYR    SC1  232   2.449   1.984   2.242 -0.0870 -0.2915  0.0219
    1TYR    SC2  233   2.587   1.790   2.370  0.0065 -0.3027 -0.0942
    1TYR    SC3  234   2.348   1.734   2.256 -0.0825 -0.2902  0.0818
    2LEU     BB  235   2.660   2.451   2.354  0.3076 -0.1886 -0.0343
    2LEU    SC1  236   2.767   2.270   2.579  0.0289 -0.0501 -0.2925
    3TYR     BB  237   2.781   2.729   2.334 -0.0455  0.1261 -0.0071
    3TYR    SC1  238   3.029   2.741   2.486  0.0961 -0.1835  0.1158
    3TYR    SC2  239   3.177   2.643   2.690 -0.0338 -0.0181  0.2942
    3TYR    SC3  240   3.261   2.861   2.555  0.1388 -0.2276  0.0505
    1TYR     BB  241   2.283   0.876   6.854 -0.1828 -0.0653 -0.0982
    1TYR    SC1  242   1.947   0.889   6.822 -0.0773 -0.1105 -0.0384
    1TYR    SC2  243   1.741   0.715   6.841 -0.0382 -0.1614 -0.0744
    1TYR    SC3  244   1.764   0.874   6.624  0.0949 -0.3308 -0.1873
    2LEU     BB  245   2.319   1.130   6.968 -0.1361  0.0045 -0.1044
    2LEU    SC1  246   2.271   1.171   7.302 -0.0017  0.0516  0.0881
    3TYR     BB  247   2.254   1.432   6.906  0.6487 -0.1356  0.0111
    3TYR    SC1  248   2.201   1.588   6.670  0.2176 -0.4130 -0.1779
    3TYR    SC2  249   2.004   1.709   6.530  0.1723 -0.4593 -0.1547
    3TYR    SC3  250   2.248   1.676   6.420  0.2562 -0.1378 -0.0781
    1TYR     BB  251   1.320   1.937   7.260 -0.0520  0.0493 -0.2590
    1TYR    SC1  252   1.073   2.088   7.137 -0.2070 -0.0903 -0.1988
    1TYR    SC2  253   0.878   2.269   7.186 -0.2794 -0.1866 -0.1270
    1TYR    SC3  254   0.988   2.252   6.940 -0.0982  0.1217 -0.0728
    2LEU     BB  255   1.513   2.240   7.109 -0.0685 -0.3475  0.1292
    2LEU    SC1  256   1.832   2.277   7.251 -0.1006 -0.0500  0.3459
    3TYR     BB  257   1.481   2.316   6.821  0.0410  0.0919 -0.2136
    3TYR    SC1  258   1.619   2.572   6.685  0.1953 -0.1666  0.2295
    3TYR    SC2  259   1.737   2.815   6.692  0.1641 -0.1417 -0.0018
    3TYR    SC3  260   1.838   2.620   6.534 -0.0276 -0.1598 -0.1054
    1TYR     BB  261   2.058   0.159   2.430  0.1421  0.1097 -0.0318
    1TYR    SC1  262   1.863  -0.085   2.425 -0.1417  0.1291  0.1205
    1TYR    SC2  263   1.695  -0.149   2.224  0.0388 -0.3000  0.0915
    1TYR    SC3  264   1.633  -0.216   2.478  0.0779 -0.2845  0.1052
    2LEU     BB  265   2.023   0.274   2.102  0.2796  0.1092  0.1782
    2LEU    SC1  266   2.156   0.566   2.023  0.2514  0.0246 -0.0214
    3TYR     BB  267   2.001   0.029   1.768 -0.0528 -0.0110 -0.0379
    3TYR    SC1  268   1.842   0.232   1.608 -0.3660 -0.0907  0.1326
    3TYR    SC2  269   1.912   0.471   1.504 -0.0448 -0.2496 -0.0344
    3TYR    SC3  270   1.652   0.414   1.550 -0.1241  0.1375  0.0336
    1TYR     BB  271   2.866   3.241   7.384  0.2357 -0.1795 -0.0975
    1TYR    SC1  272   2.975   3.111   7.065 -0.0996  0.0253  0.1916
    1TYR    SC2  273   3.099   3.112   6.826 -0.1174  0.1708  0.1818
    1TYR    SC3  274   2.829   3.112   6.838 -0.1229 -0.2193  0.2028
    2LEU     BB  275   2.756   3.065   7.520  0.1096 -0.1243  0.1852
    2LEU    SC1  276   2.578   3.177   7.755 -0.0970 -0.2722 -0.1642
    3TYR     BB  277   2.788   2.772   7.481 -0.0195 -0.2701  0.0454
    3TYR    SC1  278   2.770   2.653   7.196  0.1899 -0.0793 -0.1486
    3TYR    SC2  279   2.609   2.788   7.027 -0.0077 -0.2778 -0.1243
    3TYR    SC3  280   2.832   2.669   6.934 -0.0461 -0.2753 -0.2213
    1TYR     BB  281   1.311   2.605   3.389  0.0929  0.2160 -0.1228
    1TYR    SC1  282   1.078   2.484   3.258  0.0521 -0.3256 -0.0906
    1TYR    SC2  283   0.931   2.488   3.031 -0.2266  0.2491  0.0761
    1TYR    SC3  284   0.831   2.375   3.255 -0.0357 -0.1348 -0.0221
    2LEU     BB  285   1.316   2.920   3.543  0.1598  0.0048  0.1151
    2LEU    SC1  286   1.331   3.161   3.313 -0.1912  0.1086 -0.1166
    3TYR     BB  287   0.955   3.053   3.607  0.2197  0.0645  0.0159
    3TYR    SC1  288   0.758   2.850   3.454  0.1706 -0.1747 -0.1134
    3TYR    SC2  289   0.557   2.671   3.441 -0.0531  0.0301  0.2969
    3TYR    SC3  290   0.612   2.827   3.228 -0.3395 -0.0194  0.1803
    1TYR     BB  291   1.960   0.209   0.934  0.3137 -0.4379  0.0693
    1TYR    SC1  292   2.115   0.413   1.070  0.2609 -0.1662  0.0754
    1TYR    SC2  293   2.251   0.535   1.269  0.2390 -0.0454  0.0170
    1TYR    SC3  294   2.051   0.665   1.142  0.1711 -0.1665 -0.0014
    2LEU     BB  295   1.835   0.413   0.606 -0.2112  0.0314 -0.3024
    2LEU    SC1  296   1.496   0.420   0.560 -0.3203  0.0270 -0.2773
    3TYR     BB  297   2.091   0.629   0.615 -0.0616 -0.2274  0.1554
    3TYR    SC1  298   2.099   0.859   0.370  0.1299 -0.0076  0.0318
    3TYR    SC2  299   2.199   1.098   0.295  0.2327 -0.1136 -0.1826
    3TYR    SC3  300   2.144   0.911   0.109 -0.3438 -0.0757 -0.0754
    1TYR     BB  301   3.184   3.993   1.431  0.2106 -0.2248 -0.3932
    1TYR    SC1  302   3.122   4.267   1.430 -0.4125  0.0013 -0.2262
    1TYR    SC2  303   3.011   4.509   1.386 -0.2323  0.1545  0.1112
    1TYR    SC3  304   3.262   4.492   1.483 -0.1786 -0.1749 -0.0678
    2LEU     BB  305   3.206   3.868   1.722  0.1791 -0.0092  0.0175
    2LEU    SC1  306   3.127   3.583   1.749  0.0189  0.0650 -0.2191
    3TYR     BB  307   3.383   3.964   2.090 -0.0868 -0.0827  0.3104
    3TYR    SC1  308   3.285   3.712   2.210 -0.0056 -0.0956 -0.0268
    3TYR    SC2  309   3.054   3.588   2.273 -0.0005 -0.0272  0.1313
    3TYR    SC3  310   3.267   3.443   2.193  0.0107 -0.1256  0.3291
    1TYR     BB  311   1.015   0.852   0.369 -0.1076  0.3447  0.0076
    1TYR    SC1  312   1.198   0.624   0.250 -0.0670  0.1005 -0.3606
    1TYR    SC2  313   1.198   0.378   0.139 -0.5318 -0.1473  0.1284
    1TYR    SC3  314   1.395   0.553   0.079 -0.0077 -0.7354 -0.0065
    2LEU     BB  315   1.044   1.083   0.073  0.1266  0.0069  0.0196
    2LEU    SC1  316   0.828   1.342   0.172  0.0566 -0.1837 -0.4483
    3TYR     BB  317   1.164   0.999  -0.129  0.1338 -0.1224 -0.2051
    3TYR    SC1  318   1.056   0.724  -0.210  0.0427  0.0346  0.2565
    3TYR    SC2  319   0.978   0.467  -0.237 -0.2232  0.1511 -0.2523
    3TYR    SC3  320   0.851   0.628  -0.062 -0.0804 -0.0427  0.0416
    1TYR     BB  321   5.606   3.524   3.611 -0.1216 -0.0479  0.1136
    1TYR    SC1  322   5.386   3.703   3.800 -0.0964 -0.2501  0.1310
    1TYR    SC2  323   5.125   3.686   3.731 -0.1178 -0.0371  0.1507
    1TYR    SC3  324   5.196   3.799   3.966 -0.0219 -0.3843  0.2961
    2LEU     BB  325   5.504   3.595   3.348  0.2197  0.1139  0.0039
    2LEU    SC1  326   5.230   3.428   3.296 -0.1800  0.0659 -0.0264
    3TYR     BB  327   5.612   3.749   3.138  0.0935  0.0816 -0.0210
    3TYR    SC1  328   5.415   3.813   2.931 -0.3721  0.0150  0.2140
    3TYR    SC2  329   5.175   3.763   2.820 -0.1722  0.0137 -0.2476
    3TYR    SC3  330   5.387   3.819   2.663  0.0808  0.2581  0.1582
    1TYR     BB  331   3.582   1.060   0.478  0.1113  0.1247 -0.1622
    1TYR    SC1  332   3.563   1.056   0.188  0.0601 -0.0520 -0.0294
    1TYR    SC2  333   3.518   1.172  -0.052 -0.1630 -0.1690 -0.0472
    1TYR    SC3  334   3.488   0.905  -0.023 -0.1941 -0.1484  0.1242
    2LEU     BB  335   3.823   1.302   0.520 -0.1097 -0.0567 -0.0649
    2LEU    SC1  336   3.872   1.427   0.219 -0.1956 -0.3972  0.1593
    3TYR     BB  337   3.899   1.287   0.791  0.1190  0.4131 -0.0716
    3TYR    SC1  338   4.208   1.405   0.918 -0.0607 -0.2065  0.0185
    3TYR    SC2  339   4.424   1.383   1.080  0.1078  0.0845 -0.1559
    3TYR    SC3  340   4.456   1.387   0.811 -0.0955  0.3030 -0.1807
    1TYR     BB  341   5.774   4.011   3.573  0.0534 -0.0905 -0.2009
    1TYR    SC1  342   5.632   4.116   3.830 -0.0485  0.0660  0.1017
    1TYR    SC2  343   5.396   4.164   3.952 -0.3837  0.1622 -0.5362
    1TYR    SC3  344   5.579   4.362   3.928 -0.0136 -0.0185  0.3412
    2LEU     BB  345   5.830   4.209   3.314  0.1850  0.2379 -0.1531
    2LEU    SC1  346   6.122   4.321   3.395 -0.3122 -0.3537 -0.1850
    3TYR     BB  347   5.639   4.450   3.341  0.3595 -0.0045  0.0302
    3TYR    SC1  348   5.579   4.617   3.587 -0.0780 -0.2714  0.4332
    3TYR    SC2  349   5.742   4.749   3.756  0.3093  0.0214 -0.1280
    3TYR    SC3  350   5.476   4.792   3.764  0.3278  0.1146  0.3112
    1TYR     BB  351   3.048   2.307   2.112 -0.2113 -0.0680 -0.1512
    1TYR    SC1  352   2.931   2.007   2.152 -0.0785 -0.1374 -0.0223
    1TYR    SC2  353   2.781   1.861   1.982 -0.2245 -0.1195  0.0889
    1TYR    SC3  354   2.997   1.750   2.100 -0.0903 -0.1158 -0.1462
    2LEU     BB  355   3.321   2.314   2.266 -0.0052  0.1953  0.5090
    2LEU    SC1  356   3.236   2.159   2.518  0.0256 -0.0146 -0.0324
    3TYR     BB  357   3.542   2.538   2.307  0.1189 -0.1938  0.0515
    3TYR    SC1  358   3.812   2.486   2.195 -0.0141  0.2597  0.2060
    3TYR    SC2  359   4.013   2.566   2.034  0.0993  0.0689  0.2488
    3TYR    SC3  360   4.065   2.409   2.247 -0.1486 -0.4620 -0.0559
    1TYR     BB  361   3.187   1.288   0.764 -0.2709 -0.1700 -0.0522
    1TYR    SC1  362   2.939   1.387   0.911 -0.0819  0.0652 -0.0677
    1TYR    SC2  363   2.675   1.350   0.954 -0.0111 -0.1465  0.2251
    1TYR    SC3  364   2.796   1.574   1.044 -0.0908 -0.0408  0.0748
    2LEU     BB  365   3.354   1.495   0.646 -0.2424  0.2252  0.1285
    2LEU    SC1  366   3.567   1.596   0.880 -0.1862  0.2275 -0.1323
    3TYR     BB  367   3.413   1.514   0.314 -0.0993 -0.2453 -0.1327
    3TYR    SC1  368   3.195   1.417   0.140 -0.0183  0.1044 -0.2116
    3TYR    SC2  369   3.088   1.320  -0.088 -0.0451 -0.3455 -0.0207
    3TYR    SC3  370   3.060   1.184   0.143 -0.1886  0.1945  0.3037
    1TYR     BB  371   2.163   1.466   3.114  0.1448  0.0651 -0.3849
    1TYR    SC1  372   2.333   1.497   3.328  0.1614 -0.2696 -0.2122
    1TYR    SC2  373   2.534   1.501   3.508  0.0522  0.1467 -0.0857
    1TYR    SC3  374   2.288   1.416   3.582  0.0338  0.2156 -0.0668
    2LEU     BB  375   2.079   1.213   3.054 -0.0852 -0.0427 -0.2537
    2LEU    SC1  376   1.826   1.119   2.885 -0.0866  0.0745  0.1122
    3TYR     BB  377   2.071   1.006   3.317  0.0022 -0.0273 -0.2407
    3TYR    SC1  378   1.806   0.855   3.368 -0.0231 -0.1463  0.1118
    3TYR    SC2  379   1.608   0.793   3.541 -0.2449 -0.0273 -0.0911
    3TYR    SC3  380   1.551   0.834   3.280  0.0888 -0.2526 -0.2082
    1TYR     BB  381   2.470   0.904   2.913  0.3911 -0.3927  0.1987
    1TYR    SC1  382   2.734   0.741   2.886  0.0695  0.1869  0.0394
    1TYR    SC2  383   2.879   0.690   3.108  0.0875  0.3669  0.0703
    1TYR    SC3  384   2.852   0.500   2.918  0.1667  0.2510  0.1732
    2LEU     BB  385   2.603   1.222   2.927  0.0183 -0.1466 -0.1658
    2LEU    SC1  386   2.827   1.248   3.165 -0.2287 -0.1163 -0.0195
    3TYR     BB  387   2.620   1.572   2.923 -0.0356 -0.0017 -0.0111
    3TYR    SC1  388   2.394   1.711   2.751  0.2780 -0.0262 -0.2086
    3TYR    SC2  389   2.174   1.824   2.643  0.1541 -0.1620 -0.1028
    3TYR    SC3  390   2.374   1.980   2.736  0.1001 -0.0374 -0.1923
    1TYR     BB  391   2.308   0.178   0.587 -0.3242 -0.3131 -0.2262
    1TYR    SC1  392   2.114   0.050   0.399 -0.0069  0.1097 -0.0497
    1TYR    SC2  393   2.021  -0.201   0.361  0.0504  0.0801  0.0036
    1TYR    SC3  394   2.129  -0.065   0.155 -0.3915  0.2337 -0.1406
    2LEU     BB  395   2.603   0.053   0.535 -0.0476  0.2530 -0.1901
    2LEU    SC1  396   2.585  -0.235   0.397  0.0620 -0.1110 -0.1169
    3TYR     BB  397   2.923  -0.020   0.736  0.3563 -0.0586  0.3104
    3TYR    SC1  398   3.100  -0.137   0.523 -0.1399 -0.3710  0.1789
    3TYR    SC2  399   3.196  -0.388   0.494 -0.2236 -0.3541 -0.3719
    3TYR    SC3  400   3.144  -0.237   0.276 -0.2839  0.1077 -0.0555
    1TYR     BB  401   2.076   2.197   1.925  0.2849 -0.0579  0.0077
    1TYR    SC1  402   1.729   2.173   2.002 -0.1371  0.0493 -0.2716
    1TYR    SC2  403   1.478   2.139   1.908 -0.1538 -0.2180 -0.1438
    1TYR    SC3  404   1.523   2.144   2.174 -0.0115 -0.2783 -0.1656
    2LEU     BB  405   2.235   2.089   1.745  0.0605 -0.0875  0.0910
    2LEU    SC1  406   2.506   2.272   1.662 -0.1087  0.1686 -0.1319
    3TYR     BB  407   2.338   1.862   1.708  0.1461  0.3179  0.0217
    3TYR    SC1  408   2.365   1.732   1.423  0.1123 -0.0045  0.3946
    3TYR    SC2  409   2.358   1.696   1.155 -0.1206  0.4128  0.3318
    3TYR    SC3  410   2.427   1.491   1.318 -0.0166  0.1385 -0.0387
    1TYR     BB  411   1.592   2.166   0.049 -0.0501  0.1555  0.0687
    1TYR    SC1  412   1.341   2.311  -0.070  0.0888 -0.0127 -0.0794
    1TYR    SC2  413   1.265   2.505  -0.242  0.1392 -0.0844 -0.1837
    1TYR    SC3  414   1.079   2.367  -0.103  0.1114  0.4578  0.3725
    2LEU     BB  415   1.563   2.337   0.379  0.0728  0.0814  0.0943
    2LEU    SC1  416   1.672   2.171   0.652 -0.0651  0.0391  0.1030
    3TYR     BB  417   1.380   2.537   0.389  0.0454  0.0877  0.2536
    3TYR    SC1  418   1.283   2.754   0.165 -0.2746 -0.0342  0.1506
    3TYR    SC2  419   1.224   3.017   0.182 -0.2475 -0.0211  0.0512
    3TYR    SC3  420   1.245   2.899  -0.060  0.2150 -0.0048  0.0729
    1TYR     BB  421   3.699   1.885   7.210 -0.1778 -0.3903  0.0587
    1TYR    SC1  422   3.411   1.725   7.187 -0.1437  0.3255  0.2774
    1TYR    SC2  423   3.254   1.510   7.237  0.1913  0.0101  0.0397
    1TYR    SC3  424   3.143   1.744   7.161 -0.1787 -0.0912  0.2426
    2LEU     BB  425   3.910   1.986   7.004 -0.2490 -0.3063 -0.1484
    2LEU    SC1  426   3.895   1.805   6.726 -0.0809 -0.0318 -0.1009
    3TYR     BB  427   4.154   1.784   7.141 -0.1928 -0.3657  0.1420
    3TYR    SC1  428   4.182   1.536   7.011 -0.1228 -0.1057  0.1623
    3TYR    SC2  429   4.249   1.282   7.068  0.1730 -0.1284 -0.2317
    3TYR    SC3  430   4.292   1.380   6.820 -0.3082  0.1891 -0.2049
    1TYR     BB  431   4.187   3.128   0.124  0.2186 -0.0131  0.1214
    1TYR    SC1  432   3.930   3.249  -0.009 -0.0698  0.1492 -0.0974
    1TYR    SC2  433   3.683   3.357   0.000 -0.0339  0.2278 -0.0317
    1TYR    SC3  434   3.806   3.322  -0.237 -0.0474  0.3291 -0.0541
    2LEU     BB  435   4.283   2.929   0.319  0.0196 -0.0131  0.0745
    2LEU    SC1  436   4.592   2.914   0.312  0.0664  0.1952 -0.0217
    3TYR     BB  437   4.081   2.769   0.469  0.1023  0.4501  0.0346
    3TYR    SC1  438   4.019   2.493   0.600  0.0265  0.3076  0.0815
    3TYR    SC2  439   3.841   2.302   0.671 -0.0621  0.3318 -0.0704
    3TYR    SC3  440   4.094   2.293   0.766 -0.1191  0.2481  0.0777
    1TYR     BB  441   2.785   0.772   2.401  0.0444  0.1735 -0.1356
    1TYR    SC1  442   3.001   0.653   2.537  0.1084 -0.1584  0.0051
    1TYR    SC2  443   3.211   0.504   2.456  0.1271 -0.1952  0.1198
    1TYR    SC3  444   3.236   0.667   2.670 -0.0027 -0.3097  0.2242
    2LEU     BB  445   2.783   1.120   2.493 -0.5157  0.1758 -0.1779
    2LEU    SC1  446   3.043   1.123   2.663  0.0626  0.0289 -0.0846
    3TYR     BB  447   2.678   1.364   2.417 -0.0635  0.1434  0.0524
    3TYR    SC1  448   2.344   1.344   2.458 -0.0705 -0.0821  0.2288
    3TYR    SC2  449   2.082   1.389   2.501 -0.0271  0.0384  0.3768
    3TYR    SC3  450   2.185   1.143   2.543 -0.2082 -0.1438 -0.1504
    1TYR     BB  451   0.871   3.091   0.473 -0.0985 -0.0629 -0.3653
    1TYR    SC1  452   0.868   2.811   0.307  0.2278  0.1081 -0.0820
    1TYR    SC2  453   0.870   2.545   0.258 -0.0728  0.0560  0.1531
    1TYR    SC3  454   0.796   2.719   0.064 -0.2362 -0.0627  0.1061
    2LEU     BB  455   1.002   3.002   0.762  0.3680 -0.2226 -0.0214
    2LEU    SC1  456   1.285   2.923   0.694 -0.3298  0.1295 -0.0335
    3TYR     BB  457   0.957   3.023   1.032 -0.2947 -0.0478  0.1730
    3TYR    SC1  458   1.168   2.957   1.247 -0.0501  0.1496 -0.0340
    3TYR    SC2  459   1.334   2.948   1.459 -0.4375 -0.1375  0.2780
    3TYR    SC3  460   1.389   2.802   1.239 -0.0331  0.1597  0.1660
    1TYR     BB  461   1.477   1.698   3.626 -0.3914 -0.1394  0.0522
    1TYR    SC1  462   1.428   1.526   3.863  0.2146  0.1750  0.0050
    1TYR    SC2  463   1.301   1.562   4.098  0.3329  0.1524  0.0735
    1TYR    SC3  464   1.445   1.338   4.056  0.2381  0.1144 -0.0556
    2LEU     BB  465   1.673   1.928   3.552 -0.2269  0.2203 -0.1194
    2LEU    SC1  466   1.989   1.805   3.544 -0.2431 -0.1489 -0.3041
    3TYR     BB  467   1.651   2.256   3.415  0.4208 -0.1034  0.1739
    3TYR    SC1  468   1.648   2.443   3.685  0.2346  0.0273  0.4969
    3TYR    SC2  469   1.462   2.496   3.872  0.0629  0.0862  0.3137
    3TYR    SC3  470   1.675   2.660   3.843 -0.0858  0.2707  0.2348
    1TYR     BB  471   2.792   1.803   7.538 -0.0474  0.0768  0.2282
    1TYR    SC1  472   3.061   1.845   7.647 -0.0340 -0.0328 -0.2051
    1TYR    SC2  473   3.216   2.025   7.774 -0.0769 -0.2802  0.2228
    1TYR    SC3  474   3.328   1.846   7.606 -0.0126  0.0226 -0.0698
    2LEU     BB  475   2.721   1.599   7.841  0.1443  0.0035 -0.2664
    2LEU    SC1  476   2.525   1.351   7.731  0.0791 -0.3384  0.0306
    3TYR     BB  477   2.887   1.588   8.125 -0.0082  0.0236 -0.0772
    3TYR    SC1  478   3.002   1.765   8.275 -0.0743 -0.2383 -0.0167
    3TYR    SC2  479   3.127   1.876   8.488  0.3071 -0.2506 -0.2232
    3TYR    SC3  480   3.141   1.995   8.246 -0.1061 -0.2464 -0.2541
    1TYR     BB  481   1.456   3.238   1.030  0.1145  0.0525 -0.1024
    1TYR    SC1  482   1.261   3.470   1.141  0.1811 -0.1663  0.0044
    1TYR    SC2  483   1.066   3.652   1.103  0.0787 -0.1984  0.3343
    1TYR    SC3  484   1.250   3.690   1.297  0.2512 -0.2929  0.1932
    2LEU     BB  485   1.730   3.403   1.202  0.3893 -0.0213  0.0543
    2LEU    SC1  486   2.002   3.353   1.028  0.0456 -0.1663  0.0205
    3TYR     BB  487   1.729   3.730   1.329 -0.0919  0.0282 -0.2364
    3TYR    SC1  488   1.670   3.870   1.122  0.1201 -0.2683  0.0692
    3TYR    SC2  489   1.477   3.847   0.934  0.2835 -0.5316 -0.0743
    3TYR    SC3  490   1.672   4.032   0.906 -0.2327  0.1361  0.3487
    1TYR     BB  491   4.009   1.587   2.640 -0.2008 -0.0456  0.3412
    1TYR    SC1  492   3.816   1.724   2.819 -0.2140 -0.0002  0.0371
    1TYR    SC2  493   3.582   1.858   2.837 -0.1287  0.1561  0.0096
    1TYR    SC3  494   3.686   1.737   3.055 -0.2636  0.0337  0.0082
    2LEU     BB  495   4.185   1.750   2.449 -0.3710 -0.0135  0.1218
    2LEU    SC1  496   4.187   1.573   2.128 -0.1230  0.1280  0.3202
    3TYR     BB  497   4.336   2.009   2.517 -0.2407  0.1528  0.2782
    3TYR    SC1  498   4.183   2.180   2.701  0.1139 -0.2182 -0.1933
    3TYR    SC2  499   3.979   2.204   2.876  0.2229 -0.0935 -0.0802
    3TYR    SC3  500   4.198   2.360   2.902  0.3484 -0.2491 -0.1793
    1TYR     BB  501   2.045   1.406   7.637  0.3211 -0.0685  0.0008
    1TYR    SC1  502   2.058   1.671   7.822 -0.4760 -0.2487  0.0187
    1TYR    SC2  503   2.058   1.927   7.908 -0.2246 -0.1084 -0.3626
    1TYR    SC3  504   1.844   1.769   7.955 -0.3840  0.1659 -0.1183
    2LEU     BB  505   1.885   1.517   7.316  0.0681  0.1887 -0.1715
    2LEU    SC1  506   1.798   1.791   7.426  0.1557 -0.0982  0.1931
    3TYR     BB  507   1.816   1.283   7.088  0.1314 -0.1174 -0.1297
    3TYR    SC1  508   1.597   1.113   7.033  0.1826 -0.1941 -0.1588
    3TYR    SC2  509   1.368   1.208   7.140  0.2893  0.2103 -0.2667
    3TYR    SC3  510   1.392   0.945   7.084 -0.0790  0.1315 -0.0934
    1TYR     BB  511   2.849   1.148   1.464 -0.0490 -0.1659 -0.0474
    1TYR    SC1  512   2.878   1.467   1.516 -0.0789  0.2178  0.1925
    1TYR    SC2  513   3.018   1.647   1.661  0.0477  0.2577  0.0245
    1TYR    SC3  514   2.793   1.723   1.534 -0.0258  0.2392  0.1414
    2LEU     BB  515   2.604   1.061   1.574 -0.2272 -0.3010  0.0456
    2LEU    SC1  516   2.425   1.009   1.256  0.3030  0.0078 -0.0734
    3TYR     BB  517   2.567   0.813   1.762  0.1295  0.1348  0.1430
    3TYR    SC1  518   2.702   0.622   1.928 -0.0381  0.0301  0.0786
    3TYR    SC2  519   2.956   0.544   1.975 -0.0111  0.1144  0.0743
    3TYR    SC3  520   2.750   0.388   2.053  0.0399  0.0989  0.1799
    1TYR     BB  521   1.044   0.496   2.630 -0.1649  0.2036 -0.0588
    1TYR    SC1  522   1.347   0.371   2.571  0.0506  0.2859 -0.0119
    1TYR    SC2  523   1.484   0.146   2.633 -0.3003  0.1723  0.4097
    1TYR    SC3  524   1.611   0.354   2.517  0.0588 -0.1899  0.1210
    2LEU     BB  525   1.112   0.790   2.705 -0.2726 -0.1634  0.1248
    2LEU    SC1  526   1.418   0.843   2.762 -0.0296 -0.2566  0.1204
    3TYR     BB  527   1.035   1.183   2.640  0.2759  0.0186 -0.1872
    3TYR    SC1  528   1.137   1.305   2.879  0.0360 -0.0809 -0.2116
    3TYR    SC2  529   1.376   1.358   2.993 -0.0660 -0.2174  0.0778
    3TYR    SC3  530   1.158   1.502   3.062 -0.0976 -0.1881 -0.0776
    1TYR     BB  531   1.364   2.392   0.902  0.1449 -0.1161 -0.2282
    1TYR    SC1  532   1.332   2.090   1.022 -0.2125 -0.0725  0.1160
    1TYR    SC2  533   1.402   1.833   0.980  0.1773  0.0496 -0.0422
    1TYR    SC3  534   1.303   1.909   1.219  0.0596 -0.2428  0.0071
    2LEU     BB  535   1.108   2.516   0.964 -0.0051  0.1536 -0.2763
    2LEU    SC1  536   0.977   2.535   1.275 -0.1461  0.0389 -0.1145
    3TYR     BB  537   0.798   2.553   0.770 -0.1529  0.2806 -0.2289
    3TYR    SC1  538   0.588   2.395   0.885  0.1745  0.3146  0.1582
    3TYR    SC2  539   0.516   2.392   1.145  0.1522  0.0917  0.1512
    3TYR    SC3  540   0.380   2.243   0.964 -0.0732  0.5289 -0.0579
    1TYR     BB  541   3.449   0.378   1.743 -0.1138 -0.0641  0.1937
    1TYR    SC1  542   3.333   0.294   2.027  0.0869  0.1728  0.1687
    1TYR    SC2  543   3.172   0.157   2.195 -0.0239  0.1922  0.0799
    1TYR    SC3  544   3.440   0.127   2.210 -0.0479 -0.0923  0.0134
    2LEU     BB  545   3.304   0.617   1.575 -0.2547  0.0299 -0.0161
    2LEU    SC1  546   3.350   0.585   1.250 -0.1409  0.0434  0.0619
    3TYR     BB  547   3.165   0.841   1.671  0.0966 -0.1276  0.0552
    3TYR    SC1  548   3.268   0.908   1.971  0.4674 -0.0067 -0.1351
    3TYR    SC2  549   3.415   1.104   2.082 -0.0685  0.3066  0.0666
    3TYR    SC3  550   3.261   0.946   2.238 -0.1907  0.1982 -0.1589
    1TYR     BB  551   1.278   2.975   1.957  0.0793  0.2380 -0.1222
    1TYR    SC1  552   1.354   3.253   1.831  0.2086  0.0608  0.0156
    1TYR    SC2  553   1.348   3.514   1.903  0.1108  0.1008 -0.1322
    1TYR    SC3  554   1.501   3.434   1.695  0.1468  0.0380 -0.0823
    2LEU     BB  555   0.989   2.790   1.842 -0.0196 -0.2604 -0.2025
    2LEU    SC1  556   1.104   2.490   1.817 -0.1266 -0.4718  0.0490
    3TYR     BB  557   0.669   2.754   1.842 -0.0717  0.2002  0.5342
    3TYR    SC1  558   0.597   2.483   1.753  0.2111  0.0039 -0.4161
    3TYR    SC2  559   0.695   2.246   1.839 -0.1773 -0.0593 -0.1110
    3TYR    SC3  560   0.629   2.279   1.579  0.1722 -0.1740 -0.2209
    1TYR     BB  561   2.010   2.247   4.011  0.1256 -0.0528  0.2896
    1TYR    SC1  562   1.698   2.110   4.048 -0.0124  0.1812 -0.0015
    1TYR    SC2  563   1.432   2.080   4.012  0.0115  0.0646 -0.0885
    1TYR    SC3  564   1.574   1.887   4.136  0.0568  0.1242 -0.0468
    2LEU     BB  565   2.120   2.489   3.998  0.2096 -0.0674  0.0085
    2LEU    SC1  566   2.456   2.423   3.999 -0.0273  0.0842 -0.0978
    3TYR     BB  567   2.076   2.735   4.129 -0.0242 -0.3081  0.3214
    3TYR    SC1  568   2.093   2.814   4.408  0.0239 -0.1148  0.1006
    3TYR    SC2  569   2.126   2.991   4.609  0.0547 -0.0448  0.0342
    3TYR    SC3  570   2.057   2.736   4.664 -0.0724  0.0085  0.1254
    1TYR     BB  571   1.351   1.224   3.472  0.4199  0.0010  0.0250
    1TYR    SC1  572   1.128   1.053   3.283 -0.0234 -0.1391  0.0682
    1TYR    SC2  573   1.069   0.819   3.162  0.2047 -0.1496 -0.0290
    1TYR    SC3  574   0.895   1.025   3.149  0.1103 -0.2352 -0.1503
    2LEU     BB  575   1.671   1.289   3.484 -0.0439  0.0028 -0.1847
    2LEU    SC1  576   1.728   1.534   3.266  0.2655 -0.0263  0.0207
    3TYR     BB  577   1.820   1.202   3.794  0.3067  0.2981 -0.1505
    3TYR    SC1  578   1.966   1.439   3.952 -0.4755  0.0133  0.0797
    3TYR    SC2  579   2.188   1.531   4.074 -0.0819 -0.3053 -0.3498
    3TYR    SC3  580   1.985   1.700   4.020  0.0579  0.0033  0.0248
    1TYR     BB  581   2.307   1.011   0.819 -0.3036  0.2542  0.4784
    1TYR    SC1  582   2.505   0.954   0.589  0.0128 -0.5723  0.1151
    1TYR    SC2  583   2.605   0.953   0.339 -0.0616 -0.1153  0.0730
    1TYR    SC3  584   2.748   1.061   0.541 -0.2229  0.0091  0.1225
    2LEU     BB  585   2.228   1.338   0.809  0.1446  0.1365  0.0712
    2LEU    SC1  586   2.378   1.453   0.571  0.2280 -0.3530 -0.0980
    3TYR     BB  587   2.034   1.333   1.069 -0.1933 -0.2188  0.1098
    3TYR    SC1  588   1.752   1.393   1.073 -0.2562  0.2159 -0.1762
    3TYR    SC2  589   1.498   1.309   1.033 -0.2075  0.0841 -0.2132
    3TYR    SC3  590   1.562   1.441   1.259 -0.3515  0.2948 -0.2914
    1TYR     BB  591   5.367   4.660   2.952 -0.0919 -0.0747  0.0067
    1TYR    SC1  592   5.543   4.796   2.714 -0.2796  0.2099 -0.2458
    1TYR    SC2  593   5.720   4.981   2.629  0.1157 -0.0235  0.0326
    1TYR    SC3  594   5.690   4.750   2.492  0.0331  0.0110 -0.0080
    2LEU     BB  595   5.386   4.281   2.954 -0.0085 -0.2521 -0.5553
    2LEU    SC1  596   5.078   4.233   3.000 -0.0785 -0.0509  0.2275
    3TYR     BB  597   5.631   4.245   2.850 -0.5358 -0.0098 -0.0296
    3TYR    SC1  598   5.787   4.187   2.615 -0.0544  0.3469 -0.3825
    3TYR    SC2  599   5.991   4.037   2.523  0.0206  0.1182  0.1150
    3TYR    SC3  600   5.739   3.985   2.444  0.0519 -0.2405  0.2288
    1TYR     BB  601   1.100   1.158   1.667 -0.1793  0.3350  0.2487
    1TYR    SC1  602   0.830   1.288   1.703 -0.0758 -0.5004  0.1552
    1TYR    SC2  603   0.655   1.343   1.901 -0.2553  0.1842 -0.1565
    1TYR    SC3  604   0.564   1.265   1.659 -0.0954  0.1236 -0.1984
    2LEU     BB  605   1.333   1.308   1.664 -0.0512 -0.3027 -0.2067
    2LEU    SC1  606   1.221   1.590   1.867 -0.3755 -0.0525 -0.1045
    3TYR     BB  607   1.549   1.257   1.799 -0.3893  0.1974  0.1884
    3TYR    SC1  608   1.519   0.948   1.872  0.2152  0.0600 -0.0808
    3TYR    SC2  609   1.642   0.709   1.889 -0.1400 -0.1218  0.0791
    3TYR    SC3  610   1.387   0.723   1.802  0.0042  0.2526 -0.3290
    1TYR     BB  611   1.699   2.626   7.568 -0.0877 -0.0827 -0.0217
    1TYR    SC1  612   1.777   2.787   7.825 -0.2707 -0.5853  0.0422
    1TYR    SC2  613   1.671   2.913   8.039 -0.1815  0.2048 -0.3321
    1TYR    SC3  614   1.917   2.802   8.056 -0.2247  0.1441 -0.0041
    2LEU     BB  615   1.689   2.852   7.385 -0.2692 -0.0245  0.1408
    2LEU    SC1  616   1.572   2.766   7.114 -0.1997  0.1598  0.0124
    3TYR     BB  617   1.831   3.141   7.378  0.1213 -0.0932 -0.0722
    3TYR    SC1  618   1.676   3.306   7.612  0.1813  0.2935  0.1448
    3TYR    SC2  619   1.414   3.365   7.638  0.0361 -0.1955 -0.0740
    3TYR    SC3  620   1.580   3.395   7.848 -0.1696  0.2010  0.0445
    1TYR     BB  621   2.688   3.475   1.930 -0.1421 -0.0684 -0.0835
    1TYR    SC1  622   2.601   3.534   2.206 -0.2236 -0.0641 -0.0087
    1TYR    SC2  623   2.648   3.710   2.405  0.0034 -0.3076  0.1621
    1TYR    SC3  624   2.397   3.623   2.358 -0.1081  0.0317  0.0934
    2LEU     BB  625   2.504   3.643   1.691 -0.4456 -0.1671  0.0647
    2LEU    SC1  626   2.303   3.760   1.900 -0.0373 -0.1965 -0.0929
    3TYR     BB  627   2.663   3.805   1.516 -0.0661  0.2422  0.1492
    3TYR    SC1  628   2.701   4.106   1.482 -0.0991 -0.0802 -0.1972
    3TYR    SC2  629   2.557   4.323   1.412 -0.0092  0.0249 -0.0642
    3TYR    SC3  630   2.704   4.326   1.638 -0.2686 -0.2923  0.1193
    1TYR     BB  631   0.332   0.968   3.170  0.0368  0.0617 -0.0840
    1TYR    SC1  632   0.215   1.128   2.928  0.0584 -0.0306 -0.0811
    1TYR    SC2  633  -0.034   1.194   2.846  0.0843 -0.0171 -0.1495
    1TYR    SC3  634   0.148   1.104   2.667  0.1393  0.0065 -0.1056
    2LEU     BB  635   0.317   1.132   3.444  0.2314 -0.0326 -0.0809
    2LEU    SC1  636   0.256   1.443   3.401  0.0982  0.2025  0.2374
    3TYR     BB  637   0.629   1.133   3.592 -0.0361 -0.1881  0.0421
    3TYR    SC1  638   0.843   1.357   3.588 -0.5175  0.4242 -0.1135
    3TYR    SC2  639   0.967   1.570   3.478 -0.0951  0.1838 -0.1277
    3TYR    SC3  640   0.999   1.517   3.741 -0.1872  0.1292 -0.1271
    1TYR     BB  641   0.865   3.280   1.854  0.0996 -0.0347 -0.0894
    1TYR    SC1  642   0.903   3.616   1.791 -0.0971 -0.0629 -0.2312
    1TYR    SC2  643   0.933   3.852   1.663  0.3969  0.0614  0.0794
    1TYR    SC3  644   0.856   3.848   1.922  0.1175 -0.1435 -0.0008
    2LEU     BB  645   0.776   3.115   1.540  0.2520 -0.2620  0.1854
    2LEU    SC1  646   0.785   3.371   1.387  0.0377 -0.5049  0.2647
    3TYR     BB  647   0.583   2.868   1.375 -0.2259 -0.0267  0.0553
    3TYR    SC1  648   0.501   2.835   1.053 -0.0056 -0.0149 -0.0058
    3TYR    SC2  649   0.501   2.931   0.800  0.3728 -0.2137 -0.0907
    3TYR    SC3  650   0.337   2.726   0.867  0.2031 -0.0987 -0.1451
    1TYR     BB  651   4.555   1.951   0.729  0.3597  0.0282  0.0706
    1TYR    SC1  652   4.382   2.133   0.459 -0.4094 -0.2247 -0.1446
    1TYR    SC2  653   4.453   2.084   0.203 -0.1836 -0.0840 -0.1122
    1TYR    SC3  654   4.269   2.273   0.257 -0.1304 -0.0166 -0.1645
    2LEU     BB  655   4.315   1.883   0.999  0.0430 -0.0384  0.1367
    2LEU    SC1  656   4.412   1.916   1.313 -0.2513 -0.5772  0.3546
    3TYR     BB  657   3.944   1.842   1.063 -0.2631  0.3420 -0.1081
    3TYR    SC1  658   3.940   1.822   1.370  0.4109  0.3131  0.1150
    3TYR    SC2  659   3.797   1.960   1.553  0.0945 -0.1131  0.2106
    3TYR    SC3  660   3.922   1.731   1.624  0.1081 -0.1969 -0.0691
    1TYR     BB  661   1.564   1.432   6.658 -0.1040  0.2361  0.2106
    1TYR    SC1  662   1.818   1.315   6.543  0.4466  0.4660 -0.0300
    1TYR    SC2  663   2.054   1.187   6.520  0.3301  0.2515 -0.0672
    1TYR    SC3  664   1.954   1.324   6.310  0.1222 -0.1972 -0.2780
    2LEU     BB  665   1.535   1.720   6.750  0.2381  0.1231 -0.1094
    2LEU    SC1  666   1.279   1.875   6.725 -0.0060 -0.1001  0.0722
    3TYR     BB  667   1.719   1.817   6.955  0.2088 -0.2653  0.1067
    3TYR    SC1  668   2.015   1.955   6.917 -0.0200 -0.1086 -0.1731
    3TYR    SC2  669   2.097   2.209   6.875 -0.1496  0.0652  0.4768
    3TYR    SC3  670   2.275   2.006   6.869 -0.0145  0.1857  0.1189
    1TYR     BB  671   2.991   2.405   0.347  0.0763  0.0782 -0.1549
    1TYR    SC1  672   2.945   2.715   0.398 -0.3276 -0.0347 -0.2861
    1TYR    SC2  673   2.832   2.958   0.430 -0.1172  0.0627 -0.2587
    1TYR    SC3  674   3.025   2.923   0.245  0.1230  0.0145 -0.0068
    2LEU     BB  675   2.730   2.248   0.430 -0.0130  0.5163  0.0656
    2LEU    SC1  676   2.650   2.432   0.694  0.1274  0.1115 -0.1432
    3TYR     BB  677   2.514   2.110   0.254  0.1836  0.0169 -0.1389
    3TYR    SC1  678   2.274   2.303   0.146 -0.0695  0.5249 -0.0378
    3TYR    SC2  679   2.063   2.297  -0.023 -0.0769  0.0910 -0.0289
    3TYR    SC3  680   2.043   2.427   0.212 -0.3243  0.0819 -0.0416
    1TYR     BB  681   1.234   1.615   2.440  0.1005  0.0228  0.0199
    1TYR    SC1  682   1.513   1.673   2.604  0.0271 -0.0444 -0.1366
    1TYR    SC2  683   1.736   1.594   2.734  0.0378  0.0718 -0.0827
    1TYR    SC3  684   1.748   1.797   2.557 -0.0614  0.2145  0.0694
    2LEU     BB  685   1.393   1.320   2.239  0.2003  0.0430 -0.1410
    2LEU    SC1  686   1.572   1.175   2.433 -0.1476 -0.1736  0.0264
    3TYR     BB  687   1.137   1.172   2.136  0.1236  0.0220 -0.2326
    3TYR    SC1  688   1.189   0.874   2.190 -0.0155  0.2237  0.0747
    3TYR    SC2  689   1.371   0.684   2.250 -0.0388  0.2741  0.3222
    3TYR    SC3  690   1.134   0.615   2.140  0.0356  0.1841  0.2156
    1TYR     BB  691   0.515   1.766   3.715  0.0893  0.1976 -0.0644
    1TYR    SC1  692   0.726   1.828   3.947 -0.1966 -0.2261  0.0234
    1TYR    SC2  693   0.968   1.903   4.042 -0.2193 -0.1673  0.0356
    1TYR    SC3  694   0.836   1.697   4.156 -0.2770 -0.0540  0.1781
    2LEU     BB  695   0.573   1.888   3.413 -0.4373 -0.2874 -0.1882
    2LEU    SC1  696   0.434   2.190   3.501 -0.2374  0.1733  0.1046
    3TYR     BB  697   0.531   1.960   3.098 -0.0672  0.1860 -0.0545
    3TYR    SC1  698   0.365   1.767   2.931  0.1578 -0.2758 -0.2177
    3TYR    SC2  699   0.161   1.595   2.888  0.1238 -0.2851 -0.0281
    3TYR    SC3  700   0.297   1.697   2.679 -0.1642 -0.1703 -0.1664
    1TYR     BB  701   2.915   1.780   3.242 -0.0673 -0.0409  0.4804
    1TYR    SC1  702   2.955   2.068   3.414 -0.0376  0.1769 -0.1523
    1TYR    SC2  703   2.990   2.322   3.499 -0.0371  0.0737  0.1723
    1TYR    SC3  704   3.176   2.134   3.554  0.0613  0.0387 -0.2400
    2LEU     BB  705   2.970   1.925   2.930  0.3708  0.2431 -0.0412
    2LEU    SC1  706   3.041   2.226   2.969  0.2718  0.0548  0.1831
    3TYR     BB  707   2.971   1.781   2.648 -0.0901  0.1083 -0.0601
    3TYR    SC1  708   3.233   1.639   2.514  0.1514  0.2956 -0.2724
    3TYR    SC2  709   3.320   1.433   2.364  0.1246  0.0697  0.0098
    3TYR    SC3  710   3.485   1.548   2.544  0.0328  0.0594  0.1015
    1TYR     BB  711   1.742   3.363   0.636 -0.1463  0.1465  0.3048
    1TYR    SC1  712   1.392   3.410   0.630 -0.1377 -0.2983  0.1969
    1TYR    SC2  713   1.199   3.417   0.442 -0.0169 -0.2615  0.0726
    1TYR    SC3  714   1.146   3.501   0.693 -0.0062  0.3355 -0.1035
    2LEU     BB  715   1.915   3.645   0.572  0.0936  0.3027 -0.0285
    2LEU    SC1  716   1.739   3.848   0.403  0.2430 -0.1340 -0.0306
    3TYR     BB  717   2.128   3.801   0.744 -0.0028  0.0902 -0.1187
    3TYR    SC1  718   2.109   3.919   1.073 -0.2560 -0.1454 -0.2718
    3TYR    SC2  719   2.129   4.119   1.254  0.1378 -0.2818 -0.1514
    3TYR    SC3  720   2.167   3.863   1.330 -0.3951 -0.4212 -0.2962
    1TYR     BB  721   4.500   2.328   1.090 -0.2377  0.2908  0.1429
    1TYR    SC1  722   4.552   2.450   0.829  0.4297 -0.1612  0.0473
    1TYR    SC2  723   4.604   2.702   0.748 -0.4694  0.0331 -0.0674
    1TYR    SC3  724   4.536   2.514   0.567 -0.4440 -0.1144  0.0731
    2LEU     BB  725   4.114   2.406   1.232 -0.2112 -0.2469 -0.0003
    2LEU    SC1  726   4.090   2.337   1.570 -0.3514  0.0336 -0.3249
    3TYR     BB  727   3.862   2.496   1.197  0.0445  0.1172 -0.0276
    3TYR    SC1  728   3.632   2.325   1.045  0.1992 -0.2939  0.1955
    3TYR    SC2  729   3.524   2.114   0.914  0.2156 -0.2847  0.1671
    3TYR    SC3  730   3.401   2.215   1.133  0.0305 -0.1149 -0.0098
    1TYR     BB  731   3.303   2.588   7.650 -0.2883 -0.1074 -0.3656
    1TYR    SC1  732   3.545   2.442   7.639 -0.0226 -0.2069  0.2429
    1TYR    SC2  733   3.632   2.187   7.624 -0.0220 -0.2116  0.3192
    1TYR    SC3  734   3.762   2.364   7.780  0.3593 -0.0031 -0.1970
    2LEU     BB  735   3.288   2.741   7.336 -0.1872 -0.1013 -0.1554
    2LEU    SC1  736   3.294   3.055   7.465 -0.0580 -0.0523  0.0920
    3TYR     BB  737   3.349   2.709   7.000 -0.4227 -0.1238  0.0971
    3TYR    SC1  738   3.642   2.559   7.074  0.2082  0.0813 -0.1423
    3TYR    SC2  739   3.760   2.391   7.250 -0.2287 -0.1927 -0.0921
    3TYR    SC3  740   3.909   2.521   7.066  0.1793 -0.2596  0.1758
    1TYR     BB  741   3.187   2.693   1.763  0.0097 -0.2611  0.1731
    1TYR    SC1  742   3.473   2.515   1.772  0.1242 -0.0993  0.0905
    1TYR    SC2  743   3.591   2.403   1.556  0.1944  0.0496  0.0503
    1TYR    SC3  744   3.663   2.326   1.805  0.1879 -0.0476  0.0227
    2LEU     BB  745   3.188   2.866   2.022  0.0185 -0.0040  0.0293
    2LEU    SC1  746   3.446   2.990   2.058 -0.2202 -0.0941 -0.0193
    3TYR     BB  747   2.963   3.083   2.026  0.1827 -0.0080  0.1102
    3TYR    SC1  748   2.969   3.162   2.334  0.2123 -0.0960  0.1168
    3TYR    SC2  749   3.086   3.248   2.561  0.0991  0.0098  0.1360
    3TYR    SC3  750   2.818   3.270   2.530  0.1346  0.1765 -0.0850
    1TYR     BB  751   2.195   2.698   2.312 -0.1928  0.2697 -0.2645
    1TYR    SC1  752   2.063   2.391   2.384  0.1093  0.0668 -0.0703
    1TYR    SC2  753   2.007   2.127   2.370  0.2837  0.0234  0.0225
    1TYR    SC3  754   1.991   2.256   2.607  0.4491  0.0369  0.0278
    2LEU     BB  755   2.244   2.825   2.569  0.0674  0.2131  0.2232
    2LEU    SC1  756   1.946   2.792   2.689 -0.2217  0.0977 -0.1834
    3TYR     BB  757   2.394   3.083   2.651 -0.2797 -0.0755 -0.0619
    3TYR    SC1  758   2.653   2.940   2.773  0.0105 -0.1493  0.0004
    3TYR    SC2  759   2.759   2.719   2.886  0.0742 -0.1023  0.0332
    3TYR    SC3  760   2.887   2.956   2.907 -0.0630 -0.0344  0.1171
    1TYR     BB  761   3.988   1.871   0.007 -0.2555 -0.0502  0.2350
    1TYR    SC1  762   4.218   1.687  -0.068  0.1147  0.0694  0.4066
    1TYR    SC2  763   4.355   1.484  -0.182 -0.1480  0.0670  0.0755
    1TYR    SC3  764   4.482   1.713  -0.119  0.0534 -0.0189 -0.0072
    2LEU     BB  765   3.948   1.878   0.336 -0.0123 -0.0885 -0.0941
    2LEU    SC1  766   3.623   1.953   0.395 -0.3700  0.1072 -0.0058
    3TYR     BB  767   4.072   1.759   0.569  0.0031 -0.0909 -0.1417
    3TYR    SC1  768   4.266   1.570   0.461 -0.0131 -0.1553  0.0416
    3TYR    SC2  769   4.383   1.361   0.336  0.1284 -0.1460  0.1554
    3TYR    SC3  770   4.511   1.598   0.352 -0.0370 -0.0440  0.0148
    1TYR     BB  771   2.473   3.022   2.089 -0.1775  0.1687  0.0063
    1TYR    SC1  772   2.242   3.197   2.156 -0.1278 -0.2589  0.2119
    1TYR    SC2  773   2.076   3.408   2.131  0.2566  0.0054 -0.4116
    1TYR    SC3  774   2.023   3.216   2.313 -0.4029  0.3502 -0.1972
    2LEU     BB  775   2.453   2.768   1.922  0.3714  0.1014 -0.0530
    2LEU    SC1  776   2.717   2.604   1.869 -0.2924  0.0976 -0.1311
    3TYR     BB  777   2.165   2.676   1.808  0.2550 -0.4378 -0.2697
    3TYR    SC1  778   1.968   2.904   1.938  0.0312 -0.2466  0.0854
    3TYR    SC2  779   1.803   3.115   1.910  0.5794  0.2261  0.1655
    3TYR    SC3  780   1.773   2.947   2.119  0.0222  0.0948  0.0025
    1TYR     BB  781   3.003   0.363   0.366 -0.0290 -0.1095  0.0181
    1TYR    SC1  782   2.958   0.181   0.119 -0.1796  0.0370  0.1521
    1TYR    SC2  783   2.901   0.137  -0.141  0.0730  0.1669  0.0697
    1TYR    SC3  784   2.829  -0.044   0.046  0.1042 -0.0470 -0.1200
    2LEU     BB  785   3.011   0.696   0.195  0.1914  0.2141 -0.0713
    2LEU    SC1  786   3.100   0.613  -0.093 -0.2415  0.2565 -0.1281
    3TYR     BB  787   3.148   0.836   0.453 -0.0636 -0.1060  0.2358
    3TYR    SC1  788   3.228   0.657   0.656  0.0550  0.1772  0.0788
    3TYR    SC2  789   3.320   0.428   0.764 -0.0461  0.2040  0.2260
    3TYR    SC3  790   3.082   0.528   0.843 -0.2594  0.0810 -0.2201
    1TYR     BB  791   3.702   2.804   0.777  0.0283 -0.0287 -0.2996
    1TYR    SC1  792   3.734   3.071   0.949 -0.1662  0.0674 -0.2749
    1TYR    SC2  793   3.724   3.332   1.019 -0.3607 -0.0660  0.2559
    1TYR    SC3  794   3.861   3.157   1.172  0.3431 -0.1969 -0.4421
    2LEU     BB  795   3.536   2.829   0.500 -0.1022  0.1547  0.0183
    2LEU    SC1  796   3.416   2.508   0.499  0.2292 -0.0432 -0.0172
    3TYR     BB  797   3.600   2.945   0.250 -0.1507 -0.0774  0.0001
    3TYR    SC1  798   3.774   2.851   0.001 -0.3012 -0.0786  0.0498
    3TYR    SC2  799   3.763   2.826  -0.268  0.2893  0.3472 -0.0412
    3TYR    SC3  800   3.953   2.695  -0.128 -0.0495  0.0825  0.1936
    1TYR     BB  801   1.973   1.225   2.091  0.1823 -0.2168 -0.2089
    1TYR    SC1  802   1.836   1.497   2.054 -0.5816  0.1071 -0.1920
    1TYR    SC2  803   1.926   1.752   2.054  0.0183 -0.0819  0.0869
    1TYR    SC3  804   1.671   1.699   2.126 -0.0203  0.4097  0.3712
    2LEU     BB  805   2.315   1.251   1.970 -0.2137 -0.0317 -0.0890
    2LEU    SC1  806   2.414   0.975   2.147  0.1619  0.2039  0.1769
    3TYR     BB  807   2.528   1.461   1.889  0.3093  0.1673 -0.1032
    3TYR    SC1  808   2.773   1.338   1.959 -0.0668  0.1023 -0.1620
    3TYR    SC2  809   2.886   1.095   1.990 -0.2436  0.0293 -0.0718
    3TYR    SC3  810   3.042   1.315   1.975 -0.0858 -0.0798 -0.0691
    1TYR     BB  811   1.037   2.013   2.080  0.1033  0.0094  0.4047
    1TYR    SC1  812   0.788   1.822   2.086 -0.4265  0.3293  0.2020
    1TYR    SC2  813   0.757   1.605   2.243 -0.2128 -0.0085 -0.1976
    1TYR    SC3  814   0.549   1.697   2.097 -0.2096 -0.1885 -0.3199
    2LEU     BB  815   1.023   2.253   2.296 -0.0454  0.4717  0.1537
    2LEU    SC1  816   0.761   2.428   2.271 -0.1120 -0.1470  0.0965
    3TYR     BB  817   1.195   2.127   2.541  0.5039  0.0200 -0.0584
    3TYR    SC1  818   1.368   2.282   2.700  0.1260 -0.1262  0.0055
    3TYR    SC2  819   1.572   2.455   2.730  0.1497 -0.1799  0.1636
    3TYR    SC3  820   1.441   2.362   2.947 -0.0505 -0.1376  0.0633
    1TYR     BB  821   3.117   2.600   0.891 -0.0263 -0.1461 -0.2197
    1TYR    SC1  822   3.134   2.896   0.772 -0.0092  0.0857  0.0356
    1TYR    SC2  823   3.169   3.127   0.637  0.0164  0.0741  0.0224
    1TYR    SC3  824   3.272   3.099   0.885 -0.3705  0.2446  0.2119
    2LEU     BB  825   3.126   2.641   1.260 -0.2332  0.2690 -0.0485
    2LEU    SC1  826   2.840   2.547   1.395 -0.0161 -0.2355 -0.0012
    3TYR     BB  827   3.465   2.794   1.274  0.1665  0.3300  0.0887
    3TYR    SC1  828   3.610   2.854   1.476 -0.1375  0.1348 -0.1928
    3TYR    SC2  829   3.693   3.072   1.612 -0.0696  0.0614 -0.1151
    3TYR    SC3  830   3.773   2.825   1.690 -0.1209  0.0106 -0.2207
    1TYR     BB  831   3.258   1.332   1.242 -0.0167  0.2126  0.0260
    1TYR    SC1  832   3.204   1.634   1.183 -0.0210  0.1176 -0.1623
    1TYR    SC2  833   3.096   1.871   1.253 -0.0856  0.0453 -0.0114
    1TYR    SC3  834   3.341   1.802   1.343 -0.2559 -0.1387  0.3372
    2LEU     BB  835   3.490   1.153   1.176 -0.0341  0.2825 -0.1415
    2LEU    SC1  836   3.601   0.925   0.988  0.2052 -0.0687  0.0824
    3TYR     BB  837   3.824   1.392   1.252  0.0045 -0.0231  0.0619
    3TYR    SC1  838   4.067   1.354   1.431  0.0475 -0.2471  0.1114
    3TYR    SC2  839   4.277   1.506   1.506 -0.0589 -0.1424  0.2020
    3TYR    SC3  840   4.170   1.328   1.679 -0.0447 -0.1959  0.1559
    1TYR     BB  841   1.538   3.027   2.517  0.0393 -0.1672 -0.1615
    1TYR    SC1  842   1.376   2.881   2.705  0.1542  0.0478  0.1727
    1TYR    SC2  843   1.271   2.783   2.934 -0.1436  0.3858  0.1925
    1TYR    SC3  844   1.166   2.711   2.696  0.1793  0.0180  0.1485
    2LEU     BB  845   1.399   3.264   2.389  0.3784 -0.0003  0.0765
    2LEU    SC1  846   1.623   3.491   2.405  0.1083 -0.1412  0.1464
    3TYR     BB  847   1.075   3.433   2.274 -0.1433  0.1775 -0.3662
    3TYR    SC1  848   0.947   3.151   2.352 -0.3526  0.0390 -0.0436
    3TYR    SC2  849   0.991   2.884   2.344  0.4030  0.1212  0.3040
    3TYR    SC3  850   0.761   2.986   2.246  0.1775 -0.6231 -0.0288
    1TYR     BB  851   3.439   1.939   1.935 -0.2716  0.1320  0.2375
    1TYR    SC1  852   3.231   2.063   1.752 -0.0699  0.2305  0.0698
    1TYR    SC2  853   3.211   2.224   1.536  0.1570  0.3915  0.1631
    1TYR    SC3  854   2.988   2.124   1.651  0.0377  0.0793 -0.3021
    2LEU     BB  855   3.432   1.637   1.915 -0.1011  0.3530 -0.0351
    2LEU    SC1  856   3.701   1.508   2.113 -0.2625 -0.1092  0.3904
    3TYR     BB  857   3.482   1.454   1.644  0.0060  0.0455  0.0300
    3TYR    SC1  858   3.674   1.200   1.706 -0.1710 -0.3012 -0.2205
    3TYR    SC2  859   3.750   0.948   1.646  0.1041 -0.3229  0.1706
    3TYR    SC3  860   3.873   1.083   1.845  0.0124  0.1530 -0.0756
    1TYR     BB  861   2.727   1.772   6.673 -0.1182  0.1534 -0.1532
    1TYR    SC1  862   2.940   1.828   6.489  0.1291 -0.2714 -0.0919
    1TYR    SC2  863   3.064   2.053   6.407 -0.0481 -0.1262  0.0278
    1TYR    SC3  864   3.096   1.823   6.268  0.0427 -0.0021 -0.1632
    2LEU     BB  865   2.815   1.469   6.848  0.0304  0.1908 -0.2128
    2LEU    SC1  866   2.655   1.304   6.636  0.0501 -0.1350  0.1211
    3TYR     BB  867   2.742   1.475   7.147  0.1473 -0.0665 -0.0337
    3TYR    SC1  868   2.792   1.183   7.248 -0.3495 -0.2051  0.1317
    3TYR    SC2  869   2.930   0.966   7.328 -0.2643 -0.1940  0.0183
    3TYR    SC3  870   2.770   0.951   7.112  0.0684 -0.0393 -0.2510
    1TYR     BB  871   1.752   1.002   1.399  0.2309  0.2641  0.1556
    1TYR    SC1  872   1.450   0.901   1.385  0.1100 -0.1037 -0.1631
    1TYR    SC2  873   1.203   0.793   1.382 -0.0811  0.2829  0.2240
    1TYR    SC3  874   1.258   1.008   1.229  0.0804  0.0889  0.0001
    2LEU     BB  875   1.967   1.140   1.526 -0.0359  0.0900  0.0953
    2LEU    SC1  876   2.126   0.870   1.642  0.0549 -0.1881  0.2259
    3TYR     BB  877   2.022   1.486   1.638 -0.1382 -0.0430  0.1225
    3TYR    SC1  878   1.781   1.694   1.665  0.1252  0.0063  0.3590
    3TYR    SC2  879   1.539   1.777   1.580  0.0723 -0.1201  0.3829
    3TYR    SC3  880   1.738   1.956   1.615  0.1418 -0.0734 -0.1407
    1TYR     BB  881   2.554   0.122   1.069  0.1042  0.0950  0.0716
    1TYR    SC1  882   2.634   0.365   0.960 -0.1054  0.0076  0.2030
    1TYR    SC2  883   2.653   0.513   0.734  0.1732 -0.1367  0.1265
    1TYR    SC3  884   2.513   0.606   0.945  0.1443  0.1274 -0.0044
    2LEU     BB  885   2.416   0.048   1.368  0.2704 -0.3162  0.1217
    2LEU    SC1  886   2.119  -0.098   1.300  0.0147  0.1636  0.1572
    3TYR     BB  887   2.411   0.278   1.674  0.0040 -0.4504 -0.1655
    3TYR    SC1  888   2.471   0.065   1.883 -0.0796 -0.2439 -0.2722
    3TYR    SC2  889   2.407  -0.028   2.128  0.0625 -0.1352 -0.1925
    3TYR    SC3  890   2.641  -0.100   2.013  0.2084  0.1678 -0.0998
    1TYR     BB  891   1.359   7.511   1.724 -0.0326  0.0058 -0.0017
    1TYR    SC1  892   1.547   7.584   1.456 -0.0161 -0.0789  0.1474
    1TYR    SC2  893   1.592   7.445   1.228 -0.0198 -0.0786  0.1466
    1TYR    SC3  894   1.661   7.706   1.244  0.0644 -0.1025  0.1770
    2LEU     BB  895   1.254   7.787   1.789 -0.2017  0.0029 -0.0270
    2LEU    SC1  896   1.465   7.914   2.020  0.3122  0.2571 -0.0307
    3TYR     BB  897   1.147   7.985   1.550 -0.0060  0.3218 -0.4642
    3TYR    SC1  898   1.195   7.805   1.295 -0.0889  0.0162  0.1383
    3TYR    SC2  899   1.244   7.831   1.031  0.0855 -0.0131  0.1666
    3TYR    SC3  900   1.068   7.646   1.118 -0.1709  0.1712  0.0550
    1TYR     BB  901   2.062   1.839   0.741  0.1540  0.1417  0.2907
    1TYR    SC1  902   1.925   1.847   0.990  0.2574  0.1670  0.1836
    1TYR    SC2  903   1.881   1.801   1.252 -0.3331  0.2220  0.1102
    1TYR    SC3  904   1.865   2.053   1.154  0.1579  0.2438  0.0537
    2LEU     BB  905   2.275   2.079   0.721 -0.0529  0.2968 -0.1108
    2LEU    SC1  906   2.144   2.352   0.720  0.3861 -0.1065  0.1463
    3TYR     BB  907   2.556   1.900   0.736 -0.0299 -0.0694 -0.0400
    3TYR    SC1  908   2.652   1.998   0.997 -0.0454 -0.0366 -0.0450
    3TYR    SC2  909   2.724   2.053   1.251 -0.1626 -0.3234  0.0548
    3TYR    SC3  910   2.869   2.151   1.046  0.0398 -0.2366  0.2349
    1TYR     BB  911   4.460   2.346   1.873  0.2416  0.0307 -0.1020
    1TYR    SC1  912   4.680   2.419   2.041  0.2168 -0.0808 -0.2651
    1TYR    SC2  913   4.744   2.368   2.299  0.0818 -0.0505 -0.2247
    1TYR    SC3  914   4.922   2.490   2.137  0.1608 -0.0538 -0.1410
    2LEU     BB  915   4.293   2.077   1.993 -0.1619 -0.2732  0.0056
    2LEU    SC1  916   4.459   1.888   1.791 -0.1312  0.1823 -0.1881
    3TYR     BB  917   4.033   2.011   1.977  0.1575 -0.0965  0.1862
    3TYR    SC1  918   3.861   2.036   2.235 -0.1367 -0.5167  0.0624
    3TYR    SC2  919   3.660   1.911   2.365 -0.4604 -0.0237  0.0686
    3TYR    SC3  920   3.772   2.133   2.471 -0.3239  0.0501 -0.2176
    1TYR     BB  921   1.926   2.477   1.425  0.2307  0.1400  0.2589
    1TYR    SC1  922   2.176   2.385   1.306 -0.1207 -0.2453  0.1048
    1TYR    SC2  923   2.416   2.395   1.184 -0.2959  0.0752 -0.2401
    1TYR    SC3  924   2.287   2.159   1.209  0.1611 -0.1528  0.2011
    2LEU     BB  925   1.698   2.478   1.615  0.2239 -0.4981 -0.1942
    2LEU    SC1  926   1.475   2.367   1.406  0.0539  0.2832 -0.0723
    3TYR     BB  927   1.586   2.671   1.785  0.0329  0.1325 -0.1136
    3TYR    SC1  928   1.525   2.579   2.065  0.2336  0.6713 -0.1183
    3TYR    SC2  929   1.663   2.550   2.295  0.1474  0.1241 -0.1205
    3TYR    SC3  930   1.402   2.617   2.302  0.1495  0.1265 -0.0600
    1TYR     BB  931   5.289   4.044   3.416  0.0438  0.3273  0.0429
    1TYR    SC1  932   5.038   3.865   3.304 -0.2270  0.0675 -0.3560
    1TYR    SC2  933   4.828   3.757   3.435  0.0022 -0.0060 -0.0349
    1TYR    SC3  934   4.828   3.766   3.165 -0.1797 -0.4914 -0.0647
    2LEU     BB  935   5.203   4.282   3.562  0.1805  0.1629  0.3583
    2LEU    SC1  936   4.951   4.206   3.713 -0.1927  0.1861 -0.1443
    3TYR     BB  937   5.093   4.529   3.384 -0.0874  0.0850 -0.3701
    3TYR    SC1  938   4.952   4.703   3.590 -0.0650  0.1672 -0.1711
    3TYR    SC2  939   5.062   4.897   3.742 -0.0087 -0.0916  0.1334
    3TYR    SC3  940   4.834   4.776   3.822 -0.2324  0.0715 -0.2238
    1TYR     BB  941   0.356   2.201   2.349 -0.3121  0.3414 -0.0916
    1TYR    SC1  942   0.313   2.200   2.055 -0.0492  0.1610  0.0786
    1TYR    SC2  943   0.252   2.036   1.850  0.0546  0.3494 -0.1070
    1TYR    SC3  944   0.154   2.287   1.856 -0.4249  0.1753  0.3699
    2LEU     BB  945   0.641   2.009   2.530 -0.1476  0.1644 -0.1879
    2LEU    SC1  946   0.712   2.215   2.723  0.2413  0.0492 -0.0528
    3TYR     BB  947   0.830   1.728   2.684  0.1333  0.1171  0.0223
    3TYR    SC1  948   0.750   1.534   2.907 -0.0740  0.1214 -0.0353
    3TYR    SC2  949   0.685   1.416   3.141 -0.0256  0.2689  0.0544
    3TYR    SC3  950   0.616   1.300   2.907  0.0928  0.0221  0.1376
    1TYR     BB  951   0.961   1.544   1.254 -0.3989  0.0388 -0.0633
    1TYR    SC1  952   0.677   1.474   1.138 -0.0393 -0.0700  0.0131
    1TYR    SC2  953   0.464   1.441   0.975 -0.1243  0.0383  0.0999
    1TYR    SC3  954   0.429   1.457   1.242 -0.0044  0.0361  0.1167
    2LEU     BB  955   0.914   1.771   1.522 -0.0923  0.1397 -0.0155
    2LEU    SC1  956   1.081   2.064   1.581  0.2017  0.3649 -0.0717
    3TYR     BB  957   0.653   1.753   1.621 -0.2841 -0.2182  0.2992
    3TYR    SC1  958   0.481   1.893   1.386 -0.0353 -0.4191 -0.1280
    3TYR    SC2  959   0.319   1.857   1.174 -0.2364  0.0438 -0.0677
    3TYR    SC3  960   0.226   1.981   1.395  0.0135 -0.2914  0.2405
    1TYR     BB  961   1.489   1.905   3.056  0.2624  0.0678  0.2591
    1TYR    SC1  962   1.754   2.020   2.995 -0.0312  0.0731 -0.1778
    1TYR    SC2  963   2.005   1.927   3.028 -0.0878 -0.0042  0.0584
    1TYR    SC3  964   1.959   2.193   3.025 -0.0126  0.0097  0.0957
    2LEU     BB  965   1.283   1.971   3.240 -0.0462 -0.1008 -0.2493
    2LEU    SC1  966   1.033   1.982   3.055  0.0042 -0.0550  0.0207
    3TYR     BB  967   1.181   2.056   3.519 -0.1215 -0.0776 -0.3374
    3TYR    SC1  968   0.973   2.223   3.668  0.1982  0.1196 -0.1762
    3TYR    SC2  969   0.773   2.244   3.848  0.1582 -0.0890 -0.1928
    3TYR    SC3  970   0.855   2.462   3.710  0.2219  0.0849  0.1088
    1TYR     BB  971   3.011   0.181   1.681 -0.0216  0.3064 -0.0262
    1TYR    SC1  972   2.907  -0.100   1.612 -0.5265  0.0775 -0.0776
    1TYR    SC2  973   2.816  -0.212   1.384 -0.4330 -0.3236  0.0704
    1TYR    SC3  974   3.052  -0.292   1.488 -0.2659  0.1579  0.0918
    2LEU     BB  975   2.901   0.342   1.435 -0.2225  0.0544 -0.0621
    2LEU    SC1  976   3.047   0.225   1.170  0.2353 -0.0895 -0.2583
    3TYR     BB  977   2.765   0.599   1.412  0.0019  0.2472 -0.4122
    3TYR    SC1  978   2.863   0.761   1.151 -0.0004 -0.0994 -0.0473
    3TYR    SC2  979   2.837   0.911   0.928  0.0953  0.1335  0.0933
    3TYR    SC3  980   3.071   0.909   1.064  0.0304  0.0149  0.2067
    1TYR     BB  981   6.164   4.546   2.408  0.0395  0.0406 -0.1538
    1TYR    SC1  982   5.907   4.419   2.237  0.0888  0.1245 -0.0968
    1TYR    SC2  983   5.833   4.241   2.047 -0.1803  0.2185 -0.0844
    1TYR    SC3  984   5.648   4.401   2.163 -0.0474  0.0740  0.3526
    2LEU     BB  985   6.177   4.828   2.564 -0.2716  0.0592  0.0113
    2LEU    SC1  986   6.089   5.083   2.338  0.1281  0.0154 -0.3467
    3TYR     BB  987   6.361   4.927   2.748 -0.0527 -0.1647  0.1656
    3TYR    SC1  988   6.365   4.885   3.039  0.1970 -0.0799  0.0593
    3TYR    SC2  989   6.329   4.827   3.300  0.0709  0.1778  0.1033
    3TYR    SC3  990   6.576   4.886   3.207  0.1236  0.0402  0.1532
    1TYR     BB  991   3.542   3.621   1.378  0.2353  0.0928  0.0283
    1TYR    SC1  992   3.608   3.566   1.643 -0.0129  0.3240  0.1034
    1TYR    SC2  993   3.587   3.421   1.870 -0.2662  0.2803  0.0558
    1TYR    SC3  994   3.744   3.641   1.864  0.0809  0.0456  0.1458
    2LEU     BB  995   3.305   3.358   1.278  0.0969 -0.0941 -0.2657
    2LEU    SC1  996   3.073   3.552   1.269  0.4854  0.1353 -0.0596
    3TYR     BB  997   3.232   3.151   1.553 -0.2194 -0.0234  0.1194
    3TYR    SC1  998   2.933   3.093   1.504 -0.0573 -0.1110 -0.0589
    3TYR    SC2  999   2.717   3.255   1.484  0.0402  0.0263 -0.0190
    3TYR    SC3 1000   2.697   3.016   1.609 -0.1370 -0.0519 -0.1913
    4W        W 1001   3.992   3.773   7.607 -0.0500  0.0124  0.0202
    5W        W 1002   0.977   6.873   2.227  0.0252  0.3300  0.1283
    6W        W 1003   5.694   1.111   1.647  0.1164  0.0692 -0.0729
    7W        W 1004   6.583   2.843   3.158  0.0874  0.0385  0.0078
    8W        W 1005   7.466   7.534   6.968  0.0756 -0.1436 -0.1217
    9W        W 1006   0.699   3.387   0.893 -0.1096  0.0964 -0.1041
   10W        W 1007   1.075   1.380   4.485  0.0414  0.1218 -0.0510
   11W        W 1008   0.369   5.637   1.954 -0.0682 -0.0864  0.1549
   12W        W 1009   4.795   2.048   6.496  0.2116 -0.1995  0.0866
   13W        W 1010   3.408   0.775   4.778 -0.0003 -0.1051 -0.1684
   14W        W 1011   3.395   6.153   4.791  0.1335 -0.1634  0.2803
   15W        W 1012   2.043   0.285   3.406 -0.1804 -0.0778  0.2138
   16W        W 1013   5.629   6.518   5.508  0.3740  0.0858 -0.2025
   17W        W 1014   6.618   6.019   4.046 -0.0161  0.0557  0.1443
   18W        W 1015   0.755   4.483   5.828 -0.0046  0.1225  0.2068
   19W        W 1016   2.341   6.784   6.683 -0.0168 -0.1412  0.0430
   20W        W 1017   5.938   7.581   0.422 -0.3119 -0.3348 -0.3598
   21W        W 1018   5.732   0.046   2.347 -0.0543  0.1620  0.2929
   22W        W 1019   1.124   3.799   3.906 -0.0052  0.0914  0.2160
   23W        W 1020   6.247   7.031   5.042  0.0189  0.0452  0.4002
   24W        W 1021   6.421   2.487   6.330  0.1082  0.1981 -0.0804
   25W        W 1022   7.358   5.512   7.159  0.0829 -0.0440  0.2204
   26W        W 1023   7.255   1.302   6.761 -0.2663 -0.1510  0.2648
   27W        W 1024   5.452   2.510   1.985  0.4514 -0.0545  0.2981
   28W        W 1025   4.555   6.794   1.682  0.0412 -0.1260  0.3034
   29W        W 1026   5.374   1.286   1.223  0.2204  0.2276  0.0915
   30W        W 1027   0.851   5.495   5.160  0.0514 -0.0371  0.0853
   31W        W 1028   5.641   7.237   7.271 -0.0316  0.0710  0.0545
   32W        W 1029   4.524   6.109   2.060  0.0321  0.2437  0.3162
   33W        W 1030   0.783   1.275   6.452 -0.0183  0.0366  0.1939
   34W        W 1031   6.596   7.089   2.749  0.0707  0.1692 -0.0330
   35W        W 1032   1.383   5.417   2.327 -0.3310 -0.2909  0.0269
   36W        W 1033   0.269   0.126   0.150  0.0781  0.0496 -0.2356
   37W        W 1034   0.095   3.965   0.422 -0.0190 -0.1121  0.2278
   38W        W 1035   1.707   3.958   6.553 -0.4615  0.0669 -0.3111
   39W        W 1036   6.971   6.941   7.555  0.0085 -0.0394  0.2103
   40W        W 1037   5.135   2.266   2.559 -0.0278  0.3758  0.1865
   41W        W 1038   0.755   5.886   3.120  0.0189  0.0679 -0.0977
   42W        W 1039   1.662   3.649   5.121  0.1544  0.2424  0.1279
   43W        W 1040   0.868   6.057   7.180  0.2767  0.4297  0.1612
   44W        W 1041   4.379   5.373   0.815  0.0530  0.1404 -0.2558
   45W        W 1042   6.986   2.285   5.332 -0.0543 -0.0747 -0.1608
   46W        W 1043   0.337   3.040   3.841  0.0967 -0.1707  0.1723
   47W        W 1044   2.436   4.753   1.647 -0.1417 -0.0260  0.0818
   48W        W 1045   3.588   5.552   3.400 -0.0833 -0.0694 -0.0667
   49W        W 1046   4.699   0.782   6.327  0.2503  0.0634  0.0413
   50W        W 1047   6.346   6.465   5.809  0.2340  0.1400 -0.0920
   51W        W 1048   7.058   1.670   1.136 -0.0319  0.0124  0.0362
   52W        W 1049   1.696   5.472   1.196 -0.0010 -0.1368 -0.1585
   53W        W 1050   6.504   0.503   3.774  0.2682 -0.1361  0.2810
   54W        W 1051   1.588   2.872   4.668  0.2783  0.0992 -0.0291
   55W        W 1052   0.929   7.395   5.960 -0.1934 -0.0440 -0.1050
   56W        W 1053   3.640   5.169   6.697 -0.0775 -0.1546  0.1070
   57W        W 1054   5.343   6.116   3.048 -0.0268 -0.0214 -0.2523
   58W        W 1055   0.235   2.829   5.152 -0.2950 -0.0565 -0.0731
   59W        W 1056   5.088   6.607   3.359 -0.2221 -0.4208  0.2284
   60W        W 1057   7.444   7.535   5.153 -0.0817  0.2305  0.0715
   61W        W 1058   7.058   6.860   1.131 -0.1798  0.0195 -0.1590
   62W        W 1059   4.092   4.268   3.281  0.1379 -0.0273 -0.0983
   63W        W 1060   6.128   4.856   1.441 -0.2488  0.0358  0.0496
   64W        W 1061   1.989   5.322   6.771  0.1666  0.0729  0.2439
   65W        W 1062   0.144   3.458   4.616 -0.3438  0.2502 -0.1603
   66W        W 1063   0.409   5.997   6.827  0.2449 -0.0700 -0.0632
   67W        W 1064   5.963   1.044   2.060 -0.0191  0.3766  0.0624
   68W        W 1065   2.285   6.328   4.204 -0.3806 -0.2176 -0.2638
   69W        W 1066   0.617   3.859   7.336  0.0371  0.0487  0.3635
   70W        W 1067   7.005   2.788   5.534 -0.2658 -0.2025 -0.0894
   71W        W 1068   3.785   0.444   4.699 -0.2195  0.5343 -0.0138
   72W        W 1069   2.625   6.632   5.850 -0.0458 -0.3170 -0.2353
   73W        W 1070   2.897   6.103   6.724 -0.1443 -0.0171 -0.1548
   74W        W 1071   7.396   3.647   4.283  0.0877 -0.0477 -0.4853
   75W        W 1072   6.775   5.798   5.717 -0.2080  0.1642 -0.2053
   76W        W 1073   3.257   1.638   4.652  0.2470  0.2602  0.0990
   77W        W 1074   2.210   3.030   5.722  0.1689 -0.3008  0.1692
   78W        W 1075   5.560   3.124   1.688  0.0027  0.0031 -0.2180
   79W        W 1076   0.956   2.746   4.984  0.0651 -0.0698  0.2558
   80W        W 1077   0.213   6.180   1.480 -0.4757 -0.1058 -0.0747
   81W        W 1078   0.235   3.225   5.580 -0.1280 -0.1069  0.0238
   82W        W 1079   0.452   1.682   6.530 -0.0074  0.1041 -0.4511
   83W        W 1080   1.557   4.169   3.095  0.0210 -0.2385  0.0432
   84W        W 1081   5.108   1.076   3.227  0.3075 -0.2302  0.0369
   85W        W 1082   1.069   5.579   0.824  0.0400  0.5070 -0.1412
   86W        W 1083   6.199   3.892   7.507  0.4607  0.1549 -0.1135
   87W        W 1084   1.034   3.537   3.456  0.0657 -0.0891 -0.2753
   88W        W 1085   4.213   4.048   7.259 -0.0242 -0.3317  0.0828
   89W        W 1086   3.653   4.757   7.578  0.1025 -0.1773 -0.0710
   90W        W 1087   7.133   4.748   2.365  0.1385  0.1962  0.2281
   91W        W 1088   3.919   6.260   5.534 -0.2886  0.1069  0.0527
   92W        W 1089   3.183   6.148   0.394  0.1677 -0.1661 -0.2394
   93W        W 1090   7.166   5.462   1.790  0.3818  0.0011  0.0084
   94W        W 1091   6.691   1.403   3.857  0.0926 -0.1706 -0.1820
   95W        W 1092   3.758   7.491   0.027 -0.2084 -0.0114  0.0359
   96W        W 1093   2.681   5.778   3.745 -0.1312  0.1174 -0.1884
   97W        W 1094   4.867   6.106   4.562  0.0519 -0.0435  0.2540
   98W        W 1095   0.070   1.732   2.251  0.0965 -0.1196  0.2175
   99W        W 1096   6.083   1.880   5.427  0.0006  0.2864 -0.1041
  100W        W 1097   0.968   0.852   4.873 -0.0504  0.3563 -0.0858
  101W        W 1098   5.094   0.738   1.290  0.3136  0.3537 -0.1844
  102W        W 1099   3.739   1.156   2.406 -0.1296 -0.0752  0.1313
  103W        W 1100   6.685   3.022   1.106  0.1404 -0.1341  0.1592
  104W        W 1101   6.733   1.381   0.710 -0.0150  0.4272  0.0986
  105W        W 1102   4.399   6.067   2.910 -0.1031  0.1160 -0.5028
  106W        W 1103   5.605   1.800   3.160 -0.1611 -0.0512 -0.0303
  107W        W 1104   4.245   7.189   1.751  0.0850  0.1418 -0.2640
  108W        W 1105   1.177   5.429   1.394 -0.1429  0.0170 -0.1501
  109W        W 1106   0.170   4.131   4.875  0.0455 -0.1485  0.0432
  110W        W 1107   0.957   5.516   4.275  0.3302 -0.2200 -0.1973
  111W        W 1108   6.874   5.100   3.939 -0.0006 -0.1271 -0.2201
  112W        W 1109   6.395   3.670   2.774  0.1513 -0.1313  0.0500
  113W        W 1110   7.216   0.561   5.698  0.2217  0.2563  0.1093
  114W        W 1111   6.309   4.117   2.126  0.1540  0.1797 -0.2340
  115W        W 1112   6.789   5.913   7.315 -0.2040  0.0501  0.3018
  116W        W 1113   6.881   0.622   1.798  0.0535  0.0503  0.2409
  117W        W 1114   0.088   0.726   3.590 -0.4012 -0.0364 -0.1191
  118W        W 1115   3.392   0.922   5.820  0.1629 -0.0103  0.2015
  119W        W 1116   3.013   6.695   6.926 -0.0031 -0.0335 -0.1606
  120W        W 1117   1.659   6.495   7.034 -0.2703  0.3114 -0.1967
  121W        W 1118   0.982   5.971   2.664 -0.1103 -0.1203 -0.0741
  122W        W 1119   7.584   1.593   1.237  0.0315  0.0559  0.4724
  123W        W 1120   4.175   0.066   5.509 -0.1153  0.1959 -0.1601
  124W        W 1121   3.101   4.615   0.637 -0.1423 -0.1368 -0.1812
  125W        W 1122   5.555   5.831   0.030  0.0262 -0.0953 -0.0205
  126W        W 1123   4.610   2.959   2.965  0.2089 -0.1212  0.1272
  127W        W 1124   4.392   6.910   4.234  0.1519 -0.0267  0.1146
  128W        W 1125   4.862   4.953   2.181  0.1090  0.1942 -0.1225
  129W        W 1126   4.103   3.641   4.230 -0.1835 -0.0501  0.1394
  130W        W 1127   6.208   3.406   7.587  0.0359  0.0260 -0.0187
  131W        W 1128   0.818   5.190   0.993  0.0257 -0.2879  0.1259
  132W        W 1129   3.568   6.817   6.891  0.0240  0.0604  0.2593
  133W        W 1130   6.254   6.993   3.457  0.1854 -0.1299 -0.0348
  134W        W 1131   0.656   0.640   3.451  0.0180 -0.0595  0.2266
  135W        W 1132   4.389   0.527   3.562  0.2838 -0.0240 -0.1361
  136W        W 1133   1.815   4.321   1.997  0.0733  0.0692  0.4747
  137W        W 1134   0.318   0.636   1.003 -0.0811 -0.1580 -0.1920
  138W        W 1135   0.717   1.750   4.727 -0.2466  0.0333  0.2000
  139W        W 1136   7.425   5.080   6.797 -0.3414 -0.1935 -0.0073
  140W        W 1137   6.173   2.624   3.949 -0.1498 -0.2900  0.3637
  141W        W 1138   2.038   1.180   4.454 -0.2071 -0.2336 -0.3315
  142W        W 1139   4.364   4.237   0.070  0.1357 -0.2240  0.0462
  143W        W 1140   3.526   2.437   4.093  0.0006 -0.1001 -0.0361
  144W        W 1141   6.806   6.390   0.465  0.5481 -0.4984  0.1555
  145W        W 1142   4.692   1.899   5.442 -0.1971 -0.0619 -0.1677
  146W        W 1143   4.501   4.948   0.383  0.0884  0.2556 -0.3086
  147W        W 1144   1.236   7.185   0.921 -0.0268 -0.1014 -0.0761
  148W        W 1145   7.273   1.613   2.088  0.0852 -0.0948  0.0155
  149W        W 1146   5.421   3.257   5.030  0.0767 -0.3661 -0.0343
  150W        W 1147   7.389   3.968   2.656  0.1338  0.0577  0.1687
  151W        W 1148   3.727   3.903   3.522  0.2800  0.1045 -0.1239
  152W        W 1149   7.403   4.983   4.076  0.0427 -0.2669 -0.1889
  153W        W 1150   6.408   5.017   0.214  0.3451 -0.1855 -0.1279
  154W        W 1151   2.047   0.827   6.171  0.1046  0.1982  0.0554
  155W        W 1152   7.122   1.206   3.053  0.1553  0.2968 -0.1157
  156W        W 1153   6.293   2.177   6.761  0.0140 -0.1917 -0.1658
  157W        W 1154   7.045   5.471   6.026 -0.1641  0.0982  0.1499
  158W        W 1155   6.495   0.417   0.528 -0.1584  0.0364  0.0194
  159W        W 1156   6.751   3.955   1.694  0.0739  0.0153 -0.3094
  160W        W 1157   0.884   0.647   3.927 -0.1859  0.0624  0.0242
  161W        W 1158   1.380   6.731   0.084 -0.0314  0.2465  0.1372
  162W        W 1159   6.733   1.198   1.160 -0.0433  0.5020 -0.1823
  163W        W 1160   7.382   7.025   5.900  0.3409 -0.0409  0.1237
  164W        W 1161   4.916   2.439   4.313  0.0885  0.0758 -0.3253
  165W        W 1162   4.759   0.124   6.862  0.4154  0.0055  0.0021
  166W        W 1163   4.425   4.726   4.719  0.1189 -0.1196 -0.2004
  167W        W 1164   6.617   1.588   0.159  0.1285 -0.3289  0.0247
  168W        W 1165   3.841   4.252   7.622  0.2369  0.2013 -0.2298
  169W        W 1166   2.711   5.010   2.271 -0.0903 -0.0566 -0.0719
  170W        W 1167   4.687   4.840   5.546 -0.0625  0.0413 -0.0900
  171W        W 1168   1.729   4.827   5.489 -0.1766 -0.0790 -0.0272
  172W        W 1169   6.113   5.338   7.405  0.1639  0.3852 -0.1309
  173W        W 1170   1.974   3.861   2.380  0.3235 -0.1205 -0.2417
  174W        W 1171   6.480   2.020   3.363 -0.3387 -0.1821 -0.1112
  175W        W 1172   1.960   6.997   6.418  0.0638  0.2100 -0.1592
  176W        W 1173   2.824   1.082   5.786  0.0543 -0.0504  0.2999
  177W        W 1174   6.098   1.379   4.100 -0.0472 -0.2613  0.2964
  178W        W 1175   3.379   3.384   5.319  0.0938 -0.0406  0.3025
  179W        W 1176   6.197   1.392   5.482 -0.1787  0.0491 -0.3216
  180W        W 1177   2.183   4.984   7.113  0.2366  0.0305 -0.2441
  181W        W 1178   0.125   2.230   0.505  0.0843  0.0516  0.0470
  182W        W 1179   5.166   0.228   7.178 -0.3055  0.1763  0.1205
  183W        W 1180   5.571   7.633   5.198 -0.0834  0.1149 -0.2211
  184W        W 1181   0.330   3.574   0.088 -0.3108 -0.0793 -0.1835
  185W        W 1182   6.114   6.078   3.784  0.0378 -0.2864 -0.0177
  186W        W 1183   2.317   5.343   2.494 -0.1910  0.0616 -0.1769
  187W        W 1184   0.168   6.160   4.690  0.1414  0.0548  0.0495
  188W        W 1185   7.280   1.739   7.031  0.0385 -0.0620  0.0233
  189W        W 1186   3.025   7.008   3.641 -0.0831  0.4655  0.1014
  190W        W 1187   5.474   2.200   6.637 -0.0323  0.0988  0.3518
  191W        W 1188   2.680   4.574   0.842  0.3551 -0.0951  0.2792
  192W        W 1189   0.164   0.936   6.107 -0.2575  0.2673 -0.1328
  193W        W 1190   0.791   4.497   7.470  0.0392 -0.1545  0.2501
  194W        W 1191   4.135   3.681   5.842  0.1466  0.0201 -0.4817
  195W        W 1192   0.256   6.243   0.570  0.2498 -0.0034 -0.3215
  196W        W 1193   3.910   4.513   0.895  0.0575  0.0095  0.0689
  197W        W 1194   4.698   4.222   6.799  0.2271  0.0999 -0.1470
  198W        W 1195   7.272   3.892   0.350 -0.1435 -0.4056  0.1025
  199W        W 1196   0.217   4.547   2.766  0.1411 -0.0319 -0.1974
  200W        W 1197   6.414   7.607   0.677  0.0216 -0.3276 -0.1072
  201W        W 1198   4.287   5.023   5.128  0.1959  0.2789 -0.2536
  202W        W 1199   1.470   6.198   4.553  0.1806  0.2543 -0.1984
  203W        W 1200   6.474   5.568   1.388  0.1748  0.0942  0.1777
  204W        W 1201   2.566   5.120   5.191 -0.4837  0.0391 -0.1652
  205W        W 1202   6.123   3.620   4.449  0.1167  0.2507 -0.0653
  206W        W 1203   0.234   7.336   4.945 -0.2342 -0.0051 -0.0737
  207W        W 1204   4.213   7.227   5.643 -0.0986  0.3557 -0.2282
  208W        W 1205   5.984   0.619   4.812 -0.0559  0.1240  0.2877
  209W        W 1206   3.972   0.680   5.957  0.1415 -0.1914  0.0260
  210W        W 1207   5.172   7.140   6.657 -0.1850 -0.0231  0.0530
  211W        W 1208   3.547   7.001   0.739 -0.2036 -0.0235 -0.1475
  212W        W 1209   1.888   4.981   7.567  0.1542 -0.1192  0.1248
  213W        W 1210   7.073   0.988   5.441  0.3488 -0.0557  0.0026
  214W        W 1211   1.554   0.994   6.218  0.0633  0.2001 -0.1007
  215W        W 1212   4.484   4.821   4.192  0.2542  0.2345 -0.0631
  216W        W 1213   6.794   4.338   5.177 -0.1692  0.0406  0.0441
  217W        W 1214   0.994   6.431   4.870  0.2196 -0.0707  0.0002
  218W        W 1215   6.119   0.715   0.792  0.3135  0.0278  0.1290
  219W        W 1216   4.194   7.150   7.140  0.4132 -0.1354 -0.0089
  220W        W 1217   3.136   7.108   7.560 -0.0683 -0.0546 -0.1354
  221W        W 1218   5.355   3.424   1.952  0.2276  0.2154  0.0680
  222W        W 1219   6.858   3.668   4.309  0.1461  0.0596  0.1045
  223W        W 1220   2.130   5.985   0.410  0.0611  0.0078  0.0440
  224W        W 1221   6.492   0.591   2.899  0.1872 -0.0491  0.1938
  225W        W 1222   2.356   7.267   6.583  0.0927 -0.1672 -0.0415
  226W        W 1223   6.474   7.609   1.500  0.2445 -0.2019  0.3469
  227W        W 1224   0.379   7.636   2.339 -0.2069  0.3109  0.0512
  228W        W 1225   3.064   0.042   2.806  0.4041  0.2577  0.0823
  229W        W 1226   7.143   7.590   3.367 -0.1923 -0.2039  0.0374
  230W        W 1227   3.514   7.427   5.936  0.0121 -0.1043 -0.0475
  231W        W 1228   6.761   1.843   2.494 -0.2609 -0.1824 -0.0624
  232W        W 1229   7.190   6.029   2.568  0.2867 -0.1934 -0.1470
  233W        W 1230   1.792   6.284   0.778 -0.1202 -0.1855 -0.0877
  234W        W 1231   3.627   4.419   6.100  0.0931  0.1046 -0.1410
  235W        W 1232   0.822   4.841   2.047 -0.1491 -0.2230  0.1205
  236W        W 1233   7.374   0.549   6.150 -0.1438 -0.0800 -0.0843
  237W        W 1234   3.229   5.253   0.392  0.1183 -0.0430  0.1019
  238W        W 1235   3.947   4.062   1.978  0.4717 -0.2623  0.0165
  239W        W 1236   3.979   7.655   1.007 -0.0288  0.1060 -0.1532
  240W        W 1237   5.260   5.637   2.853 -0.0723 -0.0570  0.2269
  241W        W 1238   3.936   1.552   5.148 -0.2351  0.1374 -0.0901
  242W        W 1239   1.788   5.675   5.287 -0.1465  0.1147  0.1186
  243W        W 1240   6.444   7.600   1.977  0.1410  0.2213  0.0878
  244W        W 1241   5.102   3.315   7.194  0.1305  0.0204  0.2327
  245W        W 1242   5.949   2.129   6.404  0.1195 -0.3402 -0.0522
  246W        W 1243   6.778   4.640   0.994 -0.0715  0.2978  0.3139
  247W        W 1244   0.723   7.085   0.302 -0.1703  0.0869  0.1815
  248W        W 1245   0.143   5.150   4.934  0.0569 -0.1163 -0.0766
  249W        W 1246   6.358   5.511   0.424  0.1168 -0.0187  0.1102
  250W        W 1247   6.071   6.500   0.047 -0.0749  0.0732 -0.3122
  251W        W 1248   1.772   0.234   4.868 -0.2426  0.0418  0.3234
  252W        W 1249   6.807   0.067   3.647 -0.1592 -0.1949 -0.4684
  253W        W 1250   2.366   4.018   5.746 -0.0677  0.0572 -0.3646
  254W        W 1251   6.516   4.257   7.375 -0.1367  0.3016 -0.2550
  255W        W 1252   5.827   3.230   6.703 -0.0952  0.0343  0.0441
  256W        W 1253   0.483   7.113   2.484 -0.2657  0.2190 -0.3038
  257W        W 1254   5.259   4.388   4.895 -0.3526  0.0788 -0.2611
  258W        W 1255   5.122   2.853   0.694  0.2075 -0.2720 -0.3754
  259W        W 1256   5.158   7.584   1.921 -0.2187 -0.0231 -0.1413
  260W        W 1257   6.493   4.054   4.903 -0.0279  0.3440 -0.2113
  261W        W 1258   3.981   2.137   4.336  0.0982 -0.2079  0.0345
  262W        W 1259   5.829   5.525   1.922 -0.1867 -0.0521  0.0301
  263W        W 1260   2.735   5.692   3.036  0.0585 -0.1473 -0.2262
  264W        W 1261   0.278   6.769   5.717  0.0534  0.0204  0.1605
  265W        W 1262   3.916   0.209   4.318 -0.1410  0.1721  0.0984
  266W        W 1263   0.655   1.809   6.987  0.0553 -0.0322 -0.2558
  267W        W 1264   5.053   6.637   6.818  0.1405 -0.2680 -0.1179
  268W        W 1265   6.358   2.328   1.420  0.0519  0.1036 -0.4134
  269W        W 1266   4.861   4.401   0.334  0.3418 -0.0456 -0.2227
  270W        W 1267   7.633   3.055   6.655  0.2876  0.0311 -0.1358
  271W        W 1268   5.692   5.016   5.783  0.1950  0.3981  0.2539
  272W        W 1269   6.721   6.094   2.713  0.1432 -0.0713  0.1567
  273W        W 1270   4.420   0.001   4.394  0.1676 -0.0196 -0.1120
  274W        W 1271   2.916   4.898   3.165 -0.0108  0.0316  0.1376
  275W        W 1272   5.490   6.844   6.856 -0.2691 -0.0222 -0.0762
  276W        W 1273   3.743   6.963   2.496  0.2725  0.0726  0.0199
  277W        W 1274   2.124   5.103   1.290 -0.0557 -0.0493  0.0886
  278W        W 1275   0.481   4.137   1.692  0.3264 -0.1393  0.0148
  279W        W 1276   4.837   2.923   6.915  0.0967 -0.0574  0.1986
  280W        W 1277   2.732   5.503   7.278 -0.1004 -0.1558 -0.2810
  281W        W 1278   5.963   5.937   2.224 -0.0436  0.1353  0.1627
  282W        W 1279   2.096   6.743   1.573  0.2537 -0.0797 -0.0063
  283W        W 1280   4.099   0.773   4.994 -0.3751  0.0021 -0.0714
  284W        W 1281   6.709   6.636   6.619  0.4851  0.2080  0.1420
  285W        W 1282   2.753   2.263   4.456 -0.0561 -0.0374  0.1755
  286W        W 1283   4.763   6.934   3.646  0.0971  0.2727 -0.3141
  287W        W 1284   7.445   7.111   7.178 -0.0880  0.0697  0.0207
  288W        W 1285   5.925   0.083   3.236 -0.4027  0.1184 -0.0437
  289W        W 1286   0.651   4.226   2.734 -0.3055  0.3315  0.0026
  290W        W 1287   0.463   7.505   4.555  0.0191 -0.3549  0.1474
  291W        W 1288   6.727   4.600   2.674  0.3163 -0.0514  0.0504
  292W        W 1289   6.931   4.297   0.433 -0.1387 -0.0189 -0.1448
  293W        W 1290   1.811   4.780   6.632  0.1620 -0.0369 -0.2446
  294W        W 1291   3.105   7.451   3.227 -0.3402  0.1499 -0.1545
  295W        W 1292   7.489   0.505   1.925  0.0748 -0.0952  0.4603
  296W        W 1293   5.871   0.723   5.956  0.1388  0.2187 -0.1598
  297W        W 1294   1.765   6.678   0.394 -0.1701 -0.1226  0.2034
  298W        W 1295   0.223   4.834   1.177  0.0367 -0.0580  0.1635
  299W        W 1296   0.568   3.795   1.304 -0.2253 -0.0645  0.1370
  300W        W 1297   6.763   5.814   1.719  0.0252  0.0033 -0.0677
  301W        W 1298   4.057   4.932   4.534  0.0948 -0.0538  0.1832
  302W        W 1299   2.043   6.197   5.091  0.1084 -0.0186  0.3454
  303W        W 1300   3.610   0.935   6.283 -0.1707 -0.5514  0.0260
  304W        W 1301   7.516   2.290   6.259 -0.2741 -0.0744  0.1102
  305W        W 1302   7.125   7.246   4.514  0.2816  0.0132 -0.2256
  306W        W 1303   7.424   5.748   3.292 -0.0789  0.1908  0.0452
  307W        W 1304   7.468   0.562   0.949  0.2741 -0.0600 -0.0518
  308W        W 1305   1.719   4.476   1.147  0.3149  0.2355  0.1044
  309W        W 1306   2.591   3.759   4.643  0.0424  0.1064 -0.1265
  310W        W 1307   0.351   6.586   3.489  0.0756  0.0321  0.0388
  311W        W 1308   3.285   6.135   6.342  0.0005  0.1986 -0.2007
  312W        W 1309   4.742   5.704   6.427  0.0020  0.2159 -0.2444
  313W        W 1310   7.355   6.648   3.063 -0.0701  0.3335  0.3422
  314W        W 1311   1.175   6.341   3.888  0.0947 -0.0681 -0.1784
  315W        W 1312   1.606   2.000   4.639 -0.1322  0.0773 -0.0862
  316W        W 1313   4.432   5.805   1.040 -0.0339  0.4426  0.1556
  317W        W 1314   6.981   7.294   5.096  0.4391 -0.0196 -0.3972
  318W        W 1315   0.796   7.510   3.159  0.1623  0.2059  0.0194
  319W        W 1316   0.602   4.697   6.719 -0.0686 -0.1086  0.0859
  320W        W 1317   2.816   2.747   3.839 -0.0598  0.3375  0.0946
  321W        W 1318   4.898   5.653   4.777  0.1341  0.0837  0.0297
  322W        W 1319   2.047   3.456   5.388 -0.1430  0.1217  0.0371
  323W        W 1320   5.281   5.704   3.346  0.2927 -0.1057 -0.3744
  324W        W 1321   4.688   5.427   1.279  0.1774  0.1618 -0.1594
  325W        W 1322   5.644   3.036   4.432  0.0045  0.0938 -0.0248
  326W        W 1323   4.530   7.078   6.107  0.1041 -0.1139  0.1882
  327W        W 1324   5.693   3.682   0.045 -0.0459 -0.1987  0.0002
  328W        W 1325   5.438   5.367   7.036 -0.2366 -0.2781 -0.0463
  329W        W 1326   3.767   3.678   7.048  0.0552 -0.0103 -0.1074
  330W        W 1327   1.807   5.305   2.080 -0.1428  0.2932 -0.0381
  331W        W 1328   3.654   3.974   4.048 -0.1161 -0.1533  0.3056
  332W        W 1329   3.437   1.683   3.477 -0.0076 -0.3981  0.1743
  333W        W 1330   3.946   6.817   2.023  0.0875 -0.2054 -0.0648
  334W        W 1331   0.948   4.827   0.662 -0.1616 -0.2203 -0.1265
  335W        W 1332   6.562   6.307   3.582  0.0425  0.1790  0.1506
  336W        W 1333   1.558   7.380   7.166 -0.2330 -0.0681  0.5964
  337W        W 1334   3.996   6.808   4.547  0.1681  0.2603 -0.1519
  338W        W 1335   3.603   0.190   0.420  0.3194  0.0917 -0.0318
  339W        W 1336   1.927   0.607   5.740  0.1341 -0.1178  0.1439
  340W        W 1337   7.522   2.310   7.567  0.1618 -0.0401  0.3357
  341W        W 1338   5.914   6.289   3.006  0.1136  0.2679  0.0940
  342W        W 1339   5.098   2.989   6.380 -0.1503 -0.1019 -0.1235
  343W        W 1340   5.332   0.346   0.892  0.2787 -0.0608 -0.2260
  344W        W 1341   6.364   3.354   6.030 -0.0867  0.1008 -0.0277
  345W        W 1342   3.209   6.285   1.942  0.1590 -0.3143  0.0952
  346W        W 1343   5.748   0.584   7.129 -0.2145  0.1407 -0.3140
  347W        W 1344   4.642   3.946   2.147  0.0185 -0.0955  0.0207
  348W        W 1345   4.866   1.215   1.076 -0.0181  0.0288 -0.2463
  349W        W 1346   3.029   5.390   5.030  0.1790  0.0442  0.2783
  350W        W 1347   4.716   5.861   5.264  0.0178  0.0904  0.0325
  351W        W 1348   0.529   6.443   7.250 -0.1186 -0.1671 -0.0522
  352W        W 1349   4.496   5.834   5.721  0.1089 -0.0304  0.1444
  353W        W 1350   1.942   0.736   4.702 -0.0250 -0.0592 -0.0800
  354W        W 1351   3.075   0.325   4.101  0.1350 -0.0155  0.0926
  355W        W 1352   6.609   7.073   4.198 -0.3468 -0.0433 -0.0864
  356W        W 1353   5.485   0.316   1.998  0.1588 -0.0720 -0.0025
  357W        W 1354   5.353   0.506   5.640 -0.0919  0.0280  0.2451
  358W        W 1355   2.604   7.301   0.947  0.1589  0.3446 -0.1602
  359W        W 1356   0.184   7.516   6.645 -0.0074 -0.0343  0.0836
  360W        W 1357   5.694   0.197   0.018 -0.0015 -0.2987  0.1533
  361W        W 1358   5.046   6.514   2.353  0.3871  0.2966 -0.0495
  362W        W 1359   4.137   6.834   6.252  0.0494  0.3517 -0.0889
  363W        W 1360   2.639   5.946   7.200 -0.0546  0.0878 -0.2028
  364W        W 1361   5.567   3.796   0.568 -0.0254  0.0121  0.2499
  365W        W 1362   1.733   5.727   6.047  0.2316 -0.1092  0.1296
  366W        W 1363   7.314   5.646   0.410 -0.0288 -0.1472  0.0238
  367W        W 1364   2.044   4.878   2.959  0.0204 -0.1594  0.0355
  368W        W 1365   7.383   0.003   3.768  0.0526 -0.3044 -0.1994
  369W        W 1366   5.286   6.579   1.246 -0.4125 -0.0150 -0.1771
  370W        W 1367   7.139   4.390   7.267  0.2544 -0.0957 -0.1488
  371W        W 1368   1.040   6.344   0.963 -0.0342 -0.3284  0.3956
  372W        W 1369   3.652   5.876   5.208 -0.0942  0.2690  0.1382
  373W        W 1370   4.985   6.130   6.469  0.0630 -0.1815 -0.0918
  374W        W 1371   5.930   3.421   0.399 -0.0318 -0.2117 -0.0483
  375W        W 1372   7.542   4.807   2.084 -0.1745  0.3019  0.1333
  376W        W 1373   2.208   4.804   4.075 -0.1670  0.0764  0.0805
  377W        W 1374   0.586   5.955   4.902 -0.1655  0.0948 -0.1739
  378W        W 1375   7.544   0.384   5.267 -0.2561 -0.0482  0.0706
  379W        W 1376   2.450   1.990   4.234 -0.1749  0.0157 -0.1797
  380W        W 1377   0.106   5.301   1.030 -0.1311 -0.0158 -0.3449
  381W        W 1378   7.287   1.226   1.215 -0.0888  0.2681 -0.1041
  382W        W 1379   1.345   5.906   3.108  0.0154  0.0103  0.3117
  383W        W 1380   3.223   6.201   0.856 -0.1257  0.4276 -0.0670
  384W        W 1381   3.551   6.083   3.293 -0.1217 -0.4371  0.0169
  385W        W 1382   7.133   4.694   5.925 -0.0627 -0.0666  0.0561
  386W        W 1383   4.248   7.097   3.793 -0.1443  0.0114  0.4261
  387W        W 1384   0.855   7.308   3.648 -0.2343  0.1926  0.0534
  388W        W 1385   6.016   0.339   1.401 -0.2853 -0.2865 -0.0104
  389W        W 1386   1.588   3.268   5.462 -0.1353  0.0071  0.4634
  390W        W 1387   1.418   0.098   7.410 -0.0525 -0.3244 -0.1534
  391W        W 1388   6.946   3.358   3.945 -0.1313 -0.0515 -0.0033
  392W        W 1389   6.362   3.807   6.472 -0.1636 -0.0713 -0.0863
  393W        W 1390   2.290   4.856   6.599  0.1546  0.2135 -0.0181
  394W        W 1391   7.551   4.751   3.097  0.1177 -0.0092 -0.2447
  395W        W 1392   6.324   3.332   1.190  0.0740  0.1409 -0.0076
  396W        W 1393   6.553   3.846   1.175 -0.2701 -0.0010 -0.1037
  397W        W 1394   6.794   7.368   2.186 -0.0947  0.0126 -0.0775
  398W        W 1395   1.128   6.283   1.465  0.1195 -0.4473 -0.0816
  399W        W 1396   0.135   1.178   5.647  0.0757 -0.0365  0.0192
  400W        W 1397   5.792   3.844   7.229  0.1154 -0.0625 -0.2486
  401W        W 1398   5.104   3.577   4.931 -0.0145 -0.0895 -0.1332
  402W        W 1399   2.026   4.944   6.198  0.2433 -0.1738  0.1890
  403W        W 1400   6.078   4.810   5.157  0.3489 -0.2092  0.0387
  404W        W 1401   5.364   2.287   1.374 -0.1460 -0.3139  0.1125
  405W        W 1402   6.613   2.939   6.186 -0.0628  0.0367  0.2408
  406W        W 1403   3.624   5.979   0.628 -0.1906  0.2400  0.0685
  407W        W 1404   3.282   6.896   5.166 -0.0456  0.1627  0.2461
  408W        W 1405   2.391   6.518   4.871 -0.2486  0.1010  0.0354
  409W        W 1406   3.993   4.217   0.454 -0.0079  0.3527  0.0476
  410W        W 1407   5.923   3.624   2.775  0.0506 -0.0304 -0.0479
  411W        W 1408   2.229   4.595   1.153  0.5057  0.1473  0.2863
  412W        W 1409   7.520   4.137   3.183  0.1359  0.1687  0.2299
  413W        W 1410   6.690   3.770   3.208 -0.1638 -0.0809  0.1542
  414W        W 1411   3.451   4.684   1.034  0.3530 -0.0180  0.0510
  415W        W 1412   3.892   0.252   2.483  0.0297 -0.0872  0.0960
  416W        W 1413   0.574   4.545   0.849  0.0212  0.2452  0.0313
  417W        W 1414   1.089   3.976   3.160 -0.2467  0.4497  0.3014
  418W        W 1415   5.357   2.878   0.211  0.1826  0.1462 -0.0537
  419W        W 1416   3.562   5.874   6.057 -0.0851  0.0553  0.1127
  420W        W 1417   4.364   5.571   6.133  0.2838 -0.2314  0.0313
  421W        W 1418   1.944   7.497   6.872 -0.1014 -0.2154 -0.0660
  422W        W 1419   5.312   1.923   4.670  0.0036 -0.0671 -0.1107
  423W        W 1420   5.557   2.069   1.798 -0.4035 -0.0143 -0.1113
  424W        W 1421   4.641   1.301   6.232 -0.0032 -0.0026  0.0397
  425W        W 1422   7.121   1.923   4.519 -0.2203  0.1411  0.2782
  426W        W 1423   5.745   3.777   1.880  0.1553  0.1980  0.3958
  427W        W 1424   3.335   0.271   4.559  0.0693  0.2127  0.4041
  428W        W 1425   4.065   5.042   4.034 -0.1490 -0.1701 -0.0720
  429W        W 1426   1.649   5.771   0.597 -0.1219  0.0635  0.0652
  430W        W 1427   7.590   4.080   7.234  0.1152 -0.0227  0.1109
  431W        W 1428   3.181   4.127   6.027  0.2087 -0.1551 -0.3919
  432W        W 1429   2.441   3.347   6.126 -0.1990  0.1963 -0.0289
  433W        W 1430   3.856   0.420   0.769 -0.3952  0.1655 -0.0475
  434W        W 1431   2.120   7.165   5.400 -0.1281 -0.0071  0.0684
  435W        W 1432   5.544   6.797   2.313  0.1096 -0.0896 -0.0618
  436W        W 1433   3.681   7.141   5.579  0.0209 -0.0873  0.2591
  437W        W 1434   6.060   3.782   1.035 -0.2479  0.1207  0.2382
  438W        W 1435   5.689   3.533   2.341  0.0469 -0.2212 -0.2456
  439W        W 1436   4.752   1.130   5.427 -0.3444 -0.1262  0.1041
  440W        W 1437   6.175   5.115   3.687  0.0955  0.0105 -0.0667
  441W        W 1438   5.521   1.935   4.182 -0.2039  0.1507 -0.2618
  442W        W 1439   0.421   0.327   6.592  0.0857 -0.0216 -0.3253
  443W        W 1440   4.870   0.379   1.039 -0.0927  0.0500 -0.3653
  444W        W 1441   2.729   6.846   7.362  0.0809 -0.2752 -0.4013
  445W        W 1442   6.387   6.490   2.246  0.0539  0.1802 -0.1548
  446W        W 1443   0.567   4.640   1.663 -0.0548  0.1709 -0.0483
  447W        W 1444   3.265   2.213   4.462 -0.3449  0.1664 -0.0888
  448W        W 1445   6.749   4.430   1.927 -0.0396  0.0422 -0.2756
  449W        W 1446   1.679   4.150   7.018  0.0423 -0.1820  0.0779
  450W        W 1447   1.264   4.477   7.286 -0.1609  0.0174  0.0539
  451W        W 1448   3.758   2.110   5.538  0.1563  0.0872 -0.1048
  452W        W 1449   2.271   6.581   5.421 -0.1512  0.1760 -0.2692
  453W        W 1450   6.051   7.242   6.076 -0.0176  0.2899 -0.1485
  454W        W 1451   3.773   4.171   6.957  0.0338 -0.0180 -0.0902
  455W        W 1452   1.132   5.480   2.837  0.1639  0.0078 -0.1272
  456W        W 1453   1.318   4.053   5.116  0.1879  0.2016  0.0634
  457W        W 1454   5.598   1.793   6.254  0.0925  0.0931  0.0186
  458W        W 1455   5.623   3.377   7.189 -0.3334  0.0578 -0.2515
  459W        W 1456   1.018   5.750   2.265  0.1742 -0.2282 -0.0755
  460W        W 1457   3.522   0.717   6.768 -0.0491  0.3485 -0.0026
  461W        W 1458   7.045   6.517   1.882 -0.0683 -0.2262 -0.1272
  462W        W 1459   2.498   4.864   6.123 -0.1448  0.1073 -0.0164
  463W        W 1460   3.497   6.030   2.287  0.3968 -0.2674 -0.1713
  464W        W 1461   4.192   7.148   0.832  0.3538  0.1799  0.1755
  465W        W 1462   4.787   0.788   3.603 -0.4113  0.1608 -0.0224
  466W        W 1463   0.218   6.040   3.276 -0.2929 -0.1851  0.0780
  467W        W 1464   2.195   7.099   4.609  0.0178  0.3306  0.3876
  468W        W 1465   2.985   4.119   6.492 -0.4305  0.1046 -0.0701
  469W        W 1466   6.272   2.579   5.881  0.2070  0.1264  0.0539
  470W        W 1467   1.386   3.702   6.235  0.0320 -0.3168  0.4001
  471W        W 1468   6.380   6.796   1.804  0.0885  0.1447  0.0896
  472W        W 1469   2.385   4.188   4.367 -0.0075  0.2119 -0.0588
  473W        W 1470   7.043   4.629   1.562  0.0940  0.2941 -0.2375
  474W        W 1471   4.193   0.824   0.571  0.0186  0.1563  0.0136
  475W        W 1472   5.236   5.436   0.257  0.1371  0.2832  0.0376
  476W        W 1473   7.606   4.390   1.126 -0.2178  0.2358 -0.2110
  477W        W 1474   1.671   5.273   5.001  0.0091 -0.1081 -0.1056
  478W        W 1475   7.355   5.315   3.671 -0.0292 -0.0593  0.0372
  479W        W 1476   5.342   5.924   4.899 -0.1211 -0.1232  0.1379
  480W        W 1477   0.481   1.206   4.082  0.1152  0.2277  0.0816
  481W        W 1478   6.617   2.292   2.308 -0.0979 -0.3308  0.1146
  482W        W 1479   7.220   3.069   0.303 -0.0683  0.3976  0.2664
  483W        W 1480   7.423   1.740   2.624  0.0505 -0.1112  0.0393
  484W        W 1481   0.452   2.398   7.039 -0.1799 -0.0599 -0.0281
  485W        W 1482   2.376   4.135   3.279  0.2073 -0.2366  0.2109
  486W        W 1483   3.140   7.566   5.659  0.0057 -0.0326  0.0837
  487W        W 1484   5.520   6.692   1.832  0.0022  0.1475  0.1559
  488W        W 1485   7.339   5.531   0.978  0.2748 -0.3084 -0.0483
  489W        W 1486   2.396   3.533   3.776  0.0120 -0.0155 -0.2963
  490W        W 1487   7.143   3.138   1.228  0.0072 -0.0766  0.1766
  491W        W 1488   6.812   1.329   5.066  0.3099 -0.0377 -0.0890
  492W        W 1489   0.799   4.733   1.245 -0.0118 -0.1822  0.0938
  493W        W 1490   6.530   3.845   5.926  0.0390 -0.0550  0.2693
  494W        W 1491   3.882   1.232   5.814  0.0643 -0.1892  0.1197
  495W        W 1492   1.673   6.060   5.645  0.1686 -0.2829  0.1537
  496W        W 1493   5.413   3.299   7.651  0.1430 -0.0118 -0.3518
  497W        W 1494   2.651   6.819   1.339  0.0666 -0.3016  0.0137
  498W        W 1495   6.944   4.750   5.441  0.1215  0.2261  0.3436
  499W        W 1496   5.289   6.394   4.762  0.2786 -0.2595  0.0460
  500W        W 1497   5.590   5.182   1.626  0.1406  0.0577  0.2488
  501W        W 1498   0.586   7.510   3.995 -0.0145 -0.1861  0.1163
  502W        W 1499   3.198   4.706   2.359 -0.0169  0.3651 -0.0259
  503W        W 1500   6.887   0.126   5.071 -0.2016 -0.0887  0.0295
  504W        W 1501   5.435   1.086   4.410  0.0044 -0.1245  0.1427
  505W        W 1502   2.702   0.375   4.453  0.0202 -0.1408  0.0922
  506W        W 1503   2.533   4.053   6.723  0.3514 -0.1764  0.0756
  507W        W 1504   5.549   4.342   4.442  0.2588 -0.0019  0.1395
  508W        W 1505   6.567   6.141   4.944  0.1557 -0.1799 -0.3040
  509W        W 1506   5.027   1.969   3.076  0.5620 -0.2267  0.0679
  510W        W 1507   2.631   0.426   6.899 -0.2972 -0.0865 -0.2278
  511W        W 1508   5.416   5.800   0.544  0.0829 -0.2661 -0.2176
  512W        W 1509   2.619   6.184   5.224  0.1064 -0.0121 -0.2145
  513W        W 1510   1.151   1.924   4.498 -0.1327  0.0284  0.2793
  514W        W 1511   2.477   0.512   3.329 -0.2340 -0.2740  0.0414
  515W        W 1512   2.169   6.008   6.173 -0.1281  0.0453  0.0100
  516W        W 1513   6.587   5.111   6.263 -0.0705 -0.3035 -0.2121
  517W        W 1514   3.594   1.935   6.373  0.0478 -0.2280  0.1728
  518W        W 1515   7.521   6.570   4.910 -0.0397 -0.3148  0.1082
  519W        W 1516   3.440   7.572   1.744 -0.0980 -0.4210  0.0457
  520W        W 1517   5.559   0.853   6.750  0.0624  0.1366 -0.1113
  521W        W 1518   3.179   6.896   1.333 -0.0178  0.1324  0.0542
  522W        W 1519   4.513   2.457   5.414  0.2424 -0.0834 -0.0483
  523W        W 1520   2.021   3.002   6.215 -0.0721 -0.1824  0.0897
  524W        W 1521   4.753   3.313   3.286 -0.0101 -0.0509  0.2859
  525W        W 1522   7.045   5.107   4.396  0.0406 -0.2186 -0.1313
  526W        W 1523   0.093   0.622   2.849  0.2366  0.1901 -0.0298
  527W        W 1524   0.942   0.350   3.121  0.2198  0.2026  0.0810
  528W        W 1525   6.300   1.709   3.705  0.1544 -0.1617  0.0238
  529W        W 1526   1.084   2.335   4.254 -0.0271 -0.1076 -0.0868
  530W        W 1527   1.717   3.911   4.682  0.1444 -0.0531 -0.1187
  531W        W 1528   7.306   5.473   4.215  0.2500  0.0122  0.0559
  532W        W 1529   7.169   2.937   5.995 -0.0563 -0.1472 -0.1307
  533W        W 1530   1.104   6.783   1.199 -0.1008  0.3253 -0.1674
  534W        W 1531   6.487   1.255   6.138 -0.1259  0.0735 -0.0300
  535W        W 1532   4.259   0.197   3.905 -0.1177  0.1055 -0.0855
  536W        W 1533   4.169   7.207   6.588 -0.0349 -0.3290 -0.2485
  537W        W 1534   4.953   5.772   1.513 -0.0621 -0.0238 -0.2608
  538W        W 1535   0.983   4.468   6.418 -0.0445  0.3594  0.1565
  539W        W 1536   6.599   7.382   3.211  0.4043 -0.0167  0.1816
  540W        W 1537   0.787   5.759   5.600  0.0665 -0.0133  0.0342
  541W        W 1538   3.333   6.269   7.582  0.1192  0.1497 -0.2882
  542W        W 1539   4.002   6.368   4.939  0.0356  0.2357 -0.1154
  543W        W 1540   2.281   6.101   3.197  0.0554  0.0124 -0.2533
  544W        W 1541   5.712   4.052   1.231 -0.0128 -0.3290  0.0831
  545W        W 1542   7.409   7.033   5.005 -0.3041  0.0035  0.1839
  546W        W 1543   0.001   6.238   6.928  0.0827  0.2304 -0.1252
  547W        W 1544   4.558   6.423   6.833  0.0233 -0.0154  0.1753
  548W        W 1545   1.879   6.992   6.913 -0.0764 -0.0930  0.3466
  549W        W 1546   0.271   5.637   1.332  0.1642  0.0871 -0.1044
  550W        W 1547   6.419   0.312   1.048 -0.0011 -0.1107 -0.0595
  551W        W 1548   0.354   1.062   6.558  0.1789  0.2123 -0.2289
  552W        W 1549   5.455   2.349   3.043  0.0018 -0.1059  0.0671
  553W        W 1550   7.591   2.983   1.069 -0.1550  0.2577 -0.0763
  554W        W 1551   5.352   6.601   7.227  0.2851  0.1820 -0.1939
  555W        W 1552   1.561   6.132   5.163  0.0857  0.0175  0.3024
  556W        W 1553   2.247   5.838   7.516  0.1575 -0.1409  0.0255
  557W        W 1554   6.752   7.632   1.008 -0.1804 -0.0549  0.0319
  558W        W 1555   0.562   4.215   6.500 -0.2684 -0.0914  0.1142
  559W        W 1556   4.555   4.017   1.240 -0.0154 -0.1267 -0.1304
  560W        W 1557   0.485   2.614   4.677  0.0048  0.1263 -0.0572
  561W        W 1558   2.769   4.933   0.505  0.3440  0.0043 -0.0731
  562W        W 1559   2.727   7.220   5.811 -0.0892  0.1483  0.2897
  563W        W 1560   4.139   6.179   6.947 -0.0608 -0.1523  0.2220
  564W        W 1561   1.253   1.415   6.301  0.0628 -0.2223  0.1948
  565W        W 1562   3.964   6.917   0.448 -0.2826  0.0703 -0.0861
  566W        W 1563   5.993   1.165   4.560 -0.1719 -0.1639  0.0656
  567W        W 1564   6.745   3.857   2.194 -0.1317  0.3057  0.1723
  568W        W 1565   3.693   2.034   4.725 -0.0517 -0.0363 -0.1115
  569W        W 1566   3.221   7.194   4.762 -0.1044 -0.0982  0.0407
  570W        W 1567   1.260   7.478   0.209 -0.0547  0.3438 -0.1292
  571W        W 1568   5.933   5.234   4.216  0.1250  0.2440  0.0488
  572W        W 1569   6.810   2.591   2.719  0.1289 -0.1645 -0.2695
  573W        W 1570   2.241   6.473   0.262 -0.0698  0.2918  0.0277
  574W        W 1571   0.259   6.883   4.695 -0.1995  0.1174  0.1587
  575W        W 1572   2.280   2.612   5.975 -0.0941 -0.1842  0.0071
  576W        W 1573   2.801   6.385   4.571  0.2290 -0.1488 -0.0173
  577W        W 1574   6.971   0.512   3.564 -0.1424  0.2231  0.1245
  578W        W 1575   5.036   3.449   0.978 -0.0960  0.2516 -0.1008
  579W        W 1576   1.149   4.421   0.929 -0.0503  0.1156  0.1270
  580W        W 1577   0.678   6.983   3.040  0.0679 -0.0402 -0.2266
  581W        W 1578   6.855   4.859   0.384 -0.1859 -0.0426 -0.0155
  582W        W 1579   3.901   5.549   6.928 -0.1914  0.0634 -0.0688
  583W        W 1580   5.341   1.095   5.624  0.2139  0.0143 -0.0175
  584W        W 1581   1.549   5.089   1.552 -0.1536 -0.4121 -0.2234
  585W        W 1582   4.786   1.281   4.882  0.0284  0.0457 -0.0512
  586W        W 1583   4.108   6.681   3.463 -0.2744 -0.0649 -0.1398
  587W        W 1584   5.532   3.332   2.832 -0.0040 -0.2191  0.2701
  588W        W 1585   6.614   3.387   5.414 -0.0275  0.1430 -0.1095
  589W        W 1586   0.912   5.240   2.391 -0.0784 -0.3937 -0.1757
  590W        W 1587   4.481   3.796   7.590 -0.2041  0.1989 -0.1123
  591W        W 1588   5.584   2.665   6.457  0.0566 -0.1935 -0.0225
  592W        W 1589   6.106   7.415   7.075  0.6353  0.0305 -0.2558
  593W        W 1590   1.722   7.510   3.524  0.2105 -0.2803 -0.2343
  594W        W 1591   5.033   6.564   3.862  0.3489  0.1007 -0.0430
  595W        W 1592   2.112   6.874   4.079 -0.0478  0.0035 -0.1133
  596W        W 1593   1.355   0.038   6.373  0.1483 -0.1361  0.0859
  597W        W 1594   1.812   3.143   5.014  0.0329  0.2048  0.2725
  598W        W 1595   5.755   2.566   5.974  0.0719 -0.0596  0.0301
  599W        W 1596   4.870   1.410   0.027  0.1446  0.1677 -0.0344
  600W        W 1597   2.916   1.817   4.357  0.3011  0.1824  0.1649
  601W        W 1598   3.298   4.798   6.805  0.0682  0.0399 -0.1363
  602W        W 1599   1.535   7.297   6.671  0.0274  0.2189 -0.1852
  603W        W 1600   2.549   6.343   7.468 -0.0636 -0.3114 -0.1297
  604W        W 1601   6.731   5.170   2.496 -0.0625 -0.1221  0.4669
  605W        W 1602   0.786   2.265   6.135 -0.2209 -0.0270 -0.4700
  606W        W 1603   5.610   0.808   7.600  0.0366  0.1113 -0.2709
  607W        W 1604   2.895   6.441   1.109  0.1043 -0.0407 -0.1700
  608W        W 1605   4.466   2.263   4.239 -0.1851 -0.0653 -0.1079
  609W        W 1606   6.532   7.308   7.405 -0.1371 -0.0721 -0.0506
  610W        W 1607   2.332   5.180   3.387  0.4289  0.0579  0.0928
  611W        W 1608   1.380   7.546   3.095 -0.1193 -0.3860 -0.0283
  612W        W 1609   3.722   1.362   4.758  0.0288 -0.1244 -0.0065
  613W        W 1610   5.721   0.848   5.437  0.2933  0.2924 -0.1158
  614W        W 1611   7.383   4.163   1.532 -0.2349  0.0309  0.3178
  615W        W 1612   7.146   7.348   5.548 -0.2129 -0.0937 -0.3195
  616W        W 1613   6.279   5.511   2.210 -0.2730 -0.1869 -0.0949
  617W        W 1614   4.518   6.093   0.133  0.1465 -0.2758 -0.0042
  618W        W 1615   3.752   6.527   6.504 -0.3687  0.0059 -0.1053
  619W        W 1616   3.110   2.621   5.907 -0.0806  0.2518  0.0470
  620W        W 1617   6.371   5.003   4.178 -0.1212 -0.0140 -0.1951
  621W        W 1618   6.939   4.048   4.697 -0.1456 -0.3654  0.1560
  622W        W 1619   7.403   1.206   2.404 -0.2139 -0.1214  0.0137
  623W        W 1620   0.646   3.772   4.069 -0.2078  0.0553  0.2211
  624W        W 1621   5.069   7.070   7.666 -0.1110  0.2244 -0.0753
  625W        W 1622   6.918   5.519   3.336 -0.2308  0.0100  0.0416
  626W        W 1623   0.659   6.248   1.732  0.3462  0.2203  0.2506
  627W        W 1624   0.142   3.635   3.118  0.1419  0.1664 -0.2598
  628W        W 1625   4.178   1.311   4.316 -0.0417 -0.0022  0.0336
  629W        W 1626   0.925   4.910   0.048 -0.3261  0.1516  0.1599
  630W        W 1627   4.560   1.089   3.308  0.1319  0.1980 -0.0424
  631W        W 1628   5.830   2.050   4.575 -0.0633  0.2205  0.3154
  632W        W 1629   5.551   2.656   1.027  0.0235  0.1340  0.1516
  633W        W 1630   6.912   0.961   4.683  0.0096 -0.1590  0.1304
  634W        W 1631   4.264   0.787   3.012  0.0076  0.2174  0.3567
  635W        W 1632   5.714   0.186   4.722 -0.0166  0.0353  0.0700
  636W        W 1633   0.898   1.518   7.385 -0.0709  0.2185  0.1051
  637W        W 1634   4.247   4.081   0.864  0.1692 -0.0305 -0.0844
  638W        W 1635   6.275   6.350   6.867  0.0896  0.1943  0.0296
  639W        W 1636   4.081   2.054   5.128  0.0322  0.0873  0.1182
  640W        W 1637   3.420   1.398   3.964  0.0036 -0.0991 -0.3823
  641W        W 1638   3.419   7.343   3.639 -0.0022  0.2242  0.0934
  642W        W 1639   4.502   0.303   6.367  0.1191  0.0835  0.1664
  643W        W 1640   1.284   5.031   3.581 -0.1308 -0.0680  0.1375
  644W        W 1641   2.327   4.914   4.746 -0.0142  0.2554 -0.0147
  645W        W 1642   3.727   3.794   6.559 -0.0941  0.0209 -0.0967
  646W        W 1643   3.777   4.611   1.402  0.1418 -0.1797 -0.0023
  647W        W 1644   0.494   5.674   3.726 -0.2177 -0.0940  0.0131
  648W        W 1645   4.414   5.251   4.419 -0.0098  0.0939  0.1318
  649W        W 1646   5.775   0.458   0.429  0.0304 -0.2372 -0.2640
  650W        W 1647   4.897   6.572   0.333  0.1167 -0.1145  0.0071
  651W        W 1648   5.139   0.067   4.652  0.1358  0.0411  0.2291
  652W        W 1649   3.730   1.146   3.018  0.0286  0.2502 -0.0049
  653W        W 1650   4.848   6.748   5.316 -0.1239  0.0047  0.1410
  654W        W 1651   2.679   2.236   5.184  0.2442  0.1433 -0.1427
  655W        W 1652   0.505   2.150   6.596  0.1424  0.0899 -0.2573
  656W        W 1653   7.579   5.693   1.640 -0.1314 -0.1619  0.2944
  657W        W 1654   0.266   3.575   0.688  0.1105  0.0840 -0.0680
  658W        W 1655   1.404   0.574   4.796  0.2939  0.2954  0.0713
  659W        W 1656   1.546   1.459   5.282 -0.1318  0.1695  0.0145
  660W        W 1657   7.470   7.516   0.517 -0.1867  0.0102  0.0670
  661W        W 1658   3.924   4.358   2.762 -0.0409 -0.0682 -0.0530
  662W        W 1659   6.301   7.390   4.521 -0.1443 -0.3523  0.1757
  663W        W 1660   2.116   0.734   5.262 -0.0755  0.4896 -0.2054
  664W        W 1661   2.762   5.035   7.153  0.1372 -0.1470 -0.0725
  665W        W 1662   2.572   6.457   6.926 -0.0570  0.1980 -0.1890
  666W        W 1663   1.489   5.088   5.969  0.0518 -0.0581 -0.0455
  667W        W 1664   1.705   4.342   0.434  0.0357  0.2475  0.0887
  668W        W 1665   3.617   4.433   2.332  0.2266 -0.3872 -0.1774
  669W        W 1666   6.085   6.334   4.247  0.4118  0.3613  0.1383
  670W        W 1667   6.041   1.933   1.610  0.1915  0.1969 -0.1404
  671W        W 1668   3.651   5.459   2.827  0.1798 -0.0781 -0.3371
  672W        W 1669   2.667   4.836   1.229 -0.0781 -0.2547 -0.2144
  673W        W 1670   0.094   3.138   3.364  0.2853 -0.0047 -0.3017
  674W        W 1671   0.901   4.260   2.262  0.0451 -0.1358  0.1847
  675W        W 1672   6.921   6.883   5.670  0.2241 -0.0083  0.1235
  676W        W 1673   7.559   3.654   5.454  0.0101 -0.3013 -0.0909
  677W        W 1674   7.235   1.457   0.766  0.1115 -0.0693  0.1220
  678W        W 1675   0.068   2.138   7.133 -0.0193  0.2208 -0.1216
  679W        W 1676   1.249   3.676   5.405 -0.0123 -0.2613  0.1609
  680W        W 1677   0.605   4.039   5.248  0.0393 -0.0041  0.2680
  681W        W 1678   4.089   7.069   7.624 -0.0153  0.4080  0.1387
  682W        W 1679   1.788   6.401   2.272 -0.3113 -0.1887 -0.0301
  683W        W 1680   1.896   7.478   6.326 -0.0463  0.0959 -0.0257
  684W        W 1681   3.103   5.772   3.423 -0.0212 -0.1817 -0.0472
  685W        W 1682   1.087   7.119   7.562 -0.2660 -0.0096 -0.1905
  686W        W 1683   4.898   3.692   1.720 -0.1127  0.1038  0.1340
  687W        W 1684   1.076   5.734   3.570 -0.0621 -0.1979 -0.3560
  688W        W 1685   6.542   7.066   6.447 -0.1559 -0.2203  0.3978
  689W        W 1686   4.615   4.384   4.005 -0.0957 -0.2294 -0.1312
  690W        W 1687   0.199   6.544   4.285  0.2072  0.3599 -0.0696
  691W        W 1688   5.020   7.536   0.198  0.2754 -0.0301  0.0058
  692W        W 1689   0.332   3.644   5.081  0.0233 -0.0107  0.1762
  693W        W 1690   7.223   3.868   1.961  0.0139 -0.0787  0.4418
  694W        W 1691   4.214   1.513   6.110 -0.2336 -0.0962  0.2800
  695W        W 1692   2.240   3.983   6.304  0.1868 -0.0790  0.3435
  696W        W 1693   4.670   6.844   7.072 -0.0500  0.1066 -0.1434
  697W        W 1694   6.030   4.890   6.127  0.1423  0.0868 -0.0051
  698W        W 1695   4.368   3.741   1.656 -0.0693  0.0141  0.1326
  699W        W 1696   1.814   4.384   6.388  0.0552 -0.0573  0.1302
  700W        W 1697   3.349   4.439   4.135 -0.1065 -0.0226 -0.0016
  701W        W 1698   4.695   0.933   2.437  0.0132  0.0838 -0.0850
  702W        W 1699   5.335   0.661   3.000  0.1649  0.0719 -0.0416
  703W        W 1700   5.730   6.912   5.777  0.0653  0.2761 -0.0635
  704W        W 1701   4.036   4.720   2.422  0.5182  0.0555 -0.1579
  705W        W 1702   6.799   1.562   7.021 -0.1364 -0.0047 -0.1178
  706W        W 1703   5.061   2.538   7.412 -0.1801 -0.1436  0.0379
  707W        W 1704   3.584   2.385   5.082 -0.1807 -0.0045  0.3869
  708W        W 1705   6.633   0.171   7.475  0.2663  0.0056 -0.2604
  709W        W 1706   4.510   1.009   1.441 -0.0397 -0.1521  0.0868
  710W        W 1707   7.207   1.477   1.628 -0.3736 -0.2664  0.0921
  711W        W 1708   3.093   2.611   4.259  0.2449 -0.1470 -0.1580
  712W        W 1709   7.025   0.170   6.801 -0.0877 -0.0702  0.0814
  713W        W 1710   5.166   4.533   7.619  0.2405 -0.1977 -0.0332
  714W        W 1711   7.222   1.460   5.726 -0.0273  0.1489  0.0323
  715W        W 1712   6.058   0.850   1.269  0.0383  0.0775  0.3310
  716W        W 1713   7.658   4.612   5.071  0.1846 -0.2738 -0.0160
  717W        W 1714   2.088   6.603   3.360  0.0216  0.2450  0.0097
  718W        W 1715   5.967   3.367   1.935  0.0158 -0.0368 -0.0694
  719W        W 1716   0.949   0.642   5.686  0.2782  0.0662 -0.0278
  720W        W 1717   7.144   5.694   1.372 -0.0268 -0.0931 -0.0270
  721W        W 1718   4.045   6.230   7.587 -0.1108 -0.1941 -0.2297
  722W        W 1719   5.028   0.623   2.281  0.3944 -0.2098 -0.2270
  723W        W 1720   0.245   4.791   4.109  0.2398  0.0698 -0.1005
  724W        W 1721   6.025   5.410   5.166 -0.1842  0.1249  0.0731
  725W        W 1722   3.952   5.204   3.142 -0.2371  0.0199 -0.1964
  726W        W 1723   1.739   0.423   5.351 -0.1454  0.3596 -0.2728
  727W        W 1724   4.646   6.799   2.600 -0.0723 -0.1987 -0.2013
  728W        W 1725   6.713   3.887   3.865 -0.0394 -0.4024  0.2176
  729W        W 1726   1.319   6.320   0.437 -0.0156 -0.0351 -0.1353
  730W        W 1727   7.500   5.046   0.699 -0.2874 -0.0228  0.0912
  731W        W 1728   5.572   1.315   2.795  0.0516 -0.3100 -0.2396
  732W        W 1729   5.366   5.888   1.142  0.2070 -0.0294  0.4533
  733W        W 1730   3.909   5.281   5.945 -0.0382  0.1683  0.1580
  734W        W 1731   0.488   0.636   4.829  0.1528 -0.1434 -0.0477
  735W        W 1732   5.560   4.120   6.792  0.2140  0.0713  0.2471
  736W        W 1733   7.017   0.285   2.119  0.0494 -0.1268 -0.0229
  737W        W 1734   2.496   3.393   4.261 -0.1874 -0.1802  0.1251
  738W        W 1735   3.433   5.432   5.337 -0.1187  0.3575  0.1058
  739W        W 1736   6.841   1.755   6.081 -0.0511  0.0409 -0.1400
  740W        W 1737   3.238   5.230   4.442  0.0109  0.1900 -0.0809
  741W        W 1738   4.274   4.985   3.537  0.0520 -0.2337  0.0788
  742W        W 1739   7.159   0.191   7.439 -0.0253  0.0150  0.2469
  743W        W 1740   3.886   5.461   6.402 -0.0332 -0.1901 -0.0426
  744W        W 1741   5.944   6.825   2.035 -0.1010 -0.0109 -0.3147
  745W        W 1742   3.317   5.654   4.779 -0.2011 -0.0484 -0.1553
  746W        W 1743   6.719   2.440   1.822 -0.1409 -0.1540 -0.0104
  747W        W 1744   7.470   7.330   4.181  0.1360  0.1503 -0.1686
  748W        W 1745   0.487   3.420   2.236 -0.0134 -0.0104  0.2432
  749W        W 1746   3.516   4.168   5.637 -0.0723  0.1138 -0.2411
  750W        W 1747   3.316   6.780   1.829  0.1814 -0.3659  0.1277
  751W        W 1748   6.492   1.131   7.618  0.2986 -0.0745 -0.1789
  752W        W 1749   0.582   1.330   6.911  0.1822 -0.0853  0.0160
  753W        W 1750   7.611   2.154   4.464 -0.0046 -0.3251  0.1108
  754W        W 1751   5.723   3.446   4.138  0.1715 -0.0865  0.1973
  755W        W 1752   1.844   4.098   5.983  0.3771  0.0875 -0.2363
  756W        W 1753   4.533   7.252   2.777 -0.1012 -0.2036  0.1017
  757W        W 1754   1.688   4.645   4.265 -0.0528  0.0251 -0.0207
  758W        W 1755   2.141   0.395   6.920  0.0120  0.1287  0.0099
  759W        W 1756   2.519   3.269   4.766 -0.2635 -0.3952 -0.3034
  760W        W 1757   6.871   2.669   4.771 -0.2042  0.0700  0.2011
  761W        W 1758   6.207   1.254   7.132  0.1218 -0.1922 -0.1853
  762W        W 1759   7.072   7.069   2.680  0.0606 -0.1939  0.1569
  763W        W 1760   6.822   6.370   7.093 -0.2908 -0.0204 -0.1743
  764W        W 1761   4.180   6.043   3.602  0.2907  0.1010 -0.3068
  765W        W 1762   0.908   0.008   7.309 -0.2018  0.2965 -0.1709
  766W        W 1763   4.631   0.752   1.949  0.0510  0.2858 -0.0227
  767W        W 1764   2.285   5.664   3.415 -0.0892  0.2639  0.0470
  768W        W 1765   5.632   7.476   1.916 -0.1733  0.3411  0.0287
  769W        W 1766   3.577   3.446   4.027 -0.0771 -0.1825 -0.2704
  770W        W 1767   2.703   6.688   0.145  0.0129  0.1020 -0.2702
  771W        W 1768   2.051   1.838   5.444  0.1985  0.0007 -0.0783
  772W        W 1769   7.019   3.807   6.014  0.1190 -0.4060 -0.0114
  773W        W 1770   2.284   7.456   5.971  0.0344  0.0307  0.2919
  774W        W 1771   0.768   5.964   0.542  0.2258  0.1144  0.0362
  775W        W 1772   0.971   6.319   2.302  0.0586 -0.1025  0.1431
  776W        W 1773   2.774   4.394   5.965 -0.2098  0.3540 -0.0032
  777W        W 1774   5.397   2.475   0.529  0.1252 -0.1426 -0.0658
  778W        W 1775   3.821   4.712   3.437 -0.0134  0.0027  0.2662
  779W        W 1776   1.522   5.972   3.636 -0.0140  0.0810 -0.1062
  780W        W 1777   1.387   3.601   6.725 -0.0875 -0.1029  0.0489
  781W        W 1778   2.974   1.292   4.372  0.0240  0.0054 -0.0336
  782W        W 1779   7.341   0.952   1.691  0.3596 -0.1300  0.4314
  783W        W 1780   1.160   2.250   5.191 -0.2612 -0.0545 -0.0748
  784W        W 1781   5.798   1.567   4.879  0.2641  0.2499  0.1372
  785W        W 1782   5.857   4.296   0.225 -0.0307 -0.2771  0.0833
  786W        W 1783   6.552   6.276   1.869  0.0900 -0.2239 -0.0282
  787W        W 1784   2.556   0.556   3.987 -0.0035  0.1091  0.0944
  788W        W 1785   7.124   3.731   1.329 -0.2108 -0.4474 -0.0589
  789W        W 1786   2.222   4.201   1.738 -0.3287 -0.0833  0.0452
  790W        W 1787   6.998   3.662   6.694 -0.1206 -0.1142 -0.1720
  791W        W 1788   1.071   6.771   2.838  0.0063  0.3261  0.2625
  792W        W 1789   4.932   5.068   4.223  0.1803  0.1237  0.1310
  793W        W 1790   4.847   6.307   5.122  0.1895  0.3402 -0.0892
  794W        W 1791   7.401   6.349   2.250 -0.1801 -0.0575  0.0643
  795W        W 1792   0.794   6.248   5.334  0.1850  0.0519  0.1503
  796W        W 1793   7.312   4.455   2.744 -0.2632  0.3903 -0.1534
  797W        W 1794   5.542   6.507   3.594 -0.1689 -0.0046 -0.0109
  798W        W 1795   5.675   6.254   5.034 -0.1953  0.0944  0.0020
  799W        W 1796   3.128   0.652   7.046 -0.2606 -0.1934 -0.2453
  800W        W 1797   7.178   2.350   1.652  0.0638 -0.1946 -0.0582
  801W        W 1798   5.141   1.916   6.851 -0.1802 -0.2408 -0.5068
  802W        W 1799   4.742   5.141   6.506 -0.0270 -0.1701 -0.1936
  803W        W 1800   5.496   5.003   0.403 -0.2260 -0.0745 -0.0212
  804W        W 1801   6.908   0.491   7.217  0.0748 -0.1541  0.0320
  805W        W 1802   4.795   1.322   3.694 -0.2672 -0.0998 -0.1470
  806W        W 1803   2.548   5.455   4.730  0.1132 -0.1181  0.1427
  807W        W 1804   7.212   7.215   3.727 -0.2176  0.0563 -0.0414
  808W        W 1805   1.499   5.296   4.432  0.0926 -0.2227  0.1298
  809W        W 1806   3.597   6.576   1.034  0.0880 -0.1042  0.0419
  810W        W 1807   0.451   4.553   4.936 -0.1519  0.0548  0.0848
  811W        W 1808   6.191   7.218   2.989 -0.1796  0.2307  0.2358
  812W        W 1809   7.442   6.100   0.616 -0.0511 -0.0282 -0.0903
  813W        W 1810   2.707   6.937   4.884  0.3406 -0.0529 -0.0621
  814W        W 1811   7.001   1.179   2.098  0.0475 -0.2166  0.4079
  815W        W 1812   7.196   5.833   4.622 -0.1721  0.0547  0.2620
  816W        W 1813   6.622   0.751   0.875 -0.1613 -0.0526  0.0518
  817W        W 1814   5.752   7.008   5.309 -0.0925  0.0725 -0.0146
  818W        W 1815   5.094   3.937   6.674 -0.1095 -0.0035 -0.1827
  819W        W 1816   5.692   5.557   4.801  0.1116 -0.1102 -0.0632
  820W        W 1817   6.695   0.590   6.740  0.1540  0.0786 -0.4512
  821W        W 1818   0.501   6.269   0.102  0.0297  0.2546 -0.0315
  822W        W 1819   0.058   3.302   6.134 -0.1268 -0.0924 -0.2001
  823W        W 1820   4.339   3.789   2.516  0.1291  0.2255  0.2047
  824W        W 1821   1.375   4.967   7.380  0.1121 -0.0773 -0.0712
  825W        W 1822   6.117   7.425   5.505  0.2850 -0.0397  0.1548
  826W        W 1823   4.817   3.811   7.153 -0.1307  0.3591 -0.0157
  827W        W 1824   4.038   4.406   4.798 -0.2271  0.0516  0.0821
  828W        W 1825   4.604   1.832   7.025 -0.1563  0.1241 -0.1179
  829W        W 1826   4.633   3.258   5.606 -0.0701  0.1357 -0.0983
  830W        W 1827   1.362   5.519   1.861 -0.1994 -0.1279  0.4504
  831W        W 1828   4.461   3.699   4.616  0.0403  0.1894  0.0576
  832W        W 1829   0.214   6.394   2.402  0.0111  0.1920  0.2766
  833W        W 1830   0.248   3.711   5.841 -0.0217  0.2850 -0.2022
  834W        W 1831   0.411   4.513   2.215  0.0989  0.1180  0.2386
  835W        W 1832   5.620   2.032   5.706  0.1923 -0.1339  0.1745
  836W        W 1833   0.634   5.580   7.213 -0.2300  0.3761  0.1092
  837W        W 1834   4.192   3.371   5.349 -0.5751 -0.2693 -0.4171
  838W        W 1835   5.316   7.143   5.474 -0.0216  0.0680  0.0727
  839W        W 1836   1.935   5.303   5.872  0.1211  0.0893 -0.0952
  840W        W 1837   4.572   0.097   0.253 -0.0830  0.0479  0.0164
  841W        W 1838   3.548   0.575   4.201 -0.0556  0.1529  0.1627
  842W        W 1839   1.073   3.927   2.599 -0.0349  0.0219 -0.4044
  843W        W 1840   3.696   7.643   4.833 -0.0554 -0.0709  0.0537
  844W        W 1841   4.069   2.664   6.318  0.0941 -0.0613  0.0210
  845W        W 1842   3.241   7.152   4.103 -0.1058  0.2308  0.2394
  846W        W 1843   6.511   5.077   5.165  0.1251  0.0846 -0.5416
  847W        W 1844   4.300   0.491   4.659  0.1233  0.3163  0.3305
  848W        W 1845   0.112   0.812   2.294  0.2385  0.4969 -0.1516
  849W        W 1846   3.150   4.359   1.947  0.2750  0.1823 -0.1769
  850W        W 1847   1.339   6.543   2.062  0.0829  0.0353 -0.2058
  851W        W 1848   5.690   4.467   7.141  0.1049 -0.1194 -0.1128
  852W        W 1849   5.950   7.364   3.582 -0.3918 -0.1690  0.2086
  853W        W 1850   2.413   4.716   3.238 -0.0262 -0.1009 -0.0596
  854W        W 1851   2.745   1.330   3.962 -0.3468  0.5167  0.2341
  855W        W 1852   7.574   6.151   2.848  0.1200 -0.1883 -0.1977
  856W        W 1853   3.186   3.957   4.211 -0.2085  0.0115 -0.1025
  857W        W 1854   5.484   6.777   3.112 -0.0463  0.1082  0.0922
  858W        W 1855   6.555   4.314   1.407 -0.0046 -0.1605  0.2417
  859W        W 1856   1.447   7.129   2.156  0.0998 -0.0093 -0.2398
  860W        W 1857   7.370   0.817   3.237 -0.1064  0.1769  0.0871
  861W        W 1858   2.068   5.204   5.372  0.1090  0.1136  0.1314
  862W        W 1859   7.205   2.339   7.205 -0.0574 -0.0582 -0.0930
  863W        W 1860   4.412   7.614   0.669  0.1379 -0.0914 -0.2733
  864W        W 1861   3.767   2.879   5.932  0.1005 -0.3068 -0.4235
  865W        W 1862   0.712   5.695   6.389  0.1365 -0.2731  0.0951
  866W        W 1863   5.011   0.374   0.506 -0.0043 -0.4322 -0.3212
  867W        W 1864   2.113   2.078   6.013  0.1677 -0.4879  0.1822
  868W        W 1865   4.986   0.416   3.350  0.0802 -0.1710  0.1988
  869W        W 1866   2.226   5.649   7.088 -0.1394 -0.2164 -0.0376
  870W        W 1867   5.916   2.359   0.821  0.0530  0.1710  0.1264
  871W        W 1868   2.937   0.490   4.939  0.0898 -0.1597 -0.0047
  872W        W 1869   5.258   5.996   7.334  0.3698  0.1445  0.1718
  873W        W 1870   7.485   5.847   3.803  0.1084 -0.2100  0.0168
  874W        W 1871   5.580   5.785   5.270  0.0424  0.3344  0.1800
  875W        W 1872   5.790   5.880   0.903 -0.1231  0.1603 -0.1319
  876W        W 1873   4.373   6.422   4.382 -0.0794  0.0826 -0.2317
  877W        W 1874   5.180   6.926   2.720 -0.1687  0.0846 -0.0597
  878W        W 1875   5.674   3.887   4.312  0.0443 -0.2910  0.0421
  879W        W 1876   1.343   5.967   7.006  0.0654  0.1934  0.0461
  880W        W 1877   6.809   2.989   0.064  0.0467 -0.0986 -0.0386
  881W        W 1878   2.079   7.405   0.839 -0.1358  0.1047 -0.0198
  882W        W 1879   6.412   7.527   2.509 -0.1700 -0.0450 -0.0509
  883W        W 1880   0.570   3.844   4.667  0.1452 -0.1035  0.0868
  884W        W 1881   6.273   0.822   0.313  0.1187 -0.3013  0.0904
  885W        W 1882   1.562   6.473   1.190 -0.1234 -0.2855 -0.0352
  886W        W 1883   6.429   1.590   7.370  0.0172 -0.3827 -0.1390
  887W        W 1884   3.916   5.114   2.091 -0.3476  0.1410 -0.0220
  888W        W 1885   4.330   6.222   1.327  0.0712 -0.1257  0.2003
  889W        W 1886   4.331   7.146   4.851 -0.1729  0.0491 -0.2276
  890W        W 1887   6.526   3.902   5.404  0.0922 -0.1964 -0.1767
  891W        W 1888   2.929   3.715   2.854  0.2768  0.1804  0.2579
  892W        W 1889   0.531   6.515   6.756 -0.0223  0.2470 -0.0235
  893W        W 1890   7.277   6.845   2.179  0.1023 -0.3594  0.0088
  894W        W 1891   7.314   6.298   1.337  0.0698  0.0214  0.1369
  895W        W 1892   6.130   1.773   0.145  0.3929 -0.1810 -0.2935
  896W        W 1893   3.768   2.842   3.350  0.2381 -0.0030  0.0921
  897W        W 1894   5.696   6.277   1.338 -0.0002  0.1636 -0.0458
  898W        W 1895   2.843   4.999   4.702 -0.0386  0.1573 -0.2389
  899W        W 1896   5.392   6.707   0.468  0.2695 -0.0422  0.0674
  900W        W 1897   7.126   4.579   4.369 -0.1012 -0.1855 -0.3218
  901W        W 1898   4.401   4.084   2.900 -0.0777  0.1010  0.1019
  902W        W 1899   4.056   2.599   3.852  0.1932 -0.0294  0.1434
  903W        W 1900   6.453   0.383   1.766  0.3013 -0.3313  0.3848
  904W        W 1901   4.361   4.750   2.050  0.1862  0.0079  0.3584
  905W        W 1902   0.359   4.297   7.056 -0.3665  0.0540 -0.0172
  906W        W 1903   5.959   2.356   5.450 -0.2903 -0.0189  0.2595
  907W        W 1904   5.048   3.178   2.881  0.3356 -0.1710 -0.1274
  908W        W 1905   3.093   4.643   6.359 -0.0683 -0.0302  0.0757
  909W        W 1906   4.251   7.549   7.545 -0.0862 -0.0450 -0.1120
  910W        W 1907   1.442   3.576   7.233  0.3118 -0.0616  0.1145
  911W        W 1908   1.610   3.665   5.735 -0.0944 -0.0552  0.2891
  912W        W 1909   7.137   6.519   2.651 -0.0512 -0.1581  0.0880
  913W        W 1910   1.562   5.284   5.538 -0.1161 -0.1996  0.0765
  914W        W 1911   0.031   1.977   6.668 -0.0256  0.0560 -0.1329
  915W        W 1912   4.896   6.237   5.605  0.2426  0.0785 -0.0732
  916W        W 1913   3.619   3.679   4.497 -0.0132  0.2121  0.3094
  917W        W 1914   5.849   1.511   1.391 -0.0728  0.0782  0.1886
  918W        W 1915   3.446   4.377   6.586  0.0615  0.3078  0.0335
  919W        W 1916   3.040   0.673   6.178  0.1849  0.4089  0.0503
  920W        W 1917   4.285   7.279   0.343  0.0595 -0.0734 -0.1298
  921W        W 1918   5.243   5.843   6.847 -0.0001  0.0475  0.1492
  922W        W 1919   3.945   4.242   5.253 -0.1717 -0.0192  0.4248
  923W        W 1920   6.039   2.051   5.897  0.0360  0.1127  0.2082
  924W        W 1921   6.869   0.320   1.384  0.1069 -0.0762  0.0481
  925W        W 1922   6.201   0.589   5.361  0.1595 -0.2689  0.5051
  926W        W 1923   6.110   2.584   5.028  0.1725  0.4093 -0.0302
  927W        W 1924   6.570   5.531   7.614 -0.2088  0.0171  0.0835
  928W        W 1925   3.216   1.260   5.022 -0.3690 -0.1753  0.0443
  929W        W 1926   7.103   6.975   6.362 -0.0518 -0.3913 -0.2081
  930W        W 1927   0.097   0.212   1.183 -0.2207 -0.3298  0.4033
  931W        W 1928   2.173   6.665   7.152  0.0864  0.1128 -0.3637
  932W        W 1929   4.781   6.172   1.139  0.0481 -0.0081  0.1481
  933W        W 1930   4.544   5.394   7.253  0.1912 -0.1349 -0.0423
  934W        W 1931   7.595   0.496   0.045  0.0574  0.2392 -0.1747
  935W        W 1932   1.417   6.841   6.742  0.1910  0.1549  0.1791
  936W        W 1933   2.051   5.506   4.725 -0.1984  0.3333 -0.1899
  937W        W 1934   5.002   4.742   6.480  0.0666  0.2501 -0.4362
  938W        W 1935   5.891   6.713   1.503 -0.5714  0.0537 -0.0865
  939W        W 1936   0.126   6.848   2.112  0.0401 -0.2121 -0.0926
  940W        W 1937   3.108   0.427   6.609 -0.1478 -0.2085  0.0551
  941W        W 1938   4.997   5.122   7.165  0.0582  0.0801 -0.0990
  942W        W 1939   0.394   4.963   0.661  0.3288  0.1253 -0.0482
  943W        W 1940   4.697   7.603   4.863 -0.2240  0.1304  0.0646
  944W        W 1941   1.435   2.805   5.211 -0.0389  0.2092 -0.0583
  945W        W 1942   0.771   0.165   3.577 -0.0585  0.3687  0.0711
  946W        W 1943   4.316   6.675   1.047  0.2128  0.0157 -0.3072
  947W        W 1944   5.730   2.969   3.905 -0.2384 -0.2679 -0.1771
  948W        W 1945   6.209   6.998   5.627 -0.0913 -0.1002  0.4280
  949W        W 1946   1.277   2.453   5.940  0.1375  0.0408 -0.0564
  950W        W 1947   7.571   5.595   7.632  0.0400  0.1758  0.1184
  951W        W 1948   5.577   1.624   0.888 -0.0787 -0.0170  0.1957
  952W        W 1949   7.191   4.555   6.678  0.1278  0.1341 -0.3352
  953W        W 1950   4.173   1.249   2.924 -0.2577 -0.1499 -0.0405
  954W        W 1951   5.144   2.922   2.009  0.1403  0.0164  0.1439
  955W        W 1952   1.962   7.260   7.429  0.0767  0.1877  0.2108
  956W        W 1953   5.242   3.308   4.198  0.2450 -0.0175 -0.0865
  957W        W 1954   6.671   6.194   6.116 -0.0020 -0.0979  0.1871
  958W        W 1955   4.057   1.491   3.328  0.0680  0.0004 -0.0893
  959W        W 1956   3.014   0.729   4.449 -0.0153 -0.0213  0.2136
  960W        W 1957   6.925   2.506   3.315  0.1205  0.3388 -0.0561
  961W        W 1958   6.389   1.685   5.811  0.3579  0.3237 -0.1079
  962W        W 1959   1.244   4.899   1.180 -0.0211 -0.2074 -0.0955
  963W        W 1960   2.267   0.302   2.933  0.0434  0.3086  0.3486
  964W        W 1961   5.031   1.684   7.279 -0.0614  0.0930  0.0238
  965W        W 1962   3.418   4.740   1.922 -0.3923  0.2282  0.2285
  966W        W 1963   0.058   4.449   6.638  0.1602 -0.0179  0.3970
  967W        W 1964   3.238   2.181   5.388 -0.1971 -0.0216 -0.2159
  968W        W 1965   3.457   5.048   5.720  0.0838 -0.1390  0.0859
  969W        W 1966   0.258   0.153   1.754  0.0790 -0.2913  0.0069
  970W        W 1967   3.862   2.941   4.832  0.1821  0.0239 -0.5131
  971W        W 1968   5.258   7.222   0.492  0.0693  0.0341 -0.0943
  972W        W 1969   5.981   0.899   4.102 -0.1537 -0.1474  0.0706
  973W        W 1970   3.264   1.416   2.989  0.0940 -0.2583 -0.1503
  974W        W 1971   4.840   6.557   7.508  0.1912  0.0828  0.0636
  975W        W 1972   5.065   6.131   0.548  0.1441  0.1463  0.1751
  976W        W 1973   4.404   7.138   1.317 -0.1396  0.0891 -0.0085
  977W        W 1974   1.467   6.241   7.419  0.0848  0.1603 -0.2398
  978W        W 1975   3.898   4.600   1.883 -0.0853 -0.1507  0.1796
  979W        W 1976   1.330   4.618   3.860 -0.2409  0.2029  0.3526
  980W        W 1977   1.787   7.223   4.113 -0.1334  0.2035 -0.1530
  981W        W 1978   0.224   2.015   4.029  0.1408 -0.1894 -0.0297
  982W        W 1979   0.793   0.398   5.186  0.1348 -0.0850 -0.1053
  983W        W 1980   5.700   0.955   2.519 -0.0960  0.3440  0.3509
  984W        W 1981   4.219   6.465   1.794 -0.1516  0.3130 -0.2615
  985W        W 1982   6.151   5.330   6.334  0.0417 -0.0407  0.0917
  986W        W 1983   0.243   3.515   4.109 -0.1510 -0.0579  0.1022
  987W        W 1984   6.741   0.804   2.526  0.0442 -0.3157 -0.0689
  988W        W 1985   2.100   2.252   4.672 -0.0035 -0.0312  0.1024
  989W        W 1986   0.600   2.179   0.393  0.0038  0.2161  0.0861
  990W        W 1987   2.828   6.155   3.293  0.0150 -0.0554 -0.0125
  991W        W 1988   5.657   3.006   2.164  0.0922 -0.0920 -0.0142
  992W        W 1989   4.572   0.477   4.203  0.1838 -0.1491 -0.1714
  993W        W 1990   0.510   2.117   5.688  0.0980  0.3568  0.3378
  994W        W 1991   5.373   3.421   6.366 -0.3090  0.2320  0.3047
  995W        W 1992   0.952   1.342   5.827  0.1367 -0.2855 -0.5058
  996W        W 1993   7.504   4.301   0.123 -0.0483 -0.2960 -0.0255
  997W        W 1994   5.141   7.112   7.143 -0.0241  0.0823 -0.1008
  998W        W 1995   6.771   7.610   4.573 -0.0703 -0.4045 -0.0615
  999W        W 1996   7.619   2.467   4.907 -0.1810  0.0760  0.0306
 1000W        W 1997   3.420   6.249   6.797 -0.2743 -0.0319  0.1197
 1001W        W 1998   6.521   2.147   5.955 -0.1989 -0.1556 -0.1963
 1002W        W 1999   1.696   7.589   5.324  0.0041 -0.2021  0.1247
 1003W        W 2000   3.504   0.149   1.306  0.0948 -0.1023 -0.1076
 1004W        W 2001   3.327   2.912   5.040  0.2011 -0.0180  0.1271
 1005W        W 2002   4.877   2.793   5.523 -0.0084 -0.1653  0.2775
 1006W        W 2003   6.343   2.606   0.603 -0.2382 -0.4300 -0.2803
 1007W        W 2004   2.917   3.523   5.058  0.3066  0.2062 -0.3587
 1008W        W 2005   4.955   5.218   0.918 -0.0015  0.0844  0.0602
 1009W        W 2006   5.448   5.404   0.826 -0.1251 -0.1751  0.1204
 1010W        W 2007   3.574   2.357   3.122  0.1545  0.0799  0.0396
 1011W        W 2008   4.351   1.012   5.861  0.0247 -0.1662 -0.0789
 1012W        W 2009   1.917   6.587   4.490 -0.0299  0.1118 -0.0965
 1013W        W 2010   1.777   2.424   4.996  0.1205  0.0804 -0.0378
 1014W        W 2011   4.854   7.099   4.904 -0.1274 -0.1003  0.0897
 1015W        W 2012   4.262   1.819   2.983  0.0248 -0.2274 -0.1977
 1016W        W 2013   6.380   0.990   3.833  0.4418  0.0553 -0.2142
 1017W        W 2014   4.645   3.417   1.326 -0.0222 -0.1594  0.0108
 1018W        W 2015   0.520   3.971   3.131 -0.2517 -0.1882 -0.2423
 1019W        W 2016   6.605   6.422   0.986  0.0233  0.0546  0.1794
 1020W        W 2017   7.359   3.402   5.822  0.0454  0.1605  0.1992
 1021W        W 2018   1.581   5.603   6.736  0.2361 -0.0548 -0.2326
 1022W        W 2019   2.808   5.964   0.728 -0.1175 -0.0000  0.0712
 1023W        W 2020   6.574   4.745   3.717 -0.0868 -0.0920  0.1624
 1024W        W 2021   2.681   3.599   6.979 -0.1747 -0.1228 -0.0045
 1025W        W 2022   4.423   4.151   4.986  0.2349 -0.1386  0.2253
 1026W        W 2023   5.201   7.660   5.697 -0.0878 -0.0043  0.0415
 1027W        W 2024   1.124   5.074   5.049 -0.4491 -0.3810  0.2903
 1028W        W 2025   7.211   3.706   7.196 -0.0011  0.2680 -0.2168
 1029W        W 2026   3.252   6.881   2.657 -0.3427 -0.1610 -0.3382
 1030W        W 2027   1.617   5.971   1.454  0.0864  0.2608 -0.1248
 1031W        W 2028   6.959   1.397   2.572 -0.0866 -0.0985  0.0365
 1032W        W 2029   3.290   5.214   2.007 -0.0954 -0.0483 -0.0567
 1033W        W 2030   3.658   0.107   5.582 -0.0082 -0.1757  0.0554
 1034W        W 2031   4.163   4.693   3.054 -0.2104  0.0910 -0.4248
 1035W        W 2032   4.682   1.424   4.176 -0.3133 -0.2342  0.1466
 1036W        W 2033   3.683   6.422   1.850  0.1916 -0.1342 -0.2126
 1037W        W 2034   4.734   5.267   2.632 -0.0904  0.3104 -0.2535
 1038W        W 2035   5.389   2.487   5.629 -0.1311  0.1514  0.0874
 1039W        W 2036   6.778   4.527   0.023 -0.1663  0.2036 -0.1262
 1040W        W 2037   3.570   7.071   0.207 -0.1779  0.1415 -0.1115
 1041W        W 2038   5.113   5.425   2.268 -0.2994  0.0663 -0.0341
 1042W        W 2039   0.661   5.396   1.446 -0.0539  0.1464  0.0546
 1043W        W 2040   2.055   4.484   4.551  0.3673  0.0476 -0.0916
 1044W        W 2041   1.944   5.476   0.103 -0.0466  0.0528  0.1043
 1045W        W 2042   4.577   3.317   7.520  0.0832 -0.1531  0.2252
 1046W        W 2043   0.319   4.745   7.486  0.1546 -0.1780 -0.1413
 1047W        W 2044   4.207   3.631   2.089  0.1689  0.0665  0.1025
 1048W        W 2045   0.048   5.793   6.274 -0.2983 -0.2886 -0.1002
 1049W        W 2046   3.198   5.719   1.989 -0.1255  0.0430 -0.0881
 1050W        W 2047   7.143   7.431   0.146 -0.0139 -0.1722 -0.2738
 1051W        W 2048   5.649   7.085   1.194  0.0091 -0.1274 -0.1757
 1052W        W 2049   1.957   4.906   0.850  0.0681 -0.2981 -0.1805
 1053W        W 2050   5.161   1.933   5.809  0.4042  0.0484  0.0422
 1054W        W 2051   6.824   5.747   6.831  0.0048  0.0320 -0.2086
 1055W        W 2052   6.666   1.588   2.053 -0.2039  0.2579 -0.0384
 1056W        W 2053   2.783   4.332   3.974  0.2088  0.0909 -0.0464
 1057W        W 2054   7.548   3.786   7.642 -0.3500 -0.0541  0.1086
 1058W        W 2055   4.763   3.001   6.058 -0.3136 -0.0550 -0.0739
 1059W        W 2056   6.333   2.218   4.547  0.1415 -0.0896 -0.1318
 1060W        W 2057   4.592   6.299   2.541  0.0760 -0.2413  0.0956
 1061W        W 2058   6.425   0.370   2.273 -0.1823 -0.0367  0.0497
 1062W        W 2059   3.806   6.344   4.501 -0.2842  0.1864 -0.1074
 1063W        W 2060   3.917   7.259   6.098 -0.0003 -0.2010 -0.0725
 1064W        W 2061   2.116   5.417   2.953 -0.3090  0.2911  0.2081
 1065W        W 2062   1.271   7.049   0.420 -0.1714 -0.2118  0.0706
 1066W        W 2063   3.593   3.157   4.450 -0.0149 -0.2971 -0.2343
 1067W        W 2064   5.278   6.161   1.610 -0.2616  0.0916  0.2700
 1068W        W 2065   6.718   6.116   1.343  0.0756  0.0313  0.0990
 1069W        W 2066   5.018   2.491   1.013  0.0583  0.1958 -0.2318
 1070W        W 2067   2.371   5.170   0.828 -0.1769 -0.2773  0.0601
 1071W        W 2068   2.954   5.120   5.477 -0.2284 -0.2165  0.0414
 1072W        W 2069   1.119   5.966   5.039 -0.0181 -0.1745  0.3232
 1073W        W 2070   1.695   2.478   4.395 -0.0213  0.2526 -0.1141
 1074W        W 2071   1.976   5.085   4.377 -0.0671 -0.0941 -0.2489
 1075W        W 2072   6.564   3.508   6.885 -0.2658 -0.1725 -0.2738
 1076W        W 2073   2.887   6.093   5.768  0.1287 -0.1798  0.0282
 1077W        W 2074   1.013   7.289   6.491 -0.2412  0.0646  0.1199
 1078W        W 2075   5.170   7.662   3.163  0.1903 -0.0581  0.1216
 1079W        W 2076   2.818   6.161   4.055  0.3044  0.1587  0.2333
 1080W        W 2077   6.738   7.579   6.388  0.0455 -0.0310  0.1965
 1081W        W 2078   6.250   1.341   0.402 -0.0930  0.0768  0.1674
 1082W        W 2079   5.900   0.557   2.193  0.2087  0.0876 -0.1681
 1083W        W 2080   0.019   6.057   5.887  0.0627 -0.0396 -0.0553
 1084W        W 2081   2.870   3.188   5.471  0.1940 -0.1047  0.2948
 1085W        W 2082   6.013   0.725   3.664  0.1296  0.1675  0.1699
 1086W        W 2083   3.456   5.655   6.698  0.0956  0.0440 -0.0086
 1087W        W 2084   7.305   0.249   4.808  0.1460  0.5446  0.0614
 1088W        W 2085   7.186   3.003   2.143 -0.0137 -0.1573 -0.3660
 1089W        W 2086   6.538   5.776   3.612  0.0528  0.1377 -0.1097
 1090W        W 2087   1.595   6.896   5.721 -0.1225  0.0946 -0.2252
 1091W        W 2088   0.113   3.564   2.536 -0.0818 -0.0412 -0.1767
 1092W        W 2089   1.604   1.959   5.177  0.0132 -0.0677  0.0479
 1093W        W 2090   7.093   4.147   4.151  0.3251  0.1641  0.4417
 1094W        W 2091   5.863   2.563   2.376  0.0557  0.2014 -0.0647
 1095W        W 2092   1.607   6.442   1.673 -0.2238  0.3146 -0.1192
 1096W        W 2093   1.725   4.683   7.136  0.1620 -0.1266  0.4011
 1097W        W 2094   3.063   0.139   7.033  0.3002 -0.1304 -0.1536
 1098W        W 2095   7.463   2.184   2.184 -0.0872  0.1549 -0.3225
 1099W        W 2096   1.049   7.238   1.376 -0.1584 -0.0700 -0.4238
 1100W        W 2097   4.707   5.128   4.763  0.2087 -0.3545 -0.2377
 1101W        W 2098   7.155   5.997   4.134  0.0345 -0.1904  0.2501
 1102W        W 2099   3.120   0.963   4.025  0.0801  0.3246  0.0417
 1103W        W 2100   6.169   7.237   1.680  0.1717  0.1420 -0.1708
 1104W        W 2101   4.708   0.521   0.073  0.0780 -0.3104  0.0496
 1105W        W 2102   6.771   0.549   5.496  0.4188 -0.3059  0.1874
 1106W        W 2103   4.359   5.162   2.287 -0.0924 -0.1520 -0.0117
 1107W        W 2104   1.118   7.034   5.628 -0.1986  0.1464 -0.0207
 1108W        W 2105   1.562   4.313   5.493  0.5376 -0.1155  0.2075
 1109W        W 2106   2.724   7.457   6.265  0.1669  0.1002 -0.0308
 1110W        W 2107   4.320   0.794   7.284 -0.2300 -0.1831 -0.3314
 1111W        W 2108   4.525   2.577   7.630 -0.1229  0.3234 -0.1749
 1112W        W 2109   0.213   6.621   2.918  0.3150 -0.0745 -0.0810
 1113W        W 2110   6.593   5.318   6.724 -0.0675 -0.3571 -0.0396
 1114W        W 2111   7.552   7.511   4.660 -0.0200  0.2812 -0.0732
 1115W        W 2112   0.492   3.956   2.304  0.0358  0.0422 -0.1127
 1116W        W 2113   6.730   4.990   5.803  0.1866  0.0321 -0.1693
 1117W        W 2114   2.891   2.246   5.739  0.1064 -0.0469 -0.0757
 1118W        W 2115   5.703   6.555   4.404  0.2375  0.2625 -0.2220
 1119W        W 2116   5.129   6.724   5.703 -0.4294  0.2074  0.0839
 1120W        W 2117   0.955   4.413   3.448 -0.1675  0.0245  0.1062
 1121W        W 2118   1.795   7.545   4.458  0.1241 -0.2853  0.1234
 1122W        W 2119   5.463   1.580   5.838 -0.1503  0.2511  0.0598
 1123W        W 2120   7.510   6.529   1.690 -0.1387 -0.1655 -0.4066
 1124W        W 2121   4.839   5.704   3.598 -0.0620  0.0881  0.2410
 1125W        W 2122   6.034   1.930   4.111 -0.1072 -0.2349  0.0159
 1126W        W 2123   4.457   1.016   3.975  0.0015 -0.1614 -0.0315
 1127W        W 2124   0.518   4.942   5.914 -0.0420 -0.0248  0.1382
 1128W        W 2125   3.744   2.922   5.291 -0.2094  0.5849 -0.5089
 1129W        W 2126   1.953   5.857   6.597 -0.1154 -0.3580  0.0064
 1130W        W 2127   1.976   7.375   4.960 -0.1419 -0.4479  0.0833
 1131W        W 2128   0.426   3.526   1.721 -0.0149  0.0293  0.1067
 1132W        W 2129   6.490   5.065   7.149  0.5041  0.3249 -0.1469
 1133W        W 2130   6.213   0.354   7.212 -0.2082  0.2280  0.3744
 1134W        W 2131   4.517   4.567   5.949 -0.2982  0.3819  0.1736
 1135W        W 2132   1.485   3.670   4.241  0.1175 -0.1653 -0.1114
 1136W        W 2133   5.027   2.658   2.897  0.1288  0.0283 -0.1021
 1137W        W 2134   3.140   1.403   5.482  0.0578  0.3116 -0.1774
 1138W        W 2135   6.930   1.833   4.045  0.1054  0.0347 -0.0637
 1139W        W 2136   6.868   4.129   2.917  0.1844  0.2089  0.0747
 1140W        W 2137   7.206   3.020   0.786 -0.2274  0.0357  0.1264
 1141W        W 2138   1.494   6.056   2.464  0.0239  0.1744 -0.0366
 1142W        W 2139   0.350   2.902   6.926 -0.0388 -0.3353 -0.1460
 1143W        W 2140   4.699   7.476   2.330  0.0574 -0.3194  0.1360
 1144W        W 2141   6.256   4.246   5.666 -0.0142 -0.2146  0.1012
 1145W        W 2142   3.142   6.038   4.405  0.1118 -0.2024  0.0742
 1146W        W 2143   6.460   1.293   2.387 -0.1978 -0.1706 -0.2155
 1147W        W 2144   5.968   5.608   3.593  0.0630  0.2568 -0.0787
 1148W        W 2145   4.160   7.136   2.337 -0.0264  0.1115 -0.2793
 1149W        W 2146   0.265   2.600   5.627  0.1543 -0.2045 -0.0279
 1150W        W 2147   4.977   5.584   4.222 -0.3227 -0.1268  0.2433
 1151W        W 2148   4.580   3.259   6.478  0.2783  0.4760 -0.2234
 1152W        W 2149   0.852   6.900   0.735  0.0707 -0.1716 -0.2842
 1153W        W 2150   3.154   6.591   3.998  0.0581  0.3959  0.2667
 1154W        W 2151   5.727   2.879   0.612 -0.1259  0.0378 -0.4898
 1155W        W 2152   2.833   5.239   0.083 -0.1326 -0.0023 -0.2721
 1156W        W 2153   6.251   2.986   3.504  0.0452  0.0579 -0.1076
 1157W        W 2154   6.856   5.417   7.163 -0.0093 -0.0299  0.2652
 1158W        W 2155   1.258   5.778   6.321  0.3519  0.0186 -0.1936
 1159W        W 2156   5.331   0.807   3.549 -0.1289 -0.2954  0.2528
 1160W        W 2157   3.589   6.823   6.087 -0.1266  0.0370 -0.0868
 1161W        W 2158   2.311   0.589   6.490 -0.1028  0.1638  0.0524
 1162W        W 2159   0.210   5.903   5.471  0.0918 -0.2312  0.0237
 1163W        W 2160   6.646   5.301   2.962 -0.1113  0.2124  0.0659
 1164W        W 2161   0.584   3.299   5.984  0.3624 -0.2282 -0.0655
 1165W        W 2162   5.265   0.692   7.282  0.3092  0.1296 -0.2256
 1166W        W 2163   6.951   5.355   5.383 -0.0726  0.2012  0.2236
 1167W        W 2164   2.521   0.744   6.037 -0.0069  0.0916 -0.0837
 1168W        W 2165   3.982   7.343   5.228 -0.0866  0.1357  0.3220
 1169W        W 2166   0.551   7.092   6.046  0.1536  0.0162 -0.4161
 1170W        W 2167   1.665   5.256   6.411 -0.0408  0.4504  0.1623
 1171W        W 2168   5.658   5.233   3.720 -0.2321  0.1396 -0.1143
 1172W        W 2169   4.212   3.604   1.118  0.3082 -0.2703 -0.2061
 1173W        W 2170   4.800   2.304   5.743  0.1745  0.1819 -0.1009
 1174W        W 2171   0.301   0.866   0.106 -0.1152  0.0332  0.4073
 1175W        W 2172   3.171   3.678   3.724 -0.2942 -0.0438 -0.0488
 1176W        W 2173   0.918   7.398   2.607  0.2977  0.1062  0.2071
 1177W        W 2174   1.195   3.106   7.174 -0.0775 -0.1811 -0.1333
 1178W        W 2175   5.232   5.139   6.661 -0.0991 -0.0883  0.0634
 1179W        W 2176   2.291   4.852   2.507 -0.1542  0.0308 -0.1163
 1180W        W 2177   2.873   4.191   3.001 -0.0558 -0.0243  0.0907
 1181W        W 2178   4.942   2.049   1.329  0.0839 -0.1118 -0.0181
 1182W        W 2179   6.238   5.795   1.798 -0.2327  0.0604  0.0542
 1183W        W 2180   5.095   3.788   6.146 -0.0456 -0.0403 -0.0991
 1184W        W 2181   0.831   3.344   4.625 -0.3364 -0.2205  0.0255
 1185W        W 2182   0.442   6.151   6.319  0.0359  0.1027 -0.1078
 1186W        W 2183   5.573   5.267   7.529 -0.2228  0.1105  0.0685
 1187W        W 2184   2.622   6.430   2.267  0.0007 -0.0494 -0.1393
 1188W        W 2185   0.429   3.709   6.301  0.0401 -0.2262 -0.1337
 1189W        W 2186   1.815   1.127   4.932 -0.2531 -0.1933 -0.0153
 1190W        W 2187   7.611   2.944   4.719  0.1253 -0.0454  0.0185
 1191W        W 2188   7.052   4.209   1.154  0.0360 -0.0565  0.0203
 1192W        W 2189   4.606   3.987   0.384 -0.1681 -0.3344 -0.3038
 1193W        W 2190   6.141   6.800   4.416 -0.0131  0.1098  0.0874
 1194W        W 2191   1.395   4.870   4.691  0.1461  0.2563  0.1190
 1195W        W 2192   6.233   3.604   2.306 -0.3519 -0.1478  0.0750
 1196W        W 2193   4.478   4.163   4.454 -0.0437  0.3925 -0.1393
 1197W        W 2194   1.467   0.748   5.822  0.0012 -0.0930 -0.1941
 1198W        W 2195   5.467   7.332   2.563  0.0838 -0.3257 -0.0867
 1199W        W 2196   4.475   6.616   3.080  0.0763  0.1120 -0.1560
 1200W        W 2197   7.269   1.056   7.221  0.0800 -0.3401 -0.0623
 1201W        W 2198   5.807   3.193   3.318  0.0345  0.1732 -0.0029
 1202W        W 2199   5.068   7.427   1.162  0.2114  0.0126  0.2548
 1203W        W 2200   4.385   4.471   0.553  0.0915 -0.1030  0.0308
 1204W        W 2201   2.299   5.142   2.038 -0.4408 -0.1762  0.1598
 1205W        W 2202   5.458   0.632   4.737  0.0769  0.3055  0.1738
 1206W        W 2203   0.108   5.357   3.396 -0.0662 -0.1695  0.4391
 1207W        W 2204   1.918   6.403   5.960  0.2365  0.1507  0.2306
 1208W        W 2205   0.777   3.136   6.785 -0.2707  0.1941  0.3915
 1209W        W 2206   0.980   4.366   5.330  0.4800  0.0255  0.1803
 1210W        W 2207   7.147   0.918   0.714  0.2118  0.1861  0.3070
 1211W        W 2208   5.621   0.452   3.372 -0.0429 -0.0681  0.2355
 1212W        W 2209   6.331   2.939   7.438  0.1245 -0.1209  0.2428
 1213W        W 2210   5.433   0.252   6.101  0.1363  0.0712  0.3273
 1214W        W 2211   1.925   4.713   1.560 -0.0140  0.2142  0.3077
 1215W        W 2212   4.218   6.669   7.303  0.2709  0.0003  0.1780
 1216W        W 2213   6.871   2.984   1.733 -0.2211 -0.1396 -0.0238
 1217W        W 2214   6.651   3.296   7.337 -0.2038 -0.2929 -0.0226
 1218W        W 2215   7.485   1.650   0.336  0.0877  0.1682 -0.0091
 1219W        W 2216   4.661   1.755   2.780  0.1064  0.0622 -0.2603
 1220W        W 2217   0.245   7.307   7.155  0.0246  0.1444 -0.1931
 1221W        W 2218   6.370   7.142   2.160  0.1114 -0.3566 -0.1095
 1222W        W 2219   2.880   0.646   3.638  0.1028 -0.2792 -0.1005
 1223W        W 2220   3.550   6.823   4.303  0.0371 -0.1338 -0.0397
 1224W        W 2221   0.846   4.684   2.519  0.1535 -0.2158 -0.1040
 1225W        W 2222   3.395   0.710   3.588 -0.3026  0.1091  0.1985
 1226W        W 2223   0.452   4.612   3.635 -0.1938  0.1932 -0.1424
 1227W        W 2224   4.524   0.954   4.483  0.0946 -0.3124 -0.0144
 1228W        W 2225   6.444   5.953   0.196 -0.2397  0.0668 -0.0761
 1229W        W 2226   7.005   5.979   0.969 -0.1663 -0.1911  0.0419
 1230W        W 2227   0.368   5.341   6.190 -0.1688 -0.2848  0.1840
 1231W        W 2228   4.192   5.328   0.348  0.0312  0.1391 -0.0278
 1232W        W 2229   1.837   4.800   4.856  0.0463  0.1962  0.1815
 1233W        W 2230   6.060   0.688   1.743 -0.0611  0.1810 -0.0725
 1234W        W 2231   7.149   6.000   3.036  0.1246 -0.1439  0.0804
 1235W        W 2232   5.870   1.263   0.028 -0.0089  0.0570 -0.2836
 1236W        W 2233   7.089   2.890   4.184 -0.0489  0.0417  0.1528
 1237W        W 2234   1.803   6.528   5.398 -0.0092 -0.2553 -0.1030
 1238W        W 2235   0.747   6.424   3.101 -0.1147  0.1902  0.2948
 1239W        W 2236   6.254   3.210   3.061  0.1416  0.1870  0.0774
 1240W        W 2237   0.710   0.397   7.026  0.0674  0.0724  0.0965
 1241W        W 2238   6.694   1.112   1.714 -0.1508 -0.3212 -0.0555
 1242W        W 2239   1.394   6.700   0.744 -0.2004  0.1233  0.0032
 1243W        W 2240   1.145   7.174   7.030  0.0598 -0.0046  0.2488
 1244W        W 2241   3.433   0.371   5.106  0.1986  0.2077  0.0625
 1245W        W 2242   3.328   1.438   5.989  0.0945 -0.0456 -0.1645
 1246W        W 2243   2.296   2.364   6.388  0.2517 -0.0747  0.0920
 1247W        W 2244   1.322   6.331   2.833 -0.0522  0.0805  0.0726
 1248W        W 2245   0.195   4.000   2.750 -0.0384 -0.2336 -0.0874
 1249W        W 2246   0.861   4.914   6.305  0.0282  0.3648 -0.0415
 1250W        W 2247   5.668   6.825   4.006 -0.1863 -0.0447 -0.3228
 1251W        W 2248   5.665   1.568   1.854  0.0362 -0.0717 -0.0879
 1252W        W 2249   1.601   5.339   2.783 -0.1328  0.0596  0.1917
 1253W        W 2250   5.863   1.215   5.845  0.3011  0.0341 -0.1508
 1254W        W 2251   0.638   3.810   6.755 -0.0201 -0.0282 -0.0895
 1255W        W 2252   5.410   2.672   3.642 -0.2554 -0.1080 -0.1096
 1256W        W 2253   6.331   6.352   0.452 -0.0326 -0.2098  0.0293
 1257W        W 2254   4.699   0.072   5.644 -0.2733 -0.1550 -0.1566
 1258W        W 2255   6.473   4.351   6.711  0.4054  0.4596  0.0728
 1259W        W 2256   3.980   5.624   0.839 -0.0654  0.4406 -0.3213
 1260W        W 2257   4.966   0.629   6.740 -0.0128  0.1553 -0.0525
 1261W        W 2258   1.999   4.824   3.567  0.0279  0.0653  0.2933
 1262W        W 2259   3.147   3.823   4.661  0.2772 -0.2197  0.0506
 1263W        W 2260   6.802   5.590   4.374 -0.0187 -0.0639 -0.2905
 1264W        W 2261   2.678   7.316   3.493  0.3626 -0.2504  0.1015
 1265W        W 2262   5.894   2.581   0.262 -0.2210  0.1593 -0.0862
 1266W        W 2263   7.304   3.354   2.772  0.2303 -0.0790 -0.2982
 1267W        W 2264   7.156   4.153   3.584 -0.3003  0.1066  0.4293
 1268W        W 2265   5.458   1.712   7.623  0.0339 -0.2610  0.1696
 1269W        W 2266   3.910   5.970   2.745  0.0577 -0.0801 -0.0839
 1270W        W 2267   3.167   4.622   2.866 -0.3679  0.2706 -0.0256
 1271W        W 2268   3.040   4.824   4.142 -0.1400 -0.0580 -0.0794
 1272W        W 2269   7.307   4.637   0.451  0.2810  0.0804 -0.2851
 1273W        W 2270   4.659   0.494   1.509 -0.1683 -0.3245  0.0864
 1274W        W 2271   1.340   4.849   2.486  0.0272 -0.3078 -0.2790
 1275W        W 2272   1.635   2.995   4.117 -0.1353  0.1106 -0.0456
 1276W        W 2273   5.255   7.049   3.871  0.0152 -0.0869 -0.1534
 1277W        W 2274   3.054   3.029   4.546  0.0191 -0.2201  0.0176
 1278W        W 2275   1.109   2.973   5.736  0.2645  0.0982 -0.0329
 1279W        W 2276   5.206   5.044   5.684 -0.0721  0.1991  0.1102
 1280W        W 2277   1.365   4.570   5.090  0.0659  0.0798 -0.3206
 1281W        W 2278   7.167   6.148   6.869 -0.2931 -0.0806  0.1646
 1282W        W 2279   7.347   5.957   7.380 -0.0447 -0.1002  0.2328
 1283W        W 2280   4.732   5.874   7.365  0.0359  0.2011 -0.1724
 1284W        W 2281   0.570   6.903   1.270 -0.1174 -0.4175  0.1540
 1285W        W 2282   4.445   3.472   0.347 -0.1642  0.3267  0.1756
 1286W        W 2283   7.602   1.288   1.974 -0.0488 -0.2819 -0.1433
 1287W        W 2284   3.699   0.673   5.394  0.0660 -0.0171 -0.3312
 1288W        W 2285   5.868   0.508   6.409 -0.2594 -0.1235 -0.0063
 1289W        W 2286   2.829   3.261   3.844 -0.0823 -0.1218  0.1047
 1290W        W 2287   3.776   5.592   2.346 -0.1647 -0.1318 -0.2353
 1291W        W 2288   5.355   0.779   6.064  0.1102  0.0877 -0.0578
 1292W        W 2289   3.015   4.406   7.530  0.0786 -0.0281 -0.0671
 1293W        W 2290   0.802   6.808   3.499  0.0955  0.1147 -0.0693
 1294W        W 2291   3.786   3.813   0.887 -0.1129 -0.2309  0.3255
 1295W        W 2292   5.309   0.733   0.328  0.0617 -0.2872  0.2937
 1296W        W 2293   3.173   5.641   5.754  0.0556  0.2127  0.0828
 1297W        W 2294   1.842   5.718   3.202 -0.2894  0.2414 -0.0928
 1298W        W 2295   6.639   5.316   1.854 -0.2786 -0.3090 -0.1626
 1299W        W 2296   4.836   6.973   3.080 -0.1297  0.0248  0.0806
 1300W        W 2297   7.089   2.909   3.009 -0.0358 -0.0676 -0.0590
 1301W        W 2298   5.674   2.084   0.422 -0.0471 -0.3757  0.1247
 1302W        W 2299   3.031   6.791   4.458 -0.1795 -0.2770 -0.1428
 1303W        W 2300   4.639   3.658   5.117  0.1111 -0.3677  0.0083
 1304W        W 2301   7.564   6.565   0.531  0.2075 -0.1155  0.0867
 1305W        W 2302   6.843   0.952   6.450 -0.1220 -0.0741  0.1260
 1306W        W 2303   7.438   4.910   4.685  0.4122 -0.3439  0.1365
 1307W        W 2304   4.507   5.256   1.720 -0.1711  0.5164  0.1930
 1308W        W 2305   1.142   4.139   5.725  0.0740 -0.0255 -0.2584
 1309W        W 2306   0.392   0.529   7.424 -0.1279 -0.0583  0.0843
 1310W        W 2307   5.530   7.653   3.515 -0.4558  0.0534 -0.1671
 1311W        W 2308   4.736   5.185   7.662 -0.2511 -0.1677 -0.3344
 1312W        W 2309   4.476   6.104   4.826 -0.1254 -0.0726  0.1292
 1313W        W 2310   4.909   3.674   0.122 -0.1052 -0.1183 -0.1522
 1314W        W 2311   5.352   1.847   2.730  0.1963  0.0830  0.0191
 1315W        W 2312   6.473   5.509   5.417 -0.0282 -0.0509 -0.0711
 1316W        W 2313   5.428   2.464   4.514  0.1381 -0.0688  0.4467
 1317W        W 2314   2.490   3.470   5.648  0.0640 -0.2706  0.0747
 1318W        W 2315   5.336   5.930   4.390  0.3107 -0.0430 -0.4623
 1319W        W 2316   5.712   1.729   3.709  0.1585  0.4087  0.1497
 1320W        W 2317   3.883   0.924   4.569 -0.1660  0.1143  0.1280
 1321W        W 2318   4.417   6.682   2.176  0.0622 -0.1180 -0.0516
 1322W        W 2319   3.276   2.658   3.657 -0.2235  0.2758  0.1886
 1323W        W 2320   3.338   3.216   3.610  0.0451  0.2890 -0.0355
 1324W        W 2321   3.857   0.619   0.309 -0.2681  0.3123  0.0241
 1325W        W 2322   5.406   5.790   3.921 -0.1396 -0.0184  0.0987
 1326W        W 2323   6.811   6.366   5.687  0.2949  0.0776  0.2109
 1327W        W 2324   0.920   4.407   0.471 -0.1316  0.2619  0.0962
 1328W        W 2325   3.566   3.120   2.781  0.1846 -0.2020 -0.0300
 1329W        W 2326   6.151   6.369   4.752  0.1690 -0.1000  0.1974
 1330W        W 2327   7.586   0.070   2.123  0.1670 -0.0147 -0.3593
 1331W        W 2328   7.651   4.447   5.891  0.0843  0.2193  0.4625
 1332W        W 2329   3.865   3.306   3.633  0.0835  0.0783 -0.0929
 1333W        W 2330   5.223   3.008   4.657  0.0504 -0.0475  0.2534
 1334W        W 2331   0.192   5.209   1.531  0.1566  0.2995 -0.0340
 1335W        W 2332   5.610   4.249   5.287  0.3306 -0.2225 -0.2664
 1336W        W 2333   6.071   0.820   6.810  0.1170  0.0414 -0.0808
 1337W        W 2334   4.225   5.565   2.035  0.2407  0.0195  0.0801
 1338W        W 2335   4.693   3.811   4.041  0.0680 -0.1963  0.0305
 1339W        W 2336   3.474   2.536   6.228 -0.1328 -0.1841  0.2036
 1340W        W 2337   7.421   6.787   5.430  0.1934  0.1630 -0.2352
 1341W        W 2338   1.870   7.068   3.055  0.0426  0.0997 -0.1437
 1342W        W 2339   0.049   2.645   7.188  0.2133  0.3357  0.0636
 1343W        W 2340   0.050   3.853   1.573 -0.2055  0.1487 -0.2875
 1344W        W 2341   7.644   4.270   2.364 -0.1064 -0.1844  0.1955
 1345W        W 2342   5.329   2.788   4.185 -0.0565 -0.1438  0.2508
 1346W        W 2343   0.159   6.741   7.040  0.1683  0.0957  0.1024
 1347W        W 2344   6.532   2.338   7.174  0.0656  0.0636 -0.0402
 1348W        W 2345   2.541   6.150   1.885  0.0440  0.1135  0.1546
 1349W        W 2346   6.520   1.713   5.275 -0.1203  0.1636 -0.0418
 1350W        W 2347   6.472   1.300   4.439  0.1001  0.0324 -0.2689
 1351W        W 2348   5.016   4.160   4.272 -0.0603  0.0478  0.0424
 1352W        W 2349   0.165   0.038   2.789 -0.0763  0.1772 -0.0286
 1353W        W 2350   1.317   3.326   3.889 -0.1141 -0.1904  0.3474
 1354W        W 2351   4.532   4.507   6.439  0.0899 -0.2575 -0.0319
 1355W        W 2352   3.065   5.044   0.879 -0.2394 -0.2469  0.0594
 1356W        W 2353   2.335   6.239   6.588 -0.0836 -0.0809 -0.1240
 1357W        W 2354   3.660   3.458   3.210 -0.0784 -0.1836 -0.1700
 1358W        W 2355   2.549   4.136   0.085  0.0329 -0.1912  0.1903
 1359W        W 2356   1.357   6.801   7.246  0.2223  0.0845 -0.2235
 1360W        W 2357   7.586   5.915   4.283  0.0863  0.3314 -0.1326
 1361W        W 2358   1.072   3.188   5.304 -0.2438 -0.3552 -0.2782
 1362W        W 2359   0.158   0.229   0.663  0.2294  0.0134  0.1223
 1363W        W 2360   2.287   7.025   0.401  0.1583 -0.1232 -0.2983
 1364W        W 2361   6.637   1.163   2.898  0.2626  0.1838  0.0030
 1365W        W 2362   3.742   5.667   5.673 -0.0205  0.0188  0.0766
 1366W        W 2363   5.617   0.459   5.163 -0.1730  0.1606 -0.1114
 1367W        W 2364   4.430   0.264   7.251 -0.2059  0.0127  0.0139
 1368W        W 2365   4.648   4.303   5.471  0.1851 -0.2098  0.1098
 1369W        W 2366   6.435   4.664   4.873 -0.3836  0.0177 -0.4472
 1370W        W 2367   2.469   5.610   0.214  0.0776  0.0138  0.0598
 1371W        W 2368   0.099   0.703   0.519 -0.1185 -0.2438 -0.0173
 1372W        W 2369   5.299   1.426   4.900  0.1805 -0.2023  0.0235
 1373W        W 2370   6.820   3.622   4.974 -0.6482 -0.2754 -0.0939
 1374W        W 2371   6.498   4.798   2.183  0.0417 -0.0652  0.0797
 1375W        W 2372   5.267   4.097   0.259 -0.1789  0.1764  0.0051
 1376W        W 2373   6.089   6.371   1.853 -0.1402 -0.1253 -0.0570
 1377W        W 2374   0.958   7.466   0.600 -0.0149  0.2583  0.1569
 1378W        W 2375   5.987   1.287   3.582  0.2863 -0.2425 -0.1722
 1379W        W 2376   2.441   6.012   4.697 -0.0254 -0.0019  0.1230
 1380W        W 2377   7.442   6.248   3.451  0.1813  0.1343 -0.3142
 1381W        W 2378   3.763   7.560   3.265 -0.0337 -0.1490  0.0444
 1382W        W 2379   0.291   2.527   3.845 -0.2970 -0.0487  0.0024
 1383W        W 2380   1.798   1.128   5.746 -0.2419  0.3953  0.2965
 1384W        W 2381   5.645   5.451   2.598  0.3339  0.0178 -0.0793
 1385W        W 2382   3.025   5.708   6.239 -0.0428 -0.1271 -0.0179
 1386W        W 2383   6.024   2.591   6.697 -0.0523  0.0675 -0.0004
 1387W        W 2384   6.411   0.758   6.221  0.2314  0.3638 -0.1963
 1388W        W 2385   2.619   7.349   4.587 -0.0051  0.0924  0.2282
 1389W        W 2386   6.892   5.100   7.596  0.1313  0.1136  0.1044
 1390W        W 2387   3.791   0.436   3.775  0.2904  0.2514 -0.3857
 1391W        W 2388   6.161   1.630   3.228  0.0081 -0.1329  0.3027
 1392W        W 2389   5.451   6.270   0.822  0.0929  0.1229  0.0902
 1393W        W 2390   0.064   1.947   3.274  0.1297  0.2851 -0.0702
 1394W        W 2391   3.850   4.859   4.957  0.0539 -0.3796 -0.0577
 1395W        W 2392   7.147   3.214   7.214 -0.2775 -0.1602  0.0706
 1396W        W 2393   4.491   3.339   4.248  0.0316 -0.0689 -0.1206
 1397W        W 2394   4.099   6.724   6.809  0.2548 -0.0314 -0.1956
 1398W        W 2395   1.355   4.719   0.238 -0.2079  0.2322  0.3640
 1399W        W 2396   5.847   1.797   2.725 -0.0602 -0.2084 -0.0341
 1400W        W 2397   2.446   5.183   4.311 -0.1720  0.0584 -0.0797
 1401W        W 2398   4.378   7.566   6.004  0.2093  0.2820 -0.1064
 1402W        W 2399   2.153   0.644   3.729  0.2647  0.2236  0.5921
 1403W        W 2400   7.246   4.400   1.969 -0.0735  0.0950  0.1772
 1404W        W 2401   2.318   6.884   2.716  0.2614 -0.2654 -0.1768
 1405W        W 2402   7.355   2.091   1.257  0.0670 -0.0295 -0.2191
 1406W        W 2403   4.836   6.595   4.356  0.3027  0.1064 -0.3076
 1407W        W 2404   0.791   3.177   0.000  0.0677  0.0384  0.0974
 1408W        W 2405   3.876   5.434   5.051 -0.1740 -0.2579 -0.4204
 1409W        W 2406   4.626   6.088   6.106  0.1511  0.1050 -0.0681
 1410W        W 2407   4.167   1.162   5.401 -0.3403  0.0500  0.1792
 1411W        W 2408   3.751   7.132   4.827 -0.0507 -0.1515  0.0391
 1412W        W 2409   6.457   2.106   7.629 -0.1620 -0.0183  0.0466
 1413W        W 2410   7.061   0.775   1.263  0.1917  0.2073 -0.0216
 1414W        W 2411   0.561   6.469   3.976 -0.1025 -0.1226  0.0858
 1415W        W 2412   3.815   5.146   3.616 -0.2452  0.1125  0.2184
 1416W        W 2413   6.088   4.930   4.589  0.3798 -0.1085  0.2602
 1417W        W 2414   6.837   1.000   3.498  0.1002  0.2135 -0.0124
 1418W        W 2415   1.128   4.005   6.614 -0.0440 -0.0025 -0.0981
 1419W        W 2416   5.391   5.668   1.729 -0.1839 -0.1094  0.1646
 1420W        W 2417   6.057   3.966   0.548  0.1458  0.2605 -0.0187
 1421W        W 2418   4.053   6.839   1.466 -0.0005  0.0773 -0.0589
 1422W        W 2419   5.699   5.046   4.889 -0.0507  0.0483  0.0780
 1423W        W 2420   1.832   7.351   5.776  0.1351  0.3035 -0.1275
 1424W        W 2421   3.955   6.263   2.317  0.1596 -0.0862  0.0178
 1425W        W 2422   6.428   3.430   4.749 -0.0879  0.1233 -0.0525
 1426W        W 2423   3.517   6.288   4.105 -0.0865 -0.2948  0.4445
 1427W        W 2424   2.402   6.322   3.712  0.0224 -0.2605  0.1513
 1428W        W 2425   1.698   7.108   0.710  0.2730 -0.1856  0.1081
 1429W        W 2426   1.143   6.923   4.583 -0.0420  0.3484 -0.2182
 1430W        W 2427   2.446   1.932   4.755  0.0811  0.0261  0.1311
 1431W        W 2428   3.758   6.350   7.218 -0.2152 -0.0738  0.1290
 1432W        W 2429   2.287   5.329   7.437 -0.2314 -0.1447 -0.1555
 1433W        W 2430   3.578   5.941   1.189  0.1361 -0.1448  0.3877
 1434W        W 2431   5.636   0.672   1.091  0.3436  0.1381 -0.0155
 1435W        W 2432   5.077   0.775   0.798 -0.0165  0.1671 -0.2231
 1436W        W 2433   1.142   5.260   6.463 -0.1403 -0.0733 -0.0672
 1437W        W 2434   6.333   5.852   6.156  0.1038 -0.1172  0.1352
 1438W        W 2435   5.400   4.291   6.354  0.1658  0.1436 -0.0284
 1439W        W 2436   4.781   6.697   1.272 -0.2196 -0.1470  0.1095
 1440W        W 2437   4.854   2.357   6.953  0.3610 -0.0058  0.1211
 1441W        W 2438   4.672   3.219   0.747  0.2478  0.2184 -0.6009
 1442W        W 2439   0.851   6.789   7.203 -0.1029  0.2309 -0.1247
 1443W        W 2440   5.203   1.834   3.526  0.1480 -0.0530  0.1271
 1444W        W 2441   1.945   5.383   0.689 -0.2915 -0.2026  0.2229
 1445W        W 2442   4.072   0.926   6.772  0.2048 -0.1219  0.0569
 1446W        W 2443   0.082   5.380   3.979  0.0768  0.0813  0.1159
 1447W        W 2444   1.365   0.667   3.965  0.2819 -0.2107 -0.0220
 1448W        W 2445   1.230   5.051   4.155 -0.0953 -0.3094  0.0004
 1449W        W 2446   3.556   4.151   1.181  0.1620 -0.1714  0.0819
 1450W        W 2447   3.811   3.302   5.612  0.1615 -0.0291  0.0133
 1451W        W 2448   1.717   6.485   3.698  0.1145 -0.2816 -0.1196
 1452W        W 2449   0.539   0.363   5.761 -0.0207 -0.0254  0.3171
 1453W        W 2450   7.201   1.493   4.767 -0.2577  0.1956 -0.1446
 1454W        W 2451   5.945   7.613   4.199  0.1372  0.1012  0.3729
 1455W        W 2452   0.240   0.169   7.140 -0.0193  0.0248  0.0690
 1456W        W 2453   6.535   6.729   0.171 -0.2586 -0.3145  0.2635
 1457W        W 2454   3.447   4.384   7.299  0.1447 -0.0447  0.2133
 1458W        W 2455   7.265   0.861   2.706 -0.0396 -0.0694  0.0465
 1459W        W 2456   4.257   5.121   6.365  0.0095 -0.2602 -0.0285
 1460W        W 2457   3.871   0.134   6.001  0.3133 -0.1905  0.0800
 1461W        W 2458   7.000   6.032   3.544 -0.4987  0.0823 -0.3350
 1462W        W 2459   7.292   2.604   4.486 -0.0286  0.1088 -0.1155
 1463W        W 2460   5.337   2.292   6.126  0.3350  0.1232 -0.2959
 1464W        W 2461   0.714   4.607   3.018 -0.0032  0.2619  0.0069
 1465W        W 2462   3.246   3.909   3.282  0.0623  0.1645 -0.2018
 1466W        W 2463   2.670   3.830   4.094  0.1517 -0.1405 -0.1649
 1467W        W 2464   6.350   4.359   4.078 -0.0387 -0.1584 -0.0448
 1468W        W 2465   4.915   5.388   5.782  0.4214 -0.1738 -0.0290
 1469W        W 2466   5.299   6.378   4.247  0.3901  0.1599  0.0864
 1470W        W 2467   1.465   4.365   2.539 -0.1033 -0.0549  0.0453
 1471W        W 2468   7.216   4.253   6.121 -0.1829  0.0903 -0.0689
 1472W        W 2469   2.316   5.702   2.059  0.0588  0.0023  0.1411
 1473W        W 2470   1.421   0.965   4.435  0.5044 -0.0260 -0.1096
 1474W        W 2471   4.242   2.968   5.620 -0.1356 -0.2029  0.1787
 1475W        W 2472   5.768   4.477   4.844 -0.2125 -0.0079  0.2412
 1476W        W 2473   1.535   5.115   6.890 -0.2468 -0.2886  0.0830
 1477W        W 2474   0.897   6.838   6.677  0.0362 -0.0284  0.2816
 1478W        W 2475   5.155   0.381   7.640 -0.1497  0.2972  0.1391
 1479W        W 2476   3.396   4.855   5.261 -0.3218 -0.1104  0.2662
 1480W        W 2477   0.034   6.844   3.917 -0.0522  0.2087 -0.2746
 1481W        W 2478   5.972   0.980   6.344 -0.1063 -0.1953  0.0401
 1482W        W 2479   6.673   5.884   3.148  0.0410 -0.4142 -0.0113
 1483W        W 2480   4.898   1.506   1.444  0.1780 -0.0700 -0.2302
 1484W        W 2481   5.359   2.743   2.512 -0.2159  0.3430  0.1206
 1485W        W 2482   6.155   3.867   4.008 -0.0380 -0.2201 -0.2928
 1486W        W 2483   5.054   5.862   5.991  0.1898 -0.1562  0.0892
 1487W        W 2484   1.019   6.827   4.029 -0.0639  0.0539  0.1721
 1488W        W 2485   7.001   6.764   5.114  0.0828  0.3270  0.2162
 1489W        W 2486   6.090   5.309   6.868 -0.1497 -0.2485  0.1720
 1490W        W 2487   7.058   2.652   0.417  0.0458  0.0265 -0.0327
 1491W        W 2488   2.405   3.124   5.249  0.1024 -0.2109  0.1653
 1492W        W 2489   0.231   3.626   7.214 -0.0433 -0.3768  0.0613
 1493W        W 2490   4.293   3.956   5.485  0.0896 -0.1105  0.0356
 1494W        W 2491   5.338   7.097   2.001 -0.1840 -0.0929 -0.1021
 1495W        W 2492   2.068   7.220   2.046  0.2857 -0.2873 -0.0579
 1496W        W 2493   7.245   6.018   1.760 -0.1693 -0.0215 -0.1603
 1497W        W 2494   4.987   2.274   4.748  0.3507 -0.0779 -0.1058
 1498W        W 2495   4.827   2.741   4.950  0.1287 -0.0334 -0.0409
 1499W        W 2496   3.527   0.377   6.328 -0.1649  0.0351  0.1056
 1500W        W 2497   6.079   6.351   0.934 -0.0140  0.0930 -0.2642
 1501W        W 2498   3.704   4.379   3.750  0.3332  0.0695 -0.3735
 1502W        W 2499   6.908   4.788   4.808 -0.1372 -0.0180 -0.2970
 1503W        W 2500   4.365   3.599   3.751  0.0116 -0.0510  0.0348
 1504W        W 2501   4.111   4.664   0.188  0.1691  0.1799  0.1407
 1505W        W 2502   0.334   2.412   6.073  0.0544  0.1218  0.2143
 1506W        W 2503   7.202   6.543   0.177 -0.1352  0.0252 -0.2307
 1507W        W 2504   0.931   4.632   4.828 -0.0433 -0.0323 -0.2348
 1508W        W 2505   6.971   0.415   6.370 -0.1699  0.1896 -0.2830
 1509W        W 2506   1.710   3.374   4.572  0.0593 -0.1928 -0.0606
 1510W        W 2507   0.768   3.952   3.552  0.1822 -0.0004  0.0137
 1511W        W 2508   4.493   5.722   3.273  0.2152 -0.1022  0.1141
 1512W        W 2509   2.003   6.289   7.564 -0.1402  0.0075  0.1254
 1513W        W 2510   5.004   2.165   0.630  0.1992  0.4270 -0.1073
 1514W        W 2511   3.182   6.668   0.233 -0.0012  0.3335  0.2148
 1515W        W 2512   1.896   7.212   1.539 -0.1127  0.1210  0.0078
 1516W        W 2513   5.147   0.455   3.807  0.2956  0.0354  0.1203
 1517W        W 2514   2.943   5.514   6.726 -0.2438 -0.3793  0.0948
 1518W        W 2515   6.898   7.525   2.825 -0.0581  0.2832 -0.2457
 1519W        W 2516   5.235   6.259   0.105 -0.1396 -0.1804  0.3699
 1520W        W 2517   2.539   5.238   1.538  0.1872  0.0250  0.0732
 1521W        W 2518   4.747   0.214   3.829 -0.2524  0.0852 -0.0437
 1522W        W 2519   0.146   1.160   7.297 -0.1297 -0.0023 -0.1605
 1523W        W 2520   0.253   7.154   4.254 -0.0769 -0.1007  0.0376
 1524W        W 2521   4.951   6.064   4.063  0.0580 -0.0190  0.2217
 1525W        W 2522   5.171   1.581   4.020  0.2142  0.1286  0.1430
 1526W        W 2523   1.393   4.463   6.748 -0.3729 -0.1426  0.1948
 1527W        W 2524   3.036   7.566   3.821  0.3282 -0.5058  0.0695
 1528W        W 2525   6.188   7.276   1.001  0.0887 -0.0550  0.0790
 1529W        W 2526   1.956   1.641   5.009 -0.1123 -0.0152  0.1469
 1530W        W 2527   4.252   4.520   6.867 -0.6595 -0.1134 -0.0003
 1531W        W 2528   6.535   4.559   0.551 -0.4093  0.1634 -0.1559
 1532W        W 2529   2.796   4.928   6.589  0.1678  0.2241 -0.1621
 1533W        W 2530   5.462   3.483   4.589  0.0858 -0.5021 -0.0411
 1534W        W 2531   3.004   6.518   5.004 -0.2731 -0.3668 -0.2102
 1535W        W 2532   7.627   3.060   4.196 -0.0143 -0.0631  0.0733
 1536W        W 2533   5.375   1.278   0.227  0.0005 -0.1299  0.0237
 1537W        W 2534   2.993   3.441   5.980  0.2851  0.1080  0.4370
 1538W        W 2535   0.003   7.402   6.145 -0.2046 -0.0652 -0.1047
 1539W        W 2536   4.073   3.144   1.953 -0.0020  0.1991  0.0657
 1540W        W 2537   1.866   0.284   6.440  0.2260  0.0102  0.0517
 1541W        W 2538   0.832   2.769   7.211 -0.0477  0.1133 -0.2420
 1542W        W 2539   6.856   5.367   0.403  0.3386 -0.2622 -0.1459
 1543W        W 2540   7.368   4.047   6.760  0.3285 -0.1363  0.1826
 1544W        W 2541   0.023   3.878   1.015  0.3285 -0.0610  0.0796
 1545W        W 2542   5.503   6.015   5.853  0.1428 -0.0999 -0.0026
 1546W        W 2543   6.379   0.265   6.401  0.2250  0.0322  0.1985
 1547W        W 2544   7.625   7.007   6.658  0.2940 -0.0430  0.0162
 1548W        W 2545   4.070   5.874   0.328  0.1010 -0.3328  0.1024
 1549W        W 2546   0.335   0.597   5.310 -0.2489 -0.1036 -0.1122
 1550W        W 2547   3.403   3.625   5.711 -0.2899  0.1963 -0.1868
 1551W        W 2548   7.590   3.301   1.495 -0.2517 -0.0386 -0.0284
 1552W        W 2549   1.356   4.793   6.318  0.0494 -0.1173 -0.1787
 1553W        W 2550   0.168   0.509   4.409 -0.2198 -0.2703 -0.3815
 1554W        W 2551   5.196   6.026   2.545  0.1881 -0.1269 -0.0056
 1555W        W 2552   5.997   2.979   6.279 -0.1169 -0.1027  0.2179
 1556W        W 2553   3.640   6.759   3.797  0.0165 -0.1956  0.2239
 1557W        W 2554   6.099   2.437   7.497  0.1112  0.0934 -0.3284
 1558W        W 2555   2.510   6.783   0.867  0.5469 -0.4330  0.3682
 1559W        W 2556   3.643   3.129   6.995 -0.0434  0.2065  0.2003
 1560W        W 2557   5.929   5.599   5.703  0.1797 -0.0348  0.1250
 1561W        W 2558   3.329   6.691   7.318 -0.0418 -0.1331  0.3041
 1562W        W 2559   6.933   6.931   6.961 -0.2663  0.0575 -0.2224
 1563W        W 2560   6.525   2.664   4.339  0.0066  0.2098  0.0033
 1564W        W 2561   2.724   4.511   2.224 -0.1687  0.1150  0.1125
 1565W        W 2562   5.423   3.943   4.728  0.1069  0.0399  0.0339
 1566W        W 2563   7.082   7.301   0.858 -0.0659 -0.1232 -0.4600
 1567W        W 2564   4.454   6.278   7.319 -0.4739  0.0295  0.1274
 1568W        W 2565   6.039   6.979   7.320  0.1193 -0.0501  0.4603
 1569W        W 2566   4.567   4.945   6.942 -0.0638 -0.1806  0.0601
 1570W        W 2567   1.816   5.004   0.344 -0.1483 -0.1882 -0.0443
 1571W        W 2568   3.314   3.926   6.881 -0.1838  0.1517 -0.3227
 1572W        W 2569   1.788   2.466   5.986  0.1270  0.0513 -0.0345
 1573W        W 2570   2.599   0.012   4.122 -0.0522 -0.0076  0.0848
 1574W        W 2571   3.114   6.369   2.479  0.1744  0.0992  0.0961
 1575W        W 2572   0.431   7.550   5.848  0.2487  0.0137  0.2449
 1576W        W 2573   4.474   2.608   5.911  0.3004  0.0581 -0.0925
 1577W        W 2574   0.182   4.979   6.488 -0.0027 -0.0476 -0.0281
 1578W        W 2575   1.424   5.246   0.867  0.0674 -0.1653  0.1552
 1579W        W 2576   7.467   1.268   3.551 -0.3398 -0.1431  0.5155
 1580W        W 2577   2.973   1.694   3.739  0.1323 -0.1470  0.0640
 1581W        W 2578   4.567   2.042   3.315  0.0134  0.2181  0.1377
 1582W        W 2579   6.119   1.201   2.895 -0.0474  0.3950  0.0204
 1583W        W 2580   5.390   4.531   0.396  0.1424 -0.0374  0.0860
 1584W        W 2581   2.154   5.466   6.282  0.0215 -0.2220 -0.1763
 1585W        W 2582   5.849   1.828   6.824 -0.0421  0.2554  0.3662
 1586W        W 2583   1.795   6.774   7.483  0.1668  0.4471  0.2214
 1587W        W 2584   1.122   6.934   6.156  0.0638  0.1938 -0.1087
 1588W        W 2585   7.188   1.405   3.894 -0.1301 -0.0617 -0.1344
 1589W        W 2586   7.183   6.982   0.504  0.1124  0.3387  0.2298
 1590W        W 2587   6.798   5.844   0.534 -0.1607 -0.2008  0.1577
 1591W        W 2588   6.816   3.297   3.060 -0.1324  0.2320  0.1782
 1592W        W 2589   3.207   4.794   0.193  0.0846  0.3254  0.1487
 1593W        W 2590   1.480   2.784   6.247 -0.1313 -0.1419  0.0317
 1594W        W 2591   0.422   3.034   6.401 -0.1140 -0.1558 -0.1549
 1595W        W 2592   7.654   0.319   3.302 -0.1810 -0.0897 -0.0589
 1596W        W 2593   5.868   6.543   7.128  0.0109  0.4987 -0.0853
 1597W        W 2594   2.563   4.665   4.389  0.1939  0.1802 -0.3201
 1598W        W 2595   1.390   4.246   6.217 -0.0622  0.3244 -0.1652
 1599W        W 2596   4.484   2.519   4.650 -0.0954  0.2718  0.0291
 1600W        W 2597   6.375   2.965   6.918 -0.0313  0.1510 -0.0226
 1601W        W 2598   7.203   3.399   1.732  0.0955  0.2114 -0.1209
 1602W        W 2599   6.566   3.377   0.325 -0.0581 -0.1162 -0.0932
 1603W        W 2600   4.559   7.628   1.189  0.0345  0.0060  0.0826
 1604W        W 2601   2.122   6.098   2.352 -0.5294 -0.1232 -0.2565
 1605W        W 2602   1.828   5.073   2.487 -0.0553 -0.1184 -0.0479
 1606W        W 2603   5.024   1.516   2.469 -0.0114  0.1656 -0.0347
 1607W        W 2604   2.266   6.579   6.232 -0.2045 -0.0654  0.0894
 1608W        W 2605   7.333   5.711   5.620  0.0588 -0.0968 -0.1582
 1609W        W 2606   5.942   4.426   5.995 -0.0374 -0.2549 -0.0923
 1610W        W 2607   5.355   1.247   0.727  0.2214 -0.1142  0.0173
 1611W        W 2608   7.117   1.314   0.314 -0.1117 -0.0150  0.1195
 1612W        W 2609   7.219   5.793   6.347 -0.0197 -0.2694 -0.0214
 1613W        W 2610   6.540   3.432   3.513  0.1470  0.3465 -0.0090
 1614W        W 2611   7.331   2.195   0.401 -0.0592 -0.2060  0.3187
 1615W        W 2612   1.954   4.464   3.223 -0.0770 -0.0045 -0.1094
 1616W        W 2613   6.098   5.942   4.987  0.1483  0.3191  0.1039
 1617W        W 2614   3.464   3.313   6.574  0.0637 -0.0701  0.0877
 1618W        W 2615   1.139   4.430   2.914  0.0161  0.2022  0.0148
 1619W        W 2616   7.508   6.524   5.906 -0.1168 -0.2709 -0.4657
 1620W        W 2617   5.411   2.894   3.086  0.0374 -0.2770 -0.0288
 1621W        W 2618   6.937   2.247   6.309 -0.1123  0.0530 -0.0639
 1622W        W 2619   6.545   6.630   4.845 -0.3030 -0.0877 -0.3153
 1623W        W 2620   3.148   6.548   6.041 -0.2849  0.2056  0.1362
 1624W        W 2621   7.662   3.531   3.644 -0.1844  0.1304 -0.0080
 1625W        W 2622   4.707   5.631   2.043 -0.0537  0.1269 -0.1040
 1626W        W 2623   4.554   1.019   7.666 -0.0176 -0.0678  0.0486
 1627W        W 2624   2.390   5.654   0.713  0.0580 -0.0748 -0.1567
 1628W        W 2625   2.212   4.042   4.850 -0.0904 -0.0051  0.0905
 1629W        W 2626   6.858   3.046   6.746 -0.1599 -0.0056 -0.0058
 1630W        W 2627   7.481   2.942   5.580 -0.0277 -0.2827  0.0714
 1631W        W 2628   0.062   1.114   0.983  0.0245  0.3226 -0.1792
 1632W        W 2629   7.486   0.433   2.472 -0.1795  0.1280 -0.0729
 1633W        W 2630   1.620   6.065   0.147  0.1267 -0.1669 -0.0663
 1634W        W 2631   0.942   3.543   6.437  0.0066 -0.2069  0.0029
 1635W        W 2632   5.914   3.494   6.270 -0.1427  0.1775  0.0081
 1636W        W 2633   3.204   4.642   5.765 -0.2927  0.2198  0.2440
 1637W        W 2634   2.194   6.183   7.088 -0.1072 -0.1490  0.0705
 1638W        W 2635   0.136   5.677   4.695 -0.1309 -0.0323  0.1542
 1639W        W 2636   1.479   3.949   2.261  0.0042 -0.0251 -0.0824
 1640W        W 2637   6.448   0.678   4.323  0.1032  0.0202 -0.0483
 1641W        W 2638   5.529   5.508   4.292 -0.2485 -0.1907 -0.3248
 1642W        W 2639   7.393   3.569   4.821  0.2128  0.1309  0.0413
 1643W        W 2640   5.559   3.021   6.021 -0.2429  0.2175 -0.1882
 1644W        W 2641   3.022   6.534   5.480 -0.0924 -0.1340 -0.1651
 1645W        W 2642   7.599   7.023   1.676 -0.0039  0.2010 -0.0639
 1646W        W 2643   5.903   2.415   1.305 -0.0006 -0.2938 -0.0144
 1647W        W 2644   5.133   4.258   7.096 -0.3321 -0.0157 -0.3013
 1648W        W 2645   0.609   5.204   6.652  0.1319  0.0124  0.0151
 1649W        W 2646   2.013   1.780   4.539 -0.0097  0.1688 -0.1201
 1650W        W 2647   3.691   6.500   2.717  0.1298  0.4466 -0.0335
 1651W        W 2648   5.746   5.969   2.637  0.2914  0.0261  0.1932
 1652W        W 2649   7.133   1.330   6.194 -0.1906 -0.1494 -0.1113
 1653W        W 2650   4.638   2.712   6.474 -0.1244  0.2552 -0.0962
 1654W        W 2651   7.031   0.007   1.706 -0.1901 -0.3053 -0.2312
 1655W        W 2652   1.219   4.018   7.119  0.0669 -0.1340  0.3118
 1656W        W 2653   0.587   6.046   2.291  0.2779 -0.2839 -0.1741
 1657W        W 2654   3.698   0.668   2.848 -0.2727  0.4196  0.1210
 1658W        W 2655   6.850   4.912   6.771 -0.1692  0.1762  0.2915
 1659W        W 2656   2.521   5.304   5.725 -0.3157  0.2087  0.0343
 1660W        W 2657   7.404   6.345   4.464 -0.1720  0.0883 -0.1931
 1661W        W 2658   0.895   5.070   4.537  0.0811  0.0316  0.1294
 1662W        W 2659   0.384   5.083   1.981  0.4554  0.0107 -0.0020
 1663W        W 2660   4.878   4.654   0.775 -0.3284  0.0061 -0.0987
 1664W        W 2661   6.226   6.199   2.613  0.0613 -0.1769  0.1441
 1665W        W 2662   3.870   7.122   4.092 -0.1464 -0.0536  0.2099
 1666W        W 2663   0.503   5.336   5.667  0.1275 -0.0385  0.1949
 1667W        W 2664   4.442   4.841   0.966  0.2226  0.1482  0.0967
 1668W        W 2665   4.315   2.943   4.590 -0.0408  0.0482 -0.2611
 1669W        W 2666   4.206   7.642   4.881  0.2909  0.0497  0.1303
 1670W        W 2667   7.600   6.287   6.479 -0.3619 -0.0810 -0.1253
 1671W        W 2668   1.352   4.037   1.807  0.2139  0.2945  0.0872
 1672W        W 2669   1.623   6.717   6.255 -0.1693 -0.0163 -0.3286
 1673W        W 2670   6.061   6.474   5.241  0.2675  0.2342  0.0704
 1674W        W 2671   4.900   6.218   7.083  0.1443 -0.1835  0.1630
 1675W        W 2672   0.338   4.260   3.994 -0.0702 -0.2655  0.0212
 1676W        W 2673   3.577   3.391   6.086  0.0651  0.2625  0.1158
 1677W        W 2674   3.309   2.780   3.114 -0.1232 -0.2915  0.1670
 1678W        W 2675   0.442   4.087   0.757  0.3902  0.2750  0.1389
 1679W        W 2676   4.642   4.519   1.314  0.0744 -0.0245  0.0714
 1680W        W 2677   4.932   1.869   0.159  0.2345  0.1464 -0.1010
 1681W        W 2678   1.673   1.927   5.758 -0.0419 -0.3010  0.2105
 1682W        W 2679   3.120   6.548   3.068  0.0743 -0.0058  0.2232
 1683W        W 2680   7.337   0.146   4.304  0.2295 -0.1799 -0.1123
 1684W        W 2681   3.398   7.395   2.590  0.0429 -0.0870  0.0162
 1685W        W 2682   5.173   5.017   7.597  0.2835 -0.2003 -0.2378
 1686W        W 2683   0.273   1.041   5.063  0.1328 -0.0388 -0.1405
 1687W        W 2684   0.692   2.735   4.100  0.1288 -0.1018  0.0228
 1688W        W 2685   4.050   6.085   4.141  0.0630 -0.0583 -0.4126
 1689W        W 2686   1.411   4.131   4.182  0.1405 -0.0503 -0.2748
 1690W        W 2687   5.804   2.682   2.896  0.3731  0.2104 -0.1580
 1691W        W 2688   4.931   5.930   3.153  0.2146  0.0064 -0.1792
 1692W        W 2689   4.640   7.362   7.122  0.0252 -0.1241  0.1138
 1693W        W 2690   4.285   5.900   2.435 -0.0817  0.0198 -0.0988
 1694W        W 2691   6.537   0.783   1.382 -0.0381 -0.0771 -0.1144
 1695W        W 2692   1.290   3.556   2.964 -0.3472 -0.1432 -0.2511
 1696W        W 2693   6.490   0.105   5.446  0.0811 -0.0492 -0.0791
 1697W        W 2694   3.396   6.127   5.698  0.1142 -0.0930  0.1286
 1698W        W 2695   7.300   2.721   2.580  0.0192 -0.0562 -0.0448
 1699W        W 2696   3.539   5.078   2.415  0.0190 -0.1726  0.0916
 1700W        W 2697   0.400   3.062   4.422  0.1690  0.0463 -0.0320
 1701W        W 2698   0.123   0.092   4.133  0.1113  0.0269  0.3466
 1702W        W 2699   0.116   1.660   5.537  0.0267  0.0296 -0.3327
 1703W        W 2700   2.484   3.688   5.155  0.4213  0.0220 -0.0497
 1704W        W 2701   1.056   5.284   5.590 -0.0395 -0.0523 -0.3847
 1705W        W 2702   1.040   2.126   5.683 -0.3368 -0.2690  0.4342
 1706W        W 2703   3.050   5.128   2.661 -0.0669  0.1203 -0.1982
 1707W        W 2704   6.195   0.363   0.132  0.0192  0.0628  0.1735
 1708W        W 2705   1.797   5.471   3.632 -0.3379  0.1909  0.0145
 1709W        W 2706   0.042   4.537   4.548 -0.0254  0.2115  0.3513
 1710W        W 2707   6.728   6.876   0.776  0.0138 -0.0798 -0.0013
 1711W        W 2708   4.959   0.108   1.491  0.1002 -0.0479  0.3219
 1712W        W 2709   1.769   3.321   6.900 -0.0420  0.0458 -0.0785
 1713W        W 2710   3.828   3.800   5.482  0.0149  0.2419  0.0614
 1714W        W 2711   6.483   1.721   4.180 -0.0673  0.2784  0.1928
 1715W        W 2712   5.030   6.040   2.056 -0.0989  0.3443 -0.0450
 1716W        W 2713   7.552   2.686   0.289  0.1993  0.0721 -0.0197
 1717W        W 2714   6.600   4.826   1.595  0.2206 -0.0561  0.1704
 1718W        W 2715   1.260   1.042   6.617  0.0877  0.0097  0.0991
 1719W        W 2716   6.966   7.323   6.007 -0.0719  0.0801 -0.1089
 1720W        W 2717   7.573   6.773   1.269 -0.2903  0.0121  0.0277
 1721W        W 2718   4.253   1.096   2.160 -0.2131  0.0227 -0.1879
 1722W        W 2719   6.855   6.176   4.521 -0.1750  0.2743  0.3602
 1723W        W 2720   3.443   4.179   0.625 -0.0756  0.1571 -0.2582
 1724W        W 2721   6.697   4.573   7.087  0.2524 -0.5047  0.0680
 1725W        W 2722   3.022   4.272   5.437  0.4099  0.0954  0.3059
 1726W        W 2723   4.215   3.247   1.511 -0.0539 -0.3071 -0.0773
 1727W        W 2724   1.014   4.984   1.617 -0.1741 -0.0757 -0.1475
 1728W        W 2725   3.557   0.139   2.806  0.0569 -0.0167  0.0171
 1729W        W 2726   2.681   0.320   6.382 -0.1393  0.0946  0.4030
 1730W        W 2727   3.854   2.285   6.568  0.1476  0.1678 -0.0163
 1731W        W 2728   4.089   5.538   4.172  0.0690  0.0810 -0.5903
 1732W        W 2729   0.243   6.412   5.389 -0.4136 -0.1482  0.3422
 1733W        W 2730   4.774   1.597   3.267 -0.0348  0.0679 -0.0517
 1734W        W 2731   0.041   4.647   1.639  0.1387 -0.3290  0.0126
 1735W        W 2732   0.185   6.889   5.198 -0.0863 -0.0220  0.1668
 1736W        W 2733   7.155   6.443   6.244 -0.1134  0.0168  0.3026
 1737W        W 2734   1.939   4.450   2.474 -0.0504 -0.0489  0.1632
 1738W        W 2735   7.333   3.109   3.757 -0.2963 -0.2931  0.0361
 1739W        W 2736   0.058   2.530   1.368 -0.2297 -0.0726 -0.0480
 1740W        W 2737   5.745   3.800   5.338 -0.3351 -0.0812 -0.1898
 1741W        W 2738   4.487   4.076   5.928 -0.0415 -0.1008  0.0154
 1742W        W 2739   7.046   2.571   2.163  0.0294  0.2544 -0.0820
 1743W        W 2740   0.762   1.774   5.991  0.1635  0.2590 -0.0005
 1744W        W 2741   6.716   2.983   0.571  0.0373 -0.1875  0.0542
 1745W        W 2742   3.515   6.678   4.791  0.0395 -0.0351 -0.1221
 1746W        W 2743   6.152   1.575   1.915 -0.2794  0.0357  0.0031
 1747W        W 2744   3.438   4.204   4.626  0.0648 -0.2395 -0.1205
 1748W        W 2745   6.485   0.795   7.185  0.2360  0.0222 -0.2752
 1749W        W 2746   1.410   4.108   3.620 -0.0182  0.1853 -0.3205
 1750W        W 2747   7.045   0.798   7.566  0.1267  0.1139 -0.3600
 1751W        W 2748   6.725   3.475   1.527 -0.2869  0.1629 -0.0061
 1752W        W 2749   1.571   3.210   6.051 -0.0009  0.2865 -0.3419
 1753W        W 2750   6.069   5.906   0.514 -0.0251  0.1864  0.0569
 1754W        W 2751   3.883   3.171   6.409 -0.2135  0.4709  0.2443
 1755W        W 2752   6.457   2.505   3.556  0.1018  0.2019  0.0286
 1756W        W 2753   2.678   4.578   0.193  0.0120  0.0306  0.1344
 1757W        W 2754   7.051   2.177   0.864 -0.4269 -0.1657  0.0384
 1758W        W 2755   7.014   1.798   0.393  0.2866  0.3075 -0.2424
 1759W        W 2756   0.789   6.454   0.510  0.1710  0.1095  0.0476
 1760W        W 2757   0.074   4.245   1.907  0.2112 -0.2112  0.1769
 1761W        W 2758   7.568   5.317   2.013  0.1023 -0.4001  0.2126
 1762W        W 2759   5.483   1.584   7.078  0.1312 -0.3430  0.0125
 1763W        W 2760   1.651   3.841   2.765 -0.1272 -0.0578  0.3178
 1764W        W 2761   0.006   4.979   5.912  0.2328  0.0253  0.2298
 1765W        W 2762   3.738   7.200   1.111 -0.0865 -0.4277  0.0027
 1766W        W 2763   1.481   6.720   2.527  0.0349  0.1535  0.1061
 1767W        W 2764   2.655   5.318   6.291 -0.1579 -0.0548 -0.2710
 1768W        W 2765   1.737   4.807   1.989 -0.1087 -0.3499 -0.0587
 1769W        W 2766   2.818   3.960   2.013  0.0283  0.2570  0.0554
 1770W        W 2767   5.761   6.972   2.751 -0.2601 -0.3421 -0.0602
 1771W        W 2768   7.306   2.790   6.931  0.2540 -0.1377  0.2616
 1772W        W 2769   2.681   3.633   7.562  0.0095 -0.4419 -0.3069
 1773W        W 2770   4.975   1.812   5.034 -0.0626  0.2175  0.0213
 1774W        W 2771   3.823   6.657   0.027  0.1580  0.1829 -0.0864
 1775W        W 2772   1.147   6.431   6.939 -0.1339 -0.0732 -0.1755
 1776W        W 2773   2.328   6.298   0.843  0.0281  0.2336 -0.0161
 1777W        W 2774   7.229   0.273   2.960 -0.0042 -0.0051  0.5044
 1778W        W 2775   3.435   7.134   2.153  0.0716  0.0797  0.1105
 1779W        W 2776   5.359   3.738   1.515 -0.2809 -0.0352  0.2022
 1780W        W 2777   7.441   1.786   3.684 -0.0983 -0.1723  0.4902
 1781W        W 2778   3.661   2.792   6.626 -0.2845 -0.0252  0.2341
 1782W        W 2779   7.485   4.658   6.305 -0.0697 -0.2233  0.1705
 1783W        W 2780   4.534   5.894   6.913 -0.1221  0.2931 -0.0376
 1784W        W 2781   6.130   2.925   2.228  0.3283  0.1611 -0.0349
 1785W        W 2782   2.982   6.029   1.604  0.0213 -0.1995 -0.0294
 1786W        W 2783   1.227   4.835   5.526 -0.2023  0.2019  0.0220
 1787W        W 2784   5.308   3.771   7.415 -0.0024 -0.4157  0.2703
 1788W        W 2785   6.352   6.643   3.920 -0.0329  0.0479 -0.1182
 1789W        W 2786   5.490   5.778   2.193  0.2130  0.2339  0.0280
 1790W        W 2787   2.480   3.914   2.838 -0.0724 -0.0299 -0.1804
 1791W        W 2788   7.252   4.761   1.126  0.0512  0.0377 -0.0626
 1792W        W 2789   0.594   0.995   5.760  0.1672 -0.1585 -0.2462
 1793W        W 2790   6.044   3.937   6.019  0.2393 -0.0619  0.1069
 1794W        W 2791   4.302   4.271   2.419 -0.1312 -0.4193  0.2439
 1795W        W 2792   7.568   4.411   3.606 -0.3734 -0.1517  0.1729
 1796W        W 2793   1.201   4.287   0.059 -0.0264  0.1636  0.0423
 1797W        W 2794   5.909   3.915   4.808  0.1271  0.3159 -0.2093
 1798W        W 2795   0.535   3.227   7.266 -0.2002  0.0406  0.1909
 1799W        W 2796   6.391   4.261   6.238 -0.0467  0.0529  0.1784
 1800W        W 2797   4.650   1.257   1.836  0.1565 -0.3622  0.0185
 1801W        W 2798   4.269   0.661   5.429 -0.0004 -0.0361 -0.0389
 1802W        W 2799   6.633   6.831   3.205  0.1078 -0.0944 -0.0316
 1803W        W 2800   3.668   4.633   4.535 -0.0745 -0.1108 -0.2368
 1804W        W 2801   4.056   1.044   0.051  0.2119  0.0528 -0.0647
 1805W        W 2802   5.668   1.070   3.261 -0.2126  0.1639 -0.0275
 1806W        W 2803   0.726   0.984   5.292 -0.0273  0.1119 -0.0701
 1807W        W 2804   5.530   7.485   0.844  0.0198  0.3860  0.2840
 1808W        W 2805   3.453   3.697   2.731 -0.1384  0.0543 -0.3607
 1809W        W 2806   7.524   3.965   5.818 -0.1364  0.0459  0.1495
 1810W        W 2807   3.785   1.999   3.908  0.1016 -0.0155 -0.2329
 1811W        W 2808   5.001   7.489   2.744 -0.0718 -0.2837 -0.3120
 1812W        W 2809   6.911   0.357   0.180  0.2460  0.3639  0.2536
 1813W        W 2810   2.837   2.948   5.045  0.4219 -0.0857  0.2302
 1814W        W 2811   3.144   1.085   6.687 -0.1723 -0.0867 -0.1006
 1815W        W 2812   1.030   0.030   4.116  0.1706 -0.1740 -0.0042
 1816W        W 2813   7.266   7.359   2.033  0.1531  0.0891 -0.1320
 1817W        W 2814   7.265   0.068   1.033  0.0491 -0.0434  0.1328
 1818W        W 2815   5.462   0.166   4.290 -0.0065  0.0362 -0.2967
 1819W        W 2816   0.675   0.176   2.746 -0.3624 -0.0053  0.2629
 1820W        W 2817   3.277   7.205   7.085 -0.0106 -0.4361  0.1546
 1821W        W 2818   4.883   4.972   1.346 -0.2686  0.0722 -0.3055
 1822W        W 2819   0.302   0.068   5.390  0.1832 -0.2132 -0.1378
 1823W        W 2820   3.997   6.317   3.115 -0.0900  0.2346  0.2313
 1824W        W 2821   1.507   7.652   4.029  0.1894  0.1377  0.0262
 1825W        W 2822   6.883   0.777   5.976 -0.1095 -0.3900  0.0161
 1826W        W 2823   3.657   5.505   0.453  0.0374  0.2137 -0.1559
 1827W        W 2824   7.465   4.725   5.535 -0.1433  0.0159 -0.0311
 1828W        W 2825   5.123   5.758   5.520 -0.0131 -0.0914 -0.1342
 1829W        W 2826   6.543   6.539   4.381  0.0253 -0.1864  0.1257
 1830W        W 2827   3.866   0.450   1.439  0.3782  0.3613 -0.0139
 1831W        W 2828   4.353   5.554   4.926 -0.1724 -0.1089 -0.2408
 1832W        W 2829   0.465   5.745   4.231 -0.0886 -0.0472 -0.0060
 1833W        W 2830   7.502   5.798   6.764 -0.0067  0.0358 -0.1049
 1834W        W 2831   2.547   5.743   6.493 -0.2854  0.0760 -0.1718
 1835W        W 2832   4.141   1.042   6.281  0.1556 -0.1219  0.0564
 1836W        W 2833   4.966   3.188   5.181 -0.0078  0.3432  0.0327
 1837W        W 2834   6.480   2.585   0.137 -0.0613  0.0503  0.4543
 1838W        W 2835   1.918   5.652   2.473 -0.0757 -0.0980 -0.0801
 1839W        W 2836   5.603   7.363   3.946  0.2749  0.0073 -0.2028
 1840W        W 2837   4.154   2.503   3.349  0.2024  0.1188  0.2572
 1841W        W 2838   3.759   1.392   6.427  0.1195 -0.1884 -0.1222
 1842W        W 2839   3.837   6.350   3.668 -0.0583  0.1753  0.0625
 1843W        W 2840   4.352   4.258   1.800  0.0358 -0.0519 -0.1925
 1844W        W 2841   4.609   1.491   5.736  0.0549  0.2547 -0.0013
 1845W        W 2842   7.153   3.822   0.845 -0.1204 -0.0437 -0.1543
 1846W        W 2843   5.966   4.621   5.573  0.2467  0.0030  0.0294
 1847W        W 2844   0.303   0.208   3.650 -0.0309  0.0972 -0.0245
 1848W        W 2845   2.882   4.701   5.205 -0.0613  0.1873 -0.2111
 1849W        W 2846   6.545   1.802   0.599  0.0658  0.0414 -0.2903
 1850W        W 2847   3.632   5.917   0.134  0.0914  0.0615  0.1146
 1851W        W 2848   2.577   4.478   6.467 -0.3351  0.1808 -0.0266
 1852W        W 2849   0.623   5.502   4.663  0.1616 -0.0705  0.0619
 1853W        W 2850   1.258   5.768   7.455 -0.0926 -0.1535  0.0940
 1854W        W 2851   3.231   4.918   7.329  0.0119 -0.0594 -0.2236
 1855W        W 2852   6.206   6.145   7.322 -0.1181  0.1071 -0.0681
 1856W        W 2853   4.389   2.278   6.242  0.3457 -0.0847  0.0347
 1857W        W 2854   3.427   0.162   3.554 -0.0613 -0.1548  0.1344
 1858W        W 2855   5.910   3.360   4.793 -0.2417  0.0618  0.4281
 1859W        W 2856   4.655   3.794   6.488  0.0970  0.0540  0.0055
 1860W        W 2857   0.491   1.247   4.582 -0.4234  0.0961 -0.4085
 1861W        W 2858   7.379   2.439   2.971 -0.2562 -0.0482 -0.5199
 1862W        W 2859   5.764   0.978   0.419 -0.0925 -0.2517  0.3550
 1863W        W 2860   5.538   2.321   4.980  0.4050  0.1337  0.0395
 1864W        W 2861   4.833   3.498   2.572  0.0693  0.0741 -0.0278
 1865W        W 2862   0.143   6.071   1.959  0.1008  0.0039  0.0674
 1866W        W 2863   2.799   7.427   7.266 -0.1221  0.0276 -0.1938
 1867W        W 2864   6.252   4.579   1.833  0.2343  0.2274  0.1176
 1868W        W 2865   7.482   1.912   4.881  0.0295  0.1719 -0.0436
 1869W        W 2866   0.072   1.472   6.852 -0.1112 -0.1065  0.1981
 1870W        W 2867   4.193   4.596   3.762 -0.0233 -0.0725  0.1977
 1871W        W 2868   0.122   1.492   3.917 -0.0249  0.3462  0.3584
 1872W        W 2869   6.792   2.595   0.896  0.2453  0.1772 -0.1529
 1873W        W 2870   5.598   1.045   4.918  0.1008 -0.0909 -0.2669
 1874W        W 2871   5.897   1.598   7.316 -0.0042 -0.1816  0.2059
 1875W        W 2872   0.404   4.457   5.455  0.2914  0.1716  0.2680
 1876W        W 2873   4.318   7.659   2.560 -0.2503 -0.1048 -0.0502
 1877W        W 2874   2.136   3.503   2.739  0.0874  0.1048 -0.3493
 1878W        W 2875   3.870   2.266   6.031  0.0355  0.0151  0.1424
 1879W        W 2876   0.590   2.834   6.018 -0.0163  0.3563  0.0612
 1880W        W 2877   3.893   7.407   2.689 -0.0507  0.1559 -0.0054
 1881W        W 2878   4.118   3.099   4.031  0.0207 -0.3083  0.1375
 1882W        W 2879   6.851   3.448   0.988 -0.1528 -0.0786 -0.4978
 1883W        W 2880   6.260   3.969   6.968 -0.2138  0.1119 -0.1573
 1884W        W 2881   3.664   2.362   3.634 -0.0297 -0.0916 -0.0591
 1885W        W 2882   0.597   1.067   7.459  0.3620 -0.4384  0.0271
 1886W        W 2883   5.865   2.675   1.781 -0.0453 -0.4227 -0.1624
 1887W        W 2884   0.227   1.873   0.100 -0.0292 -0.2534 -0.0490
 1888W        W 2885   2.597   4.552   6.986 -0.1136  0.0542  0.1627
 1889W        W 2886   7.164   3.294   5.346 -0.0669 -0.0378  0.2076
 1890W        W 2887   0.673   7.078   4.914  0.2554 -0.3380  0.0156
 1891W        W 2888   5.873   1.297   6.739 -0.1057  0.2965 -0.0175
 1892W        W 2889   0.457   0.258   3.171 -0.2205  0.0980 -0.2091
 1893W        W 2890   1.566   3.872   7.642 -0.4606 -0.0021 -0.1094
 1894W        W 2891   0.410   6.634   0.797 -0.1575 -0.0482  0.4276
 1895W        W 2892   5.078   3.266   1.583 -0.0109  0.0111 -0.1739
 1896W        W 2893   6.800   2.784   7.240  0.1212 -0.1145  0.0666
 1897W        W 2894   7.572   3.466   0.433 -0.2270 -0.0307 -0.0192
 1898W        W 2895   2.727   3.887   3.603  0.0973 -0.2765 -0.1064
 1899W        W 2896   7.020   4.522   3.215  0.2818  0.0595  0.1920
 1900W        W 2897   5.620   0.598   1.593 -0.0606  0.4906  0.0849
 1901W        W 2898   4.806   3.326   3.890  0.2219 -0.0588  0.3120
 1902W        W 2899   0.515   0.418   1.440 -0.2363  0.1502 -0.1827
 1903W        W 2900   1.129   7.394   5.243 -0.3085  0.0072 -0.3325
 1904W        W 2901   6.133   3.600   5.646 -0.3633  0.1020 -0.0189
 1905W        W 2902   4.971   1.023   4.101  0.0732 -0.1859 -0.0502
 1906W        W 2903   6.366   5.720   7.182 -0.0157 -0.1820  0.1512
 1907W        W 2904   6.767   1.916   7.307 -0.2596 -0.5340 -0.1885
 1908W        W 2905   1.028   3.937   4.385 -0.0324 -0.0025  0.2033
 1909W        W 2906   3.607   1.179   5.407  0.1042  0.0931 -0.1041
 1910W        W 2907   7.525   2.686   1.970 -0.2213 -0.2406  0.1002
 1911W        W 2908   4.093   6.394   0.450  0.2135 -0.3817  0.0349
 1912W        W 2909   6.218   5.080   5.644 -0.1264 -0.1197 -0.2354
 1913W        W 2910   2.746   5.545   2.556 -0.3075  0.0499 -0.3735
 1914W        W 2911   6.955   0.447   0.905  0.0157  0.2338  0.1624
 1915W        W 2912   7.256   5.178   5.685  0.2001 -0.1451 -0.1526
 1916W        W 2913   4.967   6.453   2.872 -0.0420 -0.0403  0.0779
 1917W        W 2914   3.953   5.989   1.921  0.1475 -0.0802  0.2346
 1918W        W 2915   2.817   6.495   0.595 -0.2325  0.1529  0.0871
 1919W        W 2916   2.511   7.568   5.441  0.0837 -0.0400 -0.1576
 1920W        W 2917   1.339   6.080   1.988 -0.0498  0.2944  0.0893
 1921W        W 2918   6.507   2.015   1.838  0.1298  0.1047  0.0150
 1922W        W 2919   6.935   6.430   3.307  0.4179  0.0790  0.2559
 1923W        W 2920   2.389   7.136   7.090  0.1263  0.0833 -0.3466
 1924W        W 2921   4.520   2.823   2.143  0.2172  0.3528 -0.0304
 1925W        W 2922   3.577   5.150   0.830  0.0910  0.0791 -0.1693
 1926W        W 2923   0.153   2.138   5.282  0.1785  0.0872 -0.0504
 1927W        W 2924   4.305   0.454   2.156 -0.0219  0.3944 -0.1451
 1928W        W 2925   4.095   4.488   4.292 -0.0298 -0.0035 -0.0917
 1929W        W 2926   2.804   5.405   0.570  0.4642 -0.1198 -0.0487
 1930W        W 2927   5.857   7.214   4.484  0.1504  0.0831 -0.1744
 1931W        W 2928   4.086   0.661   4.206  0.0578  0.0936  0.0436
 1932W        W 2929   2.093   3.612   5.934  0.1292 -0.2192  0.2367
 1933W        W 2930   0.646   3.005   5.510  0.1783  0.3229 -0.0347
 1934W        W 2931   2.391   4.398   2.820 -0.0897 -0.1001  0.0564
 1935W        W 2932   4.630   1.015   6.753  0.1817 -0.1322 -0.2663
 1936W        W 2933   4.796   4.174   0.808 -0.1462 -0.0246 -0.2828
 1937W        W 2934   6.083   1.631   0.845  0.2026  0.2405  0.1335
 1938W        W 2935   4.981   4.683   6.965  0.0684  0.3321  0.1227
 1939W        W 2936   5.732   6.948   3.529  0.0345 -0.1421 -0.1760
 1940W        W 2937   0.053   6.503   7.543 -0.1419 -0.2735 -0.1698
 1941W        W 2938   4.690   7.468   3.208 -0.2420  0.3047  0.1803
 1942W        W 2939   5.724   1.378   5.365  0.1146 -0.1327  0.2984
 1943W        W 2940   3.006   2.531   4.841  0.0837 -0.0510 -0.1350
 1944W        W 2941   1.408   4.603   1.627 -0.0306  0.0268 -0.0974
 1945W        W 2942   7.525   0.055   5.689 -0.2850 -0.1467 -0.0701
 1946W        W 2943   6.997   6.682   4.622  0.0300 -0.1251  0.0702
 1947W        W 2944   1.710   7.161   0.167  0.1536 -0.0856  0.0213
 1948W        W 2945   0.891   1.873   6.472 -0.2307  0.0804  0.0766
 1949W        W 2946   7.487   1.678   4.303  0.2233 -0.0834  0.3307
 1950W        W 2947   0.520   4.768   4.495 -0.1246  0.2749 -0.2774
 1951W        W 2948   3.479   0.155   6.864 -0.0263  0.4468  0.1330
 1952W        W 2949   3.566   4.245   1.705 -0.0369 -0.3173 -0.1939
 1953W        W 2950   3.800   7.449   2.166 -0.3381 -0.2568  0.1834
 1954W        W 2951   0.703   1.958   5.211  0.1929  0.1412 -0.0138
 1955W        W 2952   3.688   4.615   5.628  0.1728  0.0701  0.1706
 1956W        W 2953   5.473   7.216   4.842 -0.1264  0.4306 -0.2845
 1957W        W 2954   2.691   5.720   5.431 -0.1593  0.1619 -0.0772
 1958W        W 2955   6.277   0.028   3.757  0.1936 -0.3252 -0.0635
 1959W        W 2956   0.281   1.361   0.117 -0.0729 -0.0755  0.0426
 1960W        W 2957   0.023   3.281   2.007 -0.1194  0.0498  0.1042
 1961W        W 2958   6.451   4.641   5.399  0.0792 -0.0326 -0.2412
 1962W        W 2959   5.092   2.538   6.503  0.1787 -0.3091 -0.3027
 1963W        W 2960   3.048   4.366   6.959  0.0399  0.1929  0.0021
 1964W        W 2961   4.482   4.799   2.578  0.2000  0.2319  0.1384
 1965W        W 2962   2.154   4.644   0.222 -0.0388 -0.1784 -0.0147
 1966W        W 2963   0.656   7.334   1.071  0.0765  0.0232  0.1099
 1967W        W 2964   0.564   3.443   3.712  0.0391  0.2662 -0.0500
 1968W        W 2965   4.605   6.712   5.787 -0.2737  0.1200  0.2468
 1969W        W 2966   3.494   5.952   1.687 -0.1588 -0.0099  0.2127
 1970W        W 2967   6.435   6.349   3.078 -0.2007 -0.2328  0.0137
 1971W        W 2968   7.456   1.942   1.755 -0.0269  0.3318  0.0158
 1972W        W 2969   7.427   2.643   3.939  0.0772  0.0860  0.0731
 1973W        W 2970   6.463   7.561   5.924  0.1579 -0.0411 -0.3544
 1974W        W 2971   6.655   2.185   4.925 -0.1350 -0.0205  0.1228
 1975W        W 2972   1.769   7.009   3.573 -0.3261  0.2474  0.1522
 1976W        W 2973   4.723   4.423   2.247  0.1307 -0.1234  0.0219
 1977W        W 2974   4.444   2.643   7.169  0.0910  0.3678 -0.1671
 1978W        W 2975   3.312   0.423   3.135  0.1455 -0.0299  0.1565
 1979W        W 2976   6.896   3.143   2.607  0.0471  0.0476  0.1689
 1980W        W 2977   4.800   0.082   7.468 -0.0574 -0.1295  0.1023
 1981W        W 2978   0.065   0.603   6.487  0.0176 -0.1127 -0.0934
 1982W        W 2979   4.073   3.439   2.802  0.1206 -0.1826  0.1819
 1983W        W 2980   1.860   3.778   3.839  0.2812  0.0243  0.0952
 1984W        W 2981   7.562   7.035   0.830  0.0479 -0.1890 -0.4957
 1985W        W 2982   5.066   0.541   4.299 -0.0438 -0.1567 -0.0026
 1986W        W 2983   6.034   7.518   7.549 -0.1581  0.3671  0.1561
 1987W        W 2984   4.609   3.562   6.028  0.0221  0.2402  0.0819
 1988W        W 2985   2.286   4.033   3.767 -0.1587 -0.0671 -0.5572
 1989W        W 2986   6.603   7.256   5.451 -0.2914 -0.1570 -0.1114
 1990W        W 2987   2.292   0.086   6.474 -0.3430  0.1896  0.1335
 1991W        W 2988   5.616   1.333   6.261 -0.2223  0.1451  0.2029
 1992W        W 2989   3.689   7.044   6.501  0.0674 -0.2158  0.1629
 1993W        W 2990   4.911   2.843   3.915 -0.2447  0.2316  0.2083
 1994W        W 2991   1.569   7.086   5.258  0.2091 -0.0713 -0.0170
 1995W        W 2992   6.462   3.471   4.110  0.4555 -0.1683 -0.3820
 1996W        W 2993   5.436   5.478   5.805  0.1859  0.0220 -0.0531
 1997W        W 2994   2.197   0.303   6.035 -0.1840 -0.1509 -0.3058
 1998W        W 2995   7.027   4.993   3.398 -0.0226  0.1197  0.3786
 1999W        W 2996   5.850   0.158   6.807 -0.1149 -0.0789  0.2857
 2000W        W 2997   4.302   4.829   1.510 -0.0077  0.1891  0.2437
 2001W        W 2998   0.393   4.345   1.240  0.0565  0.4223 -0.3010
 2002W        W 2999   4.557   4.663   7.629  0.1653 -0.0981 -0.5411
 2003W        W 3000   6.902   6.440   3.985 -0.1225 -0.2387 -0.1091
 2004W        W 3001   0.609   4.052   5.737 -0.0323  0.1450 -0.1080
 2005W        W 3002   7.365   2.911   1.568 -0.0991  0.0351  0.2193
 2006W        W 3003   1.622   6.195   6.319  0.0022  0.3341  0.3589
 2007W        W 3004   5.394   4.844   7.168  0.2590 -0.0173  0.0571
 2008W        W 3005   4.123   1.081   3.609 -0.0684  0.0417 -0.0202
 2009W        W 3006   0.868   4.300   6.915  0.3504  0.1177  0.0238
 2010W        W 3007   5.429   6.274   6.795  0.2499 -0.0991 -0.1072
 2011W        W 3008   3.341   3.395   4.797  0.3257  0.0078  0.3733
 2012W        W 3009   1.833   7.666   2.929 -0.0394  0.4729 -0.0623
 2013W        W 3010   4.555   1.675   4.665 -0.1906 -0.2001 -0.2514
 2014W        W 3011   2.851   7.216   2.786  0.2774  0.0188 -0.1027
 2015W        W 3012   5.902   4.767   6.700  0.0716 -0.2160  0.0948
 2016W        W 3013   4.263   3.210   3.256 -0.0122  0.0610 -0.0985
 2017W        W 3014   0.925   2.868   4.505 -0.1327  0.0437 -0.0367
 2018W        W 3015   2.550   1.005   3.443 -0.2018 -0.0086 -0.1742
 2019W        W 3016   5.613   1.270   3.970 -0.1330  0.7392 -0.2557
 2020W        W 3017   1.182   2.832   4.055  0.1052 -0.2026  0.1546
 2021W        W 3018   5.878   3.751   6.710 -0.0399  0.1102  0.2800
 2022W        W 3019   6.348   0.081   2.942 -0.1424  0.1908  0.1067
 2023W        W 3020   0.170   3.978   4.344  0.0510 -0.1060 -0.2158
 2024W        W 3021   3.779   5.197   7.289  0.0747  0.0096 -0.2254
 2025W        W 3022   7.648   3.244   5.101  0.0074 -0.1260  0.0732
 2026W        W 3023   4.003   5.796   1.315  0.1365  0.2401 -0.3350
 2027W        W 3024   6.533   4.096   2.556 -0.1919  0.0718  0.2736
 2028W        W 3025   1.789   6.818   2.008 -0.3123 -0.0707  0.1185
 2029W        W 3026   4.493   5.862   3.955  0.1564  0.2485 -0.1971
 2030W        W 3027   5.044   4.189   5.756  0.4001  0.1978  0.1711
 2031W        W 3028   3.316   3.058   5.725  0.0238  0.1004 -0.1676
 2032W        W 3029   4.021   5.131   2.657  0.0847 -0.1645 -0.0279
 2033W        W 3030   5.463   2.132   0.912 -0.0862  0.1704  0.0954
 2034W        W 3031   0.568   5.534   0.711  0.0914  0.1056 -0.2545
 2035W        W 3032   5.808   3.333   0.928  0.0738 -0.0594 -0.1759
 2036W        W 3033   5.966   1.413   2.435 -0.0086 -0.0206  0.1465
 2037W        W 3034   7.434   3.390   0.890  0.1088 -0.2839 -0.0652
 2038W        W 3035   5.752   6.032   1.808  0.2787  0.1383 -0.0046
 2039W        W 3036   2.543   6.005   1.180  0.0679  0.0417 -0.4176
 2040W        W 3037   0.357   1.676   7.318  0.1019  0.2259 -0.3593
 2041W        W 3038   7.509   7.582   1.614  0.2472 -0.0602 -0.2339
 2042W        W 3039   0.646   3.193   5.062 -0.0046  0.2843  0.0332
 2043W        W 3040   5.815   5.585   1.408 -0.0051 -0.3663 -0.0537
 2044W        W 3041   2.693   6.139   6.228 -0.0022  0.1501 -0.1252
 2045W        W 3042   5.120   3.288   5.971  0.2420 -0.2501 -0.0329
 2046W        W 3043   4.200   2.720   5.119 -0.1115 -0.0493 -0.1176
 2047W        W 3044   1.592   1.465   4.524 -0.0754 -0.1142  0.1827
 2048W        W 3045   7.353   0.956   6.393 -0.4630  0.1125 -0.0796
 2049W        W 3046   0.528   6.540   4.856 -0.0235  0.1438  0.1044
 2050W        W 3047   4.820   2.920   4.373  0.2508 -0.0298  0.1825
 2051W        W 3048   5.715   2.848   4.901 -0.1361 -0.1926  0.0596
 2052W        W 3049   5.266   1.254   7.418 -0.1017  0.1743  0.0594
 2053W        W 3050   0.497   2.292   7.558  0.0763 -0.1286  0.0495
 2054W        W 3051   4.251   0.371   1.123 -0.0095  0.0824 -0.1335
 2055W        W 3052   4.469   6.231   0.686  0.3175 -0.1029  0.1286
 2056W        W 3053   1.896   4.113   4.289 -0.0433 -0.0952  0.1489
 2057W        W 3054   2.462   2.047   5.623  0.0270 -0.0284 -0.2911
 2058W        W 3055   2.827   5.348   4.007 -0.1345  0.1086  0.2150
 2059W        W 3056   3.693   5.071   1.636  0.2179 -0.2561  0.2093
 2060W        W 3057   5.392   1.795   1.327 -0.4028 -0.3843  0.2013
 2061W        W 3058   2.906   3.962   7.244 -0.2474  0.2191  0.1202
 2062W        W 3059   1.556   5.714   4.779 -0.0243  0.0218 -0.3243
 2063W        W 3060   5.590   2.543   7.534  0.0109 -0.0283  0.4201
 2064W        W 3061   0.632   0.604   6.190  0.1725  0.0332 -0.3430
 2065W        W 3062   5.428   6.766   5.061 -0.1119  0.2143 -0.0862
 2066W        W 3063   6.602   7.343   3.775  0.1103 -0.1356  0.3514
 2067W        W 3064   7.558   1.923   0.833 -0.1002 -0.0377  0.1642
 2068W        W 3065   6.446   0.888   2.079  0.0042  0.0936 -0.0074
 2069W        W 3066   6.013   0.177   1.868 -0.1570  0.2306 -0.2486
 2070W        W 3067   2.054   1.579   5.892 -0.2147 -0.0286  0.1722
 2071W        W 3068   4.508   0.230   3.184 -0.1151 -0.2926 -0.0930
 2072W        W 3069   4.133   2.849   2.944 -0.0954  0.1902  0.0418
 2073W        W 3070   1.433   5.468   3.319 -0.0840 -0.0308 -0.1749
 2074W        W 3071   4.199   7.545   3.041  0.0228 -0.2329  0.0595
 2075W        W 3072   2.562   0.171   4.929 -0.2086  0.3644  0.0863
 2076W        W 3073   1.440   5.356   7.631 -0.0899 -0.0057  0.0591
 2077W        W 3074   2.219   5.751   4.164  0.2393  0.3224 -0.1105
 2078W        W 3075   5.682   6.995   6.323  0.0029  0.1427 -0.0766
 2079W        W 3076   5.770   4.387   0.738 -0.1691 -0.2465  0.0653
 2080W        W 3077   2.206   0.199   4.558 -0.0341 -0.1134  0.0115
 2081W        W 3078   0.819   1.372   5.026 -0.1419 -0.3386  0.0923
 2082W        W 3079   0.557   6.612   6.199 -0.1426 -0.1850 -0.1652
 2083W        W 3080   0.091   4.839   0.216 -0.0880  0.2092  0.0227
 2084W        W 3081   4.869   7.185   5.744  0.0438 -0.0278  0.3492
 2085W        W 3082   5.121   1.520   5.445  0.1067  0.0247 -0.2786
 2086W        W 3083   0.832   2.226   4.747  0.0755 -0.1935 -0.1311
 2087W        W 3084   0.104   4.552   0.622 -0.2791  0.1721 -0.1649
 2088W        W 3085   7.207   3.908   5.122  0.1219  0.0219  0.0068
 2089W        W 3086   6.714   1.586   1.473 -0.2238 -0.1651  0.2017
 2090W        W 3087   1.879   6.550   2.782  0.0148 -0.2035 -0.0187
 2091W        W 3088   0.851   4.239   1.277 -0.0202  0.4646  0.1071
 2092W        W 3089   3.688   7.115   1.730  0.0826  0.3064  0.2509
 2093W        W 3090   4.647   2.440   3.811 -0.0243 -0.0890 -0.0276
 2094W        W 3091   1.426   1.493   5.772 -0.0014  0.0081 -0.1319
 2095W        W 3092   7.128   7.305   6.723  0.1507  0.0140  0.0480
 2096W        W 3093   5.222   6.995   0.936 -0.1636 -0.0296 -0.1087
 2097W        W 3094   1.642   5.009   3.238  0.0457 -0.0312 -0.1208
 2098W        W 3095   1.138   1.217   5.423  0.0381 -0.2285  0.0573
 2099W        W 3096   2.408   6.424   1.455 -0.1887  0.1933  0.0763
 2100W        W 3097   5.432   0.883   2.095  0.2075  0.2547  0.0535
 2101W        W 3098   2.342   2.801   6.648 -0.3142  0.2934 -0.2008
 2102W        W 3099   1.711   0.410   4.342 -0.2621  0.2305 -0.0574
 2103W        W 3100   6.275   3.075   5.217 -0.0711 -0.0706  0.1303
 2104W        W 3101   0.781   5.020   7.246  0.0472  0.3444  0.3274
 2105W        W 3102   6.061   4.172   1.569  0.0346  0.1635  0.0489
 2106W        W 3103   1.804   5.812   2.007 -0.5587  0.0064 -0.4512
 2107W        W 3104   6.497   0.188   4.181  0.5885 -0.2589  0.0796
 2108W        W 3105   0.600   1.582   5.513 -0.1509 -0.0866  0.1233
 2109W        W 3106   5.028   7.499   5.222 -0.1371 -0.0296 -0.1528
 2110W        W 3107   2.862   6.499   1.648  0.1013  0.2521  0.0450
 2111W        W 3108   0.166   1.595   1.693  0.0234 -0.0281 -0.1437
 2112W        W 3109   1.243   0.639   5.254  0.1064  0.2575 -0.0037
 2113W        W 3110   3.762   5.078   0.254 -0.0742  0.2375  0.2965
 2114W        W 3111   2.148   4.394   6.770 -0.0056 -0.0850 -0.0777
 2115W        W 3112   0.201   6.060   7.400 -0.2780  0.1322  0.0543
 2116W        W 3113   3.803   1.771   5.974  0.2458  0.4033 -0.1305
 2117W        W 3114   3.142   5.981   5.237  0.1652 -0.1422 -0.0374
 2118W        W 3115   2.742   2.592   6.259 -0.2250 -0.0189  0.2415
 2119W        W 3116   6.693   3.148   4.377 -0.0891 -0.0726 -0.2700
 2120W        W 3117   2.075   3.529   4.876  0.0043 -0.0518 -0.2460
 2121W        W 3118   2.694   2.926   5.864  0.0547 -0.3137  0.1478
 2122W        W 3119   3.970   1.988   3.379 -0.3766 -0.1831  0.2226
 2123W        W 3120   0.850   5.912   0.059 -0.1021  0.1414 -0.0248
 2124W        W 3121   6.037   3.107   5.756 -0.0008  0.2729 -0.0795
 2125W        W 3122   3.463   7.622   0.859  0.0119  0.1803 -0.0509
 2126W        W 3123   7.274   3.300   3.272 -0.0879  0.0714  0.0929
 2127W        W 3124   0.896   6.661   0.056  0.1161 -0.1814 -0.0618
 2128W        W 3125   4.998   6.869   6.192 -0.0562  0.0043 -0.3030
 2129W        W 3126   7.589   6.784   2.558 -0.0323  0.1772  0.1415
 2130W        W 3127   5.252   5.370   1.307 -0.1088 -0.3047  0.0804
 2131W        W 3128   5.705   6.048   3.447 -0.0029  0.0147  0.0921
 2132W        W 3129   3.031   2.022   4.867  0.0286  0.1400 -0.1640
 2133W        W 3130   4.058   5.951   5.989  0.1537 -0.1765 -0.1928
 2134W        W 3131   3.930   0.515   6.972 -0.3024 -0.3783  0.0947
 2135W        W 3132   6.185   0.870   2.502 -0.4783  0.1757  0.1455
 2136W        W 3133   0.150   5.171   2.899 -0.0442  0.2042  0.2562
 2137W        W 3134   5.106   1.473   4.480 -0.0224 -0.0432 -0.1004
 2138W        W 3135   6.400   4.191   0.212 -0.0395 -0.0213  0.3821
 2139W        W 3136   5.881   1.963   1.140 -0.1179 -0.1283  0.3447
 2140W        W 3137   7.346   0.364   1.471  0.0753  0.3254  0.1980
 2141W        W 3138   3.381   6.369   1.434  0.1426  0.0658 -0.2235
 2142W        W 3139   2.464   5.316   6.796  0.3777  0.0480  0.3885
 2143W        W 3140   5.747   2.788   5.508  0.0509  0.1229  0.0292
 2144W        W 3141   0.087   1.164   1.462  0.1766  0.1303 -0.1958
 2145W        W 3142   1.780   5.834   7.265 -0.0560 -0.2053 -0.0031
 2146W        W 3143   2.338   7.040   3.209  0.1670 -0.2258 -0.0277
 2147W        W 3144   4.433   0.449   0.624 -0.1219 -0.0180  0.2142
 2148W        W 3145   4.569   3.734   0.789 -0.2130  0.2658 -0.2173
 2149W        W 3146   6.859   5.636   2.158 -0.0908  0.2132  0.2921
 2150W        W 3147   0.705   1.809   0.080 -0.0735  0.2152  0.2451
 2151W        W 3148   3.874   5.857   4.714  0.1765 -0.3135  0.0822
 2152W        W 3149   0.431   7.076   6.565 -0.0588 -0.1093 -0.0745
 2153W        W 3150   4.705   5.227   3.482  0.2842  0.1091 -0.0440
 2154W        W 3151   2.816   6.573   6.439  0.0894 -0.0442 -0.1694
 2155W        W 3152   0.396   5.985   1.013  0.1780 -0.1176  0.0945
 2156W        W 3153   7.605   5.081   7.384 -0.3254 -0.1119 -0.0282
 2157W        W 3154   5.220   5.610   6.404  0.0934 -0.0146  0.0089
 2158W        W 3155   1.639   0.889   5.328  0.4471  0.1806  0.1926
 2159W        W 3156   4.447   5.631   0.001  0.1223  0.0313 -0.3510
 2160W        W 3157   7.244   0.655   4.491 -0.0794 -0.0193  0.2881
 2161W        W 3158   4.536   3.088   5.123 -0.1499  0.3425  0.2087
 2162W        W 3159   2.777   5.428   1.105 -0.2160  0.0104 -0.0520
 2163W        W 3160   5.063   2.315   3.448 -0.1249 -0.0416  0.1510
 2164W        W 3161   3.377   7.559   7.407  0.2157  0.0303 -0.1212
 2165W        W 3162   4.636   0.807   5.010 -0.0834  0.1132  0.0370
 2166W        W 3163   0.923   2.559   5.529 -0.1340  0.0495 -0.4462
 2167W        W 3164   4.084   1.726   4.687 -0.1324 -0.2941 -0.3105
 2168W        W 3165   7.632   1.209   0.494  0.0219 -0.1447 -0.2139
 2169W        W 3166   1.168   4.922   3.004  0.1886  0.0726  0.0779
 2170W        W 3167   0.008   1.420   4.763  0.1944 -0.1115  0.3738
 2171W        W 3168   6.369   0.992   3.255  0.1184  0.1179  0.0110
 2172W        W 3169   3.319   5.341   7.084 -0.0407  0.0338  0.1685
 2173W        W 3170   6.916   0.653   3.115  0.0114  0.2119 -0.0689
 2174W        W 3171   1.311   4.167   1.348 -0.2305 -0.3974  0.0423
 2175W        W 3172   1.182   0.526   3.516 -0.1294 -0.1093 -0.1226
 2176W        W 3173   5.038   4.877   0.389  0.0421  0.0213 -0.2178
 2177W        W 3174   1.744   2.148   6.410  0.1989 -0.0039 -0.3737
 2178W        W 3175   3.991   5.806   3.171 -0.0439  0.2161 -0.1809
 2179W        W 3176   2.944   0.224   3.376 -0.1956  0.0411 -0.1439
 2180W        W 3177   6.750   0.185   3.195  0.0850  0.1464  0.2318
 2181W        W 3178   0.909   5.359   7.605 -0.2813  0.0226 -0.0092
 2182W        W 3179   4.257   2.160   3.753 -0.2877  0.0136 -0.1026
 2183W        W 3180   3.008   5.431   1.595 -0.0750 -0.0842 -0.0001
 2184W        W 3181   2.944   1.738   5.811  0.0630  0.0962 -0.2264
 2185W        W 3182   2.321   0.928   5.658  0.2289  0.1965  0.1488
 2186W        W 3183   2.894   4.285   4.477 -0.0288 -0.0016 -0.0109
 2187W        W 3184   4.764   7.113   0.416 -0.0967 -0.2906  0.1185
 2188W        W 3185   3.530   0.053   4.021 -0.0851 -0.2713  0.1462
 2189W        W 3186   6.321   2.743   2.697 -0.1068 -0.1089 -0.0987
 2190W        W 3187   0.088   5.401   2.453 -0.2499 -0.1525  0.1116
 2191W        W 3188   7.370   7.271   1.281  0.1610 -0.2952  0.1698
 2192W        W 3189   6.750   6.649   1.468  0.2489 -0.0021 -0.1716
 2193W        W 3190   1.148   6.489   4.362  0.0734  0.0766 -0.0524
 2194W        W 3191   2.140   2.719   5.185  0.3713 -0.3323  0.3238
 2195W        W 3192   4.387   2.638   2.552  0.0534  0.1495 -0.0667
 2196W        W 3193   0.959   0.265   6.035  0.0242  0.1676  0.1793
 2197W        W 3194   2.642   0.669   5.295  0.3645 -0.0233  0.2593
 2198W        W 3195   2.788   3.559   6.478 -0.1862 -0.2247  0.0373
 2199W        W 3196   4.746   0.233   2.044  0.0873  0.0089 -0.0774
 2200W        W 3197   4.174   2.899   6.760 -0.2062 -0.0457  0.0768
 2201W        W 3198   2.017   4.075   2.941 -0.1216  0.3242  0.1150
 2202W        W 3199   5.459   0.140   1.495  0.0399  0.0817  0.0639
 2203W        W 3200   0.650   0.166   0.940 -0.0116 -0.2221 -0.4301
 2204W        W 3201   1.985   6.024   3.636 -0.2615  0.1955  0.2659
 2205W        W 3202   7.007   5.019   2.008  0.3045  0.2987  0.1437
 2206W        W 3203   3.446   5.420   1.307  0.0831 -0.4190  0.2722
 2207W        W 3204   4.713   6.285   1.641 -0.0400  0.0442  0.2195
 2208W        W 3205   5.892   6.466   2.347  0.2775 -0.0442  0.0520
 2209W        W 3206   4.643   6.249   3.409  0.2156  0.0544  0.2458
 2210W        W 3207   5.027   0.288   5.061 -0.0379  0.2729  0.1380
 2211W        W 3208   0.895   6.171   6.060  0.0611 -0.1460  0.0631
 2212W        W 3209   4.006   0.346   3.032 -0.1742  0.0804  0.1641
 2213W        W 3210   6.109   5.538   4.594 -0.3592 -0.0548 -0.1155
 2214W        W 3211   6.408   5.712   2.752  0.2885 -0.1422 -0.2429
 2215W        W 3212   2.074   4.398   5.577 -0.2603 -0.0315 -0.2888
 2216W        W 3213   5.281   1.697   0.509 -0.1375 -0.2492  0.1471
 2217W        W 3214   1.684   4.476   7.588  0.2564  0.0060 -0.1419
 2218W        W 3215   7.126   2.037   3.155 -0.1012  0.0012 -0.2395
 2219W        W 3216   7.608   0.977   6.832 -0.1390 -0.2635  0.1362
 2220W        W 3217   7.397   0.968   5.859 -0.0608  0.0351  0.1718
 2221W        W 3218   3.973   6.747   5.732 -0.4841 -0.0621  0.0739
 2222W        W 3219   4.936   7.583   0.705 -0.2663  0.0253  0.0849
 2223W        W 3220   3.442   4.151   2.812  0.0729 -0.1186  0.3220
 2224W        W 3221   7.555   3.921   3.932  0.1096  0.0081 -0.2335
 2225W        W 3222   7.133   4.931   7.192  0.1129 -0.0227  0.1992
 2226W        W 3223   6.763   1.321   5.563 -0.0634  0.0317 -0.0531
 2227W        W 3224   4.326   0.143   1.568  0.0433  0.1119 -0.0294
 2228W        W 3225   5.710   1.114   7.225  0.0444 -0.1138  0.0228
 2229W        W 3226   4.326   6.892   5.331 -0.0924  0.2531 -0.1772
 2230W        W 3227   0.521   7.005   3.854 -0.3050 -0.0986  0.0134
 2231W        W 3228   7.531   5.335   6.322  0.0750  0.3588 -0.1359
 2232W        W 3229   3.583   7.436   4.424  0.2032 -0.0498 -0.1258
 2233W        W 3230   6.833   1.079   6.965 -0.0700 -0.0235 -0.0219
 2234W        W 3231   5.900   7.225   2.308 -0.4405 -0.0486 -0.2017
 2235W        W 3232   6.630   2.885   2.202  0.0646  0.1742  0.0970
 2236W        W 3233   6.790   2.561   1.397  0.1667 -0.0687  0.4581
 2237W        W 3234   7.380   1.952   5.430  0.0963 -0.0866  0.1837
 2238W        W 3235   6.351   2.939   4.752 -0.1756  0.0522 -0.0418
 2239W        W 3236   4.840   1.587   6.650 -0.0318 -0.0271  0.0178
 2240W        W 3237   0.448   5.165   3.722  0.0899  0.0246 -0.0086
 2241W        W 3238   5.048   4.953   5.060 -0.3960 -0.3372 -0.0968
 2242W        W 3239   6.648   6.277   7.590  0.0726  0.1799  0.1912
 2243W        W 3240   4.892   5.421   3.088  0.2378  0.0211  0.2884
 2244W        W 3241   1.274   3.170   4.894 -0.0547  0.0923 -0.3403
 2245W        W 3242   2.205   0.617   4.325  0.1572  0.1726 -0.2650
 2246W        W 3243   3.592   7.517   6.413 -0.1781  0.1249 -0.0278
 2247W        W 3244   5.684   6.240   3.978  0.0083  0.1986 -0.0070
 2248W        W 3245   2.387   0.429   5.596 -0.1006 -0.0186  0.1140
 2249W        W 3246   2.740   4.905   3.712 -0.1318 -0.0334 -0.1659
 2250W        W 3247   4.404   6.408   5.444  0.1453  0.1301  0.0420
 2251W        W 3248   0.246   0.210   4.869 -0.0842  0.1201  0.0238
 2252W        W 3249   2.356   3.015   3.913  0.0526  0.1874 -0.0417
 2253W        W 3250   4.817   2.928   1.203  0.1771 -0.0440 -0.0804
 2254W        W 3251   5.028   6.394   6.055  0.0684  0.1049  0.3700
 2255W        W 3252   3.935   3.910   1.377 -0.0547 -0.2918 -0.2171
 2256W        W 3253   6.135   6.728   3.012  0.2959 -0.3537  0.1362
 2257W        W 3254   0.572   7.570   6.323 -0.0766  0.2266  0.0157
 2258W        W 3255   1.329   1.216   4.944  0.2911 -0.1297  0.0562
 2259W        W 3256   1.202   7.631   6.902  0.0229  0.1009  0.0362
 2260W        W 3257   6.899   3.061   3.502  0.2165  0.2588 -0.4715
 2261W        W 3258   7.182   2.249   5.787  0.0539  0.0936  0.0617
 2262W        W 3259   0.818   0.769   6.661 -0.0053 -0.3106 -0.0305
 2263W        W 3260   2.678   1.244   5.322 -0.0573 -0.3607  0.1622
 2264W        W 3261   6.211   1.184   1.592 -0.2212 -0.0218  0.1120
 2265W        W 3262   2.040   4.134   0.032  0.2123  0.1083  0.1380
 2266W        W 3263   6.448   3.305   1.953  0.1733  0.0332 -0.0137
 2267W        W 3264   4.013   2.413   4.735  0.0690  0.2211  0.3107
 2268W        W 3265   0.127   7.458   0.975 -0.2265 -0.3763 -0.1439
 2269W        W 3266   0.734   5.201   0.399  0.0416 -0.4200 -0.1965
 2270W        W 3267   4.637   5.069   6.015 -0.1936 -0.1333 -0.1285
 2271W        W 3268   1.318   5.052   2.036 -0.3389 -0.0313  0.1361
 2272W        W 3269   4.389   6.592   0.123  0.0473 -0.1903  0.3626
 2273W        W 3270   1.103   7.121   3.226 -0.3677 -0.0542  0.0539
 2274W        W 3271   2.932   4.814   1.843  0.0389  0.1557  0.1283
 2275W        W 3272   6.626   6.132   6.608 -0.0438  0.2346  0.0371
 2276W        W 3273   2.859   1.784   5.296  0.0347  0.3498 -0.0141
 2277W        W 3274   6.734   2.588   6.781 -0.1315  0.0119 -0.0467
 2278W        W 3275   1.096   6.938   5.075 -0.0578  0.0145  0.0989
 2279W        W 3276   2.522   7.094   2.327  0.1772  0.2983 -0.1237
 2280W        W 3277   6.205   5.539   0.901 -0.2029  0.0450  0.0962
 2281W        W 3278   7.268   4.975   5.166  0.2736  0.1498 -0.1011
 2282W        W 3279   7.660   1.441   6.333  0.0013  0.0696  0.3439
 2283W        W 3280   4.124   5.312   1.465 -0.2375 -0.0936 -0.2306
 2284W        W 3281   4.366   1.783   6.566  0.3126  0.1384 -0.0789
 2285W        W 3282   6.927   0.450   4.137 -0.1966  0.1515 -0.2258
 2286W        W 3283   0.822   6.701   1.700  0.0685  0.1900 -0.0329
 2287W        W 3284   3.306   6.704   6.504  0.5125 -0.2022  0.1739
 2288W        W 3285   5.517   6.412   2.715  0.0149  0.0343 -0.0100
 2289W        W 3286   6.089   6.489   3.477  0.3352 -0.0898 -0.1418
 2290W        W 3287   2.632   7.608   6.779  0.1626  0.0570 -0.2344
 2291W        W 3288   6.551   4.098   0.724 -0.2042 -0.0085 -0.3815
 2292W        W 3289   3.631   4.813   2.836 -0.3864 -0.1704 -0.0252
 2293W        W 3290   5.437   7.504   6.909 -0.1165 -0.0339 -0.0474
 2294W        W 3291   2.361   4.152   2.317 -0.1007  0.0517  0.2107
 2295W        W 3292   2.424   4.514   3.699  0.2784 -0.2056  0.1546
 2296W        W 3293   2.955   1.220   6.246 -0.2954  0.0669 -0.2355
 2297W        W 3294   0.309   2.774   7.580 -0.0972 -0.1725 -0.0451
 2298W        W 3295   6.986   4.266   2.397  0.3329 -0.0299  0.3730
 2299W        W 3296   3.663   3.908   4.983 -0.0345  0.5134 -0.0267
 2300W        W 3297   4.352   2.255   6.809  0.0314  0.1920  0.3335
 2301W        W 3298   5.192   6.180   3.584  0.0546  0.0927  0.2203
 2302W        W 3299   3.865   7.102   3.483 -0.0718 -0.0782 -0.1219
 2303W        W 3300   3.278   5.610   2.489  0.2400  0.2587  0.2542
 2304W        W 3301   2.232   4.612   2.073 -0.3881 -0.1323 -0.1297
 2305W        W 3302   1.238   1.945   6.081  0.1767 -0.2133 -0.0503
 2306W        W 3303   5.305   2.150   7.243  0.1545 -0.1341 -0.1340
 2307W        W 3304   6.393   3.204   2.562  0.0402  0.2576 -0.4984
 2308W        W 3305   3.606   6.653   3.232 -0.2828  0.1361 -0.1588
 2309W        W 3306   4.112   1.650   5.589 -0.1421  0.0954  0.2417
 2310W        W 3307   0.352   5.578   5.168 -0.2173  0.3354  0.1337
 2311W        W 3308   6.761   1.530   6.526  0.4305 -0.2233 -0.0160
 2312W        W 3309   6.722   5.540   0.932 -0.2714  0.1948 -0.1184
 2313W        W 3310   6.580   2.935   3.879 -0.2504  0.0588  0.0360
 2314W        W 3311   0.684   6.744   5.332  0.0280  0.1669 -0.0503
 2315W        W 3312   2.707   7.187   3.974  0.0806  0.0625 -0.0183
 2316W        W 3313   5.701   6.267   7.506  0.1624  0.3902 -0.0787
 2317W        W 3314   6.595   1.754   4.708 -0.1819 -0.3199 -0.0223
 2318W        W 3315   7.524   1.560   7.493 -0.1736 -0.0090  0.1170
 2319W        W 3316   0.377   5.364   7.640  0.1943 -0.0163  0.3371
 2320W        W 3317   7.128   5.036   6.275 -0.2118 -0.2118  0.0376
 2321W        W 3318   6.759   4.647   6.315  0.0557 -0.3853  0.2832
 2322W        W 3319   2.476   0.084   3.579  0.1125 -0.3548  0.0725
 2323W        W 3320   4.778   0.623   5.459 -0.1257  0.1345 -0.2261
 2324W        W 3321   3.227   3.849   5.239 -0.2297 -0.1955  0.4539
 2325W        W 3322   2.559   6.846   4.368  0.2317  0.2473  0.1024
 2326W        W 3323   2.806   1.527   4.856 -0.0274 -0.1376 -0.0296
 2327W        W 3324   5.586   7.252   0.094 -0.1138 -0.3586 -0.3215
 2328W        W 3325   3.283   3.719   6.283 -0.0472 -0.2062  0.0788
 2329W        W 3326   5.127   1.457   2.938  0.2147 -0.3035 -0.0485
 2330W        W 3327   4.339   7.142   3.273  0.1002  0.1282 -0.0275
 2331W        W 3328   3.910   3.926   2.450  0.1102  0.1696 -0.0264
 2332W        W 3329   2.382   1.666   5.184  0.1138  0.0684  0.1818
 2333W        W 3330   7.552   5.933   1.130 -0.3835 -0.0089 -0.0686
 2334W        W 3331   1.193   3.967   0.440 -0.0044 -0.1733  0.0390
 2335W        W 3332   1.151   6.117   5.595 -0.1136  0.3108  0.0756
 2336W        W 3333   5.357   7.192   6.002 -0.0971  0.1227 -0.0960
 2337W        W 3334   4.825   0.966   5.854 -0.1004 -0.1364 -0.0506
 2338W        W 3335   3.563   5.819   4.336 -0.0166 -0.1877  0.2315
 2339W        W 3336   4.684   1.884   6.017  0.1216  0.1423 -0.1185
 2340W        W 3337   6.993   5.128   0.836 -0.1215 -0.2702 -0.0204
 2341W        W 3338   2.966   4.107   2.424  0.0585 -0.0751 -0.4141
 2342W        W 3339   1.436   5.895   4.169 -0.1258 -0.3374  0.0721
 2343W        W 3340   4.609   5.338   3.953 -0.2340  0.1222 -0.0379
 2344W        W 3341   4.961   1.732   0.907 -0.1104  0.2145 -0.1392
 2345W        W 3342   6.208   5.111   1.893 -0.1099 -0.0476  0.0380
 2346W        W 3343   0.332   2.069   4.804 -0.2681  0.1104 -0.0906
 2347W        W 3344   4.764   2.494   1.464  0.2795  0.1417 -0.2279
 2348W        W 3345   0.010   3.009   0.584  0.1065  0.0449 -0.1836
 2349W        W 3346   4.264   5.855   6.489  0.1299  0.0875 -0.2087
 2350W        W 3347   1.679   7.026   4.638 -0.3434  0.3060  0.3220
 2351W        W 3348   6.691   3.760   7.493 -0.0344 -0.0712 -0.0078
 2352W        W 3349   5.188   4.585   4.153  0.0482  0.1211  0.4030
 2353W        W 3350   3.938   0.089   7.225  0.0419 -0.2026 -0.2816
 2354W        W 3351   1.349   7.154   2.745  0.0804  0.0738  0.3519
 2355W        W 3352   4.192   5.902   5.290  0.1541  0.2700  0.1466
 2356W        W 3353   7.534   4.936   2.614 -0.0516  0.0578 -0.2606
 2357W        W 3354   4.892   2.881   2.477 -0.1389 -0.1015  0.1219
 2358W        W 3355   6.636   7.299   6.869  0.0407 -0.0937  0.0050
 2359W        W 3356   0.644   6.194   3.547 -0.1486  0.0252 -0.1351
 2360W        W 3357   3.971   0.336   5.141 -0.1200  0.1419  0.0950
 2361W        W 3358   6.889   3.379   2.128  0.2638  0.0849  0.0444
 2362W        W 3359   0.618   5.040   4.953 -0.0616  0.0720 -0.1079
 2363W        W 3360   2.590   2.832   4.439  0.1720  0.3188  0.3021
 2364W        W 3361   2.858   6.562   3.571 -0.1459  0.1671 -0.0348
 2365W        W 3362   2.146   5.934   1.577  0.0743  0.3195 -0.0083
 2366W        W 3363   4.747   5.300   5.293 -0.2210 -0.1013 -0.2460
 2367W        W 3364   5.004   0.898   7.660 -0.2746 -0.1050 -0.0387
 2368W        W 3365   3.013   6.273   7.199  0.0762 -0.0840 -0.1829
 2369W        W 3366   6.760   4.349   5.777 -0.1155 -0.1049  0.1554
 2370W        W 3367   0.622   6.631   2.624 -0.1395  0.0051  0.2566
 2371W        W 3368   6.829   1.692   2.998  0.1483  0.0136  0.0673
 2372W        W 3369   7.436   2.765   3.408 -0.1637 -0.0828 -0.1279
 2373W        W 3370   6.592   2.651   5.206  0.2105 -0.0492 -0.1914
 2374W        W 3371   4.442   6.774   0.581  0.0330  0.0425  0.1351
 2375W        W 3372   2.102   0.198   3.985  0.0961  0.1246 -0.0251
 2376W        W 3373   2.296   5.581   1.220 -0.1048  0.0513 -0.3103
 2377W        W 3374   5.292   1.928   2.186 -0.1322 -0.0937 -0.0204
 2378W        W 3375   6.956   1.340   7.511 -0.0296  0.1200  0.1701
 2379W        W 3376   3.473   5.109   4.826 -0.1500  0.0118  0.0117
 2380W        W 3377   5.092   3.744   0.575  0.2995 -0.0354 -0.0451
 2381W        W 3378   0.865   6.579   5.782  0.0563 -0.1818  0.0760
 2382W        W 3379   4.633   7.394   3.962  0.0250  0.1552  0.2758
 2383W        W 3380   2.158   7.497   3.234 -0.1467 -0.1075 -0.0386
 2384W        W 3381   7.514   4.373   4.129  0.0647 -0.0298 -0.0914
 2385W        W 3382   2.522   7.005   6.235  0.0152  0.3471 -0.0716
 2386W        W 3383   0.575   6.552   2.107  0.0358 -0.3276  0.0240
 2387W        W 3384   2.230   4.439   6.075  0.1177 -0.0616 -0.1665
 2388W        W 3385   0.686   6.744   4.405  0.1911  0.2107  0.0776
 2389W        W 3386   7.426   5.770   2.146  0.0419 -0.0399  0.0498
 2390W        W 3387   2.549   5.725   1.629 -0.0234  0.1114  0.2116
 2391W        W 3388   1.376   5.485   3.887 -0.1609  0.0813  0.0989
 2392W        W 3389   3.448   1.102   4.380 -0.1229  0.1025  0.1939
 2393W        W 3390   1.358   7.462   5.723  0.1150  0.1250 -0.1443
 2394W        W 3391   1.728   6.284   3.205  0.0797  0.3018 -0.0247
 2395W        W 3392   5.861   7.504   1.352  0.1657 -0.0892 -0.0054
 2396W        W 3393   2.941   2.985   3.409 -0.1611  0.0072  0.2324
 2397W        W 3394   0.950   4.361   1.763  0.1074 -0.0717 -0.1715
 2398W        W 3395   4.431   1.633   3.671 -0.0714 -0.0261  0.0970
 2399W        W 3396   5.814   6.025   4.576 -0.0081  0.1733  0.1265
 2400W        W 3397   6.162   7.113   4.002  0.1534 -0.0564 -0.5330
 2401W        W 3398   5.136   1.083   6.909  0.1361 -0.0746  0.0703
 2402W        W 3399   5.428   0.332   6.681 -0.1366 -0.0426  0.0282
 2403W        W 3400   3.750   6.353   6.032  0.1001  0.1452  0.1423
 2404W        W 3401   1.566   6.553   4.895 -0.2023  0.0469  0.2865
 2405W        W 3402   3.555   1.633   5.565 -0.2838  0.0012  0.2228
 2406W        W 3403   3.889   0.735   3.372  0.2461  0.2877  0.1881
 2407W        W 3404   6.476   5.941   2.232 -0.0337  0.0391  0.1658
 2408W        W 3405   4.227   0.533   0.018 -0.2123  0.2471  0.2154
 2409W        W 3406   4.079   7.659   6.417  0.0819 -0.3706  0.1824
 2410W        W 3407   6.692   7.206   1.709  0.0451  0.4090  0.0697
 2411W        W 3408   4.199   3.044   7.258  0.1333 -0.0426 -0.0632
 2412W        W 3409   4.630   6.539   6.350 -0.1040 -0.0131  0.0943
 2413W        W 3410   3.844   6.770   5.195  0.4632  0.0829  0.1882
 2414W        W 3411   7.107   5.383   6.635  0.0679 -0.1396  0.1939
 2415W        W 3412   6.165   2.038   4.983  0.4232  0.2550 -0.0320
 2416W        W 3413   5.788   5.741   6.145 -0.0402  0.4807  0.0120
 2417W        W 3414   6.205   3.656   5.137 -0.0009 -0.2492 -0.0322
 2418W        W 3415   2.025   2.357   5.565  0.2510 -0.0049  0.0457
 2419W        W 3416   4.503   1.606   5.123  0.2722  0.0054 -0.0939
 2420W        W 3417   0.986   5.616   6.802 -0.0771 -0.0712 -0.0109
 2421W        W 3418   3.746   4.706   7.002  0.1266  0.0512 -0.5119
 2422W        W 3419   4.559   0.795   0.959 -0.2777 -0.1688 -0.0351
 2423W        W 3420   0.091   5.704   0.704 -0.3015  0.2003  0.1418
 2424W        W 3421   3.643   1.207   3.501 -0.4098  0.1579  0.2059
 2425W        W 3422   2.740   5.697   4.325 -0.1420 -0.2249 -0.0795
 2426W        W 3423   3.387   4.311   0.153 -0.2454 -0.3154  0.1701
 2427W        W 3424   0.296   3.973   3.574 -0.0568  0.4567 -0.0434
 2428W        W 3425   7.013   1.856   5.038 -0.2341 -0.1021 -0.0837
 2429W        W 3426   3.101   0.101   6.144  0.2899 -0.0247  0.0398
 2430W        W 3427   4.618   3.385   6.994  0.0277 -0.4028  0.1357
 2431W        W 3428   5.548   6.750   7.651  0.1099  0.1461 -0.2337
 2432W        W 3429   4.269   3.753   3.329 -0.0606  0.2926 -0.0193
 2433W        W 3430   2.291   1.040   3.939  0.2508 -0.2093  0.3357
 2434W        W 3431   5.452   3.330   0.623 -0.0596 -0.0791 -0.1290
 2435W        W 3432   6.226   3.068   0.747 -0.0466 -0.0640 -0.0081
 2436W        W 3433   4.183   5.497   3.643 -0.1110 -0.1428  0.1183
 2437W        W 3434   7.609   6.147   0.155 -0.1392 -0.0801  0.2682
 2438W        W 3435   2.246   3.625   3.253  0.0668 -0.1357  0.0059
 2439W        W 3436   0.476   6.272   5.805 -0.0302  0.0431 -0.0988
 2440W        W 3437   5.154   0.984   2.680 -0.0364  0.2813 -0.1692
 2441W        W 3438   4.752   1.978   3.842  0.1106 -0.0514 -0.0751
 2442W        W 3439   6.156   1.991   7.232  0.0267 -0.0973  0.3566
 2443W        W 3440   1.049   4.599   4.324  0.1211 -0.1713  0.0083
 2444W        W 3441   3.621   5.848   7.296 -0.2846 -0.0650 -0.0365
 2445W        W 3442   4.014   0.500   6.438 -0.2894 -0.0643  0.3297
 2446W        W 3443   4.989   2.533   0.251  0.1954  0.0546  0.0391
 2447W        W 3444   4.154   6.667   2.615  0.0780 -0.3296  0.0228
 2448W        W 3445   7.578   7.603   7.490 -0.1921 -0.2010 -0.1859
 2449W        W 3446   7.109   7.099   3.237 -0.2345 -0.2280 -0.0252
 2450W        W 3447   0.007   4.891   3.629  0.0952  0.1844 -0.2099
 2451W        W 3448   7.438   2.304   3.473  0.2280 -0.1412  0.1964
 2452W        W 3449   7.264   6.701   3.596 -0.0304  0.1904  0.2324
 2453W        W 3450   6.085   2.206   3.191 -0.0725  0.3445  0.1157
 2454W        W 3451   3.131   5.670   0.178 -0.3259 -0.2771 -0.1371
 2455W        W 3452   0.920   3.049   6.260  0.2371  0.0785  0.3004
 2456W        W 3453   6.929   0.368   2.604  0.2653 -0.1351  0.1557
 2457W        W 3454   7.465   2.450   5.431  0.0576 -0.0730 -0.0665
 2458W        W 3455   0.405   3.204   2.663  0.0613 -0.2657  0.1920
 2459W        W 3456   1.324   7.182   3.851  0.0915  0.2516 -0.1317
 2460W        W 3457   7.261   4.391   4.912 -0.2095  0.1296 -0.3297
 2461W        W 3458   6.283   0.393   5.842  0.0451 -0.1021 -0.1338
 2462W        W 3459   5.087   7.483   3.738 -0.2279  0.1181  0.3662
 2463W        W 3460   1.613   4.642   2.920  0.0785  0.3276 -0.0257
 2464W        W 3461   0.087   0.623   1.533  0.1847  0.0601 -0.1179
 2465W        W 3462   4.410   0.557   6.811  0.2572  0.0740  0.0645
 2466W        W 3463   4.730   0.857   0.434  0.3578 -0.0360 -0.2550
 2467W        W 3464   5.927   2.563   4.488  0.0194 -0.2327 -0.0333
 2468W        W 3465   5.016   6.703   1.790  0.0994  0.2087  0.0652
 2469W        W 3466   6.954   2.506   3.834  0.0646 -0.1229 -0.1344
 2470W        W 3467   5.115   2.699   5.994 -0.2070  0.2491  0.0791
 2471W        W 3468   5.332   4.792   4.619 -0.1611  0.1579 -0.1089
 2472W        W 3469   5.143   4.440   1.165 -0.2094 -0.1224 -0.4008
 2473W        W 3470   0.030   2.128   2.735 -0.0677  0.0572 -0.0806
 2474W        W 3471   0.082   7.220   5.603 -0.0121 -0.1584  0.0405
 2475W        W 3472   0.083   0.548   5.775  0.3158  0.2647  0.0879
 2476W        W 3473   2.011   6.281   1.273 -0.0800 -0.3439  0.0608
 2477W        W 3474   5.488   4.495   5.769 -0.1016  0.1327 -0.4053
 2478W        W 3475   2.197   6.707   2.251 -0.2415 -0.0025  0.0118
 2479W        W 3476   1.701   4.601   5.959 -0.0383  0.1509  0.0147
 2480W        W 3477   6.399   4.821   6.648 -0.0144 -0.2326  0.2276
 2481W        W 3478   3.575   6.532   0.518 -0.0404 -0.0484  0.3065
 2482W        W 3479   7.456   3.747   6.362 -0.0051 -0.2417 -0.0096
 2483W        W 3480   7.395   5.594   2.791  0.0522  0.1280  0.1611
 2484W        W 3481   2.355   6.365   2.690 -0.3304 -0.0192 -0.0575
 2485W        W 3482   0.090   6.878   6.203 -0.0683  0.0624 -0.2739
 2486W        W 3483   0.446   4.966   2.456 -0.1889 -0.3741 -0.1002
 2487W        W 3484   5.728   5.690   3.037 -0.3122 -0.1016 -0.1860
 2488W        W 3485   1.299   2.412   4.734  0.2496 -0.1634 -0.2156
 2489W        W 3486   0.826   0.256   4.715  0.0566  0.0175  0.2427
 2490W        W 3487   7.198   6.082   5.920 -0.2351  0.1503  0.1448
 2491W        W 3488   7.531   2.580   0.787 -0.3040  0.1990  0.0720
 2492W        W 3489   3.814   6.019   6.525  0.0101  0.2716 -0.0372
 2493W        W 3490   2.031   6.292   1.863  0.0532  0.4829  0.3012
 2494W        W 3491   3.629   5.414   4.022 -0.0698 -0.1893  0.3146
 2495W        W 3492   7.363   5.429   4.896  0.0388  0.2214  0.1047
 2496W        W 3493   0.201   7.351   1.987  0.0245  0.0310  0.0244
 2497W        W 3494   6.404   0.905   5.749  0.1240 -0.1911 -0.0361
 2498W        W 3495   2.235   7.392   2.704  0.2376 -0.0333  0.1136
 2499W        W 3496   3.891   0.194   1.901 -0.0848 -0.1521  0.1372
 2500W        W 3497   6.961   5.604   3.887 -0.1090 -0.2017  0.1150
 2501W        W 3498   4.664   2.519   3.246 -0.0987  0.0011 -0.0205
 2502W        W 3499   4.277   1.249   4.867  0.1233  0.1558  0.1787
 2503W        W 3500   0.910   4.143   4.868  0.1916 -0.1974  0.0396
 2504W        W 3501   5.282   2.773   5.164  0.2364  0.0723 -0.0281
 2505W        W 3502   2.723   5.433   2.043  0.2842 -0.3538 -0.1591
 2506W        W 3503   2.391   5.823   2.716  0.2444  0.2131  0.0293
 2507W        W 3504   7.537   3.280   7.618  0.0178 -0.0317 -0.1166
 2508W        W 3505   5.816   0.319   3.879  0.0461  0.2302 -0.0724
 2509W        W 3506   5.208   7.138   3.391  0.0632 -0.0778  0.0141
 2510W        W 3507   6.444   6.025   5.383  0.1092 -0.1500 -0.3591
 2511W        W 3508   6.268   1.189   0.917  0.3633 -0.1413 -0.2293
 2512W        W 3509   7.272   5.148   0.251 -0.1005  0.0757 -0.1159
 2513W        W 3510   0.542   7.108   1.753 -0.0017 -0.1174 -0.0924
 2514W        W 3511   5.644   2.206   2.575  0.0771 -0.2710  0.0772
 2515W        W 3512   3.863   3.930   3.021  0.1748  0.1708  0.1463
 2516W        W 3513   0.222   4.967   5.422 -0.0588 -0.1459 -0.1773
 2517W        W 3514   1.374   6.466   5.890 -0.2435 -0.1803  0.5732
 2518W        W 3515   5.461   0.554   2.500 -0.2700  0.1954 -0.0668
 2519W        W 3516   4.223   3.228   6.019 -0.1936  0.0332  0.2656
 2520W        W 3517   0.307   1.693   4.427 -0.1193 -0.1230 -0.1476
 2521W        W 3518   5.945   0.462   4.346 -0.1544  0.0098 -0.1765
 2522W        W 3519   6.825   4.030   7.042  0.3079 -0.0861  0.0715
 2523W        W 3520   6.064   2.163   3.677 -0.2200  0.2388  0.0838
 2524W        W 3521   5.024   5.327   1.735 -0.0372  0.1208 -0.2076
 2525W        W 3522   0.506   2.414   5.135  0.0364 -0.0032 -0.0690
 2526W        W 3523   6.083   0.137   5.138 -0.3580 -0.5068  0.0254
 2527W        W 3524   2.393   3.968   7.235  0.0588  0.1214  0.1011
 2528W        W 3525   5.605   5.252   5.361 -0.2506 -0.4444 -0.1322
 2529W        W 3526   3.934   5.540   7.636 -0.0018  0.1454  0.0066
 2530W        W 3527   3.520   6.346   5.223  0.1411  0.1353  0.2519
 2531W        W 3528   5.830   5.659   7.224  0.1099 -0.1263 -0.1220
 2532W        W 3529   7.396   7.429   2.850 -0.2140 -0.0280 -0.0094
 2533W        W 3530   3.938   2.733   4.332 -0.1276 -0.1049  0.0729
 2534W        W 3531   5.592   3.501   5.863  0.2369 -0.1822  0.2703
 2535W        W 3532   1.315   4.529   2.112 -0.1067 -0.0500  0.0216
 2536W        W 3533   3.742   7.382   6.940  0.2049 -0.1112  0.1141
 2537W        W 3534   6.680   7.090   4.704  0.1591  0.1405  0.1985
 2538W        W 3535   4.714   7.156   0.922  0.3107  0.0868  0.2310
 2539W        W 3536   4.070   0.113   0.336 -0.1823 -0.0284  0.1952
 2540W        W 3537   1.523   3.649   3.410 -0.1773  0.1921  0.0234
 2541W        W 3538   2.419   6.845   3.647 -0.1769 -0.1404  0.0787
 2542W        W 3539   0.174   0.201   6.129  0.0443 -0.0544 -0.0315
 2543W        W 3540   2.941   0.274   5.357  0.0918  0.1683  0.0966
 2544W        W 3541   0.645   7.533   6.875 -0.0508 -0.1402 -0.3115
 2545W        W 3542   0.314   3.422   6.740 -0.1651  0.2441 -0.0956
 2546W        W 3543   5.866   7.124   6.742 -0.0061 -0.2820 -0.1102
 2547W        W 3544   6.393   4.642   5.927  0.0608  0.0909  0.1953
 2548W        W 3545   6.300   0.184   4.703 -0.3017  0.0136 -0.1325
 2549W        W 3546   0.717   2.594   6.614  0.1067 -0.0222 -0.0036
 2550W        W 3547   3.942   6.935   2.986 -0.2369 -0.2450 -0.1329
 2551W        W 3548   7.519   3.547   6.854 -0.1226  0.1424  0.1237
 2552W        W 3549   3.206   4.181   3.685 -0.1169  0.0002  0.0694
 2553W        W 3550   4.444   5.179   3.041  0.0553  0.0581 -0.3885
 2554W        W 3551   6.316   6.905   6.899 -0.3065 -0.2076  0.1298
 2555W        W 3552   4.990   3.233   0.391 -0.3801 -0.2064  0.0251
 2556W        W 3553   0.399   2.677   0.401  0.0910 -0.1500  0.0080
 2557W        W 3554   4.894   1.339   0.546  0.1679  0.3692  0.3739
 2558W        W 3555   4.320   7.588   2.075  0.1486  0.0041  0.1827
 2559W        W 3556   3.485   6.629   5.590  0.1061 -0.4119  0.1986
 2560W        W 3557   4.156   4.144   3.857 -0.0991 -0.0307  0.3177
 2561W        W 3558   1.974   3.955   5.440 -0.1513 -0.0274 -0.1641
 2562W        W 3559   0.416   3.159   0.312 -0.2963  0.0066  0.0677
 2563W        W 3560   4.974   2.084   1.848 -0.0384 -0.0994 -0.0440
 2564W        W 3561   5.907   2.640   3.505  0.2265  0.0570 -0.0303
 2565W        W 3562   5.298   2.556   6.963 -0.1763  0.0514 -0.0531
 2566W        W 3563   7.230   7.623   2.417 -0.0316  0.1395 -0.1473
 2567W        W 3564   3.145   5.400   3.096  0.2270 -0.0209  0.2147
 2568W        W 3565   2.891   0.622   5.698 -0.4715 -0.1145 -0.3497
 2569W        W 3566   7.243   1.808   6.545  0.1951  0.1033  0.2831
 2570W        W 3567   6.810   1.006   4.152  0.3564 -0.1394 -0.1106
 2571W        W 3568   6.746   3.440   6.337 -0.0572 -0.2213 -0.0671
 2572W        W 3569   5.947   7.502   2.720  0.0157 -0.2277 -0.0627
 2573W        W 3570   3.391   3.901   7.454  0.0269 -0.1960 -0.0719
 2574W        W 3571   5.053   2.285   5.303 -0.1121 -0.1199 -0.0080
 2575W        W 3572   6.028   5.735   0.075 -0.1279  0.0552  0.0316
 2576W        W 3573   5.209   5.143   2.738  0.2680  0.1469 -0.1901
 2577W        W 3574   5.971   0.367   2.677 -0.1031  0.3781 -0.3206
 2578W        W 3575   0.186   6.156   3.892  0.2309 -0.3508 -0.0167
 2579W        W 3576   0.627   4.080   0.173 -0.2316  0.1517  0.1097
 2580W        W 3577   2.553   1.491   5.705  0.4507 -0.1682  0.1805
 2581W        W 3578   2.146   4.453   7.333 -0.1922 -0.1350  0.1800
 2582W        W 3579   7.042   6.244   4.985  0.0407 -0.1430 -0.0991
 2583W        W 3580   1.067   1.677   5.409 -0.0152 -0.1170 -0.1749
 2584W        W 3581   7.344   3.511   2.305  0.1734 -0.2631  0.0497
 2585W        W 3582   0.905   3.954   6.186  0.0308 -0.0191  0.2649
 2586W        W 3583   4.432   2.889   3.605  0.1278  0.2164  0.0112
 2587W        W 3584   3.375   1.750   5.098  0.1287  0.0773 -0.0537
 2588W        W 3585   3.330   3.455   7.204  0.0794 -0.3227  0.1144
 2589W        W 3586   6.759   6.834   2.168 -0.1272 -0.1644 -0.1935
 2590W        W 3587   7.053   3.468   0.531  0.1832 -0.1242  0.1026
 2591W        W 3588   0.385   1.608   5.038  0.0242 -0.0279 -0.2701
 2592W        W 3589   2.488   2.585   5.546 -0.0330 -0.0960  0.0285
 2593W        W 3590   6.321   3.305   6.525  0.0803 -0.1728  0.0083
 2594W        W 3591   6.528   4.219   3.572  0.0094  0.0134 -0.0594
 2595W        W 3592   5.111   5.510   7.432 -0.3146 -0.0246 -0.1647
 2596W        W 3593   0.428   6.893   7.513 -0.1239  0.0205  0.3686
 2597W        W 3594   6.149   3.008   4.274  0.3079  0.1543  0.0698
 2598W        W 3595   3.758   3.400   5.035  0.3193  0.1348 -0.1039
 2599W        W 3596   3.191   4.643   4.702  0.1189 -0.1063 -0.0504
 2600W        W 3597   0.855   0.100   0.146 -0.0216  0.0641 -0.0122
 2601W        W 3598   4.082   4.799   6.029 -0.1522 -0.0675  0.2487
 2602W        W 3599   7.471   0.986   7.660 -0.0860  0.4982 -0.0979
 2603W        W 3600   7.331   5.130   1.468 -0.2500 -0.0059 -0.1439
 2604W        W 3601   1.663   1.684   6.209 -0.1193 -0.2617 -0.2193
 2605W        W 3602   1.313   6.766   3.628 -0.0580 -0.0911 -0.0383
 2606W        W 3603   3.340   1.884   4.055 -0.3227 -0.0295 -0.1396
 2607W        W 3604   6.721   0.310   5.954  0.1615  0.2816  0.1657
 2608W        W 3605   0.882   3.637   5.056  0.1589  0.0521  0.1231
 2609W        W 3606   1.639   6.936   1.195  0.0346 -0.0191  0.0710
 2610W        W 3607   5.730   5.496   0.324  0.1887  0.3032 -0.3573
 2611W        W 3608   5.926   7.377   4.948 -0.1056  0.3092 -0.1908
 2612W        W 3609   1.969   5.493   1.628 -0.2316  0.2167  0.1966
 2613W        W 3610   1.306   5.675   5.819 -0.1418  0.0498 -0.0645
 2614W        W 3611   3.447   5.368   6.108 -0.0648 -0.0216  0.3167
 2615W        W 3612   7.666   1.026   3.988  0.2460 -0.0055  0.0809
 2616W        W 3613   1.200   0.451   6.867  0.0006 -0.2250  0.1546
 2617W        W 3614   5.125   1.081   1.661  0.3873  0.1553 -0.0516
 2618W        W 3615   5.003   0.403   2.713  0.2163  0.2255 -0.3911
 2619W        W 3616   6.504   5.654   4.868  0.0283 -0.0727 -0.1276
 2620W        W 3617   2.396   7.305   1.612 -0.2460 -0.1122  0.2557
 2621W        W 3618   4.065   4.925   0.645  0.2270 -0.1116 -0.2123
 2622W        W 3619   5.441   4.633   6.733 -0.0808 -0.1263  0.2774
 2623W        W 3620   3.586   3.847   0.281  0.0474  0.1719 -0.0144
 2624W        W 3621   3.165   7.179   6.325 -0.2506  0.2988 -0.0812
 2625W        W 3622   6.308   2.929   1.678 -0.0839 -0.0480  0.1033
 2626W        W 3623   0.305   4.375   3.211  0.0847  0.1908 -0.4457
 2627W        W 3624   5.939   3.082   2.645  0.3335  0.0304 -0.0209
 2628W        W 3625   1.510   7.435   4.888  0.1574 -0.1503  0.3662
 2629W        W 3626   4.729   1.205   7.210 -0.3123  0.1223 -0.0556
 2630W        W 3627   0.726   4.802   4.021  0.1716 -0.2015  0.3070
 2631W        W 3628   4.389   3.220   2.453  0.3851 -0.0726  0.1499
 2632W        W 3629   4.720   1.850   2.205 -0.2085  0.2144 -0.2487
 2633W        W 3630   6.313   0.423   3.316  0.1732  0.0967 -0.1778
 2634W        W 3631   5.446   6.530   6.322 -0.0976  0.2881 -0.2082
 2635W        W 3632   6.047   1.008   5.088  0.2608 -0.1341 -0.1148
 2636W        W 3633   5.770   5.158   1.073 -0.2162 -0.1383 -0.1972
 2637W        W 3634   6.749   5.642   6.331  0.0325  0.0874  0.1900
 2638W        W 3635   6.178   6.810   0.649 -0.1524  0.0321  0.0282
 2639W        W 3636   1.790   5.529   4.148  0.1777  0.3153 -0.0223
 2640W        W 3637   6.093   4.691   0.442  0.1551  0.2438 -0.1370
 2641W        W 3638   0.028   3.159   7.176 -0.0546 -0.0623  0.3242
 2642W        W 3639   0.508   3.285   3.210  0.0243 -0.4144  0.0943
 2643W        W 3640   7.331   5.237   3.106  0.0620  0.0833 -0.0118
 2644W        W 3641   0.191   3.958   6.759 -0.1638  0.0791  0.0793
 2645W        W 3642   4.549   7.389   5.308 -0.6083 -0.2227  0.0090
 2646W        W 3643   5.104   0.594   1.762  0.2900 -0.2448  0.0568
 2647W        W 3644   5.411   0.080   0.441 -0.2560  0.3575  0.5187
 2648W        W 3645   0.153   5.888   2.482  0.0588  0.0438  0.0324
 2649W        W 3646   0.130   2.580   4.337 -0.0900 -0.3238  0.0323
 2650W        W 3647   7.625   0.686   7.284 -0.0165 -0.1794 -0.0647
 2651W        W 3648   6.216   7.498   6.491  0.1330  0.0210 -0.0222
 2652W        W 3649   6.364   1.674   6.799 -0.0703  0.1125  0.2214
 2653W        W 3650   6.890   3.642   2.651 -0.0931 -0.1667  0.0353
 2654W        W 3651   4.166   0.675   1.715  0.0887  0.3162 -0.2592
 2655W        W 3652   6.564   2.953   5.672  0.1645  0.1746  0.0287
 2656W        W 3653   2.599   6.953   5.422 -0.4310  0.0971  0.0906
 2657W        W 3654   6.178   4.276   1.056 -0.0661  0.3229  0.2485
 2658W        W 3655   1.290   0.178   5.050 -0.2039  0.1070 -0.0972
 2659W        W 3656   7.462   7.033   0.034  0.1495 -0.5697  0.0317
 2660W        W 3657   4.910   2.961   7.590 -0.1814 -0.1746 -0.0572
 2661W        W 3658   5.065   1.352   5.961  0.1414  0.1348 -0.2115
 2662W        W 3659   1.301   0.170   4.529  0.1990  0.2703  0.0324
 2663W        W 3660   5.293   3.159   3.714 -0.1101 -0.4212  0.0124
 2664W        W 3661   6.859   5.247   1.405 -0.1445  0.0365  0.0290
 2665W        W 3662   5.044   0.871   4.661  0.0026  0.1220  0.1483
 2666W        W 3663   2.506   2.539   4.828 -0.0109  0.1512  0.0842
 2667W        W 3664   1.570   7.643   0.626 -0.1646 -0.3180 -0.1357
 2668W        W 3665   0.602   5.629   2.546  0.0608 -0.0823 -0.2517
 2669W        W 3666   7.512   0.860   5.341 -0.0653 -0.2117  0.0380
 2670W        W 3667   0.589   6.410   1.247 -0.0162 -0.2560 -0.0051
 2671W        W 3668   6.217   2.973   0.253 -0.2099 -0.1898 -0.1179
 2672W        W 3669   3.130   7.297   1.021  0.0496  0.0504  0.0444
 2673W        W 3670   6.170   6.278   6.350  0.0950 -0.0545  0.2864
 2674W        W 3671   1.182   6.502   6.401 -0.1106  0.1478  0.1482
 2675W        W 3672   7.405   4.099   4.534 -0.0473  0.2310  0.2000
 2676W        W 3673   7.582   5.362   5.342  0.0216  0.2830  0.5251
 2677W        W 3674   2.846   5.969   2.250 -0.0374  0.1387  0.0656
 2678W        W 3675   6.069   1.521   6.302 -0.1221  0.0679 -0.2289
 2679W        W 3676   3.138   2.599   6.551 -0.1259  0.2354 -0.0868
 2680W        W 3677   7.000   7.546   4.101  0.2016  0.1218 -0.0326
 2681W        W 3678   4.131   4.586   7.309 -0.0011  0.2121  0.0467
 2682W        W 3679   0.147   5.501   7.207  0.0390  0.0052  0.0732
 2683W        W 3680   0.645   3.508   5.446 -0.1654  0.0160 -0.3128
 2684W        W 3681   5.470   6.260   2.165  0.0375  0.1662  0.1316
 2685W        W 3682   2.932   5.032   6.009  0.1968 -0.0748 -0.0040
 2686W        W 3683   1.494   6.722   3.148  0.2181 -0.1335 -0.3008
 2687W        W 3684   4.649   3.005   1.669  0.0337 -0.2199 -0.0436
 2688W        W 3685   3.899   4.628   6.473 -0.1564 -0.1474  0.1503
 2689W        W 3686   2.221   7.411   4.234  0.0604  0.1692 -0.2609
 2690W        W 3687   5.853   2.896   7.061  0.3620  0.1344 -0.0268
 2691W        W 3688   5.495   5.041   4.194  0.2572  0.2141  0.0124
 2692W        W 3689   3.403   5.304   7.596  0.0987 -0.1567 -0.4926
 2693W        W 3690   7.158   0.866   3.855  0.2596  0.1965 -0.0395
 2694W        W 3691   3.975   4.976   1.127  0.1856 -0.0823  0.3260
 2695W        W 3692   1.856   6.514   6.587 -0.2350 -0.0953 -0.2278
 2696W        W 3693   4.220   5.584   2.785 -0.2809  0.1618 -0.1629
 2697W        W 3694   3.754   3.473   2.364  0.0831  0.3176  0.1760
 2698W        W 3695   0.403   0.644   3.949  0.0217 -0.0365  0.3678
 2699W        W 3696   2.896   7.126   1.860 -0.2320 -0.0140 -0.1285
 2700W        W 3697   5.954   5.208   0.627 -0.0050 -0.1286  0.0722
 2701W        W 3698   7.359   2.865   7.508 -0.0639 -0.0259  0.0549
 2702W        W 3699   0.348   5.807   0.231  0.0547  0.1692  0.2457
 2703W        W 3700   1.069   0.602   4.422 -0.2144  0.3439  0.0311
 2704W        W 3701   2.596   5.739   5.976 -0.0485  0.1027  0.0637
 2705W        W 3702   1.796   5.350   7.252 -0.0619  0.1902 -0.0729
 2706W        W 3703   5.722   7.293   3.152  0.2409 -0.2363 -0.0137
 2707W        W 3704   5.894   4.939   7.200 -0.1514  0.2106 -0.1983
 2708W        W 3705   6.977   5.822   5.203 -0.0601  0.0724  0.0186
 2709W        W 3706   0.893   4.270   3.971  0.0154  0.0156  0.3007
 2710W        W 3707   3.208   5.194   6.487 -0.1695 -0.0342 -0.0439
 2711W        W 3708   0.010   2.102   5.783 -0.0607  0.2446 -0.2903
 2712W        W 3709   1.195   6.301   3.341  0.1693  0.2342  0.0844
 2713W        W 3710   4.178   3.592   6.360  0.2915  0.0203 -0.1374
 2714W        W 3711   0.625   7.209   5.419  0.2392  0.2796 -0.4146
 2715W        W 3712   1.178   2.674   6.848  0.1096 -0.1724  0.0628
 2716W        W 3713   3.072   1.225   3.547 -0.0076  0.1358  0.0743
 2717W        W 3714   6.244   2.188   0.405 -0.0269  0.0147 -0.4569
 2718W        W 3715   5.916   5.822   4.141 -0.0955  0.2215  0.2198
 2719W        W 3716   2.591   3.384   2.992  0.1497  0.0149 -0.1397
 2720W        W 3717   4.067   7.341   4.485 -0.2131 -0.0041  0.0688
 2721W        W 3718   7.215   3.683   3.665 -0.1255 -0.1266  0.2021
 2722W        W 3719   4.731   5.739   2.671  0.2334  0.1053  0.0082
 2723W        W 3720   4.782   4.614   1.757  0.2234  0.1088 -0.2653
 2724W        W 3721   7.304   0.477   0.486 -0.0239  0.2037 -0.2468
 2725W        W 3722   7.201   0.718   6.818  0.1872 -0.0416  0.0581
 2726W        W 3723   4.159   5.858   7.303  0.1276 -0.0956 -0.0334
 2727W        W 3724   6.287   3.729   1.822  0.1432 -0.1702  0.4157
 2728W        W 3725   6.760   0.985   0.322  0.3640 -0.0413 -0.1626
 2729W        W 3726   6.567   1.430   3.387  0.1259  0.0219 -0.1379
 2730W        W 3727   6.038   3.448   3.769 -0.0869  0.0797  0.0966
 2731W        W 3728   6.639   6.614   2.666  0.1001  0.1609  0.1135
 2732W        W 3729   0.661   0.834   4.386 -0.2317 -0.0536  0.2865
 2733W        W 3730   3.938   7.518   3.778 -0.1188 -0.0476 -0.1171
 2734W        W 3731   1.993   6.848   5.017  0.2323  0.1265 -0.0640
 2735W        W 3732   0.255   7.372   1.424  0.0809  0.2912  0.0080
 2736W        W 3733   4.387   5.470   6.730  0.0891 -0.0675  0.0072
 2737W        W 3734   5.917   4.292   6.494 -0.4621 -0.0476 -0.2398
 2738W        W 3735   6.316   5.727   6.618  0.0440 -0.1407 -0.2425
 2739W        W 3736   2.165   4.872   5.710 -0.0694 -0.1632 -0.1743
 2740W        W 3737   0.810   3.236   4.116  0.0588 -0.2606  0.2183
 2741W        W 3738   7.203   3.252   4.495 -0.5452  0.0924 -0.2327
 2742W        W 3739   2.816   1.000   4.847 -0.2792  0.1029  0.0311
 2743W        W 3740   7.063   0.601   5.105  0.1915 -0.4154 -0.2143
 2744W        W 3741   3.510   2.639   4.660  0.0729  0.0868  0.0878
 2745W        W 3742   2.748   4.718   2.664  0.2809 -0.0680 -0.0541
 2746W        W 3743   5.065   1.714   6.248 -0.0596 -0.0991  0.1646
 2747W        W 3744   0.776   3.594   0.329  0.0066  0.1218 -0.0919
 2748W        W 3745   0.195   5.471   6.720 -0.2000 -0.2663  0.0324
 2749W        W 3746   4.094   5.079   6.910  0.1239  0.0607  0.3814
 2750W        W 3747   6.872   5.630   2.724  0.0151  0.1014  0.0769
 2751W        W 3748   4.548   2.097   4.981 -0.2243  0.3556  0.2829
 2752W        W 3749   3.497   6.573   2.287 -0.0782 -0.0540  0.0469
 2753W        W 3750   1.682   4.995   3.955  0.0425 -0.0179  0.0081
 2754W        W 3751   4.529   3.545   2.920  0.1670  0.0060 -0.0266
 2755W        W 3752   2.352   5.125   0.341 -0.3311  0.2366 -0.0721
 2756W        W 3753   4.595   7.473   6.472  0.3098 -0.1124  0.1841
 2757W        W 3754   1.517   2.373   5.459  0.0345 -0.2041 -0.0622
 2758W        W 3755   3.564   4.894   4.055  0.0989 -0.0668  0.2384
 2759W        W 3756   2.446   4.851   7.499 -0.1363  0.0583  0.1419
 2760W        W 3757   4.370   7.524   3.566  0.2399 -0.1896 -0.2362
 2761W        W 3758   7.188   6.469   0.845 -0.0012  0.0174  0.0323
 2762W        W 3759   2.641   6.098   0.249 -0.1616 -0.0989  0.0694
 2763W        W 3760   7.262   6.605   6.711 -0.1793 -0.0364  0.2636
 2764W        W 3761   5.709   5.628   6.681  0.0944 -0.3616  0.2855
 2765W        W 3762   5.773   1.894   2.228 -0.2444  0.2311  0.0216
 2766W        W 3763   7.200   2.785   6.466 -0.1359  0.1681 -0.4704
 2767W        W 3764   0.868   5.359   1.895  0.0992  0.3297  0.0385
 2768W        W 3765   7.603   4.583   7.192 -0.4133 -0.3376 -0.4142
 2769W        W 3766   5.010   0.186   6.451  0.2346 -0.2005  0.0988
 2770W        W 3767   1.073   4.833   6.784 -0.1672 -0.0588  0.0504
 2771W        W 3768   0.766   7.200   4.321  0.3612  0.0382  0.0238
 2772W        W 3769   3.869   7.541   1.504 -0.3090  0.1768  0.2117
 2773W        W 3770   6.534   3.987   4.367  0.0552  0.2721 -0.4411
 2774W        W 3771   5.151   5.182   6.167  0.1151  0.1099  0.1749
 2775W        W 3772   2.853   4.065   5.003 -0.0146 -0.0160 -0.1346
 2776W        W 3773   5.268   6.833   4.509  0.1375 -0.1607 -0.2481
 2777W        W 3774   5.676   4.669   7.618 -0.2858 -0.0370  0.3292
 2778W        W 3775   1.511   7.200   6.156 -0.1943 -0.2574 -0.0786
 2779W        W 3776   4.314   1.810   4.160 -0.0285 -0.0152 -0.2819
 2780W        W 3777   6.622   4.598   4.395  0.3613 -0.1083 -0.3186
 2781W        W 3778   7.149   6.885   4.132 -0.2014  0.1460  0.0282
 2782W        W 3779   2.172   2.215   5.153 -0.1899 -0.2535  0.1716
 2783W        W 3780   7.237   0.051   6.047 -0.3289 -0.2080 -0.0128
 2784W        W 3781   6.860   1.839   5.601 -0.2519  0.3385 -0.0408
 2785W        W 3782   4.172   4.323   1.262  0.1004  0.0965 -0.3599
 2786W        W 3783   7.173   0.734   2.222  0.0487 -0.2377 -0.2009
 2787W        W 3784   2.661   0.153   5.890  0.1005  0.1418 -0.1744
 2788W        W 3785   6.549   0.468   5.045 -0.1128 -0.0170 -0.0830
 2789W        W 3786   3.483   7.182   3.057 -0.0050  0.2151  0.1651
 2790W        W 3787   4.228   2.099   5.776 -0.1812 -0.0893  0.0822
 2791W        W 3788   5.311   6.192   5.350 -0.0866  0.2365 -0.3302
 2792W        W 3789   5.949   0.128   6.118 -0.1533 -0.1274  0.1997
 2793W        W 3790   6.846   2.026   6.813  0.2706  0.0373 -0.0041
 2794W        W 3791   2.768   5.343   3.460  0.0243  0.0206 -0.1881
 2795W        W 3792   5.013   2.867   3.396  0.0807  0.2142  0.1858
 2796W        W 3793   6.719   6.691   6.113  0.3136 -0.0668  0.0223
 2797W        W 3794   6.670   2.183   2.909 -0.2344  0.0028 -0.2245
 2798W        W 3795   4.270   7.642   6.869  0.0908  0.1172 -0.1216
 2799W        W 3796   3.640   4.607   0.440  0.1972 -0.1394  0.2637
 2800W        W 3797   6.976   2.089   3.610  0.0902  0.2356 -0.0118
 2801W        W 3798   5.502   0.746   4.043  0.2730  0.1160 -0.2298
 2802W        W 3799   0.967   3.546   7.078  0.1397 -0.3024  0.0025
 2803W        W 3800   2.447   7.310   5.058 -0.2127  0.0120 -0.3229
 2804W        W 3801   2.231   4.765   5.212 -0.1933  0.0275 -0.0234
 2805W        W 3802   6.152   1.661   4.526 -0.0111  0.2674  0.3687
 2806W        W 3803   4.044   4.135   6.266 -0.1487  0.0176 -0.0878
 2807W        W 3804   1.653   2.828   5.664 -0.1914 -0.1899 -0.0198
 2808W        W 3805   6.491   0.156   6.842  0.3704  0.1622  0.0511
 2809W        W 3806   4.489   0.437   5.896 -0.2654 -0.0720  0.3165
 2810W        W 3807   3.678   3.921   6.045 -0.0705 -0.3719  0.1147
 2811W        W 3808   4.451   5.777   4.470 -0.0021  0.2055 -0.1888
 2812W        W 3809   1.276   3.108   6.626 -0.1673 -0.0376 -0.0494
 2813W        W 3810   7.104   4.036   7.610 -0.0177  0.0348  0.2070
 2814W        W 3811   6.325   5.510   3.975 -0.3354  0.0157 -0.0327
 2815W        W 3812   0.217   2.917   1.672  0.3027 -0.1169 -0.1438
 2816W        W 3813   4.214   3.553   7.251 -0.1966 -0.2478  0.0391
 2817W        W 3814   2.288   1.262   4.884  0.1136  0.3561 -0.1039
 2818W        W 3815   2.106   3.708   4.399 -0.0632 -0.2906  0.3206
 2819W        W 3816   0.817   4.896   3.462 -0.2575 -0.1944 -0.1028
 2820W        W 3817   0.543   2.186   4.357 -0.2376 -0.1786  0.0731
 2821W        W 3818   7.215   1.904   7.561  0.1042 -0.0219  0.3370
 2822W        W 3819   1.901   6.073   2.763  0.0252  0.1764 -0.0021
 2823W        W 3820   2.578   5.178   2.855  0.0375 -0.3208 -0.1122
 2824W        W 3821   2.936   7.404   2.352 -0.0273  0.1803  0.1292
 2825W        W 3822   6.515   2.192   5.484 -0.2215 -0.0330 -0.1473
 2826W        W 3823   2.072   6.874   5.807 -0.2332  0.1611  0.0353
 2827W        W 3824   6.045   5.323   2.786 -0.1505 -0.0173  0.0976
 2828W        W 3825   2.737   3.893   6.105 -0.0646 -0.0172  0.3150
 2829W        W 3826   7.586   2.972   2.908 -0.1358 -0.2671  0.0772
 2830W        W 3827   0.743   4.836   5.417  0.4297  0.1420  0.0047
 2831W        W 3828   6.680   7.207   1.192 -0.2501  0.2716 -0.1859
 2832W        W 3829   4.880   7.505   6.102 -0.2707  0.4267 -0.0970
 2833W        W 3830   0.260   4.921   7.007 -0.0249 -0.0358 -0.0149
 2834W        W 3831   0.412   1.378   6.024  0.1494 -0.1451 -0.0603
 2835W        W 3832   2.404   6.214   5.767  0.0323 -0.0732 -0.3950
 2836W        W 3833   5.480   1.825   5.251  0.0003  0.0200  0.0149
 2837W        W 3834   1.297   0.583   6.354 -0.0590 -0.0642  0.1202
 2838W        W 3835   5.296   7.535   7.463  0.0407  0.0383 -0.1525
 2839W        W 3836   1.041   0.942   6.142 -0.1708  0.2818  0.0909
 2840W        W 3837   2.199   7.030   1.184 -0.1649 -0.1507  0.0094
 2841W        W 3838   6.587   0.936   5.243  0.0103 -0.2089 -0.0837
 2842W        W 3839   4.894   4.111   7.580 -0.1632 -0.0234  0.0743
 2843W        W 3840   2.253   3.291   6.576  0.1746  0.0584  0.0895
 2844W        W 3841   3.103   7.525   6.612  0.0922  0.0409 -0.0579
 2845W        W 3842   2.646   1.590   6.151 -0.0882 -0.0628  0.0857
 2846W        W 3843   0.910   0.163   6.555  0.2197 -0.1495  0.1339
 2847W        W 3844   4.346   5.402   5.557 -0.0119 -0.4108 -0.2308
 2848W        W 3845   2.258   5.397   3.833  0.0369 -0.1003 -0.2485
 2849W        W 3846   5.903   6.640   6.620  0.0481  0.0153 -0.1846
 2850W        W 3847   6.763   7.139   0.319 -0.3031  0.1715  0.3532
 2851W        W 3848   4.817   7.331   1.624 -0.1774 -0.1079 -0.1323
 2852W        W 3849   0.095   7.308   3.784  0.0003  0.1125  0.2300
 2853W        W 3850   4.771   0.667   7.261  0.0156  0.2464  0.0424
 2854W        W 3851   5.950   0.776   2.989 -0.1438  0.1228  0.2262
 2855W        W 3852   5.773   1.135   0.943  0.3267 -0.0560 -0.0337
 2856W        W 3853   5.581   4.002   5.751 -0.1422 -0.2817 -0.1036
 2857W        W 3854   1.535   6.801   4.198  0.0091  0.1313  0.1981
 2858W        W 3855   5.636   1.525   4.413 -0.2122 -0.0851  0.0451
 2859W        W 3856   3.095   5.788   1.150  0.2320  0.2790  0.0050
 2860W        W 3857   4.902   5.490   6.892 -0.1192 -0.2612  0.2596
 2861W        W 3858   0.046   2.792   6.099  0.1616  0.0647  0.4696
 2862W        W 3859   3.119   5.813   7.094  0.1171  0.0009  0.1260
 2863W        W 3860   5.914   5.065   0.162  0.2175  0.0407 -0.2164
 2864W        W 3861   1.704   0.370   3.742  0.0178  0.2260  0.4165
 2865W        W 3862   2.461   7.315   7.571  0.1016  0.4225  0.0069
 2866W        W 3863   5.900   6.060   6.888  0.0004 -0.1287 -0.2330
 2867W        W 3864   1.342   4.316   4.643 -0.0623 -0.0243  0.1200
 2868W        W 3865   4.771   0.421   4.668 -0.2546  0.1335 -0.1236
 2869W        W 3866   1.986   6.714   0.877  0.1337 -0.1143 -0.0427
 2870W        W 3867   2.817   6.129   2.811 -0.4330 -0.0623 -0.2986
 2871W        W 3868   2.456   4.256   5.298  0.3268 -0.0282 -0.0289
 2872W        W 3869   1.864   4.328   5.085  0.1079  0.2114 -0.2374
 2873W        W 3870   5.949   2.961   1.299 -0.0673 -0.0186 -0.0199
 2874W        W 3871   4.795   2.137   7.396 -0.0632  0.0640 -0.4276
 2875W        W 3872   7.000   2.469   7.632 -0.1300  0.1295 -0.0064
 2876W        W 3873   3.971   4.028   4.493  0.1005  0.0265 -0.0567
 2877W        W 3874   6.777   2.219   0.460 -0.1464 -0.0215 -0.1876
 2878W        W 3875   7.040   3.480   0.009  0.2298  0.1765  0.0534
 2879W        W 3876   3.676   2.898   3.896 -0.1242  0.1653  0.1430
 2880W        W 3877   6.180   2.255   2.619  0.1087  0.0417  0.1551
 2881W        W 3878   4.753   7.139   4.443 -0.3026  0.0238  0.0339
 2882W        W 3879   4.547   5.735   0.550  0.0259 -0.2829 -0.1502
 2883W        W 3880   0.601   4.272   4.432 -0.2169 -0.0996  0.0331
 2884W        W 3881   7.389   1.046   4.877 -0.1824  0.1195  0.1690
 2885W        W 3882   6.142   4.293   5.203  0.1908 -0.1942  0.0755
 2886W        W 3883   6.581   2.186   3.960 -0.1017 -0.2539 -0.0250
 2887W        W 3884   4.961   6.550   0.833  0.3319 -0.0375  0.3224
 2888W        W 3885   6.927   1.467   4.337 -0.1268  0.0935  0.1492
 2889W        W 3886   7.251   6.612   7.244  0.0312 -0.0228  0.0504
 2890W        W 3887   4.268   6.421   5.950  0.1976 -0.1287  0.1280
 2891W        W 3888   0.267   4.230   7.578  0.1472 -0.1835 -0.3268
 2892W        W 3889   5.897   3.544   1.440 -0.0827  0.1294  0.0262
 2893W        W 3890   5.774   3.296   5.359 -0.3016 -0.1420 -0.0487
 2894W        W 3891   5.018   3.392   6.713  0.3401 -0.2368  0.3412
 2895W        W 3892   7.274   1.149   4.325 -0.0949 -0.0754  0.1015
 2896W        W 3893   4.965   1.940   4.319  0.2828  0.1570  0.2199
 2897W        W 3894   0.420   6.175   2.824 -0.1265 -0.0757  0.1785
 2898W        W 3895   6.044   4.756   0.958 -0.6362  0.1191 -0.2557
 2899W        W 3896   4.053   0.771   2.531 -0.3044 -0.0656 -0.2829
 2900W        W 3897   5.624   2.210   3.535  0.0284  0.0846  0.1702
 2901W        W 3898   3.851   5.116   5.431  0.0188  0.0903  0.1227
 2902W        W 3899   2.292   6.853   7.573  0.0451 -0.2861  0.0046
 2903W        W 3900   3.816   7.427   0.588  0.2617  0.0111 -0.0715
 2904W        W 3901   6.847   6.300   2.296  0.0656 -0.2638 -0.1352
 2905W        W 3902   3.304   2.951   6.257  0.2883 -0.0792 -0.2608
 2906W        W 3903   3.501   2.570   5.589  0.2816  0.0457  0.0530
 2907W        W 3904   5.365   1.344   3.537 -0.1177 -0.0945  0.1409
 2908W        W 3905   4.101   0.858   1.061 -0.0992 -0.2103 -0.2970
 2909W        W 3906   4.752   3.322   2.056  0.2558 -0.0469 -0.1824
 2910W        W 3907   6.604   0.641   7.640  0.1839 -0.2081  0.1992
 2911W        W 3908   2.832   3.481   3.353  0.1226 -0.0692  0.0597
 2912W        W 3909   7.379   1.379   5.246 -0.0436 -0.2014 -0.4941
 2913W        W 3910   0.064   4.123   5.356  0.0299 -0.1631 -0.0861
 2914W        W 3911   7.024   6.045   0.125  0.0656  0.1751  0.3400
 2915W        W 3912   7.557   7.002   3.359  0.1302 -0.2597 -0.2952
 2916W        W 3913   7.344   1.808   6.081  0.3148 -0.0655  0.0704
 2917W        W 3914   0.071   1.001   4.479  0.3103 -0.0501  0.0724
 2918W        W 3915   0.281   6.694   1.664  0.2991 -0.1729  0.2554
 2919W        W 3916   5.553   4.724   6.214  0.0942 -0.3851 -0.0087
 2920W        W 3917   4.195   2.242   7.461 -0.0606  0.2202  0.3491
 2921W        W 3918   1.924   5.969   4.528 -0.0125 -0.3515  0.1169
 2922W        W 3919   1.344   7.328   4.379  0.0328  0.0722  0.1084
 2923W        W 3920   3.472   7.402   5.205 -0.0194 -0.2405  0.1225
 2924W        W 3921   5.035   1.594   1.925  0.0111 -0.0705  0.1132
 2925W        W 3922   3.760   1.690   4.298  0.3782 -0.0716  0.1340
 2926W        W 3923   0.102   3.761   2.076  0.0861  0.1399 -0.2714
 2927W        W 3924   4.601   6.986   6.625  0.3366 -0.1383  0.1211
 2928W        W 3925   5.874   6.757   4.821  0.2224 -0.0834 -0.0037
 2929W        W 3926   1.444   4.773   0.717 -0.3054 -0.1225  0.2808
 2930W        W 3927   0.386   4.588   6.244  0.0550  0.0274  0.2318
 2931W        W 3928   5.407   3.082   6.809  0.1997  0.1291  0.0628
 2932W        W 3929   4.955   0.374   5.961  0.4492  0.0200  0.0008
 2933W        W 3930   2.957   3.467   4.320 -0.1805  0.1327 -0.0060
 2934W        W 3931   0.330   4.915   3.254  0.1275  0.1846 -0.0970
 2935W        W 3932   5.711   2.419   4.031  0.1515 -0.0940 -0.1630
 2936W        W 3933   5.109   4.040   5.286  0.0275 -0.0840  0.0499
 2937W        W 3934   6.059   4.265   4.480 -0.0760  0.1725  0.0048
 2938W        W 3935   5.253   2.779   1.398  0.1260 -0.0448  0.3579
 2939W        W 3936   7.481   5.897   5.044 -0.0725 -0.2153 -0.2456
 2940W        W 3937   3.038   7.649   4.871 -0.2366 -0.0301 -0.0039
 2941W        W 3938   3.748   5.529   1.853  0.2006  0.0378  0.0956
 2942W        W 3939   0.642   6.216   4.442  0.1580 -0.0236 -0.0987
 2943W        W 3940   6.908   5.373   4.849  0.0126 -0.1744  0.2399
 2944W        W 3941   2.921   7.362   5.267 -0.1982  0.1676  0.2490
 2945W        W 3942   5.706   6.693   0.902  0.1207  0.1451  0.1575
 2946W        W 3943   5.248   5.301   4.627  0.2556  0.3728 -0.0748
 2947W        W 3944   1.823   3.496   6.396  0.2800  0.1133 -0.4419
 2948W        W 3945   5.332   4.174   0.794 -0.1140 -0.2076  0.2738
 2949W        W 3946   2.778   7.029   0.467 -0.0105  0.2007 -0.0152
 2950W        W 3947   3.690   0.618   2.142  0.1195  0.1790 -0.0206
 2951W        W 3948   3.754   2.638   2.750  0.0292 -0.1209  0.0671
 2952W        W 3949   4.248   3.843   6.773 -0.2111 -0.0441  0.2281
 2953W        W 3950   7.418   1.603   3.171 -0.1016  0.3636  0.2713
 2954W        W 3951   4.787   5.309   0.460  0.1284  0.1317 -0.1439
 2955W        W 3952   0.872   5.790   1.698 -0.0974 -0.0315  0.1461
 2956W        W 3953   0.324   5.627   2.985 -0.1976  0.3555 -0.1759
 2957W        W 3954   2.877   4.477   3.460 -0.0544 -0.0689  0.2109
 2958W        W 3955   6.832   2.064   1.350 -0.2478  0.4122  0.1580
 2959W        W 3956   4.118   3.741   5.004 -0.1165 -0.0343  0.0238
 2960W        W 3957   6.168   6.876   2.507  0.1284  0.0188  0.1218
 2961W        W 3958   7.506   0.497   3.980 -0.1506  0.3128 -0.0371
 2962W        W 3959   1.970   5.840   0.985  0.1248 -0.3465 -0.1090
 2963W        W 3960   7.612   7.263   2.418  0.3665 -0.2219 -0.0191
 2964W        W 3961   7.215   5.260   2.388  0.1063  0.2745  0.0779
 2965W        W 3962   0.696   7.588   5.059  0.1486 -0.2817 -0.3417
 2966W        W 3963   2.476   6.828   1.863 -0.0014  0.1619  0.2564
 2967W        W 3964   3.269   3.055   4.089 -0.0015  0.1104  0.1292
 2968W        W 3965   0.886   0.044   5.555 -0.1581 -0.0398  0.2212
 2969W        W 3966   6.461   5.984   0.874 -0.2728  0.0356  0.2108
 2970W        W 3967   4.915   4.063   4.804 -0.0188 -0.0344 -0.0431
 2971W        W 3968   0.871   1.006   7.083  0.1565 -0.0506  0.1696
 2972W        W 3969   2.037   0.096   5.660  0.1228  0.1789 -0.0650
 2973W        W 3970   6.452   6.643   7.281  0.0672 -0.0097 -0.0649
 2974W        W 3971   5.794   7.113   0.578  0.0389 -0.1285 -0.3096
 2975W        W 3972   0.387   0.792   7.000 -0.0476 -0.1906  0.2123
 2976W        W 3973   4.248   2.774   1.598  0.0846 -0.0194 -0.1006
 2977W        W 3974   3.769   5.371   4.535  0.2591  0.1380 -0.3346
 2978W        W 3975   0.856   6.015   4.021  0.0601 -0.2046  0.1980
 2979W        W 3976   7.047   7.447   7.212  0.0902 -0.1423  0.1146
 2980W        W 3977   7.271   2.563   1.229  0.4015 -0.1553 -0.4513
 2981W        W 3978   2.634   2.072   6.103  0.0419  0.0959 -0.1627
 2982W        W 3979   6.889   2.321   4.394 -0.1541 -0.1108 -0.0083
 2983W        W 3980   5.383   7.292   4.361  0.1928  0.0814  0.3249
 2984W        W 3981   4.853   6.982   2.144  0.1680 -0.1216  0.0764
 2985W        W 3982   6.485   5.417   5.896  0.2227  0.0011 -0.1880
 2986W        W 3983   4.033   6.569   4.084  0.1878  0.0604 -0.0150
 2987W        W 3984   1.846   3.830   1.865  0.0605 -0.1578 -0.0122
 2988W        W 3985   6.457   7.478   5.026 -0.0415  0.3130 -0.0659
 2989W        W 3986   6.915   4.182   6.530  0.0280 -0.0133 -0.0130
 2990W        W 3987   6.507   5.061   0.698  0.0638  0.0047  0.0183
 2991W        W 3988   2.813   7.059   6.673  0.2589  0.1368  0.4527
 2992W        W 3989   6.278   2.655   1.056  0.1135 -0.2996 -0.2666
 2993W        W 3990   3.389   0.405   5.877  0.0403  0.1576  0.0364
 2994W        W 3991   7.477   0.329   6.993 -0.0859 -0.2191 -0.0833
 2995W        W 3992   6.177   5.938   3.230 -0.1323 -0.1225  0.1081
 2996W        W 3993   4.095   3.354   4.661 -0.0544  0.1109 -0.2890
 2997W        W 3994   0.400   5.774   5.927  0.2029  0.0924  0.0064
 2998W        W 3995   0.387   7.206   3.367 -0.1181 -0.3514  0.0010
 2999W        W 3996   0.579   0.524   0.485  0.2047 -0.1431  0.0306
 3000W        W 3997   7.169   2.293   4.852  0.1033  0.0222  0.0086
 3001W        W 3998   1.272   3.267   4.385  0.1912  0.0121  0.0666
 3002W        W 3999   3.855   2.945   2.406  0.0543  0.0891  0.1458
 3003W        W 4000   2.881   3.795   5.611 -0.1207 -0.1882  0.1869
 3004W        W 4001   4.657   4.406   7.258  0.4828 -0.1625  0.1906
 3005W        W 4002   1.772   6.211   4.132 -0.1309  0.0309 -0.1028
 3006W        W 4003   2.191   7.372   3.737 -0.3066 -0.2375  0.2980
 3007W        W 4004   1.191   1.742   4.916  0.1422  0.0691 -0.3318
 3008W        W 4005   3.532   4.900   6.241  0.4161  0.1309 -0.1536
 3009W        W 4006   3.212   5.678   0.668 -0.1415  0.0022 -0.0688
 3010W        W 4007   6.140   5.956   1.273 -0.3320  0.2474 -0.2297
 3011W        W 4008   4.470   0.451   2.653  0.1721 -0.2276  0.0903
 3012W        W 4009   7.616   0.645   4.848 -0.3518  0.0743  0.0427
 3013W        W 4010   3.973   6.175   0.910 -0.2801 -0.1154  0.0505
 3014W        W 4011   0.043   5.273   4.445  0.1785 -0.2162  0.3518
 3015W        W 4012   5.809   6.422   5.963  0.2670  0.2533 -0.1961
 3016W        W 4013   2.070   1.284   5.381 -0.1438  0.0565 -0.0889
 3017W        W 4014   2.023   3.746   6.981  0.0561  0.0421 -0.3438
 3018W        W 4015   7.477   6.902   4.497  0.1370  0.0051  0.0781
 3019W        W 4016   7.096   4.598   3.800 -0.3755 -0.1412 -0.0073
 3020W        W 4017   7.652   3.078   2.424  0.0187  0.2183  0.0047
 3021W        W 4018   4.468   0.312   5.127  0.0217  0.1489  0.1143
 3022W        W 4019   2.501   6.560   3.137 -0.1316  0.0216  0.1391
 3023W        W 4020   7.024   1.570   3.449  0.1135 -0.1493 -0.0651
 3024W        W 4021   1.214   2.373   6.436 -0.1029  0.2435 -0.1258
 3025W        W 4022   5.228   2.325   3.934 -0.3746  0.0011 -0.0011
 3026W        W 4023   1.407   4.563   3.341 -0.2137  0.2068 -0.2351
 3027W        W 4024   3.461   5.060   3.229  0.0363  0.2922  0.2730
 3028W        W 4025   0.496   5.202   4.221  0.0310 -0.3146 -0.1703
 3029W        W 4026   7.309   4.748   7.630  0.2178  0.0411  0.0190
 3030W        W 4027   6.525   5.210   4.628  0.1109  0.3164 -0.0627
 3031W        W 4028   4.263   4.584   5.340 -0.0471  0.2772 -0.2158
 3032W        W 4029   0.511   7.552   0.531  0.2304  0.0207 -0.0640
 3033W        W 4030   7.240   2.872   5.108  0.0467 -0.4981 -0.1618
 3034W        W 4031   2.292   5.657   5.186 -0.2349  0.1005  0.1238
 3035W        W 4032   2.677   4.775   5.655 -0.3435 -0.1311 -0.2079
 3036W        W 4033   3.197   3.306   3.038  0.1419 -0.3495  0.0547
 3037W        W 4034   5.215   5.440   5.138 -0.0203  0.0968 -0.2167
 3038W        W 4035   1.139   5.352   7.156  0.0902  0.1451 -0.2972
 3039W        W 4036   5.814   6.404   0.464  0.1571  0.0553 -0.1320
 3040W        W 4037   4.499   6.514   3.835  0.1748 -0.2812 -0.1038
 3041W        W 4038   5.071   4.689   5.984  0.2149  0.0102  0.0922
 3042W        W 4039   1.844   0.851   4.116 -0.3665  0.0338  0.2486
 3043W        W 4040   1.308   5.558   5.280  0.2613 -0.3245  0.0532
 3044W        W 4041   5.524   0.198   2.860 -0.1860 -0.1955  0.1648
 3045W        W 4042   2.559   0.956   4.360  0.3176 -0.3285 -0.2578
 3046W        W 4043   1.161   5.669   0.316 -0.2619  0.3090  0.0462
 3047W        W 4044   7.399   6.220   5.409 -0.0819  0.0258 -0.1185
 3048W        W 4045   0.603   7.422   7.583  0.2241  0.0035  0.1939
 3049W        W 4046   5.676   5.185   6.345 -0.3788  0.3470 -0.2800
 3050W        W 4047   1.859   7.016   2.531 -0.1512 -0.1702  0.1012
 3051W        W 4048   0.901   3.991   0.799  0.0836 -0.1369 -0.0637
 3052W        W 4049   4.920   5.738   0.877  0.0318 -0.2468  0.1276
 3053W        W 4050   5.844   0.227   5.574  0.0557  0.0743  0.0838
 3054W        W 4051   4.546   7.075   7.519  0.0733 -0.0547  0.2585
 3055W        W 4052   6.561   7.554   0.209 -0.1497 -0.1617 -0.3215
 3056W        W 4053   6.761   6.861   3.731 -0.0451  0.1432  0.3073
 3057W        W 4054   2.009   3.302   4.043  0.1860 -0.1376 -0.0507
 3058W        W 4055   2.592   4.453   4.846 -0.2484 -0.0194 -0.2281
 3059W        W 4056   5.954   0.241   0.869  0.0364  0.2090  0.2660
 3060W        W 4057   2.634   0.005   3.073 -0.0101 -0.3551 -0.3632
 3061W        W 4058   6.505   6.687   5.368 -0.2627 -0.3681 -0.0443
 3062W        W 4059   1.214   6.541   5.345 -0.1027 -0.2148  0.1224
 3063W        W 4060   3.684   7.060   7.330  0.5155  0.1566 -0.3312
 3064W        W 4061   3.261   0.942   3.146 -0.3760 -0.0456 -0.0280
 3065W        W 4062   1.309   0.271   5.632 -0.2431  0.0775 -0.0274
 3066W        W 4063   5.534   4.762   5.250 -0.1954 -0.0352 -0.4456
 3067W        W 4064   3.129   6.794   0.824 -0.0856 -0.0529 -0.1744
 3068W        W 4065   1.027   7.447   4.685  0.1365 -0.1865  0.0795
 3069W        W 4066   3.324   4.726   3.635  0.3686 -0.0713 -0.0491
 3070W        W 4067   6.367   2.207   0.894 -0.0879  0.4477 -0.1781
 3071W        W 4068   6.820   0.460   4.620 -0.3839 -0.5594 -0.2218
 3072W        W 4069   7.257   3.269   6.483  0.0922 -0.1329  0.2750
 3073W        W 4070   6.370   5.980   4.529  0.1240  0.0822  0.1372
 3074W        W 4071   0.702   7.571   1.501 -0.1706 -0.1277 -0.2630
 3075W        W 4072   2.390   0.645   4.805 -0.1842 -0.0494  0.3389
 3076W        W 4073   1.749   4.197   1.520  0.2051 -0.0215  0.0232
 3077W        W 4074   5.494   4.208   7.485  0.1840 -0.0750 -0.0163
 3078W        W 4075   1.011   5.972   4.513 -0.0864  0.3722 -0.1158
 3079W        W 4076   7.303   2.275   6.717  0.0225 -0.1747 -0.1655
 3080W        W 4077   3.017   6.837   2.205  0.1253  0.1734  0.0524
 3081W        W 4078   4.967   7.644   4.186  0.0439 -0.0045 -0.0010
 3082W        W 4079   1.063   1.490   6.828  0.1212 -0.0137  0.2841
 3083W        W 4080   1.630   0.212   6.955 -0.1627 -0.1539 -0.3223
 3084W        W 4081   3.408   2.169   5.895  0.1216 -0.2898 -0.0319
 3085W        W 4082   4.834   4.163   1.596 -0.0458 -0.0838  0.0670
 3086W        W 4083   5.700   6.129   6.394  0.1269  0.1144  0.0213
 3087W        W 4084   5.891   4.693   4.217 -0.0665 -0.0807  0.1702
 3088W        W 4085   0.916   5.332   3.810  0.0419 -0.0110 -0.3835
 3089W        W 4086   6.381   1.881   6.333 -0.0386  0.0831 -0.1649
 3090W        W 4087   5.322   2.988   5.575 -0.1538  0.1473 -0.1047
 3091W        W 4088   0.078   2.576   6.658  0.3499 -0.1730  0.1295
 3092W        W 4089   5.583   3.876   6.258 -0.1710 -0.0401  0.0808
 3093W        W 4090   6.820   3.126   5.015  0.0547 -0.0021 -0.0189
 3094W        W 4091   1.098   5.515   4.743 -0.0311  0.0880  0.2437
 3095W        W 4092   3.940   1.481   3.854  0.1307  0.0930 -0.0639
 3096W        W 4093   7.416   6.418   3.977 -0.0578  0.1994  0.0889
 3097W        W 4094   2.154   0.136   5.182 -0.1616  0.1313 -0.3004
 3098W        W 4095   3.594   5.884   3.779  0.0057 -0.0090  0.0489
 3099W        W 4096   3.158   6.983   5.704 -0.1871  0.0732  0.0169
 3100W        W 4097   0.847   5.400   3.281  0.1956 -0.2400  0.3005
 3101W        W 4098   5.449   1.353   2.263  0.0119 -0.1810 -0.2135
 3102W        W 4099   5.556   7.478   6.440  0.0567  0.0714 -0.0246
 3103W        W 4100   0.964   1.106   4.056 -0.0955 -0.0538 -0.0670
 3104W        W 4101   5.308   3.496   5.439  0.1914  0.2061  0.0352
 3105W        W 4102   0.069   5.327   0.370 -0.0500 -0.0172  0.1416
 3106W        W 4103   4.906   3.652   4.441  0.0290 -0.0060  0.2342
 3107W        W 4104   5.155   0.859   5.172  0.1926  0.0178  0.2939
 3108W        W 4105   1.439   5.930   1.008  0.0735 -0.0265 -0.0172
 3109W        W 4106   7.057   5.553   7.637 -0.0908 -0.2070  0.0474
 3110W        W 4107   6.354   6.799   1.145  0.0945  0.3429  0.0110
 3111W        W 4108   6.389   3.604   0.729 -0.1515  0.2830 -0.1523
 3112W        W 4109   4.756   4.542   5.049 -0.0485 -0.1885 -0.1330
 3113W        W 4110   2.748   0.816   6.594 -0.0429  0.0703 -0.1476
 3114W        W 4111   6.096   0.809   7.524 -0.2187  0.0617  0.1112
 3115W        W 4112   5.486   3.715   1.007  0.2334 -0.4327 -0.1037
 3116W        W 4113   1.208   5.181   0.420 -0.0108  0.0700 -0.1796
 3117W        W 4114   1.273   0.031   3.556  0.0139  0.2805 -0.0539
 3118W        W 4115   1.257   3.667   4.720 -0.0403 -0.0084 -0.1478
 3119W        W 4116   3.025   7.540   4.347  0.2863 -0.0998 -0.2082
 3120W        W 4117   0.386   7.108   0.716 -0.1618 -0.1150 -0.2162
 3121W        W 4118   2.848   6.912   3.183 -0.0396  0.0994  0.1882
 3122W        W 4119   5.156   5.375   3.836 -0.2351  0.2570 -0.0257
 3123W        W 4120   2.441   1.180   6.207 -0.0715  0.2341 -0.1714
 3124W        W 4121   4.046   4.321   5.772 -0.1131 -0.3138  0.2585
 3125W        W 4122   0.654   5.166   2.903  0.1613  0.4030 -0.0618
 3126W        W 4123   3.157   5.699   4.015 -0.3696 -0.1398 -0.2617
 3127W        W 4124   6.851   3.345   5.837 -0.0223  0.2097 -0.0309
 3128W        W 4125   6.763   3.829   0.293  0.0189  0.2389 -0.4500
 3129W        W 4126   0.045   5.447   5.817  0.2590 -0.2415  0.1573
 3130W        W 4127   7.056   4.935   2.827  0.2733 -0.1562 -0.0508
 3131W        W 4128   6.074   7.086   0.161 -0.0932 -0.0620 -0.1428
 3132W        W 4129   5.403   3.650   6.891 -0.1404 -0.0575 -0.1824
 3133W        W 4130   5.824   3.085   7.638 -0.0895  0.2433 -0.1612
 3134W        W 4131   0.504   4.582   0.299  0.1780  0.1338 -0.1329
 3135W        W 4132   1.023   3.533   5.913 -0.1218  0.0667 -0.0336
 3136W        W 4133   0.610   3.685   2.720  0.0837 -0.0972  0.0872
 3137W        W 4134   7.201   3.761   3.101  0.0751 -0.0869  0.3128
 3138W        W 4135   4.679   2.211   2.825  0.0728 -0.4683  0.1759
 3139W        W 4136   4.899   4.560   4.543  0.3709  0.2076 -0.0745
 3140W        W 4137   0.123   4.119   6.231  0.2323 -0.0157  0.0440
 3141W        W 4138   0.281   3.393   1.181 -0.0155  0.3135  0.1224
 3142W        W 4139   6.352   1.631   2.775 -0.0224  0.1739 -0.4231
 3143W        W 4140   6.248   1.405   4.939 -0.0767  0.0585 -0.0221
 3144W        W 4141   0.831   5.382   6.034 -0.0941  0.1709  0.2960
 3145W        W 4142   7.311   2.137   4.006  0.0073 -0.0065  0.1538
 3146W        W 4143   0.596   0.267   4.257  0.2751 -0.0618 -0.2780
 3147W        W 4144   5.898   6.070   5.523  0.3685 -0.0869 -0.0703
 3148W        W 4145   4.436   6.602   4.888 -0.1177  0.1281 -0.2699
 3149W        W 4146   4.429   2.732   4.189 -0.0924 -0.2798  0.1746
 3150W        W 4147   3.118   0.856   5.264  0.1390 -0.1249  0.1506
 3151W        W 4148   6.309   6.424   1.432 -0.0463  0.0403  0.1271
 3152W        W 4149   1.044   0.278   0.582 -0.2148 -0.2797  0.0712
 3153W        W 4150   5.169   1.113   6.434 -0.1708 -0.1497 -0.0104
 3154W        W 4151   4.776   0.742   3.030 -0.0327  0.0770  0.1586
 3155W        W 4152   6.625   5.260   3.571  0.1815  0.1820 -0.0445
 3156W        W 4153   1.265   6.828   1.653 -0.0478 -0.1217  0.1991
 3157W        W 4154   5.212   0.065   2.365  0.2089  0.1597  0.3390
 3158W        W 4155   6.801   2.561   5.941 -0.1045 -0.1271  0.1269
 3159W        W 4156   2.162   5.778   5.671 -0.1906  0.1127  0.0718
 3160W        W 4157   4.724   3.301   4.720  0.0836  0.4840 -0.0490
 3161W        W 4158   7.195   4.219   5.522 -0.0092  0.1042 -0.0528
 3162W        W 4159   0.882   5.913   1.172  0.3825 -0.1544  0.2021
 3163W        W 4160   6.248   5.365   3.236  0.0937 -0.2215 -0.1991
 3164W        W 4161   0.210   7.269   0.189  0.2353 -0.2136 -0.2048
 3165W        W 4162   3.027   2.669   5.426  0.3359  0.3832 -0.0369
 3166W        W 4163   6.098   3.396   7.094  0.1767 -0.2770 -0.2379
 3167W        W 4164   4.421   5.748   1.631 -0.0436  0.1066  0.2332
 3168W        W 4165   6.224   4.609   7.585 -0.1732 -0.3916 -0.2011
 3169W        W 4166   0.010   7.472   3.290 -0.0559 -0.0852  0.0980
 3170W        W 4167   3.198   6.226   3.608  0.1059  0.1370  0.1564
 3171W        W 4168   5.059   3.968   1.203 -0.2532 -0.1270 -0.1734
 3172W        W 4169   4.911   4.289   6.217  0.2654  0.1460  0.1979
 3173W        W 4170   6.264   1.842   2.316  0.0096  0.0099 -0.2747
 3174W        W 4171   6.329   1.837   1.214 -0.1409  0.0725 -0.1527
 3175W        W 4172   3.784   0.929   3.927  0.0217  0.2041  0.0358
 3176W        W 4173   6.175   4.543   7.094  0.3137 -0.1890  0.0339
 3177W        W 4174   1.881   4.028   3.423 -0.2011 -0.1252 -0.1958
 3178W        W 4175   3.377   4.307   5.137 -0.0264  0.0648  0.5343
 3179W        W 4176   3.463   4.426   3.197  0.3197 -0.2468 -0.5078
 3180W        W 4177   7.004   3.707   5.535  0.0283  0.1291 -0.0967
 3181W        W 4178   0.018   6.411   0.998 -0.1271  0.1009  0.0680
 3182W        W 4179   5.372   2.926   7.310 -0.0994  0.0081  0.0462
 3183W        W 4180   5.272   3.252   2.409  0.2376 -0.0352  0.2652
 3184W        W 4181   7.350   4.245   0.730 -0.1177 -0.0234  0.0985
 3185W        W 4182   1.660   0.253   6.019  0.0763 -0.0959 -0.2815
 3186W        W 4183   3.871   6.364   1.393 -0.2398 -0.2570 -0.0264
 3187W        W 4184   3.770   1.498   7.411 -0.0304  0.2264 -0.2557
 3188W        W 4185   5.101   4.601   5.416 -0.0282  0.0192 -0.0234
 3189W        W 4186   1.080   3.788   7.529  0.0637 -0.3912 -0.0509
 3190W        W 4187   2.982   2.216   3.989 -0.0336 -0.3428  0.1256
 3191W        W 4188   4.919   5.841   0.168  0.0556  0.2351  0.0511
 3192W        W 4189   3.353   6.034   2.832 -0.1383  0.1147  0.3208
 3193W        W 4190   4.798   4.066   2.623 -0.0134 -0.1939  0.0633
 3194W        W 4191   4.903   3.719   5.654  0.1626 -0.0346 -0.0247
 3195W        W 4192   5.026   1.147   2.112 -0.2591 -0.0604  0.1619
 3196W        W 4193   7.110   6.995   1.692  0.0043 -0.0850 -0.0392
 3197W        W 4194   4.556   1.391   2.399 -0.1433 -0.3195  0.0593
 3198W        W 4195   5.361   1.522   6.621  0.0780 -0.0706 -0.0620
 3199W        W 4196   1.951   4.396   3.837  0.1403  0.0204 -0.0166
 3200W        W 4197   6.995   0.147   5.560 -0.0798  0.3105 -0.0748
 3201W        W 4198   6.422   1.169   6.654 -0.1193 -0.0592 -0.4289
 3202W        W 4199   3.262   5.237   3.702  0.0346  0.2847  0.1594
 3203W        W 4200   0.181   7.098   2.930  0.4737 -0.1102 -0.1460
 3204W        W 4201   6.169   6.779   6.227  0.2499  0.0510  0.1039
 3205W        W 4202   6.089   2.277   2.058  0.2982 -0.1257  0.2155
 3206W        W 4203   2.770   6.618   2.698 -0.3584 -0.2046 -0.1816
 3207W        W 4204   5.430   3.245   1.209 -0.0953  0.0247 -0.1745
 3208W        W 4205   4.181   6.314   6.468  0.1490 -0.1845 -0.0138
 3209W        W 4206   3.197   5.005   1.407 -0.0671 -0.2434  0.1546
 3210W        W 4207   0.915   6.105   6.553  0.1559 -0.0831 -0.1459
 3211W        W 4208   6.400   0.950   4.788  0.0183  0.1229  0.0967
 3212W        W 4209   6.427   5.087   1.166  0.0056 -0.0043  0.1012
 3213W        W 4210   7.460   0.147   6.478 -0.0809  0.0746 -0.1985
 3214W        W 4211   7.127   2.208   2.581 -0.0536  0.2548 -0.0247
 3215W        W 4212   4.676   1.209   2.837  0.2851 -0.0093  0.1877
 3216W        W 4213   5.254   7.029   1.492 -0.0811  0.1493 -0.1988
 3217W        W 4214   4.181   5.071   7.511 -0.2374 -0.1991  0.2260
 3218W        W 4215   5.317   2.194   0.086 -0.1033  0.0083 -0.0741
 3219W        W 4216   0.198   1.939   6.199  0.2288 -0.1761  0.0854
 3220W        W 4217   4.009   2.523   5.610 -0.0814 -0.2573 -0.2230
 3221W        W 4218   2.808   3.059   6.354 -0.0224 -0.1876  0.4303
 3222W        W 4219   5.789   1.549   0.446 -0.0288 -0.3909 -0.1817
 3223W        W 4220   5.662   7.443   5.704  0.0792  0.0652 -0.0694
 3224W        W 4221   0.329   6.762   0.337 -0.1962  0.1552  0.1720
 3225W        W 4222   5.804   2.304   7.084 -0.2697 -0.2066 -0.0571
 3226W        W 4223   5.779   2.077   7.585  0.1970  0.0729 -0.2046
 3227W        W 4224   2.494   1.466   4.428 -0.2129 -0.0684 -0.2118
 3228W        W 4225   2.895   5.843   4.850 -0.0084 -0.2644 -0.2144
 3229W        W 4226   6.974   0.054   0.560 -0.0554  0.0757  0.3661
 3230W        W 4227   4.101   3.357   6.816  0.3522  0.0163  0.2652
 3231W        W 4228   7.015   2.032   2.029  0.0381 -0.0481 -0.0611
   7.66661   7.66661   7.66661
