Martini system from ../2_Creating_coordinates/TYR-MET-TYR_aa.pdb
 4200
    1TYR     BB    1   1.095   0.521   0.010 -0.1098 -0.0432  0.0791
    1TYR    SC1    2   0.824   0.560   0.028  0.1206  0.0030  0.4211
    1TYR    SC2    3   0.610   0.707   0.100  0.1676  0.1961  0.1834
    1TYR    SC3    4   0.599   0.438   0.114 -0.1168  0.1990  0.1073
    2MET     BB    5   1.165   0.307   0.294 -0.0179  0.1523  0.0633
    2MET    SC1    6   0.832   0.248   0.519 -0.1068  0.4104  0.0362
    3TYR     BB    7   1.264   0.075   0.375 -0.0823  0.0213 -0.1683
    3TYR    SC1    8   1.539   0.111   0.525  0.0730  0.4152 -0.1804
    3TYR    SC2    9   1.657   0.229   0.737 -0.0589 -0.2017  0.2727
    3TYR    SC3   10   1.797   0.189   0.510  0.1346  0.3390  0.2781
    1TYR     BB   11   1.327   1.896   0.383  0.0406  0.0428 -0.4360
    1TYR    SC1   12   1.592   1.701   0.397 -0.0724  0.3601  0.3780
    1TYR    SC2   13   1.779   1.567   0.539  0.0078  0.2423  0.1663
    1TYR    SC3   14   1.839   1.664   0.294 -0.3308 -0.2052 -0.1143
    2MET     BB   15   1.337   2.201   0.296 -0.3574  0.0405  0.1743
    2MET    SC1   16   1.096   2.369   0.564  0.2486  0.0991  0.1800
    3TYR     BB   17   1.365   2.387   0.121 -0.1502 -0.3857  0.2516
    3TYR    SC1   18   1.572   2.423  -0.122 -0.1896  0.3253 -0.0882
    3TYR    SC2   19   1.711   2.588  -0.285 -0.1324  0.0411 -0.3380
    3TYR    SC3   20   1.674   2.329  -0.354 -0.4936  0.0229 -0.1100
    1TYR     BB   21   1.407   1.504   0.035 -0.2065 -0.3943 -0.0740
    1TYR    SC1   22   1.657   1.360  -0.010 -0.0156  0.2908  0.0291
    1TYR    SC2   23   1.857   1.225   0.111 -0.0510  0.1478 -0.0692
    1TYR    SC3   24   1.913   1.406  -0.081 -0.0244 -0.0696 -0.2724
    2MET     BB   25   1.138   1.392   0.094  0.3754  0.0794 -0.0316
    2MET    SC1   26   1.094   1.477   0.435  0.1097  0.0698 -0.0476
    3TYR     BB   27   0.895   1.103   0.063 -0.1106  0.0537 -0.0617
    3TYR    SC1   28   0.899   1.000   0.375  0.2436  0.2407  0.4729
    3TYR    SC2   29   0.689   1.001   0.544 -0.0476 -0.1190  0.1377
    3TYR    SC3   30   0.822   0.771   0.496  0.3009  0.0642  0.1886
    1TYR     BB   31   3.316   2.493   0.930  0.0079 -0.0825 -0.2708
    1TYR    SC1   32   3.237   2.664   0.658  0.1331  0.0646 -0.2962
    1TYR    SC2   33   3.290   2.726   0.400 -0.2071 -0.0544 -0.4026
    1TYR    SC3   34   3.034   2.713   0.486 -0.1095 -0.2767 -0.1238
    2MET     BB   35   3.483   2.639   1.138  0.2002  0.0894 -0.2543
    2MET    SC1   36   3.654   2.355   1.326  0.0082 -0.2503 -0.1467
    3TYR     BB   37   3.703   2.782   1.110 -0.4196 -0.2662  0.3243
    3TYR    SC1   38   4.010   2.644   1.144 -0.0645  0.1271 -0.1053
    3TYR    SC2   39   4.277   2.656   1.183 -0.0655  0.1392 -0.1024
    3TYR    SC3   40   4.160   2.421   1.122 -0.0262  0.1711 -0.3105
    1TYR     BB   41   2.387   3.076   7.600  0.2047  0.0416  0.2551
    1TYR    SC1   42   2.373   3.242   7.314 -0.3312 -0.2286 -0.3260
    1TYR    SC2   43   2.258   3.427   7.154 -0.1319  0.0573 -0.1509
    1TYR    SC3   44   2.462   3.275   7.061 -0.1417  0.0889 -0.2249
    2MET     BB   45   2.122   2.954   7.807  0.0026  0.4371 -0.3324
    2MET    SC1   46   1.986   2.652   7.764 -0.2540  0.0349  0.0146
    3TYR     BB   47   2.055   2.944   8.142  0.1059  0.3621  0.1105
    3TYR    SC1   48   1.782   2.803   8.183 -0.0660  0.0438 -0.3080
    3TYR    SC2   49   1.673   2.556   8.193  0.4169 -0.1774 -0.0752
    3TYR    SC3   50   1.565   2.757   8.336  0.1417 -0.3042 -0.0981
    1TYR     BB   51   1.903   1.175   1.812 -0.1086  0.2736  0.0108
    1TYR    SC1   52   2.071   1.277   2.026 -0.4325  0.0556  0.1462
    1TYR    SC2   53   2.323   1.272   2.123 -0.3781  0.1514  0.0152
    1TYR    SC3   54   2.197   1.508   2.087 -0.3795  0.1216 -0.1880
    2MET     BB   55   2.014   0.974   1.582 -0.0801  0.1209 -0.1572
    2MET    SC1   56   2.160   0.696   1.803 -0.2597 -0.0906  0.0832
    3TYR     BB   57   2.065   1.148   1.330 -0.1657  0.0771 -0.2783
    3TYR    SC1   58   1.906   1.367   1.275 -0.1242  0.0873  0.2353
    3TYR    SC2   59   1.827   1.512   1.061 -0.1513 -0.0708  0.1368
    3TYR    SC3   60   1.670   1.499   1.280 -0.2139 -0.0628  0.0929
    1TYR     BB   61   3.019   1.965   7.435  0.1179  0.0334 -0.1585
    1TYR    SC1   62   2.859   1.713   7.408  0.1954 -0.1295  0.0862
    1TYR    SC2   63   2.796   1.465   7.320  0.1590 -0.2018  0.3096
    1TYR    SC3   64   2.870   1.503   7.577  0.2831  0.0016  0.2465
    2MET     BB   65   2.881   2.203   7.295  0.0446 -0.0541  0.3183
    2MET    SC1   66   3.098   2.467   7.501  0.3846  0.0465  0.0223
    3TYR     BB   67   2.590   2.324   7.270  0.3832  0.0136 -0.3304
    3TYR    SC1   68   2.687   2.663   7.221  0.0004  0.0402  0.0596
    3TYR    SC2   69   2.730   2.926   7.177  0.2319  0.0068  0.0694
    3TYR    SC3   70   2.608   2.776   6.989  0.3534  0.0631 -0.0560
    1TYR     BB   71   4.033   1.124   6.077 -0.0210  0.2317  0.4290
    1TYR    SC1   72   3.921   1.108   5.789  0.2128 -0.2869  0.1298
    1TYR    SC2   73   3.815   0.932   5.614 -0.0580  0.1321 -0.1519
    1TYR    SC3   74   4.029   1.081   5.543 -0.0746  0.1964 -0.0681
    2MET     BB   75   4.276   1.308   6.059  0.1743 -0.0661 -0.1726
    2MET    SC1   76   4.381   1.381   5.690  0.1438 -0.2549 -0.0350
    3TYR     BB   77   4.443   1.478   6.292 -0.0423  0.2237  0.0610
    3TYR    SC1   78   4.537   1.720   6.152  0.1382 -0.0536  0.2201
    3TYR    SC2   79   4.568   1.767   5.888 -0.1779  0.0860  0.2024
    3TYR    SC3   80   4.736   1.881   6.066 -0.0149  0.0594  0.0691
    1TYR     BB   81   4.109   2.051   0.806  0.0488 -0.0205 -0.1277
    1TYR    SC1   82   3.915   1.823   0.701  0.1433 -0.0232 -0.0176
    1TYR    SC2   83   3.938   1.590   0.566 -0.1176 -0.0394 -0.0392
    1TYR    SC3   84   3.745   1.620   0.752  0.1432  0.0353  0.2284
    2MET     BB   85   4.149   2.219   0.610 -0.2214 -0.0693  0.0018
    2MET    SC1   86   3.840   2.452   0.690  0.1533  0.3462  0.1244
    3TYR     BB   87   4.286   2.300   0.295  0.3426 -0.1519 -0.3913
    3TYR    SC1   88   4.138   2.569   0.220  0.0799  0.1579  0.4276
    3TYR    SC2   89   4.214   2.756   0.040  0.1722 -0.0798  0.2108
    3TYR    SC3   90   4.044   2.822   0.240 -0.0136  0.1690 -0.0202
    1TYR     BB   91   2.749   7.228   6.731  0.2222 -0.1261 -0.0234
    1TYR    SC1   92   2.583   7.236   6.445 -0.0533  0.3110  0.1960
    1TYR    SC2   93   2.639   7.119   6.208  0.2331  0.2272  0.2994
    1TYR    SC3   94   2.525   7.364   6.214 -0.0421  0.1127  0.0799
    2MET     BB   95   2.700   6.939   6.879 -0.0506  0.4642  0.1287
    2MET    SC1   96   2.649   6.740   6.573 -0.0684 -0.2202 -0.1946
    3TYR     BB   97   2.508   6.825   7.134  0.0286 -0.2023  0.2793
    3TYR    SC1   98   2.270   6.956   7.273 -0.0579  0.1942 -0.0437
    3TYR    SC2   99   2.058   7.121   7.305 -0.1952 -0.0231  0.2184
    3TYR    SC3  100   2.076   6.894   7.450  0.1092 -0.1227  0.0371
    1TYR     BB  101   1.101   1.355   7.230  0.1180  0.0549 -0.0382
    1TYR    SC1  102   1.323   1.566   7.109 -0.0124 -0.0870  0.1407
    1TYR    SC2  103   1.582   1.597   7.179 -0.0050 -0.0298  0.0894
    1TYR    SC3  104   1.408   1.802   7.210  0.0210  0.0325 -0.1515
    2MET     BB  105   1.063   1.076   7.131 -0.0787  0.1634  0.0242
    2MET    SC1  106   0.939   1.014   6.837 -0.1252  0.1699  0.2829
    3TYR     BB  107   0.931   0.843   7.308 -0.2773 -0.1509  0.0718
    3TYR    SC1  108   0.797   0.611   7.200  0.0057 -0.1467  0.1028
    3TYR    SC2  109   0.677   0.403   7.077 -0.0715 -0.0475  0.0077
    3TYR    SC3  110   0.544   0.544   7.265 -0.0225 -0.0777  0.0656
    1TYR     BB  111   0.126   2.018   6.297 -0.0808 -0.2057 -0.0494
    1TYR    SC1  112   0.000   1.849   6.508  0.1878 -0.1198  0.1488
    1TYR    SC2  113  -0.036   1.624   6.654 -0.1955 -0.3148 -0.2212
    1TYR    SC3  114  -0.175   1.848   6.714 -0.2404 -0.3495 -0.1943
    2MET     BB  115   0.429   2.119   6.437  0.1350 -0.2657 -0.1817
    2MET    SC1  116   0.287   2.446   6.534  0.0643 -0.0838 -0.0058
    3TYR     BB  117   0.755   2.199   6.576  0.1931  0.1890 -0.1764
    3TYR    SC1  118   0.678   2.318   6.838  0.0109  0.3668  0.0511
    3TYR    SC2  119   0.731   2.488   7.042 -0.1270  0.1612  0.2647
    3TYR    SC3  120   0.486   2.378   7.018 -0.1316  0.2299 -0.0530
    1TYR     BB  121   0.555   0.323   5.831 -0.0177  0.3588  0.1279
    1TYR    SC1  122   0.307   0.255   5.930  0.0145  0.0803 -0.2425
    1TYR    SC2  123   0.147   0.044   5.984 -0.1470  0.2008 -0.2420
    1TYR    SC3  124   0.045   0.263   5.862 -0.0363  0.3717 -0.0346
    2MET     BB  125   0.640   0.353   5.516 -0.2757 -0.0468  0.2564
    2MET    SC1  126   0.840   0.098   5.479 -0.0417  0.1909  0.1327
    3TYR     BB  127   0.586   0.434   5.185  0.0181  0.1299 -0.1570
    3TYR    SC1  128   0.871   0.531   5.092  0.0690 -0.3443  0.2211
    3TYR    SC2  129   1.107   0.537   5.222  0.1764  0.0275  0.0274
    3TYR    SC3  130   1.097   0.594   4.958 -0.1354  0.0520  0.0408
    1TYR     BB  131   3.311   0.562   6.521  0.0773  0.4152  0.1210
    1TYR    SC1  132   3.340   0.375   6.252 -0.0434 -0.1594  0.2124
    1TYR    SC2  133   3.437   0.338   6.003  0.1779 -0.2135  0.3027
    1TYR    SC3  134   3.335   0.129   6.141  0.3466 -0.2501  0.3740
    2MET     BB  135   3.456   0.484   6.755  0.1563  0.0680 -0.1386
    2MET    SC1  136   3.182   0.437   6.991 -0.2198 -0.2277 -0.1788
    3TYR     BB  137   3.741   0.451   6.865  0.0116 -0.1707  0.2069
    3TYR    SC1  138   3.955   0.667   6.906 -0.2766  0.1847  0.0113
    3TYR    SC2  139   4.050   0.774   7.135  0.0144  0.0205 -0.0256
    3TYR    SC3  140   4.114   0.885   6.897 -0.1149  0.0677 -0.0393
    1TYR     BB  141   4.052   1.025   0.929  0.4798 -0.0012 -0.1877
    1TYR    SC1  142   3.976   1.355   1.018 -0.0095  0.0436 -0.1313
    1TYR    SC2  143   3.954   1.560   1.192 -0.1273  0.2734 -0.4056
    1TYR    SC3  144   4.133   1.573   0.991  0.2356 -0.1282 -0.1306
    2MET     BB  145   4.052   1.007   0.627  0.0413 -0.2436  0.3252
    2MET    SC1  146   4.287   0.738   0.550  0.1283  0.1379 -0.1571
    3TYR     BB  147   4.169   1.181   0.412 -0.2104  0.0133  0.0722
    3TYR    SC1  148   4.298   1.094   0.157 -0.0201 -0.0292  0.0863
    3TYR    SC2  149   4.492   0.943   0.043  0.2038  0.1538  0.2151
    3TYR    SC3  150   4.258   0.982  -0.086  0.1243 -0.3240  0.1914
    1TYR     BB  151   3.104   3.664   0.856 -0.0452 -0.1762  0.0424
    1TYR    SC1  152   3.006   3.930   0.698  0.1833  0.2597  0.3256
    1TYR    SC2  153   3.104   4.076   0.493 -0.0614 -0.2248 -0.1687
    1TYR    SC3  154   2.843   4.095   0.561  0.0233 -0.0473  0.1315
    2MET     BB  155   3.474   3.613   0.767 -0.0554 -0.2712  0.2395
    2MET    SC1  156   3.472   3.726   0.410 -0.0260  0.0528  0.2730
    3TYR     BB  157   3.659   3.428   0.728  0.0475 -0.2421  0.0175
    3TYR    SC1  158   3.771   3.149   0.695 -0.0591 -0.1079  0.0165
    3TYR    SC2  159   3.714   2.913   0.578  0.0903 -0.1810  0.0873
    3TYR    SC3  160   3.949   2.946   0.707  0.0024 -0.0453  0.2167
    1TYR     BB  161   2.856   1.478   6.536  0.1772 -0.0119 -0.0472
    1TYR    SC1  162   3.017   1.653   6.730 -0.1443 -0.0286  0.2340
    1TYR    SC2  163   3.091   1.687   6.987 -0.2301 -0.0030  0.2556
    1TYR    SC3  164   3.141   1.881   6.806 -0.4155  0.0984  0.3099
    2MET     BB  165   2.921   1.626   6.240  0.0053  0.0775  0.1991
    2MET    SC1  166   2.882   1.973   6.402  0.1212  0.0169  0.2197
    3TYR     BB  167   3.041   1.584   5.975  0.4420 -0.1362  0.2151
    3TYR    SC1  168   2.871   1.639   5.742 -0.4265  0.2707  0.4217
    3TYR    SC2  169   2.666   1.528   5.607 -0.1749  0.2252  0.0580
    3TYR    SC3  170   2.805   1.731   5.497  0.2828 -0.0661  0.0680
    1TYR     BB  171   2.588   0.280   0.233 -0.1829  0.2549 -0.5020
    1TYR    SC1  172   2.445   0.030   0.389  0.0133  0.1912 -0.0015
    1TYR    SC2  173   2.446  -0.089   0.631  0.0544 -0.0394 -0.1113
    1TYR    SC3  174   2.212  -0.043   0.504  0.0464 -0.1475 -0.1362
    2MET     BB  175   2.786   0.433   0.302 -0.1629  0.1652  0.0214
    2MET    SC1  176   2.726   0.649   0.542  0.1160 -0.1259 -0.1030
    3TYR     BB  177   3.172   0.277   0.258 -0.0331  0.1177  0.4422
    3TYR    SC1  178   3.342   0.486   0.290  0.0856 -0.0145  0.1947
    3TYR    SC2  179   3.583   0.572   0.204  0.0285 -0.1187 -0.0862
    3TYR    SC3  180   3.400   0.750   0.292  0.0451  0.0100 -0.3035
    1TYR     BB  181   1.050   1.694   5.761  0.1800  0.2251  0.2395
    1TYR    SC1  182   0.999   1.737   6.043  0.1800 -0.1616  0.2025
    1TYR    SC2  183   1.071   1.890   6.254 -0.0273 -0.0758  0.2145
    1TYR    SC3  184   0.810   1.839   6.206  0.0026  0.0533 -0.1229
    2MET     BB  185   1.398   1.767   5.809  0.1593 -0.5453 -0.0934
    2MET    SC1  186   1.469   1.418   5.670 -0.3763  0.1656  0.1403
    3TYR     BB  187   1.588   1.902   5.753  0.1794 -0.1788 -0.0198
    3TYR    SC1  188   1.592   2.213   5.620  0.1815 -0.0586 -0.2659
    3TYR    SC2  189   1.679   2.436   5.495 -0.0092 -0.0152 -0.3258
    3TYR    SC3  190   1.466   2.302   5.398 -0.0868 -0.0490 -0.1151
    1TYR     BB  191   2.371   2.263   6.142 -0.0843 -0.0769 -0.0898
    1TYR    SC1  192   2.431   1.975   6.102 -0.1250  0.0196 -0.1373
    1TYR    SC2  193   2.461   1.717   6.026  0.2032 -0.1108  0.3740
    1TYR    SC3  194   2.636   1.904   5.940 -0.2649  0.0495 -0.3316
    2MET     BB  195   2.678   2.431   6.086  0.1537  0.2110  0.1018
    2MET    SC1  196   2.693   2.811   5.960  0.0982  0.1603 -0.2254
    3TYR     BB  197   2.879   2.439   6.278  0.0358  0.3061 -0.2126
    3TYR    SC1  198   3.023   2.696   6.280  0.1329 -0.1623  0.1235
    3TYR    SC2  199   3.023   2.958   6.343  0.2597 -0.1531  0.0887
    3TYR    SC3  200   3.251   2.839   6.262  0.1904 -0.2616  0.0504
    1TYR     BB  201   3.145   1.274   1.712  0.1946 -0.0285  0.0024
    1TYR    SC1  202   3.378   1.303   1.902  0.2417  0.2223 -0.2577
    1TYR    SC2  203   3.580   1.444   2.011  0.1410  0.0783  0.1389
    1TYR    SC3  204   3.515   1.202   2.112 -0.1557  0.0700 -0.0578
    2MET     BB  205   3.041   1.517   1.608 -0.0941 -0.1755  0.2144
    2MET    SC1  206   2.839   1.560   1.342  0.2302 -0.3074  0.0421
    3TYR     BB  207   3.077   1.788   1.848  0.0616 -0.1832  0.2191
    3TYR    SC1  208   2.867   1.654   2.030 -0.1884 -0.1268  0.2917
    3TYR    SC2  209   2.644   1.646   2.181 -0.3412 -0.1174  0.0716
    3TYR    SC3  210   2.744   1.418   2.077 -0.1836 -0.1361  0.2579
    1TYR     BB  211   3.572   2.851   1.552 -0.2255 -0.0034 -0.0493
    1TYR    SC1  212   3.896   2.933   1.613 -0.3126  0.1433  0.0087
    1TYR    SC2  213   4.001   3.106   1.792  0.0047 -0.1213  0.0898
    1TYR    SC3  214   4.134   3.051   1.563  0.0468 -0.4524  0.1872
    2MET     BB  215   3.521   2.702   1.774  0.4547  0.0321 -0.1818
    2MET    SC1  216   3.206   2.495   1.677 -0.2496  0.0804  0.0216
    3TYR     BB  217   3.600   2.909   2.038 -0.1207  0.3176  0.1212
    3TYR    SC1  218   3.491   3.164   2.237 -0.0334  0.2608  0.0522
    3TYR    SC2  219   3.552   3.392   2.370 -0.0837  0.3112 -0.0102
    3TYR    SC3  220   3.369   3.395   2.171  0.1344  0.2785 -0.2173
    1TYR     BB  221   1.755   2.513   1.192 -0.0508 -0.2438  0.0583
    1TYR    SC1  222   1.464   2.471   1.121 -0.3139 -0.3695  0.2456
    1TYR    SC2  223   1.224   2.529   1.232 -0.3590 -0.0646  0.0072
    1TYR    SC3  224   1.246   2.499   0.964 -0.0847  0.1990 -0.0065
    2MET     BB  225   1.938   2.507   0.996 -0.1997 -0.1728  0.0122
    2MET    SC1  226   2.011   2.867   0.982  0.0957 -0.2750 -0.1771
    3TYR     BB  227   2.137   2.354   0.885 -0.0822  0.1385  0.3364
    3TYR    SC1  228   2.328   2.481   0.682  0.1378 -0.3014  0.0251
    3TYR    SC2  229   2.572   2.525   0.574  0.1298  0.0605  0.1373
    3TYR    SC3  230   2.355   2.503   0.414  0.1785  0.1567  0.0565
    1TYR     BB  231   1.755   3.243   0.770 -0.2741  0.1198 -0.2255
    1TYR    SC1  232   1.547   3.076   0.974  0.2744 -0.2010 -0.0605
    1TYR    SC2  233   1.503   2.918   1.189  0.0721 -0.2695 -0.1495
    1TYR    SC3  234   1.296   2.997   1.034  0.1952 -0.0787 -0.2212
    2MET     BB  235   1.650   3.272   0.487  0.0678  0.1083 -0.0305
    2MET    SC1  236   1.318   3.122   0.538  0.2049 -0.3123  0.1433
    3TYR     BB  237   1.841   3.329   0.300 -0.3068 -0.1307  0.1990
    3TYR    SC1  238   2.172   3.436   0.240 -0.0737  0.0636  0.0575
    3TYR    SC2  239   2.186   3.706   0.253 -0.1359  0.0876 -0.2618
    3TYR    SC3  240   2.406   3.562   0.193 -0.1059  0.0658 -0.1050
    1TYR     BB  241   1.893   0.192   6.266  0.1480 -0.2833 -0.0835
    1TYR    SC1  242   1.744   0.484   6.336 -0.0755 -0.1131 -0.1492
    1TYR    SC2  243   1.606   0.678   6.462 -0.2318 -0.1900 -0.1996
    1TYR    SC3  244   1.723   0.728   6.224 -0.1671 -0.1232 -0.1545
    2MET     BB  245   1.727   0.052   6.088  0.0014 -0.1293 -0.0072
    2MET    SC1  246   1.599   0.326   5.860  0.2737 -0.1390  0.2686
    3TYR     BB  247   1.591  -0.230   6.107 -0.0975  0.2993 -0.0437
    3TYR    SC1  248   1.408  -0.393   5.955  0.0517 -0.0270  0.1378
    3TYR    SC2  249   1.236  -0.468   5.761  0.2316 -0.0222 -0.0277
    3TYR    SC3  250   1.459  -0.613   5.808  0.2413  0.0342  0.1083
    1TYR     BB  251   1.026   7.254   7.148 -0.1506 -0.0513  0.0320
    1TYR    SC1  252   0.990   7.513   6.988 -0.1633  0.0293  0.1419
    1TYR    SC2  253   1.164   7.696   6.893 -0.1170  0.0779  0.3162
    1TYR    SC3  254   0.898   7.744   6.883 -0.1523 -0.1443 -0.2723
    2MET     BB  255   0.763   7.335   7.386 -0.2090 -0.3192 -0.4822
    2MET    SC1  256   0.918   7.015   7.612  0.1099  0.1354  0.0534
    3TYR     BB  257   0.522   7.222   7.476  0.1948  0.1796  0.3056
    3TYR    SC1  258   0.407   7.234   7.784  0.0128 -0.0697 -0.0385
    3TYR    SC2  259   0.440   7.233   8.052  0.0868 -0.1771 -0.0468
    3TYR    SC3  260   0.249   7.388   7.939  0.1584 -0.0111  0.0546
    1TYR     BB  261   0.471   7.026   6.475  0.0808  0.0088 -0.0529
    1TYR    SC1  262   0.710   6.931   6.281  0.1191  0.3299  0.0695
    1TYR    SC2  263   0.885   6.956   6.077  0.4571 -0.4265  0.2233
    1TYR    SC3  264   0.722   6.741   6.089 -0.2086  0.0460  0.3140
    2MET     BB  265   0.289   6.876   6.447  0.3687 -0.1072  0.2649
    2MET    SC1  266   0.176   6.783   6.812  0.2884 -0.1648 -0.1077
    3TYR     BB  267   0.210   6.643   6.295 -0.0357 -0.0276 -0.0247
    3TYR    SC1  268  -0.013   6.781   6.017 -0.1910  0.2645  0.0318
    3TYR    SC2  269  -0.062   6.801   5.752  0.2312  0.0608 -0.0721
    3TYR    SC3  270  -0.236   6.906   5.930 -0.1429  0.0593 -0.4201
    1TYR     BB  271   1.454   0.786   6.966 -0.0759 -0.0011 -0.2953
    1TYR    SC1  272   1.478   1.042   6.835 -0.0944 -0.1686 -0.2694
    1TYR    SC2  273   1.354   1.249   6.713 -0.0697 -0.1242 -0.2193
    1TYR    SC3  274   1.557   1.295   6.885 -0.1593 -0.1811 -0.0968
    2MET     BB  275   1.442   0.739   7.228  0.3195  0.2020  0.0475
    2MET    SC1  276   1.258   0.420   7.209  0.3599 -0.0461  0.2179
    3TYR     BB  277   1.347   0.955   7.486  0.0230 -0.4325  0.0603
    3TYR    SC1  278   1.418   0.974   7.803  0.0922 -0.2787 -0.0059
    3TYR    SC2  279   1.460   1.150   8.004 -0.1331  0.0220 -0.2097
    3TYR    SC3  280   1.364   0.903   8.058  0.0010  0.0254  0.0654
    1TYR     BB  281   0.854   0.701   6.067 -0.1022  0.0488 -0.1811
    1TYR    SC1  282   1.061   0.878   6.211  0.1366  0.3284  0.3138
    1TYR    SC2  283   1.200   0.884   6.442  0.3247  0.0703  0.2131
    1TYR    SC3  284   1.327   0.925   6.208  0.1818  0.0863  0.1371
    2MET     BB  285   0.614   0.922   5.940  0.0864 -0.0452  0.0166
    2MET    SC1  286   0.373   0.734   5.741  0.2118 -0.3153 -0.0107
    3TYR     BB  287   0.416   1.118   6.093 -0.1997 -0.0529  0.1911
    3TYR    SC1  288   0.159   0.994   6.158 -0.0001 -0.0211  0.1112
    3TYR    SC2  289  -0.008   0.847   6.005  0.0287  0.4113 -0.3669
    3TYR    SC3  290  -0.075   0.906   6.259 -0.2155  0.0116 -0.3284
    1TYR     BB  291   1.788   7.488   5.648  0.0675 -0.0822  0.2013
    1TYR    SC1  292   1.499   7.563   5.581 -0.0612  0.2016  0.1041
    1TYR    SC2  293   1.250   7.503   5.496  0.0230 -0.0932  0.0510
    1TYR    SC3  294   1.341   7.757   5.479 -0.2135 -0.0128 -0.0802
    2MET     BB  295   1.897   7.266   5.564  0.3039 -0.2378 -0.3348
    2MET    SC1  296   1.926   7.109   5.891 -0.1734  0.0766 -0.1513
    3TYR     BB  297   1.806   7.078   5.353 -0.0975  0.2006  0.0201
    3TYR    SC1  298   1.485   7.067   5.387  0.0963  0.0778 -0.0695
    3TYR    SC2  299   1.314   7.151   5.196 -0.2864  0.1089  0.2703
    3TYR    SC3  300   1.241   6.955   5.366  0.0844  0.0110  0.3278
    1TYR     BB  301   0.465   1.716   6.726 -0.0362  0.3634 -0.1298
    1TYR    SC1  302   0.294   1.879   6.918  0.1678  0.2268 -0.0695
    1TYR    SC2  303   0.236   2.060   7.110  0.1939 -0.0265  0.1867
    1TYR    SC3  304   0.146   2.097   6.858 -0.0619  0.1858  0.3022
    2MET     BB  305   0.458   1.620   6.505 -0.1926  0.0624 -0.1937
    2MET    SC1  306   0.323   1.259   6.584  0.0705  0.2251  0.1514
    3TYR     BB  307   0.358   1.609   6.230  0.1298 -0.1696  0.1867
    3TYR    SC1  308   0.053   1.517   6.163 -0.0885  0.1959 -0.1284
    3TYR    SC2  309  -0.140   1.344   6.239  0.2276 -0.2866 -0.3627
    3TYR    SC3  310  -0.187   1.519   6.038 -0.2130  0.1767  0.1025
    1TYR     BB  311   2.220   2.725   6.151 -0.2962  0.4055 -0.2272
    1TYR    SC1  312   2.280   2.948   5.976  0.1995 -0.0143 -0.4332
    1TYR    SC2  313   2.274   3.217   5.994 -0.0837 -0.0336 -0.0973
    1TYR    SC3  314   2.144   3.093   5.793 -0.2272  0.0708 -0.0706
    2MET     BB  315   2.051   2.817   6.369  0.0249 -0.1042 -0.0529
    2MET    SC1  316   1.975   3.198   6.376 -0.1434 -0.1416  0.1858
    3TYR     BB  317   1.837   2.714   6.434 -0.0648 -0.0412 -0.3356
    3TYR    SC1  318   1.658   2.821   6.676 -0.0230 -0.0591 -0.1994
    3TYR    SC2  319   1.593   2.834   6.937  0.0859 -0.0809 -0.1707
    3TYR    SC3  320   1.455   2.979   6.756 -0.1130 -0.2099 -0.1260
    1TYR     BB  321   3.033   1.154   0.709  0.4747  0.1173 -0.0401
    1TYR    SC1  322   3.103   1.112   1.023 -0.1342 -0.2098  0.1184
    1TYR    SC2  323   3.269   1.035   1.221 -0.1357  0.0821  0.2379
    1TYR    SC3  324   3.026   1.137   1.280 -0.1212  0.2077  0.0896
    2MET     BB  325   3.402   1.204   0.542 -0.1667  0.0468 -0.3903
    2MET    SC1  326   3.568   1.184   0.881 -0.1730  0.3037  0.2785
    3TYR     BB  327   3.644   1.185   0.370  0.1341  0.1195 -0.0323
    3TYR    SC1  328   3.775   0.978   0.178  0.2116  0.2070 -0.0666
    3TYR    SC2  329   3.865   0.882  -0.058  0.2490  0.3341 -0.1053
    3TYR    SC3  330   3.956   0.778   0.174 -0.1383 -0.1223 -0.1375
    1TYR     BB  331   3.026   1.152   5.742 -0.0351  0.0440 -0.3973
    1TYR    SC1  332   3.287   1.208   5.608  0.0869 -0.0156  0.1116
    1TYR    SC2  333   3.490   1.384   5.576  0.0233  0.0159 -0.1469
    1TYR    SC3  334   3.449   1.190   5.393  0.1742 -0.3601  0.1980
    2MET     BB  335   2.957   0.857   5.757 -0.0643 -0.0931 -0.2242
    2MET    SC1  336   3.307   0.721   5.571 -0.0337  0.3893 -0.3260
    3TYR     BB  337   2.915   0.617   5.937  0.0711  0.1902  0.0132
    3TYR    SC1  338   3.030   0.378   5.843 -0.0527  0.2678 -0.0916
    3TYR    SC2  339   3.196   0.221   5.701 -0.0748  0.0173  0.1485
    3TYR    SC3  340   2.934   0.159   5.719 -0.0473 -0.0375  0.4075
    1TYR     BB  341   3.564   0.913   7.061 -0.1140 -0.1892 -0.3384
    1TYR    SC1  342   3.384   0.809   7.268 -0.1464 -0.0259  0.0780
    1TYR    SC2  343   3.392   0.894   7.524 -0.0084 -0.0976  0.0987
    1TYR    SC3  344   3.236   0.684   7.456 -0.0031 -0.1133  0.1348
    2MET     BB  345   3.731   1.112   7.159  0.0259  0.0633  0.5317
    2MET    SC1  346   3.677   1.332   6.850 -0.2956 -0.2511 -0.1106
    3TYR     BB  347   3.984   1.297   7.222 -0.0114 -0.0728 -0.1645
    3TYR    SC1  348   4.040   1.459   7.489 -0.1807 -0.0886  0.0173
    3TYR    SC2  349   3.935   1.492   7.735  0.0256  0.1200  0.0816
    3TYR    SC3  350   4.201   1.512   7.698  0.0397 -0.2785 -0.0985
    1TYR     BB  351   7.541   7.567   7.036 -0.2735 -0.3591 -0.0309
    1TYR    SC1  352   7.516   7.453   6.791  0.0622  0.1266  0.0842
    1TYR    SC2  353   7.344   7.310   6.639 -0.0405  0.1156  0.2082
    1TYR    SC3  354   7.597   7.222   6.677 -0.0476  0.0626  0.1339
    2MET     BB  355   7.580   7.909   7.158  0.2307 -0.1691  0.0160
    2MET    SC1  356   7.318   8.026   6.919  0.0924  0.2423  0.0802
    3TYR     BB  357   7.787   8.144   7.092 -0.1134  0.1361  0.3542
    3TYR    SC1  358   7.770   8.228   6.831  0.0970  0.1868 -0.0833
    3TYR    SC2  359   7.851   8.404   6.642 -0.0541  0.1778 -0.1584
    3TYR    SC3  360   7.588   8.373   6.694 -0.0287 -0.0133 -0.1328
    1TYR     BB  361   2.188   2.354   6.927  0.0800  0.2268 -0.0978
    1TYR    SC1  362   2.102   2.056   6.979  0.3710  0.0633  0.2322
    1TYR    SC2  363   1.927   1.930   7.142  0.1264  0.1928  0.0774
    1TYR    SC3  364   2.030   1.801   6.928 -0.2208  0.2819 -0.1532
    2MET     BB  365   2.110   2.586   7.090  0.0850 -0.0942 -0.1386
    2MET    SC1  366   2.169   2.904   6.878  0.1890  0.1335  0.1061
    3TYR     BB  367   2.207   2.713   7.362 -0.0731 -0.0450 -0.0159
    3TYR    SC1  368   1.964   2.978   7.334  0.1582 -0.0921 -0.1723
    3TYR    SC2  369   1.718   3.086   7.306  0.3492  0.2612 -0.6983
    3TYR    SC3  370   1.917   3.230   7.418  0.2430 -0.1885  0.1849
    1TYR     BB  371   2.012   1.709   1.654  0.1659 -0.2163  0.0113
    1TYR    SC1  372   2.116   2.022   1.603  0.1812  0.1266  0.0279
    1TYR    SC2  373   2.238   2.241   1.505 -0.0478  0.1258 -0.2795
    1TYR    SC3  374   1.997   2.263   1.625  0.0639  0.0763 -0.0385
    2MET     BB  375   2.225   1.563   1.595 -0.2675 -0.0475  0.3423
    2MET    SC1  376   2.350   1.662   1.216 -0.0826  0.1749  0.1270
    3TYR     BB  377   2.447   1.468   1.686 -0.1683  0.4504 -0.2576
    3TYR    SC1  378   2.521   1.159   1.696 -0.3457 -0.2887 -0.2819
    3TYR    SC2  379   2.661   0.962   1.575 -0.1490 -0.2622 -0.1034
    3TYR    SC3  380   2.692   1.007   1.839 -0.0774  0.1038 -0.1677
    1TYR     BB  381   1.666   6.584   6.647  0.0322  0.0016  0.1185
    1TYR    SC1  382   1.795   6.613   6.922  0.0243  0.3077 -0.0685
    1TYR    SC2  383   2.013   6.633   7.080  0.0035 -0.4061  0.0937
    1TYR    SC3  384   1.766   6.660   7.186 -0.0055 -0.0319 -0.0052
    2MET     BB  385   1.772   6.817   6.451  0.0619 -0.0310  0.1814
    2MET    SC1  386   1.795   6.701   6.102  0.1085  0.2630  0.3004
    3TYR     BB  387   1.486   7.048   6.405  0.0547 -0.2859 -0.3365
    3TYR    SC1  388   1.328   6.850   6.290 -0.1119 -0.1135  0.4740
    3TYR    SC2  389   1.262   6.662   6.108  0.1326  0.0279  0.2302
    3TYR    SC3  390   1.156   6.652   6.356 -0.2517 -0.1394  0.0699
    1TYR     BB  391   1.362   1.612   0.902 -0.0933  0.3366  0.2669
    1TYR    SC1  392   1.089   1.780   0.896  0.0299  0.2250  0.0741
    1TYR    SC2  393   0.843   1.881   0.940 -0.1162 -0.0674 -0.0389
    1TYR    SC3  394   1.046   2.046   0.874 -0.2123  0.2114  0.3210
    2MET     BB  395   1.314   1.301   0.980 -0.0412 -0.1317  0.0310
    2MET    SC1  396   1.638   1.102   0.808 -0.0078  0.0356 -0.0622
    3TYR     BB  397   1.123   1.132   0.824  0.0305 -0.2778 -0.0272
    3TYR    SC1  398   1.234   0.820   0.846 -0.2165 -0.2211  0.0977
    3TYR    SC2  399   1.453   0.663   0.820 -0.0730  0.0131 -0.1767
    3TYR    SC3  400   1.212   0.576   0.732 -0.0116 -0.0876 -0.2475
    1TYR     BB  401   1.813   2.034   1.220  0.1156 -0.0935 -0.0651
    1TYR    SC1  402   1.702   2.055   0.958  0.0961 -0.0801  0.0929
    1TYR    SC2  403   1.475   2.148   0.847  0.2187 -0.0681 -0.1576
    1TYR    SC3  404   1.694   2.111   0.695  0.3600 -0.1663  0.0624
    2MET     BB  405   1.606   1.952   1.447 -0.2066 -0.2216 -0.2969
    2MET    SC1  406   1.503   2.308   1.589 -0.0797  0.2162  0.0268
    3TYR     BB  407   1.321   1.981   1.293  0.0097 -0.0932  0.1721
    3TYR    SC1  408   1.131   1.733   1.351 -0.0117 -0.0211  0.3485
    3TYR    SC2  409   1.007   1.496   1.320  0.3203 -0.1477 -0.1803
    3TYR    SC3  410   1.208   1.520   1.498  0.0390 -0.1440  0.1494
    1TYR     BB  411   2.879   2.662   5.365  0.1401 -0.2754  0.1380
    1TYR    SC1  412   2.683   2.619   5.131 -0.0161 -0.2072 -0.2972
    1TYR    SC2  413   2.690   2.427   4.941 -0.2260 -0.0382 -0.4830
    1TYR    SC3  414   2.454   2.537   5.013 -0.1134  0.1242 -0.3530
    2MET     BB  415   3.096   2.643   5.469 -0.0992  0.0361 -0.1706
    2MET    SC1  416   3.297   2.595   5.070  0.2400 -0.0835  0.1735
    3TYR     BB  417   3.133   2.608   5.805  0.0047  0.1415 -0.1988
    3TYR    SC1  418   3.120   2.305   5.828  0.1531 -0.0179 -0.0340
    3TYR    SC2  419   3.019   2.118   5.662  0.1058 -0.0702  0.0528
    3TYR    SC3  420   3.055   2.061   5.924  0.3063 -0.0330  0.0353
    1TYR     BB  421   1.229   2.271   7.151 -0.0211 -0.1149 -0.0361
    1TYR    SC1  422   1.265   2.593   7.239  0.0232  0.2539 -0.0720
    1TYR    SC2  423   1.322   2.846   7.315  0.0211  0.2590 -0.0872
    1TYR    SC3  424   1.079   2.741   7.368  0.0945  0.1845  0.1154
    2MET     BB  425   1.125   2.146   7.410 -0.1658  0.0365 -0.0551
    2MET    SC1  426   0.859   2.417   7.612  0.0162 -0.2408 -0.2206
    3TYR     BB  427   1.060   1.886   7.594  0.0264  0.0832 -0.0414
    3TYR    SC1  428   0.882   1.948   7.862  0.4489  0.3581  0.1855
    3TYR    SC2  429   0.738   2.113   8.020  0.2002  0.1512  0.1825
    3TYR    SC3  430   0.850   1.891   8.124  0.1493  0.0848  0.0982
    1TYR     BB  431   0.487   1.789   5.792  0.3302  0.0116  0.1498
    1TYR    SC1  432   0.681   1.912   5.610 -0.0378  0.0041  0.1465
    1TYR    SC2  433   0.727   1.836   5.355 -0.0418 -0.0160  0.1518
    1TYR    SC3  434   0.838   2.063   5.451 -0.0203 -0.0213  0.1396
    2MET     BB  435   0.182   1.836   5.766 -0.1551  0.0813 -0.0381
    2MET    SC1  436   0.234   1.884   5.382  0.0350 -0.1151  0.1539
    3TYR     BB  437  -0.036   2.011   5.795  0.2743 -0.0813  0.0293
    3TYR    SC1  438  -0.057   2.301   5.898  0.2604  0.1024  0.2210
    3TYR    SC2  439  -0.245   2.492   5.859 -0.1106 -0.2489  0.1990
    3TYR    SC3  440  -0.035   2.539   6.023  0.0079  0.2952 -0.0813
    1TYR     BB  441   3.496   3.299   1.710 -0.6079 -0.0715  0.1036
    1TYR    SC1  442   3.702   3.485   1.876 -0.2635  0.1454  0.5389
    1TYR    SC2  443   3.810   3.731   1.903  0.2680  0.0352 -0.1898
    1TYR    SC3  444   3.906   3.525   2.048  0.1547  0.1587  0.0695
    2MET     BB  445   3.228   3.160   1.781 -0.1289  0.2381  0.0300
    2MET    SC1  446   2.943   3.334   1.683 -0.0733  0.2572  0.0406
    3TYR     BB  447   3.070   2.900   1.850  0.1611 -0.2328 -0.4890
    3TYR    SC1  448   3.127   2.732   2.099 -0.2523  0.3503 -0.0556
    3TYR    SC2  449   3.281   2.748   2.321 -0.1205 -0.0454 -0.1071
    3TYR    SC3  450   3.056   2.600   2.324 -0.1527 -0.0003 -0.2213
    1TYR     BB  451   0.826   0.858   5.466  0.1658  0.1539 -0.1254
    1TYR    SC1  452   0.587   0.944   5.307 -0.0597  0.0430  0.0640
    1TYR    SC2  453   0.323   1.001   5.321 -0.0013  0.5565 -0.4430
    1TYR    SC3  454   0.428   0.900   5.093  0.2351  0.2519 -0.2111
    2MET     BB  455   1.044   1.008   5.685 -0.1514  0.3232 -0.2503
    2MET    SC1  456   1.216   0.675   5.727 -0.0595  0.2498  0.3330
    3TYR     BB  457   1.091   1.219   5.875  0.1915  0.1319  0.0498
    3TYR    SC1  458   1.026   1.329   6.124 -0.0382 -0.1461 -0.0162
    3TYR    SC2  459   0.797   1.396   6.251 -0.0903 -0.1048 -0.1306
    3TYR    SC3  460   1.004   1.293   6.391 -0.0259  0.2437  0.0460
    1TYR     BB  461   0.589   7.226   6.938 -0.2503 -0.0184  0.3240
    1TYR    SC1  462   0.611   6.983   7.045 -0.0718  0.0684  0.0551
    1TYR    SC2  463   0.523   6.749   7.148 -0.1160  0.0803  0.0449
    1TYR    SC3  464   0.787   6.805   7.146 -0.1012  0.0108  0.0057
    2MET     BB  465   0.365   7.373   6.949 -0.0814  0.0146 -0.0061
    2MET    SC1  466   0.147   7.186   7.159  0.2650 -0.0891  0.1770
    3TYR     BB  467   0.417   7.663   6.997  0.0289 -0.0874  0.2836
    3TYR    SC1  468   0.399   7.787   7.311 -0.2393  0.2575 -0.5489
    3TYR    SC2  469   0.306   7.925   7.523  0.0162 -0.4079  0.0438
    3TYR    SC3  470   0.278   7.657   7.514  0.1792 -0.4255 -0.6970
    1TYR     BB  471   0.723   1.516   7.441 -0.0174 -0.2363  0.0444
    1TYR    SC1  472   0.636   1.559   7.731  0.3284 -0.0937 -0.0520
    1TYR    SC2  473   0.509   1.706   7.919  0.0255 -0.0700 -0.2669
    1TYR    SC3  474   0.607   1.462   7.982 -0.3314 -0.1899 -0.1450
    2MET     BB  475   0.612   1.758   7.285  0.0010 -0.0316 -0.1283
    2MET    SC1  476   0.531   2.033   7.510  0.2248 -0.0773 -0.3325
    3TYR     BB  477   0.813   1.882   7.109  0.3857  0.1466  0.3368
    3TYR    SC1  478   0.959   1.733   6.867 -0.1264  0.1590 -0.0455
    3TYR    SC2  479   1.040   1.667   6.619  0.0533 -0.1106  0.0793
    3TYR    SC3  480   0.889   1.495   6.762  0.0939 -0.0313  0.2198
    1TYR     BB  481   1.051   0.537   6.722  0.2012 -0.1947  0.3174
    1TYR    SC1  482   1.201   0.401   6.528 -0.0812 -0.0180 -0.0561
    1TYR    SC2  483   1.260   0.432   6.266 -0.2675 -0.5095 -0.1704
    1TYR    SC3  484   1.377   0.234   6.408 -0.0426 -0.1485  0.1739
    2MET     BB  485   0.770   0.596   6.582  0.1609  0.0789  0.0020
    2MET    SC1  486   0.660   0.937   6.469  0.1851 -0.0842  0.2140
    3TYR     BB  487   0.512   0.374   6.627 -0.3762 -0.0586 -0.3227
    3TYR    SC1  488   0.361   0.393   6.378  0.2754  0.0693 -0.2274
    3TYR    SC2  489   0.129   0.454   6.255  0.0241  0.3397  0.3357
    3TYR    SC3  490   0.346   0.609   6.218  0.1514  0.0588 -0.2314
    1TYR     BB  491   3.735   0.940   6.495 -0.2556 -0.0561 -0.6160
    1TYR    SC1  492   3.434   1.036   6.533  0.0299 -0.1442 -0.0259
    1TYR    SC2  493   3.284   1.236   6.637 -0.0093 -0.0455 -0.2652
    1TYR    SC3  494   3.236   0.980   6.708  0.0416  0.0264  0.0443
    2MET     BB  495   3.791   0.728   6.403  0.2648 -0.0934 -0.1913
    2MET    SC1  496   4.212   0.728   6.354  0.1146 -0.2270 -0.3732
    3TYR     BB  497   3.813   0.465   6.290 -0.2263  0.0266  0.0666
    3TYR    SC1  498   3.809   0.169   6.428 -0.1304 -0.0778 -0.0136
    3TYR    SC2  499   3.744  -0.081   6.353 -0.2093 -0.0435 -0.0610
    3TYR    SC3  500   3.846  -0.037   6.599 -0.1100 -0.1335 -0.0847
    1TYR     BB  501   0.168   1.438   7.015 -0.1069 -0.3158  0.1465
    1TYR    SC1  502   0.020   1.549   7.288  0.2129 -0.0642 -0.0656
    1TYR    SC2  503  -0.037   1.486   7.544 -0.0717  0.0961 -0.0838
    1TYR    SC3  504   0.157   1.666   7.489  0.0583 -0.0121  0.0117
    2MET     BB  505   0.518   1.314   7.065  0.1211  0.0424  0.1738
    2MET    SC1  506   0.500   0.923   6.975  0.1217  0.0527  0.1900
    3TYR     BB  507   0.444   1.082   7.405  0.1647  0.0786 -0.1136
    3TYR    SC1  508   0.345   1.190   7.655  0.2306  0.0345 -0.1578
    3TYR    SC2  509   0.355   1.069   7.896  0.3028  0.4652  0.0678
    3TYR    SC3  510   0.116   1.132   7.786  0.2193 -0.3868 -0.3429
    1TYR     BB  511   3.603   1.948   1.075  0.1646 -0.1793  0.0170
    1TYR    SC1  512   3.453   1.691   1.070  0.0288 -0.0639 -0.3324
    1TYR    SC2  513   3.257   1.601   0.907  0.0007  0.0513 -0.3631
    1TYR    SC3  514   3.291   1.490   1.151 -0.0321 -0.0427 -0.4007
    2MET     BB  515   3.504   2.062   0.791  0.1842  0.1971  0.3878
    2MET    SC1  516   3.138   2.036   0.843 -0.2702 -0.3116  0.1747
    3TYR     BB  517   3.472   2.219   0.495 -0.0594 -0.1134 -0.0114
    3TYR    SC1  518   3.177   2.241   0.377 -0.1257 -0.1291 -0.2082
    3TYR    SC2  519   2.938   2.255   0.502 -0.0724 -0.0980 -0.1078
    3TYR    SC3  520   2.958   2.133   0.262 -0.2350  0.1055 -0.2292
    1TYR     BB  521   0.778   7.207   5.459  0.0096  0.1913  0.0415
    1TYR    SC1  522   0.839   6.905   5.599  0.1202  0.1614 -0.0919
    1TYR    SC2  523   1.023   6.752   5.724  0.2380  0.2553 -0.1477
    1TYR    SC3  524   0.778   6.651   5.670  0.2493  0.1515 -0.0131
    2MET     BB  525   0.493   7.319   5.381 -0.1261 -0.1710  0.1978
    2MET    SC1  526   0.535   7.572   5.083 -0.0538 -0.1044  0.0808
    3TYR     BB  527   0.400   7.528   5.581  0.0167 -0.0253 -0.0283
    3TYR    SC1  528   0.234   7.745   5.471 -0.1172  0.0908  0.2900
    3TYR    SC2  529   0.140   7.994   5.427  0.1152  0.1275 -0.0412
    3TYR    SC3  530   0.091   7.798   5.248 -0.0434 -0.0633  0.2043
    1TYR     BB  531   0.387   7.007   5.793 -0.1481  0.1111 -0.1466
    1TYR    SC1  532   0.331   6.907   5.562 -0.2877 -0.2235 -0.0771
    1TYR    SC2  533   0.167   6.898   5.349 -0.3132  0.0939 -0.0757
    1TYR    SC3  534   0.424   6.819   5.324 -0.3621 -0.0381 -0.1767
    2MET     BB  535   0.307   7.214   5.987  0.3072 -0.2217 -0.1223
    2MET    SC1  536   0.006   7.298   5.719  0.2186 -0.0507 -0.0287
    3TYR     BB  537   0.120   7.237   6.186  0.0765  0.1158 -0.0459
    3TYR    SC1  538  -0.209   7.246   6.184 -0.0876 -0.0721 -0.1585
    3TYR    SC2  539  -0.457   7.142   6.205 -0.1419  0.0463 -0.2005
    3TYR    SC3  540  -0.398   7.310   6.003 -0.0641  0.1198 -0.1179
    1TYR     BB  541   1.860   2.394   5.959 -0.1015 -0.2072  0.1474
    1TYR    SC1  542   1.767   2.692   5.910 -0.1560 -0.0210  0.0107
    1TYR    SC2  543   1.742   2.885   5.723 -0.1748 -0.0372 -0.0036
    1TYR    SC3  544   1.729   2.948   5.985  0.0641  0.0183 -0.0022
    2MET     BB  545   1.903   2.237   6.178 -0.1236  0.1627  0.1698
    2MET    SC1  546   1.557   2.007   6.207  0.3519  0.1883  0.0299
    3TYR     BB  547   2.007   2.241   6.484  0.2065 -0.0578  0.1060
    3TYR    SC1  548   1.771   2.282   6.655  0.6364 -0.2446  0.0303
    3TYR    SC2  549   1.661   2.141   6.857  0.3269 -0.1562 -0.0702
    3TYR    SC3  550   1.679   2.410   6.874  0.2732 -0.1459 -0.1702
    1TYR     BB  551   1.195   6.499   6.853 -0.1277 -0.0603 -0.0316
    1TYR    SC1  552   0.906   6.521   6.690 -0.1720  0.5304  0.0816
    1TYR    SC2  553   0.758   6.553   6.467 -0.1662  0.1124  0.0075
    1TYR    SC3  554   0.671   6.653   6.702 -0.3323  0.2748 -0.1193
    2MET     BB  555   1.250   6.814   6.847  0.0109  0.0439  0.1198
    2MET    SC1  556   1.313   6.845   7.235 -0.1938 -0.1778 -0.1164
    3TYR     BB  557   0.993   7.061   6.715 -0.3602  0.2209 -0.0339
    3TYR    SC1  558   1.023   7.307   6.554  0.0718 -0.2363 -0.0864
    3TYR    SC2  559   1.057   7.562   6.472 -0.2493 -0.1373  0.0661
    3TYR    SC3  560   1.072   7.359   6.294 -0.2625  0.0114 -0.1079
    1TYR     BB  561   2.768   3.352   7.569  0.1187 -0.1535  0.0952
    1TYR    SC1  562   2.912   3.360   7.274 -0.2236 -0.0060 -0.1915
    1TYR    SC2  563   3.029   3.539   7.110 -0.1024 -0.0032 -0.1042
    1TYR    SC3  564   2.954   3.298   7.014  0.2203 -0.1085 -0.1064
    2MET     BB  565   2.797   3.114   7.863 -0.0189 -0.1625  0.1235
    2MET    SC1  566   3.059   2.947   7.634  0.3948  0.1341 -0.2189
    3TYR     BB  567   2.570   3.033   8.052  0.3491 -0.2045 -0.0767
    3TYR    SC1  568   2.422   3.199   8.292 -0.3481 -0.2917 -0.1617
    3TYR    SC2  569   2.329   3.201   8.545  0.0196  0.0678 -0.0154
    3TYR    SC3  570   2.237   3.381   8.366  0.0178  0.0468 -0.0356
    1TYR     BB  571   3.308   0.210   7.353  0.1761  0.0360 -0.0935
    1TYR    SC1  572   3.545   0.347   7.444  0.0117  0.0751  0.2395
    1TYR    SC2  573   3.798   0.318   7.535  0.2519 -0.1227 -0.4147
    1TYR    SC3  574   3.725   0.544   7.405 -0.0090  0.0528  0.0093
    2MET     BB  575   3.136   0.028   7.460 -0.0439  0.0115  0.2132
    2MET    SC1  576   3.324  -0.172   7.698 -0.0455 -0.0710 -0.1585
    3TYR     BB  577   2.863  -0.004   7.486  0.3808 -0.2071 -0.1628
    3TYR    SC1  578   2.833  -0.118   7.783  0.0023 -0.3523 -0.0969
    3TYR    SC2  579   2.866  -0.126   8.051 -0.2727  0.1762 -0.0318
    3TYR    SC3  580   2.823  -0.354   7.914 -0.3579 -0.0840  0.4041
    1TYR     BB  581   1.949   0.826   6.827  0.4612  0.0998  0.0666
    1TYR    SC1  582   1.917   0.926   7.120  0.1320 -0.0458  0.1457
    1TYR    SC2  583   1.949   0.963   7.385  0.0024  0.1866  0.1322
    1TYR    SC3  584   1.760   1.102   7.251  0.0753  0.0815 -0.0857
    2MET     BB  585   1.987   1.009   6.609 -0.1929  0.0450  0.0069
    2MET    SC1  586   2.347   0.935   6.574 -0.0592  0.0085 -0.0538
    3TYR     BB  587   1.894   1.303   6.512  0.0864 -0.1716  0.2044
    3TYR    SC1  588   1.664   1.264   6.324  0.1075 -0.0099  0.0605
    3TYR    SC2  589   1.495   1.411   6.173  0.0087  0.0070  0.1861
    3TYR    SC3  590   1.624   1.200   6.065 -0.0043  0.0633  0.0590
    1TYR     BB  591   2.540   0.600   5.640  0.1442 -0.0036  0.0494
    1TYR    SC1  592   2.691   0.568   5.407 -0.1179 -0.5409 -0.2398
    1TYR    SC2  593   2.927   0.448   5.356  0.1006 -0.1878 -0.1112
    1TYR    SC3  594   2.763   0.514   5.153  0.3443  0.0062 -0.2528
    2MET     BB  595   2.431   0.880   5.732 -0.3009  0.2248 -0.1013
    2MET    SC1  596   2.435   0.761   6.107  0.0034  0.1472 -0.0569
    3TYR     BB  597   2.473   1.086   5.521 -0.1339 -0.1781  0.1553
    3TYR    SC1  598   2.205   1.150   5.402  0.0110  0.1209 -0.3339
    3TYR    SC2  599   2.160   1.338   5.213 -0.2604  0.1863 -0.2111
    3TYR    SC3  600   1.993   1.127   5.237 -0.1447  0.1011 -0.1363
    1TYR     BB  601   3.856   1.519   6.371 -0.0231  0.1821 -0.0053
    1TYR    SC1  602   4.058   1.401   6.550 -0.1298  0.0374 -0.1318
    1TYR    SC2  603   4.197   1.174   6.594 -0.2338 -0.0175 -0.0825
    1TYR    SC3  604   4.186   1.364   6.785  0.1026  0.1650 -0.2339
    2MET     BB  605   3.601   1.407   6.301  0.1432  0.0224  0.1079
    2MET    SC1  606   3.419   1.789   6.334  0.1738  0.4993  0.0506
    3TYR     BB  607   3.490   1.298   6.071  0.0263 -0.2557  0.1438
    3TYR    SC1  608   3.493   1.004   6.003  0.0358 -0.0743 -0.0473
    3TYR    SC2  609   3.605   0.760   5.976 -0.4327 -0.3427  0.2596
    3TYR    SC3  610   3.356   0.784   6.077 -0.4770  0.2589  0.0595
    1TYR     BB  611   0.510   7.533   6.498 -0.0154  0.2579 -0.2110
    1TYR    SC1  612   0.209   7.650   6.528 -0.3025 -0.1299  0.2385
    1TYR    SC2  613   0.022   7.817   6.628 -0.2084  0.0534  0.1161
    1TYR    SC3  614  -0.028   7.679   6.401 -0.1401  0.2233 -0.0045
    2MET     BB  615   0.598   7.546   6.212  0.0540  0.1860 -0.0870
    2MET    SC1  616   0.796   7.888   6.228 -0.2011 -0.2684  0.0776
    3TYR     BB  617   0.743   7.470   5.934  0.4372  0.0036  0.0992
    3TYR    SC1  618   1.002   7.604   5.902 -0.0105 -0.1765  0.3529
    3TYR    SC2  619   1.241   7.684   5.999 -0.0249  0.3759 -0.0115
    3TYR    SC3  620   1.096   7.850   5.843 -0.4659 -0.0978 -0.1409
    1TYR     BB  621   1.996   0.775   0.991 -0.5103  0.0380  0.0334
    1TYR    SC1  622   1.753   0.774   1.173  0.0725 -0.0938 -0.0159
    1TYR    SC2  623   1.524   0.706   1.299  0.1884 -0.2529  0.1143
    1TYR    SC3  624   1.582   0.966   1.256 -0.0780 -0.2145 -0.0412
    2MET     BB  625   2.025   0.652   0.721  0.0388 -0.4621  0.2045
    2MET    SC1  626   1.913   0.924   0.492 -0.3049 -0.3045 -0.3567
    3TYR     BB  627   2.205   0.491   0.540  0.3801 -0.0205 -0.0525
    3TYR    SC1  628   2.292   0.683   0.314 -0.2993 -0.0106  0.1079
    3TYR    SC2  629   2.454   0.741   0.106 -0.1949  0.0613  0.2082
    3TYR    SC3  630   2.186   0.739   0.072 -0.1987  0.4370  0.1565
    1TYR     BB  631   2.651   1.368   5.125 -0.0346 -0.0985  0.1773
    1TYR    SC1  632   2.520   1.122   5.007 -0.2288  0.0147  0.2088
    1TYR    SC2  633   2.303   0.966   4.966  0.0118 -0.2939  0.0642
    1TYR    SC3  634   2.524   0.863   5.082  0.1514 -0.0377  0.0346
    2MET     BB  635   2.956   1.346   5.224  0.2399  0.2295  0.2135
    2MET    SC1  636   2.956   0.971   5.265  0.2337 -0.0447 -0.1119
    3TYR     BB  637   3.167   1.598   5.148  0.3030  0.0139  0.1199
    3TYR    SC1  638   3.070   1.896   5.120  0.1811  0.0741  0.3796
    3TYR    SC2  639   3.066   2.156   5.046  0.1706 -0.0030  0.0922
    3TYR    SC3  640   2.836   2.014   5.055  0.1911 -0.0344  0.1328
    1TYR     BB  641   1.582   0.140   7.564  0.0880 -0.1032  0.1034
    1TYR    SC1  642   1.618   0.393   7.730  0.2443 -0.2451 -0.1038
    1TYR    SC2  643   1.619   0.523   7.966 -0.1273  0.0109 -0.2323
    1TYR    SC3  644   1.722   0.642   7.747 -0.1999 -0.0336 -0.2910
    2MET     BB  645   1.272   0.046   7.498  0.3444  0.1704  0.0424
    2MET    SC1  646   1.292  -0.292   7.546  0.0397 -0.0450 -0.0596
    3TYR     BB  647   0.955   0.135   7.392 -0.0867  0.5098 -0.1044
    3TYR    SC1  648   0.792   0.070   7.678  0.1392  0.1297  0.1597
    3TYR    SC2  649   0.601  -0.011   7.850  0.0712 -0.0099  0.0218
    3TYR    SC3  650   0.828  -0.155   7.822 -0.1034 -0.2383 -0.3144
    1TYR     BB  651   1.203   2.232   5.933 -0.0953  0.0318  0.2778
    1TYR    SC1  652   1.341   2.507   5.814 -0.0429 -0.0147 -0.2611
    1TYR    SC2  653   1.381   2.712   5.643  0.1581  0.0880 -0.0972
    1TYR    SC3  654   1.344   2.761   5.906  0.0065 -0.0768 -0.0852
    2MET     BB  655   0.827   2.227   5.943 -0.0423  0.1242  0.1577
    2MET    SC1  656   0.838   2.585   6.165  0.2514  0.0644  0.1507
    3TYR     BB  657   0.466   2.286   6.000  0.2420 -0.2015 -0.0784
    3TYR    SC1  658   0.373   2.288   5.720 -0.0414  0.0791  0.1836
    3TYR    SC2  659   0.427   2.320   5.457 -0.2587  0.0448  0.1318
    3TYR    SC3  660   0.196   2.415   5.560 -0.3233 -0.2199  0.2432
    1TYR     BB  661   4.083   1.786   5.996  0.2221  0.2101 -0.0181
    1TYR    SC1  662   4.078   2.072   5.876  0.0046 -0.2398 -0.1805
    1TYR    SC2  663   4.174   2.261   5.708  0.0373 -0.2110 -0.1297
    1TYR    SC3  664   3.922   2.169   5.678 -0.0891  0.0655  0.0340
    2MET     BB  665   3.871   1.649   5.884  0.4047 -0.1247 -0.2263
    2MET    SC1  666   3.972   1.615   5.510  0.1738 -0.0229 -0.0050
    3TYR     BB  667   3.522   1.782   5.863 -0.0372 -0.0605  0.1807
    3TYR    SC1  668   3.473   1.924   5.582 -0.3354 -0.1812 -0.1318
    3TYR    SC2  669   3.533   2.023   5.338 -0.1867  0.1282  0.0226
    3TYR    SC3  670   3.450   2.189   5.534 -0.0113 -0.0663  0.2704
    1TYR     BB  671   0.664   1.347   5.698 -0.1016 -0.1920  0.2070
    1TYR    SC1  672   0.349   1.352   5.682  0.0812  0.4390 -0.2408
    1TYR    SC2  673   0.143   1.413   5.519 -0.2760  0.1269  0.0705
    1TYR    SC3  674   0.101   1.263   5.740  0.2448  0.2808  0.2929
    2MET     BB  675   0.794   1.349   5.431  0.2619  0.1872 -0.1379
    2MET    SC1  676   0.560   1.432   5.197 -0.2911  0.0703  0.1856
    3TYR     BB  677   1.049   1.401   5.337 -0.0160  0.0883  0.0518
    3TYR    SC1  678   1.123   1.688   5.297 -0.1878  0.2044  0.1083
    3TYR    SC2  679   1.145   1.894   5.125  0.3082 -0.0995 -0.2237
    3TYR    SC3  680   1.292   1.891   5.351 -0.0015  0.0855 -0.0115
    1TYR     BB  681   2.326   1.712   7.386  0.2988 -0.2845 -0.3842
    1TYR    SC1  682   2.451   1.788   7.156 -0.0783 -0.1088  0.0371
    1TYR    SC2  683   2.552   1.649   6.947 -0.1727 -0.1752  0.0348
    1TYR    SC3  684   2.672   1.876   7.029 -0.0163 -0.2579  0.0386
    2MET     BB  685   2.292   1.998   7.536  0.3045 -0.0630  0.1326
    2MET    SC1  686   2.114   2.245   7.479  0.0049  0.2931 -0.0805
    3TYR     BB  687   2.513   2.055   7.705 -0.1292  0.3444  0.0817
    3TYR    SC1  688   2.595   2.352   7.738  0.0914  0.0355 -0.4907
    3TYR    SC2  689   2.742   2.553   7.840 -0.1758  0.0285 -0.0628
    3TYR    SC3  690   2.543   2.607   7.667  0.1141  0.0663 -0.3985
    1TYR     BB  691   2.488   0.262   5.991  0.0518 -0.1654 -0.0525
    1TYR    SC1  692   2.363   0.001   5.958  0.1240 -0.2197  0.1839
    1TYR    SC2  693   2.305  -0.224   5.821 -0.2184 -0.0287 -0.0026
    1TYR    SC3  694   2.150  -0.148   6.029  0.0557 -0.0992  0.2360
    2MET     BB  695   2.741   0.153   6.184 -0.0966 -0.2465 -0.1108
    2MET    SC1  696   2.963  -0.153   6.202  0.0329  0.2012  0.2644
    3TYR     BB  697   2.872   0.369   6.356 -0.4800 -0.0948 -0.3459
    3TYR    SC1  698   2.776   0.511   6.568 -0.2854  0.3215 -0.3378
    3TYR    SC2  699   2.729   0.467   6.830 -0.1999  0.0712 -0.3611
    3TYR    SC3  700   2.743   0.720   6.736 -0.0271  0.1699 -0.0870
    1TYR     BB  701   1.570   1.431   5.163 -0.1346  0.2016 -0.1583
    1TYR    SC1  702   1.422   1.412   4.887 -0.1273  0.1125  0.1803
    1TYR    SC2  703   1.359   1.299   4.650  0.2555 -0.0318  0.1393
    1TYR    SC3  704   1.184   1.467   4.770  0.0559  0.0487 -0.2434
    2MET     BB  705   1.738   1.634   5.214  0.0221  0.0099  0.1917
    2MET    SC1  706   1.921   1.627   4.855 -0.1792 -0.2927  0.0331
    3TYR     BB  707   1.887   1.812   5.319  0.2646 -0.0560 -0.4404
    3TYR    SC1  708   1.947   2.099   5.258 -0.1296 -0.1255 -0.1823
    3TYR    SC2  709   2.150   2.184   5.103  0.0923 -0.0344  0.1440
    3TYR    SC3  710   2.100   2.306   5.338 -0.1951 -0.2075  0.1789
    1TYR     BB  711   1.908   2.201   0.277 -0.0100  0.0493  0.3233
    1TYR    SC1  712   1.766   2.020   0.079  0.5375  0.1870 -0.0699
    1TYR    SC2  713   1.776   1.862  -0.139  0.4959 -0.0436  0.0905
    1TYR    SC3  714   1.541   1.970  -0.061  0.5229  0.0950 -0.0143
    2MET     BB  715   2.123   2.007   0.458  0.2811  0.0681  0.1916
    2MET    SC1  716   2.499   1.984   0.521  0.0876 -0.0073 -0.2054
    3TYR     BB  717   2.163   1.866   0.817  0.0825  0.3552 -0.0483
    3TYR    SC1  718   2.184   1.550   0.737  0.0142  0.0407  0.0271
    3TYR    SC2  719   2.216   1.315   0.868  0.0056  0.1243  0.1824
    3TYR    SC3  720   2.172   1.317   0.601  0.0017 -0.0502  0.1808
    1TYR     BB  721   3.663   3.270   1.233 -0.3346  0.0591 -0.0724
    1TYR    SC1  722   3.961   3.215   1.127  0.2509  0.2053  0.1655
    1TYR    SC2  723   4.192   3.077   1.102  0.0496 -0.0915 -0.1915
    1TYR    SC3  724   4.172   3.325   0.999  0.2376 -0.0184 -0.0597
    2MET     BB  725   3.407   3.250   1.153 -0.0602 -0.1061  0.0924
    2MET    SC1  726   3.252   3.522   1.365  0.1398  0.0283  0.3053
    3TYR     BB  727   3.305   3.121   0.923  0.0500  0.1756 -0.1562
    3TYR    SC1  728   3.067   3.007   0.832 -0.0157  0.0123  0.3449
    3TYR    SC2  729   2.871   3.172   0.745 -0.0583 -0.0356  0.3494
    3TYR    SC3  730   2.812   2.919   0.819  0.0219 -0.0848  0.2490
    1TYR     BB  731   3.301   0.720   0.759 -0.2032  0.3983  0.1224
    1TYR    SC1  732   3.479   0.648   0.988 -0.1708 -0.0409 -0.2086
    1TYR    SC2  733   3.657   0.756   1.160 -0.3893  0.2511 -0.1562
    1TYR    SC3  734   3.445   0.618   1.254 -0.2476 -0.0148 -0.2152
    2MET     BB  735   2.977   0.628   0.921 -0.1665  0.1060 -0.3127
    2MET    SC1  736   3.017   0.311   0.734 -0.2767 -0.0140  0.0345
    3TYR     BB  737   2.951   0.657   1.218  0.0787 -0.0755  0.0200
    3TYR    SC1  738   2.863   0.511   1.459 -0.2050  0.1205 -0.3808
    3TYR    SC2  739   2.654   0.513   1.629  0.0650  0.0047 -0.0329
    3TYR    SC3  740   2.735   0.281   1.516  0.1438  0.0090  0.0139
    1TYR     BB  741   1.695   7.077   6.882  0.0578  0.0569 -0.1273
    1TYR    SC1  742   2.012   7.070   6.842  0.0304 -0.2456  0.3466
    1TYR    SC2  743   2.275   7.131   6.836 -0.0437  0.0913  0.3251
    1TYR    SC3  744   2.188   6.902   6.724  0.2252  0.0334  0.2242
    2MET     BB  745   1.487   7.291   6.901  0.0985 -0.2641  0.5848
    2MET    SC1  746   1.493   7.494   6.578 -0.2846  0.0531 -0.1181
    3TYR     BB  747   1.516   7.498   7.141  0.0530 -0.2909  0.1484
    3TYR    SC1  748   1.824   7.503   7.180 -0.0511  0.1953 -0.0829
    3TYR    SC2  749   2.061   7.632   7.174 -0.0121  0.1259 -0.0452
    3TYR    SC3  750   1.967   7.513   6.951 -0.1228  0.3520 -0.1226
    1TYR     BB  751   2.372   3.468   1.562 -0.2057 -0.2232 -0.0534
    1TYR    SC1  752   2.568   3.617   1.397  0.0794 -0.1010  0.1425
    1TYR    SC2  753   2.700   3.727   1.188 -0.2235  0.4401  0.2136
    1TYR    SC3  754   2.814   3.723   1.433  0.1153 -0.1586  0.0694
    2MET     BB  755   2.183   3.284   1.352 -0.0738 -0.0699  0.3426
    2MET    SC1  756   2.124   3.577   1.151  0.1446 -0.1563 -0.2127
    3TYR     BB  757   1.892   3.165   1.366  0.0416  0.1487  0.0981
    3TYR    SC1  758   1.884   2.926   1.544 -0.3091 -0.0115  0.2596
    3TYR    SC2  759   2.033   2.703   1.572 -0.0941  0.0548 -0.2283
    3TYR    SC3  760   1.806   2.733   1.715  0.1527 -0.2208  0.2517
    1TYR     BB  761   2.584   1.245   6.048 -0.2351  0.3152  0.0835
    1TYR    SC1  762   2.853   1.113   6.181  0.1147 -0.0145  0.1318
    1TYR    SC2  763   3.106   1.160   6.265  0.0741  0.1163  0.1836
    1TYR    SC3  764   2.978   0.933   6.340  0.2793 -0.0953 -0.0837
    2MET     BB  765   2.330   1.257   6.218 -0.2040 -0.0665  0.0399
    2MET    SC1  766   2.373   1.457   6.528  0.2380 -0.2304 -0.1294
    3TYR     BB  767   2.082   1.088   6.077 -0.1458 -0.0516  0.1798
    3TYR    SC1  768   2.109   1.307   5.828  0.2754 -0.1471 -0.0114
    3TYR    SC2  769   2.230   1.503   5.687 -0.1655  0.2141  0.0826
    3TYR    SC3  770   1.962   1.474   5.674 -0.1321 -0.2626  0.2334
    1TYR     BB  771   2.897   2.289   6.771 -0.1477  0.0164 -0.2490
    1TYR    SC1  772   3.018   2.573   6.843 -0.0101 -0.0325 -0.4202
    1TYR    SC2  773   3.142   2.721   7.032 -0.0644 -0.2429 -0.2144
    1TYR    SC3  774   3.026   2.842   6.820 -0.2209  0.0212  0.0144
    2MET     BB  775   2.594   2.338   6.655 -0.0153  0.0083 -0.0716
    2MET    SC1  776   2.466   1.996   6.613  0.1108 -0.0511  0.0044
    3TYR     BB  777   2.491   2.572   6.539 -0.0753 -0.0496  0.2423
    3TYR    SC1  778   2.593   2.858   6.442 -0.0011 -0.1070  0.1676
    3TYR    SC2  779   2.544   3.104   6.343  0.5134 -0.0756 -0.0459
    3TYR    SC3  780   2.625   3.075   6.599  0.0758 -0.0704  0.1022
    1TYR     BB  781   3.345   2.264   6.475  0.2928  0.1059 -0.1990
    1TYR    SC1  782   3.483   2.333   6.191  0.2938  0.3893  0.1669
    1TYR    SC2  783   3.558   2.320   5.931 -0.0145  0.0354  0.0847
    1TYR    SC3  784   3.551   2.558   6.059 -0.3075  0.2917 -0.3727
    2MET     BB  785   3.421   2.343   6.784  0.0268  0.0629 -0.2104
    2MET    SC1  786   3.493   2.699   6.707 -0.1226  0.0554 -0.2140
    3TYR     BB  787   3.359   2.260   7.120 -0.0275 -0.0920 -0.0799
    3TYR    SC1  788   3.500   2.473   7.256 -0.0866  0.0322  0.0370
    3TYR    SC2  789   3.519   2.718   7.368 -0.0279  0.0283  0.0361
    3TYR    SC3  790   3.683   2.650   7.165  0.0762 -0.0734  0.1522
    1TYR     BB  791   2.394   0.638   1.278  0.3405  0.1502  0.0949
    1TYR    SC1  792   2.452   0.387   1.120 -0.1168  0.0560 -0.2622
    1TYR    SC2  793   2.529   0.273   0.888 -0.0745 -0.1819 -0.1355
    1TYR    SC3  794   2.688   0.256   1.105  0.0703  0.3700 -0.1797
    2MET     BB  795   2.470   0.909   1.122  0.1277  0.3367 -0.0442
    2MET    SC1  796   2.422   0.916   0.768  0.0828  0.1181 -0.0096
    3TYR     BB  797   2.525   1.212   1.196 -0.0169  0.0483  0.3338
    3TYR    SC1  798   2.635   1.371   0.915 -0.0256  0.0114  0.0581
    3TYR    SC2  799   2.615   1.482   0.670  0.1267  0.1480  0.1055
    3TYR    SC3  800   2.787   1.584   0.851  0.0286  0.0373  0.2646
    1TYR     BB  801   3.730   1.877   6.793 -0.0053 -0.0036  0.1768
    1TYR    SC1  802   3.603   1.761   7.052  0.1569 -0.0015 -0.0721
    1TYR    SC2  803   3.650   1.602   7.265  0.0161  0.0386 -0.0095
    1TYR    SC3  804   3.436   1.766   7.264 -0.0446 -0.0380 -0.2270
    2MET     BB  805   3.847   2.179   6.920 -0.0541  0.3123  0.0799
    2MET    SC1  806   3.855   2.117   7.301 -0.0974 -0.1158 -0.0621
    3TYR     BB  807   3.963   2.489   6.798  0.0588 -0.0038  0.0012
    3TYR    SC1  808   4.091   2.644   7.014  0.3001 -0.4858 -0.0464
    3TYR    SC2  809   4.317   2.692   7.154 -0.0462  0.2157  0.3425
    3TYR    SC3  810   4.091   2.618   7.283 -0.1349 -0.1510  0.0012
    1TYR     BB  811   2.050   0.515   5.815 -0.0252  0.0640 -0.0978
    1TYR    SC1  812   1.917   0.758   5.748 -0.0475 -0.0494  0.2294
    1TYR    SC2  813   1.790   0.946   5.601 -0.1071 -0.4549 -0.2722
    1TYR    SC3  814   1.665   0.832   5.812 -0.1776 -0.1467 -0.1405
    2MET     BB  815   2.035   0.237   5.638 -0.2177 -0.0842  0.0405
    2MET    SC1  816   2.437   0.181   5.498  0.0264  0.1304  0.1539
    3TYR     BB  817   1.934   0.213   5.362  0.0679 -0.2227  0.0382
    3TYR    SC1  818   2.047   0.457   5.208  0.1774  0.0910 -0.0686
    3TYR    SC2  819   2.027   0.687   5.069 -0.0067  0.0560 -0.1035
    3TYR    SC3  820   2.180   0.677   5.291 -0.4107  0.3714  0.2091
    1TYR     BB  821   2.545   2.216   5.534  0.0074 -0.1770 -0.1186
    1TYR    SC1  822   2.436   2.507   5.613 -0.0552 -0.2506 -0.2695
    1TYR    SC2  823   2.229   2.668   5.676  0.0814 -0.1307 -0.1170
    1TYR    SC3  824   2.425   2.758   5.513  0.0120 -0.2466 -0.2673
    2MET     BB  825   2.321   1.950   5.577  0.1998 -0.0654  0.0778
    2MET    SC1  826   2.421   1.830   5.240  0.0679  0.3528  0.0647
    3TYR     BB  827   2.099   1.954   5.727  0.2081  0.1084  0.0260
    3TYR    SC1  828   1.998   1.787   5.997 -0.2403  0.1421  0.1961
    3TYR    SC2  829   1.905   1.560   6.109 -0.0592  0.0741  0.2123
    3TYR    SC3  830   2.013   1.753   6.264  0.3771 -0.1052  0.1518
    1TYR     BB  831   2.989   3.134   2.379 -0.3053  0.0425 -0.2118
    1TYR    SC1  832   2.817   2.968   2.567 -0.1702  0.0287 -0.0214
    1TYR    SC2  833   2.772   2.719   2.659  0.1736  0.0664  0.2815
    1TYR    SC3  834   2.627   2.926   2.753  0.1332  0.0288  0.3026
    2MET     BB  835   2.850   3.302   2.200  0.0640  0.0398 -0.1246
    2MET    SC1  836   2.458   3.423   2.150 -0.2133  0.2594 -0.1505
    3TYR     BB  837   2.903   3.674   2.248  0.0574  0.2179  0.1830
    3TYR    SC1  838   3.056   3.811   1.992  0.2617  0.1501  0.0301
    3TYR    SC2  839   3.203   3.777   1.768  0.1027  0.1674 -0.0788
    3TYR    SC3  840   3.023   3.978   1.782 -0.1457 -0.0493 -0.0765
    1TYR     BB  841   3.428   2.104   7.650  0.2508  0.0185  0.0124
    1TYR    SC1  842   3.600   2.362   7.682  0.1072 -0.0291 -0.2155
    1TYR    SC2  843   3.811   2.520   7.622  0.2769 -0.1079  0.1422
    1TYR    SC3  844   3.686   2.545   7.861  0.0459 -0.2421  0.0397
    2MET     BB  845   3.608   1.839   7.763 -0.1191  0.1030  0.4320
    2MET    SC1  846   3.887   2.030   7.874  0.2114  0.1960  0.0302
    3TYR     BB  847   3.514   1.722   8.006 -0.1352  0.0023 -0.1322
    3TYR    SC1  848   3.213   1.714   8.045  0.1509  0.0075  0.2602
    3TYR    SC2  849   2.976   1.774   8.160  0.0289  0.1679 -0.0596
    3TYR    SC3  850   3.000   1.552   8.008  0.1118  0.1033  0.0464
    1TYR     BB  851   4.159   1.777   7.110 -0.1024 -0.2761  0.0556
    1TYR    SC1  852   4.320   1.885   7.362 -0.3321 -0.5299 -0.0527
    1TYR    SC2  853   4.301   1.957   7.622 -0.4288 -0.1562 -0.1553
    1TYR    SC3  854   4.521   1.828   7.533  0.1110  0.6296 -0.0799
    2MET     BB  855   4.255   1.918   6.883 -0.0123  0.0391  0.1449
    2MET    SC1  856   4.342   2.234   6.984 -0.0221 -0.0591 -0.3281
    3TYR     BB  857   4.291   1.932   6.508 -0.0809 -0.0923  0.2113
    3TYR    SC1  858   4.054   2.117   6.444 -0.0591  0.2080  0.2598
    3TYR    SC2  859   3.788   2.131   6.401 -0.0433 -0.0569  0.0442
    3TYR    SC3  860   3.948   2.332   6.320 -0.1550  0.0119 -0.0092
    1TYR     BB  861   1.894   0.485   7.320 -0.2866 -0.2625  0.2168
    1TYR    SC1  862   1.794   0.326   7.075  0.3189 -0.0157 -0.1015
    1TYR    SC2  863   1.596   0.272   6.900  0.3492 -0.1328 -0.1004
    1TYR    SC3  864   1.836   0.356   6.810  0.3042 -0.0043 -0.1026
    2MET     BB  865   2.065   0.281   7.505 -0.0300  0.0674  0.1397
    2MET    SC1  866   2.416   0.220   7.415 -0.1683  0.3016  0.0807
    3TYR     BB  867   2.098   0.215   7.772  0.0533  0.1425  0.0343
    3TYR    SC1  868   1.953  -0.049   7.793  0.0549 -0.1127  0.0555
    3TYR    SC2  869   1.724  -0.170   7.869 -0.0456  0.0061 -0.0525
    3TYR    SC3  870   1.858  -0.258   7.652  0.0281 -0.0811  0.0268
    1TYR     BB  871   1.513   0.814   4.800  0.1572  0.0380 -0.1801
    1TYR    SC1  872   1.710   1.021   4.667 -0.4160  0.1916 -0.1789
    1TYR    SC2  873   1.941   1.148   4.725 -0.2370 -0.2691  0.2038
    1TYR    SC3  874   1.795   1.224   4.510  0.0731  0.2697  0.1606
    2MET     BB  875   1.553   0.857   5.156 -0.0495 -0.0440 -0.0461
    2MET    SC1  876   1.581   0.564   5.408 -0.0876 -0.0615 -0.3482
    3TYR     BB  877   1.307   0.998   5.256  0.1982 -0.0258 -0.3287
    3TYR    SC1  878   1.124   1.081   5.034  0.0180 -0.0917  0.0438
    3TYR    SC2  879   1.046   1.024   4.781  0.0910  0.1113 -0.0266
    3TYR    SC3  880   0.862   1.054   4.976 -0.0014  0.3958 -0.1514
    1TYR     BB  881   2.843   2.468   0.987 -0.0301 -0.0695 -0.0428
    1TYR    SC1  882   2.663   2.271   0.989  0.0444 -0.0538 -0.0711
    1TYR    SC2  883   2.673   2.006   1.041 -0.2241 -0.0637 -0.0566
    1TYR    SC3  884   2.480   2.159   1.153 -0.1172  0.1252 -0.1253
    2MET     BB  885   2.942   2.589   1.245 -0.0320 -0.2669  0.1571
    2MET    SC1  886   2.721   2.473   1.525  0.0018 -0.2184  0.1275
    3TYR     BB  887   3.085   2.928   1.344 -0.2205  0.2040  0.1243
    3TYR    SC1  888   2.889   3.128   1.232  0.1495  0.3079 -0.1977
    3TYR    SC2  889   2.899   3.352   1.083 -0.1178  0.2959 -0.2410
    3TYR    SC3  890   2.660   3.246   1.150  0.0044  0.0367 -0.1995
    1TYR     BB  891   3.174   3.973   1.245 -0.2672 -0.2702 -0.1870
    1TYR    SC1  892   3.076   4.191   1.014  0.0022 -0.0384 -0.0985
    1TYR    SC2  893   2.896   4.390   0.988  0.0902  0.0502 -0.0410
    1TYR    SC3  894   3.136   4.409   0.867  0.0391 -0.0958 -0.1694
    2MET     BB  895   3.491   3.974   1.233  0.1600  0.3011  0.0245
    2MET    SC1  896   3.490   4.047   0.862 -0.4545 -0.1925  0.0397
    3TYR     BB  897   3.667   3.727   1.378  0.2754  0.0253  0.0273
    3TYR    SC1  898   3.972   3.623   1.503  0.1076  0.1805 -0.1609
    3TYR    SC2  899   4.197   3.505   1.412 -0.0056 -0.0127 -0.1964
    3TYR    SC3  900   4.167   3.552   1.676 -0.0389 -0.2449 -0.1558
    1TYR     BB  901   2.664   1.970   1.562  0.3392 -0.0350 -0.1949
    1TYR    SC1  902   2.943   2.057   1.386 -0.0304 -0.1272  0.3104
    1TYR    SC2  903   3.170   2.172   1.295 -0.1860 -0.1007 -0.0686
    1TYR    SC3  904   3.164   1.907   1.345 -0.0524 -0.0878  0.0225
    2MET     BB  905   2.554   1.951   1.821  0.1318  0.0223  0.0202
    2MET    SC1  906   2.797   2.287   1.955 -0.4309  0.0537  0.0486
    3TYR     BB  907   2.312   2.060   2.058  0.0062  0.1111 -0.0302
    3TYR    SC1  908   2.303   2.337   1.977 -0.1947  0.1649  0.0119
    3TYR    SC2  909   2.125   2.540   1.981 -0.0015  0.3460 -0.1977
    3TYR    SC3  910   2.364   2.573   1.860  0.1320  0.0699 -0.0219
    1TYR     BB  911   2.773   7.209   7.322  0.3453  0.1165 -0.0164
    1TYR    SC1  912   3.039   7.223   7.156  0.2391  0.2181  0.2075
    1TYR    SC2  913   3.309   7.241   7.147  0.2781 -0.2864 -0.0646
    1TYR    SC3  914   3.176   7.103   6.957 -0.2046  0.1612 -0.0802
    2MET     BB  915   2.547   7.378   7.216  0.1934 -0.0582 -0.0845
    2MET    SC1  916   2.343   7.418   7.597  0.1062  0.1625 -0.0607
    3TYR     BB  917   2.510   7.575   7.094  0.2175  0.1992  0.3230
    3TYR    SC1  918   2.739   7.720   6.936  0.1329  0.2740  0.0841
    3TYR    SC2  919   2.892   7.697   6.715 -0.0355 -0.0379 -0.0083
    3TYR    SC3  920   2.992   7.627   6.955  0.0456  0.0009 -0.0300
    1TYR     BB  921   2.408   1.227   7.532 -0.0985 -0.0123 -0.0462
    1TYR    SC1  922   2.306   1.253   7.236 -0.2776  0.1670 -0.0244
    1TYR    SC2  923   2.265   1.221   6.971 -0.0255 -0.1229 -0.0361
    1TYR    SC3  924   2.087   1.359   7.120 -0.0632  0.2322 -0.3894
    2MET     BB  925   2.363   1.224   7.709 -0.1646  0.0395  0.0670
    2MET    SC1  926   2.391   1.579   7.862  0.0099  0.1906 -0.0719
    3TYR     BB  927   2.587   1.108   7.999 -0.2289 -0.1590  0.1055
    3TYR    SC1  928   2.850   1.073   7.904  0.0616  0.2430  0.0559
    3TYR    SC2  929   3.078   1.120   7.768  0.1149 -0.1249  0.0062
    3TYR    SC3  930   3.019   0.870   7.851 -0.0358  0.0455  0.4513
    1TYR     BB  931   3.624   7.594   7.068 -0.3564 -0.0968 -0.1583
    1TYR    SC1  932   3.435   7.523   6.811  0.0743  0.1626  0.1383
    1TYR    SC2  933   3.241   7.410   6.661  0.0937  0.1879  0.0942
    1TYR    SC3  934   3.340   7.652   6.594  0.2993  0.0770 -0.0155
    2MET     BB  935   3.906   7.633   7.119 -0.0443  0.0334  0.1264
    2MET    SC1  936   3.848   7.429   7.499 -0.1561 -0.2993  0.1243
    3TYR     BB  937   4.106   7.850   7.123 -0.2634 -0.1160  0.1284
    3TYR    SC1  938   4.204   7.974   7.355 -0.1401 -0.1037  0.0456
    3TYR    SC2  939   4.202   8.195   7.510 -0.0734 -0.0462 -0.0344
    3TYR    SC3  940   4.367   7.990   7.570  0.0293  0.0194 -0.0871
    1TYR     BB  941   2.602   2.884   2.144  0.0628 -0.0680 -0.1816
    1TYR    SC1  942   2.398   2.875   2.339  0.0975 -0.3784 -0.0564
    1TYR    SC2  943   2.208   2.845   2.529  0.1411 -0.0209  0.0542
    1TYR    SC3  944   2.277   3.092   2.446  0.1053 -0.1669 -0.4527
    2MET     BB  945   2.475   3.074   1.809 -0.0498  0.3639 -0.0438
    2MET    SC1  946   2.140   3.091   1.915 -0.2294  0.2314 -0.4124
    3TYR     BB  947   2.602   2.992   1.591 -0.0255 -0.3023 -0.1348
    3TYR    SC1  948   2.474   2.842   1.303 -0.2323 -0.2511  0.2419
    3TYR    SC2  949   2.459   2.732   1.057 -0.3244  0.0900  0.0878
    3TYR    SC3  950   2.356   2.601   1.270  0.0386 -0.3581  0.0069
    1TYR     BB  951   1.264   2.114   6.645  0.1664 -0.0117 -0.2013
    1TYR    SC1  952   1.426   1.874   6.646 -0.2080 -0.0722  0.2645
    1TYR    SC2  953   1.480   1.655   6.498 -0.2967 -0.0642  0.2192
    1TYR    SC3  954   1.637   1.718   6.709 -0.2170 -0.1203  0.1773
    2MET     BB  955   1.190   2.329   6.467  0.2198  0.0427  0.1847
    2MET    SC1  956   1.184   2.590   6.776 -0.1073  0.2683 -0.0570
    3TYR     BB  957   1.441   2.455   6.329  0.1393  0.0347 -0.1811
    3TYR    SC1  958   1.342   2.764   6.327  0.4998  0.2245  0.2326
    3TYR    SC2  959   1.163   2.948   6.412  0.1671 -0.0213  0.0931
    3TYR    SC3  960   1.409   3.025   6.333  0.1628  0.3157  0.3776
    1TYR     BB  961   3.205   1.241   7.150 -0.1393 -0.1427  0.0244
    1TYR    SC1  962   3.261   1.325   7.410  0.1983  0.0125 -0.1341
    1TYR    SC2  963   3.296   1.524   7.588 -0.0169  0.0821 -0.1663
    1TYR    SC3  964   3.481   1.329   7.567  0.1054  0.1767 -0.0039
    2MET     BB  965   2.963   0.985   7.140 -0.0589  0.3185 -0.3225
    2MET    SC1  966   2.757   1.211   6.916  0.1175  0.1881  0.1481
    3TYR     BB  967   2.817   0.988   7.394  0.0461 -0.2525  0.0007
    3TYR    SC1  968   2.747   0.713   7.432  0.0231  0.0330  0.2731
    3TYR    SC2  969   2.861   0.475   7.490  0.2036  0.0935  0.1776
    3TYR    SC3  970   2.742   0.513   7.250  0.5746  0.2356  0.0075
    1TYR     BB  971   3.573   1.663   1.577  0.1747 -0.0977 -0.0138
    1TYR    SC1  972   3.622   1.400   1.457 -0.2529 -0.3220 -0.1551
    1TYR    SC2  973   3.690   1.191   1.614  0.2549  0.0938  0.2223
    1TYR    SC3  974   3.702   1.167   1.346 -0.0340 -0.4479  0.2409
    2MET     BB  975   3.697   1.895   1.601 -0.2483 -0.0982 -0.0234
    2MET    SC1  976   3.568   2.139   1.789  0.0774  0.2297  0.1599
    3TYR     BB  977   4.000   1.983   1.343  0.0198  0.3509 -0.1755
    3TYR    SC1  978   4.110   2.205   1.494 -0.3180  0.1463 -0.0591
    3TYR    SC2  979   4.154   2.276   1.751  0.2032  0.1589 -0.1383
    3TYR    SC3  980   4.145   2.465   1.558  0.0873  0.1266 -0.1654
    1TYR     BB  981   2.935   3.615   0.326  0.0770 -0.1707 -0.0406
    1TYR    SC1  982   2.673   3.607   0.521 -0.1591 -0.1766  0.0322
    1TYR    SC2  983   2.623   3.614   0.787 -0.1511 -0.4896  0.0468
    1TYR    SC3  984   2.468   3.755   0.616  0.0636  0.0106  0.2394
    2MET     BB  985   3.119   3.445   0.362  0.2390 -0.0528 -0.0879
    2MET    SC1  986   3.266   3.440  -0.037  0.1887  0.0527  0.0531
    3TYR     BB  987   3.229   3.205   0.412  0.0904 -0.2597 -0.0381
    3TYR    SC1  988   3.455   3.133   0.285  0.1875  0.0339  0.1881
    3TYR    SC2  989   3.564   2.947   0.123 -0.0446 -0.1788  0.2688
    3TYR    SC3  990   3.699   3.175   0.175  0.1182 -0.1909 -0.0641
    1TYR     BB  991   2.391   0.017   6.559 -0.0854 -0.0970 -0.1144
    1TYR    SC1  992   2.173  -0.209   6.536 -0.0867 -0.1446  0.3407
    1TYR    SC2  993   1.912  -0.259   6.486 -0.0375 -0.2935  0.2243
    1TYR    SC3  994   2.102  -0.431   6.401  0.1568  0.1599 -0.3486
    2MET     BB  995   2.286   0.242   6.695 -0.3905 -0.2245 -0.1863
    2MET    SC1  996   2.257   0.496   6.475 -0.2151  0.1681 -0.0474
    3TYR     BB  997   2.274   0.334   6.950 -0.1816 -0.3738 -0.2749
    3TYR    SC1  998   2.330   0.607   7.051 -0.3889  0.1819  0.0464
    3TYR    SC2  999   2.501   0.814   7.079  0.2679 -0.3288  0.1199
    3TYR    SC3 1000   2.333   0.749   7.281  0.0300  0.1237  0.0855
    4W        W 1001   6.180   5.814   2.892  0.2506  0.0825 -0.0179
    5W        W 1002   5.101   2.019   3.502  0.1164 -0.2706  0.0527
    6W        W 1003   1.745   4.867   3.774  0.0728 -0.0444  0.1974
    7W        W 1004   5.407   2.654   6.489  0.2597 -0.1510  0.0588
    8W        W 1005   4.639   4.823   3.467  0.1281  0.2259 -0.0163
    9W        W 1006   4.764   6.167   3.937  0.0485 -0.2669  0.0126
   10W        W 1007   2.930   5.203   1.332  0.0504 -0.1322  0.3089
   11W        W 1008   6.429   4.072   4.531  0.5175 -0.2490  0.1204
   12W        W 1009   5.266   4.032   5.120  0.0672 -0.1659 -0.0696
   13W        W 1010   6.207   4.206   2.541  0.0960 -0.1516  0.1397
   14W        W 1011   3.179   6.151   0.195  0.0468 -0.0741  0.0624
   15W        W 1012   6.428   4.783   0.257 -0.0716 -0.0778  0.3846
   16W        W 1013   5.068   6.877   5.045  0.3488 -0.1792  0.1121
   17W        W 1014   3.334   5.710   4.400 -0.1316  0.0398  0.1485
   18W        W 1015   1.754   7.465   1.221 -0.1269  0.2553 -0.3851
   19W        W 1016   4.381   7.510   3.761  0.0844 -0.0136 -0.1104
   20W        W 1017   7.107   3.396   6.975 -0.2099  0.1601 -0.2017
   21W        W 1018   3.660   5.540   7.569  0.1742  0.2871  0.0958
   22W        W 1019   4.612   0.187   7.071  0.1128 -0.1186  0.0318
   23W        W 1020   6.044   5.050   1.820 -0.1668 -0.3600  0.0912
   24W        W 1021   2.810   6.531   1.997  0.0995  0.3888 -0.0028
   25W        W 1022   3.270   3.400   6.255 -0.0165 -0.0483  0.1373
   26W        W 1023   0.757   3.144   0.334 -0.1149  0.1058  0.1491
   27W        W 1024   5.471   2.282   3.798 -0.1292 -0.3605  0.1198
   28W        W 1025   0.915   3.010   5.481  0.1800  0.1150 -0.1035
   29W        W 1026   6.459   0.925   7.058 -0.4339 -0.1642 -0.0273
   30W        W 1027   6.630   7.217   1.930  0.1519 -0.0689  0.0620
   31W        W 1028   4.345   6.466   5.542  0.1237  0.2021 -0.0484
   32W        W 1029   4.975   2.823   0.613 -0.0093  0.0917  0.0636
   33W        W 1030   5.432   2.424   1.495 -0.1558  0.1211 -0.3727
   34W        W 1031   4.435   6.223   3.023 -0.1427  0.1837 -0.2692
   35W        W 1032   7.293   3.551   4.671 -0.2616 -0.2605 -0.0284
   36W        W 1033   6.406   1.325   2.095 -0.1715  0.0421  0.1500
   37W        W 1034   2.041   6.157   7.070  0.1590  0.1985 -0.1074
   38W        W 1035   3.094   5.748   1.354  0.3675  0.2649  0.0944
   39W        W 1036   2.211   3.575   6.679 -0.2970  0.1616 -0.1707
   40W        W 1037   2.853   7.384   3.135  0.1970  0.2386  0.0829
   41W        W 1038   0.121   3.343   3.369 -0.2633  0.1454 -0.1143
   42W        W 1039   5.020   3.748   0.018 -0.1993  0.1612 -0.2401
   43W        W 1040   7.048   2.493   6.280  0.3441 -0.2659  0.2407
   44W        W 1041   6.690   0.359   1.473 -0.1313  0.0284  0.3087
   45W        W 1042   5.530   4.917   5.357 -0.0778 -0.2042  0.1528
   46W        W 1043   4.792   4.224   0.941  0.1158  0.0009  0.1495
   47W        W 1044   5.787   3.351   5.085 -0.1411  0.0502 -0.1681
   48W        W 1045   5.144   3.092   6.510 -0.1683  0.1625 -0.0304
   49W        W 1046   2.470   5.371   4.694  0.1543 -0.2088  0.0291
   50W        W 1047   7.388   6.817   6.490 -0.0816  0.2816 -0.1955
   51W        W 1048   4.741   4.032   3.845  0.0373  0.2119 -0.2314
   52W        W 1049   6.191   4.662   5.405 -0.0658 -0.0148  0.2040
   53W        W 1050   0.260   6.145   2.916 -0.0031 -0.0324  0.0255
   54W        W 1051   6.402   7.606   2.185 -0.0786 -0.0018 -0.2588
   55W        W 1052   1.429   0.348   3.004  0.1509 -0.2029  0.2353
   56W        W 1053   1.558   2.896   3.237 -0.0579  0.1709 -0.2465
   57W        W 1054   0.850   4.176   0.458 -0.0949 -0.2368 -0.0423
   58W        W 1055   5.926   3.301   7.337 -0.1310  0.3354 -0.1106
   59W        W 1056   6.488   6.309   4.800  0.3434  0.0741 -0.0076
   60W        W 1057   5.900   1.517   4.588  0.2394 -0.0159  0.0548
   61W        W 1058   1.214   5.704   3.627 -0.1231  0.1381  0.0069
   62W        W 1059   5.348   2.361   3.296  0.2325 -0.2742  0.3938
   63W        W 1060   2.691   5.052   7.373 -0.5336 -0.0981  0.0054
   64W        W 1061   0.626   2.716   5.707  0.0909 -0.0824 -0.1711
   65W        W 1062   6.800   1.093   4.921 -0.2562 -0.0540  0.0152
   66W        W 1063   1.838   4.104   6.582  0.0026 -0.1986  0.2952
   67W        W 1064   0.875   7.327   2.046 -0.3123 -0.1356  0.3399
   68W        W 1065   4.204   3.338   0.105  0.1880  0.0916 -0.3541
   69W        W 1066   5.311   7.396   2.646 -0.2516 -0.0769  0.0273
   70W        W 1067   3.365   4.334   7.313  0.0658  0.1423 -0.0417
   71W        W 1068   7.555   1.502   4.110 -0.0670  0.1206 -0.2210
   72W        W 1069   7.011   6.119   5.346  0.0569  0.2153 -0.0293
   73W        W 1070   1.734   2.686   4.290 -0.0803  0.4542  0.1001
   74W        W 1071   5.620   7.335   0.055 -0.1605  0.0200 -0.1738
   75W        W 1072   6.066   0.330   0.026  0.2034  0.1420 -0.1145
   76W        W 1073   4.033   0.011   0.747  0.1840 -0.4471  0.0150
   77W        W 1074   3.359   5.430   1.045 -0.0776 -0.0156  0.3031
   78W        W 1075   5.888   0.887   1.684  0.0303  0.2588  0.0048
   79W        W 1076   7.005   6.532   4.162 -0.0376  0.0144  0.1019
   80W        W 1077   0.815   1.584   4.465  0.0128  0.1836  0.0798
   81W        W 1078   1.788   2.018   4.076  0.1901 -0.3454 -0.0023
   82W        W 1079   4.050   5.524   0.262  0.0555 -0.0742 -0.1667
   83W        W 1080   0.660   5.008   5.719  0.0029  0.1390 -0.1465
   84W        W 1081   4.707   4.650   3.030  0.0020 -0.1890 -0.2575
   85W        W 1082   3.447   5.031   2.687 -0.0911 -0.1247 -0.1554
   86W        W 1083   5.729   6.664   1.906 -0.3931  0.2439 -0.0801
   87W        W 1084   7.139   3.718   4.045 -0.0209  0.0715  0.1539
   88W        W 1085   2.869   5.430   5.588 -0.5466  0.3132 -0.0715
   89W        W 1086   5.002   2.157   1.624  0.1498  0.0711 -0.1673
   90W        W 1087   4.097   6.544   2.752 -0.2909  0.1157  0.3538
   91W        W 1088   6.037   1.774   2.838 -0.0470 -0.0279  0.0155
   92W        W 1089   2.721   5.891   0.165  0.2222 -0.1566 -0.2480
   93W        W 1090   0.637   6.348   3.151 -0.2628  0.1752  0.0227
   94W        W 1091   3.205   7.051   7.607  0.1481  0.1834  0.3771
   95W        W 1092   0.792   1.066   4.310  0.1379  0.0739  0.2384
   96W        W 1093   1.173   2.952   4.229 -0.0266  0.3258  0.1516
   97W        W 1094   2.347   7.384   3.033 -0.0081 -0.0748 -0.0060
   98W        W 1095   5.769   1.984   6.054 -0.0981  0.1605 -0.1857
   99W        W 1096   3.726   6.460   0.975  0.0506 -0.2254  0.0250
  100W        W 1097   3.216   6.930   3.451  0.0973 -0.0206 -0.4508
  101W        W 1098   2.921   6.114   2.265 -0.0677 -0.1520 -0.1592
  102W        W 1099   1.846   6.116   5.590  0.1831  0.0225  0.0368
  103W        W 1100   1.702   7.504   3.239  0.3477 -0.5930  0.2421
  104W        W 1101   2.188   6.505   2.669 -0.2429  0.1053 -0.2305
  105W        W 1102   3.864   5.674   0.977  0.1181 -0.0294 -0.1367
  106W        W 1103   3.555   3.858   2.353 -0.0088 -0.0134 -0.1306
  107W        W 1104   6.186   2.891   1.857  0.2193  0.0609 -0.0248
  108W        W 1105   7.342   1.588   5.568  0.1803  0.0692  0.1320
  109W        W 1106   6.619   1.541   4.069  0.0889 -0.2333 -0.0441
  110W        W 1107   1.296   6.797   0.554 -0.0299  0.0336 -0.2626
  111W        W 1108   0.849   2.985   4.591 -0.0700  0.0984 -0.0785
  112W        W 1109   1.577   1.535   1.884 -0.2898  0.0450  0.1942
  113W        W 1110   2.842   5.429   0.398 -0.0652  0.1714 -0.0113
  114W        W 1111   7.061   2.527   3.457 -0.0386 -0.1903 -0.0919
  115W        W 1112   3.605   5.141   0.183 -0.2302 -0.1537  0.1077
  116W        W 1113   2.149   0.423   2.485 -0.0507  0.1600 -0.0939
  117W        W 1114   6.464   7.557   1.573  0.1474  0.1601 -0.0310
  118W        W 1115   2.299   6.889   3.834 -0.2005 -0.0562  0.0084
  119W        W 1116   7.238   2.885   7.156  0.1721 -0.0708  0.2298
  120W        W 1117   5.433   5.021   4.836 -0.1786 -0.0401 -0.4653
  121W        W 1118   4.970   0.248   1.567  0.0057 -0.1539 -0.2303
  122W        W 1119   1.633   3.209   4.561  0.0681 -0.0600 -0.0713
  123W        W 1120   7.583   1.825   1.130 -0.0387 -0.1546  0.4982
  124W        W 1121   0.095   3.745   2.215  0.2277  0.0497 -0.0710
  125W        W 1122   6.077   4.607   2.049 -0.0600  0.0449  0.1137
  126W        W 1123   2.745   6.025   0.620  0.2276  0.4607 -0.1881
  127W        W 1124   5.609   3.861   0.648 -0.0971 -0.0470  0.0611
  128W        W 1125   6.376   0.608   6.600 -0.0584 -0.0469  0.1555
  129W        W 1126   5.486   1.792   4.390 -0.0537  0.0197 -0.4132
  130W        W 1127   0.934   3.638   1.172  0.2003 -0.1417  0.0350
  131W        W 1128   4.395   5.952   4.860 -0.3472 -0.0329  0.2700
  132W        W 1129   5.143   4.781   5.828  0.0942 -0.3139 -0.2831
  133W        W 1130   3.571   4.116   1.701 -0.2158 -0.1817  0.2916
  134W        W 1131   5.138   2.660   4.569  0.0170  0.0511 -0.0846
  135W        W 1132   1.664   0.656   1.779  0.1647  0.4220  0.1371
  136W        W 1133   5.009   1.125   4.872 -0.0065  0.1734  0.0324
  137W        W 1134   7.404   3.338   0.293 -0.1126  0.0380 -0.1222
  138W        W 1135   6.405   4.873   4.058 -0.0803  0.2973  0.2830
  139W        W 1136   2.185   0.150   4.829  0.4806 -0.0802 -0.2010
  140W        W 1137   1.456   2.228   4.432  0.1221 -0.2656 -0.2139
  141W        W 1138   6.164   5.244   7.577 -0.0922  0.2518 -0.0080
  142W        W 1139   1.333   3.939   5.082  0.1731  0.0000  0.0706
  143W        W 1140   4.726   6.139   3.432 -0.0188 -0.1067  0.1758
  144W        W 1141   5.045   3.638   4.275 -0.2407  0.0432 -0.2146
  145W        W 1142   3.178   6.385   0.709  0.0328  0.0720  0.1609
  146W        W 1143   2.530   0.815   2.298 -0.3908  0.0471  0.0739
  147W        W 1144   5.978   6.288   2.673  0.0522  0.3108  0.0300
  148W        W 1145   0.447   6.835   3.339  0.0884 -0.2344 -0.3253
  149W        W 1146   2.479   3.865   1.999 -0.0769 -0.0308  0.0464
  150W        W 1147   6.020   1.946   6.677  0.2161 -0.1166  0.0549
  151W        W 1148   3.308   6.118   6.819  0.0177  0.1481 -0.0418
  152W        W 1149   2.422   4.188   3.361 -0.2426  0.2623  0.0429
  153W        W 1150   3.822   6.253   2.257 -0.0796 -0.0344  0.2069
  154W        W 1151   5.027   0.827   1.182 -0.1202  0.0382 -0.0633
  155W        W 1152   3.328   0.963   2.618  0.0828 -0.0789 -0.2700
  156W        W 1153   0.775   1.409   3.921  0.0408 -0.1069 -0.1392
  157W        W 1154   0.435   6.914   0.821  0.3566 -0.3388 -0.1657
  158W        W 1155   3.404   3.611   3.584 -0.2034 -0.0336  0.0243
  159W        W 1156   7.478   2.519   1.896  0.2752 -0.0954 -0.2020
  160W        W 1157   4.907   5.262   4.889 -0.0263  0.2861  0.2614
  161W        W 1158   5.979   3.268   2.715 -0.0860  0.2869  0.1531
  162W        W 1159   1.538   2.354   2.547 -0.1029  0.1513 -0.2259
  163W        W 1160   4.974   5.839   1.761 -0.1771  0.1690 -0.0800
  164W        W 1161   4.687   3.740   5.659 -0.0794 -0.0089 -0.0875
  165W        W 1162   4.590   4.552   2.176  0.1612  0.2368 -0.3243
  166W        W 1163   4.323   4.166   2.310  0.0894  0.1188 -0.2826
  167W        W 1164   0.439   0.300   2.602  0.1604 -0.2251 -0.2027
  168W        W 1165   6.798   0.803   1.251 -0.0294 -0.3807 -0.4182
  169W        W 1166   1.244   6.062   2.858 -0.1026  0.3850  0.1204
  170W        W 1167   2.481   7.280   4.796 -0.1297 -0.1045  0.0325
  171W        W 1168   5.098   2.587   1.842  0.1340  0.0771  0.1266
  172W        W 1169   0.334   5.136   7.507 -0.1459  0.2553  0.0078
  173W        W 1170   6.992   2.618   2.674 -0.1153 -0.1446  0.0462
  174W        W 1171   5.906   5.803   1.439  0.0005 -0.0728 -0.2617
  175W        W 1172   2.362   1.977   3.037  0.0348  0.0701  0.1488
  176W        W 1173   1.071   2.771   0.249  0.0305  0.0258 -0.1341
  177W        W 1174   6.118   4.045   6.537  0.0491 -0.0602  0.1529
  178W        W 1175   4.779   1.053   2.695 -0.0605  0.0255 -0.0063
  179W        W 1176   2.820   7.526   1.868 -0.0477 -0.0122 -0.3447
  180W        W 1177   6.061   7.064   2.000 -0.0743  0.1447 -0.4357
  181W        W 1178   0.688   2.967   2.157 -0.2234 -0.1048  0.1710
  182W        W 1179   0.091   0.992   1.569 -0.1091 -0.2549  0.0057
  183W        W 1180   3.104   3.128   3.470  0.0044 -0.0501 -0.3399
  184W        W 1181   1.186   3.428   4.419 -0.0175 -0.5459 -0.2775
  185W        W 1182   6.956   2.089   7.609  0.1246  0.1182  0.1481
  186W        W 1183   1.306   6.036   1.824 -0.0273  0.0742 -0.4904
  187W        W 1184   5.698   4.482   4.215 -0.2509 -0.1153  0.4174
  188W        W 1185   1.161   0.815   2.056 -0.0006 -0.1525 -0.1477
  189W        W 1186   7.015   6.650   6.064 -0.0604 -0.2442 -0.0941
  190W        W 1187   0.806   2.314   3.875 -0.2118  0.2368 -0.2581
  191W        W 1188   4.330   5.516   5.946  0.2496 -0.1036  0.3428
  192W        W 1189   5.573   2.441   6.056 -0.2181  0.3764  0.1123
  193W        W 1190   5.849   1.418   6.826  0.1641  0.2212  0.1715
  194W        W 1191   3.320   6.366   7.271  0.0242 -0.0462  0.1574
  195W        W 1192   3.402   7.458   1.475 -0.1757  0.1048 -0.0389
  196W        W 1193   5.190   6.622   2.738 -0.3232  0.1283 -0.1664
  197W        W 1194   7.132   5.053   1.719  0.1178 -0.0781 -0.0478
  198W        W 1195   3.106   1.873   4.128 -0.0783 -0.0678  0.0969
  199W        W 1196   1.496   5.679   2.569  0.1113 -0.5709  0.1602
  200W        W 1197   4.216   5.797   6.330 -0.1820 -0.1088 -0.1070
  201W        W 1198   1.696   4.095   2.605  0.0869  0.0231 -0.0142
  202W        W 1199   3.908   5.490   4.507  0.2936  0.3632 -0.2832
  203W        W 1200   1.881   7.281   2.833  0.1515  0.0389  0.1542
  204W        W 1201   2.286   4.516   0.173 -0.1079  0.1077 -0.0953
  205W        W 1202   7.537   2.267   2.454  0.1676 -0.0846  0.0016
  206W        W 1203   5.108   3.105   4.998 -0.3701 -0.0471 -0.0793
  207W        W 1204   4.949   6.912   4.124 -0.0677 -0.2674 -0.2687
  208W        W 1205   1.186   4.006   0.883 -0.4437  0.3137 -0.3265
  209W        W 1206   7.016   0.676   3.908  0.1090 -0.0457 -0.0331
  210W        W 1207   3.042   2.033   2.298  0.0688  0.5392 -0.1169
  211W        W 1208   5.771   4.253   7.560  0.3511  0.0035  0.0231
  212W        W 1209   7.400   6.336   2.867 -0.0318 -0.0780 -0.0153
  213W        W 1210   1.165   4.959   2.837  0.2112  0.1357 -0.1866
  214W        W 1211   4.889   7.387   3.939  0.0622 -0.3589  0.0183
  215W        W 1212   6.948   3.531   0.429 -0.2293 -0.0412 -0.1836
  216W        W 1213   1.145   0.581   1.598 -0.1418 -0.0214 -0.0188
  217W        W 1214   4.129   0.867   4.253  0.0692 -0.0811 -0.2134
  218W        W 1215   7.218   1.343   4.405  0.0359  0.0845 -0.1520
  219W        W 1216   6.211   2.221   5.822 -0.1455 -0.2190 -0.0568
  220W        W 1217   6.309   1.917   7.066 -0.0509 -0.0146 -0.0546
  221W        W 1218   0.910   7.184   4.976  0.0567  0.1691 -0.1751
  222W        W 1219   6.288   2.644   4.144  0.1376 -0.0550 -0.1257
  223W        W 1220   6.885   1.433   5.397  0.0332 -0.2436  0.0573
  224W        W 1221   2.869   5.614   4.433  0.1977 -0.0213 -0.2528
  225W        W 1222   5.430   4.943   4.281  0.1026 -0.2637 -0.1234
  226W        W 1223   4.937   1.009   2.079 -0.3703  0.1460 -0.1165
  227W        W 1224   2.645   0.030   4.993  0.3486 -0.1379 -0.0224
  228W        W 1225   7.551   0.454   0.777  0.1637 -0.0375 -0.1804
  229W        W 1226   7.595   0.640   5.072  0.2986  0.1312 -0.1114
  230W        W 1227   3.079   6.178   2.807 -0.1154  0.0694  0.2278
  231W        W 1228   6.663   6.402   6.298  0.0002 -0.3157  0.1117
  232W        W 1229   5.006   2.641   5.590  0.0253 -0.0831  0.3999
  233W        W 1230   6.315   1.407   2.623 -0.1585 -0.0386  0.2588
  234W        W 1231   1.595   0.572   2.261  0.3684  0.0805  0.2963
  235W        W 1232   7.319   4.493   5.839 -0.2310  0.0732  0.0259
  236W        W 1233   3.278   3.671   5.796  0.0730  0.0325 -0.0473
  237W        W 1234   4.995   2.003   1.145  0.1818 -0.4354 -0.0254
  238W        W 1235   6.580   4.095   6.326  0.1698  0.0067 -0.5764
  239W        W 1236   1.076   3.862   5.928  0.0336  0.0250  0.0066
  240W        W 1237   5.994   0.014   4.540 -0.3626 -0.6074  0.0100
  241W        W 1238   7.370   4.681   3.630 -0.1473  0.4397 -0.0802
  242W        W 1239   0.493   1.227   4.729 -0.0823  0.0009 -0.0678
  243W        W 1240   7.237   1.083   0.056  0.0385 -0.2522  0.1629
  244W        W 1241   0.369   5.118   1.205  0.2377 -0.0076  0.4050
  245W        W 1242   3.727   5.558   6.199 -0.3431 -0.1216  0.0971
  246W        W 1243   2.800   6.013   3.631 -0.1671  0.0346 -0.1470
  247W        W 1244   6.782   3.521   3.679 -0.1060  0.0733 -0.0686
  248W        W 1245   2.545   6.424   3.147 -0.2853 -0.0720 -0.0088
  249W        W 1246   5.399   3.958   2.803 -0.1121 -0.3090 -0.1419
  250W        W 1247   7.336   5.924   1.947  0.3284  0.0530 -0.2023
  251W        W 1248   5.505   2.902   3.765  0.1657  0.0001  0.2170
  252W        W 1249   2.612   2.385   3.188 -0.0747  0.0152 -0.0382
  253W        W 1250   4.180   4.433   3.045  0.1089 -0.2014 -0.0623
  254W        W 1251   1.020   0.125   1.828  0.1632 -0.2965 -0.1127
  255W        W 1252   2.795   6.224   4.685  0.3629  0.1619 -0.2428
  256W        W 1253   0.442   3.790   4.813  0.3027  0.0321  0.2078
  257W        W 1254   7.411   6.916   4.064  0.0919  0.0447 -0.0136
  258W        W 1255   3.905   5.307   5.766  0.0642 -0.0357  0.2023
  259W        W 1256   0.486   2.938   2.607 -0.2336  0.0084 -0.0479
  260W        W 1257   1.916   4.060   5.703 -0.1140 -0.1569 -0.1954
  261W        W 1258   7.493   1.246   3.045 -0.0651  0.2013 -0.2387
  262W        W 1259   6.675   2.034   4.376  0.0018  0.1096  0.2175
  263W        W 1260   1.917   5.967   4.823 -0.0326 -0.1916  0.1385
  264W        W 1261   6.007   1.024   7.189 -0.1393 -0.0511  0.0862
  265W        W 1262   3.607   5.304   3.234  0.1917 -0.0428 -0.0927
  266W        W 1263   3.710   1.765   2.900 -0.0122  0.2222  0.0521
  267W        W 1264   4.692   3.734   1.696 -0.0955  0.0564 -0.1510
  268W        W 1265   0.147   0.184   0.430  0.3788 -0.2308 -0.0404
  269W        W 1266   6.430   7.273   3.880  0.2205  0.0081 -0.1688
  270W        W 1267   1.099   6.421   7.430  0.0561 -0.0482  0.1691
  271W        W 1268   5.810   0.294   0.837 -0.2860  0.3574 -0.1586
  272W        W 1269   2.886   6.811   5.421 -0.1869 -0.3321  0.0498
  273W        W 1270   5.558   3.526   2.532  0.1484 -0.0653  0.3228
  274W        W 1271   2.686   3.190   5.651 -0.2008 -0.2584 -0.2824
  275W        W 1272   7.149   7.604   1.416 -0.0067  0.0099  0.0894
  276W        W 1273   5.713   1.909   3.252 -0.1269  0.0156 -0.0506
  277W        W 1274   5.503   5.735   1.802 -0.0261  0.1943  0.3851
  278W        W 1275   1.037   5.067   3.327 -0.1262  0.2222 -0.0771
  279W        W 1276   0.592   6.008   0.770 -0.0430 -0.0546 -0.0956
  280W        W 1277   6.500   5.491   3.148 -0.0446  0.0981 -0.1838
  281W        W 1278   0.311   1.135   4.214 -0.0121 -0.0892 -0.0402
  282W        W 1279   2.401   5.484   0.154  0.0762 -0.2499  0.2827
  283W        W 1280   3.957   3.264   5.639  0.1331  0.0047 -0.1274
  284W        W 1281   6.810   2.030   6.202  0.1863 -0.2549 -0.2549
  285W        W 1282   4.865   4.794   2.578  0.0557  0.2201 -0.0864
  286W        W 1283   4.630   1.384   1.816 -0.1806 -0.0375  0.2821
  287W        W 1284   1.136   2.462   1.932 -0.3346 -0.0022 -0.0916
  288W        W 1285   4.933   3.020   2.130 -0.0822  0.1178 -0.0918
  289W        W 1286   4.970   1.075   5.497  0.1532  0.0282 -0.1014
  290W        W 1287   1.896   7.297   2.294 -0.1672  0.1694  0.0039
  291W        W 1288   7.268   7.293   3.444 -0.3763  0.1161 -0.2927
  292W        W 1289   0.177   4.815   4.519 -0.1463  0.0903  0.1382
  293W        W 1290   3.190   6.674   1.722  0.2041  0.0332  0.4871
  294W        W 1291   6.497   4.304   4.024  0.2858 -0.0552  0.3158
  295W        W 1292   3.537   0.038   3.211  0.1073 -0.3637 -0.0726
  296W        W 1293   5.933   5.398   1.012  0.1695  0.0494 -0.1117
  297W        W 1294   6.538   3.500   6.748  0.1121  0.2157 -0.1804
  298W        W 1295   3.805   6.108   3.771 -0.0123 -0.0552 -0.1826
  299W        W 1296   4.475   0.228   3.075 -0.0518 -0.0190 -0.1567
  300W        W 1297   5.460   1.002   1.981 -0.1757  0.0439  0.1106
  301W        W 1298   3.563   1.859   2.364  0.1562 -0.2007  0.1822
  302W        W 1299   3.181   4.254   4.275  0.0352  0.1581  0.1665
  303W        W 1300   6.082   6.178   4.591  0.4853  0.2150  0.4865
  304W        W 1301   2.910   1.520   4.678 -0.3676 -0.0999 -0.1904
  305W        W 1302   0.715   1.035   1.889  0.1512  0.2795  0.0775
  306W        W 1303   5.884   2.109   2.116 -0.0138  0.1276  0.1919
  307W        W 1304   3.495   4.628   0.034  0.0111 -0.1949  0.2885
  308W        W 1305   3.947   4.148   1.371 -0.0268  0.1923 -0.0205
  309W        W 1306   2.012   4.917   1.240 -0.1400  0.1396  0.3479
  310W        W 1307   5.485   0.970   5.186  0.0718 -0.2316  0.1707
  311W        W 1308   0.251   7.475   4.591 -0.1981  0.1346  0.1788
  312W        W 1309   2.191   7.134   1.464  0.1732 -0.0044 -0.1978
  313W        W 1310   4.695   4.253   2.638  0.1847  0.3386 -0.1294
  314W        W 1311   7.489   3.036   3.604 -0.2182 -0.0175  0.0069
  315W        W 1312   0.017   1.269   4.604 -0.1110 -0.1264 -0.0018
  316W        W 1313   0.817   5.267   2.914 -0.0435  0.2946  0.1271
  317W        W 1314   1.932   6.387   3.826 -0.0947  0.0167  0.0319
  318W        W 1315   0.894   4.056   5.333 -0.2730  0.4560  0.1537
  319W        W 1316   5.496   4.655   7.511 -0.0582 -0.0028 -0.1805
  320W        W 1317   4.234   6.973   4.662  0.1086  0.0924  0.0991
  321W        W 1318   6.330   3.170   2.219  0.0964 -0.1519 -0.0772
  322W        W 1319   1.716   4.036   1.808  0.2667  0.0027 -0.0152
  323W        W 1320   2.774   4.032   4.107 -0.0177  0.1039  0.1623
  324W        W 1321   3.219   3.753   4.264  0.0367 -0.1218  0.0149
  325W        W 1322   6.541   0.882   0.725  0.3825  0.0557  0.1758
  326W        W 1323   4.695   3.903   6.560  0.0193 -0.1858 -0.2524
  327W        W 1324   2.265   6.880   3.121 -0.0651  0.0935 -0.0401
  328W        W 1325   7.220   1.726   3.740 -0.1037  0.2322 -0.1734
  329W        W 1326   5.887   2.053   5.435 -0.0992 -0.3185 -0.0206
  330W        W 1327   1.674   0.498   3.419 -0.0716 -0.1074  0.5389
  331W        W 1328   1.576   5.448   3.799 -0.3634  0.1763  0.2188
  332W        W 1329   0.442   2.340   3.579  0.1744 -0.1013 -0.0655
  333W        W 1330   5.710   2.504   5.030 -0.0585 -0.3453 -0.0835
  334W        W 1331   6.859   4.825   6.742 -0.1841 -0.0219  0.1152
  335W        W 1332   5.309   5.497   4.441  0.0172  0.2769  0.1161
  336W        W 1333   5.784   6.564   5.627  0.2070 -0.0121 -0.3748
  337W        W 1334   4.641   4.722   5.594  0.0303  0.1634  0.2531
  338W        W 1335   0.852   2.828   3.834  0.0447  0.0693  0.4723
  339W        W 1336   0.955   2.952   6.979 -0.0320 -0.1540 -0.0678
  340W        W 1337   1.459   5.962   0.108  0.0015 -0.0932 -0.0549
  341W        W 1338   3.720   0.440   1.646  0.1080 -0.0626 -0.1943
  342W        W 1339   3.952   1.757   2.040  0.2316  0.1557 -0.1692
  343W        W 1340   2.046   5.346   3.885  0.4040  0.0139 -0.4766
  344W        W 1341   3.869   4.037   7.301  0.1063  0.1791 -0.0671
  345W        W 1342   1.165   0.540   3.415 -0.4894 -0.0509  0.0999
  346W        W 1343   4.637   2.921   6.872 -0.0750 -0.2047  0.0206
  347W        W 1344   6.866   6.940   3.337 -0.0591  0.0091 -0.1168
  348W        W 1345   0.733   1.294   2.831 -0.1398 -0.2030  0.2218
  349W        W 1346   1.591   2.932   0.102 -0.0286  0.1209 -0.1577
  350W        W 1347   3.137   4.813   2.252 -0.1260  0.1433 -0.1158
  351W        W 1348   6.366   0.380   7.070  0.2113  0.0953  0.2909
  352W        W 1349   2.838   4.083   6.633 -0.0438  0.0555  0.4750
  353W        W 1350   6.262   0.288   1.834 -0.4709  0.0694 -0.0232
  354W        W 1351   6.332   3.267   5.127  0.0529 -0.0724  0.3849
  355W        W 1352   0.253   1.974   4.771  0.0201 -0.1559  0.1335
  356W        W 1353   3.704   3.332   4.537 -0.0722  0.0967  0.0459
  357W        W 1354   4.596   5.567   5.191 -0.1014  0.0740  0.1056
  358W        W 1355   0.760   5.044   4.713  0.0475 -0.0478  0.3138
  359W        W 1356   0.275   5.640   1.960  0.0595 -0.4773 -0.1381
  360W        W 1357   0.876   4.999   4.170  0.3264 -0.0832 -0.0043
  361W        W 1358   0.280   3.806   1.607  0.1908 -0.1703 -0.0031
  362W        W 1359   4.975   4.019   6.066  0.2577 -0.0320 -0.1006
  363W        W 1360   1.203   4.999   1.874  0.0205 -0.0961 -0.0278
  364W        W 1361   3.886   7.194   5.984  0.0812  0.0620 -0.0701
  365W        W 1362   6.266   7.265   1.120  0.0786  0.0465 -0.1477
  366W        W 1363   0.730   6.116   2.664 -0.2219 -0.0106 -0.4555
  367W        W 1364   0.476   3.230   1.675 -0.0620 -0.1756 -0.3244
  368W        W 1365   6.139   3.231   1.313 -0.0925 -0.0623  0.0031
  369W        W 1366   0.898   3.989   4.400  0.1961  0.3489 -0.0161
  370W        W 1367   0.293   4.318   0.618  0.0474 -0.0968 -0.2715
  371W        W 1368   3.500   6.489   3.670  0.3158  0.0552 -0.0724
  372W        W 1369   5.809   1.816   0.224  0.0514 -0.0682  0.3262
  373W        W 1370   5.503   5.609   1.168  0.0123  0.0702 -0.0425
  374W        W 1371   4.315   6.225   3.834 -0.0393 -0.0284  0.0917
  375W        W 1372   2.578   2.437   2.343  0.0714  0.0836  0.0089
  376W        W 1373   0.859   4.121   1.295 -0.0270  0.4602 -0.3627
  377W        W 1374   6.333   3.556   4.479 -0.0898 -0.0238  0.1270
  378W        W 1375   5.613   2.490   6.982  0.4159 -0.1167  0.1138
  379W        W 1376   1.558   1.661   4.430 -0.0803  0.0201 -0.0018
  380W        W 1377   3.898   1.736   4.699 -0.2705  0.4121 -0.0129
  381W        W 1378   6.256   6.541   6.062 -0.1874 -0.5954 -0.1507
  382W        W 1379   4.181   7.604   3.356  0.1666  0.0058 -0.1149
  383W        W 1380   6.883   5.904   1.687  0.0718 -0.0587 -0.0099
  384W        W 1381   2.647   3.543   6.107  0.1717 -0.0940  0.1099
  385W        W 1382   5.174   7.467   7.346  0.4994  0.0707 -0.0050
  386W        W 1383   2.989   4.512   0.231  0.0373  0.0555 -0.2859
  387W        W 1384   4.771   4.464   6.548  0.0671  0.0797  0.0915
  388W        W 1385   4.842   7.352   7.020  0.2480 -0.1297  0.1930
  389W        W 1386   6.790   2.839   4.218  0.0826 -0.0560 -0.0024
  390W        W 1387   4.673   5.403   0.619  0.1438 -0.1930  0.1498
  391W        W 1388   4.665   7.610   5.991 -0.2801 -0.2681  0.0640
  392W        W 1389   5.522   7.576   3.583 -0.1634 -0.3909  0.0982
  393W        W 1390   6.811   0.385   6.219 -0.2260  0.0959  0.1248
  394W        W 1391   6.983   0.082   4.676 -0.0343  0.1153 -0.2735
  395W        W 1392   5.489   3.496   4.748 -0.0845 -0.0722  0.3421
  396W        W 1393   1.789   4.467   1.437 -0.3471  0.1938 -0.0876
  397W        W 1394   4.098   5.588   1.523  0.2543  0.0087  0.0769
  398W        W 1395   0.539   0.357   0.907 -0.2034  0.0074 -0.0361
  399W        W 1396   6.110   0.145   3.143  0.0875 -0.3248 -0.0934
  400W        W 1397   0.165   5.523   3.676 -0.0800  0.0066 -0.0344
  401W        W 1398   6.198   6.247   4.031  0.2084 -0.0777  0.2192
  402W        W 1399   3.557   5.321   4.093 -0.0938  0.1830 -0.2533
  403W        W 1400   0.559   2.047   3.006  0.0079  0.1675  0.1327
  404W        W 1401   6.145   0.439   5.133  0.0657  0.0902  0.0152
  405W        W 1402   1.789   3.977   1.187 -0.1674 -0.2173 -0.1229
  406W        W 1403   2.115   4.503   4.630 -0.0705 -0.3298 -0.0469
  407W        W 1404   0.828   5.574   1.972 -0.2476 -0.0609  0.1759
  408W        W 1405   3.972   2.626   1.995  0.0760 -0.1588  0.0029
  409W        W 1406   1.390   3.487   3.272 -0.1940  0.1796 -0.1264
  410W        W 1407   0.724   4.100   3.495 -0.0027 -0.0062 -0.3831
  411W        W 1408   7.273   4.015   6.021 -0.1619 -0.2232  0.3727
  412W        W 1409   5.125   3.772   2.425  0.1980 -0.0745 -0.1877
  413W        W 1410   1.507   5.499   6.953  0.2687  0.4662 -0.0456
  414W        W 1411   4.825   5.902   0.659  0.0415 -0.2340 -0.0788
  415W        W 1412   0.075   1.576   5.016  0.2300  0.0037  0.0144
  416W        W 1413   4.932   0.592   0.765 -0.2651 -0.1974  0.1731
  417W        W 1414   3.327   4.507   2.733 -0.2275 -0.1176 -0.1239
  418W        W 1415   3.599   0.242   4.724 -0.0642 -0.1573  0.0243
  419W        W 1416   1.651   4.775   5.141 -0.3280 -0.1147 -0.0489
  420W        W 1417   7.457   7.062   2.218  0.2173 -0.1656 -0.1702
  421W        W 1418   0.709   6.848   4.227 -0.0236  0.2259 -0.2857
  422W        W 1419   1.921   6.720   1.583  0.0290 -0.0661 -0.1039
  423W        W 1420   1.525   0.212   1.695  0.0546  0.0125 -0.2532
  424W        W 1421   3.247   5.925   3.202  0.1479  0.2005  0.3384
  425W        W 1422   5.488   6.989   2.435  0.1780  0.2220  0.1196
  426W        W 1423   4.233   7.591   6.283  0.0008 -0.0085  0.0972
  427W        W 1424   2.670   7.011   1.706  0.1686  0.1121  0.1785
  428W        W 1425   1.334   3.402   3.802 -0.0812  0.0886  0.0652
  429W        W 1426   6.373   6.691   7.457  0.0971 -0.0015  0.1806
  430W        W 1427   5.918   4.777   2.673 -0.0330  0.0764 -0.0240
  431W        W 1428   4.602   6.525   5.060 -0.0803  0.4372  0.0544
  432W        W 1429   2.781   6.403   0.082  0.3386 -0.0543  0.1944
  433W        W 1430   3.582   4.908   5.459  0.0198  0.0730 -0.3276
  434W        W 1431   5.352   1.312   6.706 -0.0119  0.1092 -0.1572
  435W        W 1432   5.945   0.953   4.938  0.2331 -0.0446 -0.2236
  436W        W 1433   3.521   4.226   6.872 -0.0851 -0.0324 -0.0701
  437W        W 1434   5.766   3.566   2.115  0.0976 -0.1269  0.1794
  438W        W 1435   0.489   3.379   1.022 -0.4371  0.1605 -0.2189
  439W        W 1436   0.778   6.085   4.893  0.0608 -0.2035  0.2010
  440W        W 1437   6.205   6.196   5.650 -0.2510 -0.0350 -0.0113
  441W        W 1438   1.864   6.276   7.539  0.3181 -0.2782  0.2829
  442W        W 1439   4.395   3.110   2.870  0.1784  0.0278 -0.2243
  443W        W 1440   7.441   0.676   1.911 -0.2541  0.1692 -0.3152
  444W        W 1441   4.116   6.119   5.276 -0.0317 -0.3033  0.2096
  445W        W 1442   0.149   0.413   4.336  0.0024 -0.3798  0.1070
  446W        W 1443   0.307   6.065   5.028 -0.2153  0.0150  0.0569
  447W        W 1444   5.325   5.981   0.859  0.0115 -0.0979  0.2541
  448W        W 1445   2.983   4.986   1.785  0.0118  0.0252 -0.3639
  449W        W 1446   4.393   3.155   0.580 -0.3424  0.3315 -0.0731
  450W        W 1447   0.791   3.305   4.076  0.0183 -0.0000  0.2066
  451W        W 1448   5.098   4.586   0.172  0.0528 -0.0762 -0.1191
  452W        W 1449   3.773   3.923   6.448 -0.1767  0.1647 -0.0166
  453W        W 1450   7.449   0.182   0.035 -0.1664 -0.2755 -0.3916
  454W        W 1451   7.619   1.983   4.087 -0.0063 -0.2558  0.0485
  455W        W 1452   3.927   6.953   2.494  0.3415 -0.1004 -0.0255
  456W        W 1453   5.670   2.991   7.037 -0.2185  0.3448  0.2299
  457W        W 1454   6.604   1.508   1.285 -0.4690 -0.0327 -0.0504
  458W        W 1455   3.489   5.665   2.875  0.1223  0.1182 -0.0094
  459W        W 1456   1.823   6.441   1.184  0.1734 -0.0367 -0.1248
  460W        W 1457   1.354   3.925   4.591  0.0083  0.0821  0.0381
  461W        W 1458   6.609   3.166   3.342  0.1241 -0.2940 -0.0384
  462W        W 1459   5.536   6.583   5.039 -0.0305 -0.0758  0.1677
  463W        W 1460   1.311   0.080   3.671  0.2446  0.0316  0.0909
  464W        W 1461   4.733   4.125   0.320  0.0634 -0.1919 -0.0322
  465W        W 1462   7.165   4.700   1.018  0.1393 -0.0151 -0.1329
  466W        W 1463   4.060   7.515   4.868 -0.1655  0.3360  0.1660
  467W        W 1464   6.766   5.435   7.424 -0.0682 -0.2448 -0.1414
  468W        W 1465   3.339   5.106   3.744  0.1292  0.3978 -0.0036
  469W        W 1466   5.403   0.450   4.187  0.4034  0.3331 -0.0169
  470W        W 1467   7.417   0.892   4.250  0.1229  0.1101  0.2005
  471W        W 1468   0.126   4.248   5.832 -0.0029 -0.0280 -0.0449
  472W        W 1469   6.824   7.525   4.247 -0.0003  0.1000 -0.2949
  473W        W 1470   2.268   7.104   1.996 -0.0093 -0.0422  0.3460
  474W        W 1471   2.356   6.973   5.601  0.1807  0.1222  0.0190
  475W        W 1472   3.354   7.600   3.962 -0.3631  0.3014 -0.1580
  476W        W 1473   4.498   0.654   3.887 -0.1810  0.0996 -0.0477
  477W        W 1474   1.243   4.856   5.964  0.2289  0.0493  0.2433
  478W        W 1475   7.595   0.769   3.373 -0.1952 -0.1659  0.1394
  479W        W 1476   3.898   4.800   2.867  0.0242 -0.0704  0.0905
  480W        W 1477   5.124   4.585   1.047  0.0150  0.2618  0.2277
  481W        W 1478   3.457   6.619   0.041 -0.0859  0.1075 -0.2050
  482W        W 1479   1.611   6.079   6.728 -0.0588  0.1228  0.0083
  483W        W 1480   4.792   6.264   5.707  0.0417  0.0477 -0.1824
  484W        W 1481   4.906   5.252   3.542 -0.0927 -0.1099 -0.0814
  485W        W 1482   3.255   1.931   2.736 -0.0870  0.0906  0.0837
  486W        W 1483   0.767   5.134   0.798  0.2500  0.1382 -0.1261
  487W        W 1484   2.360   4.381   5.715 -0.0879 -0.0001  0.0058
  488W        W 1485   0.992   2.512   5.484 -0.0895  0.1165  0.1408
  489W        W 1486   3.755   3.315   6.428 -0.0590 -0.0552  0.0195
  490W        W 1487   2.520   5.298   4.188  0.2599  0.1164 -0.1028
  491W        W 1488   7.076   3.847   2.192  0.1684 -0.2056  0.3993
  492W        W 1489   4.091   2.129   3.134 -0.0148 -0.3315 -0.1633
  493W        W 1490   5.428   1.188   3.704 -0.0166  0.2461  0.0485
  494W        W 1491   6.468   6.140   2.551  0.0719 -0.0992  0.0507
  495W        W 1492   0.616   6.064   1.307 -0.3132  0.0627 -0.0916
  496W        W 1493   2.303   5.346   2.132  0.3654 -0.3651 -0.0534
  497W        W 1494   4.358   2.273   4.162 -0.2312  0.2597 -0.0266
  498W        W 1495   1.799   1.389   4.058 -0.0762 -0.0243  0.1864
  499W        W 1496   3.600   0.037   2.418 -0.0477 -0.3112  0.1493
  500W        W 1497   5.355   1.470   3.302 -0.0860 -0.0809  0.0786
  501W        W 1498   6.268   5.262   4.823  0.0892  0.5221  0.1928
  502W        W 1499   7.283   3.540   3.542  0.0024  0.0666 -0.3723
  503W        W 1500   7.568   1.077   3.817  0.1756 -0.0173 -0.2676
  504W        W 1501   3.119   2.493   4.592  0.3452  0.2459 -0.3394
  505W        W 1502   1.887   1.794   2.574  0.3993 -0.1124  0.0466
  506W        W 1503   4.311   4.099   5.543 -0.2216 -0.1687  0.0638
  507W        W 1504   0.556   1.146   1.402 -0.1164  0.0217 -0.2856
  508W        W 1505   0.444   6.330   4.038  0.3335  0.1578  0.1360
  509W        W 1506   4.142   4.562   4.391  0.1026 -0.4468  0.0008
  510W        W 1507   6.353   3.888   7.034 -0.0081  0.1816 -0.0234
  511W        W 1508   7.381   5.137   5.812  0.1915 -0.1995 -0.2195
  512W        W 1509   0.375   2.100   1.134 -0.0195  0.1787  0.1083
  513W        W 1510   1.204   7.021   4.305  0.0338 -0.0976 -0.0116
  514W        W 1511   6.819   7.584   5.920 -0.3576 -0.3780 -0.1585
  515W        W 1512   0.061   6.420   0.117  0.2432  0.3624  0.1100
  516W        W 1513   2.351   6.682   1.269  0.2155  0.1481  0.2927
  517W        W 1514   1.424   7.648   4.143 -0.1200 -0.0191 -0.2075
  518W        W 1515   7.010   0.993   2.044  0.0992  0.1323 -0.3253
  519W        W 1516   3.234   6.556   1.195 -0.0952 -0.1852  0.3532
  520W        W 1517   5.378   7.318   4.932  0.2789 -0.1310  0.0811
  521W        W 1518   0.015   5.471   1.461  0.2410 -0.1338  0.1584
  522W        W 1519   4.382   7.382   2.884  0.1501  0.0818 -0.0406
  523W        W 1520   6.430   4.357   7.218 -0.3498 -0.0479  0.1331
  524W        W 1521   4.868   6.846   6.790 -0.1827 -0.0023  0.1413
  525W        W 1522   4.321   2.672   0.698  0.0082 -0.2493  0.2025
  526W        W 1523   6.952   2.615   5.289 -0.3373 -0.2013  0.0131
  527W        W 1524   4.147   3.963   0.175 -0.0264  0.1522  0.1897
  528W        W 1525   4.045   5.126   5.319 -0.3704  0.1186  0.1110
  529W        W 1526   2.488   4.477   4.331 -0.3125  0.0732 -0.0776
  530W        W 1527   7.241   5.071   2.263  0.2604  0.0124  0.1091
  531W        W 1528   4.157   1.352   4.353  0.0845  0.2191  0.1106
  532W        W 1529   0.623   2.900   7.566  0.1013 -0.1731 -0.0458
  533W        W 1530   3.572   4.711   6.914 -0.2007  0.0788  0.0671
  534W        W 1531   4.568   6.174   6.346  0.1622 -0.2712  0.1758
  535W        W 1532   6.697   5.628   1.162  0.1560 -0.1258  0.0113
  536W        W 1533   1.889   4.981   4.675  0.1345  0.1334  0.0603
  537W        W 1534   6.225   2.173   3.926  0.1293  0.0533 -0.0289
  538W        W 1535   1.024   2.184   2.796  0.0443  0.2590 -0.2066
  539W        W 1536   4.916   2.185   5.242 -0.2703 -0.0655 -0.0485
  540W        W 1537   0.477   4.746   4.087  0.0511  0.0860  0.0964
  541W        W 1538   1.798   0.018   3.712 -0.0818 -0.1661 -0.0461
  542W        W 1539   4.486   2.669   4.428  0.1643 -0.0103 -0.2264
  543W        W 1540   7.425   4.795   4.966 -0.0384 -0.1536 -0.0380
  544W        W 1541   0.788   4.666   5.133 -0.1066 -0.0619 -0.2761
  545W        W 1542   7.120   5.556   0.078 -0.0632 -0.2173 -0.1611
  546W        W 1543   6.826   4.030   3.701 -0.0496  0.2407 -0.1732
  547W        W 1544   3.564   4.798   0.912 -0.0808  0.0575  0.4772
  548W        W 1545   5.881   3.598   6.329  0.0118 -0.1885 -0.2554
  549W        W 1546   0.892   3.657   0.189  0.0417  0.1060  0.0441
  550W        W 1547   4.653   0.493   1.952  0.1133  0.2879 -0.0927
  551W        W 1548   7.155   0.671   2.616 -0.1470 -0.1796  0.0294
  552W        W 1549   7.236   1.094   5.702 -0.1328 -0.3476 -0.0212
  553W        W 1550   5.584   4.975   2.329 -0.1410 -0.0453  0.1137
  554W        W 1551   4.449   5.427   4.660 -0.1307 -0.0766  0.0972
  555W        W 1552   6.518   4.144   2.173 -0.1068  0.0727 -0.4652
  556W        W 1553   7.398   4.109   3.764 -0.0625 -0.3436  0.1981
  557W        W 1554   7.247   6.701   1.474  0.0240  0.3082  0.2400
  558W        W 1555   6.391   0.603   5.783  0.0578 -0.1255 -0.0374
  559W        W 1556   4.321   2.671   6.444 -0.0492  0.1032 -0.0454
  560W        W 1557   6.662   4.911   5.098  0.0963  0.0045 -0.3414
  561W        W 1558   4.567   4.937   5.044  0.0382 -0.2493 -0.0788
  562W        W 1559   6.654   6.342   3.359 -0.3708 -0.1021  0.2097
  563W        W 1560   6.941   1.351   2.441  0.1731 -0.1639  0.1084
  564W        W 1561   7.003   2.819   4.816 -0.0269 -0.1185  0.0934
  565W        W 1562   6.713   3.545   2.235 -0.1873  0.3070 -0.0785
  566W        W 1563   5.642   7.194   6.234 -0.2498 -0.1073 -0.1088
  567W        W 1564   7.006   7.414   0.082  0.0998 -0.0341  0.0046
  568W        W 1565   1.018   2.474   4.354 -0.1126 -0.0485  0.1369
  569W        W 1566   7.085   7.317   0.848  0.1945  0.0056 -0.2747
  570W        W 1567   1.155   4.886   0.921  0.0177  0.3303 -0.2414
  571W        W 1568   6.948   5.837   4.125 -0.0899  0.0277  0.1246
  572W        W 1569   7.437   2.042   3.462 -0.3992  0.0419  0.0411
  573W        W 1570   0.703   2.821   6.577  0.0551 -0.2165  0.0157
  574W        W 1571   5.983   4.066   1.973  0.0479 -0.3525 -0.1249
  575W        W 1572   5.575   7.159   1.171 -0.2563 -0.0447 -0.2608
  576W        W 1573   2.091   6.390   5.185 -0.1133  0.1262  0.0449
  577W        W 1574   7.010   2.013   2.637 -0.1461  0.0731  0.1234
  578W        W 1575   5.588   3.986   4.091 -0.0158 -0.0141 -0.0315
  579W        W 1576   3.655   5.568   5.400  0.1478 -0.0848 -0.2352
  580W        W 1577   4.839   0.434   7.512  0.0431 -0.3323  0.0615
  581W        W 1578   1.729   3.636   1.543  0.1217  0.1473 -0.3548
  582W        W 1579   2.668   0.173   3.541 -0.0718 -0.1641  0.3294
  583W        W 1580   6.330   7.027   1.570 -0.1396 -0.0827  0.2120
  584W        W 1581   3.956   6.157   6.139  0.1326 -0.1220  0.0279
  585W        W 1582   0.713   1.361   0.871  0.3977 -0.0171 -0.0707
  586W        W 1583   5.311   6.731   5.922  0.2939  0.0002 -0.0797
  587W        W 1584   7.456   5.172   7.540  0.0589 -0.0821 -0.2001
  588W        W 1585   4.662   1.633   6.846  0.1121  0.0508 -0.0944
  589W        W 1586   7.254   6.109   7.532  0.1520 -0.1115  0.0831
  590W        W 1587   0.205   6.551   4.853 -0.0269 -0.0759 -0.0076
  591W        W 1588   4.064   7.094   3.595 -0.2095 -0.1743  0.0236
  592W        W 1589   4.697   2.949   4.750  0.1842  0.0359  0.4261
  593W        W 1590   7.002   2.115   6.624 -0.3072 -0.0162 -0.1199
  594W        W 1591   1.558   5.269   5.136 -0.0812 -0.0193  0.3378
  595W        W 1592   5.601   0.949   0.422  0.2450  0.0552 -0.1140
  596W        W 1593   4.996   3.783   7.073 -0.1442  0.1098 -0.0691
  597W        W 1594   4.217   0.316   4.083  0.2465 -0.2097 -0.1611
  598W        W 1595   4.661   3.305   1.290  0.0316 -0.0600  0.0737
  599W        W 1596   5.549   5.072   0.913  0.0494 -0.0210  0.0379
  600W        W 1597   3.819   3.779   5.539  0.0310  0.0108 -0.1097
  601W        W 1598   3.388   5.418   5.782  0.0569  0.1550 -0.0078
  602W        W 1599   7.367   1.031   2.375  0.0718 -0.4612  0.1745
  603W        W 1600   6.769   5.975   2.216 -0.1890  0.1802  0.0915
  604W        W 1601   4.107   4.774   2.087  0.5920 -0.0262  0.3984
  605W        W 1602   1.193   4.340   7.191  0.0573  0.0775 -0.0406
  606W        W 1603   5.779   0.177   6.869  0.2737 -0.0952 -0.0617
  607W        W 1604   3.340   6.342   2.075  0.1499  0.1976  0.4626
  608W        W 1605   4.633   2.110   3.212  0.1882  0.2778  0.0937
  609W        W 1606   1.056   0.019   5.047 -0.3241 -0.0583 -0.1486
  610W        W 1607   5.172   5.255   2.443  0.1726 -0.3298 -0.0520
  611W        W 1608   3.612   6.329   0.457  0.1449  0.2141  0.3112
  612W        W 1609   3.467   4.344   0.498  0.0335 -0.0510  0.1552
  613W        W 1610   4.906   5.796   4.822  0.0642  0.1452 -0.2009
  614W        W 1611   3.749   4.836   4.474  0.0067 -0.1265 -0.1504
  615W        W 1612   7.432   4.606   2.398  0.1062 -0.0295 -0.0493
  616W        W 1613   6.034   2.721   7.292  0.1434  0.3099  0.2044
  617W        W 1614   3.839   0.075   5.859  0.0997 -0.0889 -0.1132
  618W        W 1615   6.964   4.331   5.437 -0.0570  0.1282  0.0244
  619W        W 1616   0.165   4.834   5.850  0.2175 -0.0691  0.0486
  620W        W 1617   4.780   2.522   6.517 -0.3022 -0.0498 -0.0568
  621W        W 1618   0.191   1.660   2.246  0.2128  0.1546 -0.0168
  622W        W 1619   6.952   0.579   0.703 -0.2027 -0.0229  0.0603
  623W        W 1620   3.587   2.791   5.510  0.2123  0.3045 -0.5417
  624W        W 1621   7.304   6.899   6.977  0.2342  0.4848 -0.1255
  625W        W 1622   5.792   1.581   3.601 -0.0546 -0.2640 -0.0277
  626W        W 1623   7.390   3.055   1.630 -0.2340 -0.0843 -0.3399
  627W        W 1624   0.435   6.498   1.086 -0.0215 -0.2363 -0.0146
  628W        W 1625   1.969   7.170   4.709 -0.3571 -0.1938  0.1698
  629W        W 1626   7.055   5.212   4.930  0.0030 -0.1070  0.0479
  630W        W 1627   5.226   1.136   6.115  0.1005 -0.2161 -0.1940
  631W        W 1628   1.794   3.617   2.738  0.2081 -0.1110 -0.2589
  632W        W 1629   4.125   0.622   2.021 -0.0706  0.0616  0.0435
  633W        W 1630   1.896   0.824   4.202 -0.1811  0.1490  0.0494
  634W        W 1631   1.287   3.792   2.631 -0.1175  0.0471  0.2193
  635W        W 1632   6.381   1.143   1.095 -0.1817 -0.0779 -0.0958
  636W        W 1633   1.827   5.161   6.561  0.0688 -0.0146  0.1806
  637W        W 1634   0.272   3.127   0.249  0.0737 -0.1578  0.2232
  638W        W 1635   6.756   0.759   2.970  0.2012 -0.1742  0.0723
  639W        W 1636   6.071   2.884   5.007 -0.1393 -0.1854 -0.0212
  640W        W 1637   7.647   0.761   2.750 -0.0443  0.0756 -0.0753
  641W        W 1638   5.656   1.102   6.388 -0.4539 -0.2695 -0.0154
  642W        W 1639   5.657   5.871   2.816 -0.1476  0.0134  0.5160
  643W        W 1640   4.277   5.682   0.667 -0.1242 -0.3642 -0.0362
  644W        W 1641   7.294   5.680   7.271  0.0352  0.2016 -0.3286
  645W        W 1642   5.216   5.716   2.253  0.2095  0.0044  0.1559
  646W        W 1643   5.893   1.269   2.070  0.1867 -0.0644 -0.0946
  647W        W 1644   0.282   6.947   2.355 -0.2044 -0.0761 -0.2330
  648W        W 1645   3.345   5.944   5.731  0.0640 -0.0579 -0.0446
  649W        W 1646   3.712   7.081   0.147  0.1636  0.0587 -0.1054
  650W        W 1647   0.561   5.637   0.127  0.0115  0.3455  0.2210
  651W        W 1648   4.472   6.551   6.017 -0.1773 -0.2536 -0.5070
  652W        W 1649   2.143   7.446   5.208  0.0952  0.0981 -0.4329
  653W        W 1650   1.388   3.201   5.660 -0.0998 -0.0976 -0.0319
  654W        W 1651   7.300   3.094   2.735 -0.0025  0.1290  0.3384
  655W        W 1652   2.654   3.993   4.597 -0.0427 -0.1510 -0.5011
  656W        W 1653   4.190   5.851   1.912  0.0070 -0.0517  0.2251
  657W        W 1654   4.674   0.400   6.196 -0.1358  0.2505 -0.0352
  658W        W 1655   3.094   5.234   6.300 -0.1347  0.3659 -0.0174
  659W        W 1656   2.612   5.069   3.091 -0.0133 -0.1080 -0.1118
  660W        W 1657   4.653   5.700   2.194  0.1249 -0.1532 -0.2640
  661W        W 1658   3.960   3.249   2.718  0.1501  0.2677  0.1040
  662W        W 1659   3.971   4.513   7.189 -0.1316 -0.0922  0.4914
  663W        W 1660   6.817   6.481   2.828 -0.1477 -0.1561 -0.2228
  664W        W 1661   0.837   4.632   1.712 -0.1639  0.0596 -0.1604
  665W        W 1662   0.981   3.663   3.461  0.1494  0.1799 -0.0375
  666W        W 1663   2.404   6.226   1.010  0.0703  0.1415 -0.0087
  667W        W 1664   3.618   5.564   3.669  0.2250  0.0064  0.3157
  668W        W 1665   7.198   1.468   5.008 -0.2551 -0.2365  0.0324
  669W        W 1666   1.088   1.969   4.621  0.0390  0.3067 -0.2575
  670W        W 1667   3.736   6.739   4.459  0.1375 -0.0044  0.1813
  671W        W 1668   4.501   3.984   6.080 -0.2012  0.1544  0.1787
  672W        W 1669   5.777   7.238   3.771 -0.2985  0.5971 -0.0208
  673W        W 1670   5.504   0.079   2.277 -0.1754  0.0073  0.0237
  674W        W 1671   6.231   3.540   3.179  0.0390 -0.2690  0.1067
  675W        W 1672   6.637   2.743   3.714 -0.2938 -0.1395 -0.1294
  676W        W 1673   1.049   4.134   1.844 -0.0142 -0.1718  0.0514
  677W        W 1674   2.242   6.047   0.123 -0.1066  0.0434 -0.0010
  678W        W 1675   7.180   0.942   1.585 -0.1289 -0.0969  0.1249
  679W        W 1676   0.437   0.277   3.684  0.1748 -0.0006 -0.1964
  680W        W 1677   0.030   1.906   2.838 -0.2288  0.0376  0.3590
  681W        W 1678   5.325   5.590   5.769 -0.3107 -0.1829  0.0891
  682W        W 1679   3.654   3.056   6.015  0.1176  0.4002  0.1517
  683W        W 1680   2.050   5.924   6.439  0.0368 -0.1161 -0.1567
  684W        W 1681   3.807   4.722   4.987  0.1915  0.3120 -0.1005
  685W        W 1682   4.046   6.010   0.268  0.0185 -0.0048  0.0218
  686W        W 1683   5.350   5.940   3.184 -0.1474  0.4507  0.2293
  687W        W 1684   7.428   5.142   3.842  0.2062 -0.2173 -0.2371
  688W        W 1685   4.292   2.156   2.691 -0.2570  0.0747  0.0099
  689W        W 1686   2.629   6.156   1.692 -0.1736  0.2628  0.0465
  690W        W 1687   1.937   5.991   0.957 -0.2012 -0.1327  0.1904
  691W        W 1688   5.498   4.685   1.888  0.0699  0.0475  0.1053
  692W        W 1689   6.302   2.831   1.040 -0.0150 -0.1428  0.4090
  693W        W 1690   2.287   5.750   0.654 -0.0633  0.0063  0.1524
  694W        W 1691   1.333   4.950   4.550  0.1351 -0.1390 -0.2120
  695W        W 1692   5.607   2.419   2.357  0.1517  0.1663 -0.1234
  696W        W 1693   3.702   3.569   6.999  0.1856  0.0456  0.1191
  697W        W 1694   6.514   0.945   6.106 -0.1094  0.1555  0.1191
  698W        W 1695   5.360   7.250   3.999  0.0732 -0.1946  0.3563
  699W        W 1696   0.652   0.661   1.527  0.2807 -0.1129 -0.2150
  700W        W 1697   2.911   1.499   3.269  0.3591 -0.1758  0.2781
  701W        W 1698   4.277   4.029   1.770 -0.3136  0.2860 -0.2726
  702W        W 1699   0.749   4.667   6.169 -0.0653  0.2366 -0.2852
  703W        W 1700   5.938   0.965   4.394 -0.2009 -0.2629  0.0706
  704W        W 1701   4.298   4.629   2.562 -0.0019  0.1146  0.2696
  705W        W 1702   0.210   3.490   6.454  0.2434  0.1681  0.0184
  706W        W 1703   2.986   3.846   6.169 -0.2540 -0.1843  0.0576
  707W        W 1704   2.188   7.137   0.332 -0.0764 -0.2578 -0.0348
  708W        W 1705   4.779   1.986   2.640 -0.2145 -0.2332  0.4075
  709W        W 1706   6.320   4.659   2.988 -0.0604 -0.1251 -0.0369
  710W        W 1707   3.347   4.768   4.156 -0.1941  0.1758 -0.0004
  711W        W 1708   5.276   3.653   6.691 -0.0975  0.2856 -0.1090
  712W        W 1709   2.001   5.466   4.932  0.3552 -0.1217 -0.2207
  713W        W 1710   4.926   7.338   5.140 -0.1398 -0.0994  0.1231
  714W        W 1711   0.555   2.678   4.238  0.0466  0.2464  0.0524
  715W        W 1712   4.946   2.544   1.238 -0.3183  0.0557 -0.2103
  716W        W 1713   2.441   5.924   6.846 -0.1753 -0.0227  0.0573
  717W        W 1714   2.343   6.946   4.463 -0.5388  0.0367  0.2144
  718W        W 1715   6.346   0.085   4.094  0.2237 -0.1714 -0.0433
  719W        W 1716   4.295   1.489   4.974 -0.0392 -0.0277  0.0906
  720W        W 1717   4.094   3.743   2.497 -0.1302 -0.0914 -0.1092
  721W        W 1718   7.415   1.298   1.878  0.1877 -0.1980  0.1665
  722W        W 1719   6.778   2.233   4.985 -0.1154  0.3229 -0.0212
  723W        W 1720   7.052   1.741   6.967 -0.0164 -0.0148  0.2043
  724W        W 1721   2.492   6.430   5.708 -0.1693 -0.1107 -0.1623
  725W        W 1722   3.839   1.296   3.700 -0.0255  0.3511  0.1526
  726W        W 1723   1.946   5.676   6.850  0.2300  0.0187 -0.3918
  727W        W 1724   3.786   7.019   4.861  0.0349 -0.0050  0.0970
  728W        W 1725   0.240   2.074   0.590 -0.0372 -0.0985 -0.2716
  729W        W 1726   1.092   6.520   5.235  0.2746 -0.0331  0.1082
  730W        W 1727   5.809   2.081   4.708 -0.1828  0.0020 -0.0211
  731W        W 1728   6.096   4.502   1.557  0.1950 -0.0946  0.0664
  732W        W 1729   7.367   5.770   2.996  0.1004 -0.2009 -0.1289
  733W        W 1730   7.416   6.440   1.065 -0.0569 -0.1008 -0.0744
  734W        W 1731   5.748   6.685   6.134  0.0854  0.0736 -0.0008
  735W        W 1732   2.879   2.611   3.554 -0.1004  0.0935 -0.0945
  736W        W 1733   1.055   2.797   3.004 -0.2411 -0.3601 -0.3545
  737W        W 1734   5.359   4.436   3.187 -0.0438 -0.0957  0.0848
  738W        W 1735   1.036   5.585   4.092  0.1582  0.0452  0.2179
  739W        W 1736   7.467   7.647   4.740 -0.0625  0.0331 -0.1635
  740W        W 1737   7.115   4.854   4.568  0.2697  0.0832  0.0217
  741W        W 1738   6.642   3.950   2.639 -0.0864 -0.1028  0.2773
  742W        W 1739   0.371   2.967   1.284  0.0263  0.0944 -0.0256
  743W        W 1740   6.013   3.815   2.754  0.0427  0.1861  0.4009
  744W        W 1741   1.264   3.414   1.480  0.1043 -0.4106  0.0937
  745W        W 1742   4.144   1.693   3.914  0.0632 -0.1762  0.0653
  746W        W 1743   6.650   2.239   0.365 -0.0078 -0.2713 -0.0962
  747W        W 1744   0.130   5.564   2.812 -0.2596  0.0330 -0.1595
  748W        W 1745   1.823   3.369   6.948 -0.5705  0.2001  0.1751
  749W        W 1746   6.352   3.043   0.517 -0.1226 -0.0479 -0.0393
  750W        W 1747   4.662   2.950   0.121 -0.1823  0.1835  0.0484
  751W        W 1748   0.144   1.081   2.125 -0.1115 -0.0125  0.1807
  752W        W 1749   2.942   1.030   3.096  0.2277 -0.3154 -0.0276
  753W        W 1750   7.217   3.092   5.547  0.0377  0.1588 -0.4258
  754W        W 1751   6.349   5.935   1.608 -0.1321 -0.1469 -0.2389
  755W        W 1752   2.154   2.757   4.699 -0.2619  0.2406 -0.1950
  756W        W 1753   6.323   0.710   7.486 -0.2419 -0.4285  0.2601
  757W        W 1754   0.684   3.293   6.313 -0.0871  0.0289  0.1214
  758W        W 1755   6.308   1.985   6.242  0.0750 -0.1276 -0.0442
  759W        W 1756   3.785   2.731   2.481  0.2900  0.1038 -0.0757
  760W        W 1757   5.035   4.216   7.523  0.1145 -0.2365  0.2181
  761W        W 1758   5.447   6.473   0.983 -0.0291 -0.1016 -0.0605
  762W        W 1759   5.862   4.243   6.171 -0.1618 -0.0457  0.0320
  763W        W 1760   0.544   4.049   5.681  0.0055 -0.0575 -0.0357
  764W        W 1761   1.144   5.923   4.395  0.0868 -0.0839 -0.0770
  765W        W 1762   0.748   5.603   1.061  0.1960  0.1317 -0.0166
  766W        W 1763   4.584   4.837   1.802 -0.1225  0.0158  0.2782
  767W        W 1764   2.306   2.461   2.826 -0.1513 -0.0828  0.0051
  768W        W 1765   4.811   4.594   7.376 -0.2544  0.2791 -0.0868
  769W        W 1766   1.315   3.961   4.094  0.0865 -0.2589  0.0367
  770W        W 1767   5.075   6.111   5.177 -0.1697  0.1224  0.3908
  771W        W 1768   5.379   1.294   5.683 -0.1900  0.2991 -0.0741
  772W        W 1769   1.290   4.083   0.185  0.1501  0.1764  0.1416
  773W        W 1770   6.867   4.021   0.381 -0.0517  0.1458 -0.1140
  774W        W 1771   2.700   0.978   3.880  0.2996  0.3244 -0.0906
  775W        W 1772   6.780   7.647   0.638  0.4244 -0.0213  0.3432
  776W        W 1773   7.516   4.263   0.884 -0.1691  0.1136 -0.2170
  777W        W 1774   5.884   2.150   1.610 -0.0716  0.2149 -0.1981
  778W        W 1775   0.121   5.911   5.517 -0.1098 -0.1788 -0.0279
  779W        W 1776   2.695   4.235   1.435 -0.1973 -0.0380  0.0655
  780W        W 1777   6.013   1.052   0.696  0.0979  0.1364  0.2674
  781W        W 1778   6.721   7.419   2.568  0.4168 -0.1342  0.1599
  782W        W 1779   0.989   6.478   1.371  0.0435  0.1493  0.3080
  783W        W 1780   1.928   5.547   1.163  0.2134  0.0064  0.0444
  784W        W 1781   6.990   4.667   2.022 -0.2149 -0.0720  0.5378
  785W        W 1782   5.834   4.311   2.889  0.2868 -0.2003  0.0247
  786W        W 1783   1.078   3.136   3.422 -0.0214  0.0702  0.0734
  787W        W 1784   2.265   6.826   6.164  0.2135  0.1544 -0.0963
  788W        W 1785   7.364   5.222   2.795  0.4689  0.1338 -0.1126
  789W        W 1786   1.571   5.008   0.274  0.2424  0.0376 -0.0266
  790W        W 1787   6.166   1.262   4.024  0.1588 -0.1231  0.1437
  791W        W 1788   5.341   3.930   3.336 -0.0251 -0.0680 -0.0879
  792W        W 1789   3.936   4.413   6.635 -0.1064  0.1222 -0.0832
  793W        W 1790   3.010   4.714   6.223  0.0306  0.2708 -0.1338
  794W        W 1791   5.063   0.130   5.622  0.2728  0.0171  0.3581
  795W        W 1792   6.686   0.337   2.484 -0.2039  0.2219  0.2312
  796W        W 1793   3.447   4.054   3.406 -0.1840 -0.1548 -0.1593
  797W        W 1794   3.314   5.449   2.409 -0.2305  0.0617 -0.0148
  798W        W 1795   6.972   5.511   2.047 -0.1725  0.1518  0.2133
  799W        W 1796   1.037   1.835   4.059 -0.2480  0.0886  0.0319
  800W        W 1797   4.962   6.544   6.264 -0.0142  0.1049  0.0189
  801W        W 1798   4.941   3.293   0.682 -0.2654 -0.2113 -0.0179
  802W        W 1799   4.111   3.556   0.515 -0.0003 -0.2100  0.0770
  803W        W 1800   6.489   3.915   7.522 -0.0167 -0.2467 -0.3133
  804W        W 1801   3.799   6.088   2.813  0.0834  0.3147 -0.0755
  805W        W 1802   3.110   6.560   5.028 -0.3040  0.2707  0.0788
  806W        W 1803   6.817   4.463   4.462 -0.0816  0.1161 -0.0821
  807W        W 1804   7.585   1.740   1.650 -0.0471 -0.1225 -0.2484
  808W        W 1805   3.484   6.819   0.653 -0.1240 -0.0256  0.3741
  809W        W 1806   3.881   0.911   2.358 -0.0234  0.3859  0.3723
  810W        W 1807   6.091   3.165   6.488  0.1643 -0.3739  0.1307
  811W        W 1808   6.715   1.700   7.334 -0.1651 -0.2052 -0.3875
  812W        W 1809   4.340   4.837   7.273 -0.2495  0.0364 -0.2874
  813W        W 1810   0.067   3.411   4.405 -0.0896  0.2237  0.1524
  814W        W 1811   3.868   5.990   4.630  0.0699 -0.0443 -0.0989
  815W        W 1812   7.524   5.834   6.157  0.2975  0.0163  0.1317
  816W        W 1813   6.748   1.149   1.673  0.0394 -0.4592  0.1483
  817W        W 1814   1.024   6.482   1.917  0.1012  0.0313  0.1933
  818W        W 1815   3.355   5.369   0.520 -0.0253 -0.0567 -0.2591
  819W        W 1816   7.376   4.744   7.223 -0.0671 -0.3063  0.1654
  820W        W 1817   2.112   5.939   2.443  0.1644  0.0914 -0.0199
  821W        W 1818   6.577   5.421   6.051 -0.0704 -0.4107 -0.0091
  822W        W 1819   1.395   5.677   1.162 -0.1450  0.1177 -0.1605
  823W        W 1820   4.280   4.751   3.886  0.2002  0.0476 -0.3372
  824W        W 1821   3.467   0.182   0.688  0.0187 -0.3178  0.1131
  825W        W 1822   4.512   1.631   1.334 -0.0597 -0.0537  0.2475
  826W        W 1823   7.429   1.904   0.145  0.1903 -0.1629 -0.3802
  827W        W 1824   2.622   4.784   5.951  0.1980 -0.3315  0.2971
  828W        W 1825   0.033   3.437   1.796 -0.1162 -0.1830 -0.1754
  829W        W 1826   5.302   3.589   5.204  0.1307  0.1153 -0.2897
  830W        W 1827   1.866   6.418   4.773  0.2008  0.0110  0.1566
  831W        W 1828   7.374   3.117   4.928  0.2215 -0.0511 -0.0438
  832W        W 1829   2.028   5.192   5.403 -0.0842 -0.0172  0.1398
  833W        W 1830   5.365   3.133   7.398 -0.0682 -0.0890  0.2299
  834W        W 1831   0.468   0.916   2.961  0.3686  0.1828 -0.1482
  835W        W 1832   2.856   7.475   0.881  0.0295 -0.2132  0.0441
  836W        W 1833   7.474   0.985   0.584  0.1276 -0.0371 -0.0439
  837W        W 1834   1.227   4.523   4.817 -0.1570 -0.0212 -0.4215
  838W        W 1835   7.578   7.260   3.793 -0.1881  0.1453 -0.1432
  839W        W 1836   4.286   4.011   0.713 -0.0861 -0.2538 -0.1156
  840W        W 1837   3.399   2.070   4.448  0.2531  0.3763  0.0466
  841W        W 1838   2.749   7.642   4.570 -0.3723  0.2718  0.1228
  842W        W 1839   1.512   1.086   2.219 -0.4263  0.1409  0.2844
  843W        W 1840   0.530   5.132   0.318  0.1107 -0.0633 -0.0119
  844W        W 1841   6.040   3.549   5.503 -0.1331 -0.2715 -0.1600
  845W        W 1842   0.171   5.185   4.143  0.2980  0.0042  0.0117
  846W        W 1843   6.649   1.984   1.492 -0.1467  0.0074  0.2827
  847W        W 1844   0.623   3.897   2.051  0.0035 -0.0202 -0.1308
  848W        W 1845   1.723   5.104   2.095 -0.3210 -0.2132  0.0858
  849W        W 1846   3.552   6.876   1.328 -0.0734  0.0008  0.1992
  850W        W 1847   7.366   2.486   7.467 -0.2059  0.1082  0.1587
  851W        W 1848   7.101   0.710   6.010 -0.2905  0.0059  0.2499
  852W        W 1849   7.224   7.588   3.862 -0.0035 -0.1777  0.1392
  853W        W 1850   4.832   2.921   4.111  0.1293 -0.0120 -0.0009
  854W        W 1851   6.870   4.623   1.499 -0.5574  0.1976  0.1436
  855W        W 1852   3.259   5.304   7.235  0.2122  0.3830  0.2749
  856W        W 1853   7.094   0.030   6.446  0.1706 -0.1430  0.0393
  857W        W 1854   2.985   5.720   3.956  0.0632  0.0162  0.0717
  858W        W 1855   6.518   6.712   0.531  0.1979  0.0501 -0.1296
  859W        W 1856   1.188   2.067   2.310 -0.0406  0.2731 -0.1464
  860W        W 1857   2.942   2.890   4.815 -0.0437 -0.1697 -0.0409
  861W        W 1858   4.368   3.615   4.789 -0.1608 -0.3399  0.3386
  862W        W 1859   2.012   1.913   3.482 -0.1956  0.0210  0.1671
  863W        W 1860   6.350   1.442   5.349 -0.0993 -0.1500  0.0949
  864W        W 1861   4.825   5.746   3.123 -0.3121  0.1782 -0.2183
  865W        W 1862   5.861   1.312   5.348 -0.1043 -0.0151 -0.0591
  866W        W 1863   2.998   7.016   0.804  0.1851 -0.1870  0.1757
  867W        W 1864   6.517   6.809   3.716 -0.1193  0.0802  0.2844
  868W        W 1865   6.125   3.227   3.624  0.1885  0.3006 -0.0284
  869W        W 1866   4.186   0.400   5.942  0.2653 -0.0381 -0.1146
  870W        W 1867   7.589   7.065   4.658  0.5122 -0.0731 -0.0368
  871W        W 1868   3.135   3.762   3.107  0.3259  0.2909 -0.1020
  872W        W 1869   7.360   7.088   5.328  0.0811 -0.3711  0.0763
  873W        W 1870   7.030   2.202   5.792  0.0560 -0.2342 -0.1043
  874W        W 1871   7.176   1.059   3.542 -0.0085  0.0864 -0.0570
  875W        W 1872   7.640   6.404   0.589  0.0198 -0.0251  0.0987
  876W        W 1873   2.831   7.062   3.866  0.0490  0.1608  0.0182
  877W        W 1874   2.648   6.793   2.817 -0.2089 -0.3273 -0.0544
  878W        W 1875   1.047   4.526   0.037  0.1627 -0.1814 -0.0937
  879W        W 1876   2.823   7.144   4.443  0.1809 -0.2049 -0.1169
  880W        W 1877   4.058   0.342   4.605  0.0563 -0.1706 -0.2788
  881W        W 1878   3.316   7.303   0.506  0.1191 -0.2329 -0.1205
  882W        W 1879   7.328   7.170   1.269 -0.2618  0.0028  0.0089
  883W        W 1880   5.574   6.990   2.907  0.2023 -0.0282 -0.3659
  884W        W 1881   6.845   0.263   0.144  0.0619  0.1510 -0.2908
  885W        W 1882   5.509   6.690   1.473  0.0786  0.0774  0.3900
  886W        W 1883   7.626   4.366   3.384 -0.0197 -0.0665 -0.0025
  887W        W 1884   0.023   7.507   1.697  0.2903  0.0938 -0.0942
  888W        W 1885   7.611   5.971   2.492 -0.2189 -0.0251  0.0975
  889W        W 1886   6.788   0.177   3.855  0.0728 -0.3221 -0.1690
  890W        W 1887   1.866   3.930   3.335  0.1419  0.0950  0.2807
  891W        W 1888   4.550   0.210   5.590 -0.1815 -0.0725  0.4755
  892W        W 1889   5.174   0.608   5.015  0.0459 -0.0995  0.0255
  893W        W 1890   5.660   6.979   6.751  0.2676  0.4314  0.0725
  894W        W 1891   3.104   4.466   1.788 -0.0873  0.1499  0.0149
  895W        W 1892   3.400   5.212   4.572 -0.2634  0.0206  0.1881
  896W        W 1893   5.745   3.679   3.674 -0.0581 -0.2835 -0.0242
  897W        W 1894   6.941   1.935   5.350 -0.2111  0.1921  0.3765
  898W        W 1895   5.287   3.927   4.623 -0.2677 -0.0911  0.0929
  899W        W 1896   6.446   5.081   6.422 -0.1373 -0.1922  0.0970
  900W        W 1897   2.893   1.006   4.773 -0.0389  0.0620  0.1280
  901W        W 1898   3.794   5.812   5.788 -0.3185 -0.0851 -0.0799
  902W        W 1899   7.633   5.565   6.906  0.1791 -0.0964 -0.4066
  903W        W 1900   1.050   1.025   1.302 -0.1616 -0.1160 -0.0893
  904W        W 1901   3.725   0.602   4.126  0.0191 -0.3995  0.1656
  905W        W 1902   5.569   3.365   5.576  0.3695 -0.0822 -0.2380
  906W        W 1903   4.926   3.580   4.743  0.1146 -0.2043 -0.1144
  907W        W 1904   5.235   2.609   4.053  0.0245 -0.0929 -0.0557
  908W        W 1905   2.177   2.916   3.037  0.0756  0.0879 -0.3147
  909W        W 1906   2.122   1.534   3.077 -0.2228 -0.3663 -0.1599
  910W        W 1907   4.274   5.036   1.414 -0.1154 -0.2227  0.4280
  911W        W 1908   2.548   4.893   1.105 -0.1478 -0.0050  0.0116
  912W        W 1909   7.449   6.181   4.856  0.3355 -0.0161  0.0044
  913W        W 1910   5.717   6.381   4.099 -0.1462 -0.1021 -0.0394
  914W        W 1911   0.656   3.935   0.827 -0.2467 -0.0313 -0.1454
  915W        W 1912   5.088   1.553   4.233  0.2648 -0.0007  0.1939
  916W        W 1913   5.006   2.459   3.655 -0.1834 -0.1650 -0.0894
  917W        W 1914   1.305   3.702   1.945 -0.1386 -0.0911  0.1952
  918W        W 1915   6.832   2.620   7.417 -0.1470 -0.2911  0.1224
  919W        W 1916   7.447   3.580   2.529 -0.2044  0.2042  0.4382
  920W        W 1917   6.262   2.464   0.619  0.1367  0.2945  0.0426
  921W        W 1918   6.236   0.901   2.314  0.2012 -0.1609 -0.2205
  922W        W 1919   6.826   0.795   0.156  0.0904  0.2169  0.0463
  923W        W 1920   6.087   7.605   3.660  0.1538  0.0705  0.1153
  924W        W 1921   7.385   5.574   2.394  0.0704  0.3583  0.1361
  925W        W 1922   7.642   4.159   7.618 -0.0679  0.0227 -0.1196
  926W        W 1923   4.947   6.222   2.250 -0.1962  0.0356  0.2424
  927W        W 1924   3.629   6.819   6.233 -0.0727 -0.0186  0.2686
  928W        W 1925   5.190   1.195   0.194  0.3506  0.2301  0.0343
  929W        W 1926   5.063   0.921   6.609 -0.2428  0.1734 -0.1798
  930W        W 1927   4.457   5.039   2.789 -0.2088  0.3721  0.1941
  931W        W 1928   6.751   2.235   3.002 -0.2841  0.0975  0.0719
  932W        W 1929   6.653   1.764   3.157 -0.0707  0.3901 -0.0403
  933W        W 1930   5.013   6.475   1.326 -0.2379 -0.1622 -0.1683
  934W        W 1931   1.990   0.390   1.405  0.2897 -0.1519  0.0915
  935W        W 1932   0.313   0.673   0.533  0.2536  0.1763  0.1206
  936W        W 1933   6.791   2.447   1.711 -0.0359 -0.2868 -0.3873
  937W        W 1934   2.996   3.581   3.860 -0.2278 -0.2244 -0.0021
  938W        W 1935   6.624   1.759   6.617  0.1594 -0.3453 -0.1738
  939W        W 1936   4.136   4.034   5.034  0.1325  0.0763  0.1607
  940W        W 1937   5.747   2.548   3.025 -0.2529 -0.0038  0.0685
  941W        W 1938   1.225   6.193   6.456 -0.0263  0.1463  0.2961
  942W        W 1939   4.123   6.386   4.741 -0.0419  0.0604  0.2228
  943W        W 1940   6.743   3.398   0.862 -0.0753 -0.1541 -0.0289
  944W        W 1941   3.307   0.797   1.683 -0.0953  0.1345  0.0590
  945W        W 1942   0.535   3.574   3.184  0.0474 -0.2202  0.1237
  946W        W 1943   6.228   5.726   0.113  0.0225 -0.1181  0.3335
  947W        W 1944   5.768   6.932   4.711 -0.1276 -0.0081  0.1489
  948W        W 1945   6.656   3.253   0.160  0.5266  0.0264  0.0117
  949W        W 1946   4.175   6.581   7.206 -0.1588  0.0649  0.1522
  950W        W 1947   4.295   1.168   1.308  0.0056  0.1259  0.0900
  951W        W 1948   0.455   3.814   4.171  0.0553  0.0999  0.0605
  952W        W 1949   0.935   6.492   0.239 -0.2283 -0.5045 -0.0649
  953W        W 1950   4.308   1.463   3.495 -0.0239  0.1088  0.1435
  954W        W 1951   5.856   3.932   6.971  0.1977 -0.0460 -0.1906
  955W        W 1952   0.372   4.549   3.662 -0.0703  0.1991  0.0821
  956W        W 1953   5.124   4.742   5.046  0.0887  0.1089 -0.0719
  957W        W 1954   7.160   3.958   5.006  0.0400  0.0543  0.0461
  958W        W 1955   2.793   2.255   2.738  0.2604  0.0129 -0.0194
  959W        W 1956   0.628   2.074   4.371  0.1759 -0.2870  0.0886
  960W        W 1957   6.066   1.556   6.321 -0.2474 -0.1685  0.0068
  961W        W 1958   1.078   6.480   4.127 -0.2559  0.0240  0.3543
  962W        W 1959   7.305   2.447   0.943 -0.1659  0.1856  0.0310
  963W        W 1960   0.248   4.641   7.330  0.0256 -0.1273  0.0998
  964W        W 1961   6.829   3.351   4.331 -0.0709 -0.2516 -0.4424
  965W        W 1962   5.259   7.551   1.286 -0.3316  0.0178  0.2505
  966W        W 1963   4.564   2.256   1.369 -0.0529  0.0133 -0.1705
  967W        W 1964   0.108   6.922   1.200  0.0705 -0.1830  0.0842
  968W        W 1965   5.979   4.277   0.530 -0.1093 -0.0699 -0.1954
  969W        W 1966   6.187   5.612   5.268  0.0208 -0.1605 -0.2013
  970W        W 1967   4.669   5.115   2.267 -0.0175 -0.1716 -0.1654
  971W        W 1968   4.612   0.723   3.163 -0.0309 -0.1409 -0.0115
  972W        W 1969   2.416   1.949   4.795  0.0151  0.0223 -0.0802
  973W        W 1970   5.813   0.172   2.669 -0.1718  0.0173  0.2652
  974W        W 1971   7.342   6.714   0.271  0.3637  0.0901  0.2775
  975W        W 1972   1.471   6.530   5.669  0.0991  0.3122  0.0435
  976W        W 1973   3.638   3.839   4.587  0.1875 -0.2519 -0.1740
  977W        W 1974   1.419   6.507   2.254  0.0659  0.1652  0.0320
  978W        W 1975   2.628   7.057   1.124 -0.0737  0.2667  0.1949
  979W        W 1976   2.371   7.494   2.313 -0.0224 -0.4443  0.0507
  980W        W 1977   5.012   1.284   7.064  0.2014  0.2437  0.2045
  981W        W 1978   7.018   4.259   0.801  0.2264 -0.1975  0.2543
  982W        W 1979   2.571   1.330   2.966  0.0343 -0.1996 -0.3934
  983W        W 1980   1.014   1.589   3.121  0.3138  0.3822  0.1560
  984W        W 1981   5.662   0.501   5.032 -0.2419  0.0859 -0.1906
  985W        W 1982   4.460   3.985   1.333  0.1574 -0.1649 -0.1339
  986W        W 1983   3.003   0.358   2.033  0.1969 -0.1245  0.1275
  987W        W 1984   6.470   3.425   2.677  0.1047  0.0642  0.4075
  988W        W 1985   4.489   7.133   3.350  0.0400  0.2731  0.3884
  989W        W 1986   0.879   5.320   7.601 -0.1408 -0.1439  0.1511
  990W        W 1987   4.628   2.729   5.921  0.1682  0.1362 -0.0185
  991W        W 1988   2.686   3.539   2.737 -0.1658  0.3167 -0.0868
  992W        W 1989   3.809   4.032   0.495  0.0150  0.6208  0.4287
  993W        W 1990   0.348   5.592   6.445  0.0500  0.2132 -0.0414
  994W        W 1991   1.401   0.483   3.912 -0.0177  0.1258  0.0324
  995W        W 1992   6.147   6.881   5.393 -0.1058  0.0149 -0.0189
  996W        W 1993   2.927   6.570   3.811 -0.0731 -0.1901 -0.1509
  997W        W 1994   4.396   6.189   7.632  0.1462  0.0399  0.1009
  998W        W 1995   0.134   3.112   2.929  0.2481 -0.1882 -0.1514
  999W        W 1996   5.946   0.562   0.435  0.0775  0.2541 -0.4373
 1000W        W 1997   5.788   1.947   4.069  0.0371 -0.0901  0.1259
 1001W        W 1998   4.581   3.261   1.823 -0.0947 -0.0816 -0.0065
 1002W        W 1999   4.266   5.737   2.925 -0.1316  0.0821  0.1900
 1003W        W 2000   6.484   3.455   7.290  0.0921 -0.3874 -0.0664
 1004W        W 2001   6.657   3.216   4.743  0.0536  0.0357  0.0351
 1005W        W 2002   4.406   7.340   1.552 -0.3529 -0.1959  0.0192
 1006W        W 2003   1.032   5.072   0.327 -0.1517  0.1203 -0.0848
 1007W        W 2004   4.566   0.798   0.967  0.0121 -0.4496  0.0890
 1008W        W 2005   0.454   0.321   3.186  0.3570 -0.1561 -0.1165
 1009W        W 2006   4.248   7.259   0.220  0.0080 -0.4842  0.0046
 1010W        W 2007   5.510   5.164   5.823  0.4271  0.1070  0.0724
 1011W        W 2008   3.089   7.420   2.315 -0.2412  0.2129 -0.0955
 1012W        W 2009   5.918   6.100   3.220 -0.0288 -0.1828 -0.4027
 1013W        W 2010   7.387   1.919   0.692 -0.0708 -0.1595 -0.0177
 1014W        W 2011   0.901   0.297   1.234  0.0403  0.1160  0.0253
 1015W        W 2012   7.492   2.707   4.708 -0.2772 -0.0878 -0.4555
 1016W        W 2013   3.818   2.424   3.972 -0.0167 -0.0120  0.0905
 1017W        W 2014   6.512   4.587   1.862 -0.1073 -0.4912 -0.0631
 1018W        W 2015   2.961   5.377   2.082  0.0678 -0.0735 -0.1943
 1019W        W 2016   3.805   0.540   0.629  0.0133  0.1632  0.0841
 1020W        W 2017   6.552   2.513   6.040 -0.0497  0.0085  0.1039
 1021W        W 2018   5.652   6.066   6.678 -0.3124  0.1166  0.1766
 1022W        W 2019   0.962   1.655   2.568  0.1578 -0.0421  0.0075
 1023W        W 2020   4.505   1.891   1.740 -0.1166  0.1961 -0.3508
 1024W        W 2021   0.668   5.497   5.735 -0.0438  0.2000  0.1155
 1025W        W 2022   2.764   1.698   2.728  0.0161 -0.4633 -0.2451
 1026W        W 2023   7.561   3.438   0.817  0.3862  0.1034  0.0454
 1027W        W 2024   4.950   0.965   7.497 -0.0029 -0.0118  0.0728
 1028W        W 2025   4.940   5.222   2.964  0.1697  0.3096  0.0132
 1029W        W 2026   7.358   3.512   5.766  0.0972 -0.3590  0.0585
 1030W        W 2027   5.716   3.902   4.925  0.0840 -0.0638  0.0596
 1031W        W 2028   7.588   1.505   3.473 -0.0202  0.1864 -0.1418
 1032W        W 2029   0.511   6.700   0.065 -0.1544 -0.0626 -0.0103
 1033W        W 2030   6.247   3.394   0.856 -0.1143 -0.0401 -0.1239
 1034W        W 2031   7.286   1.010   4.786 -0.2925  0.2136  0.4961
 1035W        W 2032   6.096   2.322   0.186 -0.1177 -0.1832  0.2521
 1036W        W 2033   0.074   2.116   1.953 -0.1501 -0.0115 -0.1551
 1037W        W 2034   4.458   3.256   3.404  0.0542 -0.2631 -0.1225
 1038W        W 2035   2.209   6.223   4.411  0.2081 -0.0168  0.4180
 1039W        W 2036   0.067   0.632   0.067 -0.0986  0.1492 -0.1898
 1040W        W 2037   3.279   5.562   6.578 -0.4579 -0.1720 -0.0980
 1041W        W 2038   2.278   2.255   4.101  0.0913 -0.0935  0.1574
 1042W        W 2039   3.806   2.274   2.700  0.0907  0.2315  0.0314
 1043W        W 2040   4.628   3.337   4.418 -0.0420 -0.1376 -0.3037
 1044W        W 2041   3.814   7.232   0.613  0.3749 -0.0203 -0.2848
 1045W        W 2042   6.789   6.219   0.388  0.0591  0.0265 -0.4827
 1046W        W 2043   4.771   2.032   6.575  0.0635  0.2394 -0.1080
 1047W        W 2044   2.143   6.275   6.025  0.1442 -0.2170  0.1119
 1048W        W 2045   7.198   2.231   3.872  0.1947 -0.2297 -0.0669
 1049W        W 2046   2.121   3.034   3.695 -0.3072  0.0166  0.1665
 1050W        W 2047   1.275   4.604   5.395  0.1626  0.1823 -0.0617
 1051W        W 2048   3.609   0.422   2.837 -0.2051  0.0396 -0.0094
 1052W        W 2049   4.758   5.231   5.984 -0.2330 -0.0782  0.2507
 1053W        W 2050   6.334   0.155   5.585  0.0769 -0.1999  0.3099
 1054W        W 2051   1.893   0.111   2.834  0.1363 -0.2701 -0.1011
 1055W        W 2052   5.321   0.253   2.718 -0.1268 -0.3203  0.0665
 1056W        W 2053   1.874   3.474   3.697 -0.0873 -0.0118  0.1571
 1057W        W 2054   7.426   1.403   0.847 -0.2599 -0.0503  0.0563
 1058W        W 2055   1.392   0.885   4.263  0.2423 -0.1459 -0.2715
 1059W        W 2056   6.576   6.263   1.868  0.0563  0.1636  0.1996
 1060W        W 2057   1.896   4.787   7.556 -0.1905  0.3044  0.1068
 1061W        W 2058   1.982   5.512   4.432  0.1064  0.0150 -0.2365
 1062W        W 2059   4.530   5.619   7.266 -0.2401 -0.3346  0.2927
 1063W        W 2060   5.674   1.411   0.561 -0.2085 -0.2401  0.1443
 1064W        W 2061   0.506   7.430   2.488  0.3936 -0.2158  0.1445
 1065W        W 2062   1.867   3.272   3.212  0.2247  0.0279  0.0925
 1066W        W 2063   6.650   5.284   6.858  0.3522 -0.1086  0.0038
 1067W        W 2064   5.592   2.687   7.504  0.0463  0.0393 -0.1780
 1068W        W 2065   6.001   7.392   5.389  0.3752  0.0849 -0.1150
 1069W        W 2066   7.285   2.578   1.416  0.1698  0.2223 -0.1535
 1070W        W 2067   0.168   3.359   4.882 -0.0567 -0.1785  0.0164
 1071W        W 2068   7.631   2.647   0.378 -0.1459 -0.0617  0.3260
 1072W        W 2069   5.038   2.563   6.070  0.0566 -0.2798 -0.3828
 1073W        W 2070   7.629   7.346   0.828 -0.0555  0.0761 -0.2694
 1074W        W 2071   6.357   5.130   0.988 -0.0718 -0.1890 -0.2323
 1075W        W 2072   6.851   0.619   4.733 -0.0516 -0.0574  0.0498
 1076W        W 2073   4.733   5.620   5.655 -0.1026  0.0308 -0.2027
 1077W        W 2074   4.189   0.331   6.645 -0.0369  0.4036 -0.0477
 1078W        W 2075   5.739   1.391   5.986 -0.2172  0.0744 -0.0039
 1079W        W 2076   5.526   7.464   5.452 -0.0051  0.0274 -0.3818
 1080W        W 2077   6.291   4.045   1.588  0.2225 -0.3076  0.0697
 1081W        W 2078   0.207   5.946   1.474  0.0338  0.2491 -0.3683
 1082W        W 2079   0.225   7.199   4.202  0.0369  0.3111 -0.2018
 1083W        W 2080   1.563   1.991   4.908  0.1767 -0.2838 -0.0460
 1084W        W 2081   3.760   4.222   4.183  0.0351  0.0304  0.1471
 1085W        W 2082   7.376   0.398   3.642  0.0334  0.1294 -0.0527
 1086W        W 2083   5.508   2.970   4.280  0.0535 -0.1677  0.0331
 1087W        W 2084   6.039   0.787   6.193  0.1803  0.2558  0.0146
 1088W        W 2085   5.648   1.296   1.594  0.1857  0.1343  0.2518
 1089W        W 2086   1.751   3.655   4.718 -0.1766 -0.1019 -0.1938
 1090W        W 2087   4.984   0.738   3.662 -0.0586 -0.3094 -0.0007
 1091W        W 2088   3.459   4.635   6.471 -0.2053  0.2771  0.1921
 1092W        W 2089   6.598   6.084   4.339  0.1773  0.0586  0.0908
 1093W        W 2090   4.694   0.235   3.806  0.1083  0.0021  0.1846
 1094W        W 2091   0.642   1.300   2.312 -0.0564  0.1776  0.2036
 1095W        W 2092   1.914   0.103   4.183  0.1244 -0.0146 -0.1824
 1096W        W 2093   7.053   5.879   6.445 -0.0352  0.0294 -0.0132
 1097W        W 2094   5.889   0.717   5.430 -0.1481 -0.2849 -0.2455
 1098W        W 2095   4.239   3.619   5.790 -0.2167  0.3440 -0.2622
 1099W        W 2096   1.116   0.485   2.418 -0.1756  0.3263  0.1205
 1100W        W 2097   6.049   2.468   6.258  0.2555 -0.1068  0.1100
 1101W        W 2098   0.800   4.467   6.715  0.0211 -0.0857 -0.1877
 1102W        W 2099   0.860   3.101   1.224 -0.0826  0.0223  0.1528
 1103W        W 2100   1.590   4.345   3.901 -0.0321 -0.4247 -0.1127
 1104W        W 2101   5.415   3.057   0.654 -0.0236  0.3250 -0.2875
 1105W        W 2102   3.662   6.002   1.816  0.1705  0.2733 -0.3360
 1106W        W 2103   1.614   6.797   4.947  0.1020 -0.0305  0.3950
 1107W        W 2104   0.483   7.008   1.479 -0.2995 -0.1507 -0.0503
 1108W        W 2105   1.618   6.042   2.283 -0.1696  0.0771  0.2071
 1109W        W 2106   1.650   4.561   2.385 -0.2963 -0.2350  0.0477
 1110W        W 2107   3.794   5.170   1.721  0.2133 -0.2281  0.3171
 1111W        W 2108   5.670   6.233   0.518 -0.0407 -0.1014 -0.2650
 1112W        W 2109   6.508   7.231   0.653  0.0353  0.0322 -0.2094
 1113W        W 2110   0.761   0.554   2.014  0.1476  0.0076 -0.1874
 1114W        W 2111   4.346   3.957   3.002 -0.2517 -0.0427 -0.1274
 1115W        W 2112   2.861   3.555   6.566  0.0908  0.0157 -0.1765
 1116W        W 2113   4.403   0.086   1.218 -0.2941  0.2096 -0.0604
 1117W        W 2114   6.477   0.946   3.330  0.0189 -0.0386 -0.0951
 1118W        W 2115   6.096   2.365   6.932 -0.2115  0.0107 -0.0081
 1119W        W 2116   5.346   3.321   2.143 -0.1954 -0.1447  0.1457
 1120W        W 2117   1.563   4.189   0.606 -0.2130  0.0969  0.1463
 1121W        W 2118   7.580   3.918   4.719  0.0623  0.1075 -0.1920
 1122W        W 2119   5.559   4.565   0.351 -0.0435 -0.0264 -0.1819
 1123W        W 2120   6.775   0.555   3.476 -0.0361 -0.0591  0.2929
 1124W        W 2121   2.532   4.399   2.928  0.1775 -0.0925 -0.0003
 1125W        W 2122   5.028   3.080   5.959 -0.1892  0.1822  0.3241
 1126W        W 2123   2.315   4.612   7.350  0.1152  0.2152  0.1524
 1127W        W 2124   0.096   6.008   3.829 -0.2590 -0.1807  0.0800
 1128W        W 2125   3.135   7.023   2.635 -0.0169 -0.3383 -0.0295
 1129W        W 2126   4.893   1.474   2.223  0.3663 -0.0523 -0.1242
 1130W        W 2127   1.517   6.646   4.453 -0.1745  0.0700 -0.0690
 1131W        W 2128   6.012   0.494   4.662  0.0072 -0.0818 -0.0865
 1132W        W 2129   5.159   6.040   4.447  0.1369  0.0084 -0.1170
 1133W        W 2130   3.576   7.284   3.516 -0.2138 -0.1717 -0.1678
 1134W        W 2131   7.289   0.657   7.448 -0.1050  0.1230 -0.0342
 1135W        W 2132   1.787   3.503   5.978 -0.1018  0.2735 -0.1044
 1136W        W 2133   6.688   1.632   5.028 -0.0603 -0.1760 -0.0127
 1137W        W 2134   6.885   3.905   7.150  0.2898 -0.3361 -0.0797
 1138W        W 2135   6.379   0.876   1.823  0.1092 -0.4069 -0.1541
 1139W        W 2136   0.213   5.198   4.851 -0.0581  0.1546  0.1828
 1140W        W 2137   0.413   5.220   3.295 -0.1914  0.1602  0.1101
 1141W        W 2138   6.713   1.744   2.197 -0.1871 -0.3595 -0.3667
 1142W        W 2139   5.235   3.269   3.963 -0.1334  0.1340  0.1252
 1143W        W 2140   1.637   6.974   0.040  0.5099 -0.2491 -0.2473
 1144W        W 2141   5.592   2.674   0.340  0.2770  0.0342 -0.0141
 1145W        W 2142   4.574   3.211   5.583 -0.1266 -0.2474 -0.1282
 1146W        W 2143   7.250   0.511   6.439  0.2317  0.0036  0.2020
 1147W        W 2144   4.469   0.924   1.768  0.1757  0.0694  0.0307
 1148W        W 2145   3.401   1.463   3.827 -0.1574  0.1755 -0.3452
 1149W        W 2146   3.130   5.334   3.070 -0.1607 -0.0994  0.0467
 1150W        W 2147   1.881   3.370   5.483  0.2996 -0.5083  0.0457
 1151W        W 2148   5.391   0.298   5.911 -0.1345 -0.1811  0.1589
 1152W        W 2149   6.502   5.852   0.572  0.2038  0.0903 -0.0047
 1153W        W 2150   5.631   4.533   0.854  0.0111  0.3769  0.0564
 1154W        W 2151   1.954   5.464   2.557 -0.0592  0.0372 -0.1177
 1155W        W 2152   1.637   5.553   5.652  0.0472 -0.0390  0.0936
 1156W        W 2153   6.233   4.330   0.087  0.2043 -0.0277 -0.0598
 1157W        W 2154   1.178   5.502   6.561  0.3209  0.0564 -0.1889
 1158W        W 2155   1.746   7.591   4.594  0.1511  0.1073 -0.0293
 1159W        W 2156   5.005   0.636   6.977 -0.0482 -0.0271 -0.3959
 1160W        W 2157   7.249   5.712   4.598  0.0683  0.2979 -0.1662
 1161W        W 2158   0.396   0.209   1.396 -0.0557 -0.4781 -0.0449
 1162W        W 2159   3.176   5.847   0.734 -0.1969 -0.1050  0.0148
 1163W        W 2160   4.858   5.302   4.359 -0.1687 -0.3677  0.0911
 1164W        W 2161   3.613   1.143   4.142 -0.2966  0.0297 -0.0648
 1165W        W 2162   4.044   6.566   1.353  0.0816 -0.0689 -0.0342
 1166W        W 2163   3.945   3.794   0.970 -0.1606 -0.0537 -0.0541
 1167W        W 2164   2.742   6.874   4.909 -0.2058 -0.0682  0.1800
 1168W        W 2165   4.767   6.738   5.517 -0.1689 -0.1600 -0.0165
 1169W        W 2166   1.020   4.800   6.980 -0.0305  0.1038 -0.0546
 1170W        W 2167   0.677   4.443   2.162  0.0709  0.2362 -0.3195
 1171W        W 2168   3.459   3.328   4.060 -0.0133 -0.0753 -0.0599
 1172W        W 2169   6.495   4.839   4.605  0.2255 -0.2206 -0.0103
 1173W        W 2170   5.364   4.495   4.565  0.3658  0.0921 -0.0739
 1174W        W 2171   7.053   4.060   4.387 -0.1306  0.0664  0.1121
 1175W        W 2172   3.753   2.367   3.448  0.0052  0.0109 -0.0168
 1176W        W 2173   6.766   3.343   5.689  0.0110  0.2055  0.0285
 1177W        W 2174   1.466   6.508   0.190 -0.1040 -0.0303 -0.2970
 1178W        W 2175   6.425   0.869   5.297  0.5100 -0.1068  0.1124
 1179W        W 2176   1.343   5.877   6.018  0.0883 -0.0737 -0.0712
 1180W        W 2177   1.637   5.809   5.187 -0.0445  0.4432 -0.0779
 1181W        W 2178   3.771   0.954   2.902  0.0258  0.0570 -0.2259
 1182W        W 2179   0.131   0.803   4.645 -0.0878  0.1572  0.0610
 1183W        W 2180   5.237   7.459   5.934 -0.2869 -0.0809 -0.1269
 1184W        W 2181   6.668   0.554   2.040 -0.0020  0.0779 -0.3811
 1185W        W 2182   4.374   0.263   2.437  0.2811  0.1211 -0.0817
 1186W        W 2183   0.542   4.414   7.642  0.0121  0.2132 -0.1157
 1187W        W 2184   4.456   0.337   0.737  0.2441  0.2679 -0.0889
 1188W        W 2185   0.289   5.050   5.344  0.2508  0.0068  0.2951
 1189W        W 2186   4.675   5.489   2.603 -0.1906  0.0764 -0.1139
 1190W        W 2187   5.218   4.847   0.612 -0.1888 -0.0131  0.3169
 1191W        W 2188   1.181   4.665   2.279  0.0493 -0.2769 -0.0315
 1192W        W 2189   5.370   2.113   1.912  0.1956 -0.2061 -0.2125
 1193W        W 2190   7.628   5.287   0.873  0.0868  0.4379 -0.0235
 1194W        W 2191   6.562   5.156   1.779 -0.0621 -0.0466 -0.0951
 1195W        W 2192   6.903   3.753   1.229  0.1239 -0.1587 -0.0143
 1196W        W 2193   2.332   0.489   4.238 -0.1315  0.2508  0.0541
 1197W        W 2194   7.169   4.251   6.919  0.2514 -0.3554  0.3248
 1198W        W 2195   2.557   6.867   0.565 -0.0484  0.0295 -0.1095
 1199W        W 2196   2.097   4.126   0.450  0.0325 -0.2545 -0.1546
 1200W        W 2197   5.285   6.599   3.330 -0.1427 -0.2443 -0.1314
 1201W        W 2198   1.231   4.551   0.493 -0.2299  0.2486  0.3426
 1202W        W 2199   0.510   3.664   5.273 -0.0989  0.0645 -0.0001
 1203W        W 2200   5.385   4.735   2.748  0.0390 -0.1451  0.0253
 1204W        W 2201   6.781   4.052   3.165  0.1333 -0.0712 -0.2438
 1205W        W 2202   0.101   0.596   3.861 -0.0356  0.0281 -0.1882
 1206W        W 2203   2.170   4.031   2.923  0.2850  0.1510  0.1542
 1207W        W 2204   1.107   5.188   5.570  0.0816 -0.1588 -0.3421
 1208W        W 2205   7.118   6.913   1.910  0.0635  0.3144 -0.2442
 1209W        W 2206   3.073   6.720   0.311  0.0368  0.2776 -0.1136
 1210W        W 2207   3.107   6.956   6.455  0.3589  0.0076 -0.0738
 1211W        W 2208   0.073   2.917   4.317  0.2423 -0.1422 -0.2642
 1212W        W 2209   0.060   3.363   1.307 -0.3868 -0.1431 -0.3979
 1213W        W 2210   7.637   0.009   3.450  0.0655 -0.1140  0.1598
 1214W        W 2211   5.138   0.164   6.977 -0.1805  0.0104 -0.0703
 1215W        W 2212   5.307   5.415   3.233 -0.1976  0.1483 -0.2085
 1216W        W 2213   5.716   1.537   1.039  0.3652  0.2229  0.3987
 1217W        W 2214   0.910   5.637   2.570 -0.0672 -0.0165 -0.2419
 1218W        W 2215   1.336   4.420   2.819  0.0392  0.0275 -0.3269
 1219W        W 2216   3.669   5.171   4.981  0.1719  0.0548  0.1591
 1220W        W 2217   4.735   3.423   5.161  0.1707 -0.3341 -0.0051
 1221W        W 2218   7.136   6.164   7.054  0.2451  0.1888  0.1331
 1222W        W 2219   7.038   7.258   7.126 -0.2293  0.5062 -0.1878
 1223W        W 2220   6.070   5.740   6.286  0.1444 -0.1110  0.2966
 1224W        W 2221   0.757   7.617   2.941  0.1766  0.2845  0.1725
 1225W        W 2222   7.168   4.242   7.498 -0.2293  0.1758 -0.0259
 1226W        W 2223   2.905   1.819   3.627 -0.2239  0.1746  0.2966
 1227W        W 2224   1.912   0.622   2.942  0.1925  0.0037  0.3417
 1228W        W 2225   5.900   2.720   4.501 -0.0107  0.3386 -0.2742
 1229W        W 2226   6.309   0.279   6.113 -0.0424 -0.0952 -0.1198
 1230W        W 2227   4.494   1.271   3.044 -0.2133 -0.0189 -0.1048
 1231W        W 2228   3.371   4.248   2.159  0.0491 -0.0936 -0.0455
 1232W        W 2229   5.197   4.456   5.454 -0.3138 -0.0616  0.1228
 1233W        W 2230   2.612   4.939   0.224 -0.2534  0.2117  0.3296
 1234W        W 2231   2.367   1.477   4.720  0.3557  0.0568  0.2603
 1235W        W 2232   6.954   5.084   6.368  0.1253 -0.0189  0.3143
 1236W        W 2233   6.330   5.781   4.851  0.1163  0.0765 -0.0210
 1237W        W 2234   6.319   2.974   4.513  0.0779  0.3279 -0.0875
 1238W        W 2235   4.042   1.063   5.044 -0.2669  0.1791 -0.2004
 1239W        W 2236   5.144   5.413   6.241  0.1192 -0.0880  0.0589
 1240W        W 2237   1.719   3.750   2.233 -0.0324 -0.0407  0.0589
 1241W        W 2238   5.539   6.328   2.979  0.0414  0.1685  0.0567
 1242W        W 2239   4.461   6.225   2.014  0.1714  0.1105  0.0452
 1243W        W 2240   2.495   3.769   7.408  0.1054 -0.2946  0.0317
 1244W        W 2241   6.310   1.356   4.826  0.0141  0.0039  0.1393
 1245W        W 2242   3.329   1.185   4.906 -0.1402 -0.2672 -0.1015
 1246W        W 2243   6.145   1.351   1.668  0.0585  0.1178  0.4360
 1247W        W 2244   7.560   3.902   4.210  0.1927  0.2135 -0.0589
 1248W        W 2245   6.513   0.132   3.437  0.2429 -0.1510 -0.0892
 1249W        W 2246   4.676   0.618   4.894 -0.0500 -0.0634 -0.0071
 1250W        W 2247   5.394   7.597   1.763 -0.0139  0.0548 -0.2656
 1251W        W 2248   6.881   4.890   4.155  0.1989 -0.0404  0.3790
 1252W        W 2249   4.391   4.313   7.496 -0.0480 -0.0350 -0.0721
 1253W        W 2250   2.003   2.836   5.260 -0.1422 -0.1207  0.0881
 1254W        W 2251   4.354   7.498   7.440  0.0089 -0.0209 -0.0073
 1255W        W 2252   4.086   3.595   7.337 -0.2428  0.2778 -0.1579
 1256W        W 2253   5.733   3.152   1.033 -0.1522 -0.0083 -0.0307
 1257W        W 2254   5.842   6.333   1.415  0.3850 -0.2324  0.2513
 1258W        W 2255   3.901   1.778   3.440  0.0234 -0.0170 -0.3677
 1259W        W 2256   4.653   2.371   2.337  0.3452  0.2334 -0.1678
 1260W        W 2257   1.337   4.239   5.739 -0.0507  0.2099 -0.0947
 1261W        W 2258   1.258   3.835   7.336 -0.0903  0.1281 -0.2606
 1262W        W 2259   0.759   5.566   6.718  0.1176  0.2561 -0.1792
 1263W        W 2260   5.893   3.822   4.443 -0.0236  0.1265 -0.0498
 1264W        W 2261   6.110   3.856   0.778 -0.1697  0.1133 -0.0407
 1265W        W 2262   5.173   2.117   6.246  0.0759 -0.0966 -0.0122
 1266W        W 2263   2.315   3.954   4.280  0.0712 -0.1208  0.2042
 1267W        W 2264   7.020   6.447   6.627  0.1498 -0.0931 -0.1114
 1268W        W 2265   4.517   4.715   0.159 -0.0561 -0.2035 -0.0169
 1269W        W 2266   2.536   5.801   6.091  0.2091  0.2233 -0.2574
 1270W        W 2267   5.583   4.439   5.030 -0.0850  0.1173 -0.0658
 1271W        W 2268   5.772   4.399   5.660  0.1275  0.0375 -0.0385
 1272W        W 2269   1.213   6.328   4.714 -0.1474  0.0383 -0.2245
 1273W        W 2270   6.788   3.097   2.878 -0.2211  0.1398 -0.0136
 1274W        W 2271   5.377   5.866   7.517 -0.0093  0.0981  0.2645
 1275W        W 2272   5.113   5.544   3.978  0.1398  0.2148  0.2003
 1276W        W 2273   3.904   3.601   4.949 -0.3308 -0.3391  0.1949
 1277W        W 2274   1.763   6.011   2.892  0.2449 -0.0604 -0.1347
 1278W        W 2275   2.031   4.387   5.119 -0.3535  0.2503 -0.1157
 1279W        W 2276   3.902   6.897   0.981 -0.1080 -0.2018 -0.2551
 1280W        W 2277   4.663   4.433   5.133  0.0055  0.3299  0.1270
 1281W        W 2278   4.026   5.097   4.182 -0.0139  0.0346  0.2214
 1282W        W 2279   0.549   6.456   1.608 -0.3010 -0.1079 -0.3606
 1283W        W 2280   3.014   4.964   3.417 -0.2721 -0.0682 -0.0937
 1284W        W 2281   4.497   5.704   0.220  0.1393 -0.1022  0.2175
 1285W        W 2282   5.479   7.438   6.885 -0.0744 -0.2673 -0.0836
 1286W        W 2283   4.956   6.957   2.481  0.2414 -0.2015 -0.0565
 1287W        W 2284   3.165   6.439   6.370 -0.0238  0.2021  0.2682
 1288W        W 2285   4.379   4.109   4.640 -0.0675 -0.1548  0.3370
 1289W        W 2286   4.329   3.586   4.013 -0.0689  0.2465  0.3059
 1290W        W 2287   3.418   1.778   3.406 -0.3240 -0.1971  0.1385
 1291W        W 2288   4.013   4.035   5.971  0.0859 -0.2447 -0.2356
 1292W        W 2289   4.602   7.448   4.758  0.2355 -0.0717  0.2106
 1293W        W 2290   1.297   3.317   7.140  0.0144 -0.3797 -0.0311
 1294W        W 2291   5.221   7.573   3.108  0.1207 -0.1333 -0.1475
 1295W        W 2292   6.656   4.649   6.249  0.0201  0.0696  0.3732
 1296W        W 2293   6.498   1.917   0.888 -0.1499  0.2373  0.0352
 1297W        W 2294   6.899   5.353   2.626 -0.1869  0.0600 -0.2734
 1298W        W 2295   0.276   6.717   4.364 -0.0533  0.2274  0.1713
 1299W        W 2296   7.205   3.498   5.261  0.3097 -0.1709 -0.1248
 1300W        W 2297   2.309   7.525   1.248 -0.3595  0.0492  0.0426
 1301W        W 2298   6.482   4.914   7.297  0.1366  0.0843 -0.1252
 1302W        W 2299   0.289   1.102   3.405  0.1879 -0.1372 -0.0957
 1303W        W 2300   4.870   6.323   1.775  0.0768  0.0140  0.1452
 1304W        W 2301   2.730   3.910   5.628 -0.2428 -0.0422  0.1621
 1305W        W 2302   2.820   7.003   2.191 -0.1220 -0.0402 -0.0428
 1306W        W 2303   5.188   1.082   0.714  0.0569  0.1150 -0.2693
 1307W        W 2304   4.514   3.641   7.008  0.0908 -0.1315  0.0714
 1308W        W 2305   0.630   2.518   2.936  0.3258  0.2685  0.2618
 1309W        W 2306   5.638   0.385   3.741 -0.3263 -0.3172  0.2240
 1310W        W 2307   3.067   4.786   1.155  0.2166  0.0520 -0.1918
 1311W        W 2308   4.213   5.311   0.985  0.2051  0.1671 -0.1035
 1312W        W 2309   3.703   0.734   4.759  0.2799 -0.1964 -0.0893
 1313W        W 2310   0.740   5.542   3.478 -0.0944  0.2248  0.0976
 1314W        W 2311   6.727   7.315   4.800 -0.2239  0.0561  0.2042
 1315W        W 2312   0.146   4.970   3.611  0.1550  0.0409 -0.0552
 1316W        W 2313   4.973   3.875   0.653 -0.1919 -0.0681  0.0178
 1317W        W 2314   5.494   2.180   2.821 -0.0902 -0.1111  0.0475
 1318W        W 2315   2.302   0.029   1.689  0.1500 -0.1238 -0.0451
 1319W        W 2316   4.242   4.438   0.533  0.2609 -0.1602  0.4349
 1320W        W 2317   5.944   6.036   5.049  0.0244 -0.1235  0.3490
 1321W        W 2318   4.959   1.686   1.573 -0.1055  0.0401 -0.0677
 1322W        W 2319   4.024   3.555   3.084 -0.0959 -0.1934  0.0930
 1323W        W 2320   7.458   5.227   4.574  0.0471 -0.0433 -0.0768
 1324W        W 2321   3.990   4.953   6.891 -0.2647 -0.1325 -0.0789
 1325W        W 2322   6.182   3.087   6.976  0.1598 -0.1308  0.1171
 1326W        W 2323   5.489   0.949   6.987 -0.2108 -0.2171  0.0241
 1327W        W 2324   4.745   4.294   1.701  0.1446 -0.0657 -0.1987
 1328W        W 2325   5.859   1.221   2.553 -0.1098  0.1087 -0.1421
 1329W        W 2326   5.651   6.038   2.252  0.0665  0.0362 -0.1449
 1330W        W 2327   2.888   5.141   4.530  0.0861  0.2140 -0.2013
 1331W        W 2328   5.098   3.151   0.219 -0.1665 -0.0122  0.1055
 1332W        W 2329   5.502   0.200   4.603 -0.0799  0.0306  0.0720
 1333W        W 2330   5.436   2.036   5.224  0.1171  0.1034 -0.0888
 1334W        W 2331   4.587   2.390   1.847 -0.0675 -0.0922 -0.0222
 1335W        W 2332   0.236   6.184   4.521 -0.2975  0.0509  0.0963
 1336W        W 2333   3.305   0.319   3.615  0.0382  0.0668  0.2448
 1337W        W 2334   1.010   4.232   6.237  0.0002 -0.0731  0.1317
 1338W        W 2335   5.956   3.081   4.102  0.2174  0.2102  0.2073
 1339W        W 2336   5.792   2.307   0.572  0.1743  0.0857 -0.0147
 1340W        W 2337   5.983   5.085   5.611  0.4026 -0.0353 -0.0204
 1341W        W 2338   0.244   1.247   2.672  0.2503 -0.4930 -0.1503
 1342W        W 2339   1.647   3.615   4.162 -0.1282  0.2415  0.0176
 1343W        W 2340   3.286   6.907   4.669 -0.0526 -0.1029 -0.1118
 1344W        W 2341   0.158   3.896   3.344 -0.1397 -0.2097  0.2314
 1345W        W 2342   4.758   5.977   2.663 -0.2465  0.0599  0.2197
 1346W        W 2343   3.500   4.102   5.914 -0.0962 -0.1751  0.0695
 1347W        W 2344   5.293   2.419   0.657 -0.3186  0.0342  0.2171
 1348W        W 2345   3.370   2.329   3.207  0.2645  0.0629 -0.2582
 1349W        W 2346   3.615   4.121   5.074 -0.1335  0.0191 -0.0436
 1350W        W 2347   0.384   2.878   5.321  0.2403 -0.2394 -0.1271
 1351W        W 2348   4.697   7.279   5.661  0.2631 -0.0987  0.1554
 1352W        W 2349   4.849   2.411   4.251  0.0724 -0.1960  0.1352
 1353W        W 2350   0.489   3.458   2.651 -0.0116  0.0700  0.4308
 1354W        W 2351   5.044   3.298   2.573  0.0529  0.0330 -0.1467
 1355W        W 2352   5.094   5.542   7.088 -0.2530  0.0306  0.2011
 1356W        W 2353   6.446   0.886   4.733 -0.0334  0.2439  0.0016
 1357W        W 2354   6.865   5.944   4.870 -0.0610 -0.1082 -0.0081
 1358W        W 2355   2.125   5.289   7.364  0.1345 -0.5041 -0.0820
 1359W        W 2356   4.542   7.496   0.626 -0.0448  0.0081  0.1080
 1360W        W 2357   6.578   6.932   6.186 -0.3746  0.0582  0.1670
 1361W        W 2358   4.921   5.541   7.650 -0.1418 -0.1901 -0.1487
 1362W        W 2359   3.573   4.090   0.045 -0.0690 -0.1526 -0.0589
 1363W        W 2360   0.860   6.291   6.068  0.1031  0.2035 -0.1711
 1364W        W 2361   7.477   4.344   4.981  0.0250 -0.0016  0.2098
 1365W        W 2362   0.039   5.089   7.104 -0.1150  0.0306  0.1959
 1366W        W 2363   4.422   3.192   7.282  0.0554 -0.0688 -0.1555
 1367W        W 2364   2.981   4.330   5.908  0.0405  0.4582 -0.1676
 1368W        W 2365   4.937   2.868   7.332 -0.0807 -0.1359  0.0846
 1369W        W 2366   4.193   5.651   5.499 -0.2441  0.1569 -0.0787
 1370W        W 2367   2.754   5.248   3.725 -0.3504  0.1184  0.0565
 1371W        W 2368   0.031   5.180   2.423 -0.1446  0.0715 -0.3155
 1372W        W 2369   6.245   3.483   1.798 -0.0964 -0.1317  0.0979
 1373W        W 2370   4.655   0.020   0.164 -0.1414  0.0186 -0.0528
 1374W        W 2371   2.393   5.669   3.837  0.0087  0.1725  0.2069
 1375W        W 2372   4.317   4.351   3.522 -0.0682 -0.1405  0.1191
 1376W        W 2373   0.557   3.128   3.600  0.0740  0.0585 -0.1266
 1377W        W 2374   0.553   0.843   2.464  0.0953 -0.3100 -0.2268
 1378W        W 2375   5.565   6.496   2.421  0.1416 -0.2930  0.3360
 1379W        W 2376   1.496   3.434   5.108  0.1025  0.0509 -0.1659
 1380W        W 2377   4.812   6.280   6.829  0.4196 -0.2197  0.0339
 1381W        W 2378   5.645   1.364   4.117  0.0024 -0.1119  0.0100
 1382W        W 2379   0.775   2.716   5.000 -0.0135  0.4486 -0.1362
 1383W        W 2380   1.689   4.855   6.136 -0.0813  0.1994  0.0905
 1384W        W 2381   6.075   6.820   3.949  0.0158  0.2932  0.2030
 1385W        W 2382   4.329   4.241   6.426 -0.2894 -0.1175 -0.0697
 1386W        W 2383   0.042   3.659   3.830  0.1481  0.0896 -0.1141
 1387W        W 2384   6.962   6.775   1.050 -0.0884 -0.0710  0.3345
 1388W        W 2385   5.540   5.740   6.229 -0.2989 -0.3883 -0.2708
 1389W        W 2386   2.361   6.550   1.824  0.2235 -0.0515  0.1180
 1390W        W 2387   6.615   6.318   7.181  0.2589  0.2721 -0.2025
 1391W        W 2388   3.864   7.345   2.990 -0.0471 -0.2274 -0.0431
 1392W        W 2389   4.326   2.404   5.216 -0.0351 -0.4207  0.3040
 1393W        W 2390   3.727   2.491   4.523  0.0515  0.1193 -0.1034
 1394W        W 2391   3.973   4.449   0.087 -0.0569 -0.0935 -0.1639
 1395W        W 2392   4.542   6.596   4.180 -0.0472  0.0854 -0.1237
 1396W        W 2393   7.169   1.736   3.084 -0.0939 -0.0500 -0.1063
 1397W        W 2394   7.477   2.771   5.275 -0.6079 -0.0331  0.1466
 1398W        W 2395   4.343   6.038   5.881  0.0408  0.1075  0.2520
 1399W        W 2396   3.091   7.555   5.289  0.0700 -0.2114 -0.2761
 1400W        W 2397   7.040   5.259   0.912  0.1823 -0.3421 -0.0589
 1401W        W 2398   3.586   5.180   6.616 -0.1201 -0.1344  0.0728
 1402W        W 2399   4.830   3.089   3.120  0.1905 -0.0068 -0.0049
 1403W        W 2400   5.583   0.792   0.907 -0.0591  0.0324  0.0318
 1404W        W 2401   6.855   5.923   3.591  0.0192  0.0515 -0.1804
 1405W        W 2402   3.969   6.464   7.629 -0.4784  0.0681  0.0127
 1406W        W 2403   7.311   5.046   6.727 -0.3074 -0.2714  0.0758
 1407W        W 2404   4.989   1.703   7.378 -0.2592  0.1338 -0.0833
 1408W        W 2405   3.683   4.584   1.810 -0.3478 -0.1259 -0.0171
 1409W        W 2406   0.120   3.635   2.928  0.0564  0.1020  0.0028
 1410W        W 2407   5.725   5.346   1.501  0.1744 -0.0491  0.0976
 1411W        W 2408   4.002   1.955   5.174  0.0470  0.0104 -0.1467
 1412W        W 2409   7.011   2.335   2.215 -0.0460  0.3286 -0.0502
 1413W        W 2410   6.118   7.061   3.431 -0.0219  0.4060 -0.0313
 1414W        W 2411   5.691   0.057   7.400 -0.0951 -0.3264  0.0618
 1415W        W 2412   2.260   4.971   6.842 -0.5528 -0.0468  0.1435
 1416W        W 2413   1.689   3.133   4.028 -0.0716  0.0475 -0.1654
 1417W        W 2414   2.807   3.517   4.781  0.0386 -0.0800 -0.2002
 1418W        W 2415   5.433   6.073   4.852 -0.4372 -0.2856  0.2671
 1419W        W 2416   4.863   6.038   7.334  0.1380 -0.0668  0.2649
 1420W        W 2417   0.898   5.205   6.124  0.1493  0.1419  0.2311
 1421W        W 2418   4.929   4.274   4.725  0.0957 -0.0713  0.3842
 1422W        W 2419   7.578   5.381   3.225 -0.3190  0.3253 -0.3314
 1423W        W 2420   7.533   5.307   6.312  0.0649  0.1532  0.2024
 1424W        W 2421   1.641   1.688   3.228 -0.0252  0.2380  0.1796
 1425W        W 2422   7.469   6.087   4.271  0.2057  0.0238  0.2287
 1426W        W 2423   3.901   4.030   3.244 -0.3606 -0.2898 -0.0995
 1427W        W 2424   2.887   5.777   6.947  0.0844 -0.1709 -0.0924
 1428W        W 2425   1.873   3.769   0.711 -0.1613  0.1497  0.2134
 1429W        W 2426   2.313   0.115   3.886  0.0005  0.2100 -0.2308
 1430W        W 2427   4.264   6.523   0.921 -0.0020  0.0995  0.0865
 1431W        W 2428   4.061   2.228   2.274 -0.0150  0.1743 -0.2951
 1432W        W 2429   2.244   4.884   3.786  0.0636  0.2351  0.1217
 1433W        W 2430   0.738   4.813   1.175  0.2060  0.1566  0.0110
 1434W        W 2431   5.846   0.545   1.305  0.2632  0.0876  0.0328
 1435W        W 2432   1.752   4.080   4.330 -0.5014 -0.2188  0.0037
 1436W        W 2433   7.361   0.631   5.527  0.0740 -0.0882  0.0075
 1437W        W 2434   5.110   1.255   1.637  0.2099  0.2977 -0.2506
 1438W        W 2435   3.308   4.839   4.853 -0.3483 -0.3099  0.1344
 1439W        W 2436   0.113   2.329   3.109 -0.0817 -0.1781 -0.0768
 1440W        W 2437   6.042   4.675   7.368  0.2026  0.0045  0.1234
 1441W        W 2438   4.774   2.415   4.821 -0.1176 -0.0991  0.2698
 1442W        W 2439   3.383   4.463   1.343  0.1579  0.2545 -0.0397
 1443W        W 2440   1.851   5.659   0.137  0.1393  0.0568  0.0862
 1444W        W 2441   3.229   3.563   2.672 -0.1488 -0.0153 -0.2099
 1445W        W 2442   5.626   0.488   1.857 -0.2056  0.1745  0.0053
 1446W        W 2443   2.334   4.028   1.012  0.1475 -0.1790  0.0321
 1447W        W 2444   1.972   4.364   0.858  0.0065 -0.4393  0.0267
 1448W        W 2445   0.909   4.427   3.145 -0.2028 -0.2240 -0.2653
 1449W        W 2446   3.978   1.383   3.058 -0.1222 -0.0222 -0.1755
 1450W        W 2447   4.348   1.393   2.162  0.0427 -0.1787  0.0697
 1451W        W 2448   5.867   4.285   4.633 -0.0545 -0.0376  0.1384
 1452W        W 2449   3.507   0.807   3.598  0.4694 -0.0387  0.0901
 1453W        W 2450   5.941   5.552   1.896  0.2943 -0.1579  0.0770
 1454W        W 2451   4.758   5.776   4.274  0.1397  0.2736  0.2215
 1455W        W 2452   4.025   2.793   4.276  0.0577 -0.2425  0.2204
 1456W        W 2453   4.072   5.329   6.544  0.0102 -0.0704 -0.1048
 1457W        W 2454   7.260   4.655   0.118 -0.1738 -0.1477  0.3325
 1458W        W 2455   5.456   2.919   5.803  0.1963 -0.2788  0.3166
 1459W        W 2456   3.312   7.207   3.104  0.0757 -0.3259  0.0946
 1460W        W 2457   0.344   5.041   2.826  0.4820  0.2965 -0.1634
 1461W        W 2458   6.993   6.047   1.153  0.0493 -0.1978  0.0099
 1462W        W 2459   1.479   5.424   1.639  0.1024  0.0856 -0.0382
 1463W        W 2460   7.005   0.719   5.163 -0.4191  0.0995  0.0032
 1464W        W 2461   6.365   1.913   4.762  0.1896 -0.0039 -0.0451
 1465W        W 2462   6.796   5.142   1.308 -0.0583 -0.1235  0.0388
 1466W        W 2463   6.125   7.208   4.912  0.0293 -0.1461  0.1452
 1467W        W 2464   7.417   7.239   0.369  0.0456  0.2700 -0.2787
 1468W        W 2465   6.750   1.997   3.807  0.2622  0.0171 -0.1558
 1469W        W 2466   4.617   1.057   3.530  0.0796  0.0362 -0.2640
 1470W        W 2467   2.927   4.003   3.536 -0.4272 -0.0532 -0.0050
 1471W        W 2468   4.606   5.517   6.432  0.0287  0.1522 -0.1170
 1472W        W 2469   6.696   3.581   3.111 -0.2059  0.1985  0.2126
 1473W        W 2470   7.485   5.386   1.933  0.0717  0.2910 -0.1237
 1474W        W 2471   6.637   4.063   5.036  0.0621 -0.1044 -0.0489
 1475W        W 2472   2.461   5.354   2.669  0.3525 -0.1907  0.3711
 1476W        W 2473   6.746   5.918   0.007  0.0761 -0.0364  0.1787
 1477W        W 2474   0.376   6.186   7.455 -0.0499  0.1119 -0.0626
 1478W        W 2475   0.346   7.291   2.033 -0.3039  0.0005 -0.1538
 1479W        W 2476   1.068   5.274   2.282  0.1985  0.1202  0.2141
 1480W        W 2477   2.195   4.893   5.078 -0.3266 -0.0474  0.1674
 1481W        W 2478   6.770   0.872   5.622  0.1317  0.2926 -0.1060
 1482W        W 2479   3.197   2.224   3.674 -0.0970 -0.1093  0.3173
 1483W        W 2480   4.815   0.091   2.806  0.1466 -0.2579  0.0582
 1484W        W 2481   6.564   0.387   0.980 -0.0330 -0.2264 -0.0309
 1485W        W 2482   0.948   6.546   0.790 -0.1970 -0.2177  0.0059
 1486W        W 2483   6.130   5.215   6.933  0.1497 -0.0607 -0.1327
 1487W        W 2484   7.550   0.485   1.442  0.1163  0.0644  0.1009
 1488W        W 2485   4.794   5.117   1.483  0.1906 -0.1185  0.1379
 1489W        W 2486   6.654   4.386   6.750 -0.0916  0.3908 -0.0012
 1490W        W 2487   6.190   6.583   1.696 -0.0382 -0.3491 -0.0140
 1491W        W 2488   2.035   5.111   2.943 -0.2424  0.1891  0.2260
 1492W        W 2489   1.829   7.433   1.787  0.3172 -0.0609 -0.0483
 1493W        W 2490   4.603   0.622   6.633 -0.1953  0.1827  0.2395
 1494W        W 2491   3.226   5.672   0.107  0.1273 -0.1568  0.1940
 1495W        W 2492   7.509   6.452   6.785  0.0142  0.1270  0.0065
 1496W        W 2493   2.024   0.888   3.325  0.0313 -0.1129 -0.1030
 1497W        W 2494   6.300   1.260   7.473 -0.1494 -0.3158  0.5474
 1498W        W 2495   6.173   5.725   4.379  0.1630  0.1639 -0.2848
 1499W        W 2496   4.209   4.654   5.373  0.2173  0.0553  0.2469
 1500W        W 2497   0.706   7.449   1.089  0.2221 -0.1379 -0.2328
 1501W        W 2498   1.688   4.908   1.627  0.0911 -0.0148 -0.0724
 1502W        W 2499   5.546   0.627   6.272 -0.1930  0.1519  0.0197
 1503W        W 2500   6.679   1.748   0.220 -0.2393  0.0865  0.0289
 1504W        W 2501   3.498   6.429   2.659  0.0263 -0.0475  0.0836
 1505W        W 2502   6.928   0.370   5.645  0.2761 -0.2112  0.0578
 1506W        W 2503   2.498   6.858   0.060  0.2123  0.2093  0.1821
 1507W        W 2504   5.847   6.550   6.627  0.1955  0.0930 -0.3118
 1508W        W 2505   1.142   1.999   3.341 -0.1906  0.1683 -0.0519
 1509W        W 2506   4.869   3.716   3.459 -0.0754  0.0350  0.1273
 1510W        W 2507   4.721   7.262   1.117  0.3112 -0.0814 -0.2925
 1511W        W 2508   6.129   4.413   3.682  0.2695 -0.1544 -0.2488
 1512W        W 2509   5.144   1.667   4.818 -0.1669  0.3224 -0.1412
 1513W        W 2510   5.841   5.980   3.865  0.2123  0.1516  0.1782
 1514W        W 2511   1.347   7.070   3.265  0.1746  0.2296  0.0179
 1515W        W 2512   4.102   6.895   3.077 -0.0364 -0.0321 -0.0819
 1516W        W 2513   6.929   4.882   3.626  0.3478 -0.1921  0.0220
 1517W        W 2514   3.779   5.935   3.261  0.0374 -0.1899  0.1416
 1518W        W 2515   2.718   5.973   3.115  0.0244  0.1458 -0.0690
 1519W        W 2516   0.487   3.682   3.657 -0.2319  0.0967 -0.3044
 1520W        W 2517   6.737   7.372   6.354  0.1144  0.0158 -0.1683
 1521W        W 2518   7.022   3.063   3.797  0.2283  0.0130  0.2267
 1522W        W 2519   2.997   5.194   0.831 -0.0250  0.1518 -0.2370
 1523W        W 2520   5.262   1.645   5.999 -0.0544  0.2335  0.0063
 1524W        W 2521   2.933   5.188   2.631  0.0384  0.0436  0.1178
 1525W        W 2522   4.023   6.405   4.245 -0.0555  0.1504 -0.1886
 1526W        W 2523   5.876   2.386   1.117  0.0906  0.2304 -0.0005
 1527W        W 2524   4.397   5.944   1.101  0.0502 -0.2737  0.5731
 1528W        W 2525   6.159   6.430   7.006 -0.0107 -0.0832 -0.0074
 1529W        W 2526   4.335   6.914   1.219 -0.3620  0.0436 -0.1668
 1530W        W 2527   6.863   1.171   7.333  0.0523 -0.0510  0.0003
 1531W        W 2528   3.715   1.214   4.638  0.2359  0.0431 -0.2601
 1532W        W 2529   2.039   5.113   0.239 -0.1449 -0.2803  0.2653
 1533W        W 2530   5.112   4.348   7.045 -0.0476  0.0366 -0.0358
 1534W        W 2531   4.472   6.313   0.470 -0.2712 -0.0091  0.1785
 1535W        W 2532   7.036   1.254   3.975  0.1258  0.0957  0.0780
 1536W        W 2533   7.033   1.927   4.674 -0.0098  0.1652 -0.3182
 1537W        W 2534   6.055   4.367   6.884  0.0555  0.0050  0.4864
 1538W        W 2535   4.102   5.835   7.454  0.3001 -0.0321 -0.0110
 1539W        W 2536   5.845   5.678   7.352  0.0516  0.3055 -0.0331
 1540W        W 2537   5.157   1.749   6.840  0.1327 -0.2133 -0.0948
 1541W        W 2538   4.282   0.449   3.523 -0.3255  0.0900  0.1927
 1542W        W 2539   3.955   7.375   1.163 -0.0472  0.0227 -0.1486
 1543W        W 2540   3.852   6.142   7.099 -0.1584 -0.3864 -0.3962
 1544W        W 2541   6.296   5.876   3.407  0.0639 -0.1332 -0.1158
 1545W        W 2542   4.877   3.790   1.161  0.3381 -0.0577 -0.5027
 1546W        W 2543   3.116   4.336   3.193  0.2168  0.3223  0.1073
 1547W        W 2544   1.903   5.382   0.662  0.1604  0.1818 -0.2554
 1548W        W 2545   0.234   5.657   1.069 -0.1805  0.0548  0.0201
 1549W        W 2546   1.008   6.035   0.468 -0.2482 -0.1767  0.6275
 1550W        W 2547   4.653   7.155   2.023 -0.0005  0.0803 -0.0362
 1551W        W 2548   4.988   4.809   4.442 -0.1816  0.2785 -0.0624
 1552W        W 2549   2.021   6.611   0.218 -0.1531 -0.0318 -0.1423
 1553W        W 2550   6.411   7.352   5.703 -0.1781 -0.0096 -0.1071
 1554W        W 2551   6.204   1.767   4.257 -0.3356  0.0006 -0.0449
 1555W        W 2552   3.420   2.696   3.624  0.1168 -0.1515  0.4866
 1556W        W 2553   3.456   4.458   4.589 -0.1613  0.1224 -0.0280
 1557W        W 2554   5.914   0.436   5.820 -0.1377  0.0866 -0.1380
 1558W        W 2555   1.771   4.521   5.717 -0.1544 -0.0147 -0.1401
 1559W        W 2556   1.984   3.970   3.855  0.4884 -0.0107 -0.1464
 1560W        W 2557   2.207   1.686   3.883 -0.0546 -0.0552  0.1798
 1561W        W 2558   2.541   4.090   0.200 -0.0702 -0.0855  0.3174
 1562W        W 2559   2.011   3.307   4.981  0.1363  0.1149  0.1705
 1563W        W 2560   6.965   1.633   1.740  0.1570  0.1318 -0.3576
 1564W        W 2561   5.263   6.122   2.586 -0.0441  0.1082  0.2205
 1565W        W 2562   7.414   7.365   4.298  0.1677  0.0087  0.0667
 1566W        W 2563   2.506   2.086   3.529 -0.2421 -0.2585 -0.0257
 1567W        W 2564   4.435   6.695   3.511  0.0898  0.2155  0.0635
 1568W        W 2565   3.406   3.074   2.763 -0.0601 -0.0080  0.0200
 1569W        W 2566   4.368   6.796   1.745  0.1381  0.0474  0.1981
 1570W        W 2567   6.680   3.194   1.863  0.0863  0.0034 -0.2241
 1571W        W 2568   2.459   4.839   2.652 -0.0378  0.1171 -0.1905
 1572W        W 2569   0.688   0.682   3.407 -0.0975  0.2854 -0.0521
 1573W        W 2570   4.623   3.763   2.542 -0.1102  0.1324  0.1262
 1574W        W 2571   0.251   4.212   2.079  0.0791  0.1547 -0.1964
 1575W        W 2572   3.363   3.279   6.708 -0.2299 -0.0269 -0.0878
 1576W        W 2573   5.602   6.665   0.230  0.3272  0.0164 -0.2260
 1577W        W 2574   0.644   7.503   1.623  0.2378  0.2589  0.4000
 1578W        W 2575   3.574   3.934   2.855 -0.0783  0.3919 -0.0367
 1579W        W 2576   0.673   4.258   4.028  0.2089  0.1212  0.0311
 1580W        W 2577   1.351   5.096   6.697  0.0709  0.1939 -0.0773
 1581W        W 2578   3.070   7.510   3.544 -0.0707 -0.4069 -0.0638
 1582W        W 2579   6.284   6.273   0.563 -0.1617  0.0988  0.0128
 1583W        W 2580   7.294   4.006   3.252  0.2038 -0.2090 -0.0432
 1584W        W 2581   1.406   1.082   1.691  0.1865  0.0656  0.1955
 1585W        W 2582   3.446   4.931   1.477  0.0784 -0.1839 -0.0732
 1586W        W 2583   2.458   3.779   3.733  0.0478  0.0444  0.1998
 1587W        W 2584   3.429   7.257   6.174  0.0037 -0.2113  0.0854
 1588W        W 2585   7.617   2.929   7.524  0.1400 -0.2183 -0.0660
 1589W        W 2586   1.967   0.538   4.602  0.2863 -0.0245 -0.0523
 1590W        W 2587   4.799   4.238   3.373 -0.3064  0.3854 -0.1817
 1591W        W 2588   2.838   7.401   1.409  0.0119  0.1454  0.1286
 1592W        W 2589   5.300   2.259   7.312 -0.0946 -0.2341  0.0683
 1593W        W 2590   5.640   5.894   4.319  0.0803 -0.0684 -0.1308
 1594W        W 2591   1.475   6.778   4.001  0.0031 -0.0884  0.3616
 1595W        W 2592   1.112   6.077   2.345  0.1996  0.0617 -0.0782
 1596W        W 2593   1.104   5.480   5.113  0.3289  0.2040 -0.3022
 1597W        W 2594   6.294   2.411   1.620 -0.2889  0.1123  0.2376
 1598W        W 2595   7.190   5.505   6.805  0.3605 -0.1162 -0.0569
 1599W        W 2596   0.589   5.378   4.291  0.1161 -0.0058 -0.1642
 1600W        W 2597   2.820   7.301   5.752  0.0233 -0.2148 -0.3997
 1601W        W 2598   2.337   1.472   2.575 -0.1416  0.1729  0.2962
 1602W        W 2599   6.402   2.989   7.441 -0.2895 -0.1927  0.0061
 1603W        W 2600   0.537   5.587   1.522 -0.0000 -0.1411  0.1016
 1604W        W 2601   4.862   0.149   1.043  0.3780  0.2972  0.0955
 1605W        W 2602   1.405   3.343   2.384 -0.0830  0.4316 -0.0882
 1606W        W 2603   0.724   4.972   2.078  0.0627  0.0054 -0.0936
 1607W        W 2604   4.539   0.672   7.175  0.1348  0.1015 -0.1860
 1608W        W 2605   1.659   6.206   6.189 -0.2842  0.3238 -0.1621
 1609W        W 2606   5.164   6.345   0.512 -0.4204 -0.3419  0.0070
 1610W        W 2607   7.403   3.289   4.073 -0.0516 -0.1417  0.2190
 1611W        W 2608   7.458   4.073   5.530  0.3583 -0.0298 -0.1014
 1612W        W 2609   2.650   4.552   6.516  0.2706  0.1879  0.1502
 1613W        W 2610   5.970   2.696   5.805 -0.0788  0.2590  0.0787
 1614W        W 2611   0.945   6.723   3.276 -0.2330  0.0496  0.1084
 1615W        W 2612   1.473   6.581   1.626 -0.1955 -0.0793  0.0443
 1616W        W 2613   6.697   3.740   1.780  0.0878  0.4369  0.3211
 1617W        W 2614   6.679   5.446   4.632 -0.1516  0.1364  0.2430
 1618W        W 2615   4.766   5.022   3.941  0.0600  0.0257 -0.2331
 1619W        W 2616   6.176   1.962   3.273  0.2244  0.0115 -0.0943
 1620W        W 2617   3.875   4.389   0.856  0.0985 -0.1437 -0.1895
 1621W        W 2618   5.389   4.162   6.653  0.1312 -0.1728  0.0690
 1622W        W 2619   0.258   0.625   1.842 -0.2361 -0.0159 -0.1625
 1623W        W 2620   2.383   0.668   3.719 -0.0394  0.0918 -0.0185
 1624W        W 2621   1.891   6.193   0.473  0.0456  0.2271 -0.0001
 1625W        W 2622   1.382   4.133   2.200  0.0071  0.0450  0.1901
 1626W        W 2623   3.853   7.412   3.920  0.0574 -0.0149 -0.1530
 1627W        W 2624   3.933   6.759   0.455 -0.0112  0.0041  0.2208
 1628W        W 2625   1.793   6.885   3.098  0.3392 -0.1575 -0.2788
 1629W        W 2626   4.413   5.191   5.607 -0.1090 -0.2388 -0.0518
 1630W        W 2627   1.059   0.576   4.466  0.1909 -0.0674  0.3294
 1631W        W 2628   5.224   2.142   4.839  0.3818  0.0853 -0.1951
 1632W        W 2629   3.636   6.354   6.508  0.0942  0.2316 -0.2561
 1633W        W 2630   1.774   2.501   4.968 -0.1416 -0.1218  0.0224
 1634W        W 2631   3.582   6.392   1.466  0.0038  0.1804 -0.0907
 1635W        W 2632   4.261   5.042   0.515 -0.3468  0.1457  0.0600
 1636W        W 2633   1.604   3.926   6.094 -0.1162 -0.2715  0.4460
 1637W        W 2634   4.490   7.034   3.822 -0.1550  0.5788 -0.2420
 1638W        W 2635   7.437   5.786   0.921 -0.1576  0.1366 -0.1042
 1639W        W 2636   3.107   5.056   0.028  0.4087  0.0472 -0.2720
 1640W        W 2637   1.895   5.762   3.540  0.3130  0.0945 -0.2465
 1641W        W 2638   4.061   4.963   0.024  0.1446 -0.3890  0.0232
 1642W        W 2639   7.016   4.500   3.319 -0.0279  0.2639  0.3052
 1643W        W 2640   3.077   4.476   6.885  0.3275  0.2226  0.6951
 1644W        W 2641   4.643   2.899   1.003 -0.2648 -0.0804 -0.1123
 1645W        W 2642   1.492   3.530   0.001  0.1490  0.2052  0.2920
 1646W        W 2643   6.647   6.108   6.700 -0.0761 -0.0481 -0.2788
 1647W        W 2644   4.446   2.281   6.113 -0.2917 -0.0731  0.0446
 1648W        W 2645   6.906   6.000   2.694 -0.3633  0.1424 -0.1691
 1649W        W 2646   0.720   6.386   4.483 -0.0892  0.1033 -0.2644
 1650W        W 2647   6.306   7.643   5.112 -0.4894 -0.2693  0.1234
 1651W        W 2648   0.825   4.046   7.488  0.0541  0.0184  0.1220
 1652W        W 2649   5.652   5.377   4.108 -0.1486  0.1527 -0.1210
 1653W        W 2650   7.020   4.437   3.990 -0.0656 -0.1397 -0.0747
 1654W        W 2651   2.910   6.023   6.515  0.5051  0.1315  0.0990
 1655W        W 2652   5.420   6.177   5.836  0.2111  0.0724 -0.0741
 1656W        W 2653   5.765   1.699   1.858 -0.1278  0.1784  0.1260
 1657W        W 2654   6.064   4.091   4.055 -0.0658 -0.1470 -0.3668
 1658W        W 2655   1.366   5.338   6.058 -0.1099 -0.0243 -0.1250
 1659W        W 2656   4.175   0.591   5.050  0.1086 -0.0228 -0.1032
 1660W        W 2657   2.433   5.381   5.173 -0.0737 -0.0820 -0.0860
 1661W        W 2658   3.193   3.922   5.380  0.2430 -0.0401 -0.0221
 1662W        W 2659   3.709   6.686   1.917 -0.1061  0.1514  0.1863
 1663W        W 2660   1.860   2.499   3.823 -0.0419 -0.1548 -0.0159
 1664W        W 2661   7.356   4.576   2.903  0.0915  0.1032  0.2038
 1665W        W 2662   2.436   5.896   4.814 -0.3116 -0.1247 -0.0448
 1666W        W 2663   5.257   1.834   2.487 -0.0695  0.0899 -0.5390
 1667W        W 2664   3.895   5.161   2.434  0.2960  0.2021  0.0889
 1668W        W 2665   6.654   6.291   5.748 -0.3866 -0.1476  0.0713
 1669W        W 2666   3.288   6.028   3.692  0.2029 -0.2228  0.4949
 1670W        W 2667   1.421   5.477   0.204  0.0627 -0.0678  0.3403
 1671W        W 2668   3.680   0.159   1.220  0.1115  0.1142  0.0825
 1672W        W 2669   1.078   4.370   4.210 -0.2325 -0.1817  0.2736
 1673W        W 2670   5.136   3.623   5.868 -0.3004 -0.2227  0.1542
 1674W        W 2671   4.901   3.524   2.096  0.3441  0.0836 -0.2481
 1675W        W 2672   6.607   5.408   0.262  0.1871 -0.0819 -0.2586
 1676W        W 2673   6.848   3.076   5.239 -0.1433 -0.0759 -0.0747
 1677W        W 2674   6.167   0.644   0.947  0.0488 -0.2416  0.1499
 1678W        W 2675   1.964   5.856   4.057 -0.2986  0.0863 -0.1551
 1679W        W 2676   6.924   2.131   0.789  0.1372 -0.1555 -0.0743
 1680W        W 2677   1.637   7.512   5.100  0.1901  0.1100  0.0720
 1681W        W 2678   4.445   1.930   2.276 -0.0998 -0.0813  0.0190
 1682W        W 2679   0.442   2.451   4.626 -0.0689  0.1709  0.0015
 1683W        W 2680   6.068   3.536   6.904  0.1320  0.1160  0.2263
 1684W        W 2681   2.624   5.733   2.226  0.0033  0.2263 -0.1892
 1685W        W 2682   3.617   3.181   3.590  0.1086 -0.0024 -0.1714
 1686W        W 2683   3.289   0.662   3.131  0.0054 -0.4824  0.0636
 1687W        W 2684   4.687   0.087   6.605 -0.1217 -0.0548  0.4021
 1688W        W 2685   4.678   3.465   0.276 -0.0381 -0.0249 -0.1797
 1689W        W 2686   0.111   7.280   5.051 -0.3927  0.1382 -0.0918
 1690W        W 2687   6.985   5.488   3.280 -0.0819  0.3329  0.0640
 1691W        W 2688   7.073   1.783   4.216 -0.0918  0.4518  0.2397
 1692W        W 2689   0.477   1.699   2.684  0.0608 -0.1331 -0.3460
 1693W        W 2690   6.741   2.419   4.023  0.1199 -0.0110 -0.1679
 1694W        W 2691   1.749   3.905   0.194  0.0348 -0.5470 -0.2275
 1695W        W 2692   2.971   4.641   4.500  0.0662 -0.0407 -0.0446
 1696W        W 2693   2.036   4.414   3.559 -0.4027 -0.1879  0.3066
 1697W        W 2694   3.920   4.798   5.821  0.1537 -0.1043 -0.1227
 1698W        W 2695   4.288   7.054   5.506  0.1373  0.0033  0.1811
 1699W        W 2696   7.148   5.563   1.459 -0.0162 -0.0128  0.0942
 1700W        W 2697   6.206   6.198   6.449 -0.0493 -0.3530  0.3030
 1701W        W 2698   0.455   5.546   0.627  0.1485  0.0186  0.0279
 1702W        W 2699   0.193   4.353   4.211  0.0189 -0.0794 -0.1645
 1703W        W 2700   6.183   2.348   4.952  0.1142  0.0024  0.0681
 1704W        W 2701   6.253   4.220   1.096  0.0299 -0.0115  0.0992
 1705W        W 2702   0.146   2.524   0.967 -0.0167 -0.0527 -0.0255
 1706W        W 2703   2.149   4.871   0.685 -0.0331 -0.5278 -0.0537
 1707W        W 2704   1.351   7.175   4.722 -0.0173 -0.4643  0.0818
 1708W        W 2705   0.154   6.859   0.374 -0.0408  0.3735  0.0633
 1709W        W 2706   5.217   4.258   3.701  0.1973 -0.2188  0.0287
 1710W        W 2707   3.911   7.107   6.998  0.0754  0.3285  0.0042
 1711W        W 2708   2.150   6.455   6.522 -0.3657 -0.0901  0.2330
 1712W        W 2709   5.591   3.286   1.467 -0.0319 -0.2841  0.1719
 1713W        W 2710   6.924   4.657   0.496  0.0865 -0.1374  0.3143
 1714W        W 2711   2.555   6.501   5.235  0.3936  0.0606  0.0054
 1715W        W 2712   0.518   0.922   3.811  0.2038  0.0053  0.0378
 1716W        W 2713   4.284   4.484   1.593 -0.1697 -0.4941  0.0357
 1717W        W 2714   4.911   5.103   5.402 -0.1957 -0.2466 -0.2895
 1718W        W 2715   3.591   6.060   5.172  0.0332  0.0126 -0.1070
 1719W        W 2716   6.209   3.654   2.308  0.0641 -0.0223 -0.1638
 1720W        W 2717   3.347   7.074   5.200 -0.3579 -0.0285  0.0805
 1721W        W 2718   4.537   7.636   1.954  0.0606  0.0867  0.4515
 1722W        W 2719   5.346   0.396   1.160 -0.2811  0.0874  0.0822
 1723W        W 2720   2.555   1.026   3.416  0.1444 -0.1935  0.2713
 1724W        W 2721   1.130   7.414   1.375  0.2843 -0.0198 -0.1982
 1725W        W 2722   1.440   1.875   2.814 -0.1611  0.0664  0.0228
 1726W        W 2723   5.341   4.115   5.724 -0.0018 -0.0686 -0.2069
 1727W        W 2724   0.038   3.192   7.086 -0.0357  0.2024 -0.0740
 1728W        W 2725   7.085   1.586   6.466  0.1238  0.0858  0.2102
 1729W        W 2726   6.630   0.036   7.375 -0.0034  0.0945  0.1283
 1730W        W 2727   6.661   0.150   2.946  0.0597 -0.0139  0.1593
 1731W        W 2728   2.719   5.041   6.509  0.0183  0.2437  0.1367
 1732W        W 2729   3.698   3.726   4.119  0.1233 -0.0883 -0.0610
 1733W        W 2730   6.150   2.721   3.465  0.2207 -0.0685  0.1057
 1734W        W 2731   1.048   5.443   4.550 -0.3377 -0.0550  0.4281
 1735W        W 2732   1.461   4.604   3.418  0.1643  0.1164  0.1138
 1736W        W 2733   6.529   4.562   2.404  0.1256  0.0514 -0.7229
 1737W        W 2734   3.739   5.525   2.030 -0.1806  0.1598  0.2381
 1738W        W 2735   7.012   1.083   0.565  0.0937 -0.0407 -0.1802
 1739W        W 2736   0.518   4.728   3.171 -0.0722  0.1405 -0.2717
 1740W        W 2737   7.308   3.806   0.169  0.1121  0.0254 -0.0501
 1741W        W 2738   5.349   5.003   1.422  0.0758 -0.2273 -0.0249
 1742W        W 2739   3.573   7.475   4.989 -0.0551 -0.1589  0.3342
 1743W        W 2740   6.764   3.037   6.882  0.1238 -0.0913 -0.1522
 1744W        W 2741   1.178   6.954   2.179  0.1515 -0.3107  0.1922
 1745W        W 2742   2.500   3.084   5.151  0.2262  0.0710  0.2355
 1746W        W 2743   2.026   2.345   2.431  0.0175  0.0380 -0.0488
 1747W        W 2744   3.728   3.606   7.633  0.2884  0.1244  0.0643
 1748W        W 2745   2.870   2.056   4.550 -0.1312 -0.1067 -0.2687
 1749W        W 2746   7.625   6.863   7.561  0.0802 -0.0072 -0.1616
 1750W        W 2747   2.288   4.500   1.268  0.3002 -0.0247 -0.1192
 1751W        W 2748   5.998   3.036   5.480 -0.0835  0.0435 -0.1153
 1752W        W 2749   3.851   4.335   5.548  0.1385  0.1798 -0.0300
 1753W        W 2750   5.976   4.837   0.201  0.1063  0.1212  0.0184
 1754W        W 2751   7.468   4.367   4.493  0.0461  0.0606 -0.2353
 1755W        W 2752   7.348   3.492   6.244 -0.0889 -0.2363  0.0990
 1756W        W 2753   6.306   1.412   3.176  0.1934 -0.2313  0.1201
 1757W        W 2754   3.546   7.268   2.601 -0.1294 -0.2136 -0.0567
 1758W        W 2755   3.516   6.325   5.988 -0.1301  0.1214  0.0163
 1759W        W 2756   4.905   0.501   4.144 -0.0088 -0.1074 -0.2159
 1760W        W 2757   0.093   1.347   1.265 -0.1903 -0.0180 -0.0261
 1761W        W 2758   4.086   1.688   2.548 -0.2896  0.1568 -0.0176
 1762W        W 2759   4.169   6.585   2.199  0.0873 -0.0458  0.0890
 1763W        W 2760   0.339   6.457   5.873 -0.2003  0.1142 -0.1576
 1764W        W 2761   1.785   4.351   3.088 -0.2095  0.2591 -0.0144
 1765W        W 2762   3.018   6.358   3.345 -0.2740  0.2420  0.1577
 1766W        W 2763   1.547   0.415   4.400  0.0479  0.0087  0.1208
 1767W        W 2764   1.323   3.919   1.409 -0.1530 -0.3959 -0.1721
 1768W        W 2765   4.284   1.164   3.897  0.2193  0.7214  0.2289
 1769W        W 2766   2.606   5.000   5.522 -0.2943 -0.2080 -0.0674
 1770W        W 2767   4.284   7.463   6.849  0.2333  0.1830  0.0440
 1771W        W 2768   6.017   1.715   5.103 -0.0107 -0.0559  0.2776
 1772W        W 2769   3.103   3.012   3.934 -0.3536 -0.0554  0.1136
 1773W        W 2770   5.078   4.873   2.137  0.0890 -0.1124 -0.0847
 1774W        W 2771   0.704   5.094   6.550 -0.1752 -0.0650  0.0672
 1775W        W 2772   5.475   3.126   2.812 -0.1029 -0.0401 -0.0201
 1776W        W 2773   1.431   1.568   2.390 -0.2446  0.0039  0.0105
 1777W        W 2774   2.694   4.769   6.979  0.2325 -0.3355 -0.4081
 1778W        W 2775   1.525   6.219   7.182  0.1681  0.3094  0.1202
 1779W        W 2776   0.850   0.119   3.479 -0.4755 -0.0710 -0.1014
 1780W        W 2777   2.050   0.138   0.965  0.0384  0.4576 -0.1886
 1781W        W 2778   2.384   5.356   1.264 -0.0328  0.1355  0.2936
 1782W        W 2779   5.332   0.484   7.379  0.0297  0.1515  0.1608
 1783W        W 2780   2.935   4.781   2.949 -0.0099  0.0777  0.0162
 1784W        W 2781   3.085   5.248   4.103 -0.1744 -0.0040 -0.2904
 1785W        W 2782   3.555   3.452   3.078  0.2340 -0.1640 -0.1148
 1786W        W 2783   5.910   2.811   2.629  0.5570 -0.0975  0.1051
 1787W        W 2784   5.860   3.397   0.536  0.2065  0.2558  0.1938
 1788W        W 2785   4.687   4.610   0.646 -0.1387 -0.1406 -0.0440
 1789W        W 2786   6.958   7.069   0.435  0.3096 -0.0501 -0.1003
 1790W        W 2787   5.309   1.570   2.001 -0.1564 -0.0529 -0.1792
 1791W        W 2788   5.112   3.156   5.469 -0.0989  0.2115 -0.0976
 1792W        W 2789   5.760   3.047   3.254 -0.1179  0.1586 -0.4877
 1793W        W 2790   7.148   1.576   7.529  0.1628  0.0168 -0.0974
 1794W        W 2791   6.677   2.632   0.824  0.3062 -0.2797  0.0015
 1795W        W 2792   1.550   6.126   3.338 -0.2191 -0.1822  0.0510
 1796W        W 2793   6.898   3.644   7.589 -0.3122 -0.0836  0.1023
 1797W        W 2794   0.767   7.332   4.509  0.0491 -0.0256 -0.1301
 1798W        W 2795   6.279   1.799   1.815 -0.1123  0.1157  0.1412
 1799W        W 2796   3.146   3.180   4.449  0.1138 -0.0512  0.0289
 1800W        W 2797   7.441   5.723   5.154 -0.0587 -0.0966  0.1325
 1801W        W 2798   5.283   2.958   3.256 -0.1452  0.1324  0.2406
 1802W        W 2799   1.620   5.131   4.155  0.1130  0.0590  0.2184
 1803W        W 2800   0.007   0.082   3.982 -0.2250  0.0003  0.0728
 1804W        W 2801   3.705   7.228   2.091 -0.2641  0.0396  0.0441
 1805W        W 2802   3.397   4.549   3.583  0.6049  0.3067  0.1568
 1806W        W 2803   0.547   5.987   3.471 -0.0566  0.0351  0.0384
 1807W        W 2804   7.633   4.715   1.114  0.1732  0.5353  0.1911
 1808W        W 2805   2.791   1.166   4.345 -0.1252 -0.3579 -0.0793
 1809W        W 2806   0.136   4.726   0.197  0.1639  0.1052 -0.0571
 1810W        W 2807   3.762   5.218   1.225 -0.2524 -0.1755 -0.3225
 1811W        W 2808   5.917   7.413   0.821  0.0241 -0.1618 -0.1149
 1812W        W 2809   2.519   4.094   6.097  0.2988  0.1492 -0.1292
 1813W        W 2810   1.089   6.917   1.647  0.0105 -0.0055  0.2197
 1814W        W 2811   6.266   1.898   0.465  0.1278 -0.0129  0.0063
 1815W        W 2812   6.858   2.376   1.226  0.1032 -0.2837  0.1400
 1816W        W 2813   5.214   6.468   7.217  0.2386  0.1663 -0.2908
 1817W        W 2814   1.394   7.220   1.028 -0.1107 -0.1318  0.0165
 1818W        W 2815   3.745   0.094   4.252 -0.1626  0.1117 -0.0381
 1819W        W 2816   5.465   2.679   1.037  0.0892 -0.0837 -0.2005
 1820W        W 2817   5.061   3.232   6.993 -0.1104 -0.2004  0.3399
 1821W        W 2818   2.813   0.131   2.465  0.1650 -0.1328 -0.1331
 1822W        W 2819   5.807   3.621   1.152 -0.1210 -0.0233  0.2564
 1823W        W 2820   6.474   3.696   0.381  0.1575  0.1945  0.2205
 1824W        W 2821   3.931   4.207   2.680 -0.0348 -0.3938  0.1309
 1825W        W 2822   2.474   4.385   0.644  0.0706 -0.2598  0.2807
 1826W        W 2823   3.427   7.307   0.976  0.0432  0.0190  0.2315
 1827W        W 2824   5.301   0.128   5.081  0.1209 -0.1719 -0.1916
 1828W        W 2825   5.686   3.934   5.391 -0.5011  0.1959  0.0625
 1829W        W 2826   1.334   7.373   2.724 -0.2015 -0.1983  0.1104
 1830W        W 2827   4.951   1.513   6.445 -0.0091  0.0955  0.0690
 1831W        W 2828   2.625   6.439   6.226  0.1549  0.0491 -0.1543
 1832W        W 2829   4.098   3.896   6.809  0.0138  0.1930  0.0872
 1833W        W 2830   2.511   0.478   4.721 -0.0510  0.4693 -0.4018
 1834W        W 2831   1.443   0.936   3.250 -0.2242 -0.2403 -0.0225
 1835W        W 2832   5.612   0.505   0.106 -0.0649  0.1074  0.1162
 1836W        W 2833   2.667   5.283   6.064 -0.0469  0.1419 -0.0682
 1837W        W 2834   4.730   0.965   0.430 -0.0597  0.0403 -0.2214
 1838W        W 2835   1.140   3.114   5.000 -0.0383  0.0641 -0.1644
 1839W        W 2836   6.972   4.532   4.935  0.1301 -0.0019  0.2296
 1840W        W 2837   6.755   1.259   6.714 -0.1417  0.0649 -0.2366
 1841W        W 2838   5.792   7.440   3.059  0.0312 -0.4335  0.0284
 1842W        W 2839   3.524   5.001   2.085 -0.0236  0.0767  0.1771
 1843W        W 2840   2.396   6.519   4.751 -0.2652 -0.0702 -0.1403
 1844W        W 2841   2.056   4.379   4.086  0.0337 -0.2598  0.0139
 1845W        W 2842   4.129   0.317   0.356 -0.0878  0.0367  0.2358
 1846W        W 2843   4.554   2.573   3.809  0.2848 -0.3168  0.1404
 1847W        W 2844   1.051   3.212   7.576 -0.2435  0.1834 -0.0538
 1848W        W 2845   6.799   0.422   6.810 -0.1063  0.0141 -0.1023
 1849W        W 2846   3.215   2.498   4.079  0.4298  0.3317  0.1226
 1850W        W 2847   1.716   7.173   4.200 -0.1082  0.2429  0.0865
 1851W        W 2848   7.177   0.208   5.159 -0.0795  0.0900  0.0674
 1852W        W 2849   0.888   3.800   3.927  0.0025  0.2728 -0.0509
 1853W        W 2850   1.605   5.481   2.987 -0.1829 -0.0420  0.0356
 1854W        W 2851   2.939   4.046   7.155  0.1184 -0.0959  0.1261
 1855W        W 2852   3.584   6.191   4.216  0.2385 -0.0172  0.0638
 1856W        W 2853   7.456   3.900   1.841 -0.1446  0.1945 -0.1741
 1857W        W 2854   6.136   6.953   6.388 -0.0542  0.1976 -0.3279
 1858W        W 2855   3.271   1.421   2.902  0.3110  0.0690 -0.0473
 1859W        W 2856   5.942   6.965   7.571 -0.0767  0.0718 -0.1154
 1860W        W 2857   6.205   3.407   0.085 -0.2079 -0.2432 -0.3832
 1861W        W 2858   3.926   2.062   4.266  0.0120  0.0615 -0.0946
 1862W        W 2859   3.050   6.564   2.428 -0.0718 -0.2046 -0.1364
 1863W        W 2860   4.919   5.998   1.261  0.1957 -0.0058  0.0921
 1864W        W 2861   5.507   1.834   7.461 -0.0202 -0.0455 -0.4182
 1865W        W 2862   1.557   5.772   0.571 -0.0472 -0.2483 -0.2031
 1866W        W 2863   3.392   4.852   3.130  0.0850  0.0901  0.0457
 1867W        W 2864   6.483   7.202   5.239 -0.0957  0.1451 -0.0278
 1868W        W 2865   0.709   4.668   0.402  0.2853  0.0048  0.1793
 1869W        W 2866   0.981   5.914   0.001  0.0325 -0.1240 -0.0646
 1870W        W 2867   0.575   0.114   2.104  0.0722  0.0624  0.2774
 1871W        W 2868   1.708   6.917   1.975  0.0496  0.1495 -0.0141
 1872W        W 2869   2.249   5.461   6.386 -0.2022  0.2321  0.1712
 1873W        W 2870   6.875   0.967   4.395  0.2019  0.2172 -0.0999
 1874W        W 2871   4.540   1.872   0.424 -0.0887 -0.0771 -0.1957
 1875W        W 2872   7.428   5.645   4.049 -0.0470 -0.0888  0.2654
 1876W        W 2873   4.595   6.053   5.316 -0.0141 -0.3024  0.0461
 1877W        W 2874   4.294   4.569   4.839 -0.1973  0.3021 -0.2359
 1878W        W 2875   1.362   3.943   3.163  0.1081  0.0270  0.2159
 1879W        W 2876   1.821   7.352   0.695 -0.0398  0.1607 -0.0413
 1880W        W 2877   4.929   7.073   3.554 -0.1688  0.3527 -0.3711
 1881W        W 2878   2.111   4.326   6.143  0.0351  0.2889  0.0318
 1882W        W 2879   7.013   6.576   5.528  0.2130 -0.1540  0.0144
 1883W        W 2880   7.121   0.233   0.998 -0.0536  0.0334  0.1560
 1884W        W 2881   4.752   4.756   6.947 -0.2676 -0.3062  0.2080
 1885W        W 2882   3.299   6.928   5.789 -0.0714 -0.1395  0.3816
 1886W        W 2883   6.037   2.224   2.563  0.3557 -0.1491 -0.4251
 1887W        W 2884   5.896   2.800   0.720  0.2106 -0.2502 -0.3068
 1888W        W 2885   6.650   1.424   0.650 -0.0804 -0.1131  0.3363
 1889W        W 2886   3.942   6.079   0.755  0.1503 -0.0711  0.1059
 1890W        W 2887   4.480   0.547   4.443  0.0772  0.1402 -0.0099
 1891W        W 2888   5.129   2.312   2.487  0.2325  0.0629 -0.1483
 1892W        W 2889   0.882   7.087   2.941 -0.0652 -0.0871  0.1851
 1893W        W 2890   0.426   1.888   1.723  0.1119 -0.1359  0.1144
 1894W        W 2891   6.023   2.825   0.202  0.0459  0.4831  0.3723
 1895W        W 2892   5.853   6.157   6.055  0.2582 -0.0041 -0.0029
 1896W        W 2893   3.398   7.388   5.650  0.1884  0.0729 -0.1632
 1897W        W 2894   2.929   0.636   3.532 -0.1325 -0.4862  0.0818
 1898W        W 2895   4.382   3.685   2.105 -0.0979  0.2581  0.0448
 1899W        W 2896   2.117   4.882   5.742 -0.0947 -0.1183  0.1577
 1900W        W 2897   3.081   6.217   4.121  0.2183  0.1576  0.0851
 1901W        W 2898   0.449   7.022   4.798 -0.0567 -0.1221 -0.1652
 1902W        W 2899   2.767   5.596   0.919  0.2728  0.1248  0.2734
 1903W        W 2900   4.509   0.827   5.783 -0.3178  0.0910 -0.0048
 1904W        W 2901   1.590   5.194   1.186  0.1757  0.1344  0.0735
 1905W        W 2902   6.579   1.835   5.699 -0.3016 -0.0919  0.1374
 1906W        W 2903   1.390   5.278   0.705  0.0869  0.0027 -0.2135
 1907W        W 2904   6.775   6.982   2.809  0.0191 -0.0315  0.1518
 1908W        W 2905   2.153   4.884   1.744 -0.2770  0.1539  0.0602
 1909W        W 2906   6.554   2.527   4.592 -0.0698 -0.0331  0.2918
 1910W        W 2907   3.055   5.054   5.853 -0.2553 -0.0086  0.2610
 1911W        W 2908   4.637   1.864   4.946  0.0028 -0.2825 -0.1036
 1912W        W 2909   4.260   5.452   2.392  0.2910  0.3027  0.2402
 1913W        W 2910   2.368   1.290   4.192  0.3226 -0.1100  0.2423
 1914W        W 2911   1.274   6.431   3.660  0.0479  0.1804  0.1675
 1915W        W 2912   1.351   7.418   1.933  0.2095  0.0743  0.0641
 1916W        W 2913   7.164   3.323   1.207 -0.1065  0.0579  0.1997
 1917W        W 2914   0.732   1.943   2.077 -0.1831 -0.1444 -0.3096
 1918W        W 2915   2.410   6.383   0.433 -0.1494  0.2490  0.1397
 1919W        W 2916   4.464   1.303   0.825  0.1298 -0.0569 -0.1169
 1920W        W 2917   1.978   4.951   2.484 -0.0022 -0.0919 -0.3996
 1921W        W 2918   3.723   3.578   6.024 -0.2328 -0.0716  0.0274
 1922W        W 2919   7.385   4.347   1.950  0.2092  0.0626 -0.0698
 1923W        W 2920   5.223   4.784   6.770  0.0395  0.1752 -0.1783
 1924W        W 2921   5.852   5.630   3.273  0.1934 -0.1535 -0.3097
 1925W        W 2922   0.778   6.896   0.466 -0.0858 -0.1284 -0.0036
 1926W        W 2923   6.322   5.566   7.226 -0.1177 -0.1823  0.0114
 1927W        W 2924   3.347   6.630   4.156 -0.0895  0.0867 -0.0802
 1928W        W 2925   4.315   4.436   5.976 -0.1589 -0.0708  0.0819
 1929W        W 2926   4.517   5.936   1.534 -0.0389  0.1062 -0.1185
 1930W        W 2927   2.807   4.510   2.507  0.1058  0.0606  0.2493
 1931W        W 2928   4.627   6.889   2.908  0.1685  0.3163 -0.0211
 1932W        W 2929   5.239   7.033   7.049 -0.2235 -0.0715  0.1083
 1933W        W 2930   0.927   3.983   6.939  0.0682 -0.0823 -0.2181
 1934W        W 2931   6.145   1.494   0.830 -0.2345 -0.2147  0.0533
 1935W        W 2932   6.324   6.299   2.992 -0.3377  0.0399  0.3768
 1936W        W 2933   6.384   4.750   6.801  0.0245 -0.3550 -0.2916
 1937W        W 2934   4.006   2.625   2.951  0.0951 -0.2398 -0.1925
 1938W        W 2935   3.459   0.021   1.956 -0.3769  0.0332 -0.3884
 1939W        W 2936   1.513   6.343   0.741  0.0348 -0.0379 -0.1110
 1940W        W 2937   5.592   7.329   4.446 -0.1382 -0.1332  0.0879
 1941W        W 2938   0.066   7.197   3.254 -0.1941 -0.0974 -0.1597
 1942W        W 2939   7.279   6.528   7.339 -0.0889  0.1092  0.0932
 1943W        W 2940   5.785   3.067   2.204  0.1342 -0.0484  0.0537
 1944W        W 2941   4.075   6.624   6.318 -0.0481  0.0957 -0.1966
 1945W        W 2942   3.544   2.855   3.180  0.0293  0.3129 -0.0774
 1946W        W 2943   4.347   1.758   3.019 -0.0421  0.4284  0.1117
 1947W        W 2944   6.733   0.868   2.420 -0.1600 -0.0549 -0.2109
 1948W        W 2945   0.480   3.430   2.141  0.1171 -0.3824  0.1489
 1949W        W 2946   2.500   6.568   4.183  0.0697 -0.2065 -0.0173
 1950W        W 2947   1.399   4.475   1.778  0.0539  0.0095 -0.1701
 1951W        W 2948   2.122   7.325   3.932  0.0846  0.2727  0.0892
 1952W        W 2949   5.605   7.214   2.001  0.0076  0.0931 -0.1272
 1953W        W 2950   2.753   5.678   1.732  0.0456 -0.1653  0.1920
 1954W        W 2951   5.885   3.968   3.279 -0.0530 -0.1635 -0.2372
 1955W        W 2952   5.352   2.899   2.378 -0.0009  0.0999 -0.2795
 1956W        W 2953   1.083   1.362   2.019  0.0230  0.1889 -0.0901
 1957W        W 2954   6.415   6.663   6.625 -0.3192  0.1020  0.0528
 1958W        W 2955   5.143   4.805   3.408 -0.0112  0.0303 -0.0077
 1959W        W 2956   5.015   5.568   0.967 -0.0957 -0.0180 -0.1390
 1960W        W 2957   1.538   7.093   1.521  0.4420 -0.1320  0.1977
 1961W        W 2958   4.401   6.115   7.137  0.1280  0.1232  0.0443
 1962W        W 2959   6.030   5.309   2.750  0.1553  0.1498  0.0019
 1963W        W 2960   0.662   3.226   5.057  0.1304  0.0434 -0.1244
 1964W        W 2961   5.524   5.590   3.709 -0.2234  0.2299  0.2451
 1965W        W 2962   6.707   5.012   2.268  0.2874  0.0299  0.2316
 1966W        W 2963   6.054   3.569   4.056 -0.0088 -0.0699 -0.3288
 1967W        W 2964   3.879   4.593   3.449  0.0232 -0.0610  0.0755
 1968W        W 2965   7.194   6.680   2.524 -0.2630  0.4798 -0.2561
 1969W        W 2966   0.288   4.770   2.262 -0.0352 -0.0791 -0.0114
 1970W        W 2967   0.719   0.243   4.687  0.3684  0.0536 -0.0023
 1971W        W 2968   5.792   5.498   6.592 -0.1894  0.1620 -0.2120
 1972W        W 2969   5.748   2.955   6.256  0.0003 -0.2022  0.1996
 1973W        W 2970   4.130   1.002   3.346 -0.2078 -0.2179  0.1612
 1974W        W 2971   7.565   6.593   1.979  0.1358  0.0405  0.1332
 1975W        W 2972   2.436   0.378   2.091  0.1119  0.3388 -0.4365
 1976W        W 2973   0.286   2.528   7.460 -0.0153  0.0882  0.1855
 1977W        W 2974   5.559   1.593   2.839 -0.0588 -0.1621 -0.3262
 1978W        W 2975   0.283   4.660   5.001 -0.0469  0.0818  0.0242
 1979W        W 2976   4.950   1.774   5.571 -0.1594  0.3094 -0.0104
 1980W        W 2977   1.836   5.617   2.076  0.1865 -0.0607  0.0598
 1981W        W 2978   1.815   6.951   1.073 -0.2670 -0.0135  0.3363
 1982W        W 2979   3.643   5.004   7.349 -0.0672  0.1618  0.0296
 1983W        W 2980   6.126   2.571   5.383 -0.2316  0.0117  0.0937
 1984W        W 2981   7.373   6.688   5.044 -0.1449  0.1507  0.0284
 1985W        W 2982   5.684   1.392   0.062  0.2919  0.2852 -0.0421
 1986W        W 2983   1.607   4.236   5.318 -0.1042  0.2867 -0.1644
 1987W        W 2984   4.995   6.261   3.009 -0.0990 -0.0374  0.0165
 1988W        W 2985   5.812   5.779   5.717  0.1519 -0.0646  0.2540
 1989W        W 2986   5.845   3.746   1.629 -0.2547 -0.1569 -0.0841
 1990W        W 2987   0.656   5.502   4.821  0.1112 -0.0384  0.2251
 1991W        W 2988   6.062   3.725   7.397 -0.1121  0.2030 -0.0687
 1992W        W 2989   5.747   2.581   1.876  0.0548 -0.0758  0.0953
 1993W        W 2990   2.979   3.975   0.006 -0.2630  0.1472  0.5559
 1994W        W 2991   7.138   3.556   1.667 -0.2871  0.0139 -0.0671
 1995W        W 2992   5.697   1.653   2.363 -0.1702 -0.1535  0.0631
 1996W        W 2993   6.182   5.084   3.163  0.0993  0.0200  0.1224
 1997W        W 2994   1.239   1.884   1.818 -0.1847  0.0624 -0.2113
 1998W        W 2995   6.342   4.891   5.919 -0.2567 -0.1340 -0.0463
 1999W        W 2996   3.162   0.438   2.590 -0.1066 -0.2012  0.0983
 2000W        W 2997   7.121   5.490   6.051 -0.1925 -0.0057 -0.2098
 2001W        W 2998   5.577   2.343   4.304 -0.0190  0.2285 -0.0100
 2002W        W 2999   6.690   7.582   1.116  0.1750 -0.1001 -0.0888
 2003W        W 3000   7.227   3.068   4.465 -0.0230  0.4077  0.3020
 2004W        W 3001   5.867   2.234   7.358  0.0042 -0.0426 -0.1709
 2005W        W 3002   3.239   7.162   1.894 -0.3536  0.0425  0.2105
 2006W        W 3003   0.253   0.323   4.829  0.1100  0.0707 -0.0147
 2007W        W 3004   2.567   5.214   1.718  0.3421 -0.1921 -0.0075
 2008W        W 3005   6.242   1.869   7.608 -0.0696  0.0281  0.0150
 2009W        W 3006   5.911   4.938   1.334 -0.1097 -0.0259  0.1078
 2010W        W 3007   1.238   4.975   7.513 -0.0278 -0.4056 -0.0551
 2011W        W 3008   6.468   2.888   5.584 -0.2920  0.0138 -0.0082
 2012W        W 3009   6.562   5.414   4.127 -0.0117  0.0523 -0.0590
 2013W        W 3010   5.934   6.486   0.880  0.1305  0.0161 -0.0415
 2014W        W 3011   3.551   2.855   4.153  0.2492 -0.0498 -0.2925
 2015W        W 3012   3.703   1.383   2.625 -0.0199 -0.0010 -0.3916
 2016W        W 3013   2.973   6.483   6.845  0.1625  0.2372 -0.0770
 2017W        W 3014   3.166   4.957   6.747 -0.2520 -0.1396  0.1268
 2018W        W 3015   1.606   4.653   6.660  0.2336  0.0534 -0.1901
 2019W        W 3016   0.379   2.082   2.405  0.3028  0.1765  0.0939
 2020W        W 3017   5.906   1.072   1.209 -0.0075  0.2106  0.1771
 2021W        W 3018   5.678   6.478   4.571  0.2285 -0.1080 -0.0267
 2022W        W 3019   4.502   0.973   5.256 -0.2930 -0.0106 -0.0666
 2023W        W 3020   6.079   6.680   4.396  0.0380  0.2490 -0.1108
 2024W        W 3021   3.479   2.858   4.719  0.1079  0.1354  0.0731
 2025W        W 3022   0.882   3.971   2.937 -0.0247 -0.0013  0.2134
 2026W        W 3023   3.265   4.833   0.499 -0.0145  0.1436 -0.0949
 2027W        W 3024   6.340   4.395   5.963  0.0931  0.0665 -0.0292
 2028W        W 3025   1.851   3.791   5.194  0.1259  0.2976 -0.4242
 2029W        W 3026   7.297   3.526   3.027  0.2667 -0.1472 -0.1336
 2030W        W 3027   4.252   4.197   4.003  0.0333 -0.0782 -0.0248
 2031W        W 3028   6.095   1.698   5.800 -0.0323 -0.2028 -0.0287
 2032W        W 3029   1.132   4.277   3.618 -0.1717  0.0858 -0.1546
 2033W        W 3030   3.556   1.217   3.270  0.0037  0.0361 -0.0775
 2034W        W 3031   1.610   6.292   5.197  0.1130 -0.0724  0.0804
 2035W        W 3032   4.817   6.581   0.098 -0.1590 -0.1367  0.1870
 2036W        W 3033   0.763   4.787   2.574  0.3393 -0.2840 -0.1542
 2037W        W 3034   6.890   4.970   7.610  0.0648  0.1085  0.0214
 2038W        W 3035   2.840   2.766   4.292  0.0445 -0.3634 -0.1947
 2039W        W 3036   6.502   4.335   0.554 -0.1126 -0.1307 -0.0269
 2040W        W 3037   2.601   3.152   3.771 -0.1290  0.2119  0.3278
 2041W        W 3038   1.108   6.786   4.754  0.0682  0.0159 -0.1360
 2042W        W 3039   1.484   7.199   3.736 -0.2904  0.1866 -0.3544
 2043W        W 3040   5.144   0.051   4.178 -0.1110 -0.1485  0.2655
 2044W        W 3041   4.974   1.409   3.713  0.1024 -0.0495  0.4364
 2045W        W 3042   6.703   5.101   0.627 -0.0096 -0.0792 -0.0549
 2046W        W 3043   1.017   3.681   4.838 -0.1615 -0.0920 -0.2732
 2047W        W 3044   5.331   6.290   1.951 -0.1378  0.1285 -0.0701
 2048W        W 3045   1.789   2.827   2.243 -0.3865 -0.0938  0.1477
 2049W        W 3046   5.471   1.447   7.191 -0.0131  0.3117  0.0502
 2050W        W 3047   6.252   2.971   3.022 -0.1351 -0.1588 -0.1460
 2051W        W 3048   5.492   5.060   6.390  0.0553 -0.1214 -0.2583
 2052W        W 3049   4.324   5.189   3.712  0.1254 -0.0646  0.1881
 2053W        W 3050   0.978   0.792   3.868  0.1220 -0.1355  0.0734
 2054W        W 3051   6.036   4.806   0.733  0.1691  0.3547 -0.4198
 2055W        W 3052   1.655   6.173   4.378  0.1409 -0.0245 -0.1873
 2056W        W 3053   5.657   7.240   7.266 -0.1637 -0.0843  0.1508
 2057W        W 3054   3.724   6.806   3.383  0.1197 -0.1113 -0.1469
 2058W        W 3055   7.204   4.827   5.395  0.0264  0.2920  0.0844
 2059W        W 3056   4.775   3.398   3.918 -0.1442  0.4109 -0.0624
 2060W        W 3057   5.584   5.436   7.045 -0.0652  0.0070  0.1670
 2061W        W 3058   5.008   7.220   0.706  0.0680 -0.1218 -0.1479
 2062W        W 3059   0.698   4.517   4.481  0.0512  0.0103  0.0999
 2063W        W 3060   1.278   2.947   1.584 -0.3916  0.1842 -0.3170
 2064W        W 3061   6.526   0.933   3.808  0.4539 -0.0418  0.1526
 2065W        W 3062   0.960   5.552   0.427  0.0188 -0.2311  0.0018
 2066W        W 3063   2.489   6.411   6.942 -0.0485  0.0416 -0.0786
 2067W        W 3064   6.975   2.611   6.764 -0.0049 -0.1633  0.3210
 2068W        W 3065   1.517   0.062   2.330 -0.0367  0.2213  0.0950
 2069W        W 3066   1.208   2.330   4.985  0.0034  0.1178  0.1340
 2070W        W 3067   1.524   5.650   4.278  0.4127  0.1042 -0.0153
 2071W        W 3068   7.123   0.054   7.368  0.1582 -0.1906  0.4274
 2072W        W 3069   0.832   3.591   7.203 -0.0463  0.1080 -0.0664
 2073W        W 3070   1.689   2.368   2.031 -0.1833 -0.0941 -0.3557
 2074W        W 3071   3.149   6.696   2.975 -0.1391  0.4801 -0.0056
 2075W        W 3072   1.981   6.413   3.243 -0.2722 -0.0937  0.0927
 2076W        W 3073   0.575   5.186   3.796  0.1120  0.0801  0.2158
 2077W        W 3074   5.456   6.050   1.434 -0.2312  0.2243  0.1190
 2078W        W 3075   7.565   4.276   6.349 -0.1419 -0.0078 -0.0594
 2079W        W 3076   2.798   4.486   7.381  0.4031  0.3419 -0.0090
 2080W        W 3077   7.194   2.150   1.736 -0.2910 -0.0403 -0.1486
 2081W        W 3078   0.562   3.303   6.841  0.1536 -0.1398  0.0996
 2082W        W 3079   6.963   5.716   0.641  0.3003  0.1867 -0.0150
 2083W        W 3080   0.532   4.199   1.652  0.0694 -0.0995  0.2217
 2084W        W 3081   1.029   6.891   3.858  0.1356  0.0906  0.0507
 2085W        W 3082   7.097   5.334   4.250  0.0495 -0.0685 -0.0396
 2086W        W 3083   4.960   1.994   2.103 -0.2449  0.0764  0.2184
 2087W        W 3084   0.285   4.688   6.343 -0.2752  0.1282  0.0128
 2088W        W 3085   5.098   0.411   6.440  0.2153  0.0344 -0.2611
 2089W        W 3086   5.141   2.615   5.146  0.0861  0.1662  0.2225
 2090W        W 3087   5.364   1.304   2.409 -0.0040 -0.0858  0.0566
 2091W        W 3088   4.070   7.445   2.453 -0.0858  0.3364 -0.0469
 2092W        W 3089   0.055   6.446   5.403  0.3205  0.1513 -0.3642
 2093W        W 3090   5.306   3.376   3.505  0.0735 -0.1753  0.1800
 2094W        W 3091   7.277   0.599   0.332 -0.1894  0.1471 -0.4941
 2095W        W 3092   3.281   7.117   4.155  0.2061  0.0330  0.0441
 2096W        W 3093   3.180   0.107   1.131  0.0576  0.1803  0.3218
 2097W        W 3094   6.775   1.465   3.552  0.1305 -0.2142 -0.1423
 2098W        W 3095   4.443   2.718   3.260 -0.0942  0.2240  0.2338
 2099W        W 3096   6.526   6.039   5.251  0.1593  0.2046 -0.1009
 2100W        W 3097   2.437   0.577   3.203 -0.0013  0.2754 -0.0742
 2101W        W 3098   6.488   6.869   4.809  0.1054  0.2283 -0.2765
 2102W        W 3099   7.486   6.817   3.500 -0.2651 -0.0005  0.0909
 2103W        W 3100   3.312   5.351   1.731 -0.1816  0.3263 -0.3557
 2104W        W 3101   5.149   4.376   2.043  0.0212 -0.0836  0.2252
 2105W        W 3102   5.217   1.473   5.258  0.0830 -0.0471 -0.0828
 2106W        W 3103   5.310   6.939   7.525  0.0885 -0.1310 -0.0547
 2107W        W 3104   5.794   4.129   1.251 -0.1418  0.0462 -0.0575
 2108W        W 3105   5.934   0.303   6.392 -0.0063  0.0962 -0.1919
 2109W        W 3106   2.576   6.096   4.080 -0.2427  0.1764  0.3408
 2110W        W 3107   1.050   0.950   3.004  0.2813  0.0296  0.2445
 2111W        W 3108   4.810   0.146   5.143 -0.2236  0.2082 -0.0090
 2112W        W 3109   3.234   5.716   5.296  0.2342 -0.1918 -0.1894
 2113W        W 3110   2.360   2.564   3.691  0.0190 -0.0856  0.1266
 2114W        W 3111   5.956   6.846   2.433  0.2162  0.1188  0.1225
 2115W        W 3112   5.654   5.532   2.429  0.1763  0.1700 -0.2267
 2116W        W 3113   4.058   6.386   3.261 -0.2151 -0.2993 -0.0218
 2117W        W 3114   1.399   2.806   2.594  0.0448 -0.0322  0.1235
 2118W        W 3115   2.908   6.164   5.939 -0.0362  0.2475  0.1388
 2119W        W 3116   6.476   5.092   2.689 -0.3408 -0.1796 -0.3577
 2120W        W 3117   5.924   1.654   7.273  0.0301 -0.2755 -0.1167
 2121W        W 3118   5.162   5.577   5.268  0.0659 -0.4062 -0.0138
 2122W        W 3119   7.105   0.197   2.803  0.1304 -0.0723 -0.1279
 2123W        W 3120   3.091   0.265   4.801 -0.2981  0.0594 -0.1120
 2124W        W 3121   3.877   0.422   2.424  0.1889 -0.0778 -0.2723
 2125W        W 3122   0.210   2.815   1.841  0.3236 -0.4449 -0.1114
 2126W        W 3123   5.856   4.745   6.014  0.0213 -0.1125 -0.3642
 2127W        W 3124   3.620   6.533   4.935 -0.2138 -0.0821 -0.0940
 2128W        W 3125   7.554   0.158   2.109  0.2073  0.2460  0.1464
 2129W        W 3126   4.024   2.660   5.945 -0.2435  0.2012  0.0603
 2130W        W 3127   2.205   3.945   4.880  0.0389  0.4004  0.3609
 2131W        W 3128   6.687   4.179   1.387  0.0816  0.2313  0.1054
 2132W        W 3129   1.737   5.837   1.542 -0.1234 -0.2316 -0.0826
 2133W        W 3130   1.413   6.210   1.249  0.2183  0.0361 -0.4950
 2134W        W 3131   6.536   7.205   7.331  0.0035  0.0973 -0.0895
 2135W        W 3132   4.488   5.234   0.020  0.1063  0.1386  0.0001
 2136W        W 3133   6.670   2.721   3.124 -0.0464 -0.0995  0.1769
 2137W        W 3134   6.645   2.776   0.194 -0.1167 -0.1289  0.1167
 2138W        W 3135   0.149   6.143   1.027  0.0032  0.1076  0.2288
 2139W        W 3136   6.422   3.443   6.219  0.1739  0.1607 -0.1755
 2140W        W 3137   5.879   0.865   3.825 -0.1339  0.0627 -0.2845
 2141W        W 3138   3.571   6.378   3.175  0.4417  0.1536 -0.0418
 2142W        W 3139   0.486   6.481   0.525  0.1346 -0.2539  0.2213
 2143W        W 3140   0.270   5.186   1.795  0.2210 -0.0125 -0.0104
 2144W        W 3141   1.396   6.518   3.093  0.0237  0.1070  0.0633
 2145W        W 3142   5.627   3.179   0.149 -0.2339 -0.0626 -0.5125
 2146W        W 3143   4.155   5.087   4.810  0.0062  0.0775 -0.1227
 2147W        W 3144   6.748   4.897   3.110 -0.0833 -0.0508 -0.1002
 2148W        W 3145   0.244   1.525   3.100  0.1721 -0.1178 -0.0589
 2149W        W 3146   0.247   4.095   3.782 -0.1631 -0.0920  0.1324
 2150W        W 3147   2.101   2.430   3.263  0.2585 -0.1508 -0.0826
 2151W        W 3148   5.834   0.223   5.395  0.0853  0.3469 -0.3528
 2152W        W 3149   7.152   2.904   0.054  0.1673  0.3803 -0.2688
 2153W        W 3150   4.538   1.363   7.262 -0.1444  0.1518  0.1584
 2154W        W 3151   7.032   5.152   7.167 -0.1633 -0.1669  0.1033
 2155W        W 3152   3.637   6.892   2.880 -0.0206 -0.1657  0.0370
 2156W        W 3153   4.801   1.360   5.982  0.0639 -0.4661  0.1608
 2157W        W 3154   3.707   6.815   5.396  0.1836 -0.0245  0.1601
 2158W        W 3155   1.364   2.807   4.696 -0.1416  0.0739 -0.1606
 2159W        W 3156   6.504   3.215   3.940  0.0174 -0.3814  0.1170
 2160W        W 3157   3.848   5.713   2.484 -0.0260 -0.0519  0.2584
 2161W        W 3158   0.669   5.983   1.830 -0.2590 -0.1369  0.2162
 2162W        W 3159   2.983   6.714   7.323 -0.1346 -0.0121 -0.1519
 2163W        W 3160   6.344   0.756   4.259  0.2749 -0.0954  0.1100
 2164W        W 3161   0.240   3.843   1.054  0.0385  0.1698 -0.0167
 2165W        W 3162   1.101   5.254   7.087 -0.0071 -0.0369 -0.0876
 2166W        W 3163   2.225   3.412   2.831 -0.0954  0.0088 -0.0381
 2167W        W 3164   6.973   7.192   5.608 -0.1037  0.4720  0.1811
 2168W        W 3165   6.215   7.481   7.039  0.3534  0.0990 -0.1988
 2169W        W 3166   4.260   6.024   2.457 -0.1007 -0.2110  0.0760
 2170W        W 3167   3.296   4.141   6.389 -0.3442  0.0577 -0.0528
 2171W        W 3168   0.259   4.739   1.519 -0.1226 -0.0324 -0.0542
 2172W        W 3169   4.905   1.957   4.001 -0.0219 -0.0799  0.2291
 2173W        W 3170   7.141   7.364   5.012 -0.1146 -0.0211 -0.0650
 2174W        W 3171   1.583   2.244   3.453 -0.0842  0.0062 -0.0962
 2175W        W 3172   2.332   4.116   6.551 -0.3614  0.2377  0.1495
 2176W        W 3173   5.660   0.312   3.228  0.0203  0.0014  0.0330
 2177W        W 3174   7.207   7.431   1.874 -0.1526 -0.0970  0.0379
 2178W        W 3175   7.644   4.238   7.104 -0.0493  0.1569  0.0197
 2179W        W 3176   3.057   0.930   2.186 -0.1841 -0.2456  0.0726
 2180W        W 3177   5.739   5.509   4.712 -0.1292 -0.1565  0.0237
 2181W        W 3178   5.425   0.528   5.491  0.0338 -0.2230  0.0908
 2182W        W 3179   5.619   1.958   6.991  0.1604  0.1813 -0.0901
 2183W        W 3180   0.956   7.644   2.414 -0.1186 -0.1389  0.1511
 2184W        W 3181   6.821   5.776   6.996 -0.3850  0.1104  0.1117
 2185W        W 3182   1.843   3.708   7.361 -0.2720  0.0620 -0.2037
 2186W        W 3183   1.270   1.378   4.139  0.0316  0.0821 -0.0302
 2187W        W 3184   0.687   6.542   3.625 -0.0497  0.2480  0.0821
 2188W        W 3185   7.384   2.266   5.404 -0.0072 -0.1315  0.2306
 2189W        W 3186   1.969   4.459   7.040 -0.2920 -0.0311 -0.1875
 2190W        W 3187   7.148   2.406   0.334 -0.1034 -0.0115 -0.3290
 2191W        W 3188   4.560   7.240   6.484  0.1580  0.0193 -0.1572
 2192W        W 3189   4.414   1.001   4.660  0.0439  0.0948  0.3875
 2193W        W 3190   2.301   7.503   4.401 -0.2549 -0.0547 -0.2305
 2194W        W 3191   3.614   2.122   4.874 -0.1298  0.1031  0.0223
 2195W        W 3192   7.304   1.242   7.186  0.0717  0.0973  0.2632
 2196W        W 3193   7.130   1.495   0.398  0.0036  0.1804 -0.2136
 2197W        W 3194   5.939   6.855   1.311 -0.0898 -0.3244 -0.0428
 2198W        W 3195   4.488   5.263   6.904 -0.0115 -0.2661  0.3567
 2199W        W 3196   5.725   7.645   4.066  0.3195  0.0209  0.1632
 2200W        W 3197   0.662   3.113   3.063  0.3806 -0.1290  0.1861
 2201W        W 3198   0.327   1.674   0.848 -0.0978 -0.0691  0.0932
 2202W        W 3199   6.811   5.791   5.676 -0.1746  0.0189  0.0173
 2203W        W 3200   7.365   0.879   1.126  0.2126 -0.1206  0.0969
 2204W        W 3201   1.031   6.704   2.678  0.0644 -0.1784 -0.0572
 2205W        W 3202   0.887   5.740   6.169 -0.0707  0.4117 -0.1667
 2206W        W 3203   2.155   4.668   3.181 -0.3717 -0.0905 -0.1958
 2207W        W 3204   1.349   7.235   0.421  0.0097  0.5527 -0.1295
 2208W        W 3205   7.074   2.493   4.457  0.2721 -0.1642 -0.4198
 2209W        W 3206   5.954   0.466   4.162 -0.1568  0.0755  0.1398
 2210W        W 3207   3.000   5.409   4.920 -0.1708 -0.0768 -0.1278
 2211W        W 3208   1.415   2.437   4.008  0.1573  0.1857  0.0523
 2212W        W 3209   7.244   0.208   6.012  0.2491  0.0754 -0.0391
 2213W        W 3210   5.566   2.991   4.807 -0.2276 -0.1039  0.1611
 2214W        W 3211   2.713   6.521   0.860  0.1465  0.2253 -0.0135
 2215W        W 3212   5.726   0.714   2.301  0.2791  0.1196  0.2836
 2216W        W 3213   5.256   6.574   5.445 -0.0547 -0.4659  0.2948
 2217W        W 3214   3.864   7.555   1.648 -0.2528 -0.0665 -0.1771
 2218W        W 3215   0.314   4.560   2.716 -0.3165 -0.0213 -0.0360
 2219W        W 3216   2.297   3.504   4.671 -0.0390  0.0346  0.3597
 2220W        W 3217   2.051   4.452   2.663  0.1560  0.0477 -0.3140
 2221W        W 3218   4.018   6.706   5.873 -0.0055 -0.0846  0.0806
 2222W        W 3219   6.268   1.134   6.602 -0.0778 -0.1213 -0.1548
 2223W        W 3220   6.489   5.649   6.586 -0.0174 -0.0019  0.0037
 2224W        W 3221   5.486   3.322   6.101 -0.0692 -0.0635 -0.1314
 2225W        W 3222   7.468   2.935   1.134  0.0443 -0.0484 -0.0642
 2226W        W 3223   3.461   6.814   2.293 -0.1496  0.0565 -0.1132
 2227W        W 3224   3.366   3.823   7.306 -0.0379 -0.1963 -0.0985
 2228W        W 3225   5.356   3.773   1.466  0.2275 -0.1025 -0.1927
 2229W        W 3226   4.996   7.346   4.528 -0.1861  0.3413  0.2827
 2230W        W 3227   3.424   0.249   5.260 -0.1450 -0.3493  0.0468
 2231W        W 3228   2.291   5.444   5.760 -0.2696 -0.3733  0.0938
 2232W        W 3229   5.936   6.100   1.832  0.1728  0.0204  0.1262
 2233W        W 3230   6.108   7.450   7.615  0.1535  0.1359  0.1634
 2234W        W 3231   1.632   4.175   7.257 -0.1166 -0.1395 -0.0775
 2235W        W 3232   4.048   2.724   4.886 -0.0543 -0.0220 -0.1366
 2236W        W 3233   4.117   3.121   2.275 -0.3892  0.1193 -0.3187
 2237W        W 3234   4.317   2.716   2.547 -0.0545  0.2319  0.0053
 2238W        W 3235   1.340   5.623   2.124  0.0422 -0.0904  0.0437
 2239W        W 3236   6.321   1.676   3.673  0.3518  0.0286  0.0527
 2240W        W 3237   2.265   6.921   5.094 -0.2626 -0.1134  0.1623
 2241W        W 3238   6.567   2.400   5.534 -0.0034 -0.1188 -0.3270
 2242W        W 3239   5.907   7.641   1.928  0.0717 -0.2708  0.1703
 2243W        W 3240   3.890   4.247   4.666 -0.0614 -0.0067 -0.0047
 2244W        W 3241   5.507   5.989   5.367 -0.0400 -0.1261  0.3021
 2245W        W 3242   5.258   6.765   2.019  0.3537  0.0188 -0.0674
 2246W        W 3243   1.350   3.218   2.878 -0.3208 -0.3820 -0.1235
 2247W        W 3244   2.613   4.983   2.189  0.0616 -0.0677  0.2111
 2248W        W 3245   2.121   3.957   6.992 -0.1648  0.0172 -0.2066
 2249W        W 3246   3.088   6.989   1.315 -0.1580 -0.1218  0.0611
 2250W        W 3247   4.285   5.218   1.991  0.2128  0.0489  0.0444
 2251W        W 3248   0.789   3.650   1.612  0.0053 -0.0600 -0.2429
 2252W        W 3249   4.028   7.147   6.501 -0.0523 -0.2752 -0.1367
 2253W        W 3250   4.141   5.713   3.787  0.0957 -0.0663  0.1004
 2254W        W 3251   7.122   6.472   0.678 -0.1147 -0.1133  0.1852
 2255W        W 3252   0.168   5.919   0.536  0.1220 -0.0053  0.3565
 2256W        W 3253   1.776   1.389   3.549 -0.1716 -0.2645 -0.3082
 2257W        W 3254   7.135   7.569   2.346 -0.0474 -0.1800 -0.0862
 2258W        W 3255   0.636   0.562   4.255 -0.1782  0.0546  0.0137
 2259W        W 3256   3.428   4.670   5.880  0.0915 -0.1033  0.1254
 2260W        W 3257   1.901   5.297   5.968 -0.1058  0.0135  0.0629
 2261W        W 3258   5.815   5.489   0.212 -0.0845 -0.2836 -0.1839
 2262W        W 3259   5.383   2.981   1.762  0.1303  0.1048 -0.1284
 2263W        W 3260   0.770   5.687   7.235 -0.1731 -0.2149 -0.2299
 2264W        W 3261   4.188   3.185   4.506  0.2196 -0.1332  0.1865
 2265W        W 3262   0.243   0.681   1.118  0.5601 -0.2907 -0.0333
 2266W        W 3263   6.098   5.117   2.320  0.0544 -0.1713 -0.0537
 2267W        W 3264   0.555   5.781   2.997 -0.0059  0.0657 -0.0357
 2268W        W 3265   5.530   3.510   7.119 -0.0599 -0.1040 -0.0026
 2269W        W 3266   6.438   5.838   3.858 -0.0053  0.2909  0.2532
 2270W        W 3267   3.817   0.226   3.753  0.1741  0.0318  0.1492
 2271W        W 3268   5.512   7.130   0.666 -0.3175  0.1767  0.1450
 2272W        W 3269   0.246   4.157   5.250 -0.1102 -0.1271 -0.2233
 2273W        W 3270   1.514   2.840   5.209  0.2761  0.3154 -0.0423
 2274W        W 3271   6.089   6.585   4.947  0.0660  0.0197  0.1166
 2275W        W 3272   4.860   1.302   1.110  0.0189  0.0974 -0.2215
 2276W        W 3273   3.783   3.070   6.894  0.0760  0.1410  0.2194
 2277W        W 3274   5.375   1.757   3.851  0.2209 -0.1036  0.2793
 2278W        W 3275   7.165   4.160   1.374 -0.1594 -0.1240 -0.1464
 2279W        W 3276   0.565   6.302   5.374  0.1932 -0.0269  0.2321
 2280W        W 3277   5.379   0.476   0.569 -0.0874  0.2495 -0.2118
 2281W        W 3278   1.129   2.491   3.521  0.0443 -0.1004  0.2990
 2282W        W 3279   7.352   5.096   1.278  0.1681  0.1188 -0.0248
 2283W        W 3280   4.822   2.780   2.610 -0.0658 -0.1179  0.0229
 2284W        W 3281   1.825   1.141   2.933 -0.2140  0.0858 -0.0176
 2285W        W 3282   6.928   2.708   5.779 -0.0245  0.1421  0.1580
 2286W        W 3283   1.973   6.629   5.572  0.2347 -0.0178 -0.0035
 2287W        W 3284   0.205   6.412   3.516 -0.0741 -0.1716  0.0607
 2288W        W 3285   4.662   3.893   4.302  0.1422 -0.1514  0.0410
 2289W        W 3286   6.916   2.891   1.196  0.0829 -0.2894 -0.2314
 2290W        W 3287   5.604   4.715   3.648  0.2933 -0.0215  0.2580
 2291W        W 3288   6.283   0.099   0.656  0.0221  0.2831 -0.2048
 2292W        W 3289   3.068   4.085   2.644 -0.0117 -0.3084 -0.0728
 2293W        W 3290   3.084   5.859   4.828  0.0024  0.0953 -0.1533
 2294W        W 3291   4.152   6.670   5.123  0.0763  0.0409 -0.2208
 2295W        W 3292   7.093   3.129   3.288 -0.0464  0.0548 -0.4062
 2296W        W 3293   1.155   4.686   6.481 -0.2927 -0.4397  0.0223
 2297W        W 3294   7.010   1.180   6.185 -0.0158 -0.0821 -0.1856
 2298W        W 3295   0.525   1.617   1.290  0.2392 -0.0507 -0.2051
 2299W        W 3296   6.919   7.396   3.054 -0.2348  0.0803  0.2512
 2300W        W 3297   1.329   5.787   4.821 -0.1167  0.3472  0.0489
 2301W        W 3298   7.421   7.519   2.993 -0.1391  0.3209 -0.0728
 2302W        W 3299   1.838   4.577   0.431  0.1100 -0.1856  0.2632
 2303W        W 3300   5.205   0.438   2.051  0.0797 -0.3392 -0.1418
 2304W        W 3301   1.121   1.152   2.486 -0.1230  0.0065 -0.0537
 2305W        W 3302   6.281   2.429   3.002 -0.0757  0.0467 -0.2264
 2306W        W 3303   3.981   3.523   3.580  0.0595 -0.1662  0.1263
 2307W        W 3304   0.758   1.555   1.740 -0.0470  0.3097 -0.0990
 2308W        W 3305   3.774   1.463   5.080 -0.0823 -0.1119 -0.1425
 2309W        W 3306   7.296   1.923   6.183  0.1031  0.0952 -0.0350
 2310W        W 3307   2.787   4.786   0.670 -0.1126 -0.1280  0.1028
 2311W        W 3308   4.806   5.203   7.308  0.0120  0.0812 -0.1191
 2312W        W 3309   5.662   3.672   7.639  0.0539  0.0653 -0.0510
 2313W        W 3310   1.932   5.786   5.958  0.2160  0.1640  0.0276
 2314W        W 3311   5.112   3.076   1.128 -0.0641 -0.1112  0.2922
 2315W        W 3312   4.891   2.136   7.617 -0.3138 -0.0031 -0.5033
 2316W        W 3313   7.379   1.923   5.049  0.1087  0.2655 -0.0701
 2317W        W 3314   7.586   4.622   6.817  0.0158 -0.0865 -0.3448
 2318W        W 3315   4.801   1.561   3.255 -0.1098 -0.1178 -0.2438
 2319W        W 3316   4.706   6.549   7.229  0.4821 -0.2675 -0.0165
 2320W        W 3317   5.963   3.288   5.965  0.3526  0.0762  0.2039
 2321W        W 3318   4.653   3.424   6.064  0.0823 -0.0067  0.2263
 2322W        W 3319   1.308   3.458   6.106 -0.3749  0.1590  0.0252
 2323W        W 3320   7.322   7.588   5.545  0.0395 -0.0022  0.1401
 2324W        W 3321   0.322   5.520   5.255  0.3043  0.0298  0.0650
 2325W        W 3322   6.433   2.794   2.565  0.0790  0.2523  0.0509
 2326W        W 3323   6.315   3.910   3.676  0.1949 -0.1737  0.0124
 2327W        W 3324   6.122   1.064   5.714  0.1305  0.0404  0.0184
 2328W        W 3325   6.346   7.090   2.418  0.3214  0.0417  0.1989
 2329W        W 3326   5.299   5.097   3.790 -0.1977  0.2504 -0.0106
 2330W        W 3327   0.197   5.731   4.290  0.0280 -0.1076  0.3135
 2331W        W 3328   2.127   0.181   3.394  0.0205 -0.0744 -0.1416
 2332W        W 3329   0.288   1.401   1.793 -0.2456  0.1992  0.0683
 2333W        W 3330   2.050   4.180   2.242 -0.2235 -0.1293  0.0473
 2334W        W 3331   0.200   2.602   2.307  0.0989 -0.1321 -0.0372
 2335W        W 3332   2.259   5.849   1.758  0.0171 -0.0929  0.1443
 2336W        W 3333   2.840   6.742   5.900 -0.4243  0.1679 -0.0551
 2337W        W 3334   7.288   1.906   2.133 -0.0402 -0.2611  0.0305
 2338W        W 3335   3.358   6.470   5.473 -0.3603  0.1551  0.2269
 2339W        W 3336   4.636   1.109   6.780 -0.0812 -0.0655 -0.1634
 2340W        W 3337   5.570   5.539   0.647 -0.3145  0.1866 -0.1427
 2341W        W 3338   2.088   3.814   6.224 -0.1906 -0.2525 -0.2147
 2342W        W 3339   7.338   2.727   4.091  0.1312  0.0924 -0.0797
 2343W        W 3340   4.655   5.686   3.730 -0.3950  0.2700  0.0912
 2344W        W 3341   3.566   2.348   2.215 -0.0235 -0.0936 -0.0377
 2345W        W 3342   4.826   0.530   2.600  0.1899 -0.2845  0.0109
 2346W        W 3343   6.407   6.256   0.106  0.1643 -0.1921 -0.2529
 2347W        W 3344   5.198   0.239   0.154  0.0394  0.2642  0.1417
 2348W        W 3345   6.841   0.771   6.536 -0.0544 -0.2965  0.1704
 2349W        W 3346   2.705   3.431   4.269  0.1314 -0.2924  0.1282
 2350W        W 3347   6.266   0.472   3.802 -0.1261  0.3822 -0.0820
 2351W        W 3348   4.405   4.799   6.573  0.1687  0.2556 -0.3422
 2352W        W 3349   4.418   6.956   2.441 -0.0688 -0.1757 -0.2187
 2353W        W 3350   5.189   1.603   0.853  0.1092 -0.1879 -0.1752
 2354W        W 3351   1.018   7.381   3.943  0.1120  0.1876  0.2475
 2355W        W 3352   6.023   7.287   4.208  0.0658 -0.4492  0.1134
 2356W        W 3353   0.936   3.057   5.980  0.2827  0.1772  0.2322
 2357W        W 3354   0.055   3.241   5.331  0.0495  0.0716 -0.2225
 2358W        W 3355   5.888   4.905   4.003  0.1004  0.0702 -0.1189
 2359W        W 3356   0.027   1.547   0.428 -0.2336 -0.1962  0.2512
 2360W        W 3357   4.195   1.185   2.657 -0.1250 -0.0627  0.1709
 2361W        W 3358   4.420   1.872   5.462 -0.0553  0.4267 -0.0868
 2362W        W 3359   3.740   7.274   4.423 -0.1812  0.0169  0.2012
 2363W        W 3360   4.362   1.809   4.444  0.0915 -0.1389 -0.0834
 2364W        W 3361   5.706   0.105   1.439 -0.1949  0.1204 -0.0383
 2365W        W 3362   0.160   5.440   0.203  0.1154 -0.1172  0.1292
 2366W        W 3363   1.324   4.270   6.677  0.2608  0.0862  0.2395
 2367W        W 3364   4.208   3.182   6.086  0.1004 -0.2535  0.0416
 2368W        W 3365   2.185   6.253   1.480 -0.2076  0.2800  0.0679
 2369W        W 3366   4.504   4.960   4.443 -0.3071 -0.0209  0.4677
 2370W        W 3367   3.861   2.827   6.425 -0.0685  0.0981 -0.2771
 2371W        W 3368   0.989   3.373   0.788  0.0721  0.2423  0.0612
 2372W        W 3369   2.754   0.610   2.767 -0.0492  0.0098  0.0527
 2373W        W 3370   0.403   3.360   7.358 -0.0655  0.1560 -0.1462
 2374W        W 3371   1.158   4.945   5.038  0.1019  0.2298  0.1481
 2375W        W 3372   6.628   4.642   0.955  0.1252 -0.0815  0.1463
 2376W        W 3373   2.494   5.842   1.245 -0.0089 -0.1882  0.1236
 2377W        W 3374   0.334   4.280   6.612  0.1209  0.1126  0.2441
 2378W        W 3375   1.652   4.764   0.949  0.2360 -0.0160 -0.2023
 2379W        W 3376   1.251   5.728   7.319 -0.3604  0.0290 -0.1751
 2380W        W 3377   1.839   4.546   1.919 -0.0073  0.1886 -0.0784
 2381W        W 3378   0.440   4.232   3.086  0.5631 -0.0484  0.1132
 2382W        W 3379   1.325   4.396   1.161 -0.1611 -0.3182  0.2258
 2383W        W 3380   1.199   7.552   3.149 -0.2759  0.1694 -0.2156
 2384W        W 3381   5.073   3.404   1.630 -0.0980  0.0940  0.0485
 2385W        W 3382   0.104   6.463   1.426  0.0536  0.4776  0.1106
 2386W        W 3383   5.229   5.006   7.204  0.2457  0.1244 -0.3305
 2387W        W 3384   5.219   4.463   6.221  0.0732 -0.0189  0.0778
 2388W        W 3385   2.175   5.568   3.059 -0.0880  0.1242 -0.0037
 2389W        W 3386   2.959   3.468   5.230  0.0931 -0.2084  0.1974
 2390W        W 3387   7.016   1.671   0.923 -0.0184  0.0016  0.1577
 2391W        W 3388   6.773   2.215   7.077  0.2393 -0.1107 -0.1599
 2392W        W 3389   2.432   3.591   5.178 -0.4130 -0.1174  0.1312
 2393W        W 3390   0.394   2.863   6.105  0.3293 -0.0675  0.0985
 2394W        W 3391   5.056   0.697   5.933 -0.1070 -0.0834 -0.3447
 2395W        W 3392   4.695   1.465   4.568  0.0698 -0.3254  0.3578
 2396W        W 3393   6.916   4.618   7.195  0.6979 -0.2371  0.0304
 2397W        W 3394   0.453   5.879   2.322 -0.2828  0.0963 -0.2271
 2398W        W 3395   3.070   1.148   3.605 -0.0876  0.0057 -0.0115
 2399W        W 3396   0.504   5.354   2.365 -0.1236 -0.1911 -0.1759
 2400W        W 3397   1.961   0.484   3.816  0.0577  0.2556  0.0128
 2401W        W 3398   3.265   0.366   4.247  0.1182  0.1528  0.1083
 2402W        W 3399   3.261   5.858   7.263 -0.0433  0.0808  0.0963
 2403W        W 3400   6.159   1.755   2.342  0.1575  0.2049 -0.0004
 2404W        W 3401   6.303   5.439   1.505 -0.0471 -0.0973 -0.1185
 2405W        W 3402   1.787   5.087   7.027  0.3387  0.0820  0.1200
 2406W        W 3403   3.769   2.435   5.266 -0.3308  0.2244  0.3658
 2407W        W 3404   4.704   6.648   2.129 -0.2290  0.1014  0.0429
 2408W        W 3405   4.672   0.956   4.195  0.2148 -0.2441 -0.0923
 2409W        W 3406   6.051   7.208   0.401  0.1434 -0.1525  0.3368
 2410W        W 3407   6.904   3.181   7.361  0.0633 -0.1586  0.1426
 2411W        W 3408   6.855   7.026   2.342 -0.0851  0.3260  0.0979
 2412W        W 3409   5.991   0.632   3.363  0.0143  0.3340 -0.2251
 2413W        W 3410   5.643   6.652   7.164 -0.0787  0.0414 -0.0659
 2414W        W 3411   6.416   1.995   5.261 -0.0758  0.0752  0.1305
 2415W        W 3412   3.745   0.629   5.258  0.2471 -0.1941 -0.1359
 2416W        W 3413   2.282   4.320   1.809 -0.0250 -0.1471 -0.0752
 2417W        W 3414   6.901   3.804   6.618 -0.2502  0.1396  0.0174
 2418W        W 3415   5.270   6.483   6.756  0.0365 -0.0992 -0.3031
 2419W        W 3416   5.887   2.309   3.489 -0.1270  0.1413 -0.1160
 2420W        W 3417   7.060   0.791   7.001 -0.0372 -0.2587 -0.1150
 2421W        W 3418   2.601   4.681   3.401  0.4610  0.1239  0.0432
 2422W        W 3419   4.251   5.717   6.839  0.0598 -0.0310  0.1855
 2423W        W 3420   2.257   6.088   2.932  0.1254  0.1684  0.0233
 2424W        W 3421   4.996   5.873   5.985  0.0041 -0.2853  0.1412
 2425W        W 3422   4.595   5.508   1.246  0.0540  0.0544  0.0784
 2426W        W 3423   6.783   6.414   1.440  0.2978 -0.1568  0.0827
 2427W        W 3424   2.067   3.595   1.894  0.0404  0.0268  0.0063
 2428W        W 3425   6.192   4.576   6.383  0.2671 -0.5419  0.1487
 2429W        W 3426   2.756   7.539   4.072 -0.1597 -0.0020  0.1297
 2430W        W 3427   4.692   2.246   5.700 -0.2248  0.1940 -0.1375
 2431W        W 3428   6.322   0.980   2.868  0.4241  0.0273 -0.0040
 2432W        W 3429   0.275   6.826   3.834 -0.2163 -0.4008 -0.1056
 2433W        W 3430   0.397   2.932   4.764  0.2780  0.0395  0.4855
 2434W        W 3431   7.040   2.823   1.861 -0.2040  0.2370  0.1923
 2435W        W 3432   6.751   7.577   6.902  0.0341  0.1970  0.2892
 2436W        W 3433   4.592   0.529   1.390 -0.0768 -0.1510 -0.0193
 2437W        W 3434   0.068   3.214   2.373 -0.1760  0.2125 -0.0018
 2438W        W 3435   2.738   4.871   4.075 -0.0591 -0.1832 -0.1262
 2439W        W 3436   5.311   3.539   0.421  0.0896  0.0603  0.0818
 2440W        W 3437   0.903   7.350   0.633 -0.1950  0.0375  0.1494
 2441W        W 3438   5.498   0.774   3.346  0.1512 -0.1369 -0.0886
 2442W        W 3439   5.776   0.042   0.398 -0.2261 -0.1181 -0.1205
 2443W        W 3440   0.338   3.890   7.327  0.0079  0.1833  0.0457
 2444W        W 3441   5.276   5.782   0.329 -0.0325  0.0716  0.1277
 2445W        W 3442   7.476   7.354   7.519  0.1447 -0.1411  0.2942
 2446W        W 3443   5.991   5.806   0.600  0.2708  0.0066  0.1414
 2447W        W 3444   5.157   0.712   0.208  0.1227 -0.0183 -0.1236
 2448W        W 3445   4.609   1.853   3.641  0.0835  0.2517 -0.2498
 2449W        W 3446   0.407   7.569   0.728 -0.0521  0.3604 -0.0291
 2450W        W 3447   3.097   4.420   5.000 -0.3911 -0.1190 -0.0958
 2451W        W 3448   6.482   5.121   5.484 -0.0490  0.0806 -0.1721
 2452W        W 3449   5.130   3.222   4.505  0.1833  0.2568 -0.1513
 2453W        W 3450   6.387   2.312   1.118 -0.0606  0.0453  0.1372
 2454W        W 3451   0.035   7.377   2.524  0.1472 -0.1367  0.1881
 2455W        W 3452   6.326   0.522   2.800 -0.2818  0.0894 -0.0618
 2456W        W 3453   7.025   6.109   6.020  0.1122 -0.0654  0.1199
 2457W        W 3454   3.806   5.241   0.650 -0.1333  0.0904 -0.5463
 2458W        W 3455   2.256   4.996   6.251  0.0941 -0.1617 -0.1594
 2459W        W 3456   6.512   2.310   3.399 -0.1038 -0.0075 -0.1231
 2460W        W 3457   5.858   2.571   3.941  0.0991 -0.1526 -0.2377
 2461W        W 3458   5.198   4.327   0.622  0.1403 -0.0576 -0.3615
 2462W        W 3459   0.154   3.737   5.642  0.2777  0.2509  0.1444
 2463W        W 3460   0.991   3.122   2.527 -0.2212  0.2583 -0.0317
 2464W        W 3461   5.136   7.298   2.169 -0.0981  0.1105 -0.2494
 2465W        W 3462   7.350   2.744   3.101 -0.2038 -0.2304 -0.0502
 2466W        W 3463   7.508   2.227   4.510 -0.1570  0.0482  0.1198
 2467W        W 3464   6.860   5.078   5.822 -0.1274  0.0925  0.0151
 2468W        W 3465   3.523   5.627   4.848  0.0781 -0.1123  0.0623
 2469W        W 3466   6.977   3.516   2.659 -0.0847  0.1615 -0.1125
 2470W        W 3467   7.482   6.558   4.505 -0.0854  0.1047  0.0621
 2471W        W 3468   5.143   4.276   1.442  0.1949  0.1195  0.2138
 2472W        W 3469   1.111   5.615   3.114  0.0826 -0.0633  0.0640
 2473W        W 3470   2.836   5.259   6.943  0.0894 -0.3016 -0.0308
 2474W        W 3471   4.745   4.553   6.050  0.0007  0.0783 -0.2822
 2475W        W 3472   2.055   6.662   2.223  0.0141 -0.1071 -0.2084
 2476W        W 3473   2.612   6.208   2.651  0.0914  0.1722  0.1069
 2477W        W 3474   2.774   6.534   1.422  0.1095 -0.0803  0.0082
 2478W        W 3475   1.600   5.695   6.376  0.2358  0.1550 -0.3503
 2479W        W 3476   7.624   4.573   5.410  0.2530  0.0403  0.1180
 2480W        W 3477   5.640   4.959   6.914  0.1172 -0.3382  0.2721
 2481W        W 3478   4.991   0.280   4.592 -0.2257  0.0990  0.2421
 2482W        W 3479   2.689   6.872   3.391  0.3013 -0.2502  0.0812
 2483W        W 3480   6.589   7.055   4.304  0.0651 -0.1049  0.1224
 2484W        W 3481   6.874   3.087   2.405 -0.1007 -0.2411 -0.0561
 2485W        W 3482   0.104   0.533   2.326  0.1384 -0.0222  0.1835
 2486W        W 3483   4.073   4.844   0.953  0.2367 -0.2240 -0.0109
 2487W        W 3484   5.859   6.419   7.576 -0.1527  0.2332  0.0184
 2488W        W 3485   3.471   5.938   6.262 -0.2013  0.3285 -0.3914
 2489W        W 3486   5.414   0.954   4.175  0.0051  0.4793  0.1135
 2490W        W 3487   0.439   3.928   0.194  0.1174  0.0175 -0.1171
 2491W        W 3488   2.964   2.716   3.083 -0.1108  0.0250 -0.0583
 2492W        W 3489   5.160   1.719   0.241 -0.0235  0.0373 -0.2732
 2493W        W 3490   6.484   0.253   4.632  0.0033 -0.1240  0.0050
 2494W        W 3491   4.193   7.193   2.038 -0.0980 -0.0444  0.0025
 2495W        W 3492   7.003   3.266   6.504 -0.1318 -0.3114 -0.1970
 2496W        W 3493   3.636   4.413   3.065 -0.1575 -0.0973  0.1268
 2497W        W 3494   0.437   4.780   6.901  0.0919  0.0686  0.0118
 2498W        W 3495   2.507   4.317   6.948  0.2526 -0.0350 -0.3212
 2499W        W 3496   0.560   3.329   5.640  0.2448 -0.0837  0.0083
 2500W        W 3497   5.335   5.397   7.499  0.0127 -0.1415  0.1260
 2501W        W 3498   0.498   3.561   0.509  0.0584  0.0040  0.0796
 2502W        W 3499   7.571   7.032   1.684 -0.3653 -0.0936  0.0024
 2503W        W 3500   1.034   6.220   5.625  0.0547  0.0476  0.1412
 2504W        W 3501   4.701   1.417   0.103 -0.1515  0.1971  0.0826
 2505W        W 3502   0.499   6.079   0.252 -0.1258 -0.0793 -0.0835
 2506W        W 3503   1.601   5.128   3.405  0.0854 -0.0702 -0.1037
 2507W        W 3504   3.422   1.643   4.726  0.1854 -0.2091  0.2780
 2508W        W 3505   2.105   1.048   3.795 -0.2372 -0.0845  0.1158
 2509W        W 3506   4.090   7.012   7.470 -0.3536  0.1713  0.0738
 2510W        W 3507   1.629   5.269   7.449  0.0233 -0.0960  0.0925
 2511W        W 3508   3.418   6.097   1.125  0.0762 -0.1254 -0.0955
 2512W        W 3509   0.905   7.229   3.445 -0.2848 -0.4003  0.4098
 2513W        W 3510   2.601   5.513   3.319 -0.0221  0.1230 -0.0177
 2514W        W 3511   7.412   3.853   6.613 -0.1270  0.1513  0.0346
 2515W        W 3512   0.818   2.115   1.456  0.0437  0.2148 -0.1171
 2516W        W 3513   4.735   2.977   6.317  0.0275 -0.0060  0.0062
 2517W        W 3514   6.233   1.377   0.375  0.1287  0.0275  0.1337
 2518W        W 3515   5.500   5.077   0.224  0.0204 -0.0171  0.2903
 2519W        W 3516   2.375   5.754   4.368  0.1114  0.0661  0.3232
 2520W        W 3517   0.817   4.735   3.626  0.0048 -0.0025  0.4060
 2521W        W 3518   5.289   6.319   0.021 -0.2381  0.1932 -0.3184
 2522W        W 3519   0.257   7.574   2.896  0.0384 -0.0653 -0.0515
 2523W        W 3520   4.221   2.188   3.634  0.0196 -0.1578  0.0416
 2524W        W 3521   0.456   4.515   5.568  0.0575  0.2403  0.1581
 2525W        W 3522   3.442   3.477   5.388  0.1617 -0.3860  0.0717
 2526W        W 3523   1.087   5.215   3.799 -0.1673  0.0698  0.4267
 2527W        W 3524   7.123   0.386   2.214  0.4568  0.1515 -0.2217
 2528W        W 3525   4.886   6.092   0.187 -0.2639  0.0229  0.2016
 2529W        W 3526   5.823   6.060   1.027 -0.1866  0.3023  0.1885
 2530W        W 3527   3.224   5.781   1.965  0.2265 -0.0488 -0.1789
 2531W        W 3528   3.646   6.968   3.892 -0.0087 -0.0942  0.0371
 2532W        W 3529   6.434   2.194   2.064 -0.0052 -0.1171  0.2752
 2533W        W 3530   0.694   3.728   6.573 -0.0485  0.2159  0.2197
 2534W        W 3531   6.160   2.301   4.447  0.1082 -0.1035 -0.1524
 2535W        W 3532   4.771   6.759   4.621  0.4415  0.2001  0.1251
 2536W        W 3533   0.004   5.917   0.040 -0.1791 -0.0655 -0.0107
 2537W        W 3534   6.633   0.374   5.177 -0.2007 -0.0015 -0.1951
 2538W        W 3535   4.623   1.754   0.874 -0.0912  0.1513  0.1368
 2539W        W 3536   6.963   4.846   2.651 -0.1307  0.1001 -0.2931
 2540W        W 3537   3.480   0.630   2.161  0.5616  0.1990 -0.0680
 2541W        W 3538   3.807   4.765   0.441  0.0369 -0.1748  0.0332
 2542W        W 3539   0.130   6.616   3.059  0.0620  0.1989 -0.0449
 2543W        W 3540   0.408   7.096   2.886  0.1287 -0.1904 -0.0070
 2544W        W 3541   0.152   2.434   4.149  0.2787  0.2372  0.1121
 2545W        W 3542   6.180   6.431   3.526  0.0263 -0.0583 -0.2464
 2546W        W 3543   7.270   6.155   3.859  0.1643 -0.0355 -0.0728
 2547W        W 3544   5.496   4.570   1.341 -0.0463  0.3648 -0.0825
 2548W        W 3545   0.842   0.436   2.881  0.0840 -0.3695 -0.2359
 2549W        W 3546   2.075   1.646   4.360  0.3231  0.2839  0.0697
 2550W        W 3547   4.682   6.501   2.612 -0.1418  0.0812  0.0547
 2551W        W 3548   5.105   5.837   3.577 -0.0410  0.2117  0.2037
 2552W        W 3549   2.457   6.451   3.639 -0.0530 -0.0305  0.1847
 2553W        W 3550   4.060   6.342   1.778  0.2557 -0.1304  0.1430
 2554W        W 3551   6.426   7.349   3.095 -0.1452 -0.1141 -0.1106
 2555W        W 3552   2.500   2.427   4.479 -0.0384  0.2521 -0.1214
 2556W        W 3553   2.110   4.573   6.581 -0.1164  0.0860  0.1675
 2557W        W 3554   7.384   1.625   2.589 -0.0091  0.0856 -0.2368
 2558W        W 3555   6.753   4.456   7.627  0.2051  0.1339  0.0280
 2559W        W 3556   0.066   3.858   0.543  0.1147 -0.2617 -0.2072
 2560W        W 3557   5.422   3.974   7.286 -0.0961  0.3641 -0.0324
 2561W        W 3558   2.087   5.235   3.412  0.0404  0.0156  0.0498
 2562W        W 3559   1.367   6.738   1.075  0.3173  0.2645 -0.1589
 2563W        W 3560   0.166   3.024   6.559  0.0662 -0.0939 -0.0158
 2564W        W 3561   5.365   1.252   1.188  0.2778  0.2116  0.0957
 2565W        W 3562   1.059   3.439   6.688  0.1085 -0.2296 -0.1305
 2566W        W 3563   4.723   3.931   5.182  0.1382 -0.1085  0.0118
 2567W        W 3564   4.712   1.418   5.219  0.3666 -0.1097 -0.1849
 2568W        W 3565   3.734   5.856   6.696  0.1205  0.0621  0.0098
 2569W        W 3566   5.903   5.283   6.078 -0.1587 -0.2578 -0.0113
 2570W        W 3567   5.942   6.662   3.063 -0.2540 -0.2863  0.1624
 2571W        W 3568   0.483   7.416   3.854 -0.0247  0.3325  0.0197
 2572W        W 3569   0.603   3.401   4.531 -0.0150  0.1400  0.3787
 2573W        W 3570   5.193   4.287   2.535 -0.3031  0.1635  0.2691
 2574W        W 3571   7.008   3.812   5.591 -0.2749  0.0862 -0.2434
 2575W        W 3572   0.319   6.297   6.752  0.0308  0.2487  0.2499
 2576W        W 3573   5.519   0.776   4.632  0.3457 -0.2744 -0.3069
 2577W        W 3574   6.569   3.726   4.087 -0.3495 -0.1916 -0.1931
 2578W        W 3575   5.173   7.135   5.523  0.0697 -0.0716  0.1044
 2579W        W 3576   0.087   0.978   7.140  0.2664  0.2150  0.0235
 2580W        W 3577   0.065   2.664   2.787  0.0639 -0.0527  0.1399
 2581W        W 3578   4.216   0.296   1.600 -0.0599  0.1762  0.1616
 2582W        W 3579   7.268   1.488   1.384  0.0013  0.0958  0.1625
 2583W        W 3580   0.593   0.726   4.698 -0.3456  0.1186 -0.1232
 2584W        W 3581   1.754   5.770   7.321  0.1101 -0.2513  0.1682
 2585W        W 3582   6.722   3.605   5.174  0.0313 -0.0442  0.0925
 2586W        W 3583   2.740   5.789   5.258 -0.3288 -0.2886 -0.1064
 2587W        W 3584   6.065   1.207   3.545 -0.2572  0.1510  0.1185
 2588W        W 3585   4.524   3.722   7.538 -0.1769 -0.2782 -0.1908
 2589W        W 3586   0.552   4.286   7.111  0.1558 -0.3469 -0.1591
 2590W        W 3587   1.063   6.048   0.957 -0.0852  0.3014 -0.1858
 2591W        W 3588   4.573   3.254   2.378 -0.0729 -0.0365 -0.1473
 2592W        W 3589   6.927   6.454   4.914 -0.0163 -0.1585 -0.1964
 2593W        W 3590   4.959   0.156   0.538  0.0241  0.3337 -0.2821
 2594W        W 3591   6.573   6.614   5.194  0.1006 -0.0771 -0.1600
 2595W        W 3592   5.993   6.943   0.792 -0.2771 -0.0433 -0.0624
 2596W        W 3593   6.995   5.452   3.771 -0.1914 -0.1695  0.1378
 2597W        W 3594   4.278   5.966   3.391  0.1280 -0.2112  0.1563
 2598W        W 3595   6.774   7.378   3.529  0.0952  0.1260 -0.0544
 2599W        W 3596   2.152   3.366   4.113 -0.1675 -0.1498  0.1507
 2600W        W 3597   6.140   5.185   4.320  0.3037  0.0497 -0.0816
 2601W        W 3598   2.540   6.631   2.364 -0.0621 -0.2200  0.0224
 2602W        W 3599   2.401   0.946   4.533  0.2476  0.1135  0.0994
 2603W        W 3600   5.412   3.816   6.231  0.2077  0.2218 -0.2045
 2604W        W 3601   3.928   6.676   6.775  0.0244 -0.2700  0.0165
 2605W        W 3602   3.118   6.158   1.617 -0.1912 -0.3348 -0.2681
 2606W        W 3603   1.382   1.341   2.861  0.1158 -0.0042 -0.2154
 2607W        W 3604   2.980   4.447   3.814 -0.2774 -0.0149  0.1940
 2608W        W 3605   5.165   0.242   3.741  0.0849 -0.1754  0.2626
 2609W        W 3606   2.793   4.868   5.053  0.0239 -0.0351  0.3198
 2610W        W 3607   6.803   0.441   4.263  0.0071  0.1350  0.0750
 2611W        W 3608   1.302   1.355   3.526 -0.1877 -0.0870 -0.2216
 2612W        W 3609   6.124   0.395   2.312 -0.2489  0.3434 -0.2636
 2613W        W 3610   0.731   4.871   7.407  0.1179  0.1796 -0.2343
 2614W        W 3611   2.052   0.895   2.304 -0.0804 -0.3385 -0.0473
 2615W        W 3612   0.145   6.123   1.994 -0.0003  0.1863 -0.0539
 2616W        W 3613   1.529   1.808   3.733 -0.0235  0.0128  0.2049
 2617W        W 3614   4.318   7.070   0.715 -0.0477  0.2254 -0.2001
 2618W        W 3615   4.835   3.354   7.434 -0.0192 -0.1001  0.0029
 2619W        W 3616   7.222   6.252   2.305  0.2777 -0.1221 -0.2764
 2620W        W 3617   6.384   6.673   2.661 -0.0428 -0.1913  0.3474
 2621W        W 3618   0.156   5.480   5.739  0.0518  0.3298 -0.0536
 2622W        W 3619   6.256   6.519   2.191  0.1314  0.0480 -0.0978
 2623W        W 3620   7.106   4.062   2.775 -0.1164 -0.0358  0.0444
 2624W        W 3621   1.782   6.884   0.523  0.1097  0.1325  0.0110
 2625W        W 3622   2.578   4.081   2.523  0.1179 -0.3359 -0.1904
 2626W        W 3623   3.894   4.193   2.108  0.2526  0.1551  0.0692
 2627W        W 3624   0.146   6.431   2.460  0.0835 -0.2401  0.0817
 2628W        W 3625   0.293   3.276   3.976 -0.0364  0.4218  0.3285
 2629W        W 3626   0.496   2.679   0.337  0.0807  0.1371 -0.0249
 2630W        W 3627   3.758   4.593   2.445 -0.0107  0.1035 -0.1786
 2631W        W 3628   4.197   0.688   2.721  0.0639  0.0630 -0.0645
 2632W        W 3629   3.993   6.617   3.825 -0.1223 -0.3392  0.1502
 2633W        W 3630   6.592   2.333   2.509 -0.1550  0.1604 -0.3218
 2634W        W 3631   0.264   1.902   3.392 -0.3262 -0.3206  0.1121
 2635W        W 3632   5.924   4.572   3.277 -0.0407  0.2623  0.1279
 2636W        W 3633   5.435   7.639   0.802 -0.0674 -0.2064  0.2182
 2637W        W 3634   1.882   3.336   2.291  0.0145  0.0425 -0.4556
 2638W        W 3635   7.603   6.059   7.198  0.1564 -0.0772 -0.0635
 2639W        W 3636   5.177   5.488   1.477  0.0841 -0.2322 -0.3900
 2640W        W 3637   2.972   7.348   4.858 -0.0330 -0.0069  0.0478
 2641W        W 3638   7.599   6.873   2.678 -0.0365 -0.0023 -0.0561
 2642W        W 3639   3.308   2.481   2.775  0.0854  0.0302  0.2280
 2643W        W 3640   6.640   3.888   0.834  0.1607 -0.3209  0.0145
 2644W        W 3641   4.277   5.929   4.333 -0.0316  0.3857  0.2069
 2645W        W 3642   4.049   5.503   3.341  0.3568 -0.0844 -0.1118
 2646W        W 3643   1.196   6.049   5.200  0.0237 -0.2023 -0.4090
 2647W        W 3644   4.674   0.038   4.306 -0.3385 -0.2222  0.2825
 2648W        W 3645   6.414   6.799   1.044  0.1858 -0.0389  0.1737
 2649W        W 3646   4.484   2.818   2.055 -0.1674 -0.2235  0.1112
 2650W        W 3647   5.122   1.963   3.003 -0.0768 -0.0974 -0.0826
 2651W        W 3648   0.833   1.214   3.426  0.1665 -0.2480 -0.1286
 2652W        W 3649   3.780   5.496   7.073  0.4528 -0.5043  0.3648
 2653W        W 3650   1.156   0.087   4.552  0.2346  0.3074  0.1642
 2654W        W 3651   1.004   3.525   5.401  0.0360  0.0345  0.0001
 2655W        W 3652   3.019   5.677   6.009  0.1320 -0.1160  0.0117
 2656W        W 3653   3.384   4.037   3.881  0.2212  0.2466 -0.0259
 2657W        W 3654   5.206   2.762   6.946 -0.0411  0.1672  0.0041
 2658W        W 3655   5.900   2.789   1.431 -0.0640 -0.0069 -0.1955
 2659W        W 3656   7.557   4.886   1.953  0.0655 -0.0891 -0.0210
 2660W        W 3657   7.257   0.292   4.199 -0.2825  0.0028  0.4069
 2661W        W 3658   6.255   5.914   1.031 -0.0541  0.0267 -0.1434
 2662W        W 3659   2.313   6.006   3.455 -0.1960  0.1228 -0.1183
 2663W        W 3660   4.883   2.520   3.025  0.0036  0.0797  0.2953
 2664W        W 3661   3.861   0.531   3.278  0.1652  0.0166  0.1941
 2665W        W 3662   7.612   0.096   1.081 -0.0529  0.2692  0.1055
 2666W        W 3663   4.348   4.981   6.146 -0.0391  0.0074 -0.1670
 2667W        W 3664   1.137   0.057   0.879  0.1133 -0.1496 -0.3671
 2668W        W 3665   3.963   0.201   5.347  0.0834 -0.5486 -0.1903
 2669W        W 3666   5.645   4.486   2.332 -0.3671  0.3519  0.0275
 2670W        W 3667   4.812   2.489   7.055 -0.1979 -0.1919  0.1917
 2671W        W 3668   4.217   4.993   3.245 -0.0187 -0.1182  0.0629
 2672W        W 3669   1.674   4.604   4.329  0.0682  0.1105  0.0946
 2673W        W 3670   0.455   1.870   3.937 -0.2434 -0.3095  0.0279
 2674W        W 3671   4.342   6.758   0.138  0.2455 -0.0357  0.2265
 2675W        W 3672   5.711   5.108   7.425 -0.0224 -0.1650  0.0011
 2676W        W 3673   3.783   4.432   6.117  0.1062 -0.2924 -0.2978
 2677W        W 3674   0.768   2.635   1.184 -0.1978  0.0521  0.1935
 2678W        W 3675   2.905   6.654   4.457  0.3241  0.2076 -0.3355
 2679W        W 3676   6.630   5.454   5.173 -0.0027  0.1187 -0.0850
 2680W        W 3677   7.087   6.963   4.622  0.0808  0.2245 -0.2247
 2681W        W 3678   6.869   6.939   6.554 -0.2068  0.0686 -0.3624
 2682W        W 3679   0.709   2.705   3.357 -0.3769  0.1240 -0.1964
 2683W        W 3680   1.588   0.357   4.956 -0.0867 -0.1172 -0.1188
 2684W        W 3681   6.410   4.805   1.383 -0.1836 -0.5277  0.0976
 2685W        W 3682   6.742   1.524   4.574 -0.0235 -0.0996  0.0025
 2686W        W 3683   4.064   6.996   4.144 -0.1042  0.5440  0.0245
 2687W        W 3684   6.537   7.567   0.191  0.1546 -0.1008 -0.0278
 2688W        W 3685   4.284   3.147   5.053 -0.1905  0.0235 -0.1041
 2689W        W 3686   5.699   4.003   2.367  0.0608 -0.1587 -0.1414
 2690W        W 3687   5.380   1.065   2.849 -0.0084 -0.3334 -0.1377
 2691W        W 3688   5.104   6.046   6.494 -0.0325 -0.2284  0.0291
 2692W        W 3689   0.859   2.792   1.694  0.1232 -0.1864 -0.0433
 2693W        W 3690   4.981   0.095   2.339 -0.1143  0.2158  0.1428
 2694W        W 3691   6.820   7.592   5.397 -0.2096 -0.2205 -0.0520
 2695W        W 3692   5.927   3.284   4.548  0.0423 -0.3397  0.0507
 2696W        W 3693   5.555   6.284   3.510  0.2025  0.2053 -0.0908
 2697W        W 3694   2.788   4.361   5.424  0.4442  0.1613  0.3211
 2698W        W 3695   3.994   0.128   2.080  0.0842  0.0901  0.0599
 2699W        W 3696   5.126   7.118   3.012  0.0269  0.0294 -0.0083
 2700W        W 3697   6.561   7.071   0.150  0.2406 -0.0719 -0.3732
 2701W        W 3698   2.274   4.630   2.230  0.0422  0.0803 -0.0022
 2702W        W 3699   0.919   6.084   3.838 -0.1055  0.0220 -0.1015
 2703W        W 3700   3.626   6.055   7.576 -0.0781 -0.0404 -0.0361
 2704W        W 3701   6.235   7.444   6.199  0.2397 -0.2783 -0.1395
 2705W        W 3702   1.054   5.764   1.477  0.0528 -0.2648 -0.0100
 2706W        W 3703   1.631   3.198   1.869  0.0643  0.1149 -0.0859
 2707W        W 3704   0.943   3.493   2.844  0.0225 -0.1487 -0.0142
 2708W        W 3705   7.566   5.956   6.667 -0.0917  0.0633  0.1194
 2709W        W 3706   7.389   3.817   7.176 -0.0212 -0.0690 -0.1801
 2710W        W 3707   5.942   1.955   0.882 -0.1402  0.1865  0.1375
 2711W        W 3708   0.028   2.606   6.953 -0.0631  0.1064 -0.1273
 2712W        W 3709   1.132   5.305   1.298 -0.3060  0.1640  0.2937
 2713W        W 3710   2.739   1.131   2.576  0.0212  0.2188 -0.0206
 2714W        W 3711   7.339   2.866   6.588 -0.2608 -0.1050 -0.3100
 2715W        W 3712   2.160   3.929   1.533 -0.0696 -0.0624 -0.2249
 2716W        W 3713   0.449   2.885   7.060  0.2534  0.2687  0.1263
 2717W        W 3714   0.495   7.438   3.299 -0.0848  0.1478 -0.1592
 2718W        W 3715   5.327   5.659   6.669  0.0692  0.1291  0.0558
 2719W        W 3716   5.259   0.799   2.428 -0.0307 -0.2536 -0.0425
 2720W        W 3717   6.121   2.583   2.196 -0.0203  0.1509 -0.2078
 2721W        W 3718   6.224   5.536   5.768 -0.0707 -0.2054 -0.1574
 2722W        W 3719   5.466   6.356   6.316 -0.1674  0.2049 -0.2250
 2723W        W 3720   5.884   4.827   4.579  0.0123 -0.2132  0.1228
 2724W        W 3721   1.867   2.133   2.949  0.0143 -0.1660  0.1084
 2725W        W 3722   4.411   5.428   4.160 -0.1588  0.3428 -0.0429
 2726W        W 3723   5.046   1.092   3.254 -0.0700  0.2205  0.1943
 2727W        W 3724   2.690   4.337   2.063  0.0935 -0.0737 -0.0253
 2728W        W 3725   2.475   5.230   0.698 -0.2670 -0.1199  0.1221
 2729W        W 3726   6.285   4.120   3.114 -0.2035  0.2320  0.2958
 2730W        W 3727   2.945   5.679   2.694  0.1787  0.2320  0.0543
 2731W        W 3728   7.572   0.225   2.642  0.0719  0.0734 -0.2395
 2732W        W 3729   1.940   0.189   2.095 -0.1421  0.0488 -0.0880
 2733W        W 3730   7.174   0.590   3.182 -0.0594  0.0060  0.1260
 2734W        W 3731   0.532   5.730   3.922  0.1375 -0.1606  0.0314
 2735W        W 3732   6.160   1.747   1.301  0.3087  0.2429 -0.1041
 2736W        W 3733   0.323   4.262   4.673 -0.0190  0.1819 -0.2088
 2737W        W 3734   0.280   2.798   3.843  0.2553  0.1856 -0.0724
 2738W        W 3735   5.217   6.902   6.445 -0.1706 -0.2487 -0.3438
 2739W        W 3736   6.184   0.171   1.210 -0.1571  0.3238  0.0721
 2740W        W 3737   5.902   4.830   5.054 -0.2226  0.0504  0.1747
 2741W        W 3738   0.227   5.153   6.599 -0.0296 -0.0974  0.3896
 2742W        W 3739   4.994   5.045   0.131  0.1359  0.2983  0.2521
 2743W        W 3740   5.201   3.893   1.921  0.0692  0.0724  0.1575
 2744W        W 3741   5.774   7.609   4.970 -0.1323 -0.0480  0.2540
 2745W        W 3742   6.177   6.053   7.370  0.0903 -0.1553 -0.0446
 2746W        W 3743   1.530   4.413   6.178 -0.0752  0.1081  0.0617
 2747W        W 3744   5.427   0.526   6.792 -0.3767  0.0961 -0.2092
 2748W        W 3745   3.572   5.688   1.465  0.0985 -0.0451  0.0427
 2749W        W 3746   0.901   4.443   0.882  0.0149 -0.4429  0.0383
 2750W        W 3747   0.690   1.765   4.904 -0.1193  0.3027  0.1373
 2751W        W 3748   4.180   2.230   4.752  0.0457 -0.2873  0.1549
 2752W        W 3749   4.891   1.959   4.479  0.1359  0.1331 -0.0775
 2753W        W 3750   3.138   0.844   3.980  0.1309  0.1317  0.1577
 2754W        W 3751   0.749   5.180   1.592 -0.3700 -0.0684  0.2375
 2755W        W 3752   2.790   0.426   3.995 -0.0457  0.2681  0.1333
 2756W        W 3753   3.979   3.089   3.218  0.0231 -0.2524 -0.3506
 2757W        W 3754   5.190   2.281   6.760  0.2620 -0.0665  0.1233
 2758W        W 3755   6.093   5.811   2.327  0.3071  0.0290 -0.3223
 2759W        W 3756   0.873   2.867   0.728  0.0000 -0.1639  0.1159
 2760W        W 3757   3.843   4.032   3.725 -0.0937 -0.2178  0.0517
 2761W        W 3758   6.506   0.442   0.425  0.0135 -0.0966  0.2193
 2762W        W 3759   6.898   3.671   6.092  0.0962 -0.1041 -0.0663
 2763W        W 3760   2.489   4.421   3.825  0.5320 -0.0281 -0.4145
 2764W        W 3761   2.227   3.701   5.802 -0.0843  0.3185 -0.0496
 2765W        W 3762   7.332   3.389   7.427  0.1662  0.2663 -0.4224
 2766W        W 3763   0.121   6.538   7.262  0.1084 -0.0544 -0.4057
 2767W        W 3764   0.092   3.620   0.036 -0.0301  0.1505  0.2088
 2768W        W 3765   3.437   6.621   6.886  0.0535  0.0480 -0.1893
 2769W        W 3766   0.214   2.804   3.335 -0.0855  0.0669  0.0756
 2770W        W 3767   0.309   1.600   4.398 -0.2862 -0.2409 -0.1787
 2771W        W 3768   0.005   3.711   5.187  0.0291 -0.0451  0.1713
 2772W        W 3769   5.135   6.510   4.269 -0.1858 -0.0832 -0.1433
 2773W        W 3770   5.084   2.633   0.089  0.1263 -0.2158 -0.0090
 2774W        W 3771   2.373   5.455   6.972 -0.1538  0.0081  0.3905
 2775W        W 3772   6.233   3.735   4.962 -0.0274  0.0987 -0.2739
 2776W        W 3773   5.033   5.088   1.024  0.1034 -0.0656  0.0210
 2777W        W 3774   0.537   6.601   2.756 -0.0779 -0.0640 -0.0888
 2778W        W 3775   3.306   3.792   6.721  0.0925 -0.1190  0.1772
 2779W        W 3776   5.723   6.123   7.175 -0.2890  0.0929 -0.2174
 2780W        W 3777   5.285   3.555   0.974  0.2348  0.2689  0.0201
 2781W        W 3778   4.941   0.393   3.334 -0.0278  0.0513  0.0690
 2782W        W 3779   5.144   0.653   2.977  0.1889 -0.0647  0.1200
 2783W        W 3780   3.296   0.896   4.446  0.0494 -0.0022  0.3613
 2784W        W 3781   2.440   5.946   5.630 -0.1022  0.2022 -0.0095
 2785W        W 3782   3.971   0.789   3.755  0.0462  0.2051  0.0520
 2786W        W 3783   7.031   0.125   3.389 -0.2276  0.0516 -0.0414
 2787W        W 3784   3.935   3.240   4.046 -0.2845 -0.0268  0.1650
 2788W        W 3785   5.338   6.660   3.815  0.0265  0.1073 -0.1048
 2789W        W 3786   4.792   7.549   3.404 -0.4085  0.0304 -0.1958
 2790W        W 3787   5.733   4.570   6.606  0.0172 -0.0112 -0.3081
 2791W        W 3788   4.910   7.018   6.100  0.0007 -0.2545  0.0891
 2792W        W 3789   6.323   3.706   1.216 -0.0621  0.0267 -0.0356
 2793W        W 3790   1.372   2.436   3.018 -0.1874 -0.0938 -0.0325
 2794W        W 3791   0.239   2.986   0.777 -0.0900 -0.0775 -0.3238
 2795W        W 3792   0.034   4.807   3.171  0.2778  0.1571 -0.1191
 2796W        W 3793   0.115   5.698   4.745  0.1805  0.2207 -0.0825
 2797W        W 3794   5.058   4.711   1.625  0.0716  0.1555 -0.1869
 2798W        W 3795   1.461   3.721   5.630 -0.2117  0.1205  0.2423
 2799W        W 3796   1.553   5.351   4.681 -0.0225  0.0241 -0.0189
 2800W        W 3797   6.290   0.021   2.676  0.1091 -0.0224 -0.1590
 2801W        W 3798   5.154   6.871   0.398 -0.0264 -0.0393  0.1897
 2802W        W 3799   3.138   5.541   3.494 -0.1123 -0.0395  0.1387
 2803W        W 3800   2.262   7.011   2.587  0.2346  0.0034 -0.0833
 2804W        W 3801   3.593   5.810   0.397 -0.2270 -0.0835  0.0165
 2805W        W 3802   6.679   6.383   0.925 -0.0678 -0.3467 -0.3977
 2806W        W 3803   0.398   2.484   1.514 -0.0103  0.0761  0.1414
 2807W        W 3804   2.794   3.957   5.100  0.0855  0.0234 -0.0544
 2808W        W 3805   6.552   2.829   1.508  0.2718 -0.0320  0.3371
 2809W        W 3806   7.340   0.480   4.676  0.1118 -0.0797 -0.0299
 2810W        W 3807   6.439   5.332   3.635 -0.0749  0.1063 -0.0278
 2811W        W 3808   2.802   3.520   3.360  0.4058  0.1651  0.2536
 2812W        W 3809   1.647   4.304   4.765  0.3335 -0.1342 -0.0647
 2813W        W 3810   1.802   2.632   2.883 -0.1583  0.0238 -0.0192
 2814W        W 3811   2.926   2.007   3.145  0.0949 -0.1506  0.0626
 2815W        W 3812   5.607   3.474   4.242  0.1718  0.0169 -0.0554
 2816W        W 3813   4.033   5.315   2.892  0.1688  0.0949 -0.2317
 2817W        W 3814   7.448   2.344   6.511 -0.0462  0.5552  0.0853
 2818W        W 3815   2.525   4.458   4.952 -0.3331 -0.2900  0.1582
 2819W        W 3816   7.141   0.352   1.731  0.0940 -0.1785  0.2680
 2820W        W 3817   4.458   6.576   6.657  0.1810  0.1603 -0.2119
 2821W        W 3818   2.435   0.212   2.845 -0.1376  0.3812  0.3684
 2822W        W 3819   3.346   3.489   4.813 -0.2235 -0.3600 -0.0888
 2823W        W 3820   5.702   4.204   3.690 -0.1798  0.0956 -0.0354
 2824W        W 3821   7.431   6.343   6.291 -0.3393  0.3531 -0.0830
 2825W        W 3822   0.705   6.557   4.963  0.0779 -0.3521  0.3037
 2826W        W 3823   4.225   3.645   6.367 -0.2008 -0.0279 -0.1379
 2827W        W 3824   6.143   5.317   0.553 -0.2387 -0.0453 -0.1945
 2828W        W 3825   5.231   2.133   5.762 -0.1680  0.1056 -0.0236
 2829W        W 3826   5.242   7.069   1.567 -0.1878  0.1722  0.2857
 2830W        W 3827   4.743   4.488   3.834 -0.0903  0.2484  0.0103
 2831W        W 3828   6.105   6.964   5.863  0.2901  0.1038  0.0653
 2832W        W 3829   0.490   4.174   6.154  0.1001 -0.0580  0.0296
 2833W        W 3830   4.654   2.804   5.220  0.0118  0.1313  0.0999
 2834W        W 3831   0.056   2.907   5.701  0.0281  0.0212  0.0019
 2835W        W 3832   6.522   3.824   5.651 -0.1447 -0.0544 -0.1398
 2836W        W 3833   0.068   3.839   6.169 -0.0257 -0.1882  0.0157
 2837W        W 3834   4.004   1.112   1.939 -0.0935 -0.0847  0.2469
 2838W        W 3835   2.891   6.086   1.088  0.1195 -0.0614  0.2522
 2839W        W 3836   0.949   3.556   2.297 -0.0661 -0.0296  0.1425
 2840W        W 3837   6.502   2.796   6.492 -0.1232  0.1418  0.2918
 2841W        W 3838   6.581   1.425   6.217  0.0609 -0.1359  0.0552
 2842W        W 3839   1.308   2.861   2.123  0.3407 -0.1462  0.2259
 2843W        W 3840   7.418   4.798   4.189 -0.2458  0.4184  0.1373
 2844W        W 3841   5.554   4.164   1.698  0.1620  0.0614 -0.0381
 2845W        W 3842   7.162   1.993   1.291  0.1538 -0.1332  0.0905
 2846W        W 3843   4.634   0.956   6.261  0.1304 -0.2749 -0.1865
 2847W        W 3844   6.024   3.867   0.235 -0.1804  0.1730 -0.2022
 2848W        W 3845   5.627   2.201   6.539 -0.2085  0.0963 -0.1579
 2849W        W 3846   4.852   0.607   5.474 -0.2995  0.0008  0.0180
 2850W        W 3847   6.465   7.114   6.838 -0.2976 -0.1115 -0.0234
 2851W        W 3848   4.754   7.006   7.464  0.1217 -0.0275  0.0389
 2852W        W 3849   7.367   5.090   0.415 -0.0687 -0.2007 -0.4404
 2853W        W 3850   6.383   4.817   3.573 -0.0742 -0.1583 -0.1078
 2854W        W 3851   7.364   1.142   6.684 -0.0910  0.1181 -0.0392
 2855W        W 3852   0.752   5.136   5.268 -0.0289 -0.4578 -0.2641
 2856W        W 3853   5.076   4.180   4.194  0.0561 -0.1043 -0.0078
 2857W        W 3854   7.068   6.198   4.517 -0.2119  0.1917  0.0424
 2858W        W 3855   7.600   2.484   3.616  0.3353 -0.3034 -0.0242
 2859W        W 3856   5.359   2.204   0.188  0.0308  0.3181 -0.1950
 2860W        W 3857   4.701   7.064   0.306  0.0470 -0.0023 -0.0824
 2861W        W 3858   4.940   3.927   2.908 -0.2106  0.1702 -0.1440
 2862W        W 3859   6.205   3.893   5.996  0.2043  0.1444 -0.1600
 2863W        W 3860   0.674   6.469   2.292 -0.3516 -0.1785 -0.3664
 2864W        W 3861   3.596   1.962   3.867 -0.1299  0.0589  0.1626
 2865W        W 3862   4.769   4.035   2.124  0.1459  0.3065 -0.0696
 2866W        W 3863   4.750   2.035   7.123 -0.1693  0.1676  0.1751
 2867W        W 3864   1.522   3.743   6.912 -0.0691  0.0083 -0.2233
 2868W        W 3865   0.010   4.195   1.548 -0.1263 -0.0718  0.3144
 2869W        W 3866   5.886   0.743   6.706 -0.0497 -0.0967  0.0830
 2870W        W 3867   2.854   1.474   3.943 -0.3425 -0.1041  0.1593
 2871W        W 3868   2.441   1.541   3.477 -0.0363 -0.0729  0.2413
 2872W        W 3869   6.699   6.290   3.854 -0.0627  0.0077  0.0794
 2873W        W 3870   3.821   4.673   3.951 -0.0559  0.0103 -0.1778
 2874W        W 3871   5.390   5.228   1.930 -0.0731  0.3837  0.0576
 2875W        W 3872   2.708   7.348   2.655  0.0595 -0.0146 -0.1502
 2876W        W 3873   5.630   4.951   3.183 -0.1332  0.1851  0.0486
 2877W        W 3874   1.036   3.237   1.926  0.1463 -0.0899 -0.0540
 2878W        W 3875   6.871   3.006   0.536 -0.3699 -0.4513 -0.0235
 2879W        W 3876   5.015   0.787   4.492  0.2080 -0.1139 -0.4531
 2880W        W 3877   7.604   4.098   2.876 -0.0894 -0.4855  0.3019
 2881W        W 3878   6.378   0.060   6.587 -0.1094 -0.0629  0.1474
 2882W        W 3879   4.564   5.006   0.953  0.2100  0.2051  0.1189
 2883W        W 3880   4.246   7.491   5.762 -0.1910 -0.1784  0.0943
 2884W        W 3881   6.488   5.627   2.575  0.1110 -0.1228 -0.2375
 2885W        W 3882   4.812   4.234   5.622 -0.0958 -0.0026 -0.2611
 2886W        W 3883   4.540   6.429   1.333  0.2103 -0.4097 -0.1541
 2887W        W 3884   2.384   2.030   2.553  0.2526  0.0417 -0.2770
 2888W        W 3885   2.086   5.714   5.384 -0.1315  0.2809 -0.0072
 2889W        W 3886   6.442   2.330   7.464 -0.1102  0.0345  0.0017
 2890W        W 3887   7.228   3.848   0.712  0.1521 -0.0004 -0.0205
 2891W        W 3888   6.943   4.317   2.344  0.0314  0.0051 -0.2103
 2892W        W 3889   5.241   4.627   3.994  0.1127 -0.2518 -0.3840
 2893W        W 3890   4.321   4.367   1.012 -0.1164 -0.1171  0.2661
 2894W        W 3891   0.217   5.625   7.388 -0.1406 -0.0674 -0.0130
 2895W        W 3892   1.445   0.242   1.220  0.2288  0.1775  0.1289
 2896W        W 3893   5.054   1.443   2.788 -0.3409 -0.3560 -0.1046
 2897W        W 3894   7.292   6.073   0.430 -0.1809  0.2885 -0.0758
 2898W        W 3895   3.964   6.072   1.337 -0.1911  0.0486 -0.1166
 2899W        W 3896   3.564   7.070   6.647  0.0665 -0.0301 -0.0517
 2900W        W 3897   2.556   7.318   3.596  0.3144  0.0095  0.2365
 2901W        W 3898   2.751   2.368   3.978  0.1864  0.0798 -0.0932
 2902W        W 3899   5.614   7.024   5.257 -0.1277  0.1650  0.2483
 2903W        W 3900   5.271   6.022   6.995 -0.1958  0.1185  0.0349
 2904W        W 3901   0.272   1.188   0.707 -0.1718  0.1570  0.0081
 2905W        W 3902   6.660   4.637   5.584 -0.0802  0.1202  0.3631
 2906W        W 3903   0.931   4.533   5.730  0.1247  0.1184  0.1964
 2907W        W 3904   5.139   3.495   2.999  0.1747  0.0271 -0.3075
 2908W        W 3905   6.627   2.684   2.153  0.2316  0.0432  0.2046
 2909W        W 3906   4.776   6.917   1.516 -0.1624  0.0921 -0.0892
 2910W        W 3907   4.077   3.690   4.395 -0.2288  0.0390  0.0741
 2911W        W 3908   6.568   4.388   3.462  0.2222 -0.1658 -0.0940
 2912W        W 3909   6.984   1.631   5.936  0.0735 -0.3914  0.1632
 2913W        W 3910   5.601   1.708   5.563 -0.0049 -0.2585 -0.0203
 2914W        W 3911   3.853   5.100   3.629  0.3139  0.0519 -0.0400
 2915W        W 3912   2.971   3.208   2.983 -0.2470 -0.1833  0.0257
 2916W        W 3913   7.274   2.224   3.015 -0.2323  0.1258  0.1658
 2917W        W 3914   5.874   5.176   3.550 -0.0084  0.0092 -0.0222
 2918W        W 3915   5.161   5.660   2.768 -0.1001 -0.0867  0.0675
 2919W        W 3916   7.193   7.193   2.648  0.0492 -0.0073 -0.1984
 2920W        W 3917   4.598   4.422   4.302 -0.0357 -0.2699  0.1487
 2921W        W 3918   1.621   0.888   3.769 -0.4506  0.0062  0.0337
 2922W        W 3919   7.043   5.423   5.416  0.1444  0.0838  0.0276
 2923W        W 3920   1.452   6.040   3.931  0.2222  0.0701 -0.0795
 2924W        W 3921   6.529   1.834   2.637  0.0449 -0.2119 -0.3434
 2925W        W 3922   6.294   4.441   4.946 -0.0634 -0.0920 -0.4850
 2926W        W 3923   6.088   6.651   0.296 -0.0224  0.1047  0.0678
 2927W        W 3924   3.753   5.736   4.128  0.0213 -0.0216  0.3212
 2928W        W 3925   6.566   5.926   6.135 -0.0290 -0.0995  0.0842
 2929W        W 3926   0.407   4.336   1.125  0.0083 -0.2121 -0.2980
 2930W        W 3927   5.521   0.036   6.376  0.0284 -0.2308  0.1743
 2931W        W 3928   5.009   4.948   6.296 -0.3258  0.0057  0.0872
 2932W        W 3929   7.271   0.037   0.492  0.2967  0.0697  0.0394
 2933W        W 3930   6.925   4.199   1.851 -0.4566 -0.1673 -0.2823
 2934W        W 3931   0.923   4.050   2.436  0.1744  0.0080 -0.1056
 2935W        W 3932   4.522   2.410   7.486 -0.0228 -0.0644 -0.2124
 2936W        W 3933   5.395   4.042   0.211  0.2321  0.0810 -0.0110
 2937W        W 3934   7.348   2.969   6.102  0.0159  0.0747  0.1276
 2938W        W 3935   2.946   6.216   5.362  0.1838 -0.0936  0.2499
 2939W        W 3936   2.100   4.203   7.504 -0.0142  0.2121  0.0169
 2940W        W 3937   1.230   3.825   6.430  0.2569  0.1814  0.1056
 2941W        W 3938   6.676   1.230   0.157  0.1062 -0.1455  0.3604
 2942W        W 3939   2.424   4.865   4.637 -0.0893 -0.1195 -0.1675
 2943W        W 3940   2.111   6.633   0.789  0.1187  0.1649  0.0016
 2944W        W 3941   2.763   5.593   7.380 -0.1287 -0.0366 -0.1561
 2945W        W 3942   3.254   6.364   4.580 -0.0898 -0.1495 -0.1851
 2946W        W 3943   5.309   6.131   3.938  0.0797 -0.1087 -0.0377
 2947W        W 3944   1.873   1.309   2.476 -0.0222 -0.0295  0.2209
 2948W        W 3945   2.907   0.277   3.079  0.2252  0.2783 -0.0110
 2949W        W 3946   1.627   6.955   2.532 -0.0701  0.0884  0.3276
 2950W        W 3947   1.577   4.440   0.044  0.1153  0.2484  0.3137
 2951W        W 3948   2.716   5.556   6.510  0.2338 -0.1116  0.0172
 2952W        W 3949   4.770   2.408   0.356 -0.0054  0.2442 -0.2739
 2953W        W 3950   4.612   2.796   1.528 -0.0162 -0.1761  0.0219
 2954W        W 3951   5.617   3.304   6.631  0.0811  0.0270  0.1832
 2955W        W 3952   6.812   6.796   7.065  0.1258  0.0397 -0.5997
 2956W        W 3953   5.602   2.489   5.525 -0.1708 -0.2282  0.2241
 2957W        W 3954   5.847   7.590   5.951  0.1271  0.0710 -0.1196
 2958W        W 3955   5.436   1.782   1.417 -0.1341  0.3018  0.3647
 2959W        W 3956   0.411   5.818   6.931 -0.0237 -0.1838 -0.0605
 2960W        W 3957   5.694   5.528   5.243  0.0675 -0.0386  0.2436
 2961W        W 3958   3.400   3.194   7.255 -0.2325  0.2777 -0.3028
 2962W        W 3959   4.360   3.852   3.561 -0.1665  0.0478  0.1597
 2963W        W 3960   6.483   2.680   7.040  0.0462  0.3343  0.3638
 2964W        W 3961   2.551   3.024   4.608  0.0103  0.1193  0.1509
 2965W        W 3962   3.402   5.946   2.442 -0.0300 -0.0145  0.1916
 2966W        W 3963   7.477   4.078   2.395 -0.1249  0.1707  0.1900
 2967W        W 3964   6.795   3.732   4.681 -0.2556 -0.0604  0.1510
 2968W        W 3965   5.471   7.092   3.390  0.0740 -0.2712  0.4756
 2969W        W 3966   4.597   2.251   0.861 -0.1509  0.2664  0.1092
 2970W        W 3967   2.584   3.040   3.317  0.1599  0.1973  0.2302
 2971W        W 3968   6.856   7.149   1.439 -0.1129 -0.0892  0.0080
 2972W        W 3969   0.119   2.404   5.029 -0.0031  0.3544 -0.0287
 2973W        W 3970   4.781   5.797   6.784  0.1168  0.1350  0.1283
 2974W        W 3971   1.533   4.702   7.195  0.0741 -0.0252 -0.1913
 2975W        W 3972   1.137   5.690   5.616 -0.2270 -0.2784 -0.0508
 2976W        W 3973   5.301   4.068   1.017 -0.1757  0.0170  0.2365
 2977W        W 3974   5.307   2.646   2.794 -0.0703  0.1656  0.0693
 2978W        W 3975   0.379   5.218   6.112 -0.1405 -0.0343 -0.2486
 2979W        W 3976   7.259   6.907   3.029 -0.0903  0.2391 -0.1518
 2980W        W 3977   4.897   2.933   3.597 -0.1439  0.0926  0.0548
 2981W        W 3978   0.830   4.209   4.839  0.2380 -0.1426  0.0399
 2982W        W 3979   6.358   0.905   0.255  0.0588 -0.0235 -0.1244
 2983W        W 3980   4.086   1.493   1.649 -0.4109 -0.1363 -0.0355
 2984W        W 3981   0.559   5.227   7.086  0.1679  0.1062 -0.0303
 2985W        W 3982   6.892   6.465   0.004  0.1315 -0.0072  0.2426
 2986W        W 3983   4.764   6.794   0.751 -0.1931 -0.0034  0.0557
 2987W        W 3984   0.150   3.320   6.013 -0.2881 -0.0797  0.2695
 2988W        W 3985   2.350   6.215   2.169  0.1372 -0.4618 -0.2525
 2989W        W 3986   5.473   2.121   1.046  0.0141  0.2193  0.2476
 2990W        W 3987   4.533   7.149   4.352 -0.1047  0.1583 -0.0764
 2991W        W 3988   5.926   2.741   6.663  0.0857 -0.1873  0.1624
 2992W        W 3989   2.229   5.789   7.361 -0.1518  0.0048 -0.2109
 2993W        W 3990   7.242   5.013   3.239  0.5154  0.3108 -0.1522
 2994W        W 3991   3.748   3.102   5.100 -0.1102 -0.0627  0.0626
 2995W        W 3992   7.058   6.963   7.543 -0.2695 -0.1916  0.0161
 2996W        W 3993   5.085   7.421   6.595  0.0883  0.2910 -0.1776
 2997W        W 3994   4.493   4.233   6.969  0.0268 -0.0012  0.2118
 2998W        W 3995   4.155   5.340   7.324 -0.0982 -0.2815 -0.2735
 2999W        W 3996   6.162   4.544   4.327 -0.1803 -0.1577 -0.0001
 3000W        W 3997   6.960   2.057   3.385  0.0854  0.0045 -0.1997
 3001W        W 3998   7.028   4.293   6.427 -0.5009 -0.0169 -0.1578
 3002W        W 3999   3.186   3.970   4.737 -0.1524  0.1485 -0.1096
 3003W        W 4000   6.047   7.110   2.836 -0.3032 -0.0965 -0.0051
 3004W        W 4001   5.729   3.786   5.834 -0.2659 -0.0523 -0.3835
 3005W        W 4002   4.396   7.498   5.285  0.5317  0.0142 -0.0713
 3006W        W 4003   4.585   1.518   2.629  0.2794  0.1568  0.0811
 3007W        W 4004   3.276   0.671   5.056 -0.0885 -0.5405 -0.0532
 3008W        W 4005   5.870   0.539   7.270  0.0680 -0.3178 -0.2232
 3009W        W 4006   1.446   3.551   1.007  0.1547  0.0956 -0.1729
 3010W        W 4007   1.836   1.909   2.099 -0.2084  0.1944 -0.0278
 3011W        W 4008   7.328   3.001   0.669  0.1647 -0.0492  0.3025
 3012W        W 4009   6.643   3.360   1.422 -0.1610  0.0798 -0.0656
 3013W        W 4010   6.351   1.411   7.018  0.0118  0.0126 -0.1840
 3014W        W 4011   0.741   5.823   5.316  0.0659  0.0257  0.3828
 3015W        W 4012   5.635   7.081   5.768  0.1011 -0.0995 -0.3063
 3016W        W 4013   2.821   6.185   7.239  0.1951  0.1249  0.1001
 3017W        W 4014   4.559   7.028   5.045  0.0164 -0.1809 -0.0522
 3018W        W 4015   4.177   7.510   4.330 -0.0263 -0.0163 -0.2996
 3019W        W 4016   5.497   5.251   2.801 -0.0140 -0.0194  0.1558
 3020W        W 4017   4.485   5.377   3.131  0.2554  0.1838  0.0236
 3021W        W 4018   2.348   4.026   5.350  0.0005 -0.0248  0.2574
 3022W        W 4019   4.965   5.308   6.695 -0.3979  0.1397  0.1209
 3023W        W 4020   4.934   7.400   1.657 -0.0096  0.1240 -0.4411
 3024W        W 4021   2.531   1.844   4.260 -0.0700 -0.0679  0.1301
 3025W        W 4022   7.647   2.201   1.470 -0.1400 -0.1745  0.1768
 3026W        W 4023   2.289   0.933   2.835  0.1990 -0.1050  0.1290
 3027W        W 4024   5.384   1.321   4.551  0.4160  0.0157  0.1180
 3028W        W 4025   7.353   5.747   3.552 -0.0251 -0.1671  0.3490
 3029W        W 4026   1.446   0.855   2.736  0.0298 -0.1318 -0.0556
 3030W        W 4027   5.443   0.786   1.469 -0.0638  0.0226 -0.0317
 3031W        W 4028   4.692   7.387   2.501 -0.2104  0.1011  0.0490
 3032W        W 4029   5.578   1.649   6.430  0.3175 -0.0903  0.0210
 3033W        W 4030   4.123   0.458   1.065 -0.1445  0.5223 -0.0904
 3034W        W 4031   5.461   0.970   7.541 -0.1133 -0.1116  0.1112
 3035W        W 4032   7.405   4.623   1.521 -0.0939 -0.0164  0.2344
 3036W        W 4033   5.153   7.386   0.198  0.3208  0.0808  0.2479
 3037W        W 4034   6.708   5.934   3.109 -0.1457  0.0213 -0.3534
 3038W        W 4035   4.363   7.062   6.027 -0.0348  0.0169 -0.0072
 3039W        W 4036   7.413   4.732   6.289 -0.0971 -0.0157  0.0796
 3040W        W 4037   6.184   4.157   5.341 -0.0005  0.0161  0.0871
 3041W        W 4038   2.631   4.694   1.640 -0.2247 -0.1627 -0.0022
 3042W        W 4039   4.681   4.609   1.243  0.2446  0.2404 -0.2680
 3043W        W 4040   5.034   1.998   0.640  0.2738 -0.3377 -0.2566
 3044W        W 4041   4.302   3.647   5.296 -0.1210 -0.3787 -0.1185
 3045W        W 4042   5.880   7.425   6.597  0.1366 -0.3048 -0.1370
 3046W        W 4043   1.713   6.460   2.687 -0.1999 -0.1851  0.1152
 3047W        W 4044   6.394   6.804   3.156 -0.0356  0.2979 -0.0961
 3048W        W 4045   0.701   2.219   5.051  0.2832  0.0930 -0.2134
 3049W        W 4046   7.491   5.241   5.222  0.0199 -0.1178  0.3813
 3050W        W 4047   7.464   1.136   5.232  0.0472  0.0183 -0.1046
 3051W        W 4048   0.263   6.152   6.273  0.0543  0.1188  0.1825
 3052W        W 4049   5.654   0.662   2.778  0.0666  0.3560 -0.0805
 3053W        W 4050   3.049   4.749   5.499  0.1771 -0.2557 -0.0426
 3054W        W 4051   2.851   0.659   4.390  0.0703 -0.1655 -0.0763
 3055W        W 4052   0.130   5.842   3.274  0.1647  0.2927  0.0690
 3056W        W 4053   6.548   6.592   4.408 -0.1658  0.2725 -0.0601
 3057W        W 4054   0.943   2.637   2.441  0.3929  0.2626  0.3828
 3058W        W 4055   4.380   3.077   4.040  0.0509 -0.1719 -0.0588
 3059W        W 4056   0.538   3.681   6.004  0.1086 -0.1993  0.4092
 3060W        W 4057   0.232   7.407   1.277  0.1165  0.4459  0.1995
 3061W        W 4058   4.784   6.334   0.901  0.1890 -0.2976  0.2073
 3062W        W 4059   7.438   5.626   0.451 -0.0458  0.0693 -0.0234
 3063W        W 4060   0.481   0.095   4.192  0.2108  0.1963 -0.0181
 3064W        W 4061   3.782   6.264   5.610  0.0408  0.0340  0.0029
 3065W        W 4062   3.319   7.505   4.507 -0.1651  0.1799  0.0579
 3066W        W 4063   5.844   7.233   1.575  0.1324 -0.0387 -0.2531
 3067W        W 4064   5.053   6.402   4.773 -0.0407  0.0000  0.1090
 3068W        W 4065   3.899   4.822   6.372  0.0750  0.1176 -0.0434
 3069W        W 4066   4.604   1.472   4.046 -0.1086 -0.0354  0.2584
 3070W        W 4067   0.592   2.445   1.985  0.2782 -0.1128 -0.2835
 3071W        W 4068   4.757   3.403   6.621  0.0035 -0.0933 -0.1550
 3072W        W 4069   6.820   0.050   1.936  0.0594 -0.0473  0.0487
 3073W        W 4070   0.374   4.044   2.543 -0.0038 -0.0186 -0.1886
 3074W        W 4071   4.233   3.124   6.656 -0.1036  0.1477  0.2139
 3075W        W 4072   2.323   2.752   4.134  0.1147  0.2057 -0.2835
 3076W        W 4073   7.278   2.282   6.995  0.1422  0.1277  0.1904
 3077W        W 4074   0.726   6.217   7.058 -0.3096  0.0471 -0.0540
 3078W        W 4075   5.611   4.440   7.084 -0.2638 -0.1415 -0.1288
 3079W        W 4076   7.631   0.385   3.107  0.1038 -0.1495  0.2636
 3080W        W 4077   7.452   4.634   0.589  0.0489 -0.0387  0.0378
 3081W        W 4078   6.790   6.503   2.310  0.0999 -0.0005  0.0713
 3082W        W 4079   6.592   6.842   5.695 -0.0900 -0.3052 -0.0437
 3083W        W 4080   3.220   1.393   4.333 -0.0741  0.0714 -0.1086
 3084W        W 4081   5.630   6.865   4.215  0.0803 -0.1161 -0.0682
 3085W        W 4082   1.274   4.706   3.848  0.0193 -0.0643  0.1488
 3086W        W 4083   3.262   3.151   5.687 -0.3637 -0.0121 -0.2437
 3087W        W 4084   3.586   5.084   6.104  0.0641 -0.1755 -0.0901
 3088W        W 4085   7.364   5.699   5.629 -0.0239  0.1378  0.0324
 3089W        W 4086   3.980   7.042   1.546 -0.0286  0.0496 -0.2228
 3090W        W 4087   6.811   0.531   7.349 -0.2127  0.1853 -0.0167
 3091W        W 4088   0.725   1.739   3.538 -0.2493  0.0225  0.0595
 3092W        W 4089   0.965   0.240   3.983  0.2552  0.4070  0.4071
 3093W        W 4090   7.431   1.972   7.309  0.2067  0.0001 -0.1134
 3094W        W 4091   5.605   1.474   4.963  0.0220  0.0561 -0.0374
 3095W        W 4092   2.109   4.902   4.247  0.0435  0.3803  0.3240
 3096W        W 4093   0.723   0.809   0.985  0.2120  0.0306 -0.1337
 3097W        W 4094   6.420   5.637   2.032 -0.0174 -0.0196  0.2026
 3098W        W 4095   3.252   0.279   1.575  0.1214 -0.4116  0.0693
 3099W        W 4096   5.264   6.915   4.575  0.2143 -0.0843  0.2323
 3100W        W 4097   0.379   4.834   0.737 -0.0142 -0.0860 -0.1120
 3101W        W 4098   6.841   4.253   5.916  0.0044  0.0715  0.0331
 3102W        W 4099   6.887   1.192   1.013 -0.2872 -0.1628  0.0482
 3103W        W 4100   1.625   4.987   5.631  0.2380 -0.1019  0.3895
 3104W        W 4101   4.524   0.850   2.344 -0.4438 -0.1338  0.2359
 3105W        W 4102   1.142   5.883   6.872  0.1051 -0.1302  0.1793
 3106W        W 4103   7.336   4.222   0.392 -0.1183 -0.0264  0.3586
 3107W        W 4104   3.906   3.156   7.398 -0.2532  0.3240 -0.2031
 3108W        W 4105   7.406   6.904   0.774  0.0437 -0.1676  0.2266
 3109W        W 4106   5.115   6.936   1.138  0.0677  0.1353 -0.0545
 3110W        W 4107   1.843   6.243   1.884  0.2086  0.2954 -0.0048
 3111W        W 4108   5.198   3.778   3.818 -0.2071 -0.1401  0.1407
 3112W        W 4109   4.511   3.635   0.890  0.0058 -0.0470 -0.3386
 3113W        W 4110   4.018   5.616   5.040 -0.1854  0.0726 -0.2537
 3114W        W 4111   6.524   2.733   5.061  0.1629 -0.1243  0.0423
 3115W        W 4112   4.060   0.793   1.476  0.0892 -0.2038 -0.0030
 3116W        W 4113   2.679   3.931   3.030 -0.0520 -0.1143  0.1194
 3117W        W 4114   7.305   6.125   1.514  0.0153  0.2390  0.2306
 3118W        W 4115   5.679   3.553   3.021 -0.2153 -0.0486  0.1004
 3119W        W 4116   6.779   4.430   2.855 -0.0330 -0.2711  0.0892
 3120W        W 4117   4.852   6.607   3.688 -0.0703  0.0919 -0.0903
 3121W        W 4118   2.027   2.241   4.536  0.1496  0.1062 -0.1423
 3122W        W 4119   0.149   3.701   6.899  0.0687  0.0242 -0.3172
 3123W        W 4120   3.710   1.589   4.246 -0.0482 -0.2242  0.3159
 3124W        W 4121   3.751   7.632   0.284 -0.2740 -0.1046 -0.0437
 3125W        W 4122   4.040   2.831   3.705 -0.1316 -0.1815  0.1718
 3126W        W 4123   0.574   6.833   1.971  0.1136 -0.1916 -0.2819
 3127W        W 4124   4.180   2.808   5.464 -0.0891 -0.1057 -0.0909
 3128W        W 4125   4.976   0.759   1.670 -0.4413  0.3191 -0.0668
 3129W        W 4126   3.849   7.323   5.393 -0.1065  0.4137 -0.2312
 3130W        W 4127   7.645   6.452   3.950 -0.0414  0.1169 -0.0717
 3131W        W 4128   6.940   6.927   5.090 -0.2836  0.0481  0.0266
 3132W        W 4129   5.533   1.880   0.610  0.3107  0.0691  0.1414
 3133W        W 4130   4.595   6.280   4.544 -0.0515  0.1343 -0.0011
 3134W        W 4131   0.659   6.041   6.536  0.1757  0.0573 -0.1191
 3135W        W 4132   2.587   7.238   5.263 -0.1008 -0.1473 -0.3086
 3136W        W 4133   1.503   3.850   3.669  0.1139  0.0407  0.1578
 3137W        W 4134   5.756   6.709   3.550  0.0162  0.0015 -0.2756
 3138W        W 4135   6.490   2.283   6.600  0.0887  0.2268 -0.0593
 3139W        W 4136   6.333   2.993   6.052 -0.0825 -0.3195 -0.0824
 3140W        W 4137   3.195   4.806   7.243 -0.4253  0.0592  0.1507
 3141W        W 4138   2.209   3.688   2.437 -0.2649  0.0905 -0.1092
 3142W        W 4139   2.226   7.166   0.838 -0.0368 -0.2249 -0.1690
 3143W        W 4140   7.256   3.375   2.150 -0.0799  0.1475 -0.0125
 3144W        W 4141   6.886   1.219   2.941  0.2854 -0.0287 -0.2369
 3145W        W 4142   7.096   6.396   1.871 -0.1068  0.0607 -0.1998
 3146W        W 4143   6.624   1.304   5.751 -0.0471 -0.2142  0.0734
 3147W        W 4144   4.090   6.228   6.620 -0.1187  0.0839  0.0314
 3148W        W 4145   2.071   7.225   3.433 -0.0796 -0.2704 -0.3195
 3149W        W 4146   7.239   2.385   4.952 -0.2407 -0.1377 -0.0259
 3150W        W 4147   0.539   5.957   5.774 -0.2218  0.3405 -0.1848
 3151W        W 4148   3.232   7.637   2.776  0.0797 -0.0428 -0.0472
 3152W        W 4149   4.020   0.177   2.848 -0.0543  0.1369 -0.0491
 3153W        W 4150   1.635   4.819   2.891  0.0243  0.1883  0.1280
 3154W        W 4151   1.827   3.112   2.716  0.0123  0.0571 -0.0358
 3155W        W 4152   3.841   4.658   1.351 -0.1671  0.1046  0.0012
 3156W        W 4153   3.193   5.186   5.300 -0.0797  0.0543 -0.1788
 3157W        W 4154   2.274   3.618   3.277 -0.0085  0.3487 -0.1933
 3158W        W 4155   6.298   6.334   1.252 -0.1584  0.0600 -0.1236
 3159W        W 4156   4.861   1.463   0.565  0.0717 -0.4009 -0.1077
 3160W        W 4157   7.422   3.758   1.265  0.0642 -0.0867  0.2106
 3161W        W 4158   6.049   5.546   3.823  0.2132  0.3297 -0.2488
 3162W        W 4159   3.097   1.496   2.434  0.0718 -0.2137  0.1599
 3163W        W 4160   5.649   0.834   5.859  0.3816  0.0576  0.0598
 3164W        W 4161   1.490   5.114   2.519 -0.0106  0.2054 -0.0740
 3165W        W 4162   6.317   0.684   1.386  0.0470  0.1053  0.1851
 3166W        W 4163   6.664   6.751   1.899 -0.2045  0.2446  0.4440
 3167W        W 4164   0.647   5.850   4.370  0.0326  0.0391  0.0631
 3168W        W 4165   4.610   3.559   3.005  0.0395 -0.1835 -0.1431
 3169W        W 4166   3.623   6.885   7.302  0.0656 -0.2679  0.1748
 3170W        W 4167   7.407   6.290   5.735  0.2046 -0.0636 -0.2268
 3171W        W 4168   7.410   6.230   3.394 -0.0955  0.2746 -0.2081
 3172W        W 4169   2.038   5.370   1.665  0.0810 -0.0550  0.1793
 3173W        W 4170   7.368   2.802   2.310  0.0196 -0.0913  0.0816
 3174W        W 4171   0.756   7.011   2.437  0.0820  0.0698 -0.0510
 3175W        W 4172   7.066   6.580   3.662 -0.0542 -0.0260 -0.1590
 3176W        W 4173   6.807   3.070   6.125  0.2727 -0.4286  0.0730
 3177W        W 4174   5.793   5.983   0.090  0.0572 -0.0493  0.0941
 3178W        W 4175   5.525   2.949   5.320 -0.0224 -0.0630  0.0416
 3179W        W 4176   7.475   1.743   4.573  0.3190  0.1751  0.0038
 3180W        W 4177   6.023   5.832   6.908 -0.3817  0.3100  0.0583
 3181W        W 4178   1.619   6.689   3.523  0.0485 -0.1184 -0.4109
 3182W        W 4179   4.644   0.520   0.287  0.2053 -0.2075 -0.0291
 3183W        W 4180   0.284   1.418   3.807 -0.0337 -0.5389 -0.5163
 3184W        W 4181   1.672   3.604   6.466 -0.0768 -0.1890 -0.1892
 3185W        W 4182   4.382   7.001   7.029 -0.0516  0.0251 -0.0589
 3186W        W 4183   5.880   7.351   2.416  0.1010  0.2678  0.1039
 3187W        W 4184   5.915   0.889   0.058 -0.3001  0.0843 -0.2985
 3188W        W 4185   6.064   6.919   7.096 -0.0947 -0.0728 -0.1679
 3189W        W 4186   3.367   4.416   5.425 -0.0798  0.0319 -0.1247
 3190W        W 4187   1.336   3.686   0.475  0.1409 -0.0821 -0.2300
 3191W        W 4188   1.226   4.799   1.422  0.1369  0.0474 -0.2361
 3192W        W 4189   2.001   6.688   4.231 -0.0211 -0.3783 -0.1100
 3193W        W 4190   2.375   6.413   7.507  0.1929  0.1507  0.1383
 3194W        W 4191   5.159   5.336   0.477  0.0082  0.0698  0.0139
 3195W        W 4192   2.605   3.787   6.908  0.0776  0.1492 -0.1815
 3196W        W 4193   3.262   3.044   5.221 -0.0312 -0.0712 -0.1538
 3197W        W 4194   0.587   2.418   0.762  0.1358  0.0089  0.0711
 3198W        W 4195   0.913   7.006   1.044  0.1091  0.0030  0.0352
 3199W        W 4196   4.913   5.345   1.891 -0.0659 -0.0798 -0.0968
 3200W        W 4197   5.863   1.205   3.090 -0.0212  0.1296  0.1898
 3201W        W 4198   1.038   6.096   3.346  0.3508  0.2055  0.0100
 3202W        W 4199   5.990   4.984   6.532  0.0807 -0.2371  0.1630
 3203W        W 4200   6.938   7.090   3.863  0.0506  0.0654 -0.1885
   7.65113   7.65113   7.65113
