Martini system from ../2_Creating_coordinates/TYR-HIS-TYR_aa.pdb
 4396
    1TYR     BB    1   0.878   1.102   0.521 -0.1534  0.1692 -0.0218
    1TYR    SC1    2   0.964   1.215   0.828  0.0419  0.2067  0.0844
    1TYR    SC2    3   0.996   1.166   1.091 -0.0455  0.3637  0.1259
    1TYR    SC3    4   1.127   1.372   0.975 -0.0022  0.2910  0.0445
    2HIS     BB    5   0.791   0.767   0.560 -0.3811 -0.1210 -0.1104
    2HIS    SC1    6   0.668   0.802   0.839  0.3531 -0.2420  0.0936
    2HIS    SC2    7   0.650   0.844   1.105  0.1912  0.0505  0.0419
    2HIS    SC3    8   0.428   0.789   0.962  0.2495  0.0746 -0.0596
    3TYR     BB    9   0.824   0.612   0.330 -0.1656  0.1208 -0.0540
    3TYR    SC1   10   0.966   0.497   0.121 -0.0772 -0.1831  0.4070
    3TYR    SC2   11   1.183   0.466  -0.036 -0.2346  0.3465  0.0512
    3TYR    SC3   12   1.097   0.261   0.118  0.2129 -0.0359 -0.1760
    1TYR     BB   13   5.825   4.967   3.999  0.0778  0.1279  0.1458
    1TYR    SC1   14   5.695   4.942   3.727  0.0012  0.3217 -0.0815
    1TYR    SC2   15   5.721   4.926   3.459  0.1552  0.3371 -0.0684
    1TYR    SC3   16   5.530   4.783   3.585  0.1559  0.2415 -0.1745
    2HIS     BB   17   5.625   4.929   4.199  0.2286  0.0098 -0.0160
    2HIS    SC1   18   5.547   4.633   4.284 -0.2606 -0.1224 -0.0658
    2HIS    SC2   19   5.404   4.557   4.500 -0.0161  0.0604  0.1693
    2HIS    SC3   20   5.453   4.380   4.302 -0.3656 -0.0693  0.1900
    3TYR     BB   21   5.516   5.140   4.414 -0.2306  0.3946  0.1637
    3TYR    SC1   22   5.213   5.045   4.491  0.0616 -0.1573  0.3077
    3TYR    SC2   23   5.033   4.846   4.464 -0.0803 -0.0320  0.3123
    3TYR    SC3   24   4.956   5.102   4.432  0.2139  0.0037 -0.2814
    1TYR     BB   25   1.091   1.523   1.438  0.2797  0.0966 -0.0538
    1TYR    SC1   26   0.803   1.620   1.456  0.1741  0.1702 -0.0785
    1TYR    SC2   27   0.575   1.763   1.433  0.0002 -0.0738  0.0692
    1TYR    SC3   28   0.681   1.715   1.677  0.1850 -0.0041  0.0047
    2HIS     BB   29   1.328   1.622   1.434  0.1128  0.1882 -0.0615
    2HIS    SC1   30   1.406   1.906   1.541 -0.0585  0.0746 -0.0393
    2HIS    SC2   31   1.440   2.174   1.535  0.0482  0.0686  0.1778
    2HIS    SC3   32   1.535   2.030   1.743 -0.0256 -0.1368  0.0731
    3TYR     BB   33   1.611   1.612   1.232  0.2268  0.1636  0.0285
    3TYR    SC1   34   1.860   1.737   1.369  0.1020  0.0717 -0.0439
    3TYR    SC2   35   1.963   1.900   1.558  0.1241 -0.1777  0.1646
    3TYR    SC3   36   2.122   1.801   1.363  0.1153  0.0281  0.0503
    1TYR     BB   37   2.868   2.959   7.522  0.0588  0.0559 -0.3327
    1TYR    SC1   38   2.663   3.182   7.464 -0.0826 -0.0789  0.1384
    1TYR    SC2   39   2.487   3.311   7.305 -0.1895 -0.0606  0.2694
    1TYR    SC3   40   2.602   3.441   7.511 -0.0432 -0.0811  0.2021
    2HIS     BB   41   3.096   2.880   7.283 -0.0132  0.1918  0.1139
    2HIS    SC1   42   2.970   2.754   7.059 -0.0050  0.0558  0.2184
    2HIS    SC2   43   2.749   2.694   6.917  0.0613  0.1811  0.0584
    2HIS    SC3   44   2.942   2.509   6.950  0.0185  0.1320  0.0354
    3TYR     BB   45   3.337   2.885   7.317 -0.0449 -0.0209 -0.0469
    3TYR    SC1   46   3.635   2.835   7.354 -0.0733 -0.0245 -0.0911
    3TYR    SC2   47   3.821   2.847   7.550 -0.0485  0.0931 -0.1213
    3TYR    SC3   48   3.861   2.689   7.335 -0.2522 -0.3496  0.1496
    1TYR     BB   49   6.282   5.106   3.393  0.1387 -0.0956 -0.1295
    1TYR    SC1   50   6.535   5.172   3.538 -0.2624  0.5749 -0.1921
    1TYR    SC2   51   6.728   5.313   3.411 -0.0896  0.5457  0.0309
    1TYR    SC3   52   6.789   5.165   3.629 -0.1781 -0.1866 -0.3987
    2HIS     BB   53   6.021   5.204   3.274 -0.0026 -0.2602  0.0513
    2HIS    SC1   54   6.019   4.991   3.034  0.2562  0.2176  0.0690
    2HIS    SC2   55   5.884   4.810   2.886  0.1378  0.0875  0.3280
    2HIS    SC3   56   6.147   4.854   2.840  0.0785  0.1360  0.0072
    3TYR     BB   57   5.863   5.476   3.151 -0.0172 -0.0927  0.3283
    3TYR    SC1   58   5.615   5.399   3.394 -0.1205 -0.0881 -0.0879
    3TYR    SC2   59   5.423   5.235   3.491 -0.0453 -0.2158 -0.1520
    3TYR    SC3   60   5.426   5.496   3.561  0.1119 -0.3355  0.3407
    1TYR     BB   61   4.922   1.524   7.124 -0.4289 -0.0876 -0.1149
    1TYR    SC1   62   4.947   1.813   7.016  0.1087 -0.0436  0.1342
    1TYR    SC2   63   4.724   1.926   6.914  0.1850  0.0515  0.0707
    1TYR    SC3   64   4.942   2.077   6.960  0.2950 -0.0731 -0.0310
    2HIS     BB   65   4.881   1.269   7.233  0.0173 -0.1213 -0.0666
    2HIS    SC1   66   5.067   1.042   7.113  0.0782  0.0374  0.0720
    2HIS    SC2   67   5.312   0.940   7.064  0.0467 -0.0919  0.1759
    2HIS    SC3   68   5.106   0.882   6.899  0.1231  0.1686 -0.0192
    3TYR     BB   69   4.659   1.174   7.388  0.3808  0.0855  0.1462
    3TYR    SC1   70   4.522   1.232   7.661 -0.1340  0.1145  0.0588
    3TYR    SC2   71   4.344   1.345   7.829 -0.2635 -0.1067  0.0757
    3TYR    SC3   72   4.464   1.113   7.896 -0.0921 -0.0447 -0.0098
    1TYR     BB   73   3.117   1.937   6.990 -0.0084 -0.1074 -0.2647
    1TYR    SC1   74   3.080   2.154   7.180 -0.0421 -0.2284 -0.0374
    1TYR    SC2   75   3.006   2.259   7.418 -0.1589 -0.0544 -0.1474
    1TYR    SC3   76   3.209   2.370   7.279 -0.0930 -0.1536 -0.1318
    2HIS     BB   77   2.903   1.848   6.801 -0.1852  0.0313 -0.2171
    2HIS    SC1   78   3.051   1.716   6.522 -0.0679 -0.2144 -0.0522
    2HIS    SC2   79   3.240   1.645   6.343 -0.1602 -0.3877 -0.0837
    2HIS    SC3   80   3.070   1.459   6.440  0.0153 -0.3409  0.3371
    3TYR     BB   81   2.599   1.808   6.778 -0.2811 -0.1218  0.1765
    3TYR    SC1   82   2.572   1.731   6.455  0.2682 -0.4066 -0.0456
    3TYR    SC2   83   2.669   1.609   6.234  0.2586 -0.3742 -0.0677
    3TYR    SC3   84   2.405   1.599   6.288  0.2102 -0.1095 -0.2315
    1TYR     BB   85   1.002   4.942   3.875 -0.0720  0.1486  0.0894
    1TYR    SC1   86   1.069   4.760   3.609 -0.1520 -0.1510 -0.1420
    1TYR    SC2   87   1.187   4.708   3.372  0.1568 -0.4888  0.0720
    1TYR    SC3   88   1.155   4.510   3.553 -0.1175 -0.2484  0.2992
    2HIS     BB   89   0.688   5.006   3.851 -0.1696 -0.0067  0.0837
    2HIS    SC1   90   0.637   4.955   3.541  0.1317  0.2347  0.0438
    2HIS    SC2   91   0.519   4.801   3.353  0.0078 -0.2049  0.4561
    2HIS    SC3   92   0.686   5.000   3.279 -0.2251 -0.1963 -0.1142
    3TYR     BB   93   0.430   5.050   4.088 -0.2321  0.1344  0.2300
    3TYR    SC1   94   0.552   5.032   4.365 -0.0083  0.0763  0.4015
    3TYR    SC2   95   0.598   5.145   4.605 -0.4266  0.1760  0.4443
    3TYR    SC3   96   0.409   4.955   4.580 -0.0981 -0.1429  0.2675
    1TYR     BB   97   2.384   3.579   0.660 -0.1063  0.0726 -0.4330
    1TYR    SC1   98   2.708   3.622   0.681 -0.1589  0.4437 -0.0683
    1TYR    SC2   99   2.937   3.565   0.550 -0.1062  0.3568  0.0589
    1TYR    SC3  100   2.926   3.777   0.717  0.0250  0.1061  0.4006
    2HIS     BB  101   2.290   3.881   0.608  0.2003  0.0804  0.2532
    2HIS    SC1  102   2.534   4.067   0.651  0.2636 -0.3231 -0.2515
    2HIS    SC2  103   2.697   4.222   0.799 -0.2101  0.0337 -0.0717
    2HIS    SC3  104   2.656   4.280   0.539 -0.0900 -0.0310 -0.1061
    3TYR     BB  105   2.197   4.012   0.276 -0.0671  0.0123 -0.1939
    3TYR    SC1  106   2.488   3.860   0.191 -0.1699 -0.0736  0.2277
    3TYR    SC2  107   2.743   3.945   0.162 -0.1897 -0.0913 -0.0189
    3TYR    SC3  108   2.692   3.683   0.205 -0.1799 -0.1582 -0.3727
    1TYR     BB  109   4.773   0.884   0.596  0.0502 -0.1598  0.1345
    1TYR    SC1  110   4.697   1.177   0.692  0.2072  0.1121 -0.1814
    1TYR    SC2  111   4.612   1.419   0.608 -0.0979  0.0630 -0.0334
    1TYR    SC3  112   4.689   1.385   0.864  0.0426  0.0251 -0.0798
    2HIS     BB  113   4.726   0.708   0.857  0.2374  0.2130  0.0173
    2HIS    SC1  114   4.570   0.858   1.063  0.1161  0.0655 -0.1044
    2HIS    SC2  115   4.562   1.094   1.194  0.0698 -0.0075  0.0273
    2HIS    SC3  116   4.343   0.936   1.188  0.1016 -0.0491 -0.0574
    3TYR     BB  117   4.647   0.427   0.862 -0.0589 -0.2029 -0.2242
    3TYR    SC1  118   4.768   0.163   0.702  0.0914  0.2687 -0.4391
    3TYR    SC2  119   4.682  -0.055   0.567  0.0803 -0.1571  0.2004
    3TYR    SC3  120   4.945  -0.025   0.623  0.1009  0.0777 -0.0017
    1TYR     BB  121   3.651   3.274   6.583 -0.1837 -0.0342  0.2981
    1TYR    SC1  122   3.955   3.340   6.537  0.2904 -0.3856  0.0568
    1TYR    SC2  123   4.177   3.468   6.622  0.1186  0.0014 -0.0453
    1TYR    SC3  124   4.175   3.198   6.603  0.3768 -0.0608  0.5296
    2HIS     BB  125   3.516   3.494   6.339 -0.1210  0.2393 -0.0360
    2HIS    SC1  126   3.662   3.741   6.429 -0.2619 -0.1235  0.0984
    2HIS    SC2  127   3.922   3.807   6.457 -0.2715 -0.0504  0.0201
    2HIS    SC3  128   3.730   3.988   6.513 -0.3095 -0.1346  0.1715
    3TYR     BB  129   3.198   3.335   6.253 -0.0604  0.0114  0.0699
    3TYR    SC1  130   3.085   3.496   5.983  0.0505  0.1034 -0.0862
    3TYR    SC2  131   3.026   3.682   5.797  0.0671  0.2229  0.0262
    3TYR    SC3  132   2.891   3.448   5.801  0.0468  0.2306 -0.1169
    1TYR     BB  133   1.844   1.231   7.664 -0.3568 -0.1169 -0.0571
    1TYR    SC1  134   1.627   1.037   7.540 -0.0401  0.1435  0.0555
    1TYR    SC2  135   1.492   0.807   7.501  0.0075  0.1137  0.0647
    1TYR    SC3  136   1.387   1.041   7.419 -0.1098  0.1066  0.1894
    2HIS     BB  137   1.816   1.206   8.008 -0.0318  0.3025 -0.2358
    2HIS    SC1  138   1.851   1.493   8.039  0.0191  0.1171 -0.2531
    2HIS    SC2  139   2.014   1.705   8.077 -0.0630  0.1119  0.1902
    2HIS    SC3  140   1.746   1.740   8.065 -0.0641  0.0571  0.0340
    3TYR     BB  141   1.754   0.942   8.076  0.0971 -0.0447 -0.2246
    3TYR    SC1  142   1.689   0.673   7.897  0.0161  0.0104 -0.0156
    3TYR    SC2  143   1.769   0.524   7.687  0.1926  0.1417 -0.0444
    3TYR    SC3  144   1.559   0.445   7.837  0.1096  0.0100 -0.2259
    1TYR     BB  145   4.582   1.684   7.463 -0.4258  0.0380 -0.0302
    1TYR    SC1  146   4.616   1.984   7.427 -0.2638  0.0877 -0.2380
    1TYR    SC2  147   4.765   2.207   7.462 -0.0405 -0.0602 -0.2155
    1TYR    SC3  148   4.537   2.173   7.603 -0.1123  0.1808 -0.2676
    2HIS     BB  149   4.369   1.584   7.275 -0.2073 -0.0232  0.0436
    2HIS    SC1  150   4.180   1.362   7.378  0.2471  0.0901 -0.1324
    2HIS    SC2  151   4.138   1.130   7.509  0.3505  0.1741  0.0547
    2HIS    SC3  152   4.154   1.132   7.239 -0.0447  0.0239  0.0228
    3TYR     BB  153   4.406   1.525   7.007 -0.6214  0.1454 -0.2573
    3TYR    SC1  154   4.239   1.391   6.801 -0.0442 -0.1141  0.1904
    3TYR    SC2  155   4.076   1.182   6.754 -0.0362 -0.0586 -0.1072
    3TYR    SC3  156   4.220   1.289   6.552  0.2103  0.0278  0.1075
    1TYR     BB  157   5.895   0.763   1.270 -0.2000  0.3667  0.1437
    1TYR    SC1  158   5.965   1.022   1.317 -0.0796  0.1725  0.0796
    1TYR    SC2  159   5.948   1.292   1.321 -0.2767  0.1602  0.3108
    1TYR    SC3  160   6.175   1.170   1.401 -0.0799  0.2589 -0.0662
    2HIS     BB  161   5.909   0.545   1.179  0.0348  0.4384  0.0004
    2HIS    SC1  162   5.714   0.296   1.156  0.0634 -0.1282 -0.1923
    2HIS    SC2  163   5.520   0.192   1.311  0.0136  0.0733 -0.1157
    2HIS    SC3  164   5.691   0.028   1.181  0.0816 -0.1006  0.1818
    3TYR     BB  165   6.194   0.297   1.079 -0.0966  0.0507  0.1839
    3TYR    SC1  166   6.384   0.545   1.156  0.1943  0.0876 -0.1615
    3TYR    SC2  167   6.550   0.694   1.308  0.1634  0.0356 -0.0756
    3TYR    SC3  168   6.395   0.812   1.121  0.2373  0.0941 -0.1005
    1TYR     BB  169   1.466   0.535   1.357  0.2854 -0.0460 -0.1901
    1TYR    SC1  170   1.243   0.546   1.125 -0.2119 -0.1805 -0.0329
    1TYR    SC2  171   1.068   0.733   1.038 -0.1266 -0.0832  0.0027
    1TYR    SC3  172   1.046   0.478   0.953 -0.3208 -0.0848  0.0516
    2HIS     BB  173   1.318   0.415   1.627  0.0957  0.0222  0.1485
    2HIS    SC1  174   1.183   0.137   1.739 -0.0883 -0.1466 -0.2668
    2HIS    SC2  175   1.288  -0.104   1.801  0.3027  0.1443  0.3187
    2HIS    SC3  176   1.185   0.052   1.995 -0.0813  0.4030 -0.0692
    3TYR     BB  177   1.141   0.627   1.875 -0.0270  0.3021  0.0525
    3TYR    SC1  178   0.903   0.451   1.990  0.0938 -0.0483 -0.3147
    3TYR    SC2  179   0.788   0.313   2.192  0.3344  0.1087 -0.0604
    3TYR    SC3  180   0.782   0.215   1.941 -0.1096 -0.0145 -0.0128
    1TYR     BB  181   1.781   0.419   0.664  0.1333 -0.0375 -0.1005
    1TYR    SC1  182   1.759   0.664   0.879  0.2237 -0.1626 -0.0422
    1TYR    SC2  183   1.821   0.770   1.119 -0.3486 -0.1061  0.0990
    1TYR    SC3  184   1.907   0.889   0.893 -0.0738  0.0263  0.2670
    2HIS     BB  185   1.981   0.431   0.503  0.2398 -0.1860  0.0811
    2HIS    SC1  186   2.227   0.636   0.623 -0.0467  0.2372 -0.1383
    2HIS    SC2  187   2.367   0.737   0.831  0.0344 -0.0755 -0.0339
    2HIS    SC3  188   2.469   0.748   0.581  0.1097 -0.0368 -0.0018
    3TYR     BB  189   2.071   0.272   0.243 -0.0509 -0.1932  0.0681
    3TYR    SC1  190   2.164   0.019   0.180  0.0874  0.0600  0.1693
    3TYR    SC2  191   2.304  -0.200   0.106 -0.0941 -0.0803  0.2337
    3TYR    SC3  192   2.046  -0.224   0.183 -0.3485  0.2339 -0.4279
    1TYR     BB  193   0.237   6.025   4.797  0.1393 -0.3783 -0.0312
    1TYR    SC1  194   0.245   6.062   5.084 -0.1843  0.2451  0.3980
    1TYR    SC2  195   0.237   6.114   5.349  0.1696 -0.0099  0.4671
    1TYR    SC3  196   0.344   5.882   5.260  0.2556  0.1653  0.0894
    2HIS     BB  197   0.525   6.122   4.642 -0.4984 -0.0257 -0.1975
    2HIS    SC1  198   0.662   6.179   4.965  0.3672 -0.1457  0.0318
    2HIS    SC2  199   0.775   6.134   5.207  0.0348 -0.0850  0.2056
    2HIS    SC3  200   0.596   6.334   5.176  0.1738 -0.0034 -0.1294
    3TYR     BB  201   0.616   6.119   4.394  0.0611 -0.1009 -0.0001
    3TYR    SC1  202   0.496   6.026   4.135 -0.1669  0.1917 -0.0885
    3TYR    SC2  203   0.333   6.049   3.921 -0.0396 -0.0878 -0.2223
    3TYR    SC3  204   0.578   5.938   3.893  0.0309 -0.0092  0.0459
    1TYR     BB  205   6.819   4.624   3.581 -0.1979 -0.1491  0.0952
    1TYR    SC1  206   6.725   4.337   3.666 -0.0734 -0.2508 -0.0509
    1TYR    SC2  207   6.573   4.118   3.709  0.0838 -0.3645 -0.0643
    1TYR    SC3  208   6.746   4.124   3.501 -0.0331 -0.1644 -0.1592
    2HIS     BB  209   7.018   4.601   3.345 -0.2756 -0.3639  0.0616
    2HIS    SC1  210   7.170   4.345   3.419 -0.1353 -0.0272  0.1811
    2HIS    SC2  211   7.225   4.081   3.397  0.1755  0.0489 -0.0615
    2HIS    SC3  212   7.410   4.250   3.497  0.1344  0.2293 -0.2803
    3TYR     BB  213   7.091   4.914   3.244  0.2890 -0.0470 -0.1363
    3TYR    SC1  214   7.213   5.069   3.490 -0.0636 -0.2197  0.1976
    3TYR    SC2  215   7.465   5.153   3.537 -0.2114  0.3844  0.0198
    3TYR    SC3  216   7.256   5.313   3.598 -0.5542 -0.0503  0.0452
    1TYR     BB  217   6.081   4.604   3.667 -0.1269 -0.2189 -0.3791
    1TYR    SC1  218   5.843   4.463   3.721  0.1271  0.1476  0.0240
    1TYR    SC2  219   5.637   4.301   3.656  0.2359 -0.0566  0.1746
    1TYR    SC3  220   5.629   4.446   3.884  0.3569 -0.2498  0.3052
    2HIS     BB  221   6.169   4.626   3.416 -0.0643 -0.2454 -0.1178
    2HIS    SC1  222   5.966   4.582   3.212 -0.0297  0.0709 -0.1807
    2HIS    SC2  223   5.843   4.408   3.047 -0.4165  0.5177 -0.3936
    2HIS    SC3  224   5.697   4.565   3.212 -0.0484  0.0253  0.4905
    3TYR     BB  225   6.424   4.572   3.352  0.2637  0.1677  0.1702
    3TYR    SC1  226   6.545   4.761   3.146 -0.0685 -0.0512 -0.0136
    3TYR    SC2  227   6.608   5.008   3.060 -0.1733  0.0083  0.0771
    3TYR    SC3  228   6.632   4.797   2.894  0.0601  0.0568  0.0453
    1TYR     BB  229   0.518   0.909   0.091 -0.0893 -0.1273 -0.0041
    1TYR    SC1  230   0.728   1.126   0.003  0.0869 -0.1499  0.1929
    1TYR    SC2  231   0.915   1.253  -0.145 -0.3467  0.1901 -0.0976
    1TYR    SC3  232   0.869   1.330   0.110  0.0877 -0.0902  0.0798
    2HIS     BB  233   0.305   0.990  -0.167  0.2310 -0.1931  0.2337
    2HIS    SC1  234   0.456   1.128  -0.388  0.2173  0.0502  0.1567
    2HIS    SC2  235   0.620   1.262  -0.556  0.0980 -0.1512 -0.1319
    2HIS    SC3  236   0.355   1.313  -0.557  0.1182 -0.0135  0.1451
    3TYR     BB  237  -0.004   0.920  -0.121  0.1086 -0.0336  0.0677
    3TYR    SC1  238  -0.094   1.216   0.003  0.1033  0.0394 -0.1772
    3TYR    SC2  239  -0.298   1.362   0.101  0.1482  0.0459 -0.0925
    3TYR    SC3  240  -0.055   1.475   0.067  0.2087 -0.0330  0.0648
    1TYR     BB  241   5.518   1.062   1.179  0.0825  0.0120  0.1028
    1TYR    SC1  242   5.516   1.195   1.390  0.4121 -0.1765  0.5592
    1TYR    SC2  243   5.320   1.259   1.564 -0.0577  0.0935 -0.0273
    1TYR    SC3  244   5.510   1.441   1.501  0.2219 -0.0661  0.3156
    2HIS     BB  245   5.666   1.215   0.850  0.0658  0.0971  0.1102
    2HIS    SC1  246   5.683   1.471   0.982  0.1482 -0.0708  0.1755
    2HIS    SC2  247   5.543   1.670   1.100  0.0767  0.1937 -0.3184
    2HIS    SC3  248   5.813   1.682   1.089  0.1045  0.0379  0.0189
    3TYR     BB  249   5.588   1.183   0.515 -0.0338 -0.0407 -0.2913
    3TYR    SC1  250   5.870   1.101   0.393  0.0259 -0.4415  0.2191
    3TYR    SC2  251   6.129   1.163   0.439  0.0235  0.0223 -0.2745
    3TYR    SC3  252   6.061   1.024   0.217 -0.1401 -0.3205 -0.0208
    1TYR     BB  253   0.738   1.102   1.534  0.1094  0.0393  0.0678
    1TYR    SC1  254   0.514   1.267   1.582  0.0432 -0.1039 -0.0283
    1TYR    SC2  255   0.303   1.434   1.586  0.1230 -0.0027 -0.0011
    1TYR    SC3  256   0.407   1.343   1.818 -0.0106 -0.2077 -0.0182
    2HIS     BB  257   0.728   0.808   1.614  0.0335 -0.1475 -0.2105
    2HIS    SC1  258   0.627   0.796   1.900 -0.1307  0.0558 -0.1906
    2HIS    SC2  259   0.454   0.930   2.058  0.3363 -0.1179  0.5258
    2HIS    SC3  260   0.460   0.660   2.062  0.0704 -0.1576 -0.1557
    3TYR     BB  261   0.876   0.542   1.475 -0.2459  0.0476  0.1287
    3TYR    SC1  262   0.678   0.390   1.252  0.0178  0.1218  0.1688
    3TYR    SC2  263   0.583   0.144   1.193 -0.1921  0.1892  0.2175
    3TYR    SC3  264   0.421   0.360   1.177 -0.1092  0.2793  0.5144
    1TYR     BB  265   2.057   0.448   2.280 -0.0343 -0.0396  0.2140
    1TYR    SC1  266   1.762   0.341   2.143  0.2257 -0.3204 -0.0615
    1TYR    SC2  267   1.619   0.231   1.942 -0.1974  0.3440 -0.1657
    1TYR    SC3  268   1.492   0.347   2.150  0.2220  0.3473  0.1038
    2HIS     BB  269   2.174   0.698   2.377  0.0033 -0.1872 -0.3821
    2HIS    SC1  270   2.141   0.805   2.644  0.5241  0.3479 -0.0038
    2HIS    SC2  271   1.922   0.853   2.795 -0.0001 -0.3884 -0.4452
    2HIS    SC3  272   2.160   0.804   2.914 -0.2274 -0.2829  0.0915
    3TYR     BB  273   2.469   0.744   2.289  0.0291 -0.0855  0.3000
    3TYR    SC1  274   2.645   0.951   2.462  0.1399  0.0095 -0.0810
    3TYR    SC2  275   2.748   1.191   2.530  0.0684  0.0644 -0.1647
    3TYR    SC3  276   2.567   1.072   2.690  0.1052  0.0654 -0.1223
    1TYR     BB  277   4.163   0.540   0.778  0.1164  0.0725  0.2334
    1TYR    SC1  278   4.198   0.815   0.770 -0.2917 -0.1788 -0.1117
    1TYR    SC2  279   4.113   1.069   0.799 -0.0598 -0.0876 -0.1984
    1TYR    SC3  280   4.284   1.006   0.600  0.3206 -0.1972  0.1464
    2HIS     BB  281   4.125   0.425   1.064 -0.2146  0.0732 -0.2138
    2HIS    SC1  282   3.967   0.181   1.002 -0.1765 -0.0012  0.1355
    2HIS    SC2  283   3.905  -0.024   0.838  0.4908 -0.0825 -0.0508
    2HIS    SC3  284   3.853  -0.043   1.102 -0.3727 -0.0510 -0.1828
    3TYR     BB  285   4.194   0.444   1.291 -0.1354 -0.1685 -0.1817
    3TYR    SC1  286   4.291   0.179   1.449 -0.1225  0.1421  0.0356
    3TYR    SC2  287   4.394  -0.008   1.616  0.3314  0.2578 -0.0966
    3TYR    SC3  288   4.309  -0.079   1.370 -0.3394  0.0866  0.1570
    1TYR     BB  289   1.834   2.160   0.213 -0.0534 -0.0861 -0.2972
    1TYR    SC1  290   1.861   1.937  -0.004  0.3000 -0.0689  0.0838
    1TYR    SC2  291   1.997   1.712  -0.068  0.2079  0.0860 -0.8324
    1TYR    SC3  292   1.733   1.731  -0.123 -0.0657  0.0763  0.2082
    2HIS     BB  293   1.555   2.312   0.080 -0.0718  0.2517  0.0998
    2HIS    SC1  294   1.381   2.467   0.260 -0.0421 -0.1794  0.0047
    2HIS    SC2  295   1.147   2.532   0.379  0.1770  0.0629  0.3260
    2HIS    SC3  296   1.333   2.722   0.335  0.1559 -0.0385 -0.3215
    3TYR     BB  297   1.555   2.254  -0.185  0.0444  0.1853  0.0884
    3TYR    SC1  298   1.244   2.321  -0.290  0.0523  0.0274 -0.3369
    3TYR    SC2  299   1.006   2.264  -0.402 -0.2027  0.2138  0.0773
    3TYR    SC3  300   1.092   2.519  -0.393 -0.1272  0.1853  0.1877
    1TYR     BB  301   5.958   0.855   0.820 -0.0117 -0.2636  0.1925
    1TYR    SC1  302   6.133   1.083   0.886  0.0491  0.0469 -0.0689
    1TYR    SC2  303   6.349   1.220   0.970  0.3451 -0.0571 -0.5993
    1TYR    SC3  304   6.151   1.348   0.838  0.0148  0.0548 -0.0387
    2HIS     BB  305   6.133   0.675   0.653 -0.0758 -0.2960 -0.1360
    2HIS    SC1  306   5.967   0.423   0.582 -0.2045  0.0808  0.3674
    2HIS    SC2  307   5.800   0.264   0.441 -0.2435  0.3621  0.0820
    2HIS    SC3  308   5.841   0.217   0.704 -0.1935 -0.1577 -0.0051
    3TYR     BB  309   6.413   0.680   0.611  0.0808  0.1157  0.2812
    3TYR    SC1  310   6.626   0.541   0.778 -0.0057 -0.0223 -0.1586
    3TYR    SC2  311   6.787   0.550   0.995 -0.0025  0.2944 -0.1676
    3TYR    SC3  312   6.720   0.312   0.886  0.1344  0.1392  0.0748
    1TYR     BB  313   1.906   3.188   6.290  0.1329 -0.0702  0.1753
    1TYR    SC1  314   1.650   3.302   6.378  0.0825  0.1870  0.1325
    1TYR    SC2  315   1.529   3.500   6.516 -0.1376 -0.1093  0.3841
    1TYR    SC3  316   1.479   3.242   6.578  0.0106 -0.2534 -0.0456
    2HIS     BB  317   2.163   3.366   6.312 -0.0321  0.0395  0.1147
    2HIS    SC1  318   2.014   3.608   6.141 -0.1460 -0.2508 -0.0691
    2HIS    SC2  319   1.877   3.804   6.015 -0.0537 -0.0225  0.1749
    2HIS    SC3  320   2.145   3.822   6.042 -0.0307 -0.2356  0.1122
    3TYR     BB  321   2.385   3.452   6.454 -0.3626  0.0032  0.1450
    3TYR    SC1  322   2.565   3.647   6.280  0.0162 -0.0925  0.0824
    3TYR    SC2  323   2.755   3.753   6.120 -0.0660 -0.0660  0.0016
    3TYR    SC3  324   2.582   3.915   6.250 -0.0737 -0.0929  0.0252
    1TYR     BB  325   1.342   0.549   3.361 -0.0873 -0.4046 -0.2613
    1TYR    SC1  326   1.225   0.348   3.133  0.2215  0.1785  0.1377
    1TYR    SC2  327   1.253   0.138   2.966  0.1293 -0.1158  0.4773
    1TYR    SC3  328   1.073   0.331   2.911  0.2924 -0.0604  0.1036
    2HIS     BB  329   1.659   0.602   3.251 -0.0629  0.1929  0.2811
    2HIS    SC1  330   1.706   0.900   3.229  0.0120 -0.0487  0.0086
    2HIS    SC2  331   1.604   1.135   3.314 -0.0637 -0.1633  0.2447
    2HIS    SC3  332   1.807   1.133   3.136  0.2062  0.0951  0.5349
    3TYR     BB  333   1.718   0.414   3.076 -0.1974 -0.0600 -0.1731
    3TYR    SC1  334   1.580   0.492   2.791 -0.4034  0.3392 -0.0291
    3TYR    SC2  335   1.431   0.351   2.615 -0.1082 -0.1685  0.1004
    3TYR    SC3  336   1.592   0.549   2.527 -0.1288 -0.2657 -0.1697
    1TYR     BB  337   1.206   0.949   1.478  0.0020  0.3422  0.2239
    1TYR    SC1  338   1.409   1.024   1.243  0.2881 -0.2133 -0.0618
    1TYR    SC2  339   1.559   1.197   1.099 -0.1973  0.1924 -0.1131
    1TYR    SC3  340   1.406   1.014   0.973 -0.0279  0.0201 -0.0739
    2HIS     BB  341   1.319   1.141   1.721 -0.1966  0.0961 -0.0253
    2HIS    SC1  342   1.052   1.211   1.881 -0.2665 -0.5399 -0.4350
    2HIS    SC2  343   0.848   1.377   1.941  0.2013  0.0161 -0.2707
    2HIS    SC3  344   0.877   1.145   2.076  0.0826  0.2759  0.2303
    3TYR     BB  345   1.524   1.310   1.773 -0.3405 -0.0889  0.0936
    3TYR    SC1  346   1.665   1.548   1.876  0.1748 -0.1682 -0.1278
    3TYR    SC2  347   1.916   1.641   1.913  0.1921 -0.2105 -0.1387
    3TYR    SC3  348   1.719   1.712   2.083  0.1083  0.2041 -0.3922
    1TYR     BB  349   1.889   1.835   0.877 -0.2475 -0.1458  0.4356
    1TYR    SC1  350   1.884   2.093   1.010 -0.0179  0.2447 -0.0586
    1TYR    SC2  351   1.751   2.158   1.236 -0.0237 -0.1250  0.0527
    1TYR    SC3  352   2.013   2.220   1.210 -0.0493  0.0126  0.1147
    2HIS     BB  353   2.092   1.604   0.866  0.1838 -0.1687 -0.2217
    2HIS    SC1  354   2.354   1.694   0.744 -0.1266 -0.2852 -0.1577
    2HIS    SC2  355   2.617   1.742   0.705 -0.1077  0.0179  0.2603
    2HIS    SC3  356   2.435   1.836   0.528  0.0700 -0.6486 -0.3346
    3TYR     BB  357   2.051   1.370   1.066 -0.0763  0.0901 -0.0297
    3TYR    SC1  358   2.235   1.168   1.183 -0.2910 -0.0986  0.0636
    3TYR    SC2  359   2.436   1.072   1.336 -0.1028  0.0514 -0.0840
    3TYR    SC3  360   2.254   0.903   1.231 -0.0528 -0.0871  0.0483
    1TYR     BB  361   4.441   0.589   0.357  0.1116  0.1816 -0.0301
    1TYR    SC1  362   4.409   0.277   0.420  0.0203 -0.3390  0.2193
    1TYR    SC2  363   4.421   0.064   0.254  0.0421 -0.1132 -0.0790
    1TYR    SC3  364   4.231   0.076   0.445 -0.0484 -0.3327 -0.1520
    2HIS     BB  365   4.324   0.600   0.084 -0.2645 -0.0122  0.1173
    2HIS    SC1  366   4.261   0.325  -0.032  0.0273 -0.0590 -0.1689
    2HIS    SC2  367   4.104   0.134  -0.139  0.0789 -0.0006 -0.3540
    2HIS    SC3  368   4.292   0.254  -0.291  0.2575 -0.0211 -0.1547
    3TYR     BB  369   4.422   0.753  -0.217  0.0750  0.0793 -0.0293
    3TYR    SC1  370   4.359   0.685  -0.514  0.0867  0.3748  0.1227
    3TYR    SC2  371   4.305   0.522  -0.722 -0.0683  0.0978  0.3709
    3TYR    SC3  372   4.181   0.761  -0.702  0.0447  0.1864  0.0843
    1TYR     BB  373   0.351   4.230   4.500  0.4130  0.1420 -0.0995
    1TYR    SC1  374   0.039   4.148   4.553 -0.1549  0.2260 -0.0075
    1TYR    SC2  375  -0.168   4.318   4.587 -0.2043  0.1670 -0.0108
    1TYR    SC3  376  -0.215   4.056   4.541 -0.1276  0.1363  0.0807
    2HIS     BB  377   0.472   4.002   4.304  0.1378 -0.0618 -0.3433
    2HIS    SC1  378   0.238   3.845   4.217 -0.0169  0.0615  0.1767
    2HIS    SC2  379   0.039   3.816   4.036  0.2722 -0.1894 -0.1148
    2HIS    SC3  380   0.000   3.741   4.293 -0.0658 -0.0564 -0.1217
    3TYR     BB  381   0.660   4.020   4.106  0.1581  0.3458  0.1471
    3TYR    SC1  382   0.468   3.985   3.844 -0.2604  0.0252 -0.0196
    3TYR    SC2  383   0.280   3.876   3.684 -0.1019  0.1160 -0.2763
    3TYR    SC3  384   0.504   3.738   3.741 -0.2185  0.0282 -0.0123
    1TYR     BB  385   7.003   5.019   4.038  0.1055 -0.0834  0.2222
    1TYR    SC1  386   6.776   5.210   4.071 -0.0495  0.0420 -0.1895
    1TYR    SC2  387   6.535   5.321   4.023 -0.1882 -0.1307  0.0776
    1TYR    SC3  388   6.748   5.478   4.078 -0.2230  0.0258 -0.2138
    2HIS     BB  389   6.983   4.736   4.196 -0.0806 -0.0953 -0.1267
    2HIS    SC1  390   6.774   4.510   4.093  0.2411 -0.3139 -0.2393
    2HIS    SC2  391   6.514   4.443   4.071  0.1629 -0.1683  0.1430
    2HIS    SC3  392   6.695   4.257   4.144  0.1223 -0.2091  0.1405
    3TYR     BB  393   7.208   4.612   4.363 -0.1814 -0.1521  0.1270
    3TYR    SC1  394   7.151   4.616   4.646  0.0802  0.0192  0.0630
    3TYR    SC2  395   7.051   4.552   4.888  0.1990 -0.1721  0.0639
    3TYR    SC3  396   7.292   4.672   4.869  0.0002  0.2491  0.0593
    1TYR     BB  397   0.589   5.655   4.449  0.0185  0.3182 -0.1597
    1TYR    SC1  398   0.603   5.604   4.763  0.0180  0.2783 -0.1409
    1TYR    SC2  399   0.706   5.478   4.979  0.1996  0.2952 -0.2154
    1TYR    SC3  400   0.639   5.739   4.994 -0.1465  0.2052 -0.0704
    2HIS     BB  401   0.834   5.556   4.301 -0.0025  0.2640  0.2489
    2HIS    SC1  402   0.944   5.816   4.153 -0.1739  0.0679 -0.2841
    2HIS    SC2  403   1.052   6.057   4.208  0.0516 -0.0684 -0.1061
    2HIS    SC3  404   1.022   5.978   3.951  0.2729  0.0208 -0.1630
    3TYR     BB  405   0.966   5.278   4.276 -0.2713 -0.0360  0.1606
    3TYR    SC1  406   1.017   5.043   4.412 -0.4300  0.4516  0.4869
    3TYR    SC2  407   1.201   4.931   4.574 -0.1013 -0.0633 -0.1784
    3TYR    SC3  408   0.957   4.818   4.549 -0.1984  0.0907  0.0306
    1TYR     BB  409   0.123   5.814   4.370 -0.0339  0.0053  0.1591
    1TYR    SC1  410   0.033   6.088   4.250 -0.1825 -0.1751  0.2339
    1TYR    SC2  411   0.013   6.356   4.277 -0.0246 -0.1692  0.3053
    1TYR    SC3  412  -0.153   6.225   4.110  0.1752  0.0291 -0.0666
    2HIS     BB  413  -0.050   5.546   4.406  0.1395 -0.1479  0.0998
    2HIS    SC1  414  -0.316   5.599   4.251 -0.0695 -0.0029 -0.0324
    2HIS    SC2  415  -0.470   5.524   4.043 -0.0968 -0.0168 -0.0072
    2HIS    SC3  416  -0.446   5.785   4.104 -0.1094 -0.0145 -0.0117
    3TYR     BB  417   0.123   5.297   4.458  0.0663 -0.1314  0.0321
    3TYR    SC1  418   0.201   5.355   4.759  0.1973 -0.0836  0.1023
    3TYR    SC2  419   0.280   5.278   5.006 -0.1750  0.1292  0.2989
    3TYR    SC3  420   0.191   5.530   4.965 -0.1146  0.0984 -0.0580
    1TYR     BB  421   2.066   3.084   0.474 -0.1131 -0.0369  0.1174
    1TYR    SC1  422   2.112   2.966   0.169  0.4500  0.2693 -0.0334
    1TYR    SC2  423   2.177   3.110  -0.050  0.6676  0.0065 -0.1498
    1TYR    SC3  424   2.316   2.888   0.011  0.2813 -0.2150 -0.0309
    2HIS     BB  425   1.840   3.326   0.284  0.0909 -0.2745  0.0976
    2HIS    SC1  426   1.582   3.210   0.289 -0.1920 -0.2275  0.2075
    2HIS    SC2  427   1.345   3.207   0.158 -0.1099  0.1742  0.0305
    2HIS    SC3  428   1.363   3.320   0.403 -0.1914 -0.2820  0.2622
    3TYR     BB  429   2.142   3.496   0.228 -0.0791 -0.1118 -0.2614
    3TYR    SC1  430   2.149   3.541  -0.116 -0.0832  0.1270  0.0825
    3TYR    SC2  431   1.998   3.680  -0.292  0.1020  0.0256 -0.1633
    3TYR    SC3  432   2.054   3.419  -0.337  0.0731 -0.0296  0.0987
    1TYR     BB  433   6.034   5.331   3.749  0.1040 -0.0811  0.3617
    1TYR    SC1  434   6.250   5.521   3.705 -0.2777 -0.0286 -0.2352
    1TYR    SC2  435   6.478   5.654   3.759 -0.0846 -0.3761 -0.1554
    1TYR    SC3  436   6.386   5.641   3.505  0.0349 -0.3121 -0.2033
    2HIS     BB  437   5.818   5.474   3.913 -0.1412  0.1781 -0.0752
    2HIS    SC1  438   6.001   5.736   4.032 -0.1794  0.2252 -0.4745
    2HIS    SC2  439   6.190   5.924   3.991  0.1524  0.1017  0.2698
    2HIS    SC3  440   6.000   5.962   4.179 -0.0365 -0.1429  0.1374
    3TYR     BB  441   5.599   5.458   4.004 -0.1010  0.1701  0.0751
    3TYR    SC1  442   5.340   5.245   3.948 -0.0285  0.0225 -0.2607
    3TYR    SC2  443   5.261   4.998   3.873 -0.0464 -0.1898  0.3768
    3TYR    SC3  444   5.100   5.150   4.027  0.1579  0.0277  0.3838
    1TYR     BB  445   5.724   1.330   7.187  0.1285 -0.1179  0.1039
    1TYR    SC1  446   5.813   1.452   7.429 -0.3482 -0.0697  0.2650
    1TYR    SC2  447   5.942   1.457   7.666 -0.0724 -0.0554  0.1200
    1TYR    SC3  448   5.833   1.683   7.567 -0.1584 -0.0541  0.2162
    2HIS     BB  449   5.954   1.176   7.080  0.0379  0.0680 -0.2639
    2HIS    SC1  450   6.202   1.256   6.955  0.2565 -0.1822 -0.0313
    2HIS    SC2  451   6.441   1.380   6.933  0.1510  0.0249 -0.0416
    2HIS    SC3  452   6.329   1.264   6.717  0.3072 -0.2024 -0.0052
    3TYR     BB  453   5.848   0.899   6.965 -0.1120  0.1378 -0.3542
    3TYR    SC1  454   6.004   0.878   6.743  0.0449  0.0689  0.1400
    3TYR    SC2  455   5.986   0.845   6.475 -0.1206  0.1628  0.1379
    3TYR    SC3  456   6.222   0.807   6.600 -0.1193 -0.2411  0.0301
    1TYR     BB  457   2.067   7.648   2.070 -0.0514 -0.1357 -0.1505
    1TYR    SC1  458   2.315   7.569   1.914 -0.1436 -0.1357  0.2752
    1TYR    SC2  459   2.576   7.615   1.968 -0.1248 -0.0069  0.0845
    1TYR    SC3  460   2.507   7.440   1.774 -0.1667  0.2646 -0.1545
    2HIS     BB  461   2.216   7.675   2.399  0.1610 -0.3228  0.0453
    2HIS    SC1  462   2.505   7.824   2.378  0.0199 -0.0265  0.1316
    2HIS    SC2  463   2.729   7.971   2.345 -0.0119  0.0401  0.2084
    2HIS    SC3  464   2.709   7.802   2.554 -0.1014  0.1637  0.3019
    3TYR     BB  465   2.272   7.477   2.601  0.4360  0.1230 -0.0236
    3TYR    SC1  466   2.097   7.483   2.895  0.4156 -0.1812  0.2074
    3TYR    SC2  467   1.902   7.389   3.057  0.1562  0.0977  0.0713
    3TYR    SC3  468   1.981   7.646   3.077  0.0977  0.1459 -0.2611
    1TYR     BB  469   5.084   0.445   1.093 -0.0900  0.3164  0.2907
    1TYR    SC1  470   5.236   0.201   1.009  0.0006 -0.3677 -0.1309
    1TYR    SC2  471   5.420   0.125   0.826  0.2017 -0.2160  0.0018
    1TYR    SC3  472   5.276  -0.061   0.960  0.2538 -0.3363 -0.1067
    2HIS     BB  473   5.197   0.639   1.199 -0.1073  0.0981 -0.2918
    2HIS    SC1  474   5.435   0.627   1.420 -0.1758  0.1980 -0.0009
    2HIS    SC2  475   5.584   0.498   1.605 -0.0168 -0.2268 -0.3989
    2HIS    SC3  476   5.545   0.765   1.624 -0.0636 -0.2603  0.2662
    3TYR     BB  477   5.017   0.874   1.304 -0.3085  0.1711 -0.0039
    3TYR    SC1  478   5.013   1.093   1.077  0.0580 -0.0316 -0.1373
    3TYR    SC2  479   5.176   1.305   1.041 -0.0897  0.1093  0.0033
    3TYR    SC3  480   5.137   1.128   0.840  0.5111 -0.1293  0.0718
    1TYR     BB  481   2.401   0.291   7.559 -0.0117 -0.0250 -0.0449
    1TYR    SC1  482   2.592   0.106   7.371  0.5557  0.1624  0.0724
    1TYR    SC2  483   2.735  -0.121   7.341  0.4176  0.0911 -0.0636
    1TYR    SC3  484   2.693   0.041   7.129 -0.0447 -0.0986 -0.1321
    2HIS     BB  485   2.552   0.663   7.495  0.3832 -0.0162  0.1072
    2HIS    SC1  486   2.344   0.751   7.721 -0.1632  0.0296 -0.1502
    2HIS    SC2  487   2.250   0.948   7.880  0.1822  0.5019 -0.4944
    2HIS    SC3  488   2.094   0.735   7.821  0.0136  0.3314  0.3899
    3TYR     BB  489   2.877   0.799   7.675 -0.1290  0.0237  0.5970
    3TYR    SC1  490   2.995   0.535   7.593 -0.1941 -0.1477 -0.2430
    3TYR    SC2  491   3.207   0.386   7.518 -0.2001 -0.3457  0.1069
    3TYR    SC3  492   2.959   0.318   7.437 -0.1333 -0.0432 -0.4056
    1TYR     BB  493   6.559   0.732   7.577 -0.1052  0.1895  0.0521
    1TYR    SC1  494   6.295   0.653   7.760  0.3859 -0.2389 -0.1578
    1TYR    SC2  495   6.209   0.439   7.901  0.0782 -0.1336 -0.1774
    1TYR    SC3  496   6.037   0.574   7.742  0.2012  0.2757  0.0211
    2HIS     BB  497   6.529   1.036   7.426  0.0222 -0.1967 -0.1663
    2HIS    SC1  498   6.812   1.193   7.314  0.1906 -0.3403 -0.1491
    2HIS    SC2  499   6.992   1.204   7.113 -0.1571 -0.2736 -0.4712
    2HIS    SC3  500   6.865   1.429   7.194  0.1959 -0.2392  0.0470
    3TYR     BB  501   6.329   1.210   7.485  0.0504 -0.0869 -0.1120
    3TYR    SC1  502   6.322   1.493   7.425 -0.0510  0.0611  0.0925
    3TYR    SC2  503   6.471   1.653   7.267  0.2297 -0.0748  0.2116
    3TYR    SC3  504   6.283   1.760   7.429  0.1198  0.0894 -0.0174
    1TYR     BB  505   5.728   0.396   7.298  0.1973 -0.0603  0.0227
    1TYR    SC1  506   5.845   0.162   7.176  0.1789 -0.1163  0.3037
    1TYR    SC2  507   5.874  -0.090   7.269 -0.1082 -0.4596 -0.4346
    1TYR    SC3  508   6.081   0.034   7.148  0.1730 -0.1283  0.3088
    2HIS     BB  509   5.550   0.511   6.966 -0.2721 -0.0179  0.0809
    2HIS    SC1  510   5.837   0.444   6.800 -0.0730  0.0608 -0.2058
    2HIS    SC2  511   6.104   0.421   6.838 -0.0972  0.0175 -0.0505
    2HIS    SC3  512   5.997   0.372   6.595  0.0844  0.4512 -0.2321
    3TYR     BB  513   5.307   0.423   6.989 -0.0699  0.3130 -0.1847
    3TYR    SC1  514   4.991   0.477   7.109  0.0264 -0.1459 -0.0654
    3TYR    SC2  515   4.784   0.648   7.130  0.0894 -0.0979  0.2109
    3TYR    SC3  516   4.739   0.388   7.072 -0.0197 -0.0262 -0.0427
    1TYR     BB  517   3.614   2.362   7.594 -0.1929  0.0290 -0.0378
    1TYR    SC1  518   3.390   2.338   7.786 -0.0494 -0.0160  0.1030
    1TYR    SC2  519   3.123   2.338   7.826 -0.0447  0.1964  0.1486
    1TYR    SC3  520   3.280   2.164   7.960 -0.1350  0.2349  0.3068
    2HIS     BB  521   3.713   2.159   7.419 -0.1333 -0.1947 -0.0266
    2HIS    SC1  522   4.010   2.172   7.267 -0.0933 -0.5631 -0.0901
    2HIS    SC2  523   4.227   2.044   7.170  0.2800 -0.2177  0.2394
    2HIS    SC3  524   4.254   2.287   7.285 -0.3406 -0.0084 -0.0034
    3TYR     BB  525   3.583   2.072   7.117 -0.2710  0.0991  0.1203
    3TYR    SC1  526   3.754   2.195   6.928  0.2886 -0.4243  0.0013
    3TYR    SC2  527   3.819   2.257   6.674  0.0915 -0.2793 -0.0173
    3TYR    SC3  528   3.921   2.401   6.878 -0.2307  0.0124 -0.0514
    1TYR     BB  529   2.114   0.906   1.902 -0.2098 -0.2413 -0.1077
    1TYR    SC1  530   1.971   1.107   1.682 -0.0215 -0.1564  0.0510
    1TYR    SC2  531   1.925   1.327   1.531 -0.2813 -0.3177 -0.1147
    1TYR    SC3  532   1.825   1.088   1.456  0.1521 -0.5364 -0.0391
    2HIS     BB  533   2.329   0.824   1.747 -0.1348  0.1485 -0.0627
    2HIS    SC1  534   2.444   0.572   1.825  0.0018 -0.0863 -0.1377
    2HIS    SC2  535   2.457   0.346   1.973 -0.0150 -0.1600 -0.2468
    2HIS    SC3  536   2.679   0.495   1.934 -0.1031  0.1463  0.2834
    3TYR     BB  537   2.664   1.017   1.862 -0.1141 -0.0223  0.2148
    3TYR    SC1  538   2.499   1.222   2.113  0.2036  0.5560  0.6293
    3TYR    SC2  539   2.264   1.348   2.075  0.0402  0.1554  0.1910
    3TYR    SC3  540   2.309   1.214   2.305 -0.2561  0.0511  0.1943
    1TYR     BB  541   3.694   1.360   7.480  0.1788  0.1689  0.1083
    1TYR    SC1  542   3.710   1.172   7.255  0.0104  0.0005 -0.0530
    1TYR    SC2  543   3.776   1.067   7.015 -0.0043  0.0499 -0.0790
    1TYR    SC3  544   3.544   0.997   7.134 -0.1045  0.1948 -0.1848
    2HIS     BB  545   3.802   1.642   7.292 -0.3132 -0.0198 -0.0474
    2HIS    SC1  546   4.002   1.760   7.478 -0.1887 -0.0378  0.0157
    2HIS    SC2  547   4.131   1.945   7.628 -0.0788 -0.1930  0.1166
    2HIS    SC3  548   4.058   1.709   7.738 -0.1140 -0.2571 -0.0408
    3TYR     BB  549   3.826   1.588   7.059  0.0819 -0.4846  0.1094
    3TYR    SC1  550   3.998   1.767   6.840 -0.1795 -0.1134  0.0172
    3TYR    SC2  551   4.199   1.924   6.750 -0.0545 -0.0932  0.3157
    3TYR    SC3  552   4.069   1.759   6.580 -0.0201  0.1465  0.0481
    1TYR     BB  553   2.408   2.357   5.720  0.1509  0.0819  0.1388
    1TYR    SC1  554   2.126   2.505   5.703 -0.0819 -0.3080 -0.0255
    1TYR    SC2  555   1.862   2.543   5.743 -0.0291  0.1554 -0.0540
    1TYR    SC3  556   1.976   2.620   5.511  0.1094 -0.1923 -0.1089
    2HIS     BB  557   2.397   2.272   6.089 -0.0909 -0.3082 -0.0271
    2HIS    SC1  558   2.207   2.516   6.189 -0.3715  0.1042 -0.2991
    2HIS    SC2  559   2.017   2.494   6.380 -0.1054  0.2763 -0.0015
    2HIS    SC3  560   2.035   2.720   6.232 -0.1241  0.2652 -0.0207
    3TYR     BB  561   2.244   2.000   6.028  0.1582 -0.0222  0.0044
    3TYR    SC1  562   1.940   2.092   6.130  0.1072  0.0166 -0.0739
    3TYR    SC2  563   1.778   2.299   6.070  0.1053  0.1041  0.2136
    3TYR    SC3  564   1.676   2.077   6.185  0.0893 -0.1081 -0.1868
    1TYR     BB  565   6.129   4.698   4.427  0.0914  0.0561 -0.1783
    1TYR    SC1  566   6.001   4.529   4.230  0.2717  0.0854  0.0737
    1TYR    SC2  567   5.874   4.291   4.237  0.0239  0.2172  0.2274
    1TYR    SC3  568   6.075   4.331   4.062 -0.2444  0.0497 -0.1340
    2HIS     BB  569   6.052   4.963   4.497  0.0235 -0.3190  0.1594
    2HIS    SC1  570   5.868   4.938   4.743 -0.0079 -0.3094 -0.0077
    2HIS    SC2  571   5.792   4.928   5.002 -0.0590  0.2471  0.0118
    2HIS    SC3  572   5.625   4.842   4.808 -0.0823 -0.0280  0.1490
    3TYR     BB  573   6.046   5.224   4.338 -0.0479  0.1931  0.0786
    3TYR    SC1  574   5.934   5.460   4.413  0.1451  0.0736 -0.2256
    3TYR    SC2  575   5.947   5.647   4.608  0.3045 -0.3706  0.2149
    3TYR    SC3  576   5.719   5.614   4.468  0.1336 -0.1334  0.4256
    1TYR     BB  577   2.924   3.511   6.636  0.1195 -0.0503  0.4527
    1TYR    SC1  578   3.116   3.311   6.748 -0.4606 -0.0463  0.0190
    1TYR    SC2  579   3.269   3.194   6.937 -0.0979 -0.0309 -0.2515
    1TYR    SC3  580   3.133   3.042   6.761 -0.4068 -0.0446 -0.0106
    2HIS     BB  581   2.710   3.665   6.830 -0.0697 -0.1124  0.0962
    2HIS    SC1  582   2.852   3.602   7.114  0.2050  0.2915  0.0566
    2HIS    SC2  583   2.989   3.412   7.249 -0.4199 -0.2093  0.0454
    2HIS    SC3  584   3.027   3.673   7.307  0.4553 -0.3090  0.0776
    3TYR     BB  585   2.428   3.697   6.922 -0.1656  0.0911  0.3021
    3TYR    SC1  586   2.419   3.742   7.195 -0.0987 -0.0665 -0.0064
    3TYR    SC2  587   2.307   3.965   7.299  0.0147  0.0318 -0.0919
    3TYR    SC3  588   2.514   3.847   7.425 -0.0401 -0.0214 -0.0509
    1TYR     BB  589   6.550   5.189   4.551  0.0499  0.1496  0.1155
    1TYR    SC1  590   6.457   5.454   4.452 -0.3838  0.0245 -0.0296
    1TYR    SC2  591   6.349   5.646   4.295 -0.2718  0.0780 -0.0426
    1TYR    SC3  592   6.391   5.693   4.558  0.5062  0.3908 -0.1892
    2HIS     BB  593   6.593   4.882   4.450 -0.1721  0.1135 -0.3514
    2HIS    SC1  594   6.506   4.879   4.124  0.3935  0.3616 -0.0417
    2HIS    SC2  595   6.494   4.836   3.858 -0.0094 -0.3125  0.0561
    2HIS    SC3  596   6.301   4.980   3.980  0.2296  0.0843 -0.0124
    3TYR     BB  597   6.567   4.544   4.558  0.0379 -0.0691  0.4158
    3TYR    SC1  598   6.766   4.342   4.623  0.0856 -0.1787  0.2514
    3TYR    SC2  599   6.994   4.199   4.608  0.0233 -0.2618  0.0604
    3TYR    SC3  600   6.758   4.073   4.635 -0.0228 -0.1900 -0.0021
    1TYR     BB  601   5.271   0.329   7.507  0.1347 -0.2549 -0.1125
    1TYR    SC1  602   4.970   0.302   7.592 -0.0185  0.2989 -0.0977
    1TYR    SC2  603   4.802   0.177   7.762  0.0155  0.2052 -0.1325
    1TYR    SC3  604   4.704   0.309   7.548 -0.0089  0.0642 -0.2097
    2HIS     BB  605   5.454   0.534   7.782  0.0281 -0.0818 -0.2372
    2HIS    SC1  606   5.171   0.497   7.990 -0.2263  0.0766 -0.2624
    2HIS    SC2  607   5.111   0.439   8.247  0.3524  0.1341 -0.0967
    2HIS    SC3  608   4.915   0.455   8.063 -0.0583 -0.0946  0.2967
    3TYR     BB  609   5.602   0.729   7.956  0.2120  0.1431 -0.1390
    3TYR    SC1  610   5.556   0.677   8.247  0.2169  0.2061  0.0493
    3TYR    SC2  611   5.522   0.541   8.478 -0.1113 -0.3011 -0.2696
    3TYR    SC3  612   5.356   0.745   8.415  0.1140 -0.0144  0.0214
    1TYR     BB  613   3.931   3.422   6.020  0.1096  0.1741 -0.1798
    1TYR    SC1  614   4.183   3.343   5.859  0.0983  0.1139 -0.2254
    1TYR    SC2  615   4.363   3.142   5.875 -0.0247 -0.0065 -0.3277
    1TYR    SC3  616   4.447   3.396   5.839  0.1661  0.0403  0.3005
    2HIS     BB  617   3.774   3.130   6.090 -0.1420  0.1280 -0.2766
    2HIS    SC1  618   3.988   2.940   6.097 -0.0124  0.0979  0.1064
    2HIS    SC2  619   4.114   2.712   6.166 -0.2805  0.0043  0.3050
    2HIS    SC3  620   4.228   2.950   6.220  0.0392 -0.0746  0.0250
    3TYR     BB  621   3.509   2.989   6.071  0.0233  0.0193 -0.1305
    3TYR    SC1  622   3.570   2.671   6.155  0.0847 -0.0513 -0.1247
    3TYR    SC2  623   3.730   2.463   6.218  0.3335  0.1841  0.0488
    3TYR    SC3  624   3.560   2.563   6.402 -0.4316 -0.3934 -0.2744
    1TYR     BB  625   3.785   1.222   0.241  0.2212 -0.0887 -0.0765
    1TYR    SC1  626   3.958   1.415   0.433 -0.1621  0.0402  0.0114
    1TYR    SC2  627   4.181   1.493   0.562 -0.1480 -0.0936  0.0700
    1TYR    SC3  628   3.986   1.672   0.511 -0.1594 -0.0397  0.2875
    2HIS     BB  629   3.905   0.939   0.205 -0.2104  0.0440 -0.2578
    2HIS    SC1  630   3.868   0.810  -0.065 -0.0793  0.3007  0.0032
    2HIS    SC2  631   3.890   0.762  -0.329  0.1760  0.2526  0.0297
    2HIS    SC3  632   3.807   0.566  -0.163  0.2154  0.2193  0.0104
    3TYR     BB  633   3.880   0.778   0.397 -0.0174  0.2430 -0.1086
    3TYR    SC1  634   3.870   0.480   0.366  0.0623  0.0459  0.0546
    3TYR    SC2  635   3.856   0.277   0.189 -0.0163  0.0776  0.0240
    3TYR    SC3  636   3.840   0.226   0.453 -0.4003  0.0725  0.0075
    1TYR     BB  637   1.916   2.052   7.153 -0.6793 -0.0065  0.0582
    1TYR    SC1  638   1.617   2.021   7.095 -0.0600  0.1315  0.3427
    1TYR    SC2  639   1.360   2.068   7.024  0.0461 -0.0495 -0.2261
    1TYR    SC3  640   1.417   1.876   7.205 -0.2387  0.4071  0.3956
    2HIS     BB  641   2.149   1.841   7.102 -0.2076  0.4823 -0.0442
    2HIS    SC1  642   2.137   1.603   6.871  0.1156  0.0418  0.2463
    2HIS    SC2  643   2.268   1.472   6.675  0.0491  0.1974  0.0946
    2HIS    SC3  644   2.038   1.371   6.776  0.0323  0.1646  0.0241
    3TYR     BB  645   2.344   1.755   7.327 -0.1111 -0.1461 -0.0097
    3TYR    SC1  646   2.373   1.997   7.538 -0.1604  0.0469 -0.0588
    3TYR    SC2  647   2.606   2.077   7.649 -0.2529  0.0817  0.1138
    3TYR    SC3  648   2.383   2.061   7.800 -0.3963  0.1876 -0.0810
    1TYR     BB  649   6.318   4.326   5.009 -0.1135  0.2691  0.3258
    1TYR    SC1  650   6.589   4.149   5.021 -0.1547 -0.2232 -0.0988
    1TYR    SC2  651   6.855   4.143   5.065 -0.1774  0.3498  0.2452
    1TYR    SC3  652   6.699   3.943   5.156  0.1181  0.0409  0.1005
    2HIS     BB  653   6.223   4.633   4.912 -0.3052 -0.0834 -0.2773
    2HIS    SC1  654   5.926   4.515   4.833 -0.2475 -0.2728  0.1263
    2HIS    SC2  655   5.733   4.333   4.885 -0.3254 -0.2827 -0.1738
    2HIS    SC3  656   5.839   4.351   4.637  0.2106 -0.4162  0.0271
    3TYR     BB  657   6.359   4.880   4.881  0.1130 -0.0238  0.0024
    3TYR    SC1  658   6.222   5.140   4.911  0.2124  0.1052  0.3494
    3TYR    SC2  659   6.024   5.322   4.885  0.1326 -0.0259 -0.0336
    3TYR    SC3  660   6.275   5.403   4.946  0.0551  0.1875  0.0121
    1TYR     BB  661   6.884   0.713   0.368  0.2081  0.1351  0.1386
    1TYR    SC1  662   7.111   0.892   0.452 -0.0265  0.1978 -0.1255
    1TYR    SC2  663   7.351   0.777   0.406 -0.0376  0.1022  0.0458
    1TYR    SC3  664   7.338   1.019   0.524 -0.0288 -0.0587  0.3934
    2HIS     BB  665   6.858   0.441   0.330  0.2323  0.2297 -0.1046
    2HIS    SC1  666   6.578   0.238   0.430 -0.1554  0.0627  0.0596
    2HIS    SC2  667   6.369   0.153   0.578  0.1057 -0.1880  0.3030
    2HIS    SC3  668   6.398   0.068   0.323 -0.2407  0.0880  0.1608
    3TYR     BB  669   7.111   0.285   0.493 -0.1132  0.0440  0.0266
    3TYR    SC1  670   7.186   0.468   0.735  0.2734  0.2645  0.0313
    3TYR    SC2  671   7.168   0.701   0.872 -0.3981  0.0608  0.3425
    3TYR    SC3  672   7.244   0.475   0.999 -0.0407  0.0411  0.1128
    1TYR     BB  673   2.775   2.272   6.510  0.2809 -0.1859  0.3351
    1TYR    SC1  674   2.869   2.101   6.242 -0.0108 -0.0482 -0.0459
    1TYR    SC2  675   2.995   1.904   6.108 -0.0955 -0.0134 -0.1790
    1TYR    SC3  676   2.767   2.010   6.010 -0.1021  0.0858 -0.0600
    2HIS     BB  677   2.452   2.240   6.635  0.2005 -0.1093 -0.1145
    2HIS    SC1  678   2.459   2.244   6.935 -0.1527 -0.0526 -0.0108
    2HIS    SC2  679   2.654   2.227   7.121 -0.0058  0.3838 -0.1114
    2HIS    SC3  680   2.399   2.271   7.197 -0.0906 -0.2253  0.0235
    3TYR     BB  681   2.186   2.040   6.591  0.0063  0.0351 -0.1011
    3TYR    SC1  682   1.932   2.056   6.660  0.1491  0.1086  0.4276
    3TYR    SC2  683   1.677   2.144   6.645  0.0053 -0.3183  0.1366
    3TYR    SC3  684   1.728   1.880   6.667  0.4278 -0.2713 -0.1273
    1TYR     BB  685   6.637   2.067   0.455  0.0434  0.2471 -0.3400
    1TYR    SC1  686   6.463   1.800   0.311 -0.0771 -0.1421 -0.1625
    1TYR    SC2  687   6.417   1.560   0.424 -0.0993  0.0755  0.3205
    1TYR    SC3  688   6.241   1.660   0.246 -0.1160 -0.2370  0.1524
    2HIS     BB  689   6.428   2.130   0.737  0.0056  0.2874  0.4515
    2HIS    SC1  690   6.564   2.192   0.966  0.1782  0.2229 -0.1690
    2HIS    SC2  691   6.646   2.119   1.213 -0.2532  0.0973 -0.0515
    2HIS    SC3  692   6.702   2.366   1.119  0.4676 -0.0554 -0.0990
    3TYR     BB  693   6.196   1.869   0.810  0.1550 -0.1045 -0.2182
    3TYR    SC1  694   6.021   1.767   0.600 -0.2586  0.3391  0.2244
    3TYR    SC2  695   5.844   1.791   0.398 -0.0851 -0.2769 -0.0299
    3TYR    SC3  696   5.821   1.588   0.574  0.1292 -0.1138  0.1952
    1TYR     BB  697   2.740   3.195   6.204 -0.2400 -0.2307 -0.0836
    1TYR    SC1  698   2.916   2.950   6.333 -0.3639  0.2838  0.3791
    1TYR    SC2  699   2.947   2.745   6.506  0.0686 -0.0053 -0.0135
    1TYR    SC3  700   3.163   2.856   6.388 -0.2045  0.2396 -0.3058
    2HIS     BB  701   2.552   3.151   6.006 -0.0774  0.2010 -0.1420
    2HIS    SC1  702   2.389   3.372   5.832 -0.4303  0.0275  0.0922
    2HIS    SC2  703   2.349   3.488   5.592 -0.2850  0.0100  0.0582
    2HIS    SC3  704   2.468   3.627   5.791 -0.3100 -0.0098  0.0870
    3TYR     BB  705   2.436   2.872   5.959 -0.0907  0.1084 -0.1817
    3TYR    SC1  706   2.462   2.863   5.633 -0.0694  0.4275 -0.0723
    3TYR    SC2  707   2.457   2.748   5.389  0.2186 -0.0526  0.1294
    3TYR    SC3  708   2.598   2.974   5.428 -0.0137  0.1581 -0.1876
    1TYR     BB  709   0.618   4.588   4.252 -0.0661 -0.0159 -0.0729
    1TYR    SC1  710   0.941   4.532   4.189 -0.4572  0.3973  0.1637
    1TYR    SC2  711   1.179   4.656   4.217 -0.1409 -0.1270 -0.0182
    1TYR    SC3  712   1.152   4.457   4.037 -0.6660 -0.2214  0.1452
    2HIS     BB  713   0.477   4.483   3.997  0.0157 -0.1129  0.2101
    2HIS    SC1  714   0.198   4.311   4.045  0.1049 -0.5212  0.2408
    2HIS    SC2  715   0.004   4.231   3.876 -0.2234  0.1397  0.2638
    2HIS    SC3  716  -0.058   4.301   4.129 -0.0599  0.7743  0.1506
    3TYR     BB  717   0.565   4.500   3.739 -0.0781  0.2507  0.0799
    3TYR    SC1  718   0.395   4.327   3.529 -0.4422  0.1357  0.0451
    3TYR    SC2  719   0.177   4.214   3.416 -0.3610  0.1203 -0.0989
    3TYR    SC3  720   0.419   4.187   3.300 -0.2713  0.0891  0.0900
    1TYR     BB  721   4.757   1.518   6.627 -0.1269 -0.0746 -0.0729
    1TYR    SC1  722   4.980   1.648   6.501 -0.3166  0.0622  0.0623
    1TYR    SC2  723   5.175   1.770   6.359 -0.2113  0.0470  0.1904
    1TYR    SC3  724   5.066   1.893   6.573 -0.1343 -0.0645  0.2952
    2HIS     BB  725   4.826   1.243   6.740  0.1106 -0.2674  0.3396
    2HIS    SC1  726   5.006   1.148   6.531  0.0303 -0.2768 -0.0552
    2HIS    SC2  727   5.178   1.250   6.350  0.2173 -0.3501  0.0769
    2HIS    SC3  728   5.036   1.027   6.291  0.0553 -0.2083 -0.0867
    3TYR     BB  729   4.565   1.010   6.874  0.0387 -0.4154  0.0207
    3TYR    SC1  730   4.707   0.775   6.700  0.3296  0.4119 -0.2524
    3TYR    SC2  731   4.898   0.599   6.625 -0.0149 -0.2319  0.2546
    3TYR    SC3  732   4.646   0.514   6.674 -0.2557  0.4531  0.3547
    1TYR     BB  733   6.868   5.507   4.923  0.0709  0.1107 -0.0778
    1TYR    SC1  734   6.848   5.648   4.686  0.1278 -0.1280 -0.1178
    1TYR    SC2  735   6.778   5.878   4.563 -0.2500 -0.0839  0.1575
    1TYR    SC3  736   6.913   5.689   4.427  0.0497  0.2836 -0.0822
    2HIS     BB  737   6.736   5.260   4.970 -0.0661 -0.1696 -0.2431
    2HIS    SC1  738   6.646   5.233   5.283 -0.0800  0.2402  0.1611
    2HIS    SC2  739   6.449   5.063   5.352 -0.3340  0.3080 -0.3405
    2HIS    SC3  740   6.656   5.104   5.519 -0.6083  0.0379  0.0897
    3TYR     BB  741   6.889   5.007   4.850  0.0157  0.4229  0.2022
    3TYR    SC1  742   7.060   5.100   4.629 -0.1176  0.1474  0.0767
    3TYR    SC2  743   7.054   5.303   4.451  0.0473 -0.0081 -0.1122
    3TYR    SC3  744   7.276   5.150   4.475 -0.1053 -0.2240 -0.0386
    1TYR     BB  745   2.365   2.786   7.208  0.0079  0.1517 -0.1224
    1TYR    SC1  746   2.199   2.612   7.416  0.2156  0.1738  0.3171
    1TYR    SC2  747   2.075   2.517   7.637 -0.0294  0.2702  0.2252
    1TYR    SC3  748   1.941   2.534   7.403  0.2279  0.1660  0.0645
    2HIS     BB  749   2.200   2.665   6.921  0.1350 -0.1556 -0.2889
    2HIS    SC1  750   2.338   2.725   6.659 -0.1345 -0.0876 -0.1147
    2HIS    SC2  751   2.349   2.902   6.456  0.0251  0.1999  0.1339
    2HIS    SC3  752   2.509   2.685   6.454 -0.0055  0.1760 -0.0640
    3TYR     BB  753   1.994   2.467   6.876 -0.3145 -0.1099  0.2548
    3TYR    SC1  754   1.736   2.472   6.979  0.1704 -0.1708  0.2199
    3TYR    SC2  755   1.539   2.580   7.128 -0.1062 -0.0347 -0.2186
    3TYR    SC3  756   1.488   2.499   6.876  0.3025 -0.4185 -0.1935
    1TYR     BB  757   5.314   1.357   7.427 -0.0551 -0.0635  0.0683
    1TYR    SC1  758   5.428   1.647   7.314  0.0813 -0.0084  0.1239
    1TYR    SC2  759   5.472   1.886   7.432  0.1565 -0.1666  0.4298
    1TYR    SC3  760   5.621   1.811   7.219 -0.0108  0.1428  0.1939
    2HIS     BB  761   5.434   1.304   7.679  0.1129 -0.2654  0.0734
    2HIS    SC1  762   5.647   1.056   7.628  0.1049 -0.3137  0.5909
    2HIS    SC2  763   5.595   0.880   7.430 -0.1269  0.1793  0.1869
    2HIS    SC3  764   5.849   0.919   7.512 -0.0566 -0.2272  0.1868
    3TYR     BB  765   5.454   1.570   7.853 -0.0915  0.0743 -0.1757
    3TYR    SC1  766   5.445   1.836   7.833 -0.0617 -0.2043  0.0220
    3TYR    SC2  767   5.421   1.997   8.049  0.2232 -0.3275  0.1519
    3TYR    SC3  768   5.564   2.079   7.835 -0.1987 -0.1353 -0.0697
    1TYR     BB  769   3.519   1.762   6.721  0.2068 -0.1844  0.0817
    1TYR    SC1  770   3.591   1.497   6.563 -0.2310  0.1841 -0.3332
    1TYR    SC2  771   3.526   1.251   6.473 -0.0073  0.0868 -0.2381
    1TYR    SC3  772   3.775   1.348   6.434  0.1696 -0.0425  0.4261
    2HIS     BB  773   3.412   2.075   6.534  0.1863 -0.2527  0.1615
    2HIS    SC1  774   3.650   1.989   6.327 -0.0671  0.0100  0.0192
    2HIS    SC2  775   3.785   1.791   6.203 -0.2186 -0.0004 -0.1343
    2HIS    SC3  776   3.807   2.045   6.114  0.3397  0.1449  0.3377
    3TYR     BB  777   3.269   2.221   6.619 -0.1051  0.2242 -0.2890
    3TYR    SC1  778   3.345   2.448   6.820 -0.3528  0.0618 -0.2525
    3TYR    SC2  779   3.401   2.712   6.823 -0.0332 -0.0015 -0.1427
    3TYR    SC3  780   3.523   2.546   6.997  0.1621 -0.2954 -0.5394
    1TYR     BB  781   5.184   1.014   0.338 -0.1463 -0.0985 -0.1447
    1TYR    SC1  782   5.058   0.924   0.102 -0.1721  0.0946 -0.0477
    1TYR    SC2  783   4.998   0.832  -0.145 -0.0058 -0.4754  0.1078
    1TYR    SC3  784   4.829   0.789   0.061  0.0256 -0.3292  0.1658
    2HIS     BB  785   5.017   1.340   0.338  0.6164  0.0897  0.2972
    2HIS    SC1  786   5.145   1.508   0.581  0.0290 -0.2792  0.3809
    2HIS    SC2  787   5.380   1.604   0.672  0.2005  0.0034 -0.2900
    2HIS    SC3  788   5.154   1.750   0.700  0.2740  0.1445 -0.4155
    3TYR     BB  789   4.923   1.440   0.096 -0.0148  0.1550  0.1847
    3TYR    SC1  790   4.981   1.727   0.071 -0.4339  0.1352 -0.2607
    3TYR    SC2  791   5.058   1.889  -0.131  0.0614 -0.0111 -0.2058
    3TYR    SC3  792   5.005   1.993   0.112  0.1136  0.0978 -0.2402
    1TYR     BB  793   3.590   0.996   0.715 -0.1045  0.1552  0.1005
    1TYR    SC1  794   3.672   1.228   0.826 -0.3125 -0.0147 -0.0194
    1TYR    SC2  795   3.736   1.355   1.056 -0.3178 -0.0494  0.0013
    1TYR    SC3  796   3.682   1.497   0.833 -0.0539 -0.0207 -0.0479
    2HIS     BB  797   3.695   0.742   0.867  0.1241  0.2324 -0.0839
    2HIS    SC1  798   3.622   0.425   0.818  0.0144 -0.0633  0.2593
    2HIS    SC2  799   3.482   0.244   0.961 -0.3497  0.1082  0.1338
    2HIS    SC3  800   3.455   0.253   0.692 -0.0077  0.0763  0.0932
    3TYR     BB  801   3.793   0.745   1.145 -0.0387  0.2446 -0.3839
    3TYR    SC1  802   3.684   0.530   1.328 -0.0155  0.1927 -0.2456
    3TYR    SC2  803   3.721   0.277   1.416 -0.0348  0.1879 -0.2513
    3TYR    SC3  804   3.476   0.389   1.429 -0.0094  0.2355 -0.1721
    1TYR     BB  805   7.630   0.851   0.897 -0.0719 -0.2032  0.0418
    1TYR    SC1  806   7.664   0.584   0.773  0.1028  0.2182 -0.1798
    1TYR    SC2  807   7.583   0.420   0.575 -0.0607  0.1035 -0.0221
    1TYR    SC3  808   7.711   0.318   0.790 -0.2530  0.1638  0.1245
    2HIS     BB  809   7.546   0.929   1.153 -0.1767 -0.1629  0.0598
    2HIS    SC1  810   7.264   0.861   1.262  0.0040  0.3017 -0.0134
    2HIS    SC2  811   7.151   0.784   1.494  0.3670  0.0822  0.0999
    2HIS    SC3  812   6.996   0.834   1.279  0.0451  0.0183  0.3084
    3TYR     BB  813   7.714   1.225   1.184 -0.1297  0.0238  0.0457
    3TYR    SC1  814   8.049   1.194   1.120 -0.0332 -0.1347  0.1201
    3TYR    SC2  815   8.248   1.373   1.154 -0.0601 -0.1651  0.4836
    3TYR    SC3  816   8.202   1.268   0.909 -0.1644  0.4555  0.2127
    1TYR     BB  817   1.341   1.951   1.021 -0.3629  0.1183  0.1167
    1TYR    SC1  818   1.408   2.127   0.806 -0.0757 -0.2490 -0.1098
    1TYR    SC2  819   1.640   2.183   0.679  0.0928  0.2754  0.3728
    1TYR    SC3  820   1.448   2.372   0.699 -0.3169 -0.0916  0.1423
    2HIS     BB  821   1.082   1.880   1.085 -0.3412 -0.1503 -0.0086
    2HIS    SC1  822   1.031   2.048   1.357  0.0922 -0.0699  0.1293
    2HIS    SC2  823   1.016   2.307   1.431 -0.2482 -0.0798  0.1141
    2HIS    SC3  824   0.963   2.112   1.610  0.1347 -0.1498  0.1615
    3TYR     BB  825   0.880   1.785   0.950 -0.4506  0.0815  0.1253
    3TYR    SC1  826   0.567   1.794   0.949 -0.1256  0.0470 -0.3439
    3TYR    SC2  827   0.347   1.836   0.798 -0.3249  0.0782 -0.0549
    3TYR    SC3  828   0.323   1.725   1.043 -0.0196  0.1111 -0.0052
    1TYR     BB  829   7.335   4.708   3.796  0.0658  0.1877 -0.0746
    1TYR    SC1  830   7.186   4.433   3.901 -0.0635  0.0800  0.4761
    1TYR    SC2  831   7.161   4.226   4.073 -0.6093 -0.2234  0.0717
    1TYR    SC3  832   7.114   4.189   3.810  0.2274  0.2136 -0.1849
    2HIS     BB  833   7.636   4.685   3.705  0.1506  0.1166 -0.1632
    2HIS    SC1  834   7.672   4.647   3.387 -0.1963 -0.2317  0.1353
    2HIS    SC2  835   7.625   4.759   3.146  0.1056  0.3839  0.3371
    2HIS    SC3  836   7.821   4.576   3.174 -0.2240 -0.0392  0.0494
    3TYR     BB  837   7.815   4.782   3.827 -0.3966 -0.1241  0.1065
    3TYR    SC1  838   7.896   5.040   3.584 -0.0411 -0.0643  0.1834
    3TYR    SC2  839   7.905   5.291   3.485  0.2706 -0.1735 -0.0874
    3TYR    SC3  840   7.895   5.080   3.317 -0.4722 -0.3474  0.1318
    1TYR     BB  841   6.763   1.045   0.861 -0.0262 -0.0710 -0.3334
    1TYR    SC1  842   7.064   1.170   0.920 -0.1340 -0.2234 -0.1363
    1TYR    SC2  843   7.278   1.332   0.891 -0.1719 -0.1361  0.0559
    1TYR    SC3  844   7.177   1.284   1.137 -0.3232 -0.2428 -0.0253
    2HIS     BB  845   6.686   1.179   0.587  0.0339  0.0199 -0.2287
    2HIS    SC1  846   6.916   1.376   0.513  0.1009  0.1349 -0.0623
    2HIS    SC2  847   7.123   1.538   0.454  0.0449  0.1534 -0.2131
    2HIS    SC3  848   6.870   1.630   0.437  0.0211  0.1179 -0.0720
    3TYR     BB  849   6.604   1.132   0.206 -0.3381 -0.1339  0.2006
    3TYR    SC1  850   6.722   1.343   0.091  0.0329  0.0391  0.0343
    3TYR    SC2  851   6.700   1.597   0.003  0.1584 -0.0251 -0.1913
    3TYR    SC3  852   6.930   1.460  -0.036  0.1709 -0.1027  0.1249
    1TYR     BB  853   2.554   1.151   7.470  0.2634  0.1749  0.2363
    1TYR    SC1  854   2.529   1.387   7.690 -0.0976 -0.1030 -0.0694
    1TYR    SC2  855   2.336   1.528   7.815 -0.0865 -0.4053  0.3146
    1TYR    SC3  856   2.595   1.568   7.879 -0.0230 -0.1312 -0.0679
    2HIS     BB  857   2.239   1.052   7.408 -0.3735 -0.4058  0.1644
    2HIS    SC1  858   2.124   0.800   7.339 -0.0555  0.1292 -0.3315
    2HIS    SC2  859   2.106   0.548   7.246 -0.1683 -0.0689  0.1844
    2HIS    SC3  860   1.883   0.682   7.316 -0.0874  0.0633  0.1930
    3TYR     BB  861   2.114   1.344   7.280 -0.1971  0.1522  0.3103
    3TYR    SC1  862   1.844   1.441   7.243  0.1008 -0.0426 -0.1771
    3TYR    SC2  863   1.690   1.549   7.049 -0.0879  0.0080 -0.0032
    3TYR    SC3  864   1.575   1.429   7.262  0.1167 -0.1166  0.0406
    1TYR     BB  865   0.261   0.571   7.270  0.1604  0.2589  0.0051
    1TYR    SC1  866   0.418   0.710   7.060  0.1840  0.1852  0.3228
    1TYR    SC2  867   0.483   0.909   6.890 -0.0518  0.0362  0.0486
    1TYR    SC3  868   0.650   0.699   6.922  0.1248  0.1978  0.2216
    2HIS     BB  869   0.559   0.467   7.441  0.0876  0.1188 -0.3422
    2HIS    SC1  870   0.772   0.689   7.387  0.0110 -0.1044 -0.0655
    2HIS    SC2  871   0.995   0.807   7.483 -0.0454 -0.1861  0.1729
    2HIS    SC3  872   0.848   0.932   7.294 -0.0296  0.0644  0.3200
    3TYR     BB  873   0.618   0.191   7.515 -0.3670 -0.4470 -0.0981
    3TYR    SC1  874   0.560   0.150   7.811  0.2168  0.2216  0.1260
    3TYR    SC2  875   0.739   0.072   7.998  0.2257 -0.1130 -0.0133
    3TYR    SC3  876   0.485  -0.021   8.005  0.2640 -0.2454 -0.2434
    1TYR     BB  877   2.805   1.724   7.377 -0.3524  0.1242 -0.0124
    1TYR    SC1  878   3.100   1.812   7.454  0.2143 -0.2521  0.3297
    1TYR    SC2  879   3.315   1.963   7.515  0.0834  0.3426 -0.4749
    1TYR    SC3  880   3.348   1.721   7.400  0.3081  0.2900 -0.3083
    2HIS     BB  881   2.829   1.467   7.224  0.1242 -0.1999  0.0564
    2HIS    SC1  882   3.082   1.431   7.115 -0.0024  0.1346 -0.4215
    2HIS    SC2  883   3.345   1.385   7.076 -0.0144 -0.2671 -0.1075
    2HIS    SC3  884   3.175   1.379   6.866  0.1925 -0.2365 -0.2809
    3TYR     BB  885   2.570   1.392   7.059  0.2170  0.1881  0.0846
    3TYR    SC1  886   2.652   1.271   6.848  0.1925 -0.1226  0.2010
    3TYR    SC2  887   2.761   1.076   6.695 -0.0916 -0.0610 -0.0949
    3TYR    SC3  888   2.688   1.310   6.583  0.1954  0.2067  0.2456
    1TYR     BB  889   2.669   0.416   0.262 -0.0971 -0.1345 -0.1434
    1TYR    SC1  890   2.747   0.174   0.188 -0.1050 -0.1682 -0.2420
    1TYR    SC2  891   2.982   0.059   0.121 -0.0793  0.0134 -0.4810
    1TYR    SC3  892   2.759  -0.092   0.143  0.0738 -0.1782 -0.1454
    2HIS     BB  893   2.462   0.224   0.581  0.1992 -0.1422 -0.0191
    2HIS    SC1  894   2.502  -0.110   0.505  0.1115  0.1751  0.0004
    2HIS    SC2  895   2.560  -0.362   0.428 -0.3505  0.0235  0.1111
    2HIS    SC3  896   2.537  -0.303   0.690 -0.1763  0.2028  0.0890
    3TYR     BB  897   2.577   0.228   0.853 -0.1649  0.2821  0.0852
    3TYR    SC1  898   2.591  -0.011   1.047  0.0190 -0.1062  0.2229
    3TYR    SC2  899   2.587  -0.118   1.294 -0.1256 -0.3017  0.1387
    3TYR    SC3  900   2.729  -0.237   1.098  0.3131  0.0641  0.2133
    1TYR     BB  901   0.482   1.429   0.435 -0.0222 -0.0132  0.7798
    1TYR    SC1  902   0.223   1.457   0.550  0.0429  0.2073 -0.1094
    1TYR    SC2  903   0.064   1.483   0.767 -0.2150  0.4292 -0.3156
    1TYR    SC3  904  -0.044   1.487   0.519  0.0591  0.0604 -0.4530
    2HIS     BB  905   0.706   1.633   0.473 -0.0326  0.0244  0.0110
    2HIS    SC1  906   0.688   1.910   0.457  0.1381 -0.0944  0.0721
    2HIS    SC2  907   0.729   2.105   0.275 -0.2885 -0.1335 -0.0789
    2HIS    SC3  908   0.603   2.161   0.508  0.0014 -0.1420  0.0850
    3TYR     BB  909   1.013   1.592   0.536  0.1464 -0.0994  0.1135
    3TYR    SC1  910   1.199   1.822   0.523 -0.0014 -0.0668 -0.2589
    3TYR    SC2  911   1.141   2.077   0.456  0.0365  0.0064 -0.0247
    3TYR    SC3  912   1.356   1.954   0.348 -0.0593  0.0243 -0.2425
    1TYR     BB  913   3.429   2.555   5.645  0.0465  0.0580 -0.2001
    1TYR    SC1  914   3.332   2.384   5.885  0.0861  0.0700 -0.1674
    1TYR    SC2  915   3.224   2.346   6.130 -0.4985  0.2814 -0.3724
    1TYR    SC3  916   3.369   2.150   6.015 -0.3280  0.1286  0.0786
    2HIS     BB  917   3.737   2.641   5.694  0.0461 -0.2460 -0.0161
    2HIS    SC1  918   3.879   2.919   5.631  0.0698 -0.0018  0.2364
    2HIS    SC2  919   3.896   3.095   5.427  0.0594  0.1302  0.3476
    2HIS    SC3  920   4.120   3.010   5.550  0.0908 -0.1713  0.0994
    3TYR     BB  921   3.938   2.469   5.746  0.1495  0.1962  0.0304
    3TYR    SC1  922   4.218   2.579   5.719 -0.0266  0.1207  0.0172
    3TYR    SC2  923   4.464   2.689   5.742  0.0138  0.0575 -0.0994
    3TYR    SC3  924   4.392   2.566   5.513 -0.1050  0.0213 -0.0440
    1TYR     BB  925   6.729   5.814   5.354 -0.2781  0.0535 -0.0335
    1TYR    SC1  926   6.959   5.945   5.181  0.0149 -0.2716 -0.4026
    1TYR    SC2  927   6.978   6.119   4.975  0.4342  0.2911  0.0682
    1TYR    SC3  928   7.156   6.130   5.178  0.0836 -0.2846  0.4432
    2HIS     BB  929   6.982   5.638   5.517 -0.0953 -0.0883 -0.0592
    2HIS    SC1  930   7.177   5.946   5.596  0.0441  0.1089 -0.0792
    2HIS    SC2  931   7.353   6.095   5.736  0.1906  0.1730 -0.3228
    2HIS    SC3  932   7.131   6.209   5.633  0.1334  0.1471 -0.2307
    3TYR     BB  933   7.123   5.395   5.406  0.1525  0.1209 -0.1299
    3TYR    SC1  934   7.103   5.097   5.343  0.1142 -0.0595 -0.0737
    3TYR    SC2  935   7.031   4.849   5.423  0.2772 -0.1199 -0.1107
    3TYR    SC3  936   7.211   4.880   5.224  0.4316  0.0258  0.0470
    1TYR     BB  937   4.797   0.003   1.175 -0.0622  0.1860  0.1282
    1TYR    SC1  938   4.566  -0.107   1.009  0.0818  0.1125 -0.1274
    1TYR    SC2  939   4.334  -0.050   0.883 -0.1606  0.0013  0.2466
    1TYR    SC3  940   4.418  -0.306   0.902  0.0423  0.0479  0.0434
    2HIS     BB  941   4.761   0.186   1.401  0.0016  0.0917  0.0885
    2HIS    SC1  942   4.999   0.211   1.566 -0.0706 -0.1004  0.0450
    2HIS    SC2  943   5.111   0.430   1.678 -0.2051 -0.1171  0.2171
    2HIS    SC3  944   5.241   0.193   1.684 -0.2251 -0.1253  0.3712
    3TYR     BB  945   4.697   0.470   1.355  0.2756 -0.3071 -0.1583
    3TYR    SC1  946   4.570   0.505   1.664  0.2978  0.0435  0.2502
    3TYR    SC2  947   4.380   0.451   1.848  0.0919 -0.0149  0.0270
    3TYR    SC3  948   4.639   0.397   1.902  0.0369 -0.0288  0.2971
    1TYR     BB  949   1.343   1.448   0.130 -0.1771  0.0641 -0.0735
    1TYR    SC1  950   1.206   1.704   0.038 -0.0014 -0.1362 -0.1340
    1TYR    SC2  951   0.945   1.770   0.026 -0.0498 -0.2957 -0.0057
    1TYR    SC3  952   1.132   1.943  -0.062 -0.2078 -0.2544 -0.2739
    2HIS     BB  953   1.327   1.217   0.339  0.1531 -0.1063  0.1724
    2HIS    SC1  954   1.449   1.298   0.640  0.0933  0.0112  0.1473
    2HIS    SC2  955   1.502   1.540   0.746  0.2378 -0.0261  0.1633
    2HIS    SC3  956   1.693   1.349   0.745  0.1233 -0.1419  0.1556
    3TYR     BB  957   1.225   0.959   0.243  0.0150  0.2745  0.2147
    3TYR    SC1  958   1.305   0.705   0.401 -0.0875 -0.0414  0.0001
    3TYR    SC2  959   1.303   0.461   0.517  0.1694  0.0095  0.1190
    3TYR    SC3  960   1.328   0.683   0.669 -0.7914  0.1797  0.1044
    1TYR     BB  961   2.062   7.663   0.707  0.0634  0.1700 -0.3927
    1TYR    SC1  962   2.162   7.506   0.938 -0.2697 -0.1230 -0.0061
    1TYR    SC2  963   2.257   7.302   1.087  0.1217  0.1275  0.1060
    1TYR    SC3  964   2.143   7.516   1.207 -0.1312  0.0569 -0.0004
    2HIS     BB  965   1.801   7.509   0.598  0.1892  0.0807 -0.1574
    2HIS    SC1  966   1.646   7.380   0.851 -0.0613  0.0092 -0.0802
    2HIS    SC2  967   1.701   7.377   1.116 -0.0053  0.2076 -0.0878
    2HIS    SC3  968   1.453   7.314   1.028  0.0022  0.0454  0.0032
    3TYR     BB  969   1.656   7.689   0.389  0.0665  0.0783 -0.0852
    3TYR    SC1  970   1.352   7.613   0.415  0.0339 -0.1315 -0.0397
    3TYR    SC2  971   1.182   7.409   0.363 -0.2844  0.2018 -0.3934
    3TYR    SC3  972   1.249   7.468   0.618 -0.4778 -0.1088 -0.2632
    1TYR     BB  973   7.263   1.592   7.355 -0.3533 -0.0642 -0.1752
    1TYR    SC1  974   7.222   1.795   7.606  0.0023 -0.0875 -0.0441
    1TYR    SC2  975   7.076   1.879   7.817  0.2106  0.2607 -0.0288
    1TYR    SC3  976   7.336   1.813   7.850  0.1352 -0.1034 -0.1041
    2HIS     BB  977   7.569   1.527   7.266 -0.4090 -0.0563  0.1676
    2HIS    SC1  978   7.594   1.251   7.183  0.2159  0.1201  0.2850
    2HIS    SC2  979   7.453   1.093   7.015  0.1204 -0.0031  0.4756
    2HIS    SC3  980   7.712   1.038   7.066  0.2174  0.1685  0.1975
    3TYR     BB  981   7.749   1.795   7.375 -0.0235  0.3179  0.1897
    3TYR    SC1  982   8.009   1.613   7.444  0.0789 -0.2127 -0.0469
    3TYR    SC2  983   8.269   1.559   7.494  0.0419 -0.2168  0.1515
    3TYR    SC3  984   8.076   1.443   7.643 -0.0672 -0.0880  0.1132
    1TYR     BB  985   3.796   3.586   6.961  0.1140  0.2093 -0.3435
    1TYR    SC1  986   3.490   3.707   6.845  0.1044 -0.0207 -0.6800
    1TYR    SC2  987   3.342   3.914   6.754 -0.2466 -0.1041 -0.3335
    1TYR    SC3  988   3.230   3.727   6.914  0.3251  0.0676  0.3323
    2HIS     BB  989   3.723   3.268   7.077  0.1374  0.0648 -0.1145
    2HIS    SC1  990   3.556   3.332   7.299  0.1325  0.2037 -0.0862
    2HIS    SC2  991   3.366   3.411   7.473  0.0410 -0.1471 -0.0162
    2HIS    SC3  992   3.575   3.263   7.559  0.0866 -0.1774 -0.1750
    3TYR     BB  993   3.872   3.032   6.978 -0.0993  0.0105 -0.2004
    3TYR    SC1  994   3.931   2.869   6.748 -0.1063 -0.2978 -0.1267
    3TYR    SC2  995   4.080   2.718   6.581  0.3891  0.2224 -0.1974
    3TYR    SC3  996   3.861   2.846   6.488  0.1354 -0.1922 -0.2051
    1TYR     BB  997   7.363   0.523   7.646 -0.1796  0.1729 -0.1911
    1TYR    SC1  998   7.220   0.801   7.638 -0.0636 -0.0617  0.4110
    1TYR    SC2  999   7.212   1.041   7.515 -0.0540 -0.2312  0.0672
    1TYR    SC3 1000   6.990   0.943   7.633 -0.1061 -0.1328  0.0517
    2HIS     BB 1001   7.300   0.237   7.696 -0.0311  0.0900 -0.1611
    2HIS    SC1 1002   7.500   0.110   7.935  0.2296  0.2399 -0.3339
    2HIS    SC2 1003   7.575  -0.149   7.934 -0.1701  0.1020  0.1423
    2HIS    SC3 1004   7.730   0.036   8.054 -0.0977  0.0048  0.2007
    3TYR     BB 1005   7.127   0.013   7.659 -0.1222  0.2064  0.2208
    3TYR    SC1 1006   6.846   0.096   7.595 -0.1177  0.0622  0.3603
    3TYR    SC2 1007   6.602   0.209   7.626 -0.2417  0.0111 -0.2675
    3TYR    SC3 1008   6.638   0.012   7.444  0.2576 -0.0387 -0.1329
    1TYR     BB 1009   1.779   7.448   3.684 -0.3267  0.2306  0.2241
    1TYR    SC1 1010   1.611   7.431   3.403 -0.0577 -0.1531  0.1584
    1TYR    SC2 1011   1.549   7.668   3.289  0.3225 -0.2014 -0.1735
    1TYR    SC3 1012   1.463   7.438   3.177 -0.3394 -0.2367  0.3335
    2HIS     BB 1013   2.062   7.680   3.611 -0.0161 -0.0773  0.2802
    2HIS    SC1 1014   2.253   7.494   3.468  0.5204  0.2347  0.1535
    2HIS    SC2 1015   2.177   7.263   3.352  0.1313  0.3021  0.2577
    2HIS    SC3 1016   2.362   7.420   3.232 -0.0780  0.2544 -0.1521
    3TYR     BB 1017   1.971   7.990   3.479  0.0297  0.1394  0.1694
    3TYR    SC1 1018   1.673   7.987   3.618  0.2735 -0.5305  0.0210
    3TYR    SC2 1019   1.649   7.981   3.887  0.1670 -0.0863  0.0297
    3TYR    SC3 1020   1.455   7.876   3.732  0.1189 -0.1384  0.1243
    1TYR     BB 1021   2.857   1.043   0.915  0.0694  0.1244 -0.0007
    1TYR    SC1 1022   2.740   0.830   1.132  0.0850 -0.0212  0.4544
    1TYR    SC2 1023   2.617   0.591   1.160  0.1796 -0.1029  0.2070
    1TYR    SC3 1024   2.746   0.701   1.369  0.2660 -0.3430  0.2842
    2HIS     BB 1025   2.643   1.264   0.897  0.1725 -0.1041 -0.3520
    2HIS    SC1 1026   2.404   1.196   0.680 -0.1303  0.4720  0.1360
    2HIS    SC2 1027   2.161   1.097   0.615  0.2855 -0.3986 -0.3079
    2HIS    SC3 1028   2.255   1.317   0.490 -0.2883  0.0349 -0.0359
    3TYR     BB 1029   2.569   1.534   1.164 -0.0814 -0.2822  0.1160
    3TYR    SC1 1030   2.503   1.490   1.433  0.2496  0.2273 -0.0352
    3TYR    SC2 1031   2.358   1.504   1.660  0.0753 -0.3529 -0.0902
    3TYR    SC3 1032   2.626   1.473   1.673  0.1058 -0.0813  0.0226
    1TYR     BB 1033   1.300   0.858   2.250  0.3006 -0.1780  0.2125
    1TYR    SC1 1034   1.090   0.709   2.369 -0.1577 -0.2586 -0.4276
    1TYR    SC2 1035   0.968   0.537   2.538  0.1440 -0.1712 -0.1054
    1TYR    SC3 1036   0.821   0.692   2.373 -0.1613 -0.2704  0.0641
    2HIS     BB 1037   1.563   0.821   2.124  0.0960  0.1117 -0.0486
    2HIS    SC1 1038   1.760   0.976   2.296 -0.2216  0.1369  0.4229
    2HIS    SC2 1039   1.856   1.205   2.190  0.0102 -0.1310  0.0190
    2HIS    SC3 1040   1.904   1.145   2.449  0.1274  0.1735  0.0734
    3TYR     BB 1041   1.608   0.761   1.791  0.2777 -0.0357 -0.1959
    3TYR    SC1 1042   1.816   0.625   1.694  0.0137 -0.1026  0.0580
    3TYR    SC2 1043   2.001   0.439   1.756 -0.1445 -0.1844  0.3030
    3TYR    SC3 1044   1.985   0.534   1.504 -0.0129 -0.4463  0.1903
    1TYR     BB 1045   0.313   5.518   4.044 -0.0604  0.1032 -0.1575
    1TYR    SC1 1046   0.561   5.499   3.849  0.5140  0.2905  0.0045
    1TYR    SC2 1047   0.828   5.486   3.813  0.4419  0.2125 -0.6835
    1TYR    SC3 1048   0.662   5.416   3.612 -0.1194 -0.3841 -0.0769
    2HIS     BB 1049   0.033   5.343   3.947  0.3236  0.0389  0.3882
    2HIS    SC1 1050  -0.076   5.604   3.776 -0.1781 -0.2383 -0.1678
    2HIS    SC2 1051  -0.238   5.753   3.620 -0.1468  0.0302  0.0457
    2HIS    SC3 1052  -0.064   5.874   3.788  0.0637 -0.2531  0.0411
    3TYR     BB 1053  -0.170   5.131   4.038 -0.0651 -0.2020 -0.0964
    3TYR    SC1 1054  -0.076   4.875   4.237  0.0236 -0.3101  0.1850
    3TYR    SC2 1055  -0.084   4.845   4.505 -0.0953 -0.2134  0.1934
    3TYR    SC3 1056   0.042   4.661   4.352 -0.0292 -0.2704  0.3147
    1TYR     BB 1057   3.624   1.789   0.165  0.3130 -0.1473  0.0560
    1TYR    SC1 1058   3.786   2.048   0.261  0.1579 -0.1813  0.1787
    1TYR    SC2 1059   4.025   2.095   0.378  0.0506  0.0396  0.3166
    1TYR    SC3 1060   3.810   2.243   0.446 -0.0936 -0.0564  0.0846
    2HIS     BB 1061   3.378   1.594   0.260 -0.2866 -0.2609 -0.5219
    2HIS    SC1 1062   3.118   1.727   0.239 -0.1574  0.2246  0.0344
    2HIS    SC2 1063   2.931   1.916   0.192  0.0279  0.4525  0.1841
    2HIS    SC3 1064   2.970   1.823   0.443 -0.2544 -0.0024  0.0751
    3TYR     BB 1065   3.341   1.319   0.408  0.0609 -0.0063  0.0616
    3TYR    SC1 1066   3.221   1.468   0.674 -0.0903 -0.4370  0.1630
    3TYR    SC2 1067   3.042   1.604   0.824 -0.1574 -0.3959  0.0473
    3TYR    SC3 1068   3.235   1.459   0.944 -0.0888 -0.2059  0.1736
    1TYR     BB 1069   0.128   0.518   0.104 -0.3400 -0.0508 -0.3149
    1TYR    SC1 1070   0.128   0.228  -0.045  0.0782 -0.3020  0.1443
    1TYR    SC2 1071   0.177  -0.014  -0.156  0.0381 -0.2027 -0.0961
    1TYR    SC3 1072  -0.002   0.154  -0.269 -0.2080 -0.2029  0.2726
    2HIS     BB 1073   0.351   0.482   0.378  0.4476  0.2032  0.0249
    2HIS    SC1 1074   0.253   0.762   0.486  0.2202 -0.0861 -0.2634
    2HIS    SC2 1075   0.337   0.996   0.592  0.1382 -0.1496 -0.0532
    2HIS    SC3 1076   0.133   0.993   0.415  0.1513 -0.0599 -0.0700
    3TYR     BB 1077   0.484   0.387   0.629 -0.1120  0.1528 -0.0304
    3TYR    SC1 1078   0.763   0.238   0.735  0.1571 -0.1069  0.2056
    3TYR    SC2 1079   1.008   0.157   0.658  0.1678 -0.2076  0.3400
    3TYR    SC3 1080   0.876   0.021   0.850 -0.1347 -0.3580  0.0398
    1TYR     BB 1081   2.373   0.302   3.173 -0.0517  0.1630 -0.3734
    1TYR    SC1 1082   2.330   0.577   3.266 -0.1471 -0.2087  0.0834
    1TYR    SC2 1083   2.185   0.788   3.351  0.0942  0.0821 -0.1882
    1TYR    SC3 1084   2.360   0.668   3.518 -0.2384 -0.0911  0.0530
    2HIS     BB 1085   2.260   0.325   2.822 -0.0837  0.3320 -0.1547
    2HIS    SC1 1086   2.488   0.514   2.760  0.0321 -0.3998  0.1148
    2HIS    SC2 1087   2.621   0.697   2.907 -0.4192  0.5520 -0.5296
    2HIS    SC3 1088   2.752   0.554   2.719 -0.0113 -0.0371  0.1421
    3TYR     BB 1089   2.026   0.348   2.721 -0.1836  0.0175 -0.1679
    3TYR    SC1 1090   1.834   0.101   2.679  0.1761  0.0832 -0.0883
    3TYR    SC2 1091   1.709   0.045   2.446 -0.0825  0.0544  0.0531
    3TYR    SC3 1092   1.647  -0.093   2.669  0.0534  0.1830  0.1735
    1TYR     BB 1093   2.118   0.361   1.024  0.2380  0.0755  0.1426
    1TYR    SC1 1094   2.279   0.240   1.260 -0.1299  0.3732  0.0624
    1TYR    SC2 1095   2.260   0.135   1.508  0.0830  0.4494  0.1135
    1TYR    SC3 1096   2.440   0.329   1.457  0.0057  0.4709 -0.0900
    2HIS     BB 1097   1.807   0.242   1.097  0.2745  0.0737  0.1893
    2HIS    SC1 1098   1.799   0.132   1.358 -0.1983 -0.1044 -0.1173
    2HIS    SC2 1099   1.602   0.005   1.490 -0.2584 -0.0874 -0.1898
    2HIS    SC3 1100   1.851   0.010   1.593 -0.3289  0.0264 -0.0177
    3TYR     BB 1101   1.460   0.167   0.906  0.1155 -0.0370 -0.0354
    3TYR    SC1 1102   1.284   0.090   1.103 -0.5023 -0.2001 -0.3659
    3TYR    SC2 1103   1.075   0.145   1.265 -0.1089 -0.0911  0.1396
    3TYR    SC3 1104   1.228  -0.071   1.313 -0.0381 -0.1126 -0.1596
    1TYR     BB 1105   3.018   1.347   7.631  0.0524  0.0280  0.0234
    1TYR    SC1 1106   2.907   1.259   7.910  0.1920 -0.3246  0.1811
    1TYR    SC2 1107   2.837   1.329   8.162 -0.3186 -0.0309 -0.0229
    1TYR    SC3 1108   2.785   1.080   8.072 -0.0301 -0.1737  0.1864
    2HIS     BB 1109   3.240   1.115   7.520 -0.3463 -0.2371  0.1063
    2HIS    SC1 1110   3.088   0.982   7.263 -0.3900 -0.0627  0.1666
    2HIS    SC2 1111   2.888   0.977   7.082  0.0838  0.1001 -0.3980
    2HIS    SC3 1112   3.033   0.754   7.129 -0.1529  0.0077 -0.0593
    3TYR     BB 1113   3.446   0.960   7.638  0.0001 -0.2894 -0.2260
    3TYR    SC1 1114   3.414   0.718   7.870  0.1955  0.0286 -0.0288
    3TYR    SC2 1115   3.441   0.600   8.112 -0.3623 -0.0481  0.0118
    3TYR    SC3 1116   3.418   0.449   7.889 -0.4383  0.0019 -0.0148
    1TYR     BB 1117   1.661   3.464   6.977 -0.0323  0.0561  0.2157
    1TYR    SC1 1118   1.625   3.428   7.276 -0.1741 -0.3225 -0.0859
    1TYR    SC2 1119   1.671   3.345   7.529 -0.1889  0.1399  0.0798
    1TYR    SC3 1120   1.446   3.269   7.401 -0.2119 -0.0479  0.2273
    2HIS     BB 1121   1.954   3.516   6.875 -0.1260 -0.1572  0.0707
    2HIS    SC1 1122   2.002   3.739   6.617 -0.0799  0.3121  0.5085
    2HIS    SC2 1123   1.823   3.843   6.443  0.2126 -0.0019 -0.0143
    2HIS    SC3 1124   2.077   3.936   6.448  0.4558 -0.5715 -0.4302
    3TYR     BB 1125   2.177   3.241   6.847 -0.1299 -0.2212 -0.3757
    3TYR    SC1 1126   2.456   3.188   6.878  0.0515  0.4155  0.3957
    3TYR    SC2 1127   2.654   3.089   6.723 -0.3183  0.0569  0.1247
    3TYR    SC3 1128   2.697   3.133   6.986  0.1078 -0.0284  0.0780
    1TYR     BB 1129   5.783   1.390   6.667 -0.0942  0.0108  0.2150
    1TYR    SC1 1130   5.889   1.628   6.826  0.0488 -0.0172 -0.3284
    1TYR    SC2 1131   5.990   1.876   6.791 -0.3575  0.2625  0.2616
    1TYR    SC3 1132   6.095   1.713   6.979  0.2051 -0.2316 -0.4137
    2HIS     BB 1133   5.521   1.277   6.732 -0.2279  0.2442 -0.1928
    2HIS    SC1 1134   5.430   0.966   6.600 -0.1015  0.0323 -0.2213
    2HIS    SC2 1135   5.298   0.761   6.484  0.0118  0.0475 -0.3796
    2HIS    SC3 1136   5.568   0.759   6.495  0.0027  0.0131 -0.0512
    3TYR     BB 1137   5.315   1.410   6.861  0.0042 -0.2133 -0.1082
    3TYR    SC1 1138   5.399   1.727   6.809  0.0109 -0.0088 -0.2520
    3TYR    SC2 1139   5.439   1.994   6.823 -0.1656  0.0270 -0.3908
    3TYR    SC3 1140   5.542   1.853   6.618 -0.0853 -0.0105 -0.3255
    1TYR     BB 1141   6.517   0.310   7.059 -0.0377  0.1781 -0.1511
    1TYR    SC1 1142   6.807   0.434   7.173  0.3392  0.1787 -0.2901
    1TYR    SC2 1143   6.943   0.458   7.406 -0.1463 -0.0811  0.0420
    1TYR    SC3 1144   6.930   0.667   7.234  0.2787  0.0943  0.2062
    2HIS     BB 1145   6.290   0.449   7.293 -0.1043  0.0392  0.0583
    2HIS    SC1 1146   6.198   0.255   7.493  0.0322 -0.0291  0.0258
    2HIS    SC2 1147   6.208   0.001   7.586  0.1903 -0.0893 -0.1488
    2HIS    SC3 1148   5.990   0.153   7.632 -0.0489 -0.3686 -0.3231
    3TYR     BB 1149   6.195   0.690   7.228  0.0277 -0.4265 -0.0583
    3TYR    SC1 1150   6.458   0.817   7.010 -0.2261 -0.0775 -0.2578
    3TYR    SC2 1151   6.655   0.987   6.937 -0.1757 -0.0791 -0.1298
    3TYR    SC3 1152   6.652   0.734   6.841 -0.2243 -0.0217 -0.2834
    1TYR     BB 1153   7.321   5.480   4.850 -0.0960 -0.1519 -0.1041
    1TYR    SC1 1154   7.477   5.258   4.929  0.1626  0.2091  0.2028
    1TYR    SC2 1155   7.627   5.034   4.915 -0.1010  0.0302  0.1245
    1TYR    SC3 1156   7.568   5.142   5.155  0.1700  0.1205  0.1550
    2HIS     BB 1157   7.417   5.765   4.787  0.1301  0.3057  0.0361
    2HIS    SC1 1158   7.536   5.842   5.066 -0.3567  0.2040  0.1885
    2HIS    SC2 1159   7.528   5.897   5.330 -0.0322 -0.0954  0.2701
    2HIS    SC3 1160   7.576   5.645   5.246  0.5743  0.1046 -0.0607
    3TYR     BB 1161   7.359   5.971   4.561 -0.1175  0.0943  0.0930
    3TYR    SC1 1162   7.373   6.274   4.720 -0.1235  0.1786 -0.2283
    3TYR    SC2 1163   7.393   6.531   4.641 -0.2355  0.2310 -0.0926
    3TYR    SC3 1164   7.243   6.468   4.856 -0.1858  0.0547 -0.1078
    1TYR     BB 1165   3.375   3.026   5.441  0.1621 -0.0293  0.2605
    1TYR    SC1 1166   3.520   3.220   5.595 -0.0849  0.2339 -0.1641
    1TYR    SC2 1167   3.458   3.415   5.771 -0.1861  0.0546  0.0039
    1TYR    SC3 1168   3.642   3.461   5.578  0.0368  0.2096  0.2443
    2HIS     BB 1169   3.098   2.959   5.580 -0.0536 -0.0932  0.3002
    2HIS    SC1 1170   2.990   2.716   5.424  0.5192 -0.0989 -0.2692
    2HIS    SC2 1171   2.846   2.621   5.216 -0.1273  0.0855  0.0625
    2HIS    SC3 1172   2.858   2.482   5.447 -0.2732  0.3425  0.2312
    3TYR     BB 1173   3.079   2.957   5.836  0.0348 -0.1147 -0.3878
    3TYR    SC1 1174   2.968   2.702   5.932  0.2587 -0.0711  0.0191
    3TYR    SC2 1175   2.796   2.600   6.113  0.0638  0.0527 -0.0915
    3TYR    SC3 1176   2.862   2.457   5.893 -0.0233  0.0673 -0.1278
    1TYR     BB 1177   1.910   2.984   7.238 -0.1432 -0.0934 -0.1502
    1TYR    SC1 1178   1.681   2.893   7.465 -0.2881  0.3297  0.2595
    1TYR    SC2 1179   1.450   2.786   7.555 -0.2528  0.1194  0.1091
    1TYR    SC3 1180   1.648   2.845   7.729 -0.2362 -0.1539  0.1887
    2HIS     BB 1181   1.778   2.998   6.954  0.1151 -0.0396  0.0993
    2HIS    SC1 1182   1.466   3.008   6.969  0.0239 -0.1728 -0.0944
    2HIS    SC2 1183   1.223   2.988   6.852 -0.0176  0.2693 -0.1051
    2HIS    SC3 1184   1.255   2.915   7.110 -0.1210  0.0637 -0.1480
    3TYR     BB 1185   1.840   2.912   6.676 -0.0942 -0.1157  0.0003
    3TYR    SC1 1186   1.653   2.758   6.548  0.2209 -0.1387 -0.2769
    3TYR    SC2 1187   1.387   2.734   6.507  0.1122  0.0419  0.2358
    3TYR    SC3 1188   1.553   2.534   6.433 -0.1893 -0.1738  0.1138
    1TYR     BB 1189   3.325   1.015   1.140 -0.1578  0.1838  0.0414
    1TYR    SC1 1190   3.114   1.163   1.325 -0.2329 -0.1616 -0.0466
    1TYR    SC2 1191   2.885   1.150   1.468 -0.1236 -0.1223  0.1360
    1TYR    SC3 1192   2.981   1.389   1.388 -0.2026 -0.1467 -0.0361
    2HIS     BB 1193   3.224   0.723   1.198  0.2144  0.2116  0.0176
    2HIS    SC1 1194   3.168   0.723   1.484  0.2178 -0.1739 -0.0102
    2HIS    SC2 1195   3.128   0.848   1.720 -0.2999 -0.1682 -0.0861
    2HIS    SC3 1196   3.055   0.590   1.691 -0.2781 -0.1571 -0.2508
    3TYR     BB 1197   3.115   0.553   0.971  0.2886 -0.1622  0.1081
    3TYR    SC1 1198   3.108   0.704   0.720  0.0450  0.1271 -0.1615
    3TYR    SC2 1199   3.159   0.885   0.527  0.0265 -0.0584 -0.3455
    3TYR    SC3 1200   3.043   0.650   0.463 -0.0672 -0.0848 -0.0918
    4W        W 1201   4.094   2.671   3.737  0.0119 -0.0887  0.3457
    5W        W 1202   4.003   4.481   1.182  0.0231 -0.1394  0.0442
    6W        W 1203   0.959   3.325   7.118 -0.1245 -0.0050 -0.0680
    7W        W 1204   1.097   5.985   6.542  0.2076  0.1167  0.1980
    8W        W 1205   4.359   6.881   2.768  0.1277 -0.1036  0.0487
    9W        W 1206   0.502   1.831   7.062 -0.3535 -0.0531 -0.0979
   10W        W 1207   1.940   5.433   0.458  0.2924 -0.0297  0.0882
   11W        W 1208   0.326   5.542   6.440  0.3829  0.3039  0.3639
   12W        W 1209   0.692   2.004   6.328 -0.0394 -0.2588 -0.0104
   13W        W 1210   4.469   3.610   2.032  0.1775  0.2301  0.2504
   14W        W 1211   7.489   1.499   5.230  0.0452 -0.0098  0.1580
   15W        W 1212   6.177   5.153   5.819 -0.2789  0.2274 -0.1818
   16W        W 1213   0.151   3.404   0.945 -0.1299 -0.1795 -0.0619
   17W        W 1214   1.505   2.079   2.792  0.2145 -0.0712 -0.3242
   18W        W 1215   4.944   3.861   4.554  0.1808  0.0307 -0.0199
   19W        W 1216   3.931   6.659   3.438 -0.1056  0.1130  0.0051
   20W        W 1217   4.707   6.475   4.185 -0.0139 -0.0958 -0.0324
   21W        W 1218   0.380   2.938   5.639  0.0546  0.0891  0.0415
   22W        W 1219   4.148   0.797   3.586  0.0986 -0.1401  0.2298
   23W        W 1220   7.642   6.353   1.462  0.2223  0.1776  0.3097
   24W        W 1221   6.726   7.192   6.726 -0.0250 -0.1265 -0.3873
   25W        W 1222   0.194   4.669   0.660 -0.5537 -0.0864 -0.0226
   26W        W 1223   6.666   0.129   4.036 -0.2102 -0.1913  0.0936
   27W        W 1224   5.080   0.737   4.393 -0.2382  0.2118 -0.1800
   28W        W 1225   5.850   1.260   5.146 -0.0286 -0.1374 -0.0678
   29W        W 1226   2.017   7.585   4.695  0.2162 -0.0557 -0.1035
   30W        W 1227   0.540   5.748   2.069 -0.0705 -0.1667 -0.0561
   31W        W 1228   3.045   5.171   0.965  0.0141  0.0080  0.3548
   32W        W 1229   0.949   7.212   1.060  0.1185  0.1109 -0.2954
   33W        W 1230   3.935   5.851   0.290 -0.0706  0.0525  0.1705
   34W        W 1231   1.059   4.284   2.764 -0.0608 -0.1929 -0.1405
   35W        W 1232   2.376   3.698   4.531 -0.1484 -0.1690 -0.2043
   36W        W 1233   4.875   5.462   3.383  0.0651  0.0286 -0.1928
   37W        W 1234   3.860   4.831   2.101  0.0510 -0.1928 -0.0206
   38W        W 1235   0.451   3.641   5.206  0.1634  0.1319 -0.1956
   39W        W 1236   0.390   2.861   1.691 -0.1815 -0.1722  0.2271
   40W        W 1237   1.045   4.570   4.976 -0.2018  0.1817  0.0141
   41W        W 1238   5.418   4.459   0.366  0.1021  0.0415 -0.1843
   42W        W 1239   4.911   6.293   1.686  0.1930 -0.2697 -0.2634
   43W        W 1240   7.192   6.387   2.216  0.3259 -0.1111 -0.0736
   44W        W 1241   3.995   5.900   4.026 -0.2291 -0.3701 -0.3710
   45W        W 1242   2.808   5.778   3.514  0.0358 -0.2458  0.0381
   46W        W 1243   1.499   7.663   7.611  0.1030  0.1553  0.1453
   47W        W 1244   5.114   1.819   3.613 -0.1382  0.2829  0.0046
   48W        W 1245   0.275   1.514   3.638  0.1796 -0.1511 -0.1576
   49W        W 1246   6.297   0.317   3.686  0.0146  0.2466 -0.1254
   50W        W 1247   1.182   2.876   2.214 -0.2003  0.2810  0.0136
   51W        W 1248   0.965   4.795   2.808 -0.1067  0.1323 -0.0505
   52W        W 1249   4.597   1.963   4.088  0.3010  0.0472  0.0095
   53W        W 1250   7.336   7.662   0.773 -0.3053  0.1711  0.4433
   54W        W 1251   7.599   6.644   6.664 -0.1750 -0.0683  0.2361
   55W        W 1252   2.087   3.117   5.299 -0.0851 -0.0137  0.0342
   56W        W 1253   5.121   4.441   4.958  0.0370 -0.3922 -0.0387
   57W        W 1254   3.026   2.159   0.874 -0.1361 -0.2261  0.1857
   58W        W 1255   2.422   0.256   3.856 -0.4008 -0.1558 -0.2674
   59W        W 1256   0.859   4.713   6.768 -0.3637  0.2270 -0.0052
   60W        W 1257   0.424   6.695   6.929 -0.0569  0.2246 -0.2905
   61W        W 1258   7.117   3.780   5.379  0.0842 -0.1278 -0.5361
   62W        W 1259   1.921   4.350   1.103 -0.1494 -0.1295 -0.1814
   63W        W 1260   6.790   4.923   6.964  0.2415  0.2099  0.1260
   64W        W 1261   4.821   3.339   2.302 -0.1217  0.0867  0.0123
   65W        W 1262   5.339   1.246   3.288 -0.2705 -0.0230 -0.1538
   66W        W 1263   4.489   2.162   2.164  0.0295 -0.4219  0.1221
   67W        W 1264   3.067   3.264   0.169  0.0283 -0.4789 -0.0130
   68W        W 1265   6.854   4.556   1.570 -0.0031  0.1650  0.2831
   69W        W 1266   0.321   3.961   1.866  0.0300 -0.0389  0.4363
   70W        W 1267   0.131   6.544   5.050 -0.0646  0.1977 -0.0550
   71W        W 1268   0.067   5.843   2.748  0.1656  0.1634 -0.0252
   72W        W 1269   6.069   5.487   2.662 -0.0484 -0.0494 -0.2554
   73W        W 1270   1.882   5.584   5.544 -0.1758  0.0284 -0.1271
   74W        W 1271   2.527   3.004   0.735  0.0582 -0.1210 -0.0968
   75W        W 1272   4.854   5.098   5.218 -0.0153  0.0093  0.2158
   76W        W 1273   2.317   0.389   5.172 -0.1907 -0.1412  0.0350
   77W        W 1274   2.353   6.146   4.371 -0.2315  0.0759 -0.2681
   78W        W 1275   6.672   6.886   7.617  0.2180  0.1969 -0.0962
   79W        W 1276   4.400   5.090   4.526 -0.0158  0.0090 -0.0406
   80W        W 1277   4.913   6.653   5.503 -0.0383  0.0384 -0.0221
   81W        W 1278   1.175   3.098   6.179 -0.1510 -0.1126  0.1671
   82W        W 1279   1.870   6.349   2.108 -0.0534 -0.1094 -0.1184
   83W        W 1280   5.869   3.057   3.190 -0.0172 -0.3613 -0.0850
   84W        W 1281   5.790   6.692   1.220  0.4915  0.2055  0.1534
   85W        W 1282   3.114   6.317   0.008  0.0026 -0.0696 -0.1412
   86W        W 1283   2.677   6.631   4.370 -0.1463 -0.4880 -0.0215
   87W        W 1284   4.295   2.226   2.684 -0.0770 -0.2142  0.0431
   88W        W 1285   4.937   4.541   2.960  0.1541 -0.1687  0.0705
   89W        W 1286   2.804   6.233   4.797  0.0844  0.0440 -0.0125
   90W        W 1287   6.022   7.238   6.115 -0.0864  0.0792 -0.1719
   91W        W 1288   1.584   3.097   2.556 -0.4239 -0.0193  0.1970
   92W        W 1289   2.721   6.563   2.827 -0.2103 -0.2899 -0.0498
   93W        W 1290   4.974   5.957   4.802  0.1005 -0.1550 -0.1566
   94W        W 1291   5.541   3.841   0.974  0.2086  0.0420  0.0357
   95W        W 1292   4.066   0.581   2.176 -0.3114  0.1464 -0.1708
   96W        W 1293   0.588   2.208   1.166  0.2507  0.1937  0.0724
   97W        W 1294   4.880   3.108   0.871 -0.0094 -0.2200 -0.1777
   98W        W 1295   5.732   3.483   7.497  0.1458  0.0056 -0.1395
   99W        W 1296   2.387   2.656   0.448 -0.1323  0.2204 -0.1876
  100W        W 1297   4.566   5.880   5.831 -0.1429 -0.0276  0.4686
  101W        W 1298   4.718   5.562   7.390  0.0530  0.0706  0.0549
  102W        W 1299   4.555   3.440   4.484 -0.1897  0.1123  0.0165
  103W        W 1300   4.036   0.056   6.548 -0.1457 -0.2344  0.0354
  104W        W 1301   0.330   0.556   3.532  0.1982  0.4034 -0.0897
  105W        W 1302   1.576   7.165   1.540 -0.1237  0.0972  0.0025
  106W        W 1303   4.898   6.713   6.940 -0.0793 -0.1876  0.0283
  107W        W 1304   4.588   5.654   1.238  0.1814 -0.1886 -0.2134
  108W        W 1305   5.871   2.627   0.234 -0.1039 -0.0601 -0.1703
  109W        W 1306   0.597   1.302   2.442  0.3515  0.1504  0.0922
  110W        W 1307   0.494   6.568   2.557  0.4256  0.0163  0.1222
  111W        W 1308   4.972   2.780   0.526  0.0038  0.3452 -0.1705
  112W        W 1309   0.020   0.370   6.873  0.4054  0.1734 -0.0243
  113W        W 1310   3.884   6.399   0.563 -0.2112 -0.1811 -0.0804
  114W        W 1311   1.326   0.282   4.933 -0.2956  0.0319  0.2115
  115W        W 1312   3.466   0.464   7.150  0.1343  0.0120  0.0495
  116W        W 1313   3.749   6.436   5.590  0.0342  0.2081 -0.2640
  117W        W 1314   7.487   6.960   2.925  0.1045 -0.2119  0.1695
  118W        W 1315   2.181   1.367   2.840  0.1605 -0.1030 -0.0500
  119W        W 1316   3.512   5.121   6.647  0.2863 -0.1583 -0.3376
  120W        W 1317   3.727   6.220   4.357  0.0102 -0.1785  0.2145
  121W        W 1318   2.929   4.238   5.462 -0.1949  0.3077  0.0562
  122W        W 1319   3.934   7.620   4.369  0.0690  0.3928 -0.0230
  123W        W 1320   4.942   0.074   2.657  0.1224 -0.1106  0.1122
  124W        W 1321   1.385   6.545   2.838  0.0466 -0.0311 -0.2495
  125W        W 1322   0.656   1.719   4.388  0.0564  0.0686 -0.1219
  126W        W 1323   0.093   0.015   4.902  0.0326  0.1291 -0.0048
  127W        W 1324   1.151   4.061   1.513 -0.0057  0.1576  0.1167
  128W        W 1325   5.061   5.183   7.652  0.2975  0.0286 -0.0508
  129W        W 1326   5.997   4.387   6.348  0.1431 -0.0226  0.1761
  130W        W 1327   5.419   6.019   1.358 -0.1886 -0.0871 -0.0871
  131W        W 1328   3.082   1.154   3.786  0.0032 -0.1206 -0.1721
  132W        W 1329   4.355   3.974   1.704 -0.0167  0.0224 -0.1844
  133W        W 1330   1.364   6.833   1.208 -0.0741 -0.1843  0.2709
  134W        W 1331   1.518   2.835   3.006 -0.0224  0.0404 -0.1633
  135W        W 1332   0.215   3.216   6.736 -0.0349 -0.0577 -0.2699
  136W        W 1333   1.614   3.141   4.531  0.1250  0.3363  0.1148
  137W        W 1334   2.604   3.567   3.112 -0.0614  0.0879 -0.0190
  138W        W 1335   2.773   3.796   4.842  0.0642 -0.2197  0.2435
  139W        W 1336   6.547   7.658   1.340  0.0390 -0.0238 -0.0471
  140W        W 1337   7.328   2.975   3.884 -0.1926  0.0509 -0.2124
  141W        W 1338   5.907   6.453   4.333  0.1570  0.1807  0.1218
  142W        W 1339   7.317   5.256   0.385  0.2834 -0.1661  0.0974
  143W        W 1340   1.519   7.074   2.802  0.0705  0.1788 -0.1076
  144W        W 1341   0.550   6.070   2.809  0.3412 -0.0447 -0.0217
  145W        W 1342   1.360   3.432   4.182  0.1832  0.2726 -0.4286
  146W        W 1343   5.315   1.446   5.359  0.0755 -0.1097 -0.1022
  147W        W 1344   1.229   5.401   4.728 -0.0829 -0.0921 -0.2672
  148W        W 1345   3.456   1.930   0.655 -0.2790  0.3051  0.0198
  149W        W 1346   3.152   0.364   4.308  0.2154  0.2379 -0.0583
  150W        W 1347   0.476   5.713   0.125 -0.2302 -0.3562  0.0709
  151W        W 1348   5.724   6.221   3.276  0.0245 -0.1532  0.1929
  152W        W 1349   3.526   5.183   6.185  0.1488  0.1571  0.3858
  153W        W 1350   4.760   0.322   5.834 -0.0961  0.0094  0.1010
  154W        W 1351   3.038   6.310   1.370  0.0474  0.0628 -0.1373
  155W        W 1352   1.993   2.868   4.822  0.0287 -0.0586  0.1303
  156W        W 1353   2.276   7.403   6.379  0.1046  0.0091 -0.0478
  157W        W 1354   0.726   7.435   7.219  0.1129 -0.2842  0.2532
  158W        W 1355   0.344   0.978   5.765 -0.0996 -0.2668 -0.1359
  159W        W 1356   4.356   4.644   6.209 -0.2268 -0.1521 -0.4175
  160W        W 1357   3.927   6.243   1.112 -0.1569 -0.0272  0.1111
  161W        W 1358   5.874   2.997   7.458  0.1409 -0.1471 -0.1242
  162W        W 1359   2.137   1.657   2.399 -0.0217 -0.1439 -0.1328
  163W        W 1360   1.752   6.903   0.881  0.0321  0.0609  0.1849
  164W        W 1361   4.660   7.371   4.944 -0.1795  0.0212  0.0448
  165W        W 1362   0.644   7.636   2.835  0.0321  0.1006 -0.2512
  166W        W 1363   7.601   3.713   5.218 -0.2500  0.0885  0.0088
  167W        W 1364   0.230   1.280   6.546 -0.0363 -0.2234  0.1191
  168W        W 1365   4.174   4.458   1.834 -0.1209  0.0365  0.2043
  169W        W 1366   3.557   0.167   4.623  0.1009 -0.0480  0.2154
  170W        W 1367   6.453   3.999   2.572  0.0372 -0.2307 -0.0324
  171W        W 1368   2.090   6.942   7.055  0.4888  0.1237 -0.4649
  172W        W 1369   6.414   6.797   5.001  0.1883  0.6485  0.4304
  173W        W 1370   2.928   5.903   6.511 -0.3600  0.4331  0.0680
  174W        W 1371   1.370   3.941   6.603 -0.1048  0.0457  0.2159
  175W        W 1372   6.396   1.782   2.582  0.1896  0.1632 -0.0368
  176W        W 1373   4.734   5.709   2.977  0.2092 -0.1875  0.4692
  177W        W 1374   3.803   2.769   0.340  0.0554 -0.4047 -0.0012
  178W        W 1375   6.748   6.538   3.946 -0.2164 -0.2411  0.0420
  179W        W 1376   6.394   1.991   1.619 -0.0453 -0.0396 -0.0328
  180W        W 1377   4.621   6.993   4.098  0.0991  0.2717 -0.3152
  181W        W 1378   6.796   4.330   3.032 -0.1469  0.1161 -0.0395
  182W        W 1379   4.134   3.553   5.427 -0.0167  0.0446  0.2447
  183W        W 1380   0.302   6.376   6.375 -0.0947 -0.1831 -0.2917
  184W        W 1381   4.526   1.805   0.302 -0.0295  0.1006 -0.2077
  185W        W 1382   5.403   7.655   6.974 -0.3709 -0.0044 -0.0338
  186W        W 1383   3.617   4.657   4.401  0.4575  0.2215 -0.0606
  187W        W 1384   3.050   3.120   0.782  0.2112  0.1067  0.1893
  188W        W 1385   3.862   4.163   5.413  0.0695  0.2934 -0.4707
  189W        W 1386   5.275   7.158   6.127 -0.1925  0.3084 -0.0277
  190W        W 1387   7.125   2.241   1.405 -0.1196 -0.0008  0.1883
  191W        W 1388   4.982   4.729   0.190 -0.0215  0.1540  0.1285
  192W        W 1389   6.891   1.518   2.538  0.0743  0.3532 -0.2288
  193W        W 1390   6.915   7.671   1.702  0.0233  0.0738 -0.0608
  194W        W 1391   4.021   4.608   5.397 -0.1653 -0.0241 -0.3404
  195W        W 1392   1.368   7.160   7.444  0.2022 -0.1954  0.2187
  196W        W 1393   4.117   3.561   3.710 -0.1768  0.1123  0.2176
  197W        W 1394   6.377   0.571   4.825  0.0573  0.2448  0.1982
  198W        W 1395   6.663   3.922   1.268 -0.0611  0.3653 -0.0360
  199W        W 1396   6.680   0.762   5.395 -0.1969 -0.2724 -0.3027
  200W        W 1397   2.999   7.640   1.813 -0.3991  0.2343  0.2802
  201W        W 1398   3.499   6.099   0.161  0.1672  0.2873 -0.0536
  202W        W 1399   6.433   5.974   2.761 -0.2605 -0.1885 -0.0903
  203W        W 1400   5.513   2.894   2.269  0.1754  0.1118 -0.1290
  204W        W 1401   4.872   2.651   5.174 -0.1966 -0.1168 -0.2283
  205W        W 1402   0.922   4.357   1.094 -0.1562 -0.0167  0.2464
  206W        W 1403   5.117   1.771   1.995 -0.0065 -0.1699 -0.0107
  207W        W 1404   2.644   5.970   1.690 -0.3385  0.0007 -0.2901
  208W        W 1405   1.996   4.961   5.830  0.1963  0.1103 -0.1683
  209W        W 1406   1.189   5.064   5.292  0.2157 -0.0680  0.2432
  210W        W 1407   1.745   3.789   0.242  0.4398  0.1305  0.0680
  211W        W 1408   6.670   4.631   5.224  0.1906 -0.0250 -0.4636
  212W        W 1409   1.455   3.446   1.031  0.1662 -0.0085 -0.0228
  213W        W 1410   4.293   2.277   4.946  0.0210  0.1729  0.1956
  214W        W 1411   2.469   4.851   5.489 -0.1561  0.5012 -0.0036
  215W        W 1412   4.052   5.989   6.135 -0.0519  0.0883 -0.0816
  216W        W 1413   1.561   4.918   1.237  0.0673 -0.1163  0.2090
  217W        W 1414   0.193   1.143   5.271  0.1204  0.2709  0.0482
  218W        W 1415   3.993   7.223   2.618  0.0447  0.3959 -0.1295
  219W        W 1416   2.751   3.238   4.443  0.1040 -0.0023  0.1895
  220W        W 1417   4.773   1.634   6.053 -0.0343 -0.2836  0.1295
  221W        W 1418   5.673   3.911   3.239 -0.1927 -0.0498  0.3155
  222W        W 1419   6.636   1.284   6.243 -0.0132  0.0556 -0.0148
  223W        W 1420   0.265   0.218   2.127  0.2257 -0.2026 -0.0095
  224W        W 1421   6.328   2.916   1.801  0.2909  0.1111 -0.2121
  225W        W 1422   6.143   3.662   5.766 -0.2348 -0.0194  0.0657
  226W        W 1423   3.095   2.043   5.534 -0.1149 -0.0856  0.4490
  227W        W 1424   5.572   6.802   0.757 -0.0295 -0.2822  0.1178
  228W        W 1425   7.545   0.346   3.396  0.1385  0.1779  0.2606
  229W        W 1426   0.112   2.121   6.837  0.0687  0.1768 -0.1132
  230W        W 1427   5.158   3.006   2.564  0.2943 -0.1740 -0.3352
  231W        W 1428   6.552   0.378   1.665  0.1622  0.0483  0.1070
  232W        W 1429   5.355   2.481   6.903  0.1269  0.2721 -0.2408
  233W        W 1430   6.621   5.467   5.868  0.0567 -0.2163  0.2025
  234W        W 1431   5.191   3.245   0.465 -0.0456  0.0167 -0.1603
  235W        W 1432   1.585   6.699   7.189 -0.0512 -0.1291  0.0681
  236W        W 1433   5.153   2.081   2.694 -0.1769  0.3551  0.1706
  237W        W 1434   6.682   5.880   3.178 -0.3482 -0.2751  0.0340
  238W        W 1435   4.134   0.849   4.881 -0.0311 -0.2535  0.1081
  239W        W 1436   2.149   6.233   3.494  0.3587 -0.1189  0.1447
  240W        W 1437   7.449   6.870   5.055 -0.0229 -0.0286  0.0974
  241W        W 1438   2.977   0.209   6.301  0.4416 -0.3779 -0.0601
  242W        W 1439   4.960   6.603   7.461  0.2364 -0.1730 -0.0285
  243W        W 1440   2.671   6.484   0.909 -0.0380  0.1987 -0.3158
  244W        W 1441   5.029   5.448   4.926  0.2951  0.0107 -0.0688
  245W        W 1442   0.038   0.530   5.853 -0.1264 -0.0573 -0.0894
  246W        W 1443   2.718   4.804   2.206  0.1801  0.1278  0.0690
  247W        W 1444   5.252   6.950   4.391  0.0027  0.1999 -0.2221
  248W        W 1445   6.985   7.360   7.301 -0.0185 -0.2115 -0.0063
  249W        W 1446   3.172   7.516   4.235 -0.2554 -0.1662 -0.1067
  250W        W 1447   0.725   0.058   5.669  0.1572 -0.1671  0.1389
  251W        W 1448   4.408   1.556   1.617  0.2882 -0.1959  0.1431
  252W        W 1449   0.421   1.959   4.735  0.1540  0.2841 -0.1175
  253W        W 1450   1.963   6.918   2.895  0.1122 -0.0936  0.0617
  254W        W 1451   4.473   1.622   2.093 -0.1814 -0.2477  0.2021
  255W        W 1452   2.753   3.772   5.356  0.2405  0.0952  0.2548
  256W        W 1453   6.089   0.839   4.219  0.1018 -0.0374 -0.0184
  257W        W 1454   2.798   7.179   5.050  0.2465  0.0924 -0.1492
  258W        W 1455   7.585   4.525   7.082 -0.2089 -0.2948  0.1158
  259W        W 1456   0.079   2.325   3.929 -0.2351 -0.0951 -0.2488
  260W        W 1457   1.549   6.101   4.020  0.0203  0.0370 -0.1599
  261W        W 1458   6.335   2.184   7.151  0.0036 -0.1255  0.2062
  262W        W 1459   0.151   3.338   0.147 -0.3369 -0.0041  0.0829
  263W        W 1460   1.213   2.100   6.433 -0.3095 -0.1069 -0.0564
  264W        W 1461   2.909   1.599   5.237  0.3580  0.2071  0.2632
  265W        W 1462   0.095   4.749   6.083 -0.2692  0.0042 -0.2508
  266W        W 1463   1.511   1.198   2.763 -0.0276  0.3615 -0.0979
  267W        W 1464   6.549   5.257   0.909 -0.0885  0.1956 -0.0902
  268W        W 1465   7.148   1.343   4.796 -0.1614  0.1338 -0.1150
  269W        W 1466   3.062   5.033   0.289  0.1627 -0.0541  0.3393
  270W        W 1467   1.549   6.758   5.216  0.0186 -0.1390  0.0545
  271W        W 1468   3.049   4.964   5.698 -0.2319  0.0926  0.0151
  272W        W 1469   3.393   6.963   3.937 -0.0327  0.3086 -0.0190
  273W        W 1470   5.030   0.379   2.275  0.1357 -0.1905  0.1117
  274W        W 1471   4.084   2.454   0.034 -0.0999 -0.0511 -0.0725
  275W        W 1472   6.354   4.521   1.645  0.0350 -0.0981 -0.1366
  276W        W 1473   6.004   3.433   4.881  0.1664  0.0597  0.0681
  277W        W 1474   6.389   3.670   6.173 -0.3471  0.0207 -0.2753
  278W        W 1475   0.668   6.558   4.209  0.0366 -0.0372  0.0602
  279W        W 1476   4.267   7.310   6.536 -0.1514 -0.3481  0.1863
  280W        W 1477   4.330   7.274   0.383 -0.1466  0.1552  0.0632
  281W        W 1478   5.136   0.385   6.249  0.2007 -0.2690 -0.1061
  282W        W 1479   5.354   1.850   4.043  0.1959  0.1144 -0.0312
  283W        W 1480   0.878   1.565   6.276 -0.1719 -0.0785  0.3082
  284W        W 1481   6.083   1.792   4.844 -0.0131 -0.3186 -0.0405
  285W        W 1482   4.329   3.191   2.229 -0.1512  0.1049 -0.0045
  286W        W 1483   6.604   2.252   2.507 -0.2198  0.0247  0.1054
  287W        W 1484   1.285   6.313   2.153 -0.0339  0.0498 -0.2521
  288W        W 1485   0.901   3.619   1.618  0.0385  0.0376  0.1181
  289W        W 1486   1.037   0.032   2.482 -0.1744 -0.2283 -0.1969
  290W        W 1487   0.601   3.052   1.029  0.0022  0.0281  0.2229
  291W        W 1488   5.916   2.636   4.371 -0.2111  0.0695  0.3101
  292W        W 1489   7.458   3.656   0.158  0.1502  0.2837  0.2038
  293W        W 1490   4.322   5.507   6.396  0.2632  0.0796 -0.0363
  294W        W 1491   7.167   2.895   0.067 -0.1559  0.1042  0.0821
  295W        W 1492   1.619   5.096   1.730  0.2285 -0.2855 -0.0672
  296W        W 1493   3.011   1.794   2.731  0.0228 -0.2517  0.2565
  297W        W 1494   0.834   6.701   0.671  0.0508  0.3278  0.0114
  298W        W 1495   1.699   2.369   3.294 -0.1058 -0.2570 -0.0836
  299W        W 1496   4.758   6.032   2.573 -0.2845  0.1170  0.0290
  300W        W 1497   0.867   3.643   3.391  0.0641  0.1921 -0.1049
  301W        W 1498   1.872   6.238   0.764  0.1605 -0.2342 -0.0793
  302W        W 1499   5.845   1.165   1.806  0.2211 -0.0247  0.0922
  303W        W 1500   5.008   3.293   2.992 -0.0148 -0.0126 -0.4224
  304W        W 1501   7.263   5.612   2.048  0.2992 -0.0705  0.0564
  305W        W 1502   6.526   0.834   5.897 -0.2507  0.1016 -0.3440
  306W        W 1503   7.233   2.824   0.682  0.0267  0.1646  0.0122
  307W        W 1504   0.908   6.887   3.775  0.1577  0.1316  0.3478
  308W        W 1505   2.091   4.267   7.561 -0.1881 -0.2461 -0.0663
  309W        W 1506   6.058   7.204   1.946  0.2737  0.1670 -0.2736
  310W        W 1507   5.214   7.103   1.913 -0.0746  0.0706 -0.2670
  311W        W 1508   7.530   4.000   1.644  0.0758  0.1846  0.2993
  312W        W 1509   0.185   1.904   0.190 -0.0601  0.0074  0.0051
  313W        W 1510   6.037   3.158   5.736 -0.0871 -0.0238 -0.3738
  314W        W 1511   1.104   5.286   1.025 -0.2901 -0.2863  0.0438
  315W        W 1512   2.283   4.181   6.879 -0.2582 -0.2817 -0.2430
  316W        W 1513   6.739   0.076   3.514  0.3095 -0.2640 -0.0003
  317W        W 1514   6.077   2.153   0.186 -0.1911  0.2437 -0.3349
  318W        W 1515   4.734   3.675   0.994  0.1859 -0.2339 -0.2875
  319W        W 1516   1.244   1.613   2.888 -0.1486  0.0940  0.2541
  320W        W 1517   3.635   5.145   4.279  0.0607  0.1684  0.0840
  321W        W 1518   2.255   1.728   4.670  0.2196 -0.0179 -0.2067
  322W        W 1519   3.570   1.527   4.827  0.0233 -0.3861  0.1562
  323W        W 1520   1.250   1.978   3.260 -0.3366  0.4259  0.0995
  324W        W 1521   1.004   0.013   5.210  0.1492  0.2608 -0.1152
  325W        W 1522   4.669   5.354   1.671 -0.0478  0.0332 -0.0182
  326W        W 1523   5.464   4.598   2.686  0.3280  0.1888  0.1922
  327W        W 1524   6.207   2.662   5.647 -0.0686 -0.0073  0.1621
  328W        W 1525   3.744   4.676   4.886 -0.2241  0.4131 -0.2575
  329W        W 1526   5.910   2.498   6.034  0.2856  0.2054  0.2885
  330W        W 1527   0.493   6.945   0.922 -0.0332  0.1356  0.2873
  331W        W 1528   2.969   6.651   6.014  0.1521  0.0740 -0.3166
  332W        W 1529   6.255   6.773   3.033 -0.1346  0.0858 -0.0228
  333W        W 1530   2.002   4.805   7.548 -0.2292  0.0767  0.1581
  334W        W 1531   0.781   0.474   4.196 -0.1032  0.0646 -0.0115
  335W        W 1532   3.663   2.217   4.989 -0.0797  0.3346  0.2685
  336W        W 1533   5.949   6.554   6.630  0.1788  0.3588 -0.0074
  337W        W 1534   5.833   5.465   7.565 -0.1576 -0.1578 -0.2773
  338W        W 1535   5.417   4.253   1.177 -0.0969  0.3371  0.1460
  339W        W 1536   6.936   5.731   3.688  0.1267  0.0905  0.1227
  340W        W 1537   1.408   4.293   5.262  0.1829 -0.3248  0.0188
  341W        W 1538   1.225   3.953   4.167  0.1081 -0.1187  0.1468
  342W        W 1539   4.483   0.087   2.919  0.1223 -0.0623  0.0205
  343W        W 1540   7.555   3.339   6.374 -0.0297 -0.0950 -0.0736
  344W        W 1541   0.697   1.547   6.724 -0.3162  0.2997 -0.3352
  345W        W 1542   2.888   2.639   3.771  0.0233 -0.1255  0.2265
  346W        W 1543   2.384   4.550   3.397 -0.1140  0.1239 -0.1369
  347W        W 1544   3.804   0.671   5.362  0.0336  0.0878  0.0960
  348W        W 1545   1.377   4.289   6.945  0.0685 -0.1408  0.0020
  349W        W 1546   4.227   6.571   1.436  0.0039  0.3197 -0.0481
  350W        W 1547   6.374   6.177   4.454 -0.1737 -0.0061  0.0463
  351W        W 1548   3.644   0.468   2.471 -0.0821  0.1500 -0.2936
  352W        W 1549   1.148   4.783   0.993  0.2504  0.1747 -0.0820
  353W        W 1550   3.197   1.269   5.490 -0.0012  0.0791  0.0233
  354W        W 1551   6.325   7.036   3.896 -0.0210  0.1430  0.1346
  355W        W 1552   5.588   5.656   2.392 -0.1609 -0.0898  0.0903
  356W        W 1553   2.546   4.193   5.841 -0.4393  0.0596  0.1911
  357W        W 1554   0.322   2.647   1.248 -0.1492 -0.0777  0.1792
  358W        W 1555   3.997   3.157   1.903 -0.1382  0.3143 -0.1175
  359W        W 1556   4.067   7.491   3.038 -0.1236 -0.0200  0.0466
  360W        W 1557   5.872   3.864   4.591 -0.0463  0.1473  0.0481
  361W        W 1558   6.716   1.788   3.341  0.1524 -0.4118 -0.0265
  362W        W 1559   1.941   4.290   6.124  0.0681 -0.2016 -0.1388
  363W        W 1560   6.659   6.751   3.437 -0.1600  0.2634 -0.4096
  364W        W 1561   6.921   3.630   1.807 -0.1325 -0.0529 -0.0161
  365W        W 1562   7.338   0.591   6.220  0.1292 -0.2158  0.0767
  366W        W 1563   2.786   7.365   2.359  0.0225  0.2334  0.2620
  367W        W 1564   5.913   0.055   3.953  0.0303  0.2207 -0.1427
  368W        W 1565   2.279   4.085   4.826 -0.0281  0.1965  0.0176
  369W        W 1566   3.865   5.754   7.080 -0.1912 -0.3150 -0.0433
  370W        W 1567   0.604   2.287   3.869  0.2143 -0.1954  0.1214
  371W        W 1568   6.184   3.036   5.260  0.0994 -0.1477  0.1783
  372W        W 1569   0.444   4.280   0.381 -0.2216 -0.0190  0.0002
  373W        W 1570   1.667   0.821   3.709  0.0067 -0.2111  0.0613
  374W        W 1571   6.545   3.102   5.557  0.0106 -0.2010  0.0185
  375W        W 1572   5.204   2.384   7.354 -0.1572 -0.1979  0.0963
  376W        W 1573   0.762   2.955   4.048  0.0941 -0.2012  0.2001
  377W        W 1574   1.298   7.221   5.304 -0.1267  0.0493  0.2951
  378W        W 1575   5.495   3.581   4.482  0.1641  0.3148 -0.1304
  379W        W 1576   6.022   4.932   7.416  0.1975 -0.3351  0.1232
  380W        W 1577   6.012   6.401   2.034 -0.0206  0.0631  0.0832
  381W        W 1578   1.420   1.669   6.183 -0.2854 -0.1689  0.2137
  382W        W 1579   2.349   5.837   3.279  0.1994  0.3394 -0.0518
  383W        W 1580   5.130   2.933   6.835  0.2958 -0.1000 -0.0216
  384W        W 1581   2.133   3.978   5.574  0.0303  0.0605 -0.0852
  385W        W 1582   1.942   6.444   2.736  0.2395  0.1082 -0.1576
  386W        W 1583   3.520   1.763   2.902  0.1344  0.3273  0.2962
  387W        W 1584   0.865   0.675   6.372  0.3533  0.0867 -0.0766
  388W        W 1585   6.320   3.408   3.062 -0.1428  0.0866  0.1612
  389W        W 1586   4.159   3.110   4.027  0.0265 -0.1514  0.2809
  390W        W 1587   1.233   0.747   6.990  0.2280 -0.0371  0.1303
  391W        W 1588   2.327   6.433   4.806 -0.0609 -0.1133  0.1455
  392W        W 1589   5.275   7.186   0.528  0.0722  0.4211 -0.3555
  393W        W 1590   2.407   7.001   4.194  0.0897 -0.0273  0.0566
  394W        W 1591   2.991   5.184   3.443 -0.0976 -0.1047  0.0532
  395W        W 1592   0.486   4.665   1.325 -0.2145  0.0813 -0.2184
  396W        W 1593   0.359   1.181   2.922 -0.1414 -0.1032 -0.0696
  397W        W 1594   3.620   4.557   6.746  0.2878 -0.3239  0.2506
  398W        W 1595   5.488   0.157   5.752 -0.0263  0.2389  0.0509
  399W        W 1596   0.582   6.742   0.247 -0.0962  0.1263 -0.1598
  400W        W 1597   4.514   1.005   5.214  0.0796 -0.0431 -0.4630
  401W        W 1598   2.488   4.920   6.433 -0.2809 -0.1134 -0.1791
  402W        W 1599   3.487   7.668   5.658 -0.0630  0.1184  0.0190
  403W        W 1600   0.874   7.315   2.043 -0.0996 -0.0845  0.0231
  404W        W 1601   0.639   3.583   1.051  0.0045 -0.0228  0.0802
  405W        W 1602   5.739   0.490   2.962  0.3248  0.0957  0.0813
  406W        W 1603   4.143   1.074   6.067 -0.3203 -0.1828 -0.1251
  407W        W 1604   1.398   7.134   6.065 -0.3463  0.0383 -0.1083
  408W        W 1605   3.805   5.813   2.399 -0.2292  0.0035 -0.1831
  409W        W 1606   6.528   3.050   7.082  0.0414 -0.0389 -0.1512
  410W        W 1607   3.974   7.178   0.773  0.0155  0.1812 -0.1720
  411W        W 1608   4.507   2.635   2.961  0.0896  0.2194 -0.7485
  412W        W 1609   2.235   3.317   4.766 -0.1292  0.1277  0.0481
  413W        W 1610   0.842   7.671   3.284 -0.2931  0.0023  0.3643
  414W        W 1611   4.515   1.354   4.840  0.0773 -0.1153 -0.2578
  415W        W 1612   4.359   5.840   7.675 -0.0221  0.2580 -0.1291
  416W        W 1613   4.396   3.192   3.477 -0.1954  0.2982  0.0849
  417W        W 1614   1.101   5.266   2.604  0.2916  0.0739 -0.0854
  418W        W 1615   0.374   6.204   0.511  0.0982 -0.0388 -0.3250
  419W        W 1616   0.619   6.860   5.021 -0.2059 -0.2370  0.3731
  420W        W 1617   6.120   5.942   3.157  0.2391 -0.0006 -0.1472
  421W        W 1618   5.782   1.644   3.675 -0.2047 -0.1817  0.0135
  422W        W 1619   2.402   7.448   3.927  0.1992 -0.0386 -0.0588
  423W        W 1620   0.877   4.645   2.327  0.2070  0.0975 -0.0464
  424W        W 1621   5.322   3.150   5.875 -0.1948  0.0128 -0.1140
  425W        W 1622   2.291   1.268   5.941  0.0834 -0.1800  0.1279
  426W        W 1623   6.473   6.669   0.740 -0.1258  0.0607 -0.0469
  427W        W 1624   3.445   3.087   3.998 -0.0030  0.1381 -0.1395
  428W        W 1625   1.528   3.313   5.840 -0.0521 -0.1520 -0.3765
  429W        W 1626   5.539   4.192   7.115 -0.1014 -0.1329  0.1654
  430W        W 1627   5.207   1.297   5.847  0.0518 -0.2979  0.2654
  431W        W 1628   7.093   3.912   2.971  0.1058 -0.1308  0.1524
  432W        W 1629   1.937   0.130   7.397  0.0924  0.0116 -0.3327
  433W        W 1630   7.033   2.080   5.523 -0.0776 -0.3035  0.2422
  434W        W 1631   7.506   5.059   2.842  0.1319 -0.2067 -0.0903
  435W        W 1632   5.947   2.437   1.750 -0.0979  0.3630 -0.0586
  436W        W 1633   4.063   2.403   2.036 -0.0680 -0.3118 -0.2601
  437W        W 1634   5.004   6.160   2.951 -0.0571  0.0830  0.0314
  438W        W 1635   4.729   6.356   5.858 -0.1450  0.0063  0.0242
  439W        W 1636   5.761   1.239   2.318 -0.0343 -0.0611 -0.1940
  440W        W 1637   2.671   2.580   3.250  0.1866 -0.1427  0.0822
  441W        W 1638   3.392   4.094   1.532 -0.2233  0.0023 -0.1330
  442W        W 1639   5.885   2.671   5.273  0.1956 -0.0896  0.1244
  443W        W 1640   5.882   6.124   1.132 -0.1607  0.1651  0.2458
  444W        W 1641   5.521   2.073   5.928 -0.0677 -0.0039 -0.0698
  445W        W 1642   5.820   0.523   3.779  0.3456 -0.1199 -0.3184
  446W        W 1643   1.367   3.427   5.377  0.0777  0.1349 -0.0895
  447W        W 1644   1.120   3.331   2.447 -0.2579 -0.2236 -0.1536
  448W        W 1645   6.033   3.288   2.109  0.0603  0.3854 -0.0041
  449W        W 1646   0.732   2.082   5.202  0.0807  0.3565  0.0020
  450W        W 1647   4.267   4.028   2.643 -0.1255  0.0894  0.0707
  451W        W 1648   5.778   4.448   0.697 -0.0737  0.1485 -0.1801
  452W        W 1649   1.350   0.457   5.410  0.0177  0.2121 -0.0796
  453W        W 1650   4.667   3.615   7.147 -0.1908 -0.1936 -0.3385
  454W        W 1651   7.404   6.469   3.080  0.0945 -0.2064  0.1840
  455W        W 1652   0.566   5.586   2.545 -0.0871 -0.0011 -0.0489
  456W        W 1653   7.648   2.201   1.440 -0.1914  0.0287  0.4693
  457W        W 1654   3.394   5.434   2.109 -0.1060  0.1156  0.1740
  458W        W 1655   7.632   5.462   3.100 -0.0863  0.0109 -0.3499
  459W        W 1656   7.228   7.212   1.005  0.2231  0.2005 -0.1912
  460W        W 1657   2.191   5.828   6.123  0.1884 -0.2701  0.2711
  461W        W 1658   3.873   6.412   6.414  0.4234 -0.0833  0.1278
  462W        W 1659   1.433   3.661   1.513  0.3392 -0.2177  0.1947
  463W        W 1660   3.075   7.022   3.544 -0.1309 -0.0019 -0.2785
  464W        W 1661   5.568   5.347   2.764  0.1428  0.1242  0.1311
  465W        W 1662   7.588   0.610   3.842 -0.1298  0.0752  0.2751
  466W        W 1663   4.428   6.440   6.260 -0.2075  0.0353 -0.2125
  467W        W 1664   0.249   6.773   2.931  0.0201  0.0026  0.1436
  468W        W 1665   5.180   6.196   7.138  0.2831 -0.1287 -0.1614
  469W        W 1666   6.481   0.286   2.623  0.1262  0.1554 -0.0483
  470W        W 1667   1.643   7.225   7.057 -0.0787 -0.0525  0.0331
  471W        W 1668   6.804   1.758   5.793 -0.4155  0.0308 -0.2510
  472W        W 1669   0.783   6.265   1.667  0.3719  0.2077  0.3619
  473W        W 1670   7.363   4.556   5.783  0.2101  0.2144 -0.1692
  474W        W 1671   4.360   4.024   5.394 -0.1741 -0.2426 -0.2290
  475W        W 1672   7.352   1.372   2.428  0.3036  0.0411 -0.0859
  476W        W 1673   6.023   4.798   5.385 -0.0720 -0.4235 -0.0154
  477W        W 1674   4.970   7.344   2.324 -0.3554 -0.3982  0.1888
  478W        W 1675   7.488   5.034   0.851 -0.0070 -0.1854  0.3282
  479W        W 1676   2.666   1.846   4.378  0.4641 -0.0821 -0.1924
  480W        W 1677   1.496   0.008   6.250  0.3303 -0.1512  0.0270
  481W        W 1678   0.879   3.969   6.087 -0.1638  0.0763 -0.2507
  482W        W 1679   2.200   5.250   6.183  0.0924  0.0079  0.2455
  483W        W 1680   5.777   2.392   2.180  0.0103  0.0988 -0.0558
  484W        W 1681   0.825   2.541   4.342 -0.0840  0.1751 -0.1243
  485W        W 1682   2.047   4.116   2.629 -0.2084  0.1149 -0.3345
  486W        W 1683   5.259   6.978   2.396  0.0397  0.0146  0.3094
  487W        W 1684   5.166   2.345   1.481  0.4176  0.1109 -0.0236
  488W        W 1685   5.760   3.690   5.448  0.2081 -0.1148 -0.2091
  489W        W 1686   0.171   1.532   5.587 -0.0908  0.2007  0.0000
  490W        W 1687   7.628   0.444   1.258  0.2097 -0.0955 -0.0877
  491W        W 1688   7.590   1.004   6.115 -0.0759  0.0098  0.1265
  492W        W 1689   4.397   1.995   1.303  0.1324  0.0981  0.3480
  493W        W 1690   5.277   3.630   1.581 -0.0933  0.2370 -0.0857
  494W        W 1691   3.452   7.631   1.739  0.0162 -0.2259  0.5059
  495W        W 1692   6.605   1.740   2.146 -0.2176  0.2026 -0.0585
  496W        W 1693   7.074   0.877   3.633  0.1950 -0.1417 -0.2323
  497W        W 1694   3.086   4.117   7.501  0.2912  0.0775  0.0620
  498W        W 1695   6.182   0.845   5.201  0.2789  0.2147 -0.0987
  499W        W 1696   1.408   0.291   5.878  0.1039  0.0831  0.0448
  500W        W 1697   6.023   4.289   7.018  0.0813  0.3848 -0.1912
  501W        W 1698   3.532   7.106   1.747  0.0025  0.2075  0.1467
  502W        W 1699   0.571   2.501   5.484  0.2843 -0.1417  0.0791
  503W        W 1700   1.211   5.183   3.051 -0.4787  0.3293  0.1762
  504W        W 1701   7.138   5.595   3.173  0.0669  0.2250 -0.1666
  505W        W 1702   4.235   3.606   0.717  0.1636 -0.0221  0.1631
  506W        W 1703   4.584   4.360   3.854 -0.2656  0.2592 -0.0471
  507W        W 1704   2.296   3.915   3.993  0.0679  0.1060  0.2141
  508W        W 1705   2.327   5.661   7.626 -0.1980 -0.2703 -0.0545
  509W        W 1706   4.082   6.136   5.252 -0.0950 -0.4530 -0.0370
  510W        W 1707   2.229   2.354   3.246 -0.1761 -0.2025 -0.2792
  511W        W 1708   3.137   5.946   1.787 -0.0970  0.2539 -0.4418
  512W        W 1709   6.707   1.638   4.808 -0.0555 -0.1671 -0.1522
  513W        W 1710   3.045   0.788   6.219 -0.0607 -0.3610  0.0717
  514W        W 1711   6.124   2.257   2.535 -0.3910 -0.0505  0.0798
  515W        W 1712   6.092   2.556   4.810 -0.1897 -0.2592  0.0342
  516W        W 1713   3.857   1.775   3.352 -0.0026 -0.0518 -0.2058
  517W        W 1714   3.356   0.861   6.655  0.0113 -0.0908 -0.2075
  518W        W 1715   5.445   2.751   1.445 -0.1052 -0.1741  0.0562
  519W        W 1716   5.650   4.770   1.626  0.1679  0.2684 -0.1708
  520W        W 1717   3.001   0.685   2.246 -0.0716  0.0835  0.4467
  521W        W 1718   1.073   1.497   4.439  0.2425 -0.0456 -0.1846
  522W        W 1719   0.961   6.955   5.751  0.1665  0.1870  0.1503
  523W        W 1720   0.628   2.848   4.708 -0.1935 -0.1261 -0.1719
  524W        W 1721   0.577   6.672   6.000  0.0511  0.0359  0.0123
  525W        W 1722   5.617   2.993   3.617  0.1150 -0.1106 -0.0643
  526W        W 1723   3.097   0.868   4.282  0.0475 -0.2864 -0.0983
  527W        W 1724   2.291   0.977   6.898 -0.1069 -0.0048  0.0038
  528W        W 1725   2.842   7.008   6.492  0.0009 -0.2358 -0.0233
  529W        W 1726   4.713   3.601   5.458 -0.0826 -0.0420  0.0749
  530W        W 1727   3.185   4.098   0.448  0.0630  0.0691  0.0627
  531W        W 1728   7.181   5.597   1.561  0.3427  0.0160 -0.1939
  532W        W 1729   4.454   5.154   1.277  0.0193 -0.3492 -0.1862
  533W        W 1730   0.520   4.064   7.557  0.1909 -0.0111  0.0756
  534W        W 1731   3.938   6.971   4.263  0.0416  0.0553 -0.1398
  535W        W 1732   0.919   6.348   6.179 -0.0348  0.1592  0.0771
  536W        W 1733   3.776   7.283   5.914 -0.0679 -0.5618 -0.0202
  537W        W 1734   0.705   6.455   3.601 -0.1997 -0.2099 -0.0700
  538W        W 1735   5.023   4.154   6.371 -0.1866  0.2984  0.1676
  539W        W 1736   5.237   6.784   2.950 -0.1371 -0.0609  0.2075
  540W        W 1737   3.012   0.140   3.833 -0.0413 -0.1730 -0.2321
  541W        W 1738   4.799   2.410   4.276 -0.2703 -0.3272  0.2124
  542W        W 1739   0.517   0.047   3.994 -0.1994  0.0572  0.0228
  543W        W 1740   2.344   5.916   4.810 -0.1215  0.1551  0.1339
  544W        W 1741   3.877   1.224   3.435 -0.3814  0.1106  0.1911
  545W        W 1742   3.134   7.449   5.331  0.0251 -0.1311  0.0615
  546W        W 1743   0.526   7.072   4.024 -0.1608 -0.2118  0.0172
  547W        W 1744   2.377   3.409   4.096  0.0984 -0.1563 -0.0800
  548W        W 1745   2.913   6.723   4.835 -0.1296 -0.1375  0.1642
  549W        W 1746   1.372   4.821   2.489  0.2070  0.0165  0.1922
  550W        W 1747   6.469   2.033   5.643 -0.0561  0.2189 -0.1517
  551W        W 1748   7.108   7.596   2.163 -0.0425 -0.1792  0.0370
  552W        W 1749   1.061   6.628   5.408  0.3685  0.2577 -0.0836
  553W        W 1750   4.303   1.785   3.099  0.2403  0.2839 -0.1872
  554W        W 1751   1.202   4.685   7.169 -0.0751 -0.1500 -0.1584
  555W        W 1752   1.711   1.017   7.035 -0.2666 -0.2700  0.2819
  556W        W 1753   0.129   5.790   0.535  0.1373  0.0942 -0.1336
  557W        W 1754   4.621   1.866   5.590 -0.1110  0.0377  0.0304
  558W        W 1755   3.628   5.944   5.494 -0.0339 -0.2246  0.1036
  559W        W 1756   0.862   1.692   5.449  0.1536  0.1950 -0.2301
  560W        W 1757   5.798   5.274   6.380  0.1038  0.0774  0.2600
  561W        W 1758   5.512   3.925   2.671  0.0999 -0.3743  0.4801
  562W        W 1759   6.311   5.537   5.435 -0.4464 -0.1648 -0.1379
  563W        W 1760   5.332   4.169   1.733  0.1729 -0.1121  0.1729
  564W        W 1761   6.894   6.250   1.764  0.3131  0.3171  0.0593
  565W        W 1762   2.124   5.036   2.562  0.0799 -0.0881  0.2096
  566W        W 1763   5.345   4.951   0.423  0.0653  0.0231 -0.0208
  567W        W 1764   4.770   5.018   3.007  0.0636 -0.0264 -0.1815
  568W        W 1765   4.186   3.394   4.944 -0.1665 -0.0081  0.1780
  569W        W 1766   6.402   3.380   0.282 -0.0073 -0.2002  0.0070
  570W        W 1767   7.454   7.376   7.419 -0.0369 -0.4312 -0.0239
  571W        W 1768   6.719   3.134   7.555  0.0553 -0.2522 -0.1086
  572W        W 1769   4.139   4.523   2.445  0.1251 -0.1030  0.1349
  573W        W 1770   1.791   6.460   3.197 -0.0934 -0.2972  0.3075
  574W        W 1771   2.290   3.648   5.122  0.2500 -0.0466  0.1534
  575W        W 1772   1.319   3.271   1.833 -0.1806 -0.4070  0.1590
  576W        W 1773   1.579   4.993   3.321  0.1178  0.0989 -0.3210
  577W        W 1774   6.698   1.962   4.249  0.3112  0.0268  0.4076
  578W        W 1775   5.219   6.551   2.004  0.1661 -0.0226  0.1689
  579W        W 1776   4.574   0.720   2.289  0.3131 -0.2608 -0.1135
  580W        W 1777   5.632   2.640   7.294  0.0518 -0.1908 -0.3056
  581W        W 1778   7.619   4.462   6.531  0.1000 -0.3317  0.1497
  582W        W 1779   5.675   6.986   6.435 -0.3500 -0.1780  0.1870
  583W        W 1780   5.709   4.061   5.804  0.1434  0.0665 -0.1567
  584W        W 1781   5.843   6.681   7.121  0.1346 -0.5750 -0.0355
  585W        W 1782   6.575   4.382   1.176  0.1177  0.4541 -0.0307
  586W        W 1783   5.810   6.433   5.586 -0.0910 -0.0610 -0.3230
  587W        W 1784   5.169   1.659   2.956  0.1054 -0.2143  0.2908
  588W        W 1785   1.721   7.356   4.999  0.3704 -0.0509  0.2383
  589W        W 1786   5.516   0.394   2.103 -0.0598 -0.2387 -0.3826
  590W        W 1787   7.293   6.018   2.835  0.1506  0.2065 -0.1346
  591W        W 1788   6.637   2.753   2.208 -0.2530 -0.0943 -0.2634
  592W        W 1789   1.913   2.689   1.468 -0.1184  0.2513 -0.2498
  593W        W 1790   7.509   7.562   4.493 -0.2512 -0.1015 -0.1500
  594W        W 1791   1.405   2.576   5.478  0.0502 -0.1209 -0.0356
  595W        W 1792   5.619   2.566   0.958  0.2085 -0.1353  0.1886
  596W        W 1793   3.660   5.803   1.124 -0.1451  0.0912  0.1929
  597W        W 1794   1.573   1.355   6.536  0.0006 -0.0482 -0.1213
  598W        W 1795   7.054   5.589   0.620 -0.1132 -0.0039 -0.2247
  599W        W 1796   1.415   3.311   2.947 -0.0910 -0.0452 -0.3436
  600W        W 1797   2.114   3.702   2.308 -0.0510 -0.0050 -0.1281
  601W        W 1798   7.352   5.960   2.346 -0.1822  0.0666 -0.0103
  602W        W 1799   2.845   6.460   6.468 -0.4291  0.1129 -0.1020
  603W        W 1800   2.416   1.660   3.613 -0.1045  0.0691 -0.1031
  604W        W 1801   7.313   2.923   4.597  0.4425 -0.1013  0.4589
  605W        W 1802   2.255   4.390   3.862  0.1818  0.0704  0.2098
  606W        W 1803   3.094   6.757   0.729  0.0164  0.1108 -0.0326
  607W        W 1804   2.547   4.730   1.539  0.2414 -0.1744  0.2981
  608W        W 1805   7.089   4.963   0.077  0.0601 -0.0588  0.1299
  609W        W 1806   1.783   4.894   5.364  0.0920 -0.1172 -0.0992
  610W        W 1807   6.682   1.243   1.350 -0.2408 -0.2244 -0.3432
  611W        W 1808   2.292   5.594   4.336 -0.1797  0.0813 -0.1166
  612W        W 1809   3.103   7.491   6.730 -0.0033 -0.0220 -0.2743
  613W        W 1810   5.632   6.270   2.375 -0.1380  0.0382 -0.1948
  614W        W 1811   4.366   0.148   4.131  0.1345 -0.1385  0.0247
  615W        W 1812   2.116   4.578   2.320 -0.0906 -0.0123  0.0350
  616W        W 1813   1.559   5.366   5.186 -0.0751 -0.5391  0.0550
  617W        W 1814   5.592   1.717   3.227 -0.2094 -0.1921 -0.0097
  618W        W 1815   1.024   6.492   0.273  0.1392  0.0124 -0.0150
  619W        W 1816   0.676   1.211   5.299 -0.4283 -0.0861  0.0736
  620W        W 1817   7.066   4.391   5.427 -0.0402  0.2006  0.0173
  621W        W 1818   2.783   1.161   6.109  0.0276  0.0059  0.0860
  622W        W 1819   1.949   4.537   4.688 -0.1711  0.0950  0.3558
  623W        W 1820   3.549   2.588   3.909 -0.2271  0.0114  0.2031
  624W        W 1821   3.108   0.362   6.798  0.1781  0.0472 -0.2186
  625W        W 1822   1.571   3.036   0.741  0.0030  0.0776  0.0181
  626W        W 1823   0.910   4.212   5.313  0.0647  0.3293 -0.0347
  627W        W 1824   3.878   6.879   0.447  0.0825  0.0763 -0.0092
  628W        W 1825   0.914   3.250   4.436 -0.0573  0.0587  0.2193
  629W        W 1826   4.385   5.744   3.573 -0.0771 -0.0146 -0.1633
  630W        W 1827   6.496   2.756   6.651 -0.1520 -0.0348  0.0168
  631W        W 1828   7.054   6.684   5.320 -0.0496 -0.3114  0.1006
  632W        W 1829   0.879   1.095   6.614  0.2669 -0.0023 -0.0293
  633W        W 1830   4.511   3.263   7.473  0.2272  0.1003  0.2042
  634W        W 1831   4.671   0.475   4.411  0.0753 -0.1369 -0.1095
  635W        W 1832   4.896   5.951   3.526  0.3612 -0.0722 -0.1883
  636W        W 1833   2.623   4.006   3.570 -0.0242  0.0666 -0.0072
  637W        W 1834   2.723   0.037   4.210  0.1656 -0.0129 -0.2612
  638W        W 1835   0.405   3.535   2.698  0.2154  0.2045  0.3269
  639W        W 1836   3.952   7.447   0.138  0.0489 -0.1213  0.0618
  640W        W 1837   0.657   2.915   7.151 -0.0820  0.0889 -0.2212
  641W        W 1838   6.567   4.879   1.933 -0.5552  0.0736 -0.3228
  642W        W 1839   3.158   5.842   1.288 -0.2572 -0.1769  0.0035
  643W        W 1840   7.009   7.497   5.772 -0.1636 -0.0662  0.1895
  644W        W 1841   0.233   1.992   6.000 -0.2351  0.1660 -0.1485
  645W        W 1842   0.424   2.235   4.346  0.1488  0.1807  0.1274
  646W        W 1843   3.930   6.595   7.295  0.0260  0.0116  0.0729
  647W        W 1844   0.257   3.211   6.068 -0.2160  0.1633 -0.0894
  648W        W 1845   0.907   0.230   4.611  0.2624  0.0766  0.4159
  649W        W 1846   4.735   2.269   1.125  0.0068 -0.1692 -0.1625
  650W        W 1847   3.802   4.103   2.511 -0.1301  0.1515  0.1752
  651W        W 1848   0.695   4.045   4.828  0.2513  0.0851 -0.1205
  652W        W 1849   3.962   4.538   4.058  0.2705  0.3629  0.0666
  653W        W 1850   0.582   6.272   0.029  0.0939  0.1632 -0.5139
  654W        W 1851   5.750   7.598   4.832  0.1460 -0.2836  0.1969
  655W        W 1852   5.829   5.757   1.474  0.1552  0.0044 -0.0867
  656W        W 1853   7.013   3.655   3.450 -0.2236  0.0152  0.0440
  657W        W 1854   1.172   5.758   5.141 -0.2396  0.0240 -0.0412
  658W        W 1855   6.344   3.929   0.499  0.1345  0.0094  0.1533
  659W        W 1856   5.640   3.191   5.422  0.2662  0.0186  0.2397
  660W        W 1857   3.743   4.701   6.267 -0.0387 -0.2344 -0.0733
  661W        W 1858   3.608   7.635   2.567 -0.1362 -0.0354  0.1517
  662W        W 1859   3.952   1.729   1.365 -0.3562 -0.0751  0.0344
  663W        W 1860   2.898   6.812   5.505 -0.2220  0.2864 -0.0935
  664W        W 1861   6.513   7.036   2.726 -0.0300 -0.2875  0.1026
  665W        W 1862   1.799   0.677   5.374  0.0862  0.0125  0.0129
  666W        W 1863   1.284   6.116   3.081  0.0526 -0.0329  0.0184
  667W        W 1864   7.136   4.873   1.323  0.0070 -0.0133 -0.1067
  668W        W 1865   1.829   2.642   0.461  0.1426  0.0513  0.0926
  669W        W 1866   4.661   4.770   7.002 -0.2777  0.0287 -0.2206
  670W        W 1867   2.134   6.662   4.417 -0.0167  0.5403 -0.2223
  671W        W 1868   0.033   4.533   2.675 -0.1891 -0.2446 -0.3373
  672W        W 1869   1.930   0.915   6.577 -0.0833  0.1437  0.1983
  673W        W 1870   6.601   7.309   4.231  0.0707  0.1194 -0.2248
  674W        W 1871   7.513   3.600   6.907  0.1116  0.1082 -0.0013
  675W        W 1872   2.909   3.535   3.505  0.2234  0.0484  0.0394
  676W        W 1873   2.043   1.131   3.939  0.0598 -0.0106  0.1271
  677W        W 1874   0.301   2.799   3.756  0.0064 -0.4184 -0.0411
  678W        W 1875   0.688   2.935   6.051 -0.0816 -0.1751 -0.2048
  679W        W 1876   1.174   6.432   3.881  0.0251 -0.3354 -0.0145
  680W        W 1877   0.613   7.202   0.044 -0.0420 -0.1312 -0.2513
  681W        W 1878   2.787   4.393   2.546  0.1019 -0.1058 -0.0038
  682W        W 1879   4.368   6.316   0.863 -0.3310 -0.0683 -0.1344
  683W        W 1880   7.676   6.361   0.928  0.0246  0.0606  0.1257
  684W        W 1881   3.428   5.478   7.006  0.0771 -0.1224  0.0684
  685W        W 1882   0.589   7.636   6.201 -0.0300  0.0985 -0.1181
  686W        W 1883   3.359   4.812   2.155 -0.1834 -0.2083  0.1946
  687W        W 1884   1.781   6.618   3.702  0.0033  0.0049  0.3234
  688W        W 1885   1.324   7.033   1.968 -0.3842  0.0366  0.1040
  689W        W 1886   1.368   2.535   1.178 -0.0640  0.1200  0.0055
  690W        W 1887   3.777   0.083   6.080  0.0004  0.1332 -0.0634
  691W        W 1888   2.359   3.376   1.948 -0.0911  0.3308 -0.0384
  692W        W 1889   7.407   6.128   6.613 -0.1038 -0.2002  0.0625
  693W        W 1890   2.842   4.683   1.125 -0.0129 -0.3394 -0.0842
  694W        W 1891   5.475   6.566   4.145 -0.1090  0.1217 -0.2160
  695W        W 1892   0.180   3.025   3.261 -0.0221 -0.0520 -0.0596
  696W        W 1893   7.442   1.119   3.866  0.1365  0.0472  0.0794
  697W        W 1894   6.818   6.741   1.509 -0.4198 -0.1847 -0.2828
  698W        W 1895   5.000   5.765   7.046 -0.0604  0.0377 -0.0239
  699W        W 1896   0.865   4.583   6.227 -0.4042 -0.0364 -0.0566
  700W        W 1897   2.524   1.284   4.707 -0.2666  0.0543  0.0456
  701W        W 1898   7.289   1.668   5.738 -0.0261  0.0117  0.1288
  702W        W 1899   7.066   4.227   1.127 -0.1030  0.1159  0.2313
  703W        W 1900   2.355   4.323   1.357 -0.1889  0.0853  0.1578
  704W        W 1901   0.266   3.831   0.327 -0.1186 -0.4338  0.1885
  705W        W 1902   7.313   3.005   5.659 -0.3360  0.1438 -0.3196
  706W        W 1903   6.040   3.978   0.895  0.2688  0.0340  0.1650
  707W        W 1904   4.666   5.871   0.785  0.0469 -0.2281 -0.1393
  708W        W 1905   3.846   7.456   4.828 -0.0037  0.3467  0.0766
  709W        W 1906   0.904   5.087   0.623  0.4411  0.2090 -0.4436
  710W        W 1907   4.533   7.090   7.183 -0.2805 -0.2471  0.0080
  711W        W 1908   1.916   4.258   5.177  0.0261 -0.0218  0.0428
  712W        W 1909   7.276   3.324   5.226  0.0212  0.1041  0.1045
  713W        W 1910   5.033   1.200   2.812 -0.0235 -0.1878  0.0111
  714W        W 1911   1.049   7.006   0.157  0.0541  0.1052  0.0184
  715W        W 1912   2.058   4.879   3.067 -0.3054  0.1001 -0.3239
  716W        W 1913   0.122   5.540   7.474 -0.0451  0.0390 -0.1901
  717W        W 1914   3.957   1.880   2.758 -0.1087  0.1597  0.1424
  718W        W 1915   0.567   0.943   4.316  0.0480 -0.2047 -0.0696
  719W        W 1916   6.059   3.906   2.919  0.1072 -0.0084 -0.2466
  720W        W 1917   6.566   0.258   6.497  0.1208 -0.1543  0.1110
  721W        W 1918   3.659   4.278   0.597  0.0913 -0.1472 -0.1868
  722W        W 1919   0.630   3.911   3.001  0.4909 -0.1476  0.0751
  723W        W 1920   2.131   3.924   1.101  0.0171  0.0000  0.3223
  724W        W 1921   2.112   2.189   0.634  0.0639  0.3186 -0.2560
  725W        W 1922   7.417   1.281   6.468 -0.2042 -0.1444 -0.2336
  726W        W 1923   6.870   3.558   6.125 -0.0416  0.3002 -0.0784
  727W        W 1924   5.602   1.023   5.478  0.2193  0.2221 -0.1451
  728W        W 1925   5.760   6.697   3.071  0.1419  0.0814 -0.0078
  729W        W 1926   5.943   6.752   1.668 -0.3244 -0.1174  0.3586
  730W        W 1927   1.657   4.213   5.682  0.2279  0.4359  0.1316
  731W        W 1928   2.347   6.469   0.464  0.1160 -0.0153  0.0740
  732W        W 1929   6.309   4.039   5.414  0.2391  0.0870  0.2479
  733W        W 1930   6.331   6.748   5.565 -0.4089  0.0375 -0.0861
  734W        W 1931   0.020   6.992   0.069  0.0767  0.0146 -0.0907
  735W        W 1932   1.160   6.112   5.559 -0.1202  0.1474 -0.0706
  736W        W 1933   0.077   5.052   6.495  0.0800  0.0956 -0.2446
  737W        W 1934   0.280   7.112   4.665  0.1548  0.3043 -0.2916
  738W        W 1935   3.337   6.379   1.986 -0.0104  0.1784  0.1483
  739W        W 1936   1.999   5.519   2.637  0.0651 -0.0397 -0.0870
  740W        W 1937   7.177   7.671   3.254  0.2631 -0.0432 -0.2198
  741W        W 1938   2.673   4.930   2.687 -0.0280 -0.2418  0.1633
  742W        W 1939   3.128   7.315   3.172  0.0690 -0.0591  0.1768
  743W        W 1940   3.412   0.442   6.163 -0.1959 -0.1071  0.0553
  744W        W 1941   4.632   0.055   6.378 -0.0265 -0.2228 -0.2690
  745W        W 1942   3.005   5.329   4.744 -0.0016  0.1838 -0.0337
  746W        W 1943   3.404   5.055   0.692  0.0346 -0.0096  0.0341
  747W        W 1944   1.010   2.350   0.869  0.0683  0.2270 -0.2110
  748W        W 1945   0.924   6.937   7.280  0.0022  0.0846  0.1948
  749W        W 1946   5.972   7.218   3.038  0.0423 -0.1542  0.1645
  750W        W 1947   6.310   4.075   6.530  0.0563 -0.0151  0.1330
  751W        W 1948   1.685   5.101   2.790  0.3676  0.1073 -0.0928
  752W        W 1949   7.578   3.346   3.000 -0.1583 -0.1206 -0.0281
  753W        W 1950   4.917   2.392   6.552 -0.4973  0.1536  0.1955
  754W        W 1951   0.316   6.315   3.266 -0.0222 -0.0308 -0.2594
  755W        W 1952   5.895   6.748   3.905 -0.0471 -0.0938  0.2602
  756W        W 1953   7.334   7.145   5.932  0.0239 -0.3438  0.0664
  757W        W 1954   3.549   5.277   4.812  0.1583 -0.3131  0.3230
  758W        W 1955   0.318   4.772   6.942  0.2148 -0.0772  0.0798
  759W        W 1956   3.541   0.171   2.999  0.0956  0.2663 -0.0591
  760W        W 1957   7.623   5.989   3.218  0.4143 -0.0870 -0.0130
  761W        W 1958   7.361   3.187   1.008  0.2340  0.0263 -0.1138
  762W        W 1959   1.914   4.058   1.511  0.1629  0.1821 -0.2057
  763W        W 1960   5.769   6.207   6.973 -0.1660 -0.0330 -0.0597
  764W        W 1961   6.266   6.183   6.916  0.1318 -0.2728 -0.0065
  765W        W 1962   1.548   0.010   5.318  0.2338 -0.0056  0.0476
  766W        W 1963   3.008   1.311   2.068 -0.2495 -0.1930  0.1236
  767W        W 1964   1.427   6.687   0.050  0.0651  0.0356  0.1547
  768W        W 1965   2.894   6.670   3.882 -0.0418 -0.2259  0.2539
  769W        W 1966   2.218   2.104   3.753  0.1577 -0.0777 -0.0611
  770W        W 1967   5.266   5.716   7.547  0.0987  0.1076  0.1107
  771W        W 1968   0.186   4.430   5.681 -0.1573  0.0606 -0.0582
  772W        W 1969   0.075   2.363   6.339  0.0193 -0.0952 -0.0829
  773W        W 1970   6.495   5.775   0.514  0.1175 -0.1497  0.2359
  774W        W 1971   5.239   6.172   0.043  0.1105 -0.1793 -0.3607
  775W        W 1972   1.952   1.276   5.567  0.1958 -0.2705  0.0552
  776W        W 1973   5.353   3.145   0.030  0.0672 -0.1694 -0.0134
  777W        W 1974   1.758   5.431   4.559 -0.1815  0.0381  0.0398
  778W        W 1975   4.243   0.355   6.233  0.4142 -0.1263 -0.1673
  779W        W 1976   7.304   1.569   6.870 -0.0161  0.0136  0.0863
  780W        W 1977   4.337   7.019   2.290  0.0139  0.2831  0.1381
  781W        W 1978   4.149   4.647   4.480 -0.0095  0.0525 -0.1418
  782W        W 1979   7.357   6.660   3.908  0.3532  0.2868 -0.0619
  783W        W 1980   3.915   2.652   2.737 -0.0906  0.1655 -0.2267
  784W        W 1981   1.548   4.108   1.854  0.0398 -0.3917 -0.1930
  785W        W 1982   7.205   6.631   0.291  0.1190 -0.0274  0.0691
  786W        W 1983   6.877   6.934   0.513 -0.0119  0.0706 -0.5911
  787W        W 1984   0.108   1.107   3.370  0.0369  0.2002 -0.0507
  788W        W 1985   3.674   6.488   2.955 -0.0765 -0.1922  0.1136
  789W        W 1986   4.506   6.800   3.321 -0.0042 -0.0226 -0.3380
  790W        W 1987   6.190   6.296   7.357  0.2625 -0.0999 -0.1178
  791W        W 1988   4.108   3.161   2.677 -0.0293 -0.0279 -0.0676
  792W        W 1989   4.760   6.383   2.149  0.1306 -0.0956 -0.2416
  793W        W 1990   4.833   3.598   0.002  0.1635 -0.0946 -0.1809
  794W        W 1991   6.153   3.619   6.718 -0.3214  0.2288  0.0861
  795W        W 1992   2.464   4.268   5.305  0.3806  0.1120  0.0380
  796W        W 1993   0.752   3.964   0.727  0.1567 -0.0486  0.2992
  797W        W 1994   0.984   1.729   4.902  0.0009  0.0536  0.1541
  798W        W 1995   6.732   6.425   4.718  0.0161 -0.1254  0.0108
  799W        W 1996   1.431   4.429   1.400  0.0957 -0.1036  0.0079
  800W        W 1997   5.281   0.310   3.041  0.0993  0.0957  0.2374
  801W        W 1998   6.635   7.022   5.325 -0.3662 -0.0291 -0.0180
  802W        W 1999   4.001   4.011   0.935  0.1400  0.1653  0.0020
  803W        W 2000   2.693   7.389   2.847  0.1584  0.2404  0.3888
  804W        W 2001   3.123   7.515   2.646 -0.0326  0.2860  0.0668
  805W        W 2002   0.559   2.062   2.537 -0.2861 -0.0999  0.1036
  806W        W 2003   7.126   6.737   6.215 -0.1440  0.2007 -0.1763
  807W        W 2004   7.488   1.876   6.437 -0.0163  0.0404  0.0569
  808W        W 2005   7.593   7.250   1.454 -0.1489  0.1585 -0.0698
  809W        W 2006   5.159   4.198   0.736 -0.0009  0.1055 -0.0906
  810W        W 2007   5.169   2.614   3.531  0.0495  0.1631  0.3549
  811W        W 2008   1.794   4.981   2.195 -0.2969 -0.0756 -0.0168
  812W        W 2009   1.249   5.435   6.069  0.1197 -0.0996  0.1493
  813W        W 2010   4.470   0.913   4.525  0.2144 -0.2685  0.1186
  814W        W 2011   5.838   2.328   6.930 -0.0486 -0.0300 -0.4444
  815W        W 2012   7.391   7.355   4.992  0.0004  0.5013  0.1137
  816W        W 2013   0.572   4.242   2.262  0.1638 -0.0175 -0.3155
  817W        W 2014   0.696   6.260   5.697  0.2311  0.0131 -0.0770
  818W        W 2015   5.509   7.069   3.967  0.2281 -0.0895  0.0138
  819W        W 2016   1.588   3.886   1.110  0.0675  0.1116  0.0888
  820W        W 2017   7.495   1.961   3.701 -0.2042 -0.0716  0.2533
  821W        W 2018   2.527   1.662   3.106  0.1901 -0.0489 -0.1181
  822W        W 2019   1.862   7.157   7.500 -0.0308 -0.1325 -0.4437
  823W        W 2020   2.816   5.739   4.546 -0.0817  0.3238 -0.1831
  824W        W 2021   0.370   5.236   2.113  0.1577 -0.2533  0.1759
  825W        W 2022   0.314   6.160   2.349 -0.1451 -0.0156 -0.1523
  826W        W 2023   6.294   3.822   4.183 -0.0285  0.1497  0.0840
  827W        W 2024   6.848   7.545   0.994  0.0445 -0.3124  0.1072
  828W        W 2025   4.589   5.015   7.472  0.0035 -0.1926  0.1698
  829W        W 2026   4.799   7.610   3.808  0.0096  0.0561 -0.2966
  830W        W 2027   4.175   6.660   5.154 -0.0716  0.1683 -0.1301
  831W        W 2028   4.885   4.220   5.487 -0.6183  0.1042  0.0888
  832W        W 2029   1.266   2.436   4.014 -0.2625  0.1630 -0.0678
  833W        W 2030   7.013   0.458   3.353  0.1838 -0.2318 -0.2035
  834W        W 2031   1.020   6.842   2.330  0.0288 -0.0975  0.0327
  835W        W 2032   2.935   4.513   0.208 -0.0467  0.1460 -0.1655
  836W        W 2033   5.257   5.366   5.395  0.1811  0.0561 -0.2816
  837W        W 2034   1.481   5.265   6.946  0.0589  0.0697  0.1417
  838W        W 2035   0.997   3.320   5.749 -0.1417  0.0064  0.3123
  839W        W 2036   4.845   2.763   2.251  0.0976 -0.2434  0.1001
  840W        W 2037   4.385   3.571   2.623 -0.2888  0.0976  0.0334
  841W        W 2038   4.926   2.694   1.698 -0.0736 -0.0493  0.1113
  842W        W 2039   6.665   4.238   5.679  0.0667 -0.0865 -0.2127
  843W        W 2040   6.596   7.228   3.453  0.0423  0.0295  0.0986
  844W        W 2041   4.812   7.139   0.711  0.1185 -0.3012  0.0241
  845W        W 2042   5.486   5.957   4.696 -0.0311  0.3723 -0.0724
  846W        W 2043   5.733   0.393   6.119 -0.1069 -0.2644 -0.3961
  847W        W 2044   6.510   7.300   7.217 -0.3399  0.0706  0.1116
  848W        W 2045   0.911   6.470   4.621  0.1583  0.1339 -0.0526
  849W        W 2046   7.183   3.276   4.272  0.0618 -0.2299 -0.0921
  850W        W 2047   0.538   5.800   1.567  0.2002  0.0325  0.1249
  851W        W 2048   3.326   4.148   4.509 -0.4300 -0.0379  0.0307
  852W        W 2049   4.539   6.262   5.235 -0.4227 -0.1925  0.0551
  853W        W 2050   2.870   5.566   3.065 -0.2267  0.0235 -0.0109
  854W        W 2051   7.059   7.281   6.375  0.0252 -0.1046  0.0446
  855W        W 2052   1.395   0.319   7.251  0.0110 -0.0022 -0.2121
  856W        W 2053   7.319   0.804   4.737  0.0095 -0.4869  0.2300
  857W        W 2054   4.268   6.471   6.732  0.1140 -0.1433  0.0806
  858W        W 2055   0.641   2.982   5.226 -0.1201 -0.4018 -0.1544
  859W        W 2056   7.154   0.024   5.327 -0.1664 -0.1160 -0.0702
  860W        W 2057   5.635   7.353   5.778  0.1698 -0.2422  0.4588
  861W        W 2058   0.910   4.217   6.574 -0.1975 -0.1421  0.0679
  862W        W 2059   2.658   2.940   1.904  0.0297 -0.0032 -0.1647
  863W        W 2060   3.117   7.159   0.980 -0.0605 -0.1388 -0.2761
  864W        W 2061   4.766   3.040   4.865 -0.2129 -0.0309 -0.3202
  865W        W 2062   7.486   4.241   2.999 -0.0058 -0.1541  0.0076
  866W        W 2063   3.914   3.258   1.338 -0.1401 -0.0788  0.0541
  867W        W 2064   0.284   5.452   1.286 -0.1832  0.0733  0.0810
  868W        W 2065   3.869   1.022   2.002 -0.0618 -0.1586  0.2817
  869W        W 2066   0.709   4.942   7.200  0.4611  0.3067  0.0381
  870W        W 2067   2.996   6.064   6.049 -0.5128 -0.2381 -0.0093
  871W        W 2068   2.725   5.762   4.061 -0.1380  0.0374 -0.1847
  872W        W 2069   0.816   6.359   3.106 -0.0113 -0.1119  0.1226
  873W        W 2070   4.834   4.087   1.837 -0.2020  0.2340 -0.0301
  874W        W 2071   5.595   7.145   6.913  0.0394 -0.1131 -0.1266
  875W        W 2072   7.339   4.810   6.296 -0.0548  0.2363 -0.2174
  876W        W 2073   6.498   6.395   6.357 -0.0299 -0.1737  0.1436
  877W        W 2074   3.753   4.528   3.420  0.0457  0.2139 -0.1092
  878W        W 2075   5.347   7.415   6.576 -0.1506  0.0673  0.0345
  879W        W 2076   6.725   3.752   6.637  0.0915 -0.0392  0.0683
  880W        W 2077   4.765   1.337   2.413 -0.2706  0.1532 -0.3981
  881W        W 2078   1.551   4.128   2.865  0.1192  0.2044  0.0305
  882W        W 2079   4.295   3.702   1.272  0.0418  0.0873  0.0091
  883W        W 2080   5.346   1.369   3.879 -0.1187 -0.1499 -0.0867
  884W        W 2081   1.956   1.649   3.893  0.1451  0.0806 -0.2415
  885W        W 2082   4.007   3.232   3.137  0.2933  0.3644  0.1337
  886W        W 2083   6.619   5.864   7.206 -0.0433 -0.1660  0.1176
  887W        W 2084   5.587   3.421   0.675 -0.1024  0.0566 -0.1232
  888W        W 2085   7.279   7.371   6.921 -0.2066 -0.0952  0.3760
  889W        W 2086   5.856   6.882   5.755  0.0764  0.1178 -0.0939
  890W        W 2087   5.757   2.193   4.031  0.4146  0.2243 -0.0263
  891W        W 2088   3.498   6.233   1.487 -0.1682  0.3306 -0.1697
  892W        W 2089   6.339   1.299   4.996 -0.0295  0.1586 -0.0669
  893W        W 2090   4.215   4.146   3.393 -0.2841 -0.0545  0.2105
  894W        W 2091   3.990   2.714   1.611 -0.0460 -0.1684 -0.0417
  895W        W 2092   3.606   4.198   1.129 -0.0838  0.0621 -0.2012
  896W        W 2093   3.300   3.926   5.532 -0.3789  0.0106 -0.3576
  897W        W 2094   0.354   0.790   2.543 -0.0177  0.0073  0.2353
  898W        W 2095   2.056   6.144   3.951 -0.2641  0.0214 -0.0518
  899W        W 2096   4.681   3.414   0.544 -0.0125 -0.0135  0.0878
  900W        W 2097   5.577   5.403   4.949  0.1341 -0.2872  0.1751
  901W        W 2098   5.299   5.010   5.079  0.1822  0.1651 -0.0784
  902W        W 2099   7.155   3.099   6.142 -0.0802  0.1680 -0.0199
  903W        W 2100   4.060   4.980   2.611  0.0326  0.0360 -0.1918
  904W        W 2101   3.942   5.330   6.819 -0.1073 -0.0819 -0.1631
  905W        W 2102   6.934   2.953   5.267  0.0875 -0.0257  0.3519
  906W        W 2103   3.726   1.440   5.401  0.2449  0.0461  0.1851
  907W        W 2104   5.648   3.930   2.141 -0.1663  0.0553 -0.2691
  908W        W 2105   3.053   5.864   5.582 -0.0573  0.2709  0.0155
  909W        W 2106   2.934   1.855   1.242 -0.2849 -0.2221  0.1745
  910W        W 2107   2.922   4.740   5.248  0.1322 -0.0121 -0.1258
  911W        W 2108   2.777   4.382   4.928 -0.1148 -0.2381 -0.2977
  912W        W 2109   5.350   6.944   0.088  0.0834 -0.1692 -0.0917
  913W        W 2110   3.765   2.226   1.488 -0.0028 -0.1355  0.2576
  914W        W 2111   0.844   2.138   2.090  0.0046 -0.4153 -0.1375
  915W        W 2112   5.387   3.721   6.279  0.0516 -0.1247 -0.0858
  916W        W 2113   1.514   4.550   7.625  0.3905  0.2156  0.2066
  917W        W 2114   0.641   5.367   1.687  0.1012  0.1309  0.0357
  918W        W 2115   1.681   2.668   4.244  0.0570  0.0491 -0.0103
  919W        W 2116   3.850   4.170   7.050  0.0393 -0.3739 -0.0438
  920W        W 2117   5.539   5.909   0.344  0.0763  0.0540 -0.1921
  921W        W 2118   1.177   1.087   3.656 -0.2479 -0.2891  0.0552
  922W        W 2119   4.311   5.480   4.205  0.1848  0.0931  0.5382
  923W        W 2120   6.722   5.420   6.766  0.0486 -0.0657 -0.0818
  924W        W 2121   1.004   5.853   5.943  0.3602 -0.0976 -0.0047
  925W        W 2122   5.618   5.995   1.887  0.1679 -0.1045 -0.2387
  926W        W 2123   5.510   6.998   1.533 -0.2585  0.0546 -0.2270
  927W        W 2124   2.007   6.028   2.489 -0.1109  0.1517 -0.2962
  928W        W 2125   4.143   2.093   5.434  0.0019 -0.2006 -0.0067
  929W        W 2126   4.547   2.664   0.845 -0.0693 -0.1973 -0.1350
  930W        W 2127   1.545   5.835   4.805  0.0125 -0.1752 -0.1200
  931W        W 2128   5.830   1.189   3.282 -0.1023  0.1771  0.0803
  932W        W 2129   2.760   1.972   4.839  0.0796  0.2932 -0.5216
  933W        W 2130   1.067   0.980   4.158  0.0603 -0.4803 -0.2593
  934W        W 2131   5.921   0.977   2.830  0.0762 -0.1916 -0.0921
  935W        W 2132   2.265   5.229   7.356 -0.2834  0.1088 -0.2383
  936W        W 2133   4.555   6.100   3.233 -0.0220 -0.1255  0.2028
  937W        W 2134   1.079   7.396   4.627 -0.1316  0.0882 -0.0211
  938W        W 2135   3.705   6.506   5.046  0.0315  0.0820 -0.4482
  939W        W 2136   7.566   7.358   2.068  0.2417 -0.0050 -0.1040
  940W        W 2137   2.300   7.310   5.015  0.3674  0.0275 -0.0086
  941W        W 2138   4.775   6.559   2.992  0.1641 -0.2441 -0.0664
  942W        W 2139   4.652   6.158   6.962  0.0241  0.0067  0.0838
  943W        W 2140   0.720   5.574   1.049  0.0555 -0.0728  0.2739
  944W        W 2141   6.365   1.575   5.871 -0.2584  0.0415 -0.2941
  945W        W 2142   6.368   1.878   3.853 -0.2592 -0.2864  0.2476
  946W        W 2143   7.183   2.630   6.120  0.0212 -0.0031  0.2699
  947W        W 2144   6.523   7.316   5.824  0.1186  0.3076 -0.1839
  948W        W 2145   3.893   6.944   6.393  0.1970 -0.0251  0.1987
  949W        W 2146   6.670   0.664   2.224 -0.2533 -0.0486  0.2780
  950W        W 2147   1.459   7.049   3.761 -0.1047  0.2936  0.2464
  951W        W 2148   5.535   6.749   3.525  0.0384  0.0754  0.2509
  952W        W 2149   1.165   5.191   1.557 -0.1584 -0.0306  0.0091
  953W        W 2150   4.245   3.360   7.071  0.2393  0.1977  0.1794
  954W        W 2151   3.971   2.394   4.142  0.3169 -0.1668  0.3940
  955W        W 2152   5.843   6.255   3.773 -0.0667 -0.1061 -0.0286
  956W        W 2153   1.264   2.533   3.487 -0.0610 -0.1238 -0.0415
  957W        W 2154   4.962   1.008   3.667  0.1838 -0.0178  0.3387
  958W        W 2155   0.337   2.515   0.239  0.1343  0.1462 -0.2766
  959W        W 2156   6.963   6.403   0.684  0.0948  0.0419 -0.1850
  960W        W 2157   4.339   0.573   2.735  0.0779 -0.1529 -0.2375
  961W        W 2158   2.288   6.236   5.262 -0.1015 -0.4559 -0.0214
  962W        W 2159   0.195   6.062   7.548 -0.4266  0.2015  0.2735
  963W        W 2160   5.070   6.470   2.552  0.0592 -0.1682 -0.1451
  964W        W 2161   3.809   3.206   4.494 -0.0480  0.0176 -0.1289
  965W        W 2162   5.823   5.821   3.548  0.0711  0.0042  0.1450
  966W        W 2163   5.290   6.567   0.406 -0.0415 -0.0714  0.0241
  967W        W 2164   0.690   5.196   5.505 -0.1313 -0.0603 -0.1609
  968W        W 2165   2.743   7.109   0.032  0.2272  0.0341  0.0422
  969W        W 2166   7.313   1.787   1.520 -0.1110 -0.0653  0.0324
  970W        W 2167   4.559   1.015   2.742  0.1879 -0.1147 -0.4159
  971W        W 2168   2.383   5.673   1.337 -0.0020 -0.0603  0.2312
  972W        W 2169   7.043   2.816   7.208 -0.0871  0.1021 -0.0787
  973W        W 2170   1.377   5.652   3.766 -0.1633 -0.0533 -0.2373
  974W        W 2171   3.948   6.721   0.981  0.1682  0.0890 -0.3354
  975W        W 2172   5.637   1.142   6.174  0.0257  0.1779 -0.1302
  976W        W 2173   7.152   0.132   2.616 -0.0203  0.0703 -0.2872
  977W        W 2174   2.994   0.319   5.827  0.0269 -0.0553 -0.5349
  978W        W 2175   1.787   5.640   6.502 -0.1514 -0.0462  0.1044
  979W        W 2176   7.006   5.995   1.347 -0.0314 -0.1416 -0.0517
  980W        W 2177   1.894   2.158   2.342  0.3464 -0.0370 -0.0880
  981W        W 2178   6.353   4.667   5.773  0.0511  0.0085 -0.1227
  982W        W 2179   5.933   3.307   7.016  0.2470  0.4013 -0.0328
  983W        W 2180   0.158   4.320   1.483 -0.0829 -0.2596 -0.2617
  984W        W 2181   5.782   4.932   2.427 -0.1979  0.1486 -0.3174
  985W        W 2182   3.261   7.578   6.084 -0.0415 -0.1573  0.3321
  986W        W 2183   7.376   3.755   0.621  0.1286 -0.2302 -0.1039
  987W        W 2184   0.020   2.548   1.875  0.1536 -0.0515 -0.1507
  988W        W 2185   7.389   2.845   5.041  0.5072  0.2319  0.3682
  989W        W 2186   6.891   0.558   4.634 -0.2935  0.1964 -0.1837
  990W        W 2187   7.070   3.364   0.204 -0.0460  0.2952  0.0694
  991W        W 2188   4.787   5.594   6.170  0.0720  0.0007  0.1233
  992W        W 2189   6.968   6.433   7.566  0.0449 -0.0853 -0.0612
  993W        W 2190   5.191   3.447   7.355  0.1934 -0.0019  0.4376
  994W        W 2191   5.516   6.073   4.172  0.0533 -0.0931  0.1896
  995W        W 2192   5.885   2.146   7.400 -0.1626 -0.0552  0.0177
  996W        W 2193   6.719   3.186   1.990 -0.2860  0.1740  0.0251
  997W        W 2194   7.430   6.214   7.656  0.1428 -0.0303  0.3481
  998W        W 2195   3.046   1.847   3.260  0.3044 -0.2429  0.0694
  999W        W 2196   1.353   1.988   2.343 -0.0020  0.1498  0.0916
 1000W        W 2197   0.183   5.195   5.905  0.1113 -0.1014 -0.1110
 1001W        W 2198   4.158   3.907   4.885 -0.1788  0.2329  0.2674
 1002W        W 2199   1.936   1.593   6.265  0.3432  0.1826  0.0994
 1003W        W 2200   6.146   2.575   7.485  0.2213  0.0368 -0.1637
 1004W        W 2201   5.121   3.642   2.033 -0.2019 -0.2363  0.2155
 1005W        W 2202   3.803   3.643   3.366  0.4138 -0.1688  0.1218
 1006W        W 2203   1.642   4.606   0.708 -0.0846  0.1812  0.0305
 1007W        W 2204   2.510   6.738   5.161  0.0913  0.3528 -0.0944
 1008W        W 2205   2.784   7.467   6.317  0.0877 -0.0925 -0.2903
 1009W        W 2206   2.997   1.324   2.959  0.1883 -0.3943  0.1548
 1010W        W 2207   2.601   5.941   0.244  0.0431 -0.0780  0.2453
 1011W        W 2208   0.930   0.764   4.683 -0.2675  0.0246  0.0418
 1012W        W 2209   4.608   3.331   3.918  0.0467  0.0563 -0.0097
 1013W        W 2210   0.453   4.463   5.210 -0.0799  0.0505  0.2729
 1014W        W 2211   5.416   4.929   3.081 -0.0606  0.0044  0.0476
 1015W        W 2212   6.266   4.162   4.541  0.0920 -0.3009 -0.2393
 1016W        W 2213   5.626   7.655   3.071 -0.0644 -0.1593 -0.1045
 1017W        W 2214   0.758   5.102   1.251 -0.1489  0.1474  0.0389
 1018W        W 2215   7.564   0.819   2.209 -0.2745 -0.0164  0.1298
 1019W        W 2216   0.884   2.521   2.437 -0.2074  0.1959  0.3771
 1020W        W 2217   5.976   4.429   2.479 -0.2146  0.1083 -0.2009
 1021W        W 2218   3.871   5.024   0.508  0.0025  0.1686 -0.1216
 1022W        W 2219   7.651   2.660   2.971 -0.0155  0.0045  0.1833
 1023W        W 2220   3.067   3.035   4.992 -0.2385 -0.2154  0.0109
 1024W        W 2221   2.069   7.361   6.836  0.1126  0.1764  0.0589
 1025W        W 2222   0.957   1.647   7.201  0.1639 -0.0891 -0.3028
 1026W        W 2223   3.428   1.983   3.492 -0.3139 -0.2644  0.0003
 1027W        W 2224   1.091   2.935   3.236 -0.0550  0.1786 -0.3889
 1028W        W 2225   5.127   2.153   3.228  0.2579 -0.0038 -0.0099
 1029W        W 2226   5.658   3.489   1.829  0.0081 -0.3301 -0.1186
 1030W        W 2227   0.115   1.211   2.375 -0.0590  0.0463  0.0435
 1031W        W 2228   7.592   1.104   1.721  0.2157 -0.1471 -0.1167
 1032W        W 2229   0.316   2.649   7.458 -0.0583  0.1922  0.0230
 1033W        W 2230   6.982   5.058   0.699 -0.1741 -0.1762 -0.1647
 1034W        W 2231   0.270   7.312   2.659 -0.0095  0.0905  0.0300
 1035W        W 2232   3.375   5.666   5.174 -0.1086 -0.1422 -0.1706
 1036W        W 2233   6.515   5.198   2.568  0.2879 -0.1015 -0.1729
 1037W        W 2234   3.788   4.446   5.818 -0.2305 -0.1361 -0.0154
 1038W        W 2235   0.052   6.497   7.301 -0.0180  0.0926  0.2484
 1039W        W 2236   6.852   1.945   7.241  0.2518 -0.1100  0.0929
 1040W        W 2237   0.437   2.675   2.207 -0.0161 -0.1357  0.2249
 1041W        W 2238   7.310   4.793   6.775 -0.2170  0.0064 -0.0539
 1042W        W 2239   2.526   1.198   3.769 -0.1598  0.0125 -0.1843
 1043W        W 2240   6.003   3.377   6.213 -0.2860  0.2344  0.3600
 1044W        W 2241   1.962   1.378   4.925  0.1210 -0.0916  0.0627
 1045W        W 2242   6.191   5.985   5.544 -0.1523 -0.1063 -0.2883
 1046W        W 2243   4.244   6.131   7.194  0.0795  0.0599 -0.2420
 1047W        W 2244   2.940   6.718   7.290 -0.0824 -0.0660 -0.0311
 1048W        W 2245   1.148   7.446   3.659  0.2280  0.0454 -0.1673
 1049W        W 2246   6.883   4.828   2.398  0.3374 -0.0952  0.0915
 1050W        W 2247   5.528   3.188   1.374  0.2620  0.2447 -0.0581
 1051W        W 2248   6.096   0.005   6.299  0.3161  0.0323  0.0538
 1052W        W 2249   3.394   7.161   6.892 -0.1620  0.0410  0.1294
 1053W        W 2250   5.500   3.053   4.401  0.2330  0.1294  0.0762
 1054W        W 2251   3.803   5.089   7.227  0.1141 -0.1631  0.0648
 1055W        W 2252   4.466   7.239   3.137  0.0206 -0.1999  0.1675
 1056W        W 2253   6.620   1.773   6.256  0.0354  0.2474  0.0480
 1057W        W 2254   2.542   6.146   6.190  0.0664 -0.2475  0.0185
 1058W        W 2255   2.291   2.360   2.561  0.0730  0.1254  0.0104
 1059W        W 2256   6.110   0.229   2.995 -0.2612 -0.2114  0.2906
 1060W        W 2257   1.120   2.840   4.662 -0.1454  0.3033 -0.2968
 1061W        W 2258   3.338   3.615   0.953 -0.1663 -0.0801 -0.0063
 1062W        W 2259   7.369   4.559   0.868  0.2328  0.0773 -0.4170
 1063W        W 2260   2.717   5.474   5.584 -0.0986 -0.0161  0.0385
 1064W        W 2261   6.232   5.961   6.327  0.0679 -0.3187 -0.0176
 1065W        W 2262   5.962   6.895   5.278 -0.1735 -0.3470  0.0286
 1066W        W 2263   3.307   3.608   1.459  0.0607 -0.1739  0.0435
 1067W        W 2264   0.931   5.767   2.901 -0.1540  0.1842  0.1764
 1068W        W 2265   3.562   7.310   2.960  0.1597  0.2850 -0.2766
 1069W        W 2266   3.925   4.960   3.385 -0.0722  0.1779 -0.0265
 1070W        W 2267   4.614   5.934   6.489  0.0332  0.1126  0.1985
 1071W        W 2268   1.824   5.222   3.658  0.0901  0.0536  0.1584
 1072W        W 2269   7.080   4.407   7.149 -0.0720  0.0086  0.2116
 1073W        W 2270   0.416   6.640   5.497 -0.1376  0.2468 -0.0103
 1074W        W 2271   4.221   1.615   3.746 -0.1709  0.0235  0.2607
 1075W        W 2272   3.237   5.510   6.510 -0.0027  0.2313 -0.0386
 1076W        W 2273   3.627   7.254   7.373 -0.3439  0.1570 -0.1853
 1077W        W 2274   4.006   1.527   1.932  0.1512 -0.2997  0.0906
 1078W        W 2275   4.314   2.118   5.895  0.0127  0.1544  0.2585
 1079W        W 2276   4.834   2.884   3.287  0.2118 -0.3115 -0.0162
 1080W        W 2277   0.409   5.784   3.337 -0.1592 -0.2370 -0.0072
 1081W        W 2278   6.279   4.888   0.709  0.1921 -0.1415  0.1971
 1082W        W 2279   0.833   3.917   6.944  0.2628 -0.0537 -0.2419
 1083W        W 2280   3.384   6.124   2.819  0.0424  0.2170  0.0912
 1084W        W 2281   0.398   4.320   1.006 -0.1260  0.2215 -0.1508
 1085W        W 2282   1.918   5.925   4.470  0.4839 -0.1689 -0.2694
 1086W        W 2283   0.568   3.810   6.514  0.1227  0.0496 -0.0451
 1087W        W 2284   7.068   3.872   7.069  0.0906  0.1088 -0.1222
 1088W        W 2285   0.220   3.875   0.799  0.2869 -0.0675 -0.0429
 1089W        W 2286   3.925   0.491   3.889 -0.1755 -0.0058  0.0453
 1090W        W 2287   0.771   7.198   0.609 -0.2227  0.1822  0.0823
 1091W        W 2288   5.443   0.330   4.146  0.1227 -0.1360 -0.1309
 1092W        W 2289   5.652   4.732   1.139 -0.1459 -0.2382 -0.1222
 1093W        W 2290   7.540   5.086   7.627 -0.3529  0.0235 -0.1506
 1094W        W 2291   1.830   4.407   7.134 -0.0264  0.0170  0.0962
 1095W        W 2292   2.664   2.528   7.523 -0.2966  0.1056  0.1323
 1096W        W 2293   1.591   4.044   7.398  0.1325  0.1882 -0.2516
 1097W        W 2294   4.167   7.088   1.304 -0.0225 -0.1446 -0.0828
 1098W        W 2295   5.001   6.676   6.161  0.3064  0.1164 -0.2520
 1099W        W 2296   2.949   4.293   3.361  0.0339 -0.0283  0.3041
 1100W        W 2297   5.578   2.757   5.658  0.1681  0.0618 -0.1807
 1101W        W 2298   3.780   3.401   0.851 -0.0197  0.0805  0.2809
 1102W        W 2299   1.769   4.340   6.643 -0.1505  0.2389  0.2878
 1103W        W 2300   6.361   7.592   1.798  0.0494  0.3146  0.3790
 1104W        W 2301   4.199   2.238   6.346  0.0750 -0.0702 -0.2342
 1105W        W 2302   6.768   7.219   2.106  0.2724  0.0021 -0.2691
 1106W        W 2303   0.086   7.506   7.025  0.0442  0.1250  0.0724
 1107W        W 2304   6.898   7.416   5.027 -0.2460  0.0830  0.2328
 1108W        W 2305   2.052   6.916   6.580 -0.2318  0.0598  0.0942
 1109W        W 2306   5.936   6.000   0.627  0.2349  0.1444 -0.2889
 1110W        W 2307   4.914   5.325   5.727 -0.3029  0.0409 -0.1498
 1111W        W 2308   3.199   4.775   6.325 -0.0342  0.0837 -0.0501
 1112W        W 2309   2.475   0.204   6.144  0.2823 -0.1120  0.3032
 1113W        W 2310   1.664   7.415   2.049 -0.0419 -0.2282  0.2718
 1114W        W 2311   0.688   4.419   7.141 -0.0106  0.0117  0.2717
 1115W        W 2312   2.917   5.405   0.552  0.1821  0.5137  0.3111
 1116W        W 2313   7.079   1.085   2.813  0.0799 -0.5625 -0.0361
 1117W        W 2314   2.811   5.648   1.001 -0.1317 -0.0461 -0.1033
 1118W        W 2315   6.976   2.475   5.095 -0.4368  0.0100 -0.0320
 1119W        W 2316   1.992   6.677   7.544  0.0960  0.1107 -0.1303
 1120W        W 2317   2.068   4.985   1.447 -0.0113 -0.0154  0.0519
 1121W        W 2318   1.499   6.565   0.576  0.2765 -0.0530  0.3325
 1122W        W 2319   3.646   7.310   5.253  0.1611  0.0455 -0.2298
 1123W        W 2320   0.323   2.549   3.370 -0.2231  0.0810  0.1409
 1124W        W 2321   4.026   5.086   6.316  0.3265 -0.0995 -0.3881
 1125W        W 2322   4.077   2.529   0.753  0.1328 -0.0207  0.0857
 1126W        W 2323   6.072   7.167   2.534 -0.0498  0.2168 -0.1689
 1127W        W 2324   3.724   6.544   0.082  0.2132  0.1859 -0.0719
 1128W        W 2325   5.096   6.322   3.856  0.1453 -0.0383 -0.0671
 1129W        W 2326   3.504   6.657   5.961 -0.0141  0.1470  0.2598
 1130W        W 2327   7.613   7.008   7.083 -0.0368  0.4637 -0.1759
 1131W        W 2328   0.555   0.876   4.995 -0.0514 -0.1346  0.3705
 1132W        W 2329   6.832   7.675   6.892  0.0905 -0.3148 -0.2202
 1133W        W 2330   2.731   5.286   4.323  0.1843 -0.2448  0.2840
 1134W        W 2331   5.758   5.183   1.939 -0.1020 -0.0006 -0.0642
 1135W        W 2332   4.253   6.298   5.730  0.0200  0.0697 -0.0389
 1136W        W 2333   6.841   2.223   5.938 -0.0264 -0.2894 -0.0089
 1137W        W 2334   4.201   6.344   4.167  0.1037  0.2835  0.0505
 1138W        W 2335   1.798   1.790   4.479  0.1713 -0.0138  0.0029
 1139W        W 2336   1.671   2.799   2.103 -0.1610 -0.1541 -0.1612
 1140W        W 2337   0.993   2.570   6.771  0.0777 -0.4474  0.2036
 1141W        W 2338   5.612   1.155   4.289  0.0795 -0.0174 -0.0858
 1142W        W 2339   5.715   6.404   0.243 -0.0238 -0.0261 -0.0059
 1143W        W 2340   5.941   6.705   7.601 -0.0120 -0.1515  0.2297
 1144W        W 2341   2.241   2.768   2.874 -0.2016  0.1250  0.0526
 1145W        W 2342   5.142   1.817   5.691  0.1628  0.2371 -0.3600
 1146W        W 2343   0.384   2.112   3.041  0.1730 -0.0846  0.0451
 1147W        W 2344   7.462   5.356   6.191 -0.3703 -0.4434  0.0116
 1148W        W 2345   4.427   4.416   5.748 -0.2661  0.0095 -0.1097
 1149W        W 2346   6.769   0.097   3.018 -0.0065 -0.0514  0.0080
 1150W        W 2347   1.018   1.145   2.599  0.1646 -0.0738  0.1849
 1151W        W 2348   4.294   3.000   4.640 -0.0843 -0.1229 -0.1783
 1152W        W 2349   4.718   5.486   3.867 -0.0807  0.0704  0.1217
 1153W        W 2350   5.875   6.582   6.132  0.0605 -0.0032 -0.0852
 1154W        W 2351   3.852   0.470   6.687  0.1703  0.0248 -0.2915
 1155W        W 2352   7.178   5.272   6.842 -0.2850 -0.0862 -0.0378
 1156W        W 2353   4.368   5.705   6.916  0.1154 -0.1421 -0.1006
 1157W        W 2354   6.351   0.684   2.888 -0.1988  0.0524  0.0703
 1158W        W 2355   4.816   6.129   7.481 -0.0851  0.1308 -0.3796
 1159W        W 2356   3.528   4.991   3.826  0.1049 -0.0050  0.1690
 1160W        W 2357   5.330   5.426   6.689 -0.1209  0.0201  0.0548
 1161W        W 2358   6.877   6.195   2.659  0.0158 -0.0767  0.2147
 1162W        W 2359   6.378   1.106   4.447  0.0943  0.2543 -0.1504
 1163W        W 2360   3.065   4.554   4.314 -0.1518 -0.0203  0.1042
 1164W        W 2361   1.251   4.692   0.389  0.1984  0.2527 -0.0145
 1165W        W 2362   2.248   0.527   6.609  0.0349  0.1083  0.4197
 1166W        W 2363   5.997   3.012   4.016 -0.1663 -0.0182  0.1876
 1167W        W 2364   3.485   0.509   5.670  0.0391  0.1079  0.2936
 1168W        W 2365   2.071   3.006   4.374 -0.0571 -0.1786 -0.3231
 1169W        W 2366   5.294   3.627   5.670  0.0395 -0.4684 -0.0424
 1170W        W 2367   6.120   1.775   5.366 -0.1103 -0.4503  0.3915
 1171W        W 2368   4.605   1.983   6.440 -0.1489 -0.3014 -0.0128
 1172W        W 2369   0.709   3.637   7.407  0.0196 -0.2098 -0.1161
 1173W        W 2370   6.623   3.206   6.585 -0.1802 -0.2733 -0.0937
 1174W        W 2371   3.069   2.600   1.760  0.3531 -0.1723 -0.2647
 1175W        W 2372   5.482   2.140   3.652 -0.1542 -0.2510 -0.2934
 1176W        W 2373   0.099   2.452   5.602 -0.1248  0.2831  0.1030
 1177W        W 2374   1.846   0.268   5.000  0.1298 -0.1438  0.3076
 1178W        W 2375   1.062   2.900   2.782  0.0230  0.1005  0.2927
 1179W        W 2376   0.382   5.113   0.907 -0.1556  0.2102  0.3107
 1180W        W 2377   0.069   4.202   0.040 -0.0025 -0.0913  0.4903
 1181W        W 2378   3.560   4.177   4.070  0.1150 -0.0539  0.0890
 1182W        W 2379   3.333   2.988   2.125 -0.0927 -0.1474  0.1750
 1183W        W 2380   2.875   6.203   4.285  0.0801  0.2065 -0.0810
 1184W        W 2381   4.604   4.615   4.261  0.1408 -0.0056  0.0836
 1185W        W 2382   3.253   2.227   2.266  0.1810  0.2939  0.0369
 1186W        W 2383   6.396   2.498   0.325  0.0935 -0.0314 -0.3739
 1187W        W 2384   5.021   3.068   1.338  0.1740  0.3202 -0.0551
 1188W        W 2385   7.652   6.998   2.449  0.1326 -0.1114 -0.2766
 1189W        W 2386   2.873   2.818   0.343  0.2288  0.0038 -0.0004
 1190W        W 2387   4.333   3.714   3.135 -0.0442  0.0759 -0.2880
 1191W        W 2388   7.593   1.807   2.373 -0.1483  0.1593  0.0846
 1192W        W 2389   0.021   1.735   3.210 -0.0283 -0.0939  0.1001
 1193W        W 2390   6.567   0.555   4.254  0.0696 -0.1749  0.0883
 1194W        W 2391   6.907   0.572   2.798 -0.1082 -0.0853  0.0488
 1195W        W 2392   5.897   3.068   0.929 -0.0152  0.1390  0.0296
 1196W        W 2393   1.309   4.442   6.415 -0.1217  0.2535  0.2870
 1197W        W 2394   6.791   4.569   0.789  0.1907  0.4652 -0.0872
 1198W        W 2395   6.751   5.413   7.283 -0.1209  0.0261  0.2136
 1199W        W 2396   1.938   3.326   3.461 -0.1383 -0.2399 -0.0656
 1200W        W 2397   1.479   1.791   4.079 -0.1691 -0.0526 -0.0532
 1201W        W 2398   7.282   2.341   6.507  0.0234  0.0356  0.0795
 1202W        W 2399   4.446   6.575   7.209 -0.1582  0.1057 -0.2395
 1203W        W 2400   3.052   5.272   6.094  0.3573 -0.2109 -0.1292
 1204W        W 2401   0.726   7.228   5.335 -0.0262  0.1989 -0.0786
 1205W        W 2402   3.533   5.157   2.518 -0.4897 -0.2650 -0.3159
 1206W        W 2403   5.708   5.610   0.962  0.2196 -0.2106 -0.2049
 1207W        W 2404   5.770   7.379   3.550 -0.0231 -0.0850 -0.0155
 1208W        W 2405   6.635   6.002   4.094 -0.3567 -0.1253  0.2460
 1209W        W 2406   7.004   2.396   2.145  0.0616 -0.2180  0.2003
 1210W        W 2407   7.179   0.584   5.177 -0.0029  0.2668 -0.0979
 1211W        W 2408   5.921   4.421   7.476 -0.0069  0.0191 -0.4262
 1212W        W 2409   1.255   0.825   2.892  0.3068  0.5751 -0.2441
 1213W        W 2410   1.139   4.359   5.879 -0.0517  0.2020 -0.0838
 1214W        W 2411   5.729   6.112   6.466 -0.2815 -0.0275  0.3066
 1215W        W 2412   7.010   7.231   2.972 -0.3131  0.0597 -0.5058
 1216W        W 2413   5.830   7.589   2.631 -0.2041 -0.2146 -0.0516
 1217W        W 2414   1.283   4.581   1.851 -0.0747 -0.1375 -0.0413
 1218W        W 2415   3.803   5.085   5.228 -0.0780  0.4138 -0.0736
 1219W        W 2416   7.500   3.244   0.499  0.0518 -0.0575  0.0494
 1220W        W 2417   1.361   3.826   0.617  0.0113  0.1521 -0.2725
 1221W        W 2418   7.210   0.674   4.223  0.2240 -0.0427 -0.0256
 1222W        W 2419   2.229   6.448   7.078  0.1785  0.0391 -0.2500
 1223W        W 2420   2.201   2.031   4.244  0.3084 -0.2450  0.5016
 1224W        W 2421   7.222   6.820   7.450  0.4276 -0.4344 -0.0219
 1225W        W 2422   4.729   2.189   5.209 -0.2081  0.4333 -0.2670
 1226W        W 2423   0.281   3.815   1.378  0.1533 -0.1327 -0.3871
 1227W        W 2424   1.937   4.661   3.504  0.0656  0.1544  0.0109
 1228W        W 2425   2.549   5.024   3.267  0.1178 -0.2275  0.1475
 1229W        W 2426   6.527   7.412   6.346  0.1614  0.0199  0.1440
 1230W        W 2427   4.522   6.740   1.841 -0.0047 -0.1421 -0.0295
 1231W        W 2428   5.144   6.890   5.004  0.1700 -0.2757  0.2036
 1232W        W 2429   1.024   7.497   7.613  0.2637 -0.0235  0.2086
 1233W        W 2430   2.552   6.123   6.777 -0.0959 -0.0282 -0.1722
 1234W        W 2431   4.742   1.577   4.415  0.2814  0.0707  0.1698
 1235W        W 2432   5.915   3.490   4.196 -0.3550 -0.1024  0.3882
 1236W        W 2433   5.814   3.464   3.708 -0.4887 -0.0031  0.0270
 1237W        W 2434   1.333   4.253   0.827  0.0045  0.1929 -0.1527
 1238W        W 2435   0.247   4.035   2.630 -0.0780  0.1130 -0.0310
 1239W        W 2436   0.260   5.098   1.577  0.0890 -0.1117 -0.0964
 1240W        W 2437   0.716   0.819   2.868 -0.2807 -0.0748 -0.1336
 1241W        W 2438   6.040   3.692   2.441 -0.1970 -0.1132  0.0447
 1242W        W 2439   0.384   2.769   4.244  0.0115 -0.1635  0.3006
 1243W        W 2440   7.016   5.709   6.012 -0.3786  0.0645  0.0786
 1244W        W 2441   4.875   2.295   0.672  0.2033  0.0815  0.1021
 1245W        W 2442   5.349   7.398   2.732  0.3562  0.1149  0.0618
 1246W        W 2443   4.167   1.616   5.670  0.0710  0.4183  0.0528
 1247W        W 2444   3.522   7.293   6.394 -0.1239  0.0812 -0.1147
 1248W        W 2445   1.388   5.689   7.518 -0.0026 -0.2366  0.1048
 1249W        W 2446   0.270   1.061   3.840 -0.0961  0.0409 -0.2306
 1250W        W 2447   7.030   1.361   3.209  0.0251 -0.0203 -0.1849
 1251W        W 2448   6.710   5.809   0.981 -0.1548  0.1984 -0.0009
 1252W        W 2449   6.315   1.080   3.199  0.2205  0.0086 -0.3892
 1253W        W 2450   0.895   5.888   3.480 -0.1341  0.1178 -0.2137
 1254W        W 2451   4.074   1.231   1.447  0.2444  0.1800  0.0213
 1255W        W 2452   1.648   5.871   2.183  0.0162 -0.2619 -0.1484
 1256W        W 2453   0.170   6.229   6.865  0.2601  0.1327 -0.0185
 1257W        W 2454   3.636   2.298   2.894  0.0472  0.1618 -0.2724
 1258W        W 2455   2.039   5.589   2.146 -0.0488  0.0968 -0.1725
 1259W        W 2456   3.517   3.708   5.178 -0.0415 -0.0836 -0.1846
 1260W        W 2457   0.345   6.583   4.605 -0.1212  0.0020 -0.1399
 1261W        W 2458   6.090   1.972   2.011 -0.0628  0.4482  0.2483
 1262W        W 2459   5.324   0.213   3.513 -0.1579  0.2837  0.3772
 1263W        W 2460   3.147   6.279   7.000  0.0871 -0.0069  0.1644
 1264W        W 2461   4.299   1.203   2.234 -0.3444 -0.2759 -0.3174
 1265W        W 2462   4.086   1.844   4.158 -0.3358 -0.0208  0.1865
 1266W        W 2463   1.309   2.031   5.148 -0.0042  0.2540 -0.1244
 1267W        W 2464   6.194   3.845   1.405  0.0521  0.1337 -0.1684
 1268W        W 2465   4.471   7.228   1.704  0.0074 -0.1944  0.0835
 1269W        W 2466   3.709   7.576   3.388  0.0169 -0.0141  0.0539
 1270W        W 2467   7.347   3.540   5.939 -0.1098  0.1196 -0.0936
 1271W        W 2468   0.746   7.614   1.590 -0.0403  0.0148 -0.0604
 1272W        W 2469   3.402   1.236   4.122  0.3587  0.0265  0.1735
 1273W        W 2470   1.461   3.895   3.688  0.0009  0.0723  0.0741
 1274W        W 2471   1.876   3.527   1.326  0.0309  0.2017  0.1915
 1275W        W 2472   5.757   6.945   0.324 -0.2356  0.2699 -0.0910
 1276W        W 2473   7.278   0.183   4.871  0.3788 -0.1544  0.4577
 1277W        W 2474   1.866   2.593   3.764  0.2643 -0.0775  0.1546
 1278W        W 2475   2.918   3.156   3.227  0.4374  0.1986  0.0077
 1279W        W 2476   0.038   1.512   6.101 -0.0331 -0.1901 -0.0032
 1280W        W 2477   3.690   2.768   1.248 -0.0963  0.3470 -0.1257
 1281W        W 2478   6.248   0.529   6.158 -0.0613 -0.1611 -0.2571
 1282W        W 2479   0.238   2.273   0.831  0.1661  0.0987  0.0826
 1283W        W 2480   5.276   3.105   1.831 -0.0287  0.2482  0.1472
 1284W        W 2481   7.261   7.661   1.239  0.3188 -0.2649  0.0988
 1285W        W 2482   7.645   3.233   4.179 -0.3140 -0.0023 -0.0265
 1286W        W 2483   6.460   6.509   2.639 -0.0039  0.1805 -0.0142
 1287W        W 2484   4.252   6.730   3.844  0.0622  0.1400  0.1476
 1288W        W 2485   3.581   3.271   4.987  0.0497 -0.0253  0.2246
 1289W        W 2486   5.018   0.120   4.218  0.0294  0.2073  0.0816
 1290W        W 2487   2.964   0.066   0.663 -0.0063  0.0013  0.0534
 1291W        W 2488   4.099   1.932   2.289  0.1436  0.1480 -0.3355
 1292W        W 2489   7.527   5.006   5.597  0.1254  0.1297 -0.0705
 1293W        W 2490   5.565   2.610   3.890  0.0308 -0.0362  0.1185
 1294W        W 2491   5.098   2.749   4.047  0.0517  0.0430  0.0861
 1295W        W 2492   0.420   5.975   1.018 -0.1836  0.1553  0.3279
 1296W        W 2493   6.416   5.433   3.036 -0.1251 -0.3728 -0.0397
 1297W        W 2494   3.790   1.413   5.904  0.0447 -0.0156  0.0245
 1298W        W 2495   2.682   6.654   2.307  0.2695 -0.1053  0.0126
 1299W        W 2496   7.164   0.511   6.816  0.1849  0.3874  0.0329
 1300W        W 2497   5.994   5.731   5.941 -0.0012  0.1503 -0.0823
 1301W        W 2498   5.205   6.079   2.175  0.0586 -0.0192 -0.0186
 1302W        W 2499   3.569   6.197   6.028  0.1257  0.2154 -0.0323
 1303W        W 2500   6.585   6.298   2.236 -0.1242 -0.0314  0.0632
 1304W        W 2501   4.080   0.765   1.623  0.2215  0.0456 -0.2219
 1305W        W 2502   5.988   1.912   5.850  0.1723 -0.2768 -0.0122
 1306W        W 2503   0.208   0.129   2.941 -0.1671  0.0637 -0.0204
 1307W        W 2504   7.490   7.678   6.141 -0.4431  0.2060 -0.0152
 1308W        W 2505   1.061   6.685   1.799  0.2192 -0.0431  0.1583
 1309W        W 2506   1.873   5.443   3.099 -0.1863  0.2603 -0.2178
 1310W        W 2507   0.005   0.459   2.503  0.4008 -0.2792  0.0044
 1311W        W 2508   1.759   1.114   6.132 -0.4105 -0.2492  0.3120
 1312W        W 2509   3.342   2.858   0.147  0.1416 -0.2554  0.3426
 1313W        W 2510   2.746   4.295   3.984 -0.0577  0.1420  0.2368
 1314W        W 2511   0.817   5.592   6.377  0.0050 -0.1119  0.0122
 1315W        W 2512   1.168   6.638   6.922  0.2246  0.0896 -0.0561
 1316W        W 2513   4.974   1.577   4.860  0.0084  0.0177 -0.0633
 1317W        W 2514   6.525   6.166   3.600  0.1588 -0.0650 -0.3290
 1318W        W 2515   5.037   6.805   3.900 -0.1477  0.0211 -0.0104
 1319W        W 2516   3.148   2.277   5.068  0.0864 -0.1626  0.1489
 1320W        W 2517   0.022   2.755   5.954  0.0859  0.1679  0.0091
 1321W        W 2518   4.684   7.508   5.845 -0.1963 -0.0863 -0.1347
 1322W        W 2519   5.377   1.080   2.029  0.1700  0.0227  0.1103
 1323W        W 2520   4.452   7.002   6.128 -0.0927  0.0193  0.2336
 1324W        W 2521   1.883   2.363   1.886 -0.1533  0.2527 -0.0250
 1325W        W 2522   6.354   7.498   2.831  0.0309  0.0467 -0.2205
 1326W        W 2523   5.284   3.950   6.774 -0.1482 -0.3460 -0.0095
 1327W        W 2524   2.881   2.151   1.880 -0.0523 -0.0875  0.0031
 1328W        W 2525   1.515   5.419   1.277  0.2489 -0.0262  0.1573
 1329W        W 2526   3.065   1.491   4.704 -0.1936 -0.2030  0.0703
 1330W        W 2527   1.790   4.843   0.277  0.1364 -0.0563 -0.2019
 1331W        W 2528   7.412   3.701   2.635 -0.2085 -0.0036  0.1357
 1332W        W 2529   3.222   0.035   3.429 -0.0358  0.1708  0.0386
 1333W        W 2530   3.836   5.487   2.770  0.0749  0.0198 -0.0809
 1334W        W 2531   4.564   0.574   4.871 -0.0621  0.2347  0.1800
 1335W        W 2532   0.248   7.281   3.194 -0.0288  0.3535 -0.1803
 1336W        W 2533   0.022   6.807   3.359 -0.2128 -0.0764 -0.2294
 1337W        W 2534   6.749   1.040   4.017  0.2734 -0.1899  0.0009
 1338W        W 2535   7.569   7.230   6.517  0.0409 -0.0402 -0.1038
 1339W        W 2536   3.721   5.559   6.472 -0.1637 -0.1409 -0.2509
 1340W        W 2537   5.297   5.203   0.874 -0.0965 -0.1890  0.0211
 1341W        W 2538   5.544   0.696   3.389  0.3761 -0.0174  0.0954
 1342W        W 2539   3.629   3.868   1.907 -0.0169  0.1439 -0.3923
 1343W        W 2540   6.654   0.716   6.374  0.2416 -0.0166 -0.0106
 1344W        W 2541   6.437   3.695   3.488 -0.3044  0.0621  0.1296
 1345W        W 2542   1.255   0.546   4.365 -0.1656 -0.1021  0.2886
 1346W        W 2543   5.124   5.783   4.007  0.3689  0.1716 -0.1700
 1347W        W 2544   1.748   3.664   2.810 -0.0173 -0.1828 -0.0351
 1348W        W 2545   1.638   7.148   0.308  0.0743 -0.3743 -0.1285
 1349W        W 2546   6.496   6.723   6.785  0.2397 -0.0248 -0.0946
 1350W        W 2547   3.315   6.376   4.669  0.0710 -0.5446 -0.1883
 1351W        W 2548   0.181   0.632   3.049 -0.0081 -0.0421  0.2346
 1352W        W 2549   3.496   0.132   5.163 -0.1269 -0.2118  0.0485
 1353W        W 2550   0.522   1.658   3.262 -0.2380 -0.0091 -0.0190
 1354W        W 2551   0.163   6.705   0.605 -0.0234 -0.0989  0.1011
 1355W        W 2552   7.134   0.650   2.331  0.1104  0.0458  0.0751
 1356W        W 2553   0.221   1.858   1.763 -0.4055  0.1706 -0.1203
 1357W        W 2554   3.812   2.844   2.272  0.0774  0.1120 -0.1495
 1358W        W 2555   1.640   3.831   5.239  0.1123 -0.0954 -0.1733
 1359W        W 2556   3.129   6.168   0.901 -0.0492 -0.0459 -0.0763
 1360W        W 2557   5.774   6.916   4.407 -0.3455 -0.1134  0.0241
 1361W        W 2558   4.920   6.411   6.565  0.0038  0.1051 -0.1756
 1362W        W 2559   4.396   0.080   5.212  0.0839  0.1129  0.2536
 1363W        W 2560   2.261   7.500   5.830 -0.3133 -0.0068  0.1426
 1364W        W 2561   2.284   6.821   1.762  0.0870  0.2084  0.2174
 1365W        W 2562   4.483   7.368   2.611 -0.0338 -0.2645 -0.0603
 1366W        W 2563   4.805   4.965   0.635 -0.3876 -0.0013 -0.0857
 1367W        W 2564   0.711   7.495   4.372  0.1673 -0.1960  0.1084
 1368W        W 2565   0.952   5.925   7.429  0.1514  0.1355 -0.1875
 1369W        W 2566   3.378   6.635   3.556 -0.0093  0.1443 -0.2110
 1370W        W 2567   5.554   3.723   7.085  0.2334  0.0684 -0.0747
 1371W        W 2568   0.147   2.659   6.855 -0.1653  0.0189 -0.0852
 1372W        W 2569   2.081   1.982   5.381 -0.1919  0.1169  0.1933
 1373W        W 2570   4.967   5.232   7.106 -0.0112  0.0538  0.0322
 1374W        W 2571   4.000   0.011   3.789 -0.0609  0.3042  0.1686
 1375W        W 2572   6.877   6.769   2.470  0.1431 -0.0866  0.0563
 1376W        W 2573   5.567   6.446   1.629 -0.1875  0.0989 -0.1979
 1377W        W 2574   4.945   7.375   0.115  0.1773  0.0610 -0.0921
 1378W        W 2575   0.721   0.840   3.819  0.3657 -0.0007 -0.0704
 1379W        W 2576   3.650   4.897   2.975 -0.0976  0.6490 -0.1323
 1380W        W 2577   5.893   6.652   4.846 -0.1738 -0.2173  0.1316
 1381W        W 2578   5.388   3.013   0.917 -0.0416 -0.0955  0.1295
 1382W        W 2579   7.229   6.918   6.719  0.0341 -0.4026  0.0604
 1383W        W 2580   5.757   5.857   2.840 -0.0035 -0.0846  0.0812
 1384W        W 2581   6.198   1.147   5.555 -0.2012  0.1096  0.3607
 1385W        W 2582   0.559   6.697   7.457 -0.0259  0.0063 -0.2405
 1386W        W 2583   4.178   1.331   5.177 -0.1600  0.0789  0.2424
 1387W        W 2584   3.555   3.186   2.593 -0.3339 -0.0747 -0.2055
 1388W        W 2585   1.596   2.001   3.612 -0.0395  0.1006  0.0018
 1389W        W 2586   2.676   3.398   1.607  0.2403 -0.0160  0.1349
 1390W        W 2587   3.517   7.276   4.457  0.0809  0.1702  0.1446
 1391W        W 2588   5.851   2.091   6.364  0.0824  0.0676 -0.1960
 1392W        W 2589   3.072   7.270   0.439  0.1744  0.2444  0.1711
 1393W        W 2590   3.139   2.792   2.940 -0.1068  0.1434 -0.2320
 1394W        W 2591   2.017   3.048   5.792  0.1200 -0.1640  0.1969
 1395W        W 2592   1.630   6.221   5.897  0.3727 -0.2990  0.1659
 1396W        W 2593   0.071   1.070   4.785 -0.1305 -0.1903 -0.2724
 1397W        W 2594   3.349   1.425   2.549  0.0674  0.0517 -0.1383
 1398W        W 2595   3.654   2.467   3.353  0.0539 -0.2333 -0.0542
 1399W        W 2596   3.545   3.841   7.328 -0.3766 -0.2526  0.0627
 1400W        W 2597   4.544   4.596   5.287 -0.0855 -0.1262  0.0017
 1401W        W 2598   5.721   5.808   5.554 -0.2444  0.1009 -0.2728
 1402W        W 2599   2.387   6.993   2.644  0.0251 -0.2290 -0.1421
 1403W        W 2600   1.490   1.473   4.839 -0.0549  0.2887 -0.3033
 1404W        W 2601   6.659   5.718   6.378 -0.1606  0.2193 -0.0718
 1405W        W 2602   7.163   0.802   5.678  0.0287  0.1787 -0.5342
 1406W        W 2603   4.794   3.135   1.861  0.0054  0.3188  0.3013
 1407W        W 2604   3.334   0.779   5.260  0.2618 -0.2203  0.2525
 1408W        W 2605   6.279   4.383   0.674  0.0731 -0.0595 -0.0865
 1409W        W 2606   0.236   2.161   2.131 -0.2359 -0.0669 -0.4110
 1410W        W 2607   1.036   0.216   6.210  0.1032  0.0661  0.0863
 1411W        W 2608   1.574   1.302   4.068 -0.1157  0.2557 -0.0578
 1412W        W 2609   6.225   5.182   2.143 -0.0236 -0.0831 -0.1884
 1413W        W 2610   6.685   4.093   0.809  0.1776  0.2060 -0.2609
 1414W        W 2611   0.352   0.663   4.616  0.2678  0.2838  0.1502
 1415W        W 2612   7.283   3.916   2.061 -0.1154 -0.2549  0.1999
 1416W        W 2613   6.351   1.593   4.440  0.1541  0.0613  0.0482
 1417W        W 2614   0.434   7.051   2.164  0.1862  0.2892  0.1754
 1418W        W 2615   5.524   0.853   5.071 -0.5102 -0.0825 -0.0614
 1419W        W 2616   5.355   0.045   0.318  0.3570  0.0200 -0.1592
 1420W        W 2617   3.117   2.390   3.397 -0.0061  0.2018  0.1109
 1421W        W 2618   2.859   4.106   6.592  0.0275 -0.0219  0.0293
 1422W        W 2619   4.743   6.444   0.187 -0.0120  0.0526 -0.2907
 1423W        W 2620   6.767   0.923   1.780 -0.1396  0.0643 -0.1648
 1424W        W 2621   4.511   2.689   7.447 -0.1997  0.0902  0.2603
 1425W        W 2622   3.184   0.631   3.764 -0.0557 -0.1803  0.0215
 1426W        W 2623   2.600   3.941   2.122 -0.3141  0.4006 -0.2235
 1427W        W 2624   0.708   4.920   1.975 -0.0983  0.1274 -0.0593
 1428W        W 2625   4.493   4.374   0.142  0.2468  0.0950 -0.1305
 1429W        W 2626   6.898   1.886   3.757 -0.2120 -0.2126 -0.0526
 1430W        W 2627   2.241   5.358   3.453  0.1154  0.1104  0.2683
 1431W        W 2628   1.172   3.017   3.711  0.2710  0.0499  0.1267
 1432W        W 2629   5.024   6.834   3.365 -0.1664 -0.0673 -0.2213
 1433W        W 2630   6.821   5.699   2.753 -0.3601  0.3423 -0.1113
 1434W        W 2631   7.101   2.009   2.464  0.1285  0.3357 -0.1010
 1435W        W 2632   7.175   2.374   7.424 -0.2323  0.0169  0.0814
 1436W        W 2633   6.644   2.966   1.410  0.0346 -0.0950 -0.0150
 1437W        W 2634   0.250   5.422   5.488  0.0157  0.2183 -0.1385
 1438W        W 2635   1.188   7.539   7.116 -0.1800 -0.1053 -0.0269
 1439W        W 2636   5.237   3.475   1.075  0.2380  0.0341 -0.3520
 1440W        W 2637   3.255   5.921   4.711 -0.0074  0.2772  0.0684
 1441W        W 2638   7.624   4.195   0.528  0.0802  0.2056  0.2213
 1442W        W 2639   0.952   3.571   3.883  0.1350  0.1783 -0.1040
 1443W        W 2640   6.699   1.191   2.199 -0.1515  0.3026  0.0231
 1444W        W 2641   0.549   3.046   0.065 -0.1672  0.0892  0.0739
 1445W        W 2642   4.576   4.854   2.526  0.2630 -0.1097 -0.4007
 1446W        W 2643   2.181   4.742   6.802  0.2614 -0.0435  0.2063
 1447W        W 2644   7.028   5.410   1.095 -0.1800 -0.1456 -0.0276
 1448W        W 2645   2.509   2.885   4.901  0.1683 -0.0032  0.1486
 1449W        W 2646   5.205   6.342   3.329 -0.0732  0.1723 -0.1527
 1450W        W 2647   0.281   7.192   7.325  0.1460 -0.1216 -0.6182
 1451W        W 2648   4.946   6.063   1.164 -0.0610  0.1442  0.0155
 1452W        W 2649   0.390   7.622   0.813  0.0040 -0.3063  0.0165
 1453W        W 2650   3.933   0.372   5.003  0.1488  0.2286  0.0833
 1454W        W 2651   7.286   6.637   5.755  0.1747  0.1342  0.0697
 1455W        W 2652   6.930   3.861   2.456 -0.0739  0.1590 -0.2969
 1456W        W 2653   2.348   4.577   0.243 -0.1641 -0.2189  0.0015
 1457W        W 2654   5.142   5.072   2.643  0.1634  0.1089 -0.4232
 1458W        W 2655   4.272   3.908   6.919 -0.0204 -0.2067 -0.0641
 1459W        W 2656   7.541   6.440   5.421  0.0174  0.3415 -0.1100
 1460W        W 2657   7.068   1.041   6.149 -0.0524  0.0014 -0.4006
 1461W        W 2658   4.293   2.688   2.379  0.0897 -0.0832 -0.1168
 1462W        W 2659   4.686   7.130   1.286 -0.0692 -0.0371  0.1388
 1463W        W 2660   0.005   3.265   5.496 -0.3002  0.1670  0.0653
 1464W        W 2661   5.898   2.294   5.567  0.0345  0.0483  0.1569
 1465W        W 2662   4.139   4.985   4.056  0.0043 -0.1119  0.0041
 1466W        W 2663   4.574   4.620   2.086 -0.1379  0.2141 -0.0516
 1467W        W 2664   7.123   1.642   2.006  0.1958 -0.2205 -0.0503
 1468W        W 2665   1.279   7.363   6.551  0.1909  0.0210  0.0298
 1469W        W 2666   1.684   5.959   1.210  0.0205 -0.0383 -0.0488
 1470W        W 2667   6.950   5.585   0.063  0.1446  0.1047  0.0476
 1471W        W 2668   6.247   4.758   1.194  0.2240  0.2587  0.2531
 1472W        W 2669   2.798   6.268   5.310  0.1345 -0.0546  0.1496
 1473W        W 2670   3.492   0.948   2.334 -0.2888  0.2230 -0.3176
 1474W        W 2671   4.985   6.779   1.625  0.0569  0.1076 -0.3355
 1475W        W 2672   2.816   2.641   0.834 -0.0594 -0.0270  0.2381
 1476W        W 2673   7.578   0.347   4.537 -0.1815 -0.3657 -0.0026
 1477W        W 2674   1.517   5.100   0.727  0.0653 -0.2990  0.0041
 1478W        W 2675   1.883   0.264   5.641  0.1970  0.0931  0.1686
 1479W        W 2676   5.388   6.014   3.693 -0.1163  0.3355  0.1293
 1480W        W 2677   2.451   7.409   4.554 -0.3933 -0.0782 -0.0058
 1481W        W 2678   1.330   2.405   5.966  0.4024  0.0909 -0.1272
 1482W        W 2679   3.166   0.559   3.131 -0.2769 -0.3373  0.5036
 1483W        W 2680   1.799   6.399   5.453  0.1484  0.3764 -0.2788
 1484W        W 2681   7.450   0.650   7.188 -0.1432 -0.3454 -0.0676
 1485W        W 2682   3.284   4.306   2.500 -0.1329  0.0466  0.1796
 1486W        W 2683   4.217   4.396   0.677  0.1872 -0.1452 -0.1306
 1487W        W 2684   2.366   0.232   4.491  0.1301 -0.4026  0.1756
 1488W        W 2685   3.632   3.734   4.695  0.2998  0.0855  0.1212
 1489W        W 2686   4.052   0.196   2.675 -0.1390 -0.1761  0.2236
 1490W        W 2687   2.891   5.816   7.014  0.1026 -0.0237  0.1118
 1491W        W 2688   7.591   3.070   1.799  0.2118  0.2491  0.0339
 1492W        W 2689   5.496   1.249   2.795 -0.2567 -0.2522  0.1975
 1493W        W 2690   1.303   3.836   5.662  0.0676  0.1701 -0.0678
 1494W        W 2691   0.831   2.770   1.368 -0.1803  0.1025 -0.1236
 1495W        W 2692   1.261   0.338   6.705  0.0254  0.1015  0.0881
 1496W        W 2693   0.062   4.688   0.202  0.0461 -0.0757  0.1712
 1497W        W 2694   5.404   6.516   6.443 -0.2117  0.2709  0.0106
 1498W        W 2695   2.980   0.290   1.322 -0.2053  0.2555  0.1298
 1499W        W 2696   6.797   6.670   2.006  0.0937  0.0054  0.1404
 1500W        W 2697   2.419   3.016   2.382 -0.2622  0.1505  0.0775
 1501W        W 2698   2.256   3.116   1.522 -0.1384 -0.0751  0.1039
 1502W        W 2699   0.240   7.578   6.568  0.3800  0.0517  0.1477
 1503W        W 2700   4.648   4.968   3.893  0.0826  0.0939 -0.2562
 1504W        W 2701   4.526   4.139   1.002  0.1472 -0.1088 -0.1289
 1505W        W 2702   5.515   3.905   4.132  0.0925  0.3007  0.1241
 1506W        W 2703   0.214   3.162   7.225  0.0329  0.3142 -0.0673
 1507W        W 2704   7.081   5.196   5.849  0.0857  0.0650  0.2730
 1508W        W 2705   0.386   4.621   7.452 -0.1716 -0.2194  0.1975
 1509W        W 2706   1.396   5.236   0.233 -0.0999 -0.2512  0.1659
 1510W        W 2707   4.043   3.588   1.734 -0.3576  0.0746  0.1807
 1511W        W 2708   6.370   6.151   0.857  0.1011  0.2323  0.5601
 1512W        W 2709   6.064   3.793   7.212 -0.0541  0.1213 -0.1558
 1513W        W 2710   1.141   2.411   2.954 -0.1666 -0.0139 -0.0797
 1514W        W 2711   6.745   0.254   5.562 -0.1304  0.0169  0.2388
 1515W        W 2712   1.703   0.506   6.909 -0.1180  0.3877  0.0239
 1516W        W 2713   4.713   5.860   2.054  0.0364  0.0515 -0.0052
 1517W        W 2714   2.714   0.543   4.325  0.1829 -0.0156  0.1747
 1518W        W 2715   7.296   6.601   2.639  0.1397  0.2457  0.0304
 1519W        W 2716   1.488   1.320   5.760  0.0839  0.1005 -0.1135
 1520W        W 2717   1.375   2.361   4.718  0.0513 -0.1721 -0.5133
 1521W        W 2718   7.303   2.442   4.675 -0.1204  0.1403 -0.0700
 1522W        W 2719   6.521   4.020   1.743 -0.0389 -0.1805  0.0418
 1523W        W 2720   3.284   5.770   3.555 -0.1746  0.1535  0.0318
 1524W        W 2721   0.460   2.337   1.693  0.0512 -0.0301  0.0571
 1525W        W 2722   1.086   5.653   1.383 -0.0961  0.1972 -0.3669
 1526W        W 2723   6.263   0.410   2.061  0.0527  0.1700 -0.2752
 1527W        W 2724   1.686   0.789   4.225  0.0387 -0.1618 -0.1522
 1528W        W 2725   4.515   4.008   7.470 -0.0311 -0.1668 -0.1729
 1529W        W 2726   1.573   5.382   2.365 -0.0495 -0.1791 -0.0831
 1530W        W 2727   3.312   4.682   7.549  0.0694  0.1881 -0.0819
 1531W        W 2728   4.598   1.263   5.713  0.0058  0.1116  0.2237
 1532W        W 2729   3.578   6.188   3.330  0.3009 -0.1102 -0.1295
 1533W        W 2730   7.245   1.667   2.787  0.1171 -0.2842 -0.0222
 1534W        W 2731   2.625   3.918   1.158 -0.3406 -0.1126 -0.0086
 1535W        W 2732   2.776   0.355   3.453  0.0605 -0.0582  0.2839
 1536W        W 2733   3.026   3.604   2.884 -0.0698  0.1246  0.1623
 1537W        W 2734   1.528   6.184   3.518  0.1322 -0.1135 -0.0262
 1538W        W 2735   6.459   6.003   4.959 -0.0137  0.2571 -0.3426
 1539W        W 2736   2.127   7.562   5.368  0.0154  0.1933  0.1228
 1540W        W 2737   3.560   3.869   5.955 -0.2153 -0.2607 -0.0594
 1541W        W 2738   5.781   5.035   0.749 -0.1488  0.1279 -0.0590
 1542W        W 2739   3.283   6.846   4.437 -0.5433  0.0187  0.0390
 1543W        W 2740   0.131   6.118   1.914  0.1844  0.0732 -0.1590
 1544W        W 2741   5.934   4.211   0.298 -0.0897 -0.3002  0.1844
 1545W        W 2742   3.649   5.524   3.895  0.1241  0.1266  0.3574
 1546W        W 2743   6.582   6.098   7.659  0.1940  0.1673  0.1548
 1547W        W 2744   6.078   4.860   6.251 -0.0228 -0.1538  0.2121
 1548W        W 2745   6.951   3.299   2.413  0.0452 -0.1976 -0.0641
 1549W        W 2746   3.705   6.784   2.091  0.0809  0.1672 -0.0620
 1550W        W 2747   7.496   2.793   3.434  0.0342  0.2673 -0.1171
 1551W        W 2748   1.899   3.991   4.342  0.0157 -0.2087  0.0071
 1552W        W 2749   3.933   6.952   3.033 -0.1971  0.1252  0.0504
 1553W        W 2750   6.689   2.489   5.510  0.2554 -0.1577  0.0766
 1554W        W 2751   3.896   3.495   2.301  0.1054  0.1691 -0.1314
 1555W        W 2752   2.157   6.725   5.579 -0.4184 -0.2133 -0.0344
 1556W        W 2753   0.571   1.176   6.221 -0.3148 -0.2045 -0.2058
 1557W        W 2754   6.537   7.208   4.769 -0.1002  0.0607 -0.0233
 1558W        W 2755   5.261   6.609   1.215  0.2898 -0.0575  0.0813
 1559W        W 2756   3.810   7.302   2.167  0.3364  0.2093  0.5289
 1560W        W 2757   1.166   1.758   1.957 -0.0389  0.1611  0.1444
 1561W        W 2758   4.822   7.229   6.325  0.2708 -0.2424  0.2690
 1562W        W 2759   4.769   7.037   4.572  0.0128 -0.1044  0.3576
 1563W        W 2760   2.599   2.139   2.925 -0.0394  0.0276  0.4504
 1564W        W 2761   7.201   1.743   4.510  0.0975 -0.2709 -0.2613
 1565W        W 2762   4.427   4.241   4.560 -0.0211  0.0843 -0.3655
 1566W        W 2763   4.745   1.872   2.470 -0.1219  0.0024  0.2144
 1567W        W 2764   3.735   1.065   5.089  0.2490 -0.0709  0.1397
 1568W        W 2765   7.677   2.787   0.952  0.0373  0.0649 -0.0237
 1569W        W 2766   7.009   4.298   6.653 -0.3772 -0.2117 -0.3865
 1570W        W 2767   0.605   0.406   3.123 -0.0784 -0.1770 -0.0309
 1571W        W 2768   6.024   0.934   4.764 -0.3350  0.2763  0.0532
 1572W        W 2769   3.017   4.149   5.940 -0.0135  0.4107  0.2976
 1573W        W 2770   3.324   4.557   5.796 -0.0921  0.1019  0.0406
 1574W        W 2771   4.877   7.263   6.871  0.3183 -0.0461  0.1312
 1575W        W 2772   5.664   2.214   1.375 -0.0147 -0.1898 -0.1767
 1576W        W 2773   3.872   6.910   5.459 -0.2227  0.1758 -0.1825
 1577W        W 2774   1.936   7.088   5.346 -0.3660  0.2155 -0.3656
 1578W        W 2775   3.243   2.198   1.504  0.0856  0.2516 -0.3813
 1579W        W 2776   3.636   4.180   4.943 -0.1237 -0.1463  0.1135
 1580W        W 2777   5.387   5.812   5.176  0.2273  0.0910 -0.0303
 1581W        W 2778   7.262   6.930   2.153 -0.0459  0.1003 -0.1187
 1582W        W 2779   4.735   0.943   3.206  0.2767 -0.3116 -0.1201
 1583W        W 2780   6.068   6.328   2.890  0.2622 -0.0847  0.0031
 1584W        W 2781   4.216   7.242   4.579  0.0017  0.1763  0.1699
 1585W        W 2782   3.515   1.369   2.014 -0.0841 -0.0387 -0.3240
 1586W        W 2783   0.591   1.195   3.398  0.0214 -0.1679  0.0281
 1587W        W 2784   3.216   0.453   2.636 -0.1659  0.0340 -0.2582
 1588W        W 2785   2.563   6.953   0.979 -0.1547 -0.2565 -0.0576
 1589W        W 2786   0.504   2.431   6.058 -0.0233 -0.3509 -0.1126
 1590W        W 2787   1.231   4.242   2.331  0.1812 -0.1391 -0.2163
 1591W        W 2788   4.045   5.495   4.750 -0.1070 -0.2393  0.0941
 1592W        W 2789   5.744   2.198   5.122 -0.1524  0.3048  0.1780
 1593W        W 2790   0.615   6.259   7.239  0.1915 -0.0524 -0.0588
 1594W        W 2791   3.822   2.013   4.541 -0.0884  0.1908 -0.1270
 1595W        W 2792   2.565   6.450   5.716  0.0113 -0.4201 -0.2739
 1596W        W 2793   6.505   7.230   0.752  0.1859  0.0968  0.1517
 1597W        W 2794   5.215   1.556   2.419 -0.1502  0.2429  0.1122
 1598W        W 2795   3.180   1.687   4.237 -0.1818 -0.0326  0.0474
 1599W        W 2796   4.047   2.565   4.572  0.0478 -0.0071  0.3089
 1600W        W 2797   6.902   1.024   4.465  0.1964 -0.0741  0.0910
 1601W        W 2798   1.661   3.040   5.458  0.1490 -0.1867 -0.2284
 1602W        W 2799   3.590   4.330   2.055 -0.1001  0.1618  0.2159
 1603W        W 2800   4.616   2.994   2.613  0.1872 -0.1208  0.1537
 1604W        W 2801   5.615   4.912   6.060 -0.1800  0.0910  0.0232
 1605W        W 2802   5.822   1.126   3.837  0.0848 -0.1869 -0.0136
 1606W        W 2803   6.655   0.146   2.100 -0.0053 -0.1106 -0.1622
 1607W        W 2804   2.187   6.656   0.920 -0.1277  0.0140  0.2803
 1608W        W 2805   7.536   1.262   2.952  0.2958 -0.1798  0.0430
 1609W        W 2806   7.663   4.743   1.863 -0.0463 -0.1667  0.0960
 1610W        W 2807   3.573   6.169   3.843 -0.2514  0.2302 -0.0413
 1611W        W 2808   7.368   5.976   0.901  0.1455  0.2099 -0.3859
 1612W        W 2809   7.533   2.742   7.373 -0.0420  0.0177  0.1237
 1613W        W 2810   3.568   1.456   1.518  0.0458  0.3341 -0.2705
 1614W        W 2811   0.045   3.815   3.027  0.0034 -0.0382 -0.1311
 1615W        W 2812   1.563   4.167   4.792 -0.3693 -0.0947 -0.1908
 1616W        W 2813   5.210   3.866   3.681 -0.0885 -0.1902  0.0335
 1617W        W 2814   2.053   1.399   3.504  0.5438  0.0465  0.2517
 1618W        W 2815   0.774   3.935   2.542 -0.1821  0.0504 -0.3903
 1619W        W 2816   0.040   3.896   6.461 -0.1626  0.0202 -0.2609
 1620W        W 2817   0.534   7.532   2.284  0.1550  0.1216  0.0794
 1621W        W 2818   7.281   0.274   5.767 -0.1579 -0.1893  0.0772
 1622W        W 2819   6.867   6.953   5.765  0.2397 -0.0911  0.0198
 1623W        W 2820   7.631   5.714   6.730 -0.0677  0.1809 -0.0394
 1624W        W 2821   3.169   7.204   7.563  0.1284 -0.1626 -0.2396
 1625W        W 2822   3.254   5.471   4.335  0.1181 -0.2619  0.0417
 1626W        W 2823   3.832   3.114   3.626 -0.0817 -0.4187  0.0590
 1627W        W 2824   3.644   5.984   0.682 -0.1347  0.0952  0.1761
 1628W        W 2825   5.441   0.196   2.558  0.0098  0.1365  0.0172
 1629W        W 2826   6.495   2.617   5.073  0.0372 -0.1185 -0.1918
 1630W        W 2827   4.220   2.429   1.196 -0.0728 -0.1983  0.2404
 1631W        W 2828   6.298   5.992   1.884 -0.1410 -0.3795  0.1264
 1632W        W 2829   6.561   5.017   6.151  0.0330 -0.1263 -0.0127
 1633W        W 2830   5.103   7.602   6.142 -0.0969  0.1159 -0.5057
 1634W        W 2831   0.958   1.632   3.460 -0.1121  0.3748 -0.1270
 1635W        W 2832   0.692   1.765   3.841  0.2865  0.1479  0.1646
 1636W        W 2833   3.265   5.077   5.186  0.0115 -0.0433  0.1587
 1637W        W 2834   7.614   5.818   1.321 -0.1516  0.2191  0.0208
 1638W        W 2835   0.906   1.957   2.934 -0.3247 -0.3456  0.3849
 1639W        W 2836   2.182   4.422   0.661  0.2521  0.2540 -0.3386
 1640W        W 2837   4.609   3.272   6.331 -0.0637 -0.3554  0.1435
 1641W        W 2838   3.121   4.732   1.637  0.2224  0.1865 -0.0889
 1642W        W 2839   6.768   2.403   6.394  0.0092 -0.0701 -0.2536
 1643W        W 2840   4.329   3.674   6.249  0.3332  0.1052  0.2650
 1644W        W 2841   0.363   3.275   2.011  0.0208 -0.2997  0.2126
 1645W        W 2842   6.244   6.861   0.329 -0.0296  0.0008  0.2587
 1646W        W 2843   1.545   6.003   6.702 -0.1317 -0.3282  0.0761
 1647W        W 2844   3.299   1.208   6.042  0.3540 -0.1225  0.2816
 1648W        W 2845   1.338   2.395   1.987 -0.1483 -0.3872  0.0360
 1649W        W 2846   0.402   3.650   6.961 -0.0859 -0.2558 -0.0357
 1650W        W 2847   2.040   0.067   4.110  0.4607 -0.2196  0.1497
 1651W        W 2848   0.375   4.211   6.714  0.0421 -0.0510 -0.1105
 1652W        W 2849   4.213   4.605   3.593  0.2010  0.0467  0.1815
 1653W        W 2850   7.598   2.107   2.816  0.3161  0.0136 -0.1065
 1654W        W 2851   0.657   1.336   4.022  0.3160  0.1992 -0.1374
 1655W        W 2852   6.256   1.530   1.843  0.0665  0.0244 -0.0308
 1656W        W 2853   5.968   0.698   5.780 -0.1233 -0.2230  0.1157
 1657W        W 2854   1.664   6.590   4.735  0.1349 -0.0300 -0.0878
 1658W        W 2855   5.099   6.308   5.103 -0.1159 -0.0123 -0.2428
 1659W        W 2856   2.326   5.658   6.540  0.1450  0.2835  0.2307
 1660W        W 2857   5.043   3.947   1.302 -0.0653 -0.2006 -0.2066
 1661W        W 2858   1.482   5.253   4.119 -0.2011 -0.2111 -0.2672
 1662W        W 2859   0.531   1.615   5.875 -0.0783  0.2372 -0.0809
 1663W        W 2860   3.520   6.932   0.745 -0.0149  0.1789  0.0644
 1664W        W 2861   0.776   6.436   6.682 -0.1765 -0.1033  0.0597
 1665W        W 2862   4.661   4.637   3.363  0.0835  0.1672  0.3502
 1666W        W 2863   6.553   3.623   7.127 -0.1673  0.1694  0.1139
 1667W        W 2864   1.322   2.755   1.685 -0.0626  0.0600  0.0961
 1668W        W 2865   0.781   3.081   6.594 -0.1332  0.1223  0.0753
 1669W        W 2866   5.914   4.353   5.389  0.0825  0.2068  0.1191
 1670W        W 2867   3.072   1.747   2.261 -0.3719 -0.1690  0.2270
 1671W        W 2868   4.065   5.002   1.038  0.2839  0.0479  0.4871
 1672W        W 2869   4.368   5.717   1.744 -0.2272  0.2546  0.1022
 1673W        W 2870   2.043   6.024   6.764 -0.1471  0.1785  0.0358
 1674W        W 2871   0.775   2.589   7.677 -0.3749 -0.0167  0.1710
 1675W        W 2872   0.699   3.158   2.383 -0.0039  0.2357 -0.2630
 1676W        W 2873   5.687   3.920   1.522  0.1052 -0.0328  0.2113
 1677W        W 2874   4.405   2.033   0.765 -0.1889  0.1491 -0.3035
 1678W        W 2875   5.147   5.372   3.017 -0.0147  0.1225  0.1120
 1679W        W 2876   4.961   4.964   1.170  0.1577  0.3478 -0.0545
 1680W        W 2877   2.211   1.977   1.957  0.0787 -0.1894 -0.0066
 1681W        W 2878   3.523   5.076   1.751  0.1614  0.0655 -0.0583
 1682W        W 2879   7.149   1.306   1.618 -0.0581  0.1694  0.2667
 1683W        W 2880   0.600   7.499   4.909 -0.0850  0.2107 -0.0736
 1684W        W 2881   7.469   4.128   5.512  0.2028 -0.1073  0.0309
 1685W        W 2882   1.781   2.213   4.047 -0.0995  0.0335  0.2092
 1686W        W 2883   2.169   3.773   3.163 -0.1146 -0.2316 -0.1567
 1687W        W 2884   5.652   5.372   0.361  0.1702 -0.0042 -0.1930
 1688W        W 2885   4.809   6.957   2.637 -0.2375 -0.0460 -0.0350
 1689W        W 2886   0.314   0.491   4.106 -0.1628  0.6539 -0.0238
 1690W        W 2887   3.714   1.515   4.362 -0.0159 -0.2365  0.3788
 1691W        W 2888   3.294   5.187   7.451  0.0236  0.0533 -0.0448
 1692W        W 2889   1.808   1.879   4.931 -0.0749 -0.2701 -0.1573
 1693W        W 2890   6.475   2.860   3.925 -0.3113 -0.1449  0.0486
 1694W        W 2891   5.105   7.440   4.586  0.0600 -0.0553  0.3501
 1695W        W 2892   2.537   5.035   6.996 -0.0012 -0.0482  0.0796
 1696W        W 2893   5.026   4.624   2.453 -0.0701 -0.0645 -0.0675
 1697W        W 2894   6.291   4.202   2.134  0.3044  0.0498 -0.1938
 1698W        W 2895   2.378   4.625   7.241 -0.1833  0.0848  0.0161
 1699W        W 2896   6.893   1.728   1.284 -0.0184  0.0539 -0.0901
 1700W        W 2897   5.079   2.615   1.014  0.1609  0.1394  0.1324
 1701W        W 2898   3.134   5.429   3.861  0.1146 -0.1880 -0.2816
 1702W        W 2899   3.973   2.537   5.251 -0.1016  0.4771 -0.0388
 1703W        W 2900   5.513   2.433   6.443  0.2546  0.1579 -0.0692
 1704W        W 2901   5.129   4.792   7.306 -0.2073 -0.0423 -0.0771
 1705W        W 2902   6.321   3.562   5.260  0.2115 -0.0912 -0.3480
 1706W        W 2903   6.146   2.159   1.212 -0.1988 -0.1564 -0.0148
 1707W        W 2904   2.392   0.954   6.364  0.1826 -0.0027  0.0336
 1708W        W 2905   7.592   0.747   5.396 -0.1375 -0.1583  0.0219
 1709W        W 2906   6.609   2.524   7.360 -0.2414  0.1028  0.0097
 1710W        W 2907   1.202   3.971   3.171 -0.2114 -0.1785 -0.0862
 1711W        W 2908   6.625   3.010   0.864 -0.0549  0.0739  0.1846
 1712W        W 2909   6.184   5.119   0.265  0.4237 -0.1828  0.1952
 1713W        W 2910   2.818   1.411   3.428  0.1449 -0.0400 -0.1247
 1714W        W 2911   7.146   2.858   2.149 -0.1251 -0.2980 -0.0176
 1715W        W 2912   7.519   2.255   0.123 -0.3236  0.0447  0.1785
 1716W        W 2913   2.408   6.584   1.331 -0.0691  0.2160 -0.0085
 1717W        W 2914   4.690   3.880   2.348  0.0847 -0.0575  0.2753
 1718W        W 2915   2.773   4.584   5.749 -0.3048 -0.0961 -0.1550
 1719W        W 2916   3.924   6.709   2.551 -0.2613  0.1156 -0.2170
 1720W        W 2917   5.416   6.581   5.886  0.3146  0.0467 -0.0416
 1721W        W 2918   2.384   5.581   7.035  0.1897  0.1108  0.2741
 1722W        W 2919   1.108   1.216   3.182 -0.0106 -0.1388  0.0031
 1723W        W 2920   4.112   5.366   3.755  0.0087 -0.1408 -0.0596
 1724W        W 2921   6.103   3.732   1.872 -0.0239  0.1810 -0.3356
 1725W        W 2922   5.024   4.989   3.439 -0.1685  0.0219  0.0487
 1726W        W 2923   4.021   6.670   5.964  0.0384 -0.0145  0.0020
 1727W        W 2924   7.504   4.009   1.090  0.0128 -0.2108 -0.0750
 1728W        W 2925   2.371   4.627   6.005 -0.2088 -0.1784  0.3041
 1729W        W 2926   1.879   3.163   3.008 -0.0314  0.1407 -0.1961
 1730W        W 2927   4.250   1.714   4.644 -0.1532  0.0430 -0.1239
 1731W        W 2928   4.451   6.784   5.594  0.2297 -0.2899  0.1612
 1732W        W 2929   2.160   2.868   1.923 -0.1807  0.3072  0.1033
 1733W        W 2930   0.176   7.336   6.136  0.0525 -0.1289 -0.1142
 1734W        W 2931   6.666   4.819   0.377 -0.5413  0.0169  0.1604
 1735W        W 2932   2.471   0.353   5.647  0.1377 -0.1205  0.0273
 1736W        W 2933   2.630   0.706   5.971 -0.0673  0.1525  0.0634
 1737W        W 2934   2.305   6.974   0.117  0.0258  0.0692  0.2913
 1738W        W 2935   4.356   3.158   1.532 -0.0423 -0.2330 -0.2597
 1739W        W 2936   1.250   4.195   0.173  0.0456  0.0783  0.4380
 1740W        W 2937   4.645   7.477   4.373  0.2425  0.3329  0.3413
 1741W        W 2938   7.428   2.363   5.168 -0.1645  0.1030 -0.0801
 1742W        W 2939   4.943   6.892   0.297 -0.0976 -0.0016  0.2157
 1743W        W 2940   5.122   5.475   0.405  0.2936  0.0227  0.2180
 1744W        W 2941   3.314   1.975   4.677 -0.2703 -0.0995  0.0859
 1745W        W 2942   3.923   7.418   1.663 -0.2919  0.1924 -0.2435
 1746W        W 2943   6.287   3.372   7.438 -0.1282  0.0888  0.0864
 1747W        W 2944   3.449   3.273   0.494 -0.1486  0.0212  0.2144
 1748W        W 2945   5.455   6.261   2.872  0.0164  0.0423 -0.0426
 1749W        W 2946   1.258   6.723   4.288  0.1367  0.1727  0.0843
 1750W        W 2947   6.056   7.003   0.846 -0.0008  0.1084 -0.2164
 1751W        W 2948   2.606   5.078   6.009 -0.0774  0.2054  0.4078
 1752W        W 2949   6.745   2.579   0.677 -0.0825 -0.1792  0.0281
 1753W        W 2950   2.087   2.817   3.342  0.1294  0.2789  0.0361
 1754W        W 2951   6.277   6.366   4.007 -0.1613 -0.3483 -0.0546
 1755W        W 2952   2.657   5.558   6.163  0.1835 -0.0879  0.1182
 1756W        W 2953   1.967   4.712   4.100  0.0884  0.0959  0.3535
 1757W        W 2954   3.913   5.467   1.752  0.1221  0.0886  0.0472
 1758W        W 2955   6.326   6.794   7.239  0.0200 -0.2198 -0.0077
 1759W        W 2956   6.878   4.774   6.481  0.2079 -0.0949  0.0989
 1760W        W 2957   4.789   4.450   7.421 -0.1359  0.2650 -0.2096
 1761W        W 2958   5.346   4.954   2.203 -0.2223 -0.1264  0.3091
 1762W        W 2959   3.158   1.686   3.722  0.1840 -0.0421 -0.0220
 1763W        W 2960   2.619   6.746   6.861  0.4122  0.0227 -0.2409
 1764W        W 2961   4.469   5.030   6.551  0.1794  0.2084 -0.0933
 1765W        W 2962   1.783   7.311   6.350  0.0987  0.2226 -0.1088
 1766W        W 2963   5.672   2.977   6.202 -0.1205 -0.2909 -0.0872
 1767W        W 2964   5.905   0.048   5.301 -0.4866  0.2202 -0.1197
 1768W        W 2965   7.231   4.116   0.138  0.0672 -0.1769  0.2334
 1769W        W 2966   3.532   2.600   4.503 -0.2689  0.0330  0.1719
 1770W        W 2967   1.678   0.484   6.317  0.0573 -0.3202  0.1056
 1771W        W 2968   3.594   5.489   0.364 -0.0037 -0.1761 -0.0073
 1772W        W 2969   3.845   6.072   7.525 -0.1781 -0.3377  0.1170
 1773W        W 2970   6.979   6.909   4.886  0.3020  0.0163  0.4836
 1774W        W 2971   7.044   7.353   4.508 -0.1993  0.0461  0.1352
 1775W        W 2972   4.341   2.779   5.074 -0.1412 -0.1479 -0.0814
 1776W        W 2973   2.524   4.375   1.935 -0.2092  0.3004 -0.2241
 1777W        W 2974   3.032   4.445   2.040  0.0954  0.0203 -0.2543
 1778W        W 2975   7.374   5.545   2.650  0.2150 -0.0225  0.1264
 1779W        W 2976   0.438   7.166   6.812  0.0227  0.0384  0.0706
 1780W        W 2977   2.500   5.311   2.336  0.0025  0.0871  0.0404
 1781W        W 2978   7.346   4.197   5.014 -0.2279 -0.2654 -0.3567
 1782W        W 2979   4.323   7.530   2.062  0.1208 -0.0656 -0.1162
 1783W        W 2980   5.745   0.501   5.380  0.0351 -0.0831 -0.2498
 1784W        W 2981   6.346   2.241   6.600 -0.0524  0.0964  0.0741
 1785W        W 2982   3.490   5.556   1.605 -0.0200 -0.0571 -0.2439
 1786W        W 2983   6.728   3.531   4.319 -0.0693  0.3194 -0.1530
 1787W        W 2984   0.777   6.172   2.190  0.2286 -0.1560 -0.2560
 1788W        W 2985   4.136   4.360   6.648 -0.2777 -0.3246 -0.0140
 1789W        W 2986   0.266   2.448   2.654  0.1297 -0.0763  0.1892
 1790W        W 2987   0.465   3.491   5.680 -0.3507 -0.0925  0.0974
 1791W        W 2988   3.710   4.709   0.865  0.1662 -0.0325 -0.2050
 1792W        W 2989   7.643   5.887   6.126  0.1553  0.0106  0.1615
 1793W        W 2990   7.575   0.802   6.628  0.0765 -0.1066  0.1308
 1794W        W 2991   7.160   0.322   3.817 -0.1188  0.1111  0.1103
 1795W        W 2992   2.159   5.229   5.259 -0.1859  0.1735 -0.1462
 1796W        W 2993   5.491   1.996   2.363  0.0135 -0.1145  0.1418
 1797W        W 2994   6.269   6.540   1.219  0.0840  0.0463 -0.4200
 1798W        W 2995   6.434   2.530   1.514  0.1272  0.0587 -0.2801
 1799W        W 2996   4.105   5.869   5.662 -0.0808 -0.0694 -0.1036
 1800W        W 2997   0.628   4.873   0.298 -0.1905 -0.2031  0.0472
 1801W        W 2998   4.893   5.852   5.424 -0.0204 -0.1563 -0.1212
 1802W        W 2999   0.622   7.324   3.561  0.0103  0.2584  0.0482
 1803W        W 3000   0.444   4.247   6.204 -0.3409  0.1120 -0.0502
 1804W        W 3001   2.597   3.988   2.614  0.1439  0.1230 -0.0184
 1805W        W 3002   4.050   3.784   4.383 -0.0646 -0.1669 -0.2838
 1806W        W 3003   2.787   5.447   6.722 -0.0086  0.1066  0.3155
 1807W        W 3004   7.101   5.939   7.424  0.0247 -0.1309 -0.2801
 1808W        W 3005   5.179   2.101   4.809 -0.0796 -0.1962  0.1778
 1809W        W 3006   1.233   5.936   1.002  0.0394 -0.0052 -0.1317
 1810W        W 3007   6.776   7.441   2.598 -0.1913  0.1263  0.0282
 1811W        W 3008   7.417   0.020   6.608 -0.0404  0.3903 -0.0209
 1812W        W 3009   6.770   0.279   5.045  0.2700 -0.0278  0.2093
 1813W        W 3010   7.224   3.199   3.420  0.2472 -0.2604  0.1948
 1814W        W 3011   5.429   4.423   7.568 -0.0714 -0.1840  0.0096
 1815W        W 3012   3.545   7.101   0.187 -0.0897 -0.2488 -0.2771
 1816W        W 3013   6.280   7.654   3.338 -0.1714  0.1154  0.1138
 1817W        W 3014   0.102   1.624   6.865  0.0035  0.1985 -0.1599
 1818W        W 3015   0.291   2.055   3.544  0.1187  0.2012  0.1468
 1819W        W 3016   0.108   5.628   1.768 -0.0115  0.1384  0.1426
 1820W        W 3017   5.395   7.585   3.870 -0.1877  0.0654 -0.1662
 1821W        W 3018   4.960   2.202   3.867  0.0307  0.3637 -0.0548
 1822W        W 3019   5.228   2.098   1.060  0.3787 -0.0521  0.0608
 1823W        W 3020   6.991   5.252   6.319 -0.0767 -0.0949  0.1614
 1824W        W 3021   3.290   6.243   6.485  0.3495  0.0115  0.2110
 1825W        W 3022   1.026   5.914   1.842 -0.2244  0.2391  0.0857
 1826W        W 3023   6.042   3.195   2.687  0.0100  0.0909 -0.1110
 1827W        W 3024   1.864   2.326   5.115 -0.2176 -0.0876 -0.2633
 1828W        W 3025   3.143   0.681   4.783 -0.2970  0.0357 -0.0802
 1829W        W 3026   6.108   5.453   0.620  0.0104  0.1222 -0.1258
 1830W        W 3027   7.001   3.216   4.762  0.2106 -0.0798  0.0565
 1831W        W 3028   0.993   4.701   1.462  0.0164 -0.3438 -0.2649
 1832W        W 3029   6.695   3.038   4.358 -0.1560  0.1128 -0.2055
 1833W        W 3030   4.048   4.771   6.834 -0.0523  0.1688  0.0888
 1834W        W 3031   5.479   4.964   6.641 -0.0202  0.2182 -0.1899
 1835W        W 3032   0.517   3.392   4.072 -0.0598 -0.3598 -0.3298
 1836W        W 3033   0.915   7.089   6.808  0.1018  0.1424  0.2284
 1837W        W 3034   3.244   6.718   1.589  0.2363 -0.0872 -0.0830
 1838W        W 3035   1.234   2.948   4.197 -0.0415  0.4110  0.1691
 1839W        W 3036   1.843   5.839   7.562 -0.3298  0.1578 -0.1286
 1840W        W 3037   3.056   7.227   1.512 -0.0290  0.0040  0.0721
 1841W        W 3038   5.838   0.199   3.452  0.0867 -0.1358 -0.1089
 1842W        W 3039   3.369   5.539   0.856  0.2037  0.0857 -0.1852
 1843W        W 3040   5.711   2.070   4.636  0.2448  0.0822  0.3694
 1844W        W 3041   0.642   1.310   4.654  0.1444 -0.2739  0.2535
 1845W        W 3042   5.060   4.118   4.078 -0.1460 -0.1357 -0.1744
 1846W        W 3043   0.207   4.116   7.209  0.3586 -0.0095  0.2350
 1847W        W 3044   4.737   1.027   4.116 -0.0473 -0.2127 -0.1100
 1848W        W 3045   7.019   1.418   3.763  0.0807  0.0276 -0.1451
 1849W        W 3046   6.508   4.528   6.212  0.1186  0.1489 -0.2113
 1850W        W 3047   4.202   6.486   3.049 -0.1422  0.2460  0.1820
 1851W        W 3048   6.467   7.125   1.662 -0.0542 -0.1720 -0.2413
 1852W        W 3049   0.686   2.530   2.922 -0.1829  0.2737 -0.0194
 1853W        W 3050   5.365   5.892   3.191  0.0745 -0.2484  0.1079
 1854W        W 3051   3.173   2.724   1.258  0.1126  0.2202  0.0523
 1855W        W 3052   4.631   4.665   4.719 -0.1366  0.1076 -0.0614
 1856W        W 3053   6.462   5.614   7.616 -0.0611 -0.2065  0.1626
 1857W        W 3054   7.124   2.312   0.488 -0.0138 -0.0512 -0.2558
 1858W        W 3055   0.693   3.190   3.612 -0.1902 -0.1224  0.1286
 1859W        W 3056   0.912   0.747   3.304  0.2821 -0.0442 -0.1323
 1860W        W 3057   3.719   6.733   6.781  0.4270 -0.2696 -0.2249
 1861W        W 3058   5.924   1.675   4.212 -0.2494  0.0116  0.3626
 1862W        W 3059   5.159   6.952   6.564  0.1506  0.3812 -0.1250
 1863W        W 3060   5.588   3.414   2.325 -0.0317 -0.1626  0.2434
 1864W        W 3061   6.395   4.635   7.239  0.0670  0.0300  0.0756
 1865W        W 3062   1.264   3.634   6.139  0.2162 -0.0188 -0.0880
 1866W        W 3063   3.675   1.673   3.832  0.0674  0.0838 -0.2666
 1867W        W 3064   4.317   3.579   0.205  0.1167  0.2549  0.1559
 1868W        W 3065   7.398   2.368   0.992 -0.0117  0.3636  0.0960
 1869W        W 3066   0.821   3.805   5.580 -0.1638 -0.3886  0.2503
 1870W        W 3067   2.320   1.655   5.630  0.2492  0.1104  0.0443
 1871W        W 3068   3.537   2.523   1.942  0.0915  0.2111 -0.0812
 1872W        W 3069   3.102   2.697   4.177  0.1155 -0.1929  0.0437
 1873W        W 3070   4.834   4.163   3.339  0.0125 -0.0137 -0.1955
 1874W        W 3071   1.619   4.271   3.372 -0.0820  0.0301  0.0485
 1875W        W 3072   4.603   2.478   6.145 -0.1960 -0.0591 -0.0475
 1876W        W 3073   6.550   1.835   6.799 -0.0632  0.1403 -0.0394
 1877W        W 3074   2.027   6.041   5.639  0.3005 -0.0072  0.0581
 1878W        W 3075   2.484   6.693   6.180  0.0716 -0.1475  0.1963
 1879W        W 3076   2.574   3.036   3.627 -0.1475  0.0852  0.0735
 1880W        W 3077   1.629   4.517   2.184 -0.4922  0.1994  0.2475
 1881W        W 3078   2.612   6.942   3.126  0.3416 -0.1400  0.0277
 1882W        W 3079   1.851   5.985   3.005  0.2502 -0.2471  0.0014
 1883W        W 3080   5.449   3.457   3.351  0.0166 -0.0368 -0.1293
 1884W        W 3081   7.423   0.392   2.917  0.0265 -0.0464  0.0959
 1885W        W 3082   6.071   2.819   1.326 -0.1427 -0.0630  0.1435
 1886W        W 3083   5.595   2.397   2.691  0.1700  0.0426  0.1324
 1887W        W 3084   0.344   3.776   6.037  0.0961  0.2297  0.1781
 1888W        W 3085   7.062   3.636   7.476  0.3668 -0.1895 -0.1380
 1889W        W 3086   5.553   0.738   4.545  0.0969  0.5911 -0.0228
 1890W        W 3087   2.877   5.128   1.841  0.1578  0.0930 -0.5195
 1891W        W 3088   1.819   6.501   6.798  0.0078  0.0907 -0.1655
 1892W        W 3089   0.411   2.408   4.924 -0.0464 -0.1729 -0.2676
 1893W        W 3090   4.877   1.331   1.947 -0.1409  0.2854 -0.1296
 1894W        W 3091   4.054   4.208   6.138 -0.1118 -0.0237 -0.1239
 1895W        W 3092   4.774   3.503   1.473 -0.1306  0.1690 -0.1199
 1896W        W 3093   4.302   2.195   4.409 -0.2049 -0.1063 -0.0212
 1897W        W 3094   7.494   3.410   4.667  0.1825 -0.1619 -0.1729
 1898W        W 3095   5.377   2.391   4.293  0.1164  0.1083 -0.1743
 1899W        W 3096   5.131   5.509   2.232  0.2732  0.0024  0.4769
 1900W        W 3097   3.371   4.737   1.205 -0.1426 -0.0610 -0.1921
 1901W        W 3098   2.746   1.850   3.910  0.1320  0.0332  0.1568
 1902W        W 3099   3.491   7.427   0.777  0.1458  0.0161  0.0139
 1903W        W 3100   3.262   4.546   4.889 -0.1889 -0.1969  0.3764
 1904W        W 3101   6.425   3.753   4.786 -0.0912 -0.3264  0.1685
 1905W        W 3102   1.100   4.174   7.379 -0.3400 -0.1883 -0.1303
 1906W        W 3103   2.718   2.264   0.479 -0.1654 -0.1542  0.0716
 1907W        W 3104   7.088   4.888   1.966  0.2198 -0.0070  0.1059
 1908W        W 3105   6.540   5.065   7.602 -0.0294 -0.3019  0.1010
 1909W        W 3106   3.426   4.652   0.338  0.3898  0.0188  0.1835
 1910W        W 3107   3.334   7.067   4.936 -0.0659 -0.0522  0.1278
 1911W        W 3108   2.243   6.433   6.508  0.2559  0.2712 -0.1992
 1912W        W 3109   7.508   1.790   1.062  0.2361  0.0476 -0.1243
 1913W        W 3110   4.850   5.792   0.169 -0.1010 -0.0815  0.0987
 1914W        W 3111   0.368   0.069   3.425 -0.0187  0.3531  0.0197
 1915W        W 3112   2.703   3.016   1.210 -0.0920  0.2010  0.2609
 1916W        W 3113   7.570   1.994   0.619 -0.1783  0.1492 -0.1887
 1917W        W 3114   5.137   3.654   2.539 -0.1589 -0.1385 -0.1571
 1918W        W 3115   1.184   1.137   6.212  0.0397 -0.1576  0.0780
 1919W        W 3116   1.000   5.040   0.026 -0.1580 -0.1703 -0.0140
 1920W        W 3117   2.650   6.276   7.259 -0.0240  0.2513  0.0556
 1921W        W 3118   1.860   3.951   6.981  0.1235  0.0654  0.2086
 1922W        W 3119   5.606   7.595   6.194  0.3507  0.0312 -0.1711
 1923W        W 3120   2.339   4.354   4.399  0.2162 -0.2356  0.2672
 1924W        W 3121   2.085   7.073   3.808 -0.0444  0.0074  0.0900
 1925W        W 3122   1.453   5.724   5.712 -0.1656  0.0507 -0.0730
 1926W        W 3123   3.124   6.215   3.716 -0.2774  0.1325 -0.0428
 1927W        W 3124   5.560   2.914   0.465 -0.0319 -0.4639 -0.0175
 1928W        W 3125   0.010   0.786   4.283  0.2663  0.0115  0.0170
 1929W        W 3126   5.624   1.833   5.483  0.0926 -0.0579 -0.4021
 1930W        W 3127   1.284   7.274   2.402  0.4333 -0.2154  0.0386
 1931W        W 3128   0.509   0.326   2.571 -0.3838  0.0641  0.1975
 1932W        W 3129   1.860   6.929   2.017  0.2360  0.2752  0.0413
 1933W        W 3130   6.173   2.850   6.178 -0.1322  0.0180  0.1925
 1934W        W 3131   1.654   6.940   3.308 -0.1296 -0.1428  0.0817
 1935W        W 3132   2.911   7.176   4.056  0.3396  0.1136  0.2056
 1936W        W 3133   2.899   3.402   2.065  0.1182  0.0787  0.3777
 1937W        W 3134   2.018   6.972   6.019 -0.1348 -0.0619  0.1864
 1938W        W 3135   0.975   6.802   2.884 -0.0094 -0.0619  0.1189
 1939W        W 3136   0.061   2.257   7.300  0.2538  0.0383 -0.1631
 1940W        W 3137   2.693   0.712   5.372  0.0354 -0.3017  0.1535
 1941W        W 3138   3.048   5.173   2.371 -0.3254  0.0777 -0.2959
 1942W        W 3139   2.799   4.916   7.514  0.0525  0.2728 -0.0540
 1943W        W 3140   7.671   5.178   7.097 -0.1095  0.3826  0.2513
 1944W        W 3141   4.393   5.208   7.014  0.0678  0.4238 -0.0665
 1945W        W 3142   7.195   4.418   1.971  0.2133  0.3189 -0.2056
 1946W        W 3143   1.941   5.331   0.966 -0.4537  0.3695 -0.2705
 1947W        W 3144   3.005   2.220   4.354 -0.1393  0.1731 -0.1833
 1948W        W 3145   0.188   2.769   5.176  0.2088 -0.1020 -0.0431
 1949W        W 3146   0.876   5.380   2.136 -0.1788 -0.0923 -0.0610
 1950W        W 3147   7.375   3.284   7.358  0.3144  0.1423  0.1133
 1951W        W 3148   5.693   4.011   7.630  0.1588  0.1827  0.1309
 1952W        W 3149   6.343   7.488   3.791 -0.2040  0.1044 -0.2811
 1953W        W 3150   3.418   6.570   7.377  0.0328  0.1521 -0.3420
 1954W        W 3151   0.186   6.861   1.288  0.2282  0.1448 -0.0825
 1955W        W 3152   3.355   1.108   4.662 -0.0012  0.2444 -0.0517
 1956W        W 3153   6.271   1.918   3.017  0.1686 -0.1404 -0.2862
 1957W        W 3154   4.952   2.599   7.675 -0.2155 -0.2876 -0.0939
 1958W        W 3155   6.561   1.082   2.720 -0.3231 -0.3150  0.1332
 1959W        W 3156   6.630   1.621   0.878 -0.0256  0.1232 -0.2263
 1960W        W 3157   0.087   3.253   2.440  0.2312 -0.4197  0.1440
 1961W        W 3158   3.418   2.621   2.574  0.0542  0.2509  0.0653
 1962W        W 3159   3.334   6.868   3.072 -0.2791  0.2639 -0.1419
 1963W        W 3160   1.438   2.539   2.506 -0.0897  0.4820 -0.3324
 1964W        W 3161   4.628   3.616   4.946 -0.3905 -0.0948 -0.1938
 1965W        W 3162   7.119   6.226   3.792  0.1949 -0.2157 -0.3411
 1966W        W 3163   5.909   2.096   3.404 -0.5242 -0.1536 -0.1391
 1967W        W 3164   4.625   2.802   1.311  0.0990  0.2353 -0.2832
 1968W        W 3165   4.167   5.784   0.959 -0.0367 -0.1072 -0.1089
 1969W        W 3166   0.942   2.777   5.645  0.3889 -0.2756 -0.0088
 1970W        W 3167   6.807   3.718   3.866 -0.1003  0.0173 -0.0478
 1971W        W 3168   5.088   4.014   5.887  0.0186  0.1158  0.1104
 1972W        W 3169   5.747   7.447   0.100  0.0192 -0.0755 -0.1578
 1973W        W 3170   2.534   7.121   5.992 -0.2438 -0.0307  0.1365
 1974W        W 3171   1.245   1.677   6.717 -0.0707 -0.1608  0.0208
 1975W        W 3172   6.294   2.948   0.074 -0.0805 -0.1227  0.0162
 1976W        W 3173   1.456   0.103   4.463 -0.0652  0.1470  0.0987
 1977W        W 3174   4.075   1.026   5.517  0.1169 -0.0211 -0.3391
 1978W        W 3175   1.542   1.498   3.637  0.4676 -0.1611 -0.1061
 1979W        W 3176   4.271   4.435   7.210 -0.0936  0.0137  0.1489
 1980W        W 3177   5.870   5.321   5.365  0.1382 -0.1404 -0.0717
 1981W        W 3178   7.644   0.112   4.059 -0.2930 -0.0184 -0.1823
 1982W        W 3179   2.592   0.498   7.019 -0.0060 -0.2434 -0.1284
 1983W        W 3180   4.997   4.994   6.635  0.1962  0.2434  0.3255
 1984W        W 3181   3.374   5.837   7.304  0.1376  0.0651 -0.1344
 1985W        W 3182   6.043   0.186   5.769 -0.0320  0.0211  0.0141
 1986W        W 3183   4.874   2.638   7.076 -0.1430  0.0807 -0.1967
 1987W        W 3184   6.654   5.549   1.375 -0.0689 -0.1885  0.4274
 1988W        W 3185   0.397   2.003   5.548 -0.2301  0.1076  0.3825
 1989W        W 3186   0.793   6.186   0.728 -0.0925  0.1034 -0.2171
 1990W        W 3187   7.296   7.187   4.092 -0.1081 -0.0521 -0.2792
 1991W        W 3188   0.158   1.868   5.119 -0.0555  0.0860 -0.2844
 1992W        W 3189   1.729   1.609   3.121  0.1307 -0.1193 -0.1785
 1993W        W 3190   1.507   5.670   2.789 -0.0626  0.0014 -0.1916
 1994W        W 3191   5.511   6.279   0.841 -0.0044  0.2382  0.1164
 1995W        W 3192   3.537   5.310   3.456  0.3619 -0.1531 -0.1099
 1996W        W 3193   0.475   5.313   6.844  0.0270 -0.3569 -0.2530
 1997W        W 3194   3.046   0.807   5.716  0.2122 -0.0218  0.0412
 1998W        W 3195   0.970   3.694   5.068  0.2406  0.0704  0.0285
 1999W        W 3196   4.502   2.381   6.823  0.0897  0.0646  0.0961
 2000W        W 3197   2.791   5.803   5.076  0.0926  0.0442 -0.0360
 2001W        W 3198   2.925   4.581   7.210 -0.3257  0.1012 -0.0198
 2002W        W 3199   4.713   4.454   0.569 -0.2768  0.1084  0.0955
 2003W        W 3200   3.241   3.906   3.765  0.3163 -0.0104 -0.3324
 2004W        W 3201   6.977   3.321   5.668  0.3028 -0.1941  0.1871
 2005W        W 3202   7.046   6.054   0.272  0.0052  0.2306  0.3106
 2006W        W 3203   6.831   2.741   4.726 -0.1400  0.0768  0.2550
 2007W        W 3204   3.837   6.926   4.763  0.0654 -0.0397 -0.0866
 2008W        W 3205   0.090   0.369   6.303 -0.1149  0.2843 -0.1400
 2009W        W 3206   4.171   6.222   3.686  0.1879 -0.1828 -0.2944
 2010W        W 3207   4.903   7.024   5.830 -0.0713  0.2127 -0.0211
 2011W        W 3208   0.319   3.515   3.289  0.2840 -0.2778 -0.0676
 2012W        W 3209   7.439   1.446   3.498 -0.3275 -0.1041  0.2012
 2013W        W 3210   0.107   3.654   7.411  0.0240 -0.1611 -0.1671
 2014W        W 3211   4.374   6.121   0.395  0.1497 -0.0059  0.2159
 2015W        W 3212   1.916   6.758   0.379 -0.0590  0.2405  0.2400
 2016W        W 3213   4.855   1.807   1.106 -0.0671  0.0822  0.0686
 2017W        W 3214   2.588   3.214   0.305  0.0213 -0.3789 -0.0744
 2018W        W 3215   4.090   6.008   6.637 -0.0305  0.3937 -0.0440
 2019W        W 3216   7.108   3.997   5.887 -0.1771  0.1613  0.0633
 2020W        W 3217   2.742   4.758   0.606 -0.1363 -0.2256  0.0861
 2021W        W 3218   3.166   4.062   5.000 -0.1056  0.0242  0.2256
 2022W        W 3219   3.479   7.025   2.481  0.4009  0.1901  0.0529
 2023W        W 3220   3.706   5.012   5.720  0.2186  0.2351 -0.3476
 2024W        W 3221   3.287   6.698   5.290 -0.1234 -0.0516  0.2531
 2025W        W 3222   3.597   2.882   3.052 -0.0251  0.2522 -0.2931
 2026W        W 3223   2.262   4.959   3.686 -0.0839  0.1745  0.1753
 2027W        W 3224   6.684   3.014   2.883  0.1938  0.1817  0.2344
 2028W        W 3225   2.849   2.685   2.308  0.0336 -0.1130 -0.0300
 2029W        W 3226   1.987   3.219   2.247  0.1288  0.0566 -0.0603
 2030W        W 3227   6.112   3.104   6.594  0.2022  0.1420 -0.3398
 2031W        W 3228   0.952   5.529   0.227  0.2020 -0.2094  0.0616
 2032W        W 3229   6.461   2.343   2.046  0.1592  0.1712 -0.0362
 2033W        W 3230   2.340   4.504   2.789 -0.1796  0.0129  0.0652
 2034W        W 3231   3.296   0.171   2.164  0.0322  0.2209  0.1767
 2035W        W 3232   0.160   4.077   5.020 -0.0275  0.0044  0.1412
 2036W        W 3233   0.817   4.439   3.206  0.0187 -0.0097 -0.0431
 2037W        W 3234   1.875   3.563   0.825 -0.0931  0.0652  0.2138
 2038W        W 3235   6.487   6.051   1.409 -0.0182  0.0840  0.0935
 2039W        W 3236   6.602   7.358   0.135  0.0418  0.2138  0.0381
 2040W        W 3237   6.746   2.995   0.364  0.1403  0.0162 -0.0861
 2041W        W 3238   0.523   5.410   3.011 -0.1196 -0.0010  0.0902
 2042W        W 3239   1.406   0.810   6.543  0.1504 -0.1427 -0.0183
 2043W        W 3240   3.255   3.755   0.142 -0.4875  0.3499 -0.1215
 2044W        W 3241   6.685   2.411   2.947  0.2072 -0.1530  0.2155
 2045W        W 3242   3.320   6.424   4.146  0.3035  0.0675 -0.1903
 2046W        W 3243   6.755   4.619   7.580  0.0422  0.1673  0.0307
 2047W        W 3244   4.678   2.814   6.545  0.1547 -0.2240 -0.4341
 2048W        W 3245   5.522   7.124   3.176  0.0171 -0.0430 -0.1215
 2049W        W 3246   6.491   3.673   2.143  0.0612 -0.0811 -0.1330
 2050W        W 3247   0.320   1.737   6.407  0.0226  0.1597  0.0061
 2051W        W 3248   3.568   0.989   5.667 -0.3985  0.1425  0.4542
 2052W        W 3249   5.256   4.646   0.841  0.2201  0.0084  0.1067
 2053W        W 3250   6.434   4.570   6.754 -0.0967 -0.0976  0.1321
 2054W        W 3251   5.143   2.646   6.142 -0.1523  0.1812  0.0032
 2055W        W 3252   5.171   4.421   3.540  0.0734 -0.1682  0.2592
 2056W        W 3253   2.821   1.340   4.168  0.0076 -0.0544 -0.0482
 2057W        W 3254   0.146   6.337   5.880 -0.3294 -0.2613 -0.0863
 2058W        W 3255   7.401   3.536   1.408 -0.0858  0.1511 -0.1730
 2059W        W 3256   6.724   6.306   5.391  0.1600  0.2260  0.0075
 2060W        W 3257   2.971   7.007   2.601  0.1743  0.2821 -0.1460
 2061W        W 3258   3.550   3.345   1.798  0.2881  0.0136 -0.0901
 2062W        W 3259   6.480   2.135   4.808 -0.0601  0.1452  0.2226
 2063W        W 3260   6.171   1.524   3.428 -0.2420 -0.1330 -0.3123
 2064W        W 3261   5.839   5.193   6.963  0.2353 -0.3962  0.4553
 2065W        W 3262   2.110   1.947   2.817  0.0462  0.0406 -0.1280
 2066W        W 3263   5.194   4.129   2.206  0.1348 -0.0429 -0.2814
 2067W        W 3264   5.491   5.743   6.260  0.3455  0.5062  0.1492
 2068W        W 3265   2.457   6.770   7.384 -0.0068 -0.0164  0.0643
 2069W        W 3266   2.187   0.831   4.449 -0.0403 -0.2971  0.1216
 2070W        W 3267   6.892   2.585   1.708  0.3632 -0.3651 -0.3078
 2071W        W 3268   0.315   3.170   4.538  0.2265  0.1697  0.0059
 2072W        W 3269   6.958   6.124   6.319  0.5234  0.1480 -0.1151
 2073W        W 3270   1.614   6.711   2.434  0.0846  0.3082  0.0486
 2074W        W 3271   2.154   0.597   6.129  0.0059 -0.2451 -0.1754
 2075W        W 3272   6.119   6.998   3.447  0.1218 -0.1444  0.0166
 2076W        W 3273   4.165   2.899   1.093  0.0654  0.1455 -0.1985
 2077W        W 3274   7.198   2.520   5.561 -0.0480 -0.1805 -0.0948
 2078W        W 3275   0.114   3.066   1.314 -0.0486 -0.0325 -0.0914
 2079W        W 3276   2.205   5.998   7.254 -0.0390 -0.1415  0.1272
 2080W        W 3277   5.936   5.633   2.026  0.1007  0.0027  0.2127
 2081W        W 3278   2.881   5.557   1.581  0.2869  0.0422 -0.1475
 2082W        W 3279   4.660   1.508   2.963  0.0792 -0.2134  0.0534
 2083W        W 3280   0.684   4.969   5.046  0.0329 -0.0445  0.0535
 2084W        W 3281   7.110   4.179   0.617  0.2259  0.0543  0.0373
 2085W        W 3282   0.464   4.522   1.855  0.1147 -0.1857 -0.0344
 2086W        W 3283   6.063   3.505   0.672  0.1389  0.0721  0.1378
 2087W        W 3284   2.362   7.146   2.156  0.0289  0.0603 -0.0863
 2088W        W 3285   2.844   0.217   4.731 -0.1946 -0.0318  0.0746
 2089W        W 3286   2.455   5.508   1.813 -0.0025  0.1387 -0.2854
 2090W        W 3287   0.473   7.365   1.266 -0.1932 -0.0891 -0.1064
 2091W        W 3288   6.523   6.374   3.131  0.1028  0.1903  0.0491
 2092W        W 3289   7.083   7.216   0.088  0.0179  0.3181  0.2853
 2093W        W 3290   4.511   6.441   2.620 -0.0887  0.3245 -0.1252
 2094W        W 3291   4.227   5.977   2.217 -0.0703 -0.0234 -0.4570
 2095W        W 3292   4.104   4.893   7.585 -0.1472  0.1301  0.2848
 2096W        W 3293   1.104   6.836   4.970  0.1080 -0.1546 -0.0353
 2097W        W 3294   5.766   2.887   1.837  0.2130 -0.1563 -0.0034
 2098W        W 3295   1.998   6.664   5.092  0.1282 -0.1808 -0.0409
 2099W        W 3296   3.405   1.786   5.204  0.2722 -0.1494  0.2387
 2100W        W 3297   0.758   3.502   6.100  0.2049  0.0323  0.1712
 2101W        W 3298   6.884   7.247   1.397 -0.0643  0.3296 -0.1680
 2102W        W 3299   6.905   5.208   1.654  0.0621  0.3229 -0.0879
 2103W        W 3300   3.884   6.252   1.868  0.0894 -0.2601  0.0646
 2104W        W 3301   1.930   5.004   4.873  0.2889  0.2245 -0.1611
 2105W        W 3302   0.845   4.523   0.013 -0.1876  0.0621  0.0597
 2106W        W 3303   1.364   3.424   3.433  0.4194  0.1776 -0.0896
 2107W        W 3304   7.171   4.346   6.203 -0.0243 -0.0550 -0.0744
 2108W        W 3305   1.431   0.730   4.917 -0.1076  0.0949 -0.2178
 2109W        W 3306   3.453   3.861   2.757  0.1588 -0.2871 -0.0635
 2110W        W 3307   5.578   7.368   5.274  0.2819  0.0174 -0.0829
 2111W        W 3308   7.309   6.794   0.812  0.2428  0.2601  0.2222
 2112W        W 3309   4.884   4.433   5.973  0.1333 -0.1078  0.1390
 2113W        W 3310   1.112   3.241   1.380 -0.0556 -0.3463  0.0912
 2114W        W 3311   7.526   2.810   6.497  0.3000  0.0274 -0.0985
 2115W        W 3312   2.135   7.106   0.642 -0.1376 -0.1854  0.1627
 2116W        W 3313   6.763   6.479   5.965  0.1474 -0.0036  0.1108
 2117W        W 3314   4.176   4.381   5.022  0.1348  0.3331  0.2061
 2118W        W 3315   6.014   2.818   2.259 -0.0751 -0.1390  0.1983
 2119W        W 3316   5.480   0.242   6.554 -0.3637  0.2507  0.0005
 2120W        W 3317   3.333   7.563   1.273  0.2193 -0.0754  0.0266
 2121W        W 3318   1.958   2.361   4.575  0.1594 -0.2212  0.2389
 2122W        W 3319   4.599   6.891   0.011  0.1316  0.0700  0.1242
 2123W        W 3320   3.315   5.252   2.956 -0.0970  0.2740  0.1985
 2124W        W 3321   4.376   2.864   6.993 -0.0506  0.1284 -0.4278
 2125W        W 3322   4.208   4.884   4.978  0.0137  0.1367 -0.1356
 2126W        W 3323   2.639   3.185   2.784 -0.0304 -0.0681  0.0307
 2127W        W 3324   0.480   7.037   1.662  0.0128  0.1467 -0.1201
 2128W        W 3325   3.807   7.265   3.918  0.1487  0.2763  0.0714
 2129W        W 3326   5.691   6.087   7.490 -0.2464  0.0257  0.2095
 2130W        W 3327   3.250   4.966   4.535 -0.1429  0.1470 -0.0464
 2131W        W 3328   6.075   7.261   4.579 -0.0937  0.0117 -0.2248
 2132W        W 3329   5.985   3.947   5.066  0.4460  0.1221 -0.0890
 2133W        W 3330   1.019   3.040   7.551  0.0753 -0.1021  0.3149
 2134W        W 3331   4.079   3.844   5.809 -0.2198  0.0359 -0.2334
 2135W        W 3332   5.138   4.591   4.030  0.2780  0.0822 -0.0612
 2136W        W 3333   5.380   6.621   6.971 -0.0374  0.1617 -0.0858
 2137W        W 3334   2.678   0.030   5.291  0.0745 -0.0222 -0.2698
 2138W        W 3335   4.663   4.201   5.011 -0.0518  0.3533 -0.1143
 2139W        W 3336   6.755   2.353   3.881  0.2420 -0.2518  0.3125
 2140W        W 3337   2.195   6.750   3.357  0.2251  0.1264  0.2278
 2141W        W 3338   0.049   3.561   1.782  0.0185  0.0728  0.1722
 2142W        W 3339   0.652   5.417   5.952  0.0352  0.0508 -0.1116
 2143W        W 3340   7.655   1.579   4.734  0.2925  0.0326  0.1672
 2144W        W 3341   7.099   0.992   6.688 -0.2001 -0.0279  0.0056
 2145W        W 3342   4.703   7.149   3.636 -0.0999 -0.1684  0.0964
 2146W        W 3343   6.107   7.486   0.918  0.1256 -0.0619  0.5507
 2147W        W 3344   0.271   6.564   3.842  0.0953 -0.2357  0.0316
 2148W        W 3345   1.837   6.142   6.315 -0.0009  0.1458 -0.3026
 2149W        W 3346   2.329   4.972   1.888  0.0528  0.0687 -0.3828
 2150W        W 3347   3.734   0.802   6.315 -0.0205 -0.0284  0.1619
 2151W        W 3348   7.007   3.290   0.699  0.1570 -0.1060 -0.0977
 2152W        W 3349   0.658   4.710   0.862  0.1050  0.0667 -0.0364
 2153W        W 3350   7.342   3.526   3.854 -0.0731 -0.1018 -0.1235
 2154W        W 3351   1.720   1.638   5.313 -0.0958  0.3136 -0.1085
 2155W        W 3352   3.147   3.421   5.349  0.0775 -0.3112  0.0256
 2156W        W 3353   4.543   3.975   0.522 -0.1767  0.0595  0.1869
 2157W        W 3354   2.039   4.045   3.583 -0.1286  0.0017  0.0774
 2158W        W 3355   4.604   4.407   1.512  0.0894 -0.0846 -0.0113
 2159W        W 3356   3.393   3.442   3.621  0.2126 -0.1014 -0.2655
 2160W        W 3357   7.421   2.081   1.923 -0.1227  0.1269 -0.1775
 2161W        W 3358   6.261   1.340   2.356  0.1958 -0.0645 -0.1305
 2162W        W 3359   1.912   5.532   1.589 -0.1941 -0.2453  0.1917
 2163W        W 3360   5.371   1.235   4.836  0.1155 -0.1398  0.1663
 2164W        W 3361   2.565   6.156   3.840  0.1558 -0.0001  0.1903
 2165W        W 3362   0.341   2.829   6.418 -0.1085  0.1061  0.1083
 2166W        W 3363   6.627   2.710   5.983  0.1718 -0.1347 -0.2604
 2167W        W 3364   5.650   4.730   7.148  0.0959  0.2650 -0.1142
 2168W        W 3365   2.308   6.602   3.925 -0.4764 -0.0222 -0.1699
 2169W        W 3366   4.924   0.038   3.208 -0.0723  0.2003  0.0629
 2170W        W 3367   6.050   7.174   7.092  0.0810  0.3817  0.1324
 2171W        W 3368   0.330   7.626   5.355  0.0413  0.2369  0.0404
 2172W        W 3369   2.170   6.206   1.155 -0.1313  0.1925  0.1538
 2173W        W 3370   4.968   0.517   3.831  0.0717 -0.2853 -0.1208
 2174W        W 3371   1.034   6.807   6.410 -0.0500  0.0983 -0.1348
 2175W        W 3372   3.249   7.316   2.113 -0.1895  0.1911  0.0780
 2176W        W 3373   5.976   6.151   4.715  0.0171 -0.1319  0.3843
 2177W        W 3374   7.335   4.519   7.532 -0.0570  0.0184 -0.1818
 2178W        W 3375   4.971   6.083   4.343  0.2029  0.1594 -0.2640
 2179W        W 3376   4.468   5.581   5.353 -0.1424 -0.1050 -0.1185
 2180W        W 3377   6.252   0.068   4.848  0.1006 -0.1139  0.2584
 2181W        W 3378   7.058   2.608   4.192  0.3423 -0.0160 -0.0512
 2182W        W 3379   5.542   2.070   1.863  0.0942  0.0379 -0.1608
 2183W        W 3380   1.131   0.601   3.875 -0.2070  0.4180  0.0437
 2184W        W 3381   0.876   3.415   0.263  0.0557  0.1602  0.0877
 2185W        W 3382   5.187   5.712   5.836 -0.2205 -0.4122 -0.2616
 2186W        W 3383   1.783   6.328   0.133  0.0490  0.0872 -0.0452
 2187W        W 3384   1.172   3.794   1.983  0.0422 -0.1473 -0.2981
 2188W        W 3385   4.453   0.507   3.253 -0.1942 -0.2264 -0.2431
 2189W        W 3386   4.829   1.540   3.930  0.0840  0.1193  0.1130
 2190W        W 3387   1.665   2.167   5.585  0.1503 -0.1261  0.1264
 2191W        W 3388   3.197   4.779   2.706  0.0356  0.0887  0.3059
 2192W        W 3389   1.867   3.497   5.504  0.2764  0.2423 -0.0277
 2193W        W 3390   1.201   5.824   2.388 -0.1586 -0.0579 -0.0131
 2194W        W 3391   2.870   5.620   2.052  0.1372  0.0897 -0.0506
 2195W        W 3392   7.525   0.007   1.713 -0.0348  0.0197 -0.3082
 2196W        W 3393   6.295   6.769   4.459  0.1072  0.3390  0.3187
 2197W        W 3394   6.040   5.786   0.161  0.4572  0.1601  0.1847
 2198W        W 3395   4.267   2.952   0.156 -0.2993 -0.1594  0.2773
 2199W        W 3396   3.661   7.120   1.224  0.0842  0.4732  0.2740
 2200W        W 3397   1.960   3.495   4.380  0.0591 -0.0203  0.3734
 2201W        W 3398   3.904   1.819   5.085 -0.1906 -0.1730 -0.2212
 2202W        W 3399   5.338   7.603   2.067 -0.2982 -0.1489 -0.0010
 2203W        W 3400   1.409   4.603   2.980  0.1283 -0.2070 -0.0275
 2204W        W 3401   2.271   7.380   7.318  0.1785 -0.1833 -0.0475
 2205W        W 3402   5.108   0.960   5.335  0.0339 -0.0410 -0.2053
 2206W        W 3403   0.454   6.493   1.040 -0.1844  0.0742 -0.0314
 2207W        W 3404   2.762   6.575   1.689 -0.2082  0.0955 -0.2383
 2208W        W 3405   3.905   0.665   5.904 -0.2004  0.0122  0.0479
 2209W        W 3406   7.364   1.634   4.039  0.0679  0.2468 -0.1018
 2210W        W 3407   5.207   4.698   6.284  0.1232  0.1523  0.1909
 2211W        W 3408   1.111   5.349   7.330 -0.2766 -0.1714  0.1204
 2212W        W 3409   0.902   4.388   0.564  0.0211  0.1914  0.3420
 2213W        W 3410   0.444   4.700   6.455  0.0793  0.2437 -0.1567
 2214W        W 3411   6.382   2.680   2.674 -0.0278 -0.1262  0.6091
 2215W        W 3412   1.082   7.352   2.877 -0.0329  0.0034  0.0549
 2216W        W 3413   3.970   5.550   5.295 -0.1388 -0.0738  0.0788
 2217W        W 3414   3.267   7.563   7.202  0.0973  0.1886  0.0939
 2218W        W 3415   2.825   7.523   5.779  0.0302  0.0535  0.0866
 2219W        W 3416   5.104   1.898   5.221  0.1099  0.0523  0.0578
 2220W        W 3417   1.639   3.078   3.966 -0.0284 -0.3003 -0.3289
 2221W        W 3418   0.317   3.699   4.679  0.2665  0.0521 -0.4150
 2222W        W 3419   6.204   6.279   5.927  0.1967 -0.0223  0.0286
 2223W        W 3420   7.166   5.232   2.346 -0.1082  0.2740  0.0338
 2224W        W 3421   1.266   3.785   7.086  0.0472  0.2056 -0.0664
 2225W        W 3422   2.693   5.179   5.176  0.1987  0.3810 -0.2593
 2226W        W 3423   1.550   7.392   4.129 -0.0219  0.0222 -0.0298
 2227W        W 3424   7.336   0.863   3.203  0.1162  0.2295 -0.0887
 2228W        W 3425   5.902   4.330   1.837  0.1788  0.2511 -0.1668
 2229W        W 3426   6.735   6.381   1.132  0.0797  0.1482 -0.0671
 2230W        W 3427   3.157   6.746   6.815 -0.0680 -0.3309  0.0569
 2231W        W 3428   3.481   5.889   6.779 -0.0214  0.0177 -0.0894
 2232W        W 3429   5.519   7.134   4.788 -0.1854 -0.1965 -0.1876
 2233W        W 3430   6.759   3.474   5.143 -0.1439 -0.1481  0.1700
 2234W        W 3431   2.384   5.885   2.755  0.0076 -0.0504 -0.2590
 2235W        W 3432   7.557   5.974   7.180 -0.1399 -0.1261  0.0648
 2236W        W 3433   3.629   0.425   3.462 -0.0327  0.1391  0.0206
 2237W        W 3434   4.021   0.317   3.136  0.0051  0.2219 -0.2533
 2238W        W 3435   4.921   0.105   5.331  0.0793 -0.1458 -0.0749
 2239W        W 3436   2.827   4.339   1.542  0.1588 -0.0033 -0.0844
 2240W        W 3437   0.484   6.814   3.381 -0.0456  0.2084  0.0940
 2241W        W 3438   6.909   0.494   5.979 -0.0251 -0.0586  0.0121
 2242W        W 3439   2.489   5.411   4.747  0.0420  0.0971  0.0658
 2243W        W 3440   5.686   3.517   5.935  0.3224 -0.4229 -0.0145
 2244W        W 3441   5.343   2.953   3.176 -0.0939  0.2479 -0.0671
 2245W        W 3442   3.461   1.840   1.132 -0.3527  0.0657 -0.1868
 2246W        W 3443   5.817   1.360   5.741 -0.0169  0.0093 -0.2139
 2247W        W 3444   5.002   3.643   4.121  0.1355  0.1667  0.2164
 2248W        W 3445   4.883   5.446   0.907  0.1274  0.1668 -0.0795
 2249W        W 3446   4.724   2.039   4.728 -0.1716 -0.2350 -0.1558
 2250W        W 3447   1.444   5.881   6.193  0.2789  0.2843 -0.1837
 2251W        W 3448   3.564   5.759   3.108 -0.1178 -0.3254 -0.4657
 2252W        W 3449   3.134   5.190   1.411  0.1209  0.0679 -0.2046
 2253W        W 3450   6.614   3.548   2.675  0.0986  0.2746 -0.1345
 2254W        W 3451   0.792   2.186   3.389  0.1599 -0.0180  0.0644
 2255W        W 3452   1.628   5.176   6.417  0.2100  0.1727  0.1328
 2256W        W 3453   2.848   4.122   7.079 -0.1455 -0.4096 -0.0060
 2257W        W 3454   6.540   3.602   0.842 -0.1253 -0.0444  0.3065
 2258W        W 3455   5.252   2.920   4.969 -0.1176  0.3585 -0.0768
 2259W        W 3456   5.858   0.050   2.094 -0.0329  0.0232 -0.0036
 2260W        W 3457   2.536   0.733   4.809 -0.0837  0.0001 -0.0319
 2261W        W 3458   2.043   5.191   4.137 -0.0426  0.0505  0.1006
 2262W        W 3459   5.754   4.022   6.617  0.0366  0.0306  0.0941
 2263W        W 3460   7.672   4.307   2.135  0.0474 -0.0489  0.3073
 2264W        W 3461   0.032   0.536   5.006  0.0438 -0.0002  0.3196
 2265W        W 3462   4.489   7.429   7.544 -0.1958 -0.0741 -0.0057
 2266W        W 3463   5.062   4.692   5.444 -0.2417  0.1809 -0.0239
 2267W        W 3464   2.046   7.245   1.628  0.1800 -0.1618 -0.0105
 2268W        W 3465   2.647   6.850   0.525  0.2221 -0.3183 -0.1584
 2269W        W 3466   2.807   6.178   2.119  0.0774  0.2882 -0.5155
 2270W        W 3467   2.795   7.083   1.919 -0.0407  0.3734  0.3209
 2271W        W 3468   3.462   0.941   3.360  0.0670 -0.2276 -0.3422
 2272W        W 3469   4.344   0.069   4.636 -0.1632 -0.1760 -0.0730
 2273W        W 3470   6.265   5.342   7.163 -0.0747 -0.0987 -0.0334
 2274W        W 3471   0.505   5.970   6.115  0.0090 -0.1655 -0.0247
 2275W        W 3472   6.209   3.000   0.572  0.1299 -0.1314 -0.0395
 2276W        W 3473   3.659   5.823   1.947 -0.2099  0.3970 -0.0527
 2277W        W 3474   5.330   7.522   7.455 -0.1074  0.1726  0.1355
 2278W        W 3475   6.487   2.770   3.284  0.1133 -0.0497 -0.0457
 2279W        W 3476   3.357   4.839   7.054 -0.0349 -0.4917  0.0208
 2280W        W 3477   4.375   1.791   5.106  0.1177  0.0113 -0.1031
 2281W        W 3478   7.107   5.767   6.957  0.1773 -0.2429 -0.1677
 2282W        W 3479   2.635   5.315   3.796  0.0229 -0.0322 -0.0696
 2283W        W 3480   4.124   2.780   3.246 -0.1188 -0.1776 -0.0523
 2284W        W 3481   6.052   7.272   1.412 -0.2489 -0.0916 -0.0314
 2285W        W 3482   4.073   6.919   1.833  0.0408 -0.0001  0.2233
 2286W        W 3483   5.210   3.396   6.881  0.0409 -0.2002 -0.0127
 2287W        W 3484   1.689   3.720   3.276  0.1338 -0.0914 -0.2443
 2288W        W 3485   7.630   2.796   2.295  0.3644  0.0890 -0.0074
 2289W        W 3486   1.692   4.289   3.875  0.1015 -0.0815 -0.0197
 2290W        W 3487   4.122   6.279   4.793  0.0697 -0.0701 -0.0604
 2291W        W 3488   2.928   3.470   1.177  0.1046 -0.2492 -0.4337
 2292W        W 3489   7.627   1.547   1.968  0.3906  0.3236  0.2538
 2293W        W 3490   4.519   4.087   6.356 -0.0410 -0.3373  0.2427
 2294W        W 3491   6.308   1.041   1.949  0.2601 -0.2193  0.2340
 2295W        W 3492   5.001   1.996   4.345  0.3042  0.2931 -0.1512
 2296W        W 3493   0.948   5.200   6.794  0.4499 -0.0149 -0.0771
 2297W        W 3494   5.403   0.703   5.908 -0.1947  0.0504 -0.2386
 2298W        W 3495   4.960   4.344   4.499 -0.1786 -0.4138 -0.1600
 2299W        W 3496   2.778   4.046   4.443 -0.1451 -0.4047  0.2084
 2300W        W 3497   1.820   3.672   1.855 -0.3017 -0.0324 -0.1711
 2301W        W 3498   1.087   4.236   4.592 -0.1109  0.0920  0.3778
 2302W        W 3499   0.292   4.000   5.495  0.0043 -0.0010 -0.0385
 2303W        W 3500   3.474   2.708   5.056 -0.0286 -0.3900 -0.1458
 2304W        W 3501   4.522   0.179   2.378 -0.2772 -0.1120 -0.2835
 2305W        W 3502   0.676   4.201   1.473  0.0231  0.2448  0.0626
 2306W        W 3503   7.441   5.732   0.116 -0.0019 -0.1632 -0.0814
 2307W        W 3504   1.896   7.144   2.442  0.2921  0.0902  0.0530
 2308W        W 3505   5.428   2.621   0.044  0.2121 -0.1429 -0.1820
 2309W        W 3506   2.930   2.635   4.696 -0.0145 -0.0048 -0.3862
 2310W        W 3507   7.604   1.975   5.505  0.5052 -0.0311 -0.2089
 2311W        W 3508   4.505   2.428   1.615 -0.1694  0.2400 -0.0367
 2312W        W 3509   2.904   6.778   1.261  0.0547  0.1586 -0.0875
 2313W        W 3510   1.786   5.508   6.040 -0.1741 -0.0715  0.1976
 2314W        W 3511   5.183   5.766   2.639 -0.2949  0.3449 -0.1905
 2315W        W 3512   0.086   5.682   2.277 -0.1095 -0.0028  0.1923
 2316W        W 3513   3.416   4.394   3.004 -0.2875 -0.2412 -0.0125
 2317W        W 3514   1.539   4.750   6.060 -0.1556  0.0251  0.0504
 2318W        W 3515   2.676   6.078   1.187  0.2574  0.2034  0.0059
 2319W        W 3516   1.121   1.500   3.934 -0.0216  0.1361  0.0489
 2320W        W 3517   5.343   6.950   5.538  0.0461  0.1769 -0.0643
 2321W        W 3518   6.758   1.040   4.932 -0.0070  0.2333  0.1890
 2322W        W 3519   1.365   6.451   6.489  0.0300 -0.2362  0.1602
 2323W        W 3520   5.941   4.300   1.307  0.2503 -0.1926  0.2693
 2324W        W 3521   5.124   2.958   5.457 -0.1031 -0.0855  0.0333
 2325W        W 3522   5.378   4.045   4.657 -0.3963 -0.1224  0.4010
 2326W        W 3523   2.312   5.670   3.826  0.1593 -0.3611 -0.0738
 2327W        W 3524   3.576   0.586   4.283 -0.4108  0.1821 -0.0735
 2328W        W 3525   0.252   0.039   5.834  0.1096 -0.1883  0.2744
 2329W        W 3526   2.455   2.286   4.590 -0.0641 -0.0595  0.0885
 2330W        W 3527   3.670   5.026   0.056 -0.3466  0.1858  0.0048
 2331W        W 3528   2.447   5.555   0.515  0.0663  0.2748  0.2090
 2332W        W 3529   5.998   2.570   6.511 -0.0888 -0.0896  0.0095
 2333W        W 3530   5.350   3.620   0.108 -0.0607 -0.3331  0.1149
 2334W        W 3531   2.531   6.030   0.732  0.0279 -0.3240  0.0691
 2335W        W 3532   2.350   5.374   2.937 -0.1072  0.1331 -0.0855
 2336W        W 3533   3.774   3.697   0.105  0.4865  0.0690  0.2218
 2337W        W 3534   3.696   3.619   4.035  0.2650 -0.0996 -0.0216
 2338W        W 3535   2.811   4.647   3.062  0.1649  0.0127  0.1255
 2339W        W 3536   1.892   6.161   4.955 -0.1081  0.0285 -0.1735
 2340W        W 3537   6.993   2.316   3.409 -0.0882  0.0911 -0.1696
 2341W        W 3538   0.564   6.000   6.672  0.0263 -0.0942  0.0590
 2342W        W 3539   3.767   6.611   3.930  0.0028  0.0026  0.2244
 2343W        W 3540   0.884   3.733   4.509 -0.2671  0.2568  0.2134
 2344W        W 3541   6.032   6.250   1.567 -0.0313 -0.0279 -0.0717
 2345W        W 3542   5.904   1.688   2.439  0.0164  0.1810 -0.2448
 2346W        W 3543   0.375   6.483   1.600 -0.0213 -0.1012 -0.0323
 2347W        W 3544   6.604   4.206   7.003  0.2112  0.4143  0.0039
 2348W        W 3545   2.907   6.069   2.651  0.3785 -0.2775 -0.0687
 2349W        W 3546   5.850   0.503   4.903  0.0842 -0.0983  0.2752
 2350W        W 3547   0.627   4.558   4.753 -0.2596 -0.1257 -0.3160
 2351W        W 3548   7.622   4.136   5.989 -0.1141 -0.0388  0.6157
 2352W        W 3549   6.845   3.402   1.306 -0.2687 -0.0536  0.1504
 2353W        W 3550   0.770   2.719   3.594  0.0950  0.0191  0.1097
 2354W        W 3551   4.473   7.652   3.447 -0.0022 -0.3044 -0.0822
 2355W        W 3552   0.139   5.324   2.657 -0.5735 -0.1899 -0.1240
 2356W        W 3553   0.900   5.994   0.300  0.1389  0.0144 -0.0030
 2357W        W 3554   1.949   4.643   1.789  0.3039  0.0372 -0.3490
 2358W        W 3555   5.049   3.348   4.521  0.0035  0.1078 -0.1096
 2359W        W 3556   6.137   7.190   7.580  0.2194 -0.0802  0.1108
 2360W        W 3557   0.845   3.908   0.239 -0.1376 -0.3281 -0.1123
 2361W        W 3558   0.500   0.320   4.952 -0.0796  0.0628 -0.0560
 2362W        W 3559   0.700   5.715   5.519 -0.2981 -0.1777 -0.0677
 2363W        W 3560   5.894   0.750   2.059  0.1855  0.1133  0.2926
 2364W        W 3561   0.307   4.721   2.296  0.0102  0.2917  0.0056
 2365W        W 3562   2.321   1.007   5.195  0.1473  0.0094  0.1736
 2366W        W 3563   7.308   6.021   1.788 -0.1051  0.1294 -0.1132
 2367W        W 3564   5.243   0.487   5.454  0.1488  0.0565  0.1797
 2368W        W 3565   1.907   3.744   4.825  0.3304  0.5096 -0.1118
 2369W        W 3566   7.542   7.462   2.987 -0.0495  0.0085 -0.1145
 2370W        W 3567   0.769   6.967   4.539 -0.0514 -0.2134 -0.0650
 2371W        W 3568   0.038   7.247   0.955  0.2652 -0.2069 -0.2146
 2372W        W 3569   4.820   7.637   1.915  0.2375 -0.0148  0.1227
 2373W        W 3570   0.064   7.671   1.252  0.1398  0.1016 -0.0629
 2374W        W 3571   5.270   5.524   1.302  0.4476  0.1462 -0.3790
 2375W        W 3572   3.963   1.451   2.960 -0.1933 -0.0940  0.2132
 2376W        W 3573   3.923   0.039   5.392 -0.0689 -0.1267 -0.3255
 2377W        W 3574   1.543   5.154   5.749 -0.2241 -0.1893 -0.0248
 2378W        W 3575   6.778   5.756   1.818  0.1051 -0.3203  0.1609
 2379W        W 3576   3.743   4.572   7.393  0.1537 -0.0975 -0.1957
 2380W        W 3577   6.704   3.210   3.405  0.0011  0.0732  0.1308
 2381W        W 3578   1.465   5.652   3.273  0.0872 -0.3269  0.0613
 2382W        W 3579   4.354   5.623   0.514 -0.0860 -0.0116  0.2575
 2383W        W 3580   6.459   3.183   2.407  0.1204 -0.1754 -0.0139
 2384W        W 3581   6.361   5.681   2.244 -0.1818 -0.1974 -0.1000
 2385W        W 3582   0.428   1.708   2.178 -0.1687  0.3060 -0.0805
 2386W        W 3583   1.909   5.020   7.121 -0.0841 -0.0284 -0.0678
 2387W        W 3584   6.280   5.421   6.271 -0.0918 -0.1026 -0.1094
 2388W        W 3585   5.156   7.413   1.489 -0.1610  0.3646  0.0495
 2389W        W 3586   2.962   3.250   3.925 -0.1963 -0.0674  0.0358
 2390W        W 3587   4.428   2.843   1.887 -0.0837  0.3509 -0.2776
 2391W        W 3588   0.428   0.436   5.439 -0.0103  0.0760 -0.0881
 2392W        W 3589   6.050   1.498   2.892 -0.1831 -0.3853  0.1572
 2393W        W 3590   4.297   6.724   4.619  0.2001 -0.2438 -0.0456
 2394W        W 3591   3.366   5.396   5.623  0.2547  0.2197  0.0121
 2395W        W 3592   5.131   0.617   4.891  0.3414  0.2687 -0.1015
 2396W        W 3593   4.725   3.216   6.809  0.2484  0.2685  0.0937
 2397W        W 3594   6.330   2.220   6.095  0.0863 -0.0653  0.0155
 2398W        W 3595   0.652   5.464   7.410 -0.1184  0.0885 -0.0618
 2399W        W 3596   7.478   5.298   1.339  0.0301  0.3293  0.3754
 2400W        W 3597   4.899   2.392   5.648 -0.0561  0.1284 -0.2262
 2401W        W 3598   1.674   4.927   4.454  0.2188 -0.2152  0.2268
 2402W        W 3599   5.556   5.758   7.082 -0.0306 -0.1065 -0.1839
 2403W        W 3600   6.242   2.405   3.930 -0.3887  0.5462  0.2779
 2404W        W 3601   6.211   4.157   5.912  0.1384 -0.2132 -0.1344
 2405W        W 3602   0.603   0.309   6.611 -0.1173  0.1856  0.1124
 2406W        W 3603   4.819   5.126   2.109  0.0883  0.2159  0.0214
 2407W        W 3604   5.110   1.265   4.340 -0.0535 -0.0857  0.2154
 2408W        W 3605   2.026   1.923   3.353 -0.0062 -0.2411 -0.1791
 2409W        W 3606   6.916   2.151   4.656  0.0754  0.3453  0.3088
 2410W        W 3607   3.913   3.296   0.324 -0.0924 -0.1955  0.1046
 2411W        W 3608   7.239   7.209   1.743 -0.1802 -0.0154 -0.0082
 2412W        W 3609   1.899   5.750   3.513  0.2742  0.2344  0.0628
 2413W        W 3610   0.572   4.831   5.924  0.0928  0.2162  0.2268
 2414W        W 3611   0.650   7.172   3.035  0.1782 -0.2620 -0.0850
 2415W        W 3612   1.839   4.536   2.734 -0.3010  0.0167 -0.0933
 2416W        W 3613   2.910   6.366   0.487 -0.1021  0.0845  0.0969
 2417W        W 3614   1.762   6.878   4.189 -0.0200  0.1361  0.0706
 2418W        W 3615   1.436   6.193   4.511  0.1367  0.0595 -0.3342
 2419W        W 3616   2.159   3.356   2.720 -0.0244 -0.1379  0.1089
 2420W        W 3617   1.222   6.447   0.970  0.2178  0.1630 -0.2339
 2421W        W 3618   6.151   1.595   6.396 -0.2373 -0.3088  0.0407
 2422W        W 3619   7.189   5.671   6.473  0.5410  0.0906 -0.4428
 2423W        W 3620   6.525   0.459   3.289  0.1425  0.1340  0.0967
 2424W        W 3621   7.090   2.733   3.112  0.1315  0.0685 -0.0004
 2425W        W 3622   4.208   7.234   5.669  0.1255  0.0413 -0.1692
 2426W        W 3623   7.602   2.101   4.439 -0.2102  0.0059  0.0211
 2427W        W 3624   1.221   6.253   5.008  0.1512  0.0076  0.0056
 2428W        W 3625   3.231   3.488   4.258  0.1481  0.1529 -0.3351
 2429W        W 3626   4.090   5.920   3.110  0.0344 -0.0464  0.2514
 2430W        W 3627   0.923   3.482   2.863 -0.0994 -0.3265  0.1379
 2431W        W 3628   7.308   6.856   1.319 -0.0993 -0.0439 -0.0584
 2432W        W 3629   3.645   0.965   1.537  0.0127 -0.1271  0.4571
 2433W        W 3630   2.770   4.687   3.649 -0.2039 -0.1777  0.0607
 2434W        W 3631   5.694   6.173   5.955  0.2267 -0.1308 -0.2807
 2435W        W 3632   2.371   3.165   3.157  0.1243 -0.2816  0.1347
 2436W        W 3633   5.543   2.505   3.198  0.1602 -0.2919  0.0147
 2437W        W 3634   4.663   0.652   6.198 -0.2045 -0.3670  0.2630
 2438W        W 3635   3.929   1.961   0.915  0.4405 -0.0659 -0.0974
 2439W        W 3636   1.709   1.096   5.192  0.2070 -0.4412 -0.1210
 2440W        W 3637   2.837   0.932   3.347 -0.1551 -0.1314  0.0330
 2441W        W 3638   1.383   3.761   4.633 -0.1701  0.1438 -0.0560
 2442W        W 3639   5.889   0.388   4.381  0.0548 -0.0118  0.4458
 2443W        W 3640   6.949   2.600   2.590 -0.1355  0.1410 -0.1313
 2444W        W 3641   5.148   6.171   6.193  0.0160 -0.0449 -0.0486
 2445W        W 3642   7.267   4.587   0.367  0.1391  0.0137  0.4008
 2446W        W 3643   7.174   6.743   3.407  0.0314  0.2331 -0.0076
 2447W        W 3644   6.906   7.510   0.481  0.1604 -0.0490 -0.0247
 2448W        W 3645   4.292   0.782   4.091  0.3382 -0.1799  0.4849
 2449W        W 3646   4.327   5.055   5.410  0.1760 -0.2666 -0.2056
 2450W        W 3647   4.825   3.013   5.980 -0.0870  0.1298  0.0148
 2451W        W 3648   0.173   1.333   4.270 -0.4012  0.1127  0.2108
 2452W        W 3649   3.129   0.902   2.734 -0.0069  0.1778 -0.0760
 2453W        W 3650   2.635   6.480   3.421 -0.1379 -0.3480 -0.1488
 2454W        W 3651   2.380   2.346   5.128 -0.0286  0.1714 -0.4589
 2455W        W 3652   2.875   7.152   7.081 -0.0346 -0.0057  0.3048
 2456W        W 3653   2.318   6.328   3.070  0.1872 -0.0251  0.1960
 2457W        W 3654   7.101   3.360   6.587  0.1752 -0.0297  0.3565
 2458W        W 3655   4.318   4.980   1.971 -0.4000  0.0253 -0.0209
 2459W        W 3656   2.785   2.379   1.294 -0.0157 -0.1853  0.2127
 2460W        W 3657   7.211   4.945   7.249 -0.4111  0.1836  0.0670
 2461W        W 3658   5.051   3.884   5.049  0.3660 -0.0704 -0.3334
 2462W        W 3659   3.153   3.447   4.749 -0.0132 -0.0629 -0.1981
 2463W        W 3660   1.268   1.917   5.786 -0.1816  0.1371  0.2492
 2464W        W 3661   2.126   4.469   5.623  0.3294 -0.2937 -0.1795
 2465W        W 3662   5.107   3.421   5.144  0.4422 -0.2133  0.1357
 2466W        W 3663   2.985   4.979   6.765  0.1051  0.1220 -0.0582
 2467W        W 3664   1.913   0.765   4.879  0.0123  0.1200  0.1427
 2468W        W 3665   7.575   0.600   1.721  0.0388  0.2260  0.0098
 2469W        W 3666   2.597   4.321   7.577 -0.1340 -0.0496  0.0417
 2470W        W 3667   2.673   2.112   3.506 -0.0068 -0.2451  0.2707
 2471W        W 3668   5.558   4.500   2.167 -0.0644 -0.2808 -0.2987
 2472W        W 3669   5.409   0.215   4.615 -0.2709 -0.0444 -0.0340
 2473W        W 3670   6.134   2.414   3.039  0.2917 -0.1353  0.3086
 2474W        W 3671   6.017   6.492   0.706 -0.0726 -0.3778  0.0873
 2475W        W 3672   7.037   3.376   2.921  0.2199  0.0911 -0.4485
 2476W        W 3673   4.661   6.440   3.657  0.1542 -0.0112  0.3725
 2477W        W 3674   6.330   5.516   1.745  0.1014  0.2376  0.0277
 2478W        W 3675   4.364   1.324   3.343  0.1610 -0.1030 -0.0522
 2479W        W 3676   7.353   3.023   2.656  0.5997 -0.0399  0.0021
 2480W        W 3677   7.354   3.086   6.922  0.1687 -0.3473 -0.1640
 2481W        W 3678   2.309   4.749   1.059 -0.2023  0.3139 -0.3576
 2482W        W 3679   2.533   7.090   1.450 -0.0166 -0.1401 -0.0721
 2483W        W 3680   0.923   4.068   3.675  0.2262  0.1475 -0.0079
 2484W        W 3681   1.912   3.563   3.914  0.2644 -0.2362  0.0211
 2485W        W 3682   3.701   6.684   1.458 -0.0597  0.3448 -0.1380
 2486W        W 3683   6.537   3.163   6.097 -0.0709 -0.2019  0.1752
 2487W        W 3684   0.486   6.855   6.443  0.1079  0.0041 -0.5261
 2488W        W 3685   2.923   5.276   7.194  0.0491 -0.1918  0.1930
 2489W        W 3686   6.687   6.406   7.155 -0.0259 -0.0654  0.1979
 2490W        W 3687   4.930   3.073   7.267  0.3631 -0.0756 -0.2091
 2491W        W 3688   5.157   7.452   5.624  0.3236  0.2230 -0.3241
 2492W        W 3689   4.972   7.200   3.029 -0.1759 -0.2651  0.0013
 2493W        W 3690   6.306   6.777   6.067 -0.1976 -0.0240  0.2864
 2494W        W 3691   6.809   6.825   4.394 -0.0100 -0.2564  0.0581
 2495W        W 3692   3.410   6.425   0.595 -0.2928 -0.0509 -0.1393
 2496W        W 3693   3.385   4.290   7.124 -0.0769  0.2955 -0.1341
 2497W        W 3694   6.204   3.006   4.503 -0.3874  0.0498  0.1613
 2498W        W 3695   1.251   6.384   1.470 -0.0456 -0.4180  0.3911
 2499W        W 3696   3.050   3.242   2.552 -0.1299 -0.1287  0.1529
 2500W        W 3697   0.299   1.695   2.710 -0.2819 -0.1693 -0.2895
 2501W        W 3698   0.223   1.808   4.076  0.2645 -0.2642  0.0554
 2502W        W 3699   2.421   1.163   3.231 -0.0140 -0.0242 -0.1550
 2503W        W 3700   4.231   7.528   6.083  0.1757 -0.2841 -0.1559
 2504W        W 3701   4.354   5.358   5.925 -0.3946  0.1739  0.3621
 2505W        W 3702   2.473   6.939   4.734 -0.0699 -0.0582 -0.2775
 2506W        W 3703   6.262   2.235   5.221  0.0773 -0.1032  0.1455
 2507W        W 3704   5.654   5.233   1.423 -0.1993  0.0502  0.0943
 2508W        W 3705   3.658   6.302   2.377  0.0316  0.3044 -0.1901
 2509W        W 3706   2.494   5.215   0.835 -0.2410  0.1547  0.0265
 2510W        W 3707   3.968   0.935   2.602  0.0170  0.0877 -0.1781
 2511W        W 3708   7.008   7.521   3.816 -0.0623  0.2234 -0.0856
 2512W        W 3709   4.446   5.833   4.926 -0.0685 -0.0853 -0.0984
 2513W        W 3710   2.507   2.449   2.047  0.1367 -0.0892  0.0555
 2514W        W 3711   1.191   0.921   5.327 -0.2044 -0.1221 -0.1393
 2515W        W 3712   1.614   2.852   5.995  0.0942 -0.2351 -0.0205
 2516W        W 3713   1.471   5.589   1.815 -0.0209  0.0627  0.3179
 2517W        W 3714   6.439   6.467   1.747  0.2429 -0.0030  0.1242
 2518W        W 3715   7.298   0.132   7.136 -0.1788  0.1383 -0.0727
 2519W        W 3716   4.376   2.666   4.241  0.0676 -0.0227 -0.0886
 2520W        W 3717   0.583   4.438   2.730  0.0816  0.1828 -0.0458
 2521W        W 3718   6.563   5.057   1.371 -0.0670 -0.5147 -0.0360
 2522W        W 3719   3.165   3.839   6.290  0.1089 -0.1850 -0.1339
 2523W        W 3720   6.715   4.416   2.035  0.0599 -0.3994  0.1298
 2524W        W 3721   3.547   4.176   0.063  0.0397 -0.0638 -0.1454
 2525W        W 3722   2.916   3.860   1.639  0.0011  0.2597  0.1192
 2526W        W 3723   6.491   3.442   1.630 -0.0548  0.1461  0.2010
 2527W        W 3724   1.973   3.126   1.056 -0.2361  0.0091 -0.2876
 2528W        W 3725   4.848   3.642   6.533  0.3122 -0.3416 -0.0923
 2529W        W 3726   3.928   3.626   2.828 -0.1068 -0.0630 -0.0745
 2530W        W 3727   1.227   6.984   0.654  0.0753  0.0706 -0.0856
 2531W        W 3728   2.064   5.230   6.674 -0.0442  0.2883  0.0035
 2532W        W 3729   3.416   3.573   2.251 -0.0010  0.1394 -0.1183
 2533W        W 3730   1.361   6.121   0.036  0.1396 -0.1481  0.0956
 2534W        W 3731   4.064   5.444   1.286 -0.3301 -0.2706  0.0551
 2535W        W 3732   1.116   7.561   5.910  0.2181  0.2845  0.0315
 2536W        W 3733   1.579   3.058   1.316  0.0104 -0.1063 -0.1054
 2537W        W 3734   4.502   4.268   2.983  0.2454  0.4130  0.2244
 2538W        W 3735   6.408   4.692   2.404 -0.1123 -0.2948  0.3440
 2539W        W 3736   6.894   1.244   5.701 -0.3287  0.0306  0.3657
 2540W        W 3737   4.980   2.230   1.960  0.1916  0.4681 -0.0076
 2541W        W 3738   0.356   4.915   2.869 -0.1918 -0.2549  0.0126
 2542W        W 3739   1.203   6.550   3.380 -0.3564  0.0372  0.1332
 2543W        W 3740   4.395   0.727   5.795  0.0288  0.0468  0.1342
 2544W        W 3741   3.165   6.749   0.254  0.1539  0.1324  0.2126
 2545W        W 3742   5.024   0.873   2.411 -0.0636  0.0324  0.2379
 2546W        W 3743   1.808   4.332   0.281 -0.2149  0.1925  0.2286
 2547W        W 3744   7.581   7.547   3.547 -0.1209  0.1077  0.3694
 2548W        W 3745   4.910   1.046   4.787  0.0673 -0.0427 -0.0272
 2549W        W 3746   6.116   1.092   6.078 -0.1655  0.0784 -0.2269
 2550W        W 3747   4.115   6.981   7.537 -0.3404  0.0696 -0.0813
 2551W        W 3748   7.397   1.176   4.403  0.0658 -0.1352 -0.0733
 2552W        W 3749   3.249   5.863   4.070 -0.0552 -0.2026  0.1952
 2553W        W 3750   7.045   6.286   4.289  0.2626 -0.1888  0.2716
 2554W        W 3751   7.219   4.642   2.863 -0.0160  0.0680 -0.0794
 2555W        W 3752   0.493   3.328   1.490  0.0475  0.5180 -0.0771
 2556W        W 3753   2.543   3.551   2.447 -0.1335  0.0314 -0.0133
 2557W        W 3754   6.806   3.737   0.483 -0.0591 -0.2979  0.0193
 2558W        W 3755   6.096   5.647   6.741  0.0378  0.1279 -0.0183
 2559W        W 3756   2.631   4.570   6.805  0.1020 -0.1980  0.0794
 2560W        W 3757   4.104   2.261   3.200  0.1620 -0.1854  0.1293
 2561W        W 3758   5.040   3.947   7.300  0.1146  0.2363  0.2139
 2562W        W 3759   3.076   0.322   5.355  0.0804  0.0475  0.0253
 2563W        W 3760   1.752   7.416   5.807 -0.1191  0.0134  0.0096
 2564W        W 3761   3.090   5.873   0.449 -0.2020 -0.1590 -0.0862
 2565W        W 3762   6.160   6.514   3.436 -0.2175 -0.0253 -0.3300
 2566W        W 3763   1.406   5.717   4.331 -0.0190 -0.1310 -0.0334
 2567W        W 3764   4.395   6.243   1.815 -0.1914  0.2118 -0.0920
 2568W        W 3765   2.530   5.938   5.747  0.0987 -0.2311  0.1885
 2569W        W 3766   2.275   6.244   0.010 -0.0707 -0.2793 -0.1071
 2570W        W 3767   6.969   0.045   6.248  0.0849  0.2147 -0.0990
 2571W        W 3768   7.202   6.329   7.087 -0.1169 -0.1382 -0.0701
 2572W        W 3769   3.114   3.177   1.624  0.0723  0.0495  0.0370
 2573W        W 3770   2.566   1.986   1.518 -0.2684 -0.1724  0.3267
 2574W        W 3771   2.351   1.490   4.144  0.2404 -0.1331 -0.0063
 2575W        W 3772   4.943   3.530   6.044 -0.1446  0.1739  0.0214
 2576W        W 3773   4.334   1.417   4.274  0.3317  0.0415 -0.1915
 2577W        W 3774   6.720   5.370   2.104  0.0650  0.0931 -0.1452
 2578W        W 3775   3.548   0.609   1.924  0.0223  0.1895 -0.0686
 2579W        W 3776   3.170   6.816   2.126 -0.0888  0.1467  0.0626
 2580W        W 3777   6.268   0.869   3.704  0.0809 -0.2907  0.2356
 2581W        W 3778   6.203   6.387   5.190 -0.0420 -0.2170 -0.1413
 2582W        W 3779   6.924   2.805   3.607  0.0347  0.1127  0.0411
 2583W        W 3780   3.213   5.928   2.270 -0.3309  0.0222 -0.0592
 2584W        W 3781   5.379   1.666   4.503 -0.1748  0.1341 -0.1380
 2585W        W 3782   5.022   3.795   0.471  0.0354  0.3057 -0.0576
 2586W        W 3783   3.909   0.231   7.079  0.0474 -0.0086 -0.0968
 2587W        W 3784   2.957   1.567   5.739  0.1665  0.0413  0.0941
 2588W        W 3785   0.921   4.190   1.932 -0.1126 -0.2517  0.0637
 2589W        W 3786   3.895   4.117   1.562 -0.4151  0.2699  0.3527
 2590W        W 3787   4.617   1.826   3.497  0.1301  0.0946  0.2939
 2591W        W 3788   4.281   1.532   1.064  0.1674 -0.1626  0.0269
 2592W        W 3789   1.476   5.013   7.461 -0.1757  0.1037  0.2327
 2593W        W 3790   2.884   5.857   7.498  0.0420 -0.2840  0.0238
 2594W        W 3791   6.522   1.513   5.429 -0.3120 -0.0980 -0.2839
 2595W        W 3792   4.772   3.701   2.904  0.3471  0.0890 -0.1907
 2596W        W 3793   0.361   5.796   7.092 -0.2522  0.2762  0.1972
 2597W        W 3794   5.793   1.959   2.858  0.0982 -0.1512  0.2866
 2598W        W 3795   2.769   3.694   4.102 -0.2094 -0.0546 -0.3847
 2599W        W 3796   3.516   2.898   1.665 -0.1144 -0.3639 -0.3570
 2600W        W 3797   6.516   3.948   3.070 -0.0998  0.1390  0.0184
 2601W        W 3798   0.157   3.229   5.008  0.2344  0.0656 -0.1437
 2602W        W 3799   6.030   0.648   3.325  0.1575  0.0366  0.2014
 2603W        W 3800   4.491   2.547   0.360 -0.1078 -0.1440 -0.0386
 2604W        W 3801   6.592   1.282   3.536  0.0186 -0.0112 -0.1682
 2605W        W 3802   6.695   6.938   6.303  0.3484  0.0229 -0.3724
 2606W        W 3803   5.608   3.894   0.453 -0.1805 -0.0850  0.1086
 2607W        W 3804   5.991   3.273   1.545 -0.0845  0.0254  0.4150
 2608W        W 3805   4.498   5.307   4.911  0.0139 -0.1917 -0.1783
 2609W        W 3806   2.349   5.709   5.297  0.3892 -0.1965 -0.1437
 2610W        W 3807   4.742   5.613   4.470  0.0546  0.2283  0.0027
 2611W        W 3808   0.530   0.426   6.087 -0.1601  0.0133  0.0597
 2612W        W 3809   5.135   2.577   2.907  0.1723 -0.0101 -0.2123
 2613W        W 3810   4.599   2.571   4.707  0.1563  0.2719 -0.2445
 2614W        W 3811   4.435   5.266   0.810  0.2048  0.2073  0.0227
 2615W        W 3812   0.357   0.139   4.485  0.1544 -0.2996  0.4019
 2616W        W 3813   3.664   2.898   0.807 -0.0080 -0.1099 -0.1317
 2617W        W 3814   0.008   4.832   1.263 -0.0862  0.1038  0.1792
 2618W        W 3815   1.498   4.094   6.162  0.1218  0.0192  0.0283
 2619W        W 3816   3.315   4.471   3.761  0.0295  0.1408  0.0998
 2620W        W 3817   4.648   2.410   3.427  0.3135  0.0581  0.0039
 2621W        W 3818   4.454   5.107   3.462 -0.1859 -0.1075 -0.2303
 2622W        W 3819   2.993   3.779   2.427  0.3194  0.1178  0.0580
 2623W        W 3820   4.500   3.268   1.057  0.2901  0.0588 -0.0576
 2624W        W 3821   2.587   7.047   3.667  0.0694 -0.1288  0.1318
 2625W        W 3822   1.463   7.077   4.544 -0.0075 -0.1805 -0.1044
 2626W        W 3823   3.859   0.974   4.405 -0.4592  0.0229  0.0389
 2627W        W 3824   3.542   0.209   3.966 -0.0143 -0.1111 -0.1120
 2628W        W 3825   0.442   0.135   7.017  0.2438 -0.0050  0.0079
 2629W        W 3826   0.776   0.816   5.533 -0.1827  0.1902 -0.0837
 2630W        W 3827   3.477   3.370   3.082  0.0888  0.2682  0.0795
 2631W        W 3828   6.639   6.541   0.290 -0.0443  0.2771 -0.0309
 2632W        W 3829   0.078   2.727   4.690 -0.0321  0.1373  0.2974
 2633W        W 3830   5.998   6.645   2.497  0.0567 -0.1417  0.1042
 2634W        W 3831   7.031   4.086   1.644 -0.1624 -0.0762  0.2534
 2635W        W 3832   4.906   4.450   1.144  0.0873  0.1582  0.3980
 2636W        W 3833   6.164   7.674   4.336  0.3126 -0.0322 -0.1592
 2637W        W 3834   2.744   4.848   4.744 -0.2056 -0.2440  0.1088
 2638W        W 3835   3.414   6.823   6.391 -0.0836  0.0872  0.0955
 2639W        W 3836   1.585   4.800   6.752  0.0750 -0.0826 -0.2233
 2640W        W 3837   6.142   5.014   1.658  0.1810 -0.1175  0.0108
 2641W        W 3838   2.010   4.240   3.125  0.1937  0.0214  0.1547
 2642W        W 3839   5.136   3.088   3.641 -0.0896  0.1827 -0.0755
 2643W        W 3840   6.663   4.296   0.334  0.2252 -0.2505  0.1608
 2644W        W 3841   7.621   6.346   3.600 -0.2246 -0.0242  0.2534
 2645W        W 3842   2.663   1.182   5.558  0.2177  0.2859  0.1814
 2646W        W 3843   6.227   3.215   3.590  0.2513  0.0451  0.2323
 2647W        W 3844   2.500   7.143   5.458 -0.0732 -0.1064 -0.3090
 2648W        W 3845   3.620   0.057   7.505 -0.1936  0.1985 -0.0073
 2649W        W 3846   2.758   7.462   3.501  0.0494 -0.2579  0.1645
 2650W        W 3847   3.457   0.111   6.535  0.0313  0.2194  0.1228
 2651W        W 3848   3.231   5.576   0.008 -0.0097  0.2553 -0.0378
 2652W        W 3849   3.777   5.884   4.896 -0.2485 -0.1056 -0.0245
 2653W        W 3850   1.948   7.029   4.685  0.1664  0.2333  0.0642
 2654W        W 3851   2.567   0.176   6.654 -0.1100  0.1138 -0.3141
 2655W        W 3852   4.625   4.348   2.519  0.1879  0.0170  0.3933
 2656W        W 3853   2.169   5.920   1.827 -0.0753 -0.5164 -0.0844
 2657W        W 3854   4.970   6.165   0.525 -0.0745 -0.0366  0.3762
 2658W        W 3855   3.697   5.510   7.549 -0.0255 -0.2410  0.0514
 2659W        W 3856   6.295   7.507   2.309  0.1315 -0.0822 -0.1088
 2660W        W 3857   5.461   6.548   7.502  0.1832 -0.0825  0.0182
 2661W        W 3858   4.188   6.492   2.189 -0.5043  0.0448  0.0536
 2662W        W 3859   5.628   2.888   6.747  0.0266  0.2673 -0.2996
 2663W        W 3860   0.943   2.583   5.080 -0.2048 -0.1313  0.0849
 2664W        W 3861   5.247   2.488   2.367  0.0121 -0.1726 -0.3399
 2665W        W 3862   0.637   3.368   4.860 -0.4349  0.0848  0.1712
 2666W        W 3863   7.209   6.391   1.218 -0.1063 -0.2434  0.0084
 2667W        W 3864   4.049   4.148   7.583 -0.3542  0.1270  0.0343
 2668W        W 3865   3.672   2.064   5.569  0.0483 -0.2205  0.0574
 2669W        W 3866   7.000   2.783   1.154  0.1353  0.0942  0.1208
 2670W        W 3867   4.528   3.960   5.874 -0.1906 -0.0107  0.1049
 2671W        W 3868   6.300   4.417   2.854 -0.0165  0.0404  0.3655
 2672W        W 3869   0.761   7.196   2.545 -0.0134  0.2774 -0.1886
 2673W        W 3870   4.843   3.068   0.152  0.2350 -0.3451  0.1148
 2674W        W 3871   0.989   2.011   4.221  0.0909 -0.4387 -0.1142
 2675W        W 3872   7.482   2.649   1.446 -0.0268 -0.0557 -0.1015
 2676W        W 3873   1.280   1.430   5.322 -0.0596 -0.1872  0.1774
 2677W        W 3874   3.744   5.688   4.397  0.3597 -0.0760  0.0835
 2678W        W 3875   4.650   2.799   3.829 -0.2734 -0.0052 -0.1846
 2679W        W 3876   5.659   7.441   1.678  0.1341  0.1278 -0.1140
 2680W        W 3877   2.340   4.692   4.959 -0.0072 -0.0667  0.0957
 2681W        W 3878   2.445   6.297   2.499  0.1240 -0.2680 -0.1820
 2682W        W 3879   0.797   0.306   3.658 -0.1067  0.0301  0.1614
 2683W        W 3880   6.869   4.142   7.475  0.1485  0.0094  0.2933
 2684W        W 3881   2.651   5.215   1.319  0.0671 -0.0751 -0.0176
 2685W        W 3882   4.751   2.953   4.336 -0.2699 -0.1272 -0.1472
 2686W        W 3883   1.577   6.895   6.683 -0.0149  0.1453 -0.1603
 2687W        W 3884   4.975   6.674   0.769  0.1152 -0.3635 -0.0221
 2688W        W 3885   0.304   7.493   1.800 -0.0078  0.1677 -0.2397
 2689W        W 3886   1.021   3.512   6.634 -0.0393 -0.0680  0.2308
 2690W        W 3887   0.912   2.188   4.743 -0.0446 -0.1003 -0.2082
 2691W        W 3888   7.035   1.987   0.843  0.1291 -0.0866  0.1036
 2692W        W 3889   1.331   1.925   4.535  0.1668  0.0832 -0.1654
 2693W        W 3890   6.712   4.074   6.181 -0.2755  0.0245  0.0891
 2694W        W 3891   4.306   4.752   3.054 -0.0062 -0.1593 -0.1352
 2695W        W 3892   4.535   1.051   1.659  0.0642 -0.1057 -0.0590
 2696W        W 3893   2.735   0.638   6.585  0.0383 -0.1468 -0.0056
 2697W        W 3894   3.163   6.411   3.151 -0.1986 -0.1243  0.2312
 2698W        W 3895   2.956   0.138   3.005  0.1179 -0.1265  0.0173
 2699W        W 3896   4.542   6.019   3.981 -0.1652  0.2800  0.3135
 2700W        W 3897   7.446   7.080   4.568  0.0940 -0.0897  0.2211
 2701W        W 3898   3.989   5.469   3.286  0.0330 -0.0511 -0.2949
 2702W        W 3899   3.625   0.678   4.791 -0.4129  0.2243 -0.1014
 2703W        W 3900   2.748   6.082   3.118  0.1090 -0.1750  0.1048
 2704W        W 3901   4.098   5.359   0.166  0.1015  0.3239  0.1751
 2705W        W 3902   2.680   6.480   0.051 -0.1445  0.2784 -0.2455
 2706W        W 3903   1.709   6.646   6.213  0.2691 -0.3631  0.0485
 2707W        W 3904   2.003   2.782   2.469 -0.1819 -0.1969 -0.0332
 2708W        W 3905   3.605   2.095   4.098 -0.2693 -0.0058  0.1683
 2709W        W 3906   7.346   3.388   2.122  0.0754  0.2450  0.2165
 2710W        W 3907   1.271   3.717   7.615  0.2233  0.3212 -0.0221
 2711W        W 3908   3.937   4.482   2.917  0.2086  0.1475  0.0851
 2712W        W 3909   0.496   2.390   6.616 -0.1657 -0.1475  0.1755
 2713W        W 3910   3.094   4.090   1.125 -0.0353  0.0768 -0.3239
 2714W        W 3911   3.027   7.151   6.052  0.1168  0.0422 -0.1363
 2715W        W 3912   2.419   3.444   1.169 -0.1823 -0.5034 -0.1218
 2716W        W 3913   6.834   6.726   2.959 -0.0462  0.1309  0.0386
 2717W        W 3914   1.033   2.295   5.542 -0.2795  0.1624 -0.0312
 2718W        W 3915   0.855   3.134   1.875  0.2315 -0.0640  0.1237
 2719W        W 3916   1.690   6.810   5.688  0.1867 -0.0211  0.2629
 2720W        W 3917   1.658   6.075   1.692 -0.0207  0.0391  0.4133
 2721W        W 3918   6.858   3.196   3.884 -0.0811 -0.0072 -0.0735
 2722W        W 3919   7.395   4.045   7.364 -0.0345  0.1207  0.1618
 2723W        W 3920   4.087   3.986   0.389 -0.1799  0.4152 -0.1795
 2724W        W 3921   6.819   1.924   2.864 -0.0053  0.3260  0.4274
 2725W        W 3922   3.945   1.259   4.012  0.2111 -0.2561  0.2736
 2726W        W 3923   7.341   4.437   1.491 -0.0009  0.2639 -0.2514
 2727W        W 3924   0.112   3.263   3.744  0.1546  0.0264 -0.1451
 2728W        W 3925   0.282   0.304   1.628  0.0412 -0.0776 -0.0981
 2729W        W 3926   5.847   1.439   4.627  0.1512  0.0992 -0.1850
 2730W        W 3927   3.356   2.921   3.500 -0.1018 -0.1002  0.4231
 2731W        W 3928   1.308   6.154   7.065 -0.0612  0.2189 -0.1692
 2732W        W 3929   1.978   0.086   6.105  0.0387  0.1766 -0.2514
 2733W        W 3930   5.869   3.916   3.763 -0.1424 -0.0061 -0.0270
 2734W        W 3931   1.175   7.085   3.328  0.0607  0.2340  0.1952
 2735W        W 3932   6.698   0.595   3.763  0.0314  0.2485 -0.1887
 2736W        W 3933   3.722   3.734   1.268 -0.1108  0.1567  0.0161
 2737W        W 3934   6.439   7.063   1.185 -0.2312 -0.2006 -0.1949
 2738W        W 3935   4.017   4.904   1.529 -0.1357  0.1372 -0.1192
 2739W        W 3936   1.701   6.460   1.146 -0.1814 -0.0397 -0.0173
 2740W        W 3937   7.420   0.332   2.093 -0.1692  0.4050  0.2528
 2741W        W 3938   0.338   5.069   7.654 -0.0973  0.0229  0.0609
 2742W        W 3939   1.109   4.963   5.875  0.1681 -0.0490  0.0286
 2743W        W 3940   2.477   2.085   1.013  0.1255 -0.2733  0.0167
 2744W        W 3941   7.277   4.289   2.440  0.3600  0.0489  0.0866
 2745W        W 3942   3.630   7.049   3.496  0.3630  0.0519 -0.3025
 2746W        W 3943   7.384   2.501   6.957 -0.1530  0.2076  0.0345
 2747W        W 3944   0.719   3.623   2.117  0.2527  0.0143 -0.1507
 2748W        W 3945   3.801   6.229   6.988 -0.3160 -0.0136  0.1813
 2749W        W 3946   6.091   7.361   5.544 -0.2646  0.2429  0.0694
 2750W        W 3947   4.079   7.189   3.447  0.2236 -0.1494  0.0420
 2751W        W 3948   6.542   1.501   2.953 -0.3511 -0.1011 -0.1210
 2752W        W 3949   3.867   0.094   2.141 -0.1150  0.0032 -0.0974
 2753W        W 3950   6.911   6.533   6.613  0.1389 -0.0313 -0.1441
 2754W        W 3951   0.140   7.353   4.162  0.2965  0.1195 -0.3077
 2755W        W 3952   7.436   6.370   6.193 -0.2524 -0.2626 -0.1274
 2756W        W 3953   5.591   4.940   5.580 -0.3064  0.2463 -0.2347
 2757W        W 3954   1.191   2.960   5.251 -0.0658 -0.0601 -0.1040
 2758W        W 3955   6.118   7.309   5.078 -0.1838  0.0465 -0.0590
 2759W        W 3956   6.391   2.192   3.474 -0.0434 -0.4048  0.0499
 2760W        W 3957   6.324   2.630   0.968 -0.1673 -0.4037 -0.1046
 2761W        W 3958   6.214   6.342   0.183  0.0401  0.0652  0.1067
 2762W        W 3959   7.217   7.217   3.459  0.2338  0.1005 -0.2494
 2763W        W 3960   1.671   0.735   5.838  0.2061  0.0669  0.0520
 2764W        W 3961   4.037   3.254   7.499  0.1277 -0.3019 -0.2542
 2765W        W 3962   4.615   5.289   0.236 -0.0831 -0.0826 -0.4887
 2766W        W 3963   3.404   5.701   5.996  0.1692  0.0883 -0.0807
 2767W        W 3964   1.582   6.631   1.758 -0.0373 -0.1706 -0.2209
 2768W        W 3965   1.218   5.070   2.061  0.1776 -0.1210 -0.2800
 2769W        W 3966   3.727   7.535   6.830 -0.0253  0.1554  0.2804
 2770W        W 3967   7.127   3.069   1.677  0.0496 -0.0428  0.0766
 2771W        W 3968   2.679   0.729   3.903  0.0827 -0.1528  0.1741
 2772W        W 3969   4.582   1.198   6.274  0.0985 -0.2102  0.0654
 2773W        W 3970   6.173   4.133   3.388 -0.1296  0.0997 -0.1101
 2774W        W 3971   4.946   0.841   1.884  0.2195  0.0129 -0.0181
 2775W        W 3972   4.296   1.594   2.594 -0.1165  0.3023 -0.0879
 2776W        W 3973   3.672   4.591   2.540  0.0303  0.2783 -0.0208
 2777W        W 3974   5.380   0.151   5.110 -0.2115 -0.2363 -0.3382
 2778W        W 3975   5.589   7.485   4.352  0.0414  0.1232  0.2105
 2779W        W 3976   4.626   6.330   4.741  0.0180  0.0516  0.2564
 2780W        W 3977   7.600   2.492   0.551  0.4389  0.1786  0.1342
 2781W        W 3978   1.598   5.986   5.328 -0.0526  0.1006  0.0370
 2782W        W 3979   1.063   1.188   4.949  0.0511  0.0801  0.1099
 2783W        W 3980   3.178   3.985   2.041 -0.0752 -0.0183  0.1147
 2784W        W 3981   4.025   0.485   4.481  0.0965 -0.3026 -0.2414
 2785W        W 3982   2.240   0.829   5.676  0.0951 -0.0539 -0.0766
 2786W        W 3983   5.313   1.878   1.485  0.0526  0.3003  0.4510
 2787W        W 3984   4.448   1.193   3.822 -0.2438 -0.0258  0.0530
 2788W        W 3985   6.932   0.317   1.397 -0.2515 -0.0618  0.0033
 2789W        W 3986   7.002   5.226   2.831 -0.3474  0.0681 -0.0453
 2790W        W 3987   4.456   6.864   0.845  0.2704  0.1790 -0.2370
 2791W        W 3988   0.997   1.654   2.470  0.0863  0.1389 -0.0886
 2792W        W 3989   7.297   5.456   7.345  0.0806 -0.0850  0.1516
 2793W        W 3990   7.275   6.570   1.764  0.0921  0.0656  0.2943
 2794W        W 3991   6.603   5.991   5.795  0.0225 -0.1919 -0.1476
 2795W        W 3992   3.742   4.065   3.089 -0.2473 -0.0282 -0.1906
 2796W        W 3993   2.170   6.709   2.320 -0.3565 -0.1358  0.2464
 2797W        W 3994   0.662   5.160   6.405  0.0611  0.2560 -0.1692
 2798W        W 3995   6.854   5.868   2.297 -0.0002 -0.0442 -0.2071
 2799W        W 3996   4.281   3.077   0.629 -0.1078 -0.1341  0.2008
 2800W        W 3997   1.118   2.038   3.757  0.1870  0.0212 -0.1062
 2801W        W 3998   6.331   1.342   3.965 -0.1123  0.0808 -0.2115
 2802W        W 3999   1.839   5.305   7.657  0.1332 -0.0379  0.1952
 2803W        W 4000   6.116   3.721   0.057  0.2556  0.1595 -0.2738
 2804W        W 4001   0.875   4.697   5.498 -0.1400 -0.3076 -0.0459
 2805W        W 4002   5.854   4.757   0.324  0.0316  0.0193 -0.0315
 2806W        W 4003   2.001   4.776   6.306 -0.0173 -0.0627 -0.1891
 2807W        W 4004   0.229   0.837   1.492 -0.1062  0.1594  0.0822
 2808W        W 4005   5.713   1.596   1.959  0.0689  0.0687  0.0357
 2809W        W 4006   2.459   3.545   3.619 -0.0058 -0.1197  0.0164
 2810W        W 4007   6.058   6.075   2.396 -0.1363 -0.1372 -0.1302
 2811W        W 4008   0.108   5.134   0.421 -0.2096 -0.0582 -0.0387
 2812W        W 4009   3.476   2.343   1.047  0.2036 -0.1118  0.4241
 2813W        W 4010   2.113   3.048   3.798  0.1441  0.0919 -0.0552
 2814W        W 4011   5.201   5.296   6.196  0.1926  0.0605 -0.1884
 2815W        W 4012   5.580   0.821   2.500 -0.0521  0.2921 -0.1490
 2816W        W 4013   5.226   5.069   1.705 -0.1065  0.0684 -0.1911
 2817W        W 4014   3.982   5.937   1.533 -0.3318  0.0136  0.4125
 2818W        W 4015   7.593   7.661   2.485  0.1307  0.0662  0.0537
 2819W        W 4016   1.099   5.420   5.616 -0.0049 -0.1768 -0.0326
 2820W        W 4017   3.566   1.813   2.379  0.0668  0.0791  0.1000
 2821W        W 4018   7.481   2.276   3.286  0.0325 -0.0528 -0.0692
 2822W        W 4019   5.699   1.617   6.163 -0.1163 -0.0363  0.0548
 2823W        W 4020   4.463   7.601   6.872 -0.2678 -0.0182  0.2471
 2824W        W 4021   5.390   4.473   5.753  0.1086 -0.0834 -0.1169
 2825W        W 4022   3.869   5.509   5.962  0.1992  0.2778  0.2545
 2826W        W 4023   5.654   7.202   1.123 -0.2070 -0.1281  0.3320
 2827W        W 4024   4.911   0.875   5.840  0.3160  0.1660 -0.0211
 2828W        W 4025   1.339   1.377   2.235  0.0929 -0.0537  0.0712
 2829W        W 4026   0.068   6.877   4.223  0.1140  0.1446 -0.1222
 2830W        W 4027   3.421   1.473   3.380  0.0690  0.1840  0.0445
 2831W        W 4028   5.931   3.894   6.213  0.0296 -0.2486  0.0384
 2832W        W 4029   3.878   1.375   2.455  0.1295  0.0591  0.2650
 2833W        W 4030   7.537   0.840   2.720  0.1376 -0.0575 -0.1890
 2834W        W 4031   7.495   5.234   1.836  0.0053  0.5600 -0.4442
 2835W        W 4032   1.550   6.136   2.578  0.2416  0.0779  0.2240
 2836W        W 4033   4.882   1.434   1.435  0.4855  0.1925 -0.2189
 2837W        W 4034   5.435   5.315   7.307 -0.0377  0.1075  0.1975
 2838W        W 4035   6.146   7.352   0.400  0.0848  0.0779 -0.4398
 2839W        W 4036   4.702   4.895   5.697  0.0719 -0.2406  0.0557
 2840W        W 4037   6.532   2.546   4.372  0.0698 -0.1454  0.2037
 2841W        W 4038   0.817   7.192   6.284 -0.1438 -0.0551  0.1545
 2842W        W 4039   5.013   0.119   6.666 -0.1627  0.2031 -0.3332
 2843W        W 4040   5.885   4.553   5.839  0.3509  0.1956  0.1649
 2844W        W 4041   1.815   1.712   5.801  0.0530 -0.1673 -0.3762
 2845W        W 4042   6.632   3.745   5.591 -0.1013 -0.1024 -0.1334
 2846W        W 4043   5.637   7.275   2.291  0.0578 -0.1347  0.0630
 2847W        W 4044   6.763   0.875   3.245 -0.2612  0.0240  0.2278
 2848W        W 4045   4.407   2.352   3.856  0.2419  0.0633  0.0245
 2849W        W 4046   7.226   7.138   5.414  0.1792  0.1665 -0.1367
 2850W        W 4047   6.502   7.592   5.309  0.1220 -0.0494  0.0188
 2851W        W 4048   3.445   4.260   6.244 -0.3522  0.0678  0.0079
 2852W        W 4049   3.894   2.904   4.894 -0.4253 -0.1231  0.1387
 2853W        W 4050   0.087   3.767   2.235  0.0977  0.1367 -0.0229
 2854W        W 4051   5.634   2.941   2.753  0.0310  0.1756  0.2492
 2855W        W 4052   6.622   5.341   0.401  0.2426  0.0751 -0.1197
 2856W        W 4053   0.920   0.300   7.068 -0.1507 -0.2595  0.1472
 2857W        W 4054   4.435   5.444   2.139  0.2004  0.0897  0.3686
 2858W        W 4055   4.465   4.717   0.984  0.0640  0.0519  0.3666
 2859W        W 4056   3.581   3.808   0.542  0.0626 -0.1455 -0.2190
 2860W        W 4057   5.130   7.111   7.342  0.0403  0.3411 -0.1582
 2861W        W 4058   2.176   2.535   4.147  0.0886  0.0773 -0.0824
 2862W        W 4059   2.283   5.422   5.739 -0.2587  0.1930  0.2782
 2863W        W 4060   4.169   0.268   5.775 -0.3701 -0.0204  0.2943
 2864W        W 4061   4.452   6.103   1.297  0.0293 -0.3369 -0.0715
 2865W        W 4062   1.644   1.654   2.536 -0.4219 -0.1778 -0.4333
 2866W        W 4063   7.271   7.309   2.583 -0.0074  0.0108 -0.1544
 2867W        W 4064   5.228   5.609   4.447  0.0014 -0.2724 -0.3079
 2868W        W 4065   7.009   0.492   1.877  0.2342  0.1455  0.2976
 2869W        W 4066   5.393   0.796   3.968 -0.0714  0.1159 -0.1120
 2870W        W 4067   0.888   6.668   1.243  0.3693 -0.1535 -0.3662
 2871W        W 4068   3.263   6.203   5.136 -0.2193  0.1514  0.0444
 2872W        W 4069   5.978   2.655   3.507 -0.3408  0.0368 -0.2987
 2873W        W 4070   0.827   7.577   6.707 -0.0692  0.3159  0.1760
 2874W        W 4071   6.165   2.192   4.359  0.3517  0.1011  0.1189
 2875W        W 4072   5.693   7.405   0.607 -0.0673  0.0512 -0.1222
 2876W        W 4073   6.247   5.698   1.078  0.0057 -0.0034 -0.1112
 2877W        W 4074   6.851   1.497   4.222  0.2129  0.0091 -0.2395
 2878W        W 4075   4.807   1.466   5.304 -0.1892 -0.0199 -0.1366
 2879W        W 4076   1.535   2.726   5.012  0.1117 -0.0110 -0.0614
 2880W        W 4077   5.418   4.082   5.376  0.2991 -0.0316 -0.1201
 2881W        W 4078   3.848   4.229   4.519 -0.0081 -0.0802  0.5135
 2882W        W 4079   5.016   2.142   6.084 -0.1927 -0.1679 -0.2821
 2883W        W 4080   4.741   1.934   1.653  0.0660  0.2190  0.0653
 2884W        W 4081   3.216   4.488   0.789  0.1692  0.3251  0.0586
 2885W        W 4082   3.417   1.714   5.830  0.1679 -0.2225  0.5080
 2886W        W 4083   6.321   1.632   1.263 -0.1071 -0.0882  0.0997
 2887W        W 4084   0.547   2.141   7.460 -0.3803  0.1218 -0.2017
 2888W        W 4085   5.135   3.153   6.363 -0.2914  0.2342 -0.0895
 2889W        W 4086   2.924   1.063   5.060  0.4062 -0.1962 -0.3488
 2890W        W 4087   5.030   4.179   0.130  0.0038  0.0482 -0.0419
 2891W        W 4088   6.148   0.846   2.440  0.0736  0.0860 -0.0171
 2892W        W 4089   2.164   0.631   4.004  0.1051  0.0666 -0.3147
 2893W        W 4090   2.530   2.880   4.144  0.1705  0.2632  0.2415
 2894W        W 4091   5.206   4.654   1.478 -0.1123 -0.1187  0.2274
 2895W        W 4092   0.463   1.554   5.020 -0.1753  0.2463  0.0696
 2896W        W 4093   6.884   2.388   6.933 -0.3580  0.1117 -0.2402
 2897W        W 4094   0.126   7.062   3.751  0.1713 -0.0488 -0.0844
 2898W        W 4095   6.015   2.370   0.692  0.3646 -0.1840 -0.1212
 2899W        W 4096   6.851   6.862   1.022  0.1983  0.0834 -0.1922
 2900W        W 4097   6.046   2.782   7.018 -0.0002  0.1086  0.1777
 2901W        W 4098   6.958   3.316   7.050  0.0626 -0.2801 -0.0911
 2902W        W 4099   4.142   4.847   5.826  0.1079  0.1082 -0.0407
 2903W        W 4100   6.765   6.055   6.775 -0.2656  0.0597  0.0047
 2904W        W 4101   5.636   5.353   5.833 -0.2278 -0.2333  0.4122
 2905W        W 4102   3.885   4.518   0.205  0.0613 -0.0922 -0.3887
 2906W        W 4103   0.751   1.482   2.898 -0.1338  0.2016  0.1870
 2907W        W 4104   7.325   2.019   7.045  0.0640 -0.2216 -0.1269
 2908W        W 4105   2.068   5.894   0.365  0.2867  0.0024 -0.3903
 2909W        W 4106   1.260   3.771   2.638  0.3788 -0.0277 -0.0553
 2910W        W 4107   5.663   7.068   7.405  0.0563  0.1416 -0.1351
 2911W        W 4108   5.184   4.952   5.859 -0.1229 -0.1583 -0.0787
 2912W        W 4109   1.834   2.601   0.957 -0.0337  0.1821  0.3758
 2913W        W 4110   2.822   4.482   6.263  0.4054 -0.0134  0.1011
 2914W        W 4111   2.039   4.938   0.670 -0.2318 -0.2566 -0.1959
 2915W        W 4112   2.301   5.086   0.265 -0.2016 -0.1302 -0.2456
 2916W        W 4113   4.244   0.784   6.478 -0.1360  0.0428  0.3717
 2917W        W 4114   5.939   5.757   5.078  0.2273  0.1643 -0.1800
 2918W        W 4115   3.007   4.062   2.918  0.0693 -0.1508  0.0366
 2919W        W 4116   5.256   5.819   0.773 -0.2059  0.2435  0.1942
 2920W        W 4117   1.105   2.901   0.934  0.4000 -0.0953 -0.2385
 2921W        W 4118   2.056   4.095   2.035 -0.3359  0.3535 -0.1301
 2922W        W 4119   4.999   4.114   2.734  0.0529  0.0471  0.2547
 2923W        W 4120   3.608   4.604   1.617  0.1565 -0.1133 -0.0395
 2924W        W 4121   5.607   3.333   6.559 -0.0928  0.1374  0.0467
 2925W        W 4122   1.827   5.657   4.022  0.0094 -0.1841 -0.0917
 2926W        W 4123   5.525   4.494   6.645  0.2315  0.1222  0.1715
 2927W        W 4124   2.389   1.509   5.147  0.1351  0.3817 -0.1452
 2928W        W 4125   5.832   7.549   6.728 -0.0031  0.0048 -0.0140
 2929W        W 4126   4.662   2.104   3.005  0.1186 -0.3753 -0.1097
 2930W        W 4127   5.513   4.264   6.212 -0.1021 -0.2123 -0.1185
 2931W        W 4128   0.274   2.964   2.797 -0.2720 -0.3147 -0.0211
 2932W        W 4129   5.256   6.195   5.602  0.0707 -0.3707 -0.0917
 2933W        W 4130   7.574   5.500   0.873  0.1232 -0.0399  0.0614
 2934W        W 4131   7.557   7.470   5.609 -0.1410  0.0065  0.2932
 2935W        W 4132   1.388   4.680   5.583 -0.0799 -0.0686  0.1363
 2936W        W 4133   1.089   3.828   1.055 -0.1580  0.0876 -0.1696
 2937W        W 4134   4.185   7.185   5.144 -0.0047 -0.0523 -0.3097
 2938W        W 4135   5.562   2.553   4.779  0.1587 -0.2483  0.0677
 2939W        W 4136   4.850   7.639   7.215 -0.1736 -0.0309 -0.0484
 2940W        W 4137   5.980   0.179   1.618 -0.1958 -0.1425 -0.1635
 2941W        W 4138   5.580   1.721   4.993 -0.0075  0.3245 -0.3785
 2942W        W 4139   7.269   2.476   3.786 -0.0123  0.0025 -0.1048
 2943W        W 4140   2.101   5.805   0.881  0.2554  0.1814  0.0735
 2944W        W 4141   0.015   6.533   2.216  0.2752 -0.0475 -0.3302
 2945W        W 4142   6.118   5.256   1.202  0.2689 -0.1424 -0.1568
 2946W        W 4143   1.575   5.703   0.278 -0.1773  0.2101 -0.1038
 2947W        W 4144   2.298   2.570   0.950 -0.1162 -0.1498  0.0159
 2948W        W 4145   0.903   2.062   6.817  0.3056  0.1069  0.3401
 2949W        W 4146   4.793   4.831   1.641  0.0239 -0.0634  0.0720
 2950W        W 4147   6.269   4.623   0.113 -0.1762 -0.0920  0.0675
 2951W        W 4148   7.163   1.079   5.236  0.1291  0.1052 -0.0960
 2952W        W 4149   4.356   4.810   0.357  0.1618  0.2485 -0.2287
 2953W        W 4150   1.399   1.072   4.532 -0.2351 -0.3015  0.2378
 2954W        W 4151   1.546   3.507   2.247  0.1408 -0.3837  0.0730
 2955W        W 4152   1.376   6.107   0.542 -0.1373  0.3639 -0.1653
 2956W        W 4153   6.121   7.164   6.585  0.1154 -0.1133 -0.0143
 2957W        W 4154   7.459   4.099   6.845 -0.0208 -0.2509  0.2152
 2958W        W 4155   4.361   5.285   2.942 -0.1513 -0.0385  0.4595
 2959W        W 4156   4.551   3.924   4.170 -0.1008 -0.0986  0.0205
 2960W        W 4157   5.520   4.606   5.253  0.0430 -0.1625  0.1343
 2961W        W 4158   3.218   6.524   2.514 -0.1472 -0.2243 -0.0586
 2962W        W 4159   4.944   5.770   1.631 -0.0666 -0.1803  0.1438
 2963W        W 4160   0.591   2.423   7.088  0.0779 -0.1510  0.1821
 2964W        W 4161   2.381   2.584   3.669  0.0214 -0.1230 -0.1200
 2965W        W 4162   0.537   3.404   0.595  0.2122 -0.0981  0.1127
 2966W        W 4163   0.652   4.338   5.772 -0.0620 -0.1137 -0.1053
 2967W        W 4164   4.550   6.898   6.640  0.1392 -0.1030 -0.0582
 2968W        W 4165   1.559   4.377   4.339  0.0175  0.0349 -0.1403
 2969W        W 4166   4.687   4.549   6.597  0.2496  0.1066  0.0006
 2970W        W 4167   0.626   3.191   3.096 -0.4498  0.1140  0.4131
 2971W        W 4168   7.586   0.212   5.379  0.1177 -0.0436 -0.0105
 2972W        W 4169   4.760   5.038   6.132 -0.0464 -0.1332 -0.0310
 2973W        W 4170   2.380   2.533   1.484 -0.0415  0.0359 -0.0751
 2974W        W 4171   2.015   6.424   1.588 -0.0623  0.0293 -0.0535
 2975W        W 4172   0.169   4.603   4.824  0.1770  0.0409  0.0639
 2976W        W 4173   6.872   2.473   0.126  0.3009 -0.0348 -0.0942
 2977W        W 4174   6.401   3.326   4.061  0.2841  0.3535 -0.0527
 2978W        W 4175   3.626   0.752   2.910  0.0832 -0.2503  0.2553
 2979W        W 4176   3.641   2.004   1.928  0.0932  0.2261  0.1821
 2980W        W 4177   4.065   4.072   3.853  0.0520 -0.1230 -0.2169
 2981W        W 4178   0.866   5.690   6.940  0.1453 -0.0931  0.0461
 2982W        W 4179   6.508   0.108   5.994  0.0273  0.1043 -0.1950
 2983W        W 4180   6.642   3.704   0.053  0.0071 -0.0402  0.0162
 2984W        W 4181   2.042   7.312   4.301  0.0502 -0.0235 -0.0428
 2985W        W 4182   3.371   7.415   3.778  0.1104 -0.2088  0.0254
 2986W        W 4183   6.845   6.913   7.113  0.4936 -0.0294  0.6945
 2987W        W 4184   6.991   6.284   3.160 -0.4094  0.4136 -0.1271
 2988W        W 4185   0.118   6.496   0.158  0.2134 -0.2107  0.1069
 2989W        W 4186   7.151   3.799   4.280  0.0293  0.0705 -0.2351
 2990W        W 4187   0.597   2.634   0.791 -0.3843 -0.0514 -0.2480
 2991W        W 4188   5.073   4.405   6.973 -0.0724  0.0412 -0.1351
 2992W        W 4189   6.892   7.005   3.812  0.2273 -0.0392 -0.1369
 2993W        W 4190   2.672   3.377   5.061  0.1490  0.2936 -0.1478
 2994W        W 4191   3.010   4.974   3.957  0.0155  0.0435  0.1918
 2995W        W 4192   1.187   0.770   5.863 -0.0144  0.1615 -0.0790
 2996W        W 4193   1.072   5.607   0.689  0.0951 -0.3016  0.1665
 2997W        W 4194   1.120   7.172   4.133  0.1365  0.0267 -0.0197
 2998W        W 4195   4.095   7.443   7.182 -0.1664 -0.1296  0.1569
 2999W        W 4196   6.711   1.554   1.700 -0.1066 -0.1352 -0.1807
 3000W        W 4197   3.158   7.510   4.716  0.0176 -0.1326  0.1861
 3001W        W 4198   5.614   2.063   0.766 -0.2040 -0.1368  0.1721
 3002W        W 4199   4.829   6.893   2.176  0.2875  0.1902 -0.0042
 3003W        W 4200   4.298   6.614   0.416 -0.2638 -0.1334  0.0271
 3004W        W 4201   2.772   5.415   7.649 -0.0152  0.3298 -0.0009
 3005W        W 4202   7.667   2.835   0.186  0.1037 -0.1658  0.1510
 3006W        W 4203   5.421   5.582   1.797 -0.4685 -0.2134 -0.0226
 3007W        W 4204   5.095   4.564   1.988  0.1914  0.0255 -0.0736
 3008W        W 4205   1.652   3.977   2.376 -0.1617  0.3420  0.1568
 3009W        W 4206   4.604   3.071   5.337 -0.0329 -0.2017 -0.0518
 3010W        W 4207   6.555   2.124   7.623 -0.1293  0.1638 -0.1140
 3011W        W 4208   6.258   5.050   6.693  0.1452 -0.0646 -0.0835
 3012W        W 4209   5.682   6.196   5.137 -0.1627  0.3447 -0.3029
 3013W        W 4210   3.360   3.162   1.173 -0.2728 -0.1783  0.0779
 3014W        W 4211   1.230   3.265   4.849  0.1092 -0.0717  0.1099
 3015W        W 4212   5.284   0.822   2.973  0.0078  0.0652  0.1938
 3016W        W 4213   4.338   5.922   4.464 -0.0257 -0.1189  0.3098
 3017W        W 4214   4.077   0.888   3.074 -0.1268 -0.2607 -0.3362
 3018W        W 4215   5.112   2.733   4.562 -0.1580  0.1284  0.1831
 3019W        W 4216   4.075   6.940   7.010 -0.0514 -0.1156  0.3563
 3020W        W 4217   1.046   5.829   4.694  0.3813 -0.0875  0.3341
 3021W        W 4218   3.478   7.638   0.286 -0.0475  0.0822 -0.0769
 3022W        W 4219   3.493   4.516   5.372 -0.0393 -0.0121  0.3106
 3023W        W 4220   7.181   1.882   3.248 -0.0396 -0.0031  0.0033
 3024W        W 4221   5.928   0.409   2.460  0.1918 -0.2029 -0.0189
 3025W        W 4222   7.042   3.698   0.966  0.1794  0.0137  0.0342
 3026W        W 4223   2.616   2.303   4.096 -0.0034  0.1840  0.0819
 3027W        W 4224   2.089   6.397   5.954 -0.2732  0.1075 -0.0173
 3028W        W 4225   2.577   1.727   2.097 -0.1259  0.0463 -0.2349
 3029W        W 4226   6.309   7.643   6.745 -0.1465 -0.1624 -0.0478
 3030W        W 4227   1.935   0.091   6.598 -0.2327 -0.1936  0.2415
 3031W        W 4228   1.148   4.985   6.372  0.0942 -0.1684 -0.0425
 3032W        W 4229   4.217   2.009   1.797  0.1949 -0.1373 -0.1930
 3033W        W 4230   5.517   4.948   7.635 -0.0570  0.2450  0.0928
 3034W        W 4231   3.397   2.543   0.552 -0.1086  0.0731 -0.0960
 3035W        W 4232   4.781   5.510   6.684  0.0111 -0.0903 -0.0002
 3036W        W 4233   5.411   3.385   4.015  0.1971  0.2465  0.1740
 3037W        W 4234   1.507   4.804   3.831 -0.3989  0.1203 -0.0946
 3038W        W 4235   7.333   7.191   0.530 -0.2035  0.0749  0.2621
 3039W        W 4236   0.545   5.519   0.567  0.0894  0.1000 -0.2007
 3040W        W 4237   5.503   3.109   7.168  0.0595  0.2830  0.3187
 3041W        W 4238   5.236   6.414   4.600  0.1472 -0.0174 -0.2064
 3042W        W 4239   5.168   3.816   3.095  0.1208  0.1807 -0.3199
 3043W        W 4240   0.940   0.509   5.105 -0.2255  0.0881  0.4157
 3044W        W 4241   6.683   0.060   4.587 -0.1654  0.0524 -0.5713
 3045W        W 4242   3.368   5.660   2.653  0.0076 -0.1849  0.2210
 3046W        W 4243   3.414   6.572   1.094  0.1477 -0.1429  0.0821
 3047W        W 4244   6.042   4.723   2.050  0.0766 -0.1070  0.1784
 3048W        W 4245   0.496   7.116   5.838 -0.0758 -0.0985 -0.0226
 3049W        W 4246   1.844   3.174   1.752  0.0894 -0.2549 -0.0697
 3050W        W 4247   0.181   7.188   5.135  0.2499 -0.0376 -0.2958
 3051W        W 4248   6.860   1.417   6.653 -0.1434 -0.1320 -0.0683
 3052W        W 4249   1.770   6.227   7.283  0.1529  0.2349  0.1206
 3053W        W 4250   4.758   0.548   5.352 -0.2647  0.0474 -0.1986
 3054W        W 4251   5.407   2.532   1.867  0.0042  0.0360 -0.4882
 3055W        W 4252   5.349   2.447   0.510 -0.1440 -0.1465 -0.1531
 3056W        W 4253   0.810   2.662   1.860 -0.1488 -0.0565  0.2551
 3057W        W 4254   4.285   7.325   4.003 -0.2402  0.0406  0.2284
 3058W        W 4255   4.237   6.380   7.639  0.0392 -0.1772  0.3996
 3059W        W 4256   0.277   2.996   0.558  0.0383 -0.0349  0.0576
 3060W        W 4257   7.130   0.139   4.366 -0.1134 -0.0526  0.3536
 3061W        W 4258   7.149   2.284   2.883 -0.1875 -0.0384  0.3536
 3062W        W 4259   3.149   2.195   3.871 -0.1823 -0.1231  0.0554
 3063W        W 4260   3.499   1.207   2.951 -0.0742  0.0912 -0.0926
 3064W        W 4261   0.805   1.996   5.845  0.0542 -0.1233 -0.1149
 3065W        W 4262   0.237   7.208   0.472 -0.1339 -0.2487  0.1087
 3066W        W 4263   1.268   6.623   5.940 -0.2117  0.3118  0.0828
 3067W        W 4264   2.841   5.608   2.583 -0.2681 -0.0376  0.1564
 3068W        W 4265   3.109   4.517   6.748 -0.0498 -0.0244  0.1012
 3069W        W 4266   4.732   4.057   6.851 -0.4185 -0.0281  0.0707
 3070W        W 4267   6.999   1.975   6.655 -0.1322 -0.0911  0.0550
 3071W        W 4268   7.173   3.873   6.413  0.0147 -0.1800 -0.1450
 3072W        W 4269   6.869   2.040   1.781  0.2151  0.0380 -0.1211
 3073W        W 4270   3.606   0.937   3.823  0.0792  0.0706 -0.1939
 3074W        W 4271   7.553   3.713   3.474  0.0146 -0.0701 -0.0594
 3075W        W 4272   1.713   3.336   5.035 -0.0484 -0.0226  0.1733
 3076W        W 4273   1.826   0.403   4.496  0.1229 -0.1487 -0.3370
 3077W        W 4274   6.023   5.794   7.212 -0.1633 -0.2512  0.0277
 3078W        W 4275   3.816   5.825   3.570  0.1931 -0.3143  0.0548
 3079W        W 4276   6.274   0.359   5.273 -0.0775 -0.3996 -0.1223
 3080W        W 4277   3.241   4.815   3.247  0.0486 -0.0869 -0.1784
 3081W        W 4278   2.509   4.775   4.098  0.0355  0.0435  0.2018
 3082W        W 4279   4.898   1.422   3.347 -0.0357  0.2769  0.1699
 3083W        W 4280   2.371   3.792   1.619  0.0729 -0.3102 -0.1107
 3084W        W 4281   4.867   0.179   4.785  0.1486  0.3154 -0.1403
 3085W        W 4282   1.917   1.303   4.399  0.2225 -0.3202  0.0281
 3086W        W 4283   5.907   3.562   1.146  0.1463  0.1479 -0.2469
 3087W        W 4284   7.448   1.187   5.644  0.2204 -0.2087  0.1049
 3088W        W 4285   0.320   4.907   5.410 -0.0041  0.1629  0.1787
 3089W        W 4286   0.050   6.307   2.752  0.3634 -0.1339 -0.1961
 3090W        W 4287   0.519   6.567   2.039  0.0676 -0.0990  0.2794
 3091W        W 4288   1.113   5.252   3.515 -0.3321 -0.1263 -0.4423
 3092W        W 4289   4.868   0.580   2.834  0.1718  0.0326 -0.1189
 3093W        W 4290   0.020   6.990   5.558 -0.0292  0.0300 -0.2951
 3094W        W 4291   5.463   3.416   2.845 -0.1012 -0.0005  0.0043
 3095W        W 4292   5.365   4.282   3.057  0.1348 -0.1083  0.2100
 3096W        W 4293   7.481   6.210   0.461  0.2533  0.1306 -0.0727
 3097W        W 4294   3.620   5.205   1.218 -0.2998  0.1520  0.2999
 3098W        W 4295   6.964   2.836   6.567 -0.1485 -0.0182 -0.0247
 3099W        W 4296   2.298   4.958   4.542 -0.1600  0.0476  0.0470
 3100W        W 4297   0.373   0.749   6.447 -0.2190  0.0730 -0.0963
 3101W        W 4298   4.177   5.474   7.370 -0.0506  0.2053 -0.0858
 3102W        W 4299   2.534   4.187   3.105 -0.2461  0.0372 -0.1334
 3103W        W 4300   1.601   2.982   3.451 -0.0477  0.0691 -0.2673
 3104W        W 4301   7.154   1.061   2.009  0.2179 -0.1214 -0.1305
 3105W        W 4302   5.263   6.023   6.685  0.1690 -0.0752  0.4200
 3106W        W 4303   1.995   6.873   1.376 -0.0419 -0.0832  0.0913
 3107W        W 4304   7.460   5.514   5.689  0.0638  0.4136 -0.1068
 3108W        W 4305   5.523   3.608   4.965 -0.1958  0.0368  0.4804
 3109W        W 4306   5.533   6.657   5.167 -0.2093 -0.1188  0.1326
 3110W        W 4307   7.117   3.757   4.872 -0.4867 -0.1766  0.3029
 3111W        W 4308   6.402   6.864   2.187  0.1881  0.0250  0.1322
 3112W        W 4309   0.971   2.577   6.264  0.2531  0.1985  0.0098
 3113W        W 4310   0.002   6.945   1.810  0.0174 -0.2350  0.1518
 3114W        W 4311   0.842   6.095   1.218 -0.2385  0.2349  0.1966
 3115W        W 4312   2.427   5.848   2.249 -0.1031  0.0549  0.4781
 3116W        W 4313   3.138   1.736   1.745 -0.1799 -0.3959  0.0349
 3117W        W 4314   6.683   1.941   5.185 -0.2406  0.0073  0.0684
 3118W        W 4315   3.858   5.420   0.811  0.1826 -0.0717 -0.2925
 3119W        W 4316   6.767   4.385   2.518 -0.0496  0.2425  0.0980
 3120W        W 4317   1.876   2.430   2.848  0.1177  0.1598  0.2055
 3121W        W 4318   4.828   3.518   3.391 -0.0460  0.0587  0.0289
 3122W        W 4319   4.263   0.558   5.306 -0.1278 -0.0686 -0.0699
 3123W        W 4320   6.346   4.158   7.502  0.2765  0.0583  0.0362
 3124W        W 4321   5.114   7.398   5.117  0.1291  0.1708 -0.0856
 3125W        W 4322   5.037   7.316   4.091 -0.0831  0.5315  0.1544
 3126W        W 4323   1.760   5.629   7.062  0.3202  0.1649 -0.0745
 3127W        W 4324   5.898   3.298   0.265 -0.0395 -0.0960  0.0924
 3128W        W 4325   2.691   2.602   2.738  0.2347 -0.2144  0.0095
 3129W        W 4326   5.664   6.780   2.060 -0.1342 -0.1502  0.0823
 3130W        W 4327   6.328   3.281   1.132 -0.0171  0.0775 -0.1522
 3131W        W 4328   4.071   6.202   2.616  0.2511  0.0231 -0.1718
 3132W        W 4329   0.610   5.118   2.497  0.0383 -0.1295  0.1342
 3133W        W 4330   6.907   4.655   5.924  0.0738 -0.2228 -0.0996
 3134W        W 4331   6.987   1.561   5.343 -0.0175  0.1085 -0.0360
 3135W        W 4332   5.951   4.678   6.728  0.0445 -0.0689  0.3353
 3136W        W 4333   7.322   1.933   5.018  0.2489 -0.3835  0.1103
 3137W        W 4334   0.235   5.809   5.753  0.0414  0.1290  0.1544
 3138W        W 4335   4.664   7.201   5.412 -0.0235 -0.2484  0.0776
 3139W        W 4336   5.813   2.978   4.780 -0.3116 -0.0542 -0.2328
 3140W        W 4337   1.941   5.650   5.009  0.2120 -0.1164 -0.0562
 3141W        W 4338   1.124   0.095   4.067  0.0553  0.4045  0.2981
 3142W        W 4339   4.544   3.843   3.680 -0.1554  0.0214  0.0336
 3143W        W 4340   3.106   2.282   2.883 -0.0060 -0.1667  0.3221
 3144W        W 4341   2.572   1.641   2.625 -0.0260 -0.0951  0.0835
 3145W        W 4342   7.589   2.631   4.246 -0.0320  0.0182 -0.0554
 3146W        W 4343   1.032   3.419   0.781 -0.1273 -0.1904  0.2663
 3147W        W 4344   4.019   1.314   4.713  0.1539 -0.1818 -0.0219
 3148W        W 4345   4.296   5.687   2.598  0.1485 -0.1552  0.0029
 3149W        W 4346   4.706   6.532   1.247  0.1869 -0.0334  0.0540
 3150W        W 4347   3.312   3.836   3.268  0.1548 -0.0679 -0.1596
 3151W        W 4348   7.613   4.576   5.265 -0.0513 -0.0198 -0.1483
 3152W        W 4349   4.298   1.649   6.135 -0.3169 -0.0066 -0.1412
 3153W        W 4350   1.209   1.232   6.972  0.1783  0.0917 -0.1146
 3154W        W 4351   6.121   0.668   1.645 -0.3389  0.1353 -0.1740
 3155W        W 4352   4.436   0.402   3.733  0.1286  0.0325  0.1656
 3156W        W 4353   7.460   4.794   2.328 -0.4340 -0.1596  0.0504
 3157W        W 4354   1.060   7.141   1.558 -0.3202 -0.1356 -0.0710
 3158W        W 4355   4.080   3.737   7.373  0.0255  0.1593 -0.2101
 3159W        W 4356   4.510   3.236   2.994  0.1238  0.0874  0.1379
 3160W        W 4357   3.665   4.065   3.599  0.2300  0.0445  0.0725
 3161W        W 4358   6.510   3.097   4.890 -0.3547  0.0555 -0.1737
 3162W        W 4359   1.310   5.532   6.593 -0.3527 -0.1609  0.0801
 3163W        W 4360   1.096   6.457   7.409 -0.1880 -0.2303 -0.3075
 3164W        W 4361   7.100   1.601   6.230  0.1593  0.0935 -0.3125
 3165W        W 4362   5.618   6.971   2.670 -0.4635  0.0236 -0.1768
 3166W        W 4363   4.766   5.425   2.578 -0.0897 -0.2588  0.0260
 3167W        W 4364   7.461   2.335   2.404  0.2575  0.3861  0.3573
 3168W        W 4365   1.824   4.069   0.728  0.1303 -0.0325 -0.1625
 3169W        W 4366   1.603   0.005   6.893 -0.0161 -0.0626  0.0532
 3170W        W 4367   2.864   7.153   4.528 -0.0071 -0.0494 -0.1041
 3171W        W 4368   3.962   5.292   2.239  0.1123 -0.1448  0.2468
 3172W        W 4369   1.596   5.629   0.799  0.1790  0.2182  0.0195
 3173W        W 4370   1.067   6.311   2.607 -0.1880 -0.0770  0.3477
 3174W        W 4371   2.567   7.367   6.799  0.2113  0.1392 -0.0086
 3175W        W 4372   4.769   2.359   2.554 -0.0504 -0.1558  0.0105
 3176W        W 4373   3.759   2.322   2.425  0.1998  0.0727 -0.1644
 3177W        W 4374   3.283   3.009   4.517  0.4264  0.1719 -0.2541
 3178W        W 4375   2.226   0.124   6.979  0.2226  0.1928  0.2246
 3179W        W 4376   3.927   2.131   3.668 -0.0174  0.0257  0.0306
 3180W        W 4377   1.543   4.653   4.905  0.4173  0.7924 -0.2678
 3181W        W 4378   5.264   2.386   5.258 -0.3423  0.1790  0.1620
 3182W        W 4379   0.069   6.816   6.019 -0.0183  0.0808  0.2480
 3183W        W 4380   3.384   7.085   5.663  0.0530  0.0946 -0.1860
 3184W        W 4381   3.232   6.355   5.669  0.1653 -0.0184  0.1463
 3185W        W 4382   5.160   7.315   3.486  0.0274 -0.0735  0.1238
 3186W        W 4383   2.576   1.953   5.333 -0.0360  0.1425 -0.1988
 3187W        W 4384   2.394   6.399   1.974 -0.0789  0.3759  0.2610
 3188W        W 4385   7.199   2.099   4.134  0.1220  0.2513 -0.2501
 3189W        W 4386   7.384   2.201   5.995 -0.4621  0.0701  0.1003
 3190W        W 4387   2.806   2.143   2.410  0.1324 -0.0456  0.3417
 3191W        W 4388   2.347   4.408   6.428  0.0516  0.1389 -0.1464
 3192W        W 4389   0.831   2.982   0.498  0.2007  0.2524  0.1419
 3193W        W 4390   5.910   1.785   1.571 -0.2916 -0.0921 -0.3209
 3194W        W 4391   4.076   4.013   2.104 -0.0250  0.1395  0.0986
 3195W        W 4392   5.187   7.125   1.058  0.1859  0.3679 -0.1805
 3196W        W 4393   4.637   6.816   5.068  0.0068  0.0325 -0.5268
 3197W        W 4394   4.931   0.566   3.351 -0.0368  0.1523  0.1072
 3198W        W 4395   1.022   1.319   5.799 -0.1712 -0.1650  0.0679
 3199W        W 4396   5.948   7.251   4.087 -0.0382 -0.0625  0.2970
   7.68218   7.68218   7.68218
