Martini system from ../2_Creating_coordinates/TYR-TYR-TYR_aa.pdb
 4352
    1TYR     BB    1   3.825   6.415   6.600
    1TYR    SC1    2   3.775   6.697   6.733
    1TYR    SC2    3   3.686   6.849   6.937
    1TYR    SC3    4   3.783   6.966   6.714
    2TYR     BB    5   3.694   6.155   6.858
    2TYR    SC1    6   3.746   5.857   6.753
    2TYR    SC2    7   3.706   5.614   6.865
    2TYR    SC3    8   3.714   5.639   6.596
    3TYR     BB    9   3.561   6.014   7.184
    3TYR    SC1   10   3.723   6.161   7.413
    3TYR    SC2   11   3.727   6.364   7.591
    3TYR    SC3   12   3.950   6.217   7.549
    1TYR     BB   13   7.368   4.683   5.757
    1TYR    SC1   14   7.066   4.794   5.780
    1TYR    SC2   15   6.804   4.733   5.801
    1TYR    SC3   16   6.889   4.981   5.862
    2TYR     BB   17   7.471   4.624   6.042
    2TYR    SC1   18   7.765   4.538   6.067
    2TYR    SC2   19   0.031   4.581   6.084
    2TYR    SC3   20   7.934   4.330   6.095
    3TYR     BB   21   7.296   4.594   6.271
    3TYR    SC1   22   7.030   4.755   6.261
    3TYR    SC2   23   6.762   4.789   6.257
    3TYR    SC3   24   6.920   4.980   6.362
    1TYR     BB   25   5.447   7.394   7.947
    1TYR    SC1   26   5.308   7.614   7.781
    1TYR    SC2   27   5.133   7.819   7.785
    1TYR    SC3   28   5.301   7.789   7.575
    2TYR     BB   29   5.193   7.282   0.142
    2TYR    SC1   30   5.346   7.058   0.304
    2TYR    SC2   31   5.522   7.024   0.506
    2TYR    SC3   32   5.375   6.815   0.419
    3TYR     BB   33   4.889   7.313   0.054
    3TYR    SC1   34   4.793   7.609   0.063
    3TYR    SC2   35   4.570   7.735   0.147
    3TYR    SC3   36   4.806   7.866   0.144
    1TYR     BB   37   6.015   3.071   3.335
    1TYR    SC1   38   5.730   3.154   3.413
    1TYR    SC2   39   5.526   3.091   3.579
    1TYR    SC3   40   5.482   3.247   3.363
    2TYR     BB   41   6.151   3.001   3.630
    2TYR    SC1   42   6.347   2.758   3.588
    2TYR    SC2   43   6.575   2.632   3.659
    2TYR    SC3   44   6.402   2.513   3.489
    3TYR     BB   45   5.985   3.156   3.870
    3TYR    SC1   46   5.829   3.414   3.794
    3TYR    SC2   47   5.733   3.641   3.903
    3TYR    SC3   48   5.627   3.547   3.674
    1TYR     BB   49   6.055   2.150   3.683
    1TYR    SC1   50   5.970   2.399   3.523
    1TYR    SC2   51   5.976   2.564   3.309
    1TYR    SC3   52   5.826   2.628   3.525
    2TYR     BB   53   6.297   2.018   3.668
    2TYR    SC1   54   6.395   1.731   3.591
    2TYR    SC2   55   6.609   1.656   3.446
    2TYR    SC3   56   6.561   1.541   3.685
    3TYR     BB   57   6.670   2.112   3.638
    3TYR    SC1   58   6.630   2.139   3.338
    3TYR    SC2   59   6.616   2.282   3.109
    3TYR    SC3   60   6.417   2.111   3.175
    1TYR     BB   61   4.292   1.489   5.419
    1TYR    SC1   62   4.145   1.229   5.542
    1TYR    SC2   63   3.928   1.069   5.542
    1TYR    SC3   64   4.157   0.984   5.655
    2TYR     BB   65   4.052   1.617   5.230
    2TYR    SC1   66   3.972   1.906   5.307
    2TYR    SC2   67   4.037   2.164   5.351
    2TYR    SC3   68   3.794   2.102   5.251
    3TYR     BB   69   3.801   1.405   5.204
    3TYR    SC1   70   3.776   1.354   4.909
    3TYR    SC2   71   3.830   1.468   4.670
    3TYR    SC3   72   3.812   1.199   4.690
    1TYR     BB   73   3.820   4.964   7.151
    1TYR    SC1   74   3.823   4.823   7.437
    1TYR    SC2   75   3.901   4.631   7.611
    1TYR    SC3   76   3.655   4.740   7.632
    2TYR     BB   77   3.929   5.307   7.195
    2TYR    SC1   78   4.114   5.443   6.965
    2TYR    SC2   79   4.157   5.628   6.773
    2TYR    SC3   80   4.328   5.421   6.802
    3TYR     BB   81   4.051   5.293   7.479
    3TYR    SC1   82   4.036   5.567   7.625
    3TYR    SC2   83   4.052   5.701   7.859
    3TYR    SC3   84   3.869   5.773   7.673
    1TYR     BB   85   2.218   7.345   4.015
    1TYR    SC1   86   2.331   7.471   3.750
    1TYR    SC2   87   2.501   7.504   3.543
    1TYR    SC3   88   2.313   7.692   3.595
    2TYR     BB   89   2.125   7.026   4.034
    2TYR    SC1   90   2.090   6.900   3.764
    2TYR    SC2   91   2.043   6.898   3.498
    2TYR    SC3   92   1.917   6.721   3.658
    3TYR     BB   93   1.825   6.899   4.196
    3TYR    SC1   94   1.885   7.057   4.460
    3TYR    SC2   95   1.910   7.111   4.724
    3TYR    SC3   96   2.105   7.185   4.551
    1TYR     BB   97   5.239   2.399   7.222
    1TYR    SC1   98   5.283   2.631   7.019
    1TYR    SC2   99   5.276   2.892   6.951
    1TYR    SC3  100   5.320   2.705   6.762
    2TYR     BB  101   5.527   2.309   7.356
    2TYR    SC1  102   5.464   2.356   7.661
    2TYR    SC2  103   5.484   2.245   7.906
    2TYR    SC3  104   5.335   2.468   7.871
    3TYR     BB  105   5.852   2.424   7.369
    3TYR    SC1  106   6.055   2.415   7.135
    3TYR    SC2  107   6.230   2.554   6.983
    3TYR    SC3  108   6.118   2.327   6.887
    1TYR     BB  109   7.349   0.713   6.363
    1TYR    SC1  110   7.544   0.788   6.140
    1TYR    SC2  111   7.801   0.745   6.069
    1TYR    SC3  112   7.636   0.878   5.902
    2TYR     BB  113   7.067   0.664   6.288
    2TYR    SC1  114   6.876   0.626   6.538
    2TYR    SC2  115   6.698   0.433   6.601
    2TYR    SC3  116   6.785   0.604   6.791
    3TYR     BB  117   7.043   0.358   6.146
    3TYR    SC1  118   7.278   0.328   5.955
    3TYR    SC2  119   7.348   0.278   5.699
    3TYR    SC3  120   7.516   0.413   5.861
    1TYR     BB  121   0.229   1.033   2.303
    1TYR    SC1  122   0.151   0.928   2.595
    1TYR    SC2  123   7.998   0.793   2.771
    1TYR    SC3  124   0.103   1.032   2.839
    2TYR     BB  125   0.518   1.176   2.376
    2TYR    SC1  126   0.721   1.062   2.177
    2TYR    SC2  127   0.945   0.949   2.077
    2TYR    SC3  128   0.724   0.970   1.923
    3TYR     BB  129   0.566   1.197   2.669
    3TYR    SC1  130   0.373   1.416   2.794
    3TYR    SC2  131   0.174   1.468   2.968
    3TYR    SC3  132   0.397   1.620   2.968
    1TYR     BB  133   5.595   2.218   1.056
    1TYR    SC1  134   5.789   1.983   1.113
    1TYR    SC2  135   5.974   1.870   1.273
    1TYR    SC3  136   5.918   1.760   1.033
    2TYR     BB  137   5.607   2.403   1.313
    2TYR    SC1  138   5.692   2.699   1.370
    2TYR    SC2  139   5.866   2.831   1.529
    2TYR    SC3  140   5.791   2.938   1.292
    3TYR     BB  141   5.858   2.276   1.540
    3TYR    SC1  142   5.752   2.436   1.776
    3TYR    SC2  143   5.682   2.645   1.932
    3TYR    SC3  144   5.494   2.472   1.847
    1TYR     BB  145   5.511   0.443   4.202
    1TYR    SC1  146   5.238   0.537   4.067
    1TYR    SC2  147   5.088   0.761   4.073
    1TYR    SC3  148   5.087   0.604   3.854
    2TYR     BB  149   5.595   0.780   4.296
    2TYR    SC1  150   5.807   0.714   4.511
    2TYR    SC2  151   5.918   0.485   4.603
    2TYR    SC3  152   6.062   0.714   4.600
    3TYR     BB  153   5.569   0.966   4.036
    3TYR    SC1  154   5.538   1.251   4.163
    3TYR    SC2  155   5.571   1.321   4.422
    3TYR    SC3  156   5.479   1.502   4.244
    1TYR     BB  157   4.681   2.443   0.000
    1TYR    SC1  158   4.831   2.521   7.738
    1TYR    SC2  159   5.021   2.659   7.606
    1TYR    SC3  160   4.817   2.546   7.470
    2TYR     BB  161   4.586   2.147   7.967
    2TYR    SC1  162   4.543   2.029   0.254
    2TYR    SC2  163   4.382   1.953   0.457
    2TYR    SC3  164   4.640   1.874   0.453
    3TYR     BB  165   4.556   2.014   7.710
    3TYR    SC1  166   4.607   2.150   7.446
    3TYR    SC2  167   4.758   2.150   7.222
    3TYR    SC3  168   4.514   2.266   7.220
    1TYR     BB  169   1.640   2.589   6.323
    1TYR    SC1  170   1.420   2.730   6.165
    1TYR    SC2  171   1.187   2.759   6.031
    1TYR    SC3  172   1.302   2.973   6.150
    2TYR     BB  173   1.465   2.392   6.512
    2TYR    SC1  174   1.622   2.146   6.606
    2TYR    SC2  175   1.848   1.998   6.600
    2TYR    SC3  176   1.615   1.884   6.673
    3TYR     BB  177   1.168   2.437   6.499
    3TYR    SC1  178   1.045   2.574   6.747
    3TYR    SC2  179   0.897   2.570   6.973
    3TYR    SC3  180   0.962   2.806   6.859
    1TYR     BB  181   1.634   5.378   4.321
    1TYR    SC1  182   1.706   5.325   4.619
    1TYR    SC2  183   1.685   5.379   4.883
    1TYR    SC3  184   1.901   5.246   4.789
    2TYR     BB  185   1.470   5.124   4.209
    2TYR    SC1  186   1.278   5.140   3.959
    2TYR    SC2  187   1.162   5.237   3.735
    2TYR    SC3  188   1.075   5.005   3.843
    3TYR     BB  189   1.232   5.070   4.441
    3TYR    SC1  190   1.403   4.942   4.661
    3TYR    SC2  191   1.662   4.867   4.659
    3TYR    SC3  192   1.483   4.727   4.804
    1TYR     BB  193   3.566   4.839   2.069
    1TYR    SC1  194   3.432   4.652   2.281
    1TYR    SC2  195   3.424   4.420   2.419
    1TYR    SC3  196   3.326   4.647   2.529
    2TYR     BB  197   3.809   4.952   2.302
    2TYR    SC1  198   4.029   5.161   2.281
    2TYR    SC2  199   4.094   5.398   2.393
    2TYR    SC3  200   4.241   5.300   2.188
    3TYR     BB  201   3.858   4.761   2.519
    3TYR    SC1  202   3.728   4.809   2.786
    3TYR    SC2  203   3.747   4.842   3.053
    3TYR    SC3  204   3.505   4.841   2.935
    1TYR     BB  205   1.493   4.118   1.286
    1TYR    SC1  206   1.714   4.229   1.467
    1TYR    SC2  207   1.833   4.233   1.709
    1TYR    SC3  208   1.975   4.162   1.490
    2TYR     BB  209   1.552   3.788   1.340
    2TYR    SC1  210   1.827   3.719   1.205
    2TYR    SC2  211   2.086   3.792   1.182
    2TYR    SC3  212   2.023   3.535   1.233
    3TYR     BB  213   1.637   3.743   1.639
    3TYR    SC1  214   1.955   3.732   1.664
    3TYR    SC2  215   2.157   3.553   1.657
    3TYR    SC3  216   2.208   3.816   1.628
    1TYR     BB  217   0.583   1.518   5.799
    1TYR    SC1  218   0.763   1.261   5.827
    1TYR    SC2  219   0.918   1.094   5.682
    1TYR    SC3  220   0.843   1.026   5.933
    2TYR     BB  221   0.767   1.793   5.802
    2TYR    SC1  222   0.616   2.060   5.727
    2TYR    SC2  223   0.438   2.254   5.788
    2TYR    SC3  224   0.552   2.248   5.543
    3TYR     BB  225   1.048   1.879   5.901
    3TYR    SC1  226   1.095   1.899   6.192
    3TYR    SC2  227   1.257   1.941   6.403
    3TYR    SC3  228   0.990   1.964   6.432
    1TYR     BB  229   5.422   5.398   7.517
    1TYR    SC1  230   5.185   5.330   7.690
    1TYR    SC2  231   4.953   5.233   7.789
    1TYR    SC3  232   5.050   5.469   7.878
    2TYR     BB  233   5.675   5.462   7.735
    2TYR    SC1  234   5.923   5.405   7.552
    2TYR    SC2  235   6.187   5.399   7.495
    2TYR    SC3  236   6.012   5.263   7.341
    3TYR     BB  237   5.600   5.329   0.012
    3TYR    SC1  238   5.841   5.301   0.202
    3TYR    SC2  239   6.071   5.221   0.319
    3TYR    SC3  240   5.902   5.386   0.451
    1TYR     BB  241   2.271   6.700   5.907
    1TYR    SC1  242   2.102   6.945   6.003
    1TYR    SC2  243   1.928   7.136   5.925
    1TYR    SC3  244   2.119   7.194   6.106
    2TYR     BB  245   2.151   6.418   5.930
    2TYR    SC1  246   1.928   6.365   5.715
    2TYR    SC2  247   1.659   6.355   5.729
    2TYR    SC3  248   1.795   6.161   5.599
    3TYR     BB  249   1.918   6.342   6.194
    3TYR    SC1  250   1.813   6.631   6.216
    3TYR    SC2  251   1.674   6.766   6.028
    3TYR    SC3  252   1.689   6.863   6.280
    1TYR     BB  253   7.076   3.007   0.411
    1TYR    SC1  254   6.877   2.933   0.169
    1TYR    SC2  255   6.846   2.813   7.929
    1TYR    SC3  256   6.629   2.887   0.072
    2TYR     BB  257   6.941   2.839   0.663
    2TYR    SC1  258   7.043   2.962   0.928
    2TYR    SC2  259   7.204   2.952   1.144
    2TYR    SC3  260   7.002   3.131   1.134
    3TYR     BB  261   6.694   2.697   0.587
    3TYR    SC1  262   6.717   2.528   0.328
    3TYR    SC2  263   6.916   2.427   0.177
    3TYR    SC3  264   6.660   2.402   0.096
    1TYR     BB  265   6.772   0.480   5.151
    1TYR    SC1  266   6.695   0.738   5.285
    1TYR    SC2  267   6.588   0.985   5.288
    1TYR    SC3  268   6.823   0.938   5.413
    2TYR     BB  269   6.953   0.315   5.382
    2TYR    SC1  270   7.063   0.085   5.200
    2TYR    SC2  271   7.082   0.061   4.932
    2TYR    SC3  272   7.058   7.841   5.085
    3TYR     BB  273   6.791   0.392   5.673
    3TYR    SC1  274   6.962   0.635   5.749
    3TYR    SC2  275   7.206   0.749   5.775
    3TYR    SC3  276   6.985   0.886   5.846
    1TYR     BB  277   7.021   4.081   3.612
    1TYR    SC1  278   7.279   4.202   3.460
    1TYR    SC2  279   7.410   4.416   3.560
    1TYR    SC3  280   7.530   4.258   3.377
    2TYR     BB  281   7.189   4.067   3.911
    2TYR    SC1  282   7.045   3.861   4.072
    2TYR    SC2  283   7.052   3.664   4.255
    2TYR    SC3  284   6.837   3.692   4.096
    3TYR     BB  285   7.489   3.929   3.838
    3TYR    SC1  286   7.675   4.173   3.844
    3TYR    SC2  287   7.699   4.434   3.908
    3TYR    SC3  288   7.872   4.322   3.735
    1TYR     BB  289   3.923   0.545   0.150
    1TYR    SC1  290   3.889   0.446   0.451
    1TYR    SC2  291   3.904   0.484   0.718
    1TYR    SC3  292   3.973   0.246   0.611
    2TYR     BB  293   4.121   0.325   0.008
    2TYR    SC1  294   4.086   0.244   7.707
    2TYR    SC2  295   4.150   0.073   7.508
    2TYR    SC3  296   4.031   0.309   7.451
    3TYR     BB  297   4.192   0.077   0.163
    3TYR    SC1  298   4.109   7.826   7.979
    3TYR    SC2  299   4.067   7.712   7.737
    3TYR    SC3  300   4.187   7.571   7.934
    1TYR     BB  301   6.532   7.916   4.805
    1TYR    SC1  302   6.596   7.992   5.102
    1TYR    SC2  303   6.675   7.904   5.345
    1TYR    SC3  304   6.487   0.097   5.326
    2TYR     BB  305   6.757   7.854   4.609
    2TYR    SC1  306   6.649   7.837   4.313
    2TYR    SC2  307   6.501   7.903   4.097
    2TYR    SC3  308   6.587   7.649   4.130
    3TYR     BB  309   6.954   7.610   4.649
    3TYR    SC1  310   7.240   7.704   4.671
    3TYR    SC2  311   7.461   7.774   4.810
    3TYR    SC3  312   7.479   7.719   4.546
    1TYR     BB  313   4.565   6.205   5.059
    1TYR    SC1  314   4.837   6.137   5.185
    1TYR    SC2  315   5.083   6.249   5.184
    1TYR    SC3  316   5.050   5.997   5.275
    2TYR     BB  317   4.473   6.474   5.228
    2TYR    SC1  318   4.188   6.549   5.155
    2TYR    SC2  319   3.932   6.587   5.233
    2TYR    SC3  320   4.017   6.684   4.996
    3TYR     BB  321   4.668   6.640   5.394
    3TYR    SC1  322   4.588   6.625   5.689
    3TYR    SC2  323   4.442   6.731   5.891
    3TYR    SC3  324   4.596   6.513   5.935
    1TYR     BB  325   5.410   1.351   0.211
    1TYR    SC1  326   5.529   1.280   7.922
    1TYR    SC2  327   5.526   1.103   7.717
    1TYR    SC3  328   5.633   1.349   7.682
    2TYR     BB  329   5.096   1.266   0.153
    2TYR    SC1  330   4.896   1.276   0.388
    2TYR    SC2  331   4.666   1.384   0.478
    2TYR    SC3  332   4.787   1.188   0.619
    3TYR     BB  333   4.976   1.202   7.900
    3TYR    SC1  334   5.095   1.224   7.627
    3TYR    SC2  335   5.046   1.194   7.363
    3TYR    SC3  336   5.238   1.365   7.446
    1TYR     BB  337   1.213   2.437   3.800
    1TYR    SC1  338   0.930   2.540   3.798
    1TYR    SC2  339   0.780   2.758   3.851
    1TYR    SC3  340   0.687   2.568   3.683
    2TYR     BB  341   1.363   2.714   3.937
    2TYR    SC1  342   1.507   2.598   4.176
    2TYR    SC2  343   1.656   2.384   4.247
    2TYR    SC3  344   1.704   2.625   4.360
    3TYR     BB  345   1.310   2.985   3.849
    3TYR    SC1  346   1.538   3.145   3.711
    3TYR    SC2  347   1.615   3.378   3.599
    3TYR    SC3  348   1.750   3.151   3.545
    1TYR     BB  349   0.190   6.838   1.596
    1TYR    SC1  350   0.145   6.576   1.763
    1TYR    SC2  351   0.223   6.318   1.764
    1TYR    SC3  352   0.135   6.434   1.992
    2TYR     BB  353   0.509   6.768   1.470
    2TYR    SC1  354   0.577   7.009   1.290
    2TYR    SC2  355   0.753   7.162   1.155
    2TYR    SC3  356   0.524   7.270   1.248
    3TYR     BB  357   0.621   6.497   1.513
    3TYR    SC1  358   0.882   6.436   1.347
    3TYR    SC2  359   1.013   6.259   1.191
    3TYR    SC3  360   1.149   6.405   1.372
    1TYR     BB  361   4.465   3.036   1.857
    1TYR    SC1  362   4.374   3.203   2.092
    1TYR    SC2  363   4.335   3.444   2.207
    1TYR    SC3  364   4.372   3.226   2.361
    2TYR     BB  365   4.693   3.267   1.723
    2TYR    SC1  366   4.942   3.297   1.899
    2TYR    SC2  367   5.207   3.320   1.855
    2TYR    SC3  368   5.100   3.408   2.087
    3TYR     BB  369   4.551   3.570   1.753
    3TYR    SC1  370   4.258   3.477   1.707
    3TYR    SC2  371   4.107   3.394   1.499
    3TYR    SC3  372   4.055   3.302   1.748
    1TYR     BB  373   1.678   1.170   7.240
    1TYR    SC1  374   1.811   1.289   6.988
    1TYR    SC2  375   1.839   1.513   6.839
    1TYR    SC3  376   1.863   1.269   6.724
    2TYR     BB  377   1.548   0.871   7.151
    2TYR    SC1  378   1.754   0.674   7.295
    2TYR    SC2  379   1.906   0.459   7.234
    2TYR    SC3  380   1.802   0.485   7.482
    3TYR     BB  381   1.669   0.783   6.828
    3TYR    SC1  382   1.959   0.851   6.895
    3TYR    SC2  383   2.120   0.919   7.101
    3TYR    SC3  384   2.193   0.978   6.848
    1TYR     BB  385   2.022   3.650   2.340
    1TYR    SC1  386   1.758   3.663   2.489
    1TYR    SC2  387   1.601   3.514   2.650
    1TYR    SC3  388   1.497   3.726   2.520
    2TYR     BB  389   2.218   3.441   2.520
    2TYR    SC1  390   2.472   3.291   2.405
    2TYR    SC2  391   2.721   3.191   2.439
    2TYR    SC3  392   2.589   3.148   2.207
    3TYR     BB  393   2.068   3.211   2.699
    3TYR    SC1  394   1.972   3.360   2.945
    3TYR    SC2  395   1.975   3.375   3.214
    3TYR    SC3  396   1.753   3.446   3.078
    1TYR     BB  397   4.192   7.608   7.186
    1TYR    SC1  398   4.161   7.295   7.112
    1TYR    SC2  399   4.325   7.081   7.115
    1TYR    SC3  400   4.058   7.046   7.101
    2TYR     BB  401   4.425   7.570   7.414
    2TYR    SC1  402   4.511   7.778   7.604
    2TYR    SC2  403   4.489   7.978   7.784
    2TYR    SC3  404   4.724   7.935   7.659
    3TYR     BB  405   4.414   7.273   7.573
    3TYR    SC1  406   4.104   7.246   7.580
    3TYR    SC2  407   3.902   7.250   7.759
    3TYR    SC3  408   3.866   7.354   7.512
    1TYR     BB  409   0.018   5.465   5.626
    1TYR    SC1  410   7.797   5.565   5.811
    1TYR    SC2  411   7.570   5.535   5.954
    1TYR    SC3  412   7.717   5.760   5.980
    2TYR     BB  413   0.183   5.229   5.723
    2TYR    SC1  414   0.463   5.321   5.821
    2TYR    SC2  415   0.690   5.249   5.948
    2TYR    SC3  416   0.688   5.466   5.787
    3TYR     BB  417   7.984   4.948   5.713
    3TYR    SC1  418   7.839   4.994   5.975
    3TYR    SC2  419   7.799   4.966   6.241
    3TYR    SC3  420   7.828   5.213   6.134
    1TYR     BB  421   2.594   6.407   2.657
    1TYR    SC1  422   2.712   6.511   2.920
    1TYR    SC2  423   2.919   6.453   3.083
    1TYR    SC3  424   2.817   6.703   3.079
    2TYR     BB  425   2.902   6.345   2.497
    2TYR    SC1  426   2.875   6.039   2.490
    2TYR    SC2  427   2.956   5.796   2.405
    2TYR    SC3  428   2.717   5.823   2.526
    3TYR     BB  429   3.137   6.512   2.584
    3TYR    SC1  430   3.384   6.444   2.395
    3TYR    SC2  431   3.566   6.263   2.312
    3TYR    SC3  432   3.559   6.508   2.199
    1TYR     BB  433   3.582   3.122   7.281
    1TYR    SC1  434   3.464   2.861   7.410
    1TYR    SC2  435   3.404   2.711   7.626
    1TYR    SC3  436   3.497   2.594   7.401
    2TYR     BB  437   3.600   3.047   6.958
    2TYR    SC1  438   3.736   3.293   6.820
    2TYR    SC2  439   3.965   3.361   6.693
    2TYR    SC3  440   3.772   3.546   6.733
    3TYR     BB  441   3.503   2.769   6.895
    3TYR    SC1  442   3.541   2.639   6.621
    3TYR    SC2  443   3.444   2.617   6.370
    3TYR    SC3  444   3.673   2.491   6.437
    1TYR     BB  445   2.428   1.050   3.868
    1TYR    SC1  446   2.115   1.052   3.895
    1TYR    SC2  447   1.897   0.931   3.790
    1TYR    SC3  448   1.869   1.110   3.990
    2TYR     BB  449   2.465   0.823   3.613
    2TYR    SC1  450   2.734   0.683   3.549
    2TYR    SC2  451   2.934   0.503   3.571
    2TYR    SC3  452   2.971   0.729   3.427
    3TYR     BB  453   2.229   0.728   3.397
    3TYR    SC1  454   2.295   0.417   3.412
    3TYR    SC2  455   2.345   0.155   3.375
    3TYR    SC3  456   2.472   0.290   3.571
    1TYR     BB  457   2.766   2.321   5.081
    1TYR    SC1  458   2.890   2.462   4.824
    1TYR    SC2  459   2.998   2.511   4.582
    1TYR    SC3  460   3.047   2.679   4.788
    2TYR     BB  461   2.982   2.493   5.304
    2TYR    SC1  462   2.876   2.383   5.572
    2TYR    SC2  463   2.864   2.285   5.824
    2TYR    SC3  464   2.636   2.344   5.691
    3TYR     BB  465   2.886   2.798   5.307
    3TYR    SC1  466   2.726   2.860   5.042
    3TYR    SC2  467   2.548   2.787   4.853
    3TYR    SC3  468   2.603   3.048   4.892
    1TYR     BB  469   2.059   2.463   1.474
    1TYR    SC1  470   2.076   2.639   1.206
    1TYR    SC2  471   2.180   2.728   0.974
    1TYR    SC3  472   1.993   2.874   1.102
    2TYR     BB  473   1.824   2.642   1.625
    2TYR    SC1  474   1.628   2.455   1.759
    2TYR    SC2  475   1.401   2.461   1.906
    2TYR    SC3  476   1.427   2.282   1.706
    3TYR     BB  477   1.593   2.774   1.390
    3TYR    SC1  478   1.316   2.691   1.501
    3TYR    SC2  479   1.082   2.560   1.469
    3TYR    SC3  480   1.087   2.797   1.597
    1TYR     BB  481   7.603   6.761   3.254
    1TYR    SC1  482   7.783   6.532   3.351
    1TYR    SC2  483   7.891   6.429   3.576
    1TYR    SC3  484   7.878   6.279   3.352
    2TYR     BB  485   7.301   6.738   3.465
    2TYR    SC1  486   7.302   7.040   3.540
    2TYR    SC2  487   7.422   7.262   3.636
    2TYR    SC3  488   7.210   7.284   3.471
    3TYR     BB  489   7.020   6.650   3.700
    3TYR    SC1  490   7.113   6.824   3.926
    3TYR    SC2  491   7.231   6.820   4.169
    3TYR    SC3  492   7.281   7.023   3.999
    1TYR     BB  493   4.957   2.497   6.470
    1TYR    SC1  494   5.231   2.366   6.417
    1TYR    SC2  495   5.367   2.133   6.432
    1TYR    SC3  496   5.471   2.342   6.297
    2TYR     BB  497   4.845   2.597   6.173
    2TYR    SC1  498   4.591   2.413   6.155
    2TYR    SC2  499   4.467   2.186   6.078
    2TYR    SC3  500   4.441   2.275   6.331
    3TYR     BB  501   5.025   2.485   5.935
    3TYR    SC1  502   5.159   2.204   5.980
    3TYR    SC2  503   5.212   1.949   6.049
    3TYR    SC3  504   5.400   2.096   5.923
    1TYR     BB  505   3.282   6.145   5.234
    1TYR    SC1  506   3.472   6.340   5.387
    1TYR    SC2  507   3.715   6.285   5.491
    1TYR    SC3  508   3.588   6.514   5.557
    2TYR     BB  509   3.415   5.851   5.353
    2TYR    SC1  510   3.266   5.591   5.284
    2TYR    SC2  511   3.271   5.323   5.314
    2TYR    SC3  512   3.036   5.451   5.282
    3TYR     BB  513   3.703   5.823   5.312
    3TYR    SC1  514   3.864   5.841   5.583
    3TYR    SC2  515   4.104   5.763   5.678
    3TYR    SC3  516   3.977   5.974   5.789
    1TYR     BB  517   1.862   3.764   3.860
    1TYR    SC1  518   1.695   4.018   3.868
    1TYR    SC2  519   1.650   4.243   4.009
    1TYR    SC3  520   1.568   4.227   3.753
    2TYR     BB  521   1.945   3.745   3.531
    2TYR    SC1  522   2.218   3.895   3.530
    2TYR    SC2  523   2.397   4.064   3.418
    2TYR    SC3  524   2.442   3.964   3.665
    3TYR     BB  525   1.660   3.813   3.400
    3TYR    SC1  526   1.415   3.699   3.239
    3TYR    SC2  527   1.340   3.663   2.982
    3TYR    SC3  528   1.154   3.706   3.172
    1TYR     BB  529   6.412   4.848   0.916
    1TYR    SC1  530   6.606   4.643   1.045
    1TYR    SC2  531   6.796   4.635   1.237
    1TYR    SC3  532   6.656   4.412   1.176
    2TYR     BB  533   6.353   5.031   1.187
    2TYR    SC1  534   6.047   5.030   1.214
    2TYR    SC2  535   5.805   4.910   1.207
    2TYR    SC3  536   5.835   5.146   1.335
    3TYR     BB  537   6.498   4.978   1.459
    3TYR    SC1  538   6.526   4.713   1.613
    3TYR    SC2  539   6.444   4.541   1.804
    3TYR    SC3  540   6.654   4.478   1.646
    1TYR     BB  541   1.114   1.440   1.434
    1TYR    SC1  542   0.805   1.368   1.419
    1TYR    SC2  543   0.658   1.168   1.527
    1TYR    SC3  544   0.540   1.403   1.462
    2TYR     BB  545   1.124   1.304   1.768
    2TYR    SC1  546   1.205   1.016   1.695
    2TYR    SC2  547   1.228   0.754   1.755
    2TYR    SC3  548   1.414   0.874   1.600
    3TYR     BB  549   0.951   1.441   1.945
    3TYR    SC1  550   0.645   1.439   1.922
    3TYR    SC2  551   0.406   1.314   1.906
    3TYR    SC3  552   0.420   1.583   1.879
    1TYR     BB  553   5.753   3.741   5.938
    1TYR    SC1  554   5.526   3.595   5.805
    1TYR    SC2  555   5.330   3.677   5.639
    1TYR    SC3  556   5.343   3.418   5.714
    2TYR     BB  557   5.992   3.627   6.129
    2TYR    SC1  558   6.065   3.901   6.281
    2TYR    SC2  559   6.145   4.041   6.497
    2TYR    SC3  560   6.118   4.165   6.259
    3TYR     BB  561   6.274   3.447   6.135
    3TYR    SC1  562   6.220   3.143   6.180
    3TYR    SC2  563   6.359   2.911   6.180
    3TYR    SC3  564   6.091   2.909   6.143
    1TYR     BB  565   0.103   3.584   5.171
    1TYR    SC1  566   0.027   3.276   5.184
    1TYR    SC2  567   7.940   3.061   5.320
    1TYR    SC3  568   0.112   3.030   5.115
    2TYR     BB  569   0.426   3.571   5.078
    2TYR    SC1  570   0.479   3.841   4.932
    2TYR    SC2  571   0.356   4.045   4.806
    2TYR    SC3  572   0.625   4.038   4.820
    3TYR     BB  573   0.563   3.281   5.025
    3TYR    SC1  574   0.807   3.266   5.219
    3TYR    SC2  575   1.072   3.275   5.272
    3TYR    SC3  576   0.895   3.243   5.473
    1TYR     BB  577   6.728   1.090   1.242
    1TYR    SC1  578   6.467   0.927   1.186
    1TYR    SC2  579   6.233   0.901   1.055
    1TYR    SC3  580   6.267   0.783   1.295
    2TYR     BB  581   6.705   1.328   1.048
    2TYR    SC1  582   6.978   1.457   1.006
    2TYR    SC2  583   7.236   1.435   0.929
    2TYR    SC3  584   7.165   1.622   1.111
    3TYR     BB  585   6.515   1.269   0.787
    3TYR    SC1  586   6.734   1.312   0.559
    3TYR    SC2  587   6.818   1.414   0.324
    3TYR    SC3  588   6.981   1.418   0.539
    1TYR     BB  589   3.238   0.495   3.049
    1TYR    SC1  590   2.960   0.362   3.128
    1TYR    SC2  591   2.815   0.181   3.268
    1TYR    SC3  592   2.698   0.407   3.177
    2TYR     BB  593   3.407   0.399   3.309
    2TYR    SC1  594   3.681   0.292   3.198
    2TYR    SC2  595   3.924   0.292   3.081
    2TYR    SC3  596   3.829   0.067   3.195
    3TYR     BB  597   3.299   0.050   3.367
    3TYR    SC1  598   3.192   0.079   3.652
    3TYR    SC2  599   3.199   7.956   3.892
    3TYR    SC3  600   3.163   0.223   3.879
    1TYR     BB  601   2.350   3.954   2.603
    1TYR    SC1  602   2.251   4.228   2.503
    1TYR    SC2  603   2.139   4.471   2.539
    1TYR    SC3  604   2.399   4.451   2.471
    2TYR     BB  605   2.501   4.155   2.905
    2TYR    SC1  606   2.690   3.960   3.034
    2TYR    SC2  607   2.777   3.827   3.252
    2TYR    SC3  608   2.885   3.774   3.010
    3TYR     BB  609   2.242   4.304   3.011
    3TYR    SC1  610   2.304   4.501   3.248
    3TYR    SC2  611   2.161   4.687   3.382
    3TYR    SC3  612   2.428   4.715   3.355
    1TYR     BB  613   2.914   4.987   4.997
    1TYR    SC1  614   2.772   4.757   4.837
    1TYR    SC2  615   2.626   4.709   4.616
    1TYR    SC3  616   2.764   4.509   4.733
    2TYR     BB  617   2.693   5.249   4.931
    2TYR    SC1  618   2.612   5.338   5.215
    2TYR    SC2  619   2.603   5.569   5.355
    2TYR    SC3  620   2.464   5.354   5.440
    3TYR     BB  621   2.483   5.196   4.705
    3TYR    SC1  622   2.332   5.412   4.548
    3TYR    SC2  623   2.104   5.474   4.416
    3TYR    SC3  624   2.341   5.571   4.330
    1TYR     BB  625   3.657   2.383   0.683
    1TYR    SC1  626   3.772   2.153   0.856
    1TYR    SC2  627   3.771   1.885   0.882
    1TYR    SC3  628   3.907   2.037   1.059
    2TYR     BB  629   3.731   2.287   0.365
    2TYR    SC1  630   3.484   2.375   0.192
    2TYR    SC2  631   3.320   2.554   0.074
    2TYR    SC3  632   3.263   2.291   0.063
    3TYR     BB  633   3.883   1.986   0.394
    3TYR    SC1  634   4.046   1.914   0.145
    3TYR    SC2  635   4.230   1.769   0.011
    3TYR    SC3  636   4.090   1.961   7.882
    1TYR     BB  637   2.548   4.682   7.006
    1TYR    SC1  638   2.613   4.466   6.789
    1TYR    SC2  639   2.549   4.292   6.593
    1TYR    SC3  640   2.795   4.286   6.704
    2TYR     BB  641   2.777   4.904   6.939
    2TYR    SC1  642   2.664   5.026   6.671
    2TYR    SC2  643   2.608   5.063   6.409
    2TYR    SC3  644   2.537   5.250   6.591
    3TYR     BB  645   3.059   4.805   6.826
    3TYR    SC1  646   2.987   4.682   6.549
    3TYR    SC2  647   2.770   4.645   6.393
    3TYR    SC3  648   2.995   4.504   6.346
    1TYR     BB  649   1.216   0.705   5.667
    1TYR    SC1  650   1.150   0.423   5.552
    1TYR    SC2  651   1.211   0.166   5.493
    1TYR    SC3  652   1.005   0.289   5.368
    2TYR     BB  653   1.296   0.660   5.960
    2TYR    SC1  654   1.610   0.697   5.976
    2TYR    SC2  655   1.813   0.523   6.011
    2TYR    SC3  656   1.865   0.786   5.986
    3TYR     BB  657   1.275   0.321   6.040
    3TYR    SC1  658   1.028   0.160   5.932
    3TYR    SC2  659   0.889   7.934   5.984
    3TYR    SC3  660   0.846   0.069   5.754
    1TYR     BB  661   2.585   1.607   3.224
    1TYR    SC1  662   2.740   1.351   3.326
    1TYR    SC2  663   2.791   1.165   3.515
    1TYR    SC3  664   2.984   1.235   3.339
    2TYR     BB  665   2.274   1.589   3.073
    2TYR    SC1  666   2.300   1.501   2.786
    2TYR    SC2  667   2.316   1.316   2.590
    2TYR    SC3  668   2.114   1.496   2.590
    3TYR     BB  669   1.878   1.484   3.057
    3TYR    SC1  670   1.967   1.215   2.924
    3TYR    SC2  671   2.184   1.061   2.971
    3TYR    SC3  672   2.018   1.002   2.766
    1TYR     BB  673   0.121   6.029   5.041
    1TYR    SC1  674   7.843   6.178   5.020
    1TYR    SC2  675   7.596   6.098   5.096
    1TYR    SC3  676   7.634   6.349   5.003
    2TYR     BB  677   0.050   5.853   5.306
    2TYR    SC1  678   7.869   5.634   5.181
    2TYR    SC2  679   7.749   5.392   5.189
    2TYR    SC3  680   7.653   5.586   5.027
    3TYR     BB  681   7.872   5.988   5.521
    3TYR    SC1  682   7.847   6.291   5.463
    3TYR    SC2  683   7.676   6.500   5.451
    3TYR    SC3  684   7.917   6.516   5.330
    1TYR     BB  685   2.207   2.955   7.106
    1TYR    SC1  686   2.099   3.180   7.302
    1TYR    SC2  687   2.026   3.196   7.562
    1TYR    SC3  688   2.073   3.421   7.421
    2TYR     BB  689   2.311   2.742   7.344
    2TYR    SC1  690   2.459   2.480   7.275
    2TYR    SC2  691   2.681   2.328   7.256
    2TYR    SC3  692   2.471   2.281   7.093
    3TYR     BB  693   2.061   2.692   7.561
    3TYR    SC1  694   2.199   2.827   7.805
    3TYR    SC2  695   2.336   2.851   0.037
    3TYR    SC3  696   2.384   3.021   7.833
    1TYR     BB  697   1.528   5.321   3.366
    1TYR    SC1  698   1.360   5.406   3.105
    1TYR    SC2  699   1.432   5.395   2.845
    1TYR    SC3  700   1.177   5.451   2.912
    2TYR     BB  701   1.735   5.092   3.192
    2TYR    SC1  702   2.009   5.144   3.316
    2TYR    SC2  703   2.278   5.137   3.299
    2TYR    SC3  704   2.154   5.355   3.401
    3TYR     BB  705   1.568   4.933   2.992
    3TYR    SC1  706   1.679   4.923   2.703
    3TYR    SC2  707   1.850   5.051   2.538
    3TYR    SC3  708   1.783   4.793   2.490
    1TYR     BB  709   4.197   3.811   1.169
    1TYR    SC1  710   4.322   4.087   1.051
    1TYR    SC2  711   4.331   4.292   0.876
    1TYR    SC3  712   4.391   4.333   1.136
    2TYR     BB  713   4.118   3.900   1.454
    2TYR    SC1  714   3.925   3.779   1.664
    2TYR    SC2  715   3.877   3.697   1.917
    2TYR    SC3  716   3.714   3.879   1.800
    3TYR     BB  717   3.977   4.197   1.435
    3TYR    SC1  718   4.193   4.377   1.554
    3TYR    SC2  719   4.328   4.429   1.782
    3TYR    SC3  720   4.392   4.560   1.555
    1TYR     BB  721   3.497   1.670   7.090
    1TYR    SC1  722   3.482   1.412   7.284
    1TYR    SC2  723   3.314   1.242   7.409
    1TYR    SC3  724   3.571   1.171   7.367
    2TYR     BB  725   3.538   1.493   6.796
    2TYR    SC1  726   3.336   1.622   6.606
    2TYR    SC2  727   3.210   1.738   6.397
    2TYR    SC3  728   3.108   1.760   6.646
    3TYR     BB  729   3.603   1.193   6.842
    3TYR    SC1  730   3.373   1.032   6.981
    3TYR    SC2  731   3.128   0.979   7.083
    3TYR    SC3  732   3.323   0.793   7.096
    1TYR     BB  733   5.813   4.375   3.449
    1TYR    SC1  734   6.125   4.358   3.517
    1TYR    SC2  735   6.379   4.448   3.535
    1TYR    SC3  736   6.272   4.303   3.736
    2TYR     BB  737   5.781   4.682   3.396
    2TYR    SC1  738   5.564   4.871   3.478
    2TYR    SC2  739   5.491   5.033   3.681
    2TYR    SC3  740   5.367   5.053   3.442
    3TYR     BB  741   6.062   4.840   3.471
    3TYR    SC1  742   6.003   4.953   3.743
    3TYR    SC2  743   5.859   5.066   3.941
    3TYR    SC3  744   6.113   4.989   3.987
    1TYR     BB  745   3.819   7.326   0.265
    1TYR    SC1  746   3.702   7.541   0.066
    1TYR    SC2  747   3.455   7.642   0.023
    1TYR    SC3  748   3.643   7.660   7.830
    2TYR     BB  749   3.629   7.396   0.547
    2TYR    SC1  750   3.605   7.163   0.768
    2TYR    SC2  751   3.518   7.119   1.019
    2TYR    SC3  752   3.628   6.917   0.877
    3TYR     BB  753   3.499   7.697   0.536
    3TYR    SC1  754   3.601   7.942   0.703
    3TYR    SC2  755   3.533   0.200   0.741
    3TYR    SC3  756   3.676   0.069   0.929
    1TYR     BB  757   7.023   6.790   1.303
    1TYR    SC1  758   6.792   6.750   1.506
    1TYR    SC2  759   6.565   6.646   1.609
    1TYR    SC3  760   6.641   6.897   1.675
    2TYR     BB  761   7.277   6.624   1.428
    2TYR    SC1  762   7.529   6.684   1.270
    2TYR    SC2  763   7.785   6.767   1.255
    2TYR    SC3  764   7.696   6.574   1.089
    3TYR     BB  765   7.243   6.429   1.657
    3TYR    SC1  766   7.049   6.553   1.859
    3TYR    SC2  767   7.079   6.626   2.118
    3TYR    SC3  768   6.840   6.656   1.996
    1TYR     BB  769   4.997   7.738   6.388
    1TYR    SC1  770   5.115   7.462   6.302
    1TYR    SC2  771   5.243   7.294   6.134
    1TYR    SC3  772   5.334   7.328   6.386
    2TYR     BB  773   5.376   7.838   6.464
    2TYR    SC1  774   5.493   0.135   6.456
    2TYR    SC2  775   5.538   0.401   6.447
    2TYR    SC3  776   5.686   0.233   6.295
    3TYR     BB  777   5.493   7.779   6.124
    3TYR    SC1  778   5.657   7.525   6.129
    3TYR    SC2  779   5.703   7.277   6.033
    3TYR    SC3  780   5.793   7.345   6.278
    1TYR     BB  781   3.365   4.234   7.397
    1TYR    SC1  782   3.115   4.076   7.479
    1TYR    SC2  783   2.971   3.852   7.525
    1TYR    SC3  784   2.848   4.092   7.515
    2TYR     BB  785   3.558   4.227   7.679
    2TYR    SC1  786   3.836   4.167   7.553
    2TYR    SC2  787   4.104   4.175   7.587
    2TYR    SC3  788   4.000   4.055   7.370
    3TYR     BB  789   3.537   4.014   7.949
    3TYR    SC1  790   3.564   4.089   0.254
    3TYR    SC2  791   3.623   3.990   0.498
    3TYR    SC3  792   3.580   4.255   0.466
    1TYR     BB  793   1.161   5.140   5.679
    1TYR    SC1  794   1.443   5.220   5.806
    1TYR    SC2  795   1.592   5.292   6.019
    1TYR    SC3  796   1.705   5.155   5.816
    2TYR     BB  797   1.248   4.829   5.585
    2TYR    SC1  798   1.014   4.655   5.508
    2TYR    SC2  799   0.934   4.432   5.380
    2TYR    SC3  800   0.767   4.557   5.551
    3TYR     BB  801   1.547   4.739   5.595
    3TYR    SC1  802   1.665   4.890   5.344
    3TYR    SC2  803   1.797   4.875   5.109
    3TYR    SC3  804   1.572   5.023   5.129
    1TYR     BB  805   4.744   6.214   0.884
    1TYR    SC1  806   4.570   6.037   0.704
    1TYR    SC2  807   4.533   5.899   0.474
    1TYR    SC3  808   4.437   5.802   0.707
    2TYR     BB  809   4.899   5.967   1.048
    2TYR    SC1  810   5.187   6.058   1.078
    2TYR    SC2  811   5.452   6.010   1.097
    2TYR    SC3  812   5.364   6.255   1.026
    3TYR     BB  813   4.748   5.693   1.092
    3TYR    SC1  814   4.469   5.746   1.194
    3TYR    SC2  815   4.314   5.806   1.407
    3TYR    SC3  816   4.209   5.675   1.195
    1TYR     BB  817   4.117   3.066   4.470
    1TYR    SC1  818   4.216   3.347   4.408
    1TYR    SC2  819   4.440   3.496   4.424
    1TYR    SC3  820   4.288   3.504   4.201
    2TYR     BB  821   4.325   2.891   4.260
    2TYR    SC1  822   4.395   2.645   4.431
    2TYR    SC2  823   4.367   2.378   4.459
    2TYR    SC3  824   4.478   2.524   4.657
    3TYR     BB  825   4.357   3.003   4.006
    3TYR    SC1  826   4.518   2.937   3.754
    3TYR    SC2  827   4.711   2.821   3.605
    3TYR    SC3  828   4.514   2.960   3.485
    1TYR     BB  829   5.648   4.703   5.351
    1TYR    SC1  830   5.399   4.705   5.175
    1TYR    SC2  831   5.287   4.861   4.986
    1TYR    SC3  832   5.179   4.621   5.044
    2TYR     BB  833   5.887   4.790   5.127
    2TYR    SC1  834   6.190   4.700   5.183
    2TYR    SC2  835   6.337   4.475   5.209
    2TYR    SC3  836   6.440   4.714   5.283
    3TYR     BB  837   5.836   4.675   4.855
    3TYR    SC1  838   5.572   4.592   4.758
    3TYR    SC2  839   5.372   4.636   4.582
    3TYR    SC3  840   5.392   4.398   4.708
    1TYR     BB  841   6.473   6.207   4.296
    1TYR    SC1  842   6.553   6.129   4.594
    1TYR    SC2  843   6.493   5.989   4.817
    1TYR    SC3  844   6.734   6.108   4.794
    2TYR     BB  845   6.611   5.968   4.131
    2TYR    SC1  846   6.690   5.822   3.873
    2TYR    SC2  847   6.854   5.657   3.736
    2TYR    SC3  848   6.586   5.629   3.714
    3TYR     BB  849   6.346   5.726   4.207
    3TYR    SC1  850   6.498   5.614   4.443
    3TYR    SC2  851   6.712   5.654   4.602
    3TYR    SC3  852   6.615   5.404   4.566
    1TYR     BB  853   4.640   5.118   3.468
    1TYR    SC1  854   4.824   5.375   3.536
    1TYR    SC2  855   5.075   5.467   3.576
    1TYR    SC3  856   4.863   5.623   3.636
    2TYR     BB  857   4.499   5.200   3.189
    2TYR    SC1  858   4.266   5.068   3.048
    2TYR    SC2  859   4.078   5.109   2.858
    2TYR    SC3  860   4.176   4.861   2.900
    3TYR     BB  861   4.572   5.473   3.075
    3TYR    SC1  862   4.332   5.600   2.942
    3TYR    SC2  863   4.105   5.597   2.796
    3TYR    SC3  864   4.154   5.801   2.966
    1TYR     BB  865   4.119   5.804   2.086
    1TYR    SC1  866   4.013   5.867   2.376
    1TYR    SC2  867   3.867   5.939   2.591
    1TYR    SC3  868   4.125   6.018   2.570
    2TYR     BB  869   4.449   6.010   2.115
    2TYR    SC1  870   4.589   5.820   1.922
    2TYR    SC2  871   4.630   5.668   1.702
    2TYR    SC3  872   4.575   5.551   1.939
    3TYR     BB  873   4.556   6.187   2.347
    3TYR    SC1  874   4.864   6.225   2.334
    3TYR    SC2  875   5.081   6.192   2.491
    3TYR    SC3  876   5.096   6.348   2.271
    1TYR     BB  877   4.486   4.286   4.205
    1TYR    SC1  878   4.572   4.300   3.902
    1TYR    SC2  879   4.692   4.358   3.667
    1TYR    SC3  880   4.424   4.319   3.677
    2TYR     BB  881   4.199   4.072   4.113
    2TYR    SC1  882   4.174   3.916   4.373
    2TYR    SC2  883   4.106   3.771   4.591
    2TYR    SC3  884   4.335   3.914   4.590
    3TYR     BB  885   4.244   3.890   3.882
    3TYR    SC1  886   3.983   3.753   3.797
    3TYR    SC2  887   3.854   3.600   3.616
    3TYR    SC3  888   3.717   3.783   3.760
    1TYR     BB  889   4.922   4.747   0.472
    1TYR    SC1  890   4.742   4.851   0.239
    1TYR    SC2  891   4.771   4.842   7.970
    1TYR    SC3  892   4.637   5.046   0.084
    2TYR     BB  893   5.218   4.701   0.261
    2TYR    SC1  894   5.414   4.602   0.493
    2TYR    SC2  895   5.649   4.518   0.596
    2TYR    SC3  896   5.478   4.663   0.748
    3TYR     BB  897   5.311   4.913   0.015
    3TYR    SC1  898   5.190   4.848   7.739
    3TYR    SC2  899   5.219   4.903   7.476
    3TYR    SC3  900   4.982   4.813   7.569
    1TYR     BB  901   2.018   6.238   3.602
    1TYR    SC1  902   2.230   6.412   3.445
    1TYR    SC2  903   2.402   6.616   3.488
    1TYR    SC3  904   2.479   6.403   3.342
    2TYR     BB  905   2.233   6.046   3.787
    2TYR    SC1  906   2.072   5.913   4.012
    2TYR    SC2  907   1.881   5.787   4.154
    2TYR    SC3  908   2.070   5.931   4.281
    3TYR     BB  909   2.482   6.188   3.816
    3TYR    SC1  910   2.703   6.103   3.623
    3TYR    SC2  911   2.885   6.123   3.425
    3TYR    SC3  912   2.770   5.885   3.478
    1TYR     BB  913   1.878   5.951   1.141
    1TYR    SC1  914   1.563   5.961   1.176
    1TYR    SC2  915   1.316   5.858   1.135
    1TYR    SC3  916   1.369   5.996   1.361
    2TYR     BB  917   1.945   5.838   1.458
    2TYR    SC1  918   2.105   5.590   1.410
    2TYR    SC2  919   2.230   5.360   1.477
    2TYR    SC3  920   2.233   5.446   1.221
    3TYR     BB  921   1.778   5.937   1.662
    3TYR    SC1  922   1.768   5.838   1.946
    3TYR    SC2  923   1.672   5.636   2.098
    3TYR    SC3  924   1.656   5.891   2.186
    1TYR     BB  925   7.404   5.535   3.759
    1TYR    SC1  926   7.678   5.376   3.710
    1TYR    SC2  927   7.806   5.155   3.798
    1TYR    SC3  928   7.861   5.255   3.553
    2TYR     BB  929   7.230   5.381   3.505
    2TYR    SC1  930   7.025   5.217   3.662
    2TYR    SC2  931   6.936   5.083   3.879
    2TYR    SC3  932   6.887   4.987   3.631
    3TYR     BB  933   7.448   5.226   3.266
    3TYR    SC1  934   7.328   5.365   3.016
    3TYR    SC2  935   7.160   5.326   2.809
    3TYR    SC3  936   7.149   5.555   2.951
    1TYR     BB  937   4.752   7.192   3.964
    1TYR    SC1  938   4.959   6.960   3.989
    1TYR    SC2  939   4.954   6.693   3.948
    1TYR    SC3  940   5.169   6.838   3.870
    2TYR     BB  941   4.638   7.105   3.653
    2TYR    SC1  942   4.430   7.318   3.573
    2TYR    SC2  943   4.337   7.539   3.449
    2TYR    SC3  944   4.165   7.367   3.567
    3TYR     BB  945   4.717   6.854   3.535
    3TYR    SC1  946   4.975   6.809   3.385
    3TYR    SC2  947   5.089   6.698   3.167
    3TYR    SC3  948   5.240   6.759   3.383
    1TYR     BB  949   3.535   1.887   3.749
    1TYR    SC1  950   3.793   2.062   3.779
    1TYR    SC2  951   3.897   2.305   3.835
    1TYR    SC3  952   4.061   2.092   3.799
    2TYR     BB  953   3.590   1.625   3.966
    2TYR    SC1  954   3.319   1.472   3.942
    2TYR    SC2  955   3.081   1.395   4.044
    2TYR    SC3  956   3.144   1.336   3.788
    3TYR     BB  957   3.683   1.725   4.260
    3TYR    SC1  958   3.804   2.011   4.238
    3TYR    SC2  959   3.723   2.267   4.268
    3TYR    SC3  960   3.987   2.208   4.266
    1TYR     BB  961   5.969   1.764   5.384
    1TYR    SC1  962   6.135   1.491   5.343
    1TYR    SC2  963   6.238   1.307   5.174
    1TYR    SC3  964   6.381   1.388   5.388
    2TYR     BB  965   6.145   1.967   5.168
    2TYR    SC1  966   5.974   2.116   4.963
    2TYR    SC2  967   5.987   2.167   4.698
    2TYR    SC3  968   5.761   2.224   4.836
    3TYR     BB  969   6.394   1.804   5.070
    3TYR    SC1  970   6.593   1.807   5.293
    3TYR    SC2  971   6.841   1.879   5.373
    3TYR    SC3  972   6.668   1.771   5.550
    1TYR     BB  973   1.661   1.567   4.163
    1TYR    SC1  974   1.974   1.542   4.145
    1TYR    SC2  975   2.148   1.496   3.944
    1TYR    SC3  976   2.225   1.642   4.158
    2TYR     BB  977   1.593   1.529   3.842
    2TYR    SC1  978   1.300   1.571   3.785
    2TYR    SC2  979   1.102   1.739   3.712
    2TYR    SC3  980   1.050   1.477   3.749
    3TYR     BB  981   1.775   1.420   3.599
    3TYR    SC1  982   1.965   1.638   3.531
    3TYR    SC2  983   2.015   1.863   3.390
    3TYR    SC3  984   2.207   1.756   3.547
    1TYR     BB  985   3.370   2.162   6.149
    1TYR    SC1  986   3.489   1.887   6.080
    1TYR    SC2  987   3.470   1.680   5.907
    1TYR    SC3  988   3.573   1.642   6.154
    2TYR     BB  989   3.596   2.353   5.957
    2TYR    SC1  990   3.398   2.583   5.889
    2TYR    SC2  991   3.265   2.805   5.967
    2TYR    SC3  992   3.178   2.664   5.754
    3TYR     BB  993   3.776   2.182   5.760
    3TYR    SC1  994   3.849   1.877   5.772
    3TYR    SC2  995   3.885   1.618   5.706
    3TYR    SC3  996   3.964   1.708   5.948
    1TYR     BB  997   1.514   6.401   2.815
    1TYR    SC1  998   1.336   6.376   3.052
    1TYR    SC2  999   1.233   6.214   3.242
    1TYR    SC3 1000   1.092   6.428   3.155
    2TYR     BB 1001   1.760   6.547   2.858
    2TYR    SC1 1002   1.950   6.560   2.621
    2TYR    SC2 1003   2.186   6.678   2.563
    2TYR    SC3 1004   2.121   6.443   2.447
    3TYR     BB 1005   1.859   6.627   3.133
    3TYR    SC1 1006   1.635   6.580   3.338
    3TYR    SC2 1007   1.553   6.397   3.519
    3TYR    SC3 1008   1.402   6.615   3.471
    1TYR     BB 1009   5.655   6.620   6.218
    1TYR    SC1 1010   5.941   6.741   6.220
    1TYR    SC2 1011   6.072   6.971   6.271
    1TYR    SC3 1012   6.211   6.746   6.218
    2TYR     BB 1013   5.511   6.877   6.345
    2TYR    SC1 1014   5.221   6.851   6.374
    2TYR    SC2 1015   4.994   6.752   6.480
    2TYR    SC3 1016   5.006   7.011   6.405
    3TYR     BB 1017   5.670   6.970   6.606
    3TYR    SC1 1018   5.707   6.692   6.743
    3TYR    SC2 1019   5.801   6.569   6.964
    3TYR    SC3 1020   5.780   6.433   6.732
    1TYR     BB 1021   4.373   3.464   5.934
    1TYR    SC1 1022   4.433   3.376   5.639
    1TYR    SC2 1023   4.291   3.439   5.418
    1TYR    SC3 1024   4.549   3.364   5.396
    2TYR     BB 1025   4.103   3.652   5.893
    2TYR    SC1 1026   4.012   3.828   6.133
    2TYR    SC2 1027   3.839   4.031   6.174
    2TYR    SC3 1028   3.930   3.887   6.384
    3TYR     BB 1029   3.798   3.571   5.741
    3TYR    SC1 1030   3.873   3.662   5.454
    3TYR    SC2 1031   3.960   3.665   5.198
    3TYR    SC3 1032   4.051   3.849   5.373
    1TYR     BB 1033   0.657   3.561   2.092
    1TYR    SC1 1034   0.673   3.854   1.992
    1TYR    SC2 1035   0.588   4.101   1.923
    1TYR    SC3 1036   0.841   4.064   2.009
    2TYR     BB 1037   0.719   3.611   2.442
    2TYR    SC1 1038   0.456   3.470   2.540
    2TYR    SC2 1039   0.200   3.432   2.615
    2TYR    SC3 1040   0.302   3.291   2.409
    3TYR     BB 1041   0.985   3.734   2.471
    3TYR    SC1 1042   1.070   3.926   2.692
    3TYR    SC2 1043   1.017   4.183   2.759
    3TYR    SC3 1044   1.265   4.081   2.798
    1TYR     BB 1045   6.206   4.072   4.855
    1TYR    SC1 1046   5.988   4.221   5.020
    1TYR    SC2 1047   5.722   4.246   5.061
    1TYR    SC3 1048   5.894   4.285   5.265
    2TYR     BB 1049   5.995   3.808   4.739
    2TYR    SC1 1050   6.042   3.623   4.486
    2TYR    SC2 1051   5.939   3.412   4.352
    2TYR    SC3 1052   6.057   3.613   4.216
    3TYR     BB 1053   5.768   3.759   4.926
    3TYR    SC1 1054   5.480   3.852   4.880
    3TYR    SC2 1055   5.279   3.978   4.751
    3TYR    SC3 1056   5.230   3.750   4.886
    1TYR     BB 1057   3.624   5.579   3.565
    1TYR    SC1 1058   3.847   5.414   3.422
    1TYR    SC2 1059   3.925   5.182   3.309
    1TYR    SC3 1060   3.992   5.417   3.194
    2TYR     BB 1061   3.534   5.797   3.356
    2TYR    SC1 1062   3.231   5.755   3.304
    2TYR    SC2 1063   3.059   5.834   3.111
    2TYR    SC3 1064   3.028   5.594   3.230
    3TYR     BB 1065   3.644   5.741   3.031
    3TYR    SC1 1066   3.457   5.921   2.869
    3TYR    SC2 1067   3.238   6.036   2.761
    3TYR    SC3 1068   3.480   6.153   2.733
    1TYR     BB 1069   7.760   1.742   3.704
    1TYR    SC1 1070   7.548   1.580   3.869
    1TYR    SC2 1071   7.448   1.334   3.917
    1TYR    SC3 1072   7.340   1.549   4.039
    2TYR     BB 1073   7.998   1.815   3.932
    2TYR    SC1 1074   0.174   2.052   3.828
    2TYR    SC2 1075   0.188   2.314   3.891
    2TYR    SC3 1076   0.392   2.196   3.760
    3TYR     BB 1077   7.853   1.919   4.201
    3TYR    SC1 1078   7.984   1.849   4.470
    3TYR    SC2 1079   0.191   1.819   4.640
    3TYR    SC3 1080   7.958   1.692   4.688
    1TYR     BB 1081   2.089   1.148   5.431
    1TYR    SC1 1082   1.888   1.387   5.399
    1TYR    SC2 1083   1.819   1.645   5.439
    1TYR    SC3 1084   1.633   1.450   5.463
    2TYR     BB 1085   2.188   1.076   5.151
    2TYR    SC1 1086   2.365   0.821   5.134
    2TYR    SC2 1087   2.449   0.621   4.973
    2TYR    SC3 1088   2.555   0.650   5.220
    3TYR     BB 1089   2.195   1.286   4.956
    3TYR    SC1 1090   1.968   1.406   4.805
    3TYR    SC2 1091   1.902   1.582   4.611
    3TYR    SC3 1092   1.730   1.532   4.813
    1TYR     BB 1093   0.070   2.053   2.416
    1TYR    SC1 1094   7.908   1.794   2.458
    1TYR    SC2 1095   7.966   1.565   2.589
    1TYR    SC3 1096   7.709   1.645   2.563
    2TYR     BB 1097   0.163   2.089   2.743
    2TYR    SC1 1098   0.462   2.004   2.748
    2TYR    SC2 1099   0.693   2.120   2.826
    2TYR    SC3 1100   0.696   1.875   2.712
    3TYR     BB 1101   0.004   1.934   2.958
    3TYR    SC1 1102   7.726   1.810   3.007
    3TYR    SC2 1103   7.543   1.769   3.202
    3TYR    SC3 1104   7.466   1.771   2.943
    1TYR     BB 1105   5.262   2.090   3.045
    1TYR    SC1 1106   5.273   2.120   2.734
    1TYR    SC2 1107   5.403   2.015   2.522
    1TYR    SC3 1108   5.138   2.063   2.507
    2TYR     BB 1109   5.076   1.783   3.004
    2TYR    SC1 1110   5.209   1.607   3.221
    2TYR    SC2 1111   5.318   1.382   3.323
    2TYR    SC3 1112   5.460   1.612   3.322
    3TYR     BB 1113   5.146   1.575   2.754
    3TYR    SC1 1114   5.139   1.614   2.465
    3TYR    SC2 1115   5.295   1.683   2.255
    3TYR    SC3 1116   5.026   1.679   2.229
    1TYR     BB 1117   2.183   7.927   7.321
    1TYR    SC1 1118   2.114   7.742   7.085
    1TYR    SC2 1119   1.967   7.534   6.995
    1TYR    SC3 1120   2.143   7.657   6.831
    2TYR     BB 1121   1.891   7.994   7.457
    2TYR    SC1 1122   1.971   0.139   7.723
    2TYR    SC2 1123   2.082   0.354   7.841
    2TYR    SC3 1124   2.033   0.131   7.985
    3TYR     BB 1125   1.669   7.938   7.206
    3TYR    SC1 1126   1.800   0.079   6.972
    3TYR    SC2 1127   1.817   0.295   6.812
    3TYR    SC3 1128   1.987   0.088   6.778
    1TYR     BB 1129   1.753   0.012   1.893
    1TYR    SC1 1130   1.767   0.336   1.908
    1TYR    SC2 1131   1.638   0.573   1.920
    1TYR    SC3 1132   1.901   0.559   1.980
    2TYR     BB 1133   1.582   7.743   1.704
    2TYR    SC1 1134   1.668   7.462   1.841
    2TYR    SC2 1135   1.873   7.313   1.935
    2TYR    SC3 1136   1.658   7.193   1.826
    3TYR     BB 1137   1.245   7.727   1.770
    3TYR    SC1 1138   1.271   7.762   2.075
    3TYR    SC2 1139   1.269   7.929   2.288
    3TYR    SC3 1140   1.475   7.757   2.252
    1TYR     BB 1141   3.713   6.068   0.907
    1TYR    SC1 1142   3.463   5.949   1.048
    1TYR    SC2 1143   3.233   5.808   1.051
    1TYR    SC3 1144   3.446   5.721   1.192
    2TYR     BB 1145   3.848   5.738   0.840
    2TYR    SC1 1146   4.008   5.826   0.589
    2TYR    SC2 1147   4.100   5.854   0.337
    2TYR    SC3 1148   4.092   6.067   0.502
    3TYR     BB 1149   3.604   5.568   0.713
    3TYR    SC1 1150   3.463   5.364   0.881
    3TYR    SC2 1151   3.313   5.140   0.873
    3TYR    SC3 1152   3.279   5.318   1.073
    1TYR     BB 1153   6.959   5.090   6.915
    1TYR    SC1 1154   7.163   5.320   6.913
    1TYR    SC2 1155   7.287   5.458   7.109
    1TYR    SC3 1156   7.405   5.431   6.867
    2TYR     BB 1157   6.930   5.135   7.325
    2TYR    SC1 1158   6.645   5.035   7.306
    2TYR    SC2 1159   6.414   5.018   7.445
    2TYR    SC3 1160   6.412   5.108   7.191
    3TYR     BB 1161   6.743   5.419   7.582
    3TYR    SC1 1162   6.602   5.250   7.805
    3TYR    SC2 1163   6.531   5.202   0.061
    3TYR    SC3 1164   6.597   4.997   7.899
    1TYR     BB 1165   0.806   7.315   6.643
    1TYR    SC1 1166   0.661   7.543   6.497
    1TYR    SC2 1167   0.657   7.755   6.331
    1TYR    SC3 1168   0.429   7.673   6.449
    2TYR     BB 1169   0.676   7.053   6.500
    2TYR    SC1 1170   0.938   6.928   6.389
    2TYR    SC2 1171   1.052   6.897   6.146
    2TYR    SC3 1172   1.196   6.851   6.369
    3TYR     BB 1173   0.340   7.038   6.482
    3TYR    SC1 1174   0.184   7.297   6.416
    3TYR    SC2 1175   0.065   7.466   6.242
    3TYR    SC3 1176   7.991   7.466   6.502
    1TYR     BB 1177   1.341   5.651   6.384
    1TYR    SC1 1178   1.387   5.655   6.694
    1TYR    SC2 1179   1.428   5.550   6.939
    1TYR    SC3 1180   1.366   5.811   6.913
    2TYR     BB 1181   1.163   5.924   6.343
    2TYR    SC1 1182   0.889   5.800   6.269
    2TYR    SC2 1183   0.736   5.577   6.267
    2TYR    SC3 1184   0.669   5.788   6.112
    3TYR     BB 1185   1.130   6.126   6.589
    3TYR    SC1 1186   0.824   6.097   6.653
    3TYR    SC2 1187   0.585   6.074   6.776
    3TYR    SC3 1188   0.601   6.053   6.508
    1TYR     BB 1189   1.272   4.090   6.666
    1TYR    SC1 1190   1.515   3.953   6.814
    1TYR    SC2 1191   1.722   4.053   6.955
    1TYR    SC3 1192   1.699   3.786   6.920
    2TYR     BB 1193   1.263   4.367   6.875
    2TYR    SC1 1194   0.999   4.514   6.863
    2TYR    SC2 1195   0.747   4.545   6.769
    2TYR    SC3 1196   0.872   4.751   6.890
    3TYR     BB 1197   1.528   4.530   6.901
    3TYR    SC1 1198   1.650   4.455   7.181
    3TYR    SC2 1199   1.838   4.336   7.334
    3TYR    SC3 1200   1.602   4.410   7.443
    4W        W 1201   3.673   5.423   2.105
    5W        W 1202   5.016   7.467   1.914
    6W        W 1203   5.720   0.063   3.652
    7W        W 1204   3.469   7.371   2.636
    8W        W 1205   2.571   3.387   2.891
    9W        W 1206   3.534   0.005   5.043
   10W        W 1207   3.510   6.617   2.906
   11W        W 1208   3.122   3.520   6.532
   12W        W 1209   3.549   3.029   5.586
   13W        W 1210   0.542   6.767   6.107
   14W        W 1211   3.497   7.550   4.778
   15W        W 1212   7.225   3.441   3.816
   16W        W 1213   6.072   6.248   3.383
   17W        W 1214   7.329   3.173   2.122
   18W        W 1215   4.233   7.165   6.626
   19W        W 1216   3.165   5.783   3.809
   20W        W 1217   3.814   5.362   1.233
   21W        W 1218   0.521   3.038   4.187
   22W        W 1219   2.034   6.202   5.142
   23W        W 1220   5.254   2.334   5.487
   24W        W 1221   3.038   0.210   5.080
   25W        W 1222   3.283   2.106   5.643
   26W        W 1223   7.959   6.456   4.077
   27W        W 1224   2.960   0.658   4.824
   28W        W 1225   0.729   7.196   5.249
   29W        W 1226   7.554   1.347   3.432
   30W        W 1227   0.931   4.663   4.216
   31W        W 1228   6.634   4.467   2.298
   32W        W 1229   7.731   6.639   5.937
   33W        W 1230   3.187   2.317   1.464
   34W        W 1231   4.064   0.428   4.320
   35W        W 1232   3.844   5.993   1.395
   36W        W 1233   3.260   3.951   2.686
   37W        W 1234   3.756   3.214   0.576
   38W        W 1235   2.744   6.862   2.536
   39W        W 1236   1.266   7.329   5.329
   40W        W 1237   5.595   0.575   3.714
   41W        W 1238   7.093   6.820   2.571
   42W        W 1239   4.025   4.665   6.799
   43W        W 1240   7.794   2.765   3.978
   44W        W 1241   4.742   6.061   6.102
   45W        W 1242   0.872   2.331   6.096
   46W        W 1243   4.755   1.644   0.017
   47W        W 1244   1.153   5.376   1.988
   48W        W 1245   1.420   3.556   4.012
   49W        W 1246   3.475   0.216   1.442
   50W        W 1247   1.404   1.082   3.658
   51W        W 1248   4.227   7.214   3.076
   52W        W 1249   0.854   1.094   6.796
   53W        W 1250   1.617   7.650   0.523
   54W        W 1251   2.331   7.154   1.295
   55W        W 1252   6.386   3.801   3.896
   56W        W 1253   3.351   3.568   4.474
   57W        W 1254   3.148   3.874   0.418
   58W        W 1255   4.519   0.050   2.403
   59W        W 1256   6.447   6.294   2.990
   60W        W 1257   7.544   0.537   1.299
   61W        W 1258   7.499   3.294   1.320
   62W        W 1259   5.575   5.140   7.137
   63W        W 1260   6.338   4.791   0.403
   64W        W 1261   5.681   5.432   6.746
   65W        W 1262   1.583   1.764   1.341
   66W        W 1263   7.788   0.772   0.706
   67W        W 1264   5.701   2.093   2.133
   68W        W 1265   5.829   5.775   4.121
   69W        W 1266   1.975   2.432   7.112
   70W        W 1267   5.291   2.873   1.638
   71W        W 1268   5.875   7.081   0.928
   72W        W 1269   1.206   4.578   3.049
   73W        W 1270   7.717   7.017   5.099
   74W        W 1271   1.191   0.482   0.858
   75W        W 1272   1.111   1.683   4.231
   76W        W 1273   1.998   0.601   6.467
   77W        W 1274   2.499   5.091   5.932
   78W        W 1275   5.561   6.761   2.980
   79W        W 1276   5.985   5.609   5.466
   80W        W 1277   7.933   3.484   5.650
   81W        W 1278   2.292   3.345   0.383
   82W        W 1279   5.183   5.118   4.505
   83W        W 1280   2.073   0.399   1.045
   84W        W 1281   6.182   4.563   1.314
   85W        W 1282   2.291   2.363   2.503
   86W        W 1283   6.523   0.458   2.481
   87W        W 1284   0.726   4.204   3.709
   88W        W 1285   2.051   4.342   6.478
   89W        W 1286   2.249   5.029   5.111
   90W        W 1287   0.246   5.383   1.851
   91W        W 1288   7.432   3.870   1.371
   92W        W 1289   3.678   4.464   4.848
   93W        W 1290   0.727   3.701   3.558
   94W        W 1291   5.921   6.696   1.270
   95W        W 1292   2.390   4.484   5.652
   96W        W 1293   7.654   0.316   6.339
   97W        W 1294   3.102   4.389   0.417
   98W        W 1295   3.663   0.742   4.489
   99W        W 1296   3.472   4.932   5.016
  100W        W 1297   0.298   3.459   5.997
  101W        W 1298   0.965   3.201   0.755
  102W        W 1299   5.107   7.249   5.633
  103W        W 1300   0.906   0.474   3.096
  104W        W 1301   1.350   7.335   1.448
  105W        W 1302   2.147   0.669   5.586
  106W        W 1303   4.382   2.480   3.950
  107W        W 1304   0.758   0.753   0.783
  108W        W 1305   2.722   7.005   6.730
  109W        W 1306   3.561   4.331   2.885
  110W        W 1307   3.120   4.587   7.656
  111W        W 1308   2.781   4.970   3.746
  112W        W 1309   2.986   4.249   1.684
  113W        W 1310   1.204   5.852   5.082
  114W        W 1311   6.598   3.177   5.051
  115W        W 1312   3.974   5.051   5.142
  116W        W 1313   3.456   0.917   2.091
  117W        W 1314   2.686   2.634   2.265
  118W        W 1315   7.685   5.988   3.743
  119W        W 1316   4.295   7.558   6.310
  120W        W 1317   4.030   3.133   5.778
  121W        W 1318   7.312   5.325   2.350
  122W        W 1319   6.427   7.764   5.748
  123W        W 1320   6.193   6.815   6.725
  124W        W 1321   1.053   5.731   3.761
  125W        W 1322   4.485   5.663   2.465
  126W        W 1323   3.731   6.575   4.583
  127W        W 1324   3.940   3.667   0.747
  128W        W 1325   4.303   1.761   0.923
  129W        W 1326   1.443   2.213   6.008
  130W        W 1327   5.961   6.745   3.300
  131W        W 1328   3.104   4.528   2.971
  132W        W 1329   0.938   5.365   2.446
  133W        W 1330   2.995   1.024   4.459
  134W        W 1331   7.235   5.310   1.323
  135W        W 1332   4.799   2.769   1.635
  136W        W 1333   4.182   3.301   1.016
  137W        W 1334   2.590   7.039   3.688
  138W        W 1335   4.721   7.374   7.071
  139W        W 1336   6.128   5.921   2.994
  140W        W 1337   0.431   4.806   5.880
  141W        W 1338   1.269   4.408   0.942
  142W        W 1339   0.158   1.176   1.226
  143W        W 1340   0.531   4.623   2.025
  144W        W 1341   4.961   5.030   6.138
  145W        W 1342   3.474   7.613   3.620
  146W        W 1343   5.792   5.804   0.722
  147W        W 1344   1.131   0.992   6.353
  148W        W 1345   7.016   1.795   5.916
  149W        W 1346   2.626   4.573   1.039
  150W        W 1347   6.958   1.129   1.839
  151W        W 1348   7.134   5.388   4.684
  152W        W 1349   3.844   7.309   2.243
  153W        W 1350   6.365   3.049   0.470
  154W        W 1351   1.567   5.225   6.519
  155W        W 1352   5.299   0.909   0.456
  156W        W 1353   2.781   6.093   1.774
  157W        W 1354   2.237   5.798   2.791
  158W        W 1355   6.839   7.078   6.769
  159W        W 1356   3.840   1.228   4.193
  160W        W 1357   3.586   3.574   0.229
  161W        W 1358   0.136   6.651   2.944
  162W        W 1359   3.444   3.590   0.743
  163W        W 1360   0.011   0.696   1.177
  164W        W 1361   1.620   6.515   5.257
  165W        W 1362   2.611   6.914   1.666
  166W        W 1363   6.849   5.096   1.076
  167W        W 1364   6.371   2.814   3.081
  168W        W 1365   5.985   1.038   7.432
  169W        W 1366   3.216   4.094   3.207
  170W        W 1367   3.672   0.238   3.708
  171W        W 1368   7.367   5.158   4.112
  172W        W 1369   5.229   1.675   7.842
  173W        W 1370   4.330   3.565   6.425
  174W        W 1371   2.943   5.105   4.481
  175W        W 1372   2.446   3.663   2.092
  176W        W 1373   1.303   1.585   5.105
  177W        W 1374   3.175   6.981   2.814
  178W        W 1375   1.503   6.795   1.505
  179W        W 1376   0.847   2.105   3.531
  180W        W 1377   3.589   4.597   3.851
  181W        W 1378   2.997   1.866   1.292
  182W        W 1379   6.453   4.000   0.946
  183W        W 1380   7.317   4.044   1.850
  184W        W 1381   4.380   0.495   2.152
  185W        W 1382   2.728   3.261   0.690
  186W        W 1383   1.412   2.677   2.435
  187W        W 1384   0.350   2.466   5.094
  188W        W 1385   2.957   6.385   0.555
  189W        W 1386   0.476   2.098   1.901
  190W        W 1387   5.628   5.972   3.002
  191W        W 1388   1.368   0.649   5.170
  192W        W 1389   5.298   7.399   5.156
  193W        W 1390   6.132   7.414   4.845
  194W        W 1391   3.702   4.146   4.128
  195W        W 1392   2.170   4.681   0.839
  196W        W 1393   5.715   6.759   4.594
  197W        W 1394   3.099   2.292   7.556
  198W        W 1395   0.468   4.462   0.636
  199W        W 1396   3.774   2.632   1.709
  200W        W 1397   1.042   3.334   2.761
  201W        W 1398   4.048   6.783   6.294
  202W        W 1399   5.495   6.542   4.165
  203W        W 1400   6.307   1.198   6.067
  204W        W 1401   5.998   0.073   4.092
  205W        W 1402   5.460   7.890   7.020
  206W        W 1403   1.001   6.528   1.829
  207W        W 1404   0.924   4.198   0.624
  208W        W 1405   2.499   6.413   4.828
  209W        W 1406   2.272   2.908   4.202
  210W        W 1407   1.250   7.950   0.759
  211W        W 1408   7.697   7.261   4.649
  212W        W 1409   1.006   3.662   6.703
  213W        W 1410   3.522   0.584   1.076
  214W        W 1411   6.836   1.927   0.293
  215W        W 1412   3.624   1.140   3.728
  216W        W 1413   1.552   4.497   2.068
  217W        W 1414   0.289   1.525   4.233
  218W        W 1415   6.102   6.782   7.736
  219W        W 1416   5.676   2.465   0.304
  220W        W 1417   2.857   6.125   4.556
  221W        W 1418   1.732   5.365   1.663
  222W        W 1419   3.916   4.247   3.674
  223W        W 1420   2.688   2.111   2.208
  224W        W 1421   6.834   2.010   1.161
  225W        W 1422   5.617   3.116   6.550
  226W        W 1423   7.850   1.770   6.262
  227W        W 1424   1.401   4.463   5.215
  228W        W 1425   1.695   4.617   1.146
  229W        W 1426   4.726   5.954   2.790
  230W        W 1427   1.375   2.617   7.991
  231W        W 1428   1.613   3.984   7.953
  232W        W 1429   6.472   3.648   4.826
  233W        W 1430   4.797   0.536   6.066
  234W        W 1431   1.863   2.820   3.917
  235W        W 1432   1.567   4.923   0.346
  236W        W 1433   6.034   1.067   5.634
  237W        W 1434   6.568   4.315   3.101
  238W        W 1435   1.907   4.250   3.390
  239W        W 1436   1.566   3.008   7.686
  240W        W 1437   7.204   7.041   3.022
  241W        W 1438   0.820   0.705   2.505
  242W        W 1439   3.944   4.596   1.143
  243W        W 1440   3.191   4.338   4.207
  244W        W 1441   4.611   6.219   1.379
  245W        W 1442   1.378   1.940   5.494
  246W        W 1443   3.570   0.330   4.191
  247W        W 1444   3.118   7.014   1.748
  248W        W 1445   1.918   4.198   0.983
  249W        W 1446   2.582   3.186   5.381
  250W        W 1447   1.129   4.984   2.736
  251W        W 1448   2.618   1.538   3.782
  252W        W 1449   5.140   7.121   1.514
  253W        W 1450   5.786   3.218   2.886
  254W        W 1451   3.543   6.791   6.309
  255W        W 1452   5.735   4.961   2.983
  256W        W 1453   7.869   5.408   3.042
  257W        W 1454   5.232   1.064   3.688
  258W        W 1455   5.821   4.481   6.554
  259W        W 1456   1.846   5.002   7.921
  260W        W 1457   0.175   0.838   3.722
  261W        W 1458   1.047   4.525   1.902
  262W        W 1459   3.996   5.538   3.926
  263W        W 1460   0.208   5.154   5.221
  264W        W 1461   4.033   5.884   3.449
  265W        W 1462   1.685   4.250   5.727
  266W        W 1463   6.697   7.158   2.881
  267W        W 1464   1.540   5.541   3.856
  268W        W 1465   5.507   2.812   7.448
  269W        W 1466   6.401   5.796   5.265
  270W        W 1467   2.952   4.443   7.171
  271W        W 1468   5.832   6.322   0.003
  272W        W 1469   2.797   4.358   3.346
  273W        W 1470   4.278   0.723   3.699
  274W        W 1471   4.228   0.672   5.243
  275W        W 1472   3.683   3.784   1.215
  276W        W 1473   1.542   5.410   0.565
  277W        W 1474   0.276   2.504   3.381
  278W        W 1475   2.647   2.508   3.325
  279W        W 1476   4.015   7.747   0.476
  280W        W 1477   5.724   5.980   5.690
  281W        W 1478   1.977   1.571   1.026
  282W        W 1479   2.147   1.908   6.965
  283W        W 1480   0.210   5.022   2.223
  284W        W 1481   6.768   5.410   3.295
  285W        W 1482   1.062   4.992   1.669
  286W        W 1483   0.651   5.147   1.416
  287W        W 1484   2.627   4.874   5.413
  288W        W 1485   4.696   7.064   4.687
  289W        W 1486   7.474   4.095   2.500
  290W        W 1487   4.736   0.542   6.826
  291W        W 1488   2.678   2.014   3.581
  292W        W 1489   0.392   3.982   3.333
  293W        W 1490   3.226   3.790   1.679
  294W        W 1491   4.523   6.639   1.059
  295W        W 1492   4.829   2.728   0.832
  296W        W 1493   6.926   3.976   1.196
  297W        W 1494   2.475   2.377   6.172
  298W        W 1495   5.955   0.625   6.564
  299W        W 1496   0.857   4.047   7.000
  300W        W 1497   0.479   6.948   4.829
  301W        W 1498   5.610   6.808   7.933
  302W        W 1499   6.899   7.055   4.759
  303W        W 1500   4.493   4.017   6.599
  304W        W 1501   5.449   3.806   2.331
  305W        W 1502   6.946   4.540   3.373
  306W        W 1503   4.960   5.274   1.311
  307W        W 1504   7.485   0.987   1.057
  308W        W 1505   1.683   1.263   2.497
  309W        W 1506   2.116   5.305   2.860
  310W        W 1507   3.345   0.289   4.646
  311W        W 1508   4.215   0.683   3.166
  312W        W 1509   6.677   7.460   5.039
  313W        W 1510   2.315   6.805   3.027
  314W        W 1511   6.501   1.218   7.489
  315W        W 1512   1.210   4.284   7.951
  316W        W 1513   5.406   4.839   4.128
  317W        W 1514   0.646   2.323   6.567
  318W        W 1515   2.968   0.722   0.386
  319W        W 1516   7.114   5.386   5.669
  320W        W 1517   3.075   6.172   6.987
  321W        W 1518   7.178   3.570   1.002
  322W        W 1519   4.770   1.280   6.725
  323W        W 1520   6.788   3.341   0.694
  324W        W 1521   6.892   6.287   1.319
  325W        W 1522   1.087   4.907   2.228
  326W        W 1523   4.785   2.230   2.878
  327W        W 1524   3.452   5.774   2.375
  328W        W 1525   6.640   4.301   6.250
  329W        W 1526   1.056   2.297   5.630
  330W        W 1527   1.253   4.140   2.282
  331W        W 1528   2.409   1.611   4.634
  332W        W 1529   5.988   1.111   6.437
  333W        W 1530   1.587   6.378   2.308
  334W        W 1531   0.670   1.783   1.126
  335W        W 1532   2.525   0.710   6.533
  336W        W 1533   3.435   1.705   2.683
  337W        W 1534   6.228   0.562   5.401
  338W        W 1535   2.680   3.765   6.707
  339W        W 1536   7.042   3.547   1.488
  340W        W 1537   6.571   7.521   6.788
  341W        W 1538   5.758   6.473   7.508
  342W        W 1539   1.666   0.762   2.473
  343W        W 1540   7.948   3.164   1.025
  344W        W 1541   2.492   5.013   1.217
  345W        W 1542   4.910   5.717   7.414
  346W        W 1543   1.302   4.553   1.471
  347W        W 1544   2.784   5.688   6.559
  348W        W 1545   6.226   1.765   2.225
  349W        W 1546   6.135   5.389   0.888
  350W        W 1547   4.742   5.065   6.812
  351W        W 1548   5.954   3.887   0.802
  352W        W 1549   4.508   2.697   0.421
  353W        W 1550   4.639   1.365   2.170
  354W        W 1551   6.954   2.799   5.027
  355W        W 1552   4.209   5.274   5.632
  356W        W 1553   4.299   3.962   1.926
  357W        W 1554   2.887   0.242   5.572
  358W        W 1555   6.191   2.399   2.821
  359W        W 1556   2.928   5.845   4.980
  360W        W 1557   2.266   4.328   0.141
  361W        W 1558   2.275   3.256   0.895
  362W        W 1559   3.201   3.725   4.927
  363W        W 1560   7.817   4.484   5.586
  364W        W 1561   5.972   6.150   7.159
  365W        W 1562   7.771   5.548   1.733
  366W        W 1563   5.045   3.629   2.572
  367W        W 1564   7.645   4.109   6.508
  368W        W 1565   4.421   4.679   3.324
  369W        W 1566   4.811   7.962   1.541
  370W        W 1567   1.055   1.893   3.103
  371W        W 1568   4.301   0.544   6.565
  372W        W 1569   0.509   6.038   1.323
  373W        W 1570   1.974   5.018   1.254
  374W        W 1571   0.511   0.735   2.906
  375W        W 1572   7.847   1.278   0.835
  376W        W 1573   5.611   7.439   6.786
  377W        W 1574   0.796   3.132   2.330
  378W        W 1575   1.964   4.573   3.828
  379W        W 1576   7.189   6.503   0.911
  380W        W 1577   3.769   5.582   4.387
  381W        W 1578   7.053   1.615   1.981
  382W        W 1579   6.221   3.863   2.423
  383W        W 1580   3.434   1.468   3.385
  384W        W 1581   0.270   3.165   1.435
  385W        W 1582   0.003   1.455   1.614
  386W        W 1583   0.871   0.798   5.299
  387W        W 1584   4.770   6.944   7.354
  388W        W 1585   5.181   4.761   2.142
  389W        W 1586   1.599   4.666   3.437
  390W        W 1587   5.447   7.149   1.928
  391W        W 1588   1.826   2.925   3.095
  392W        W 1589   0.236   2.318   4.617
  393W        W 1590   2.563   4.067   7.100
  394W        W 1591   0.798   6.579   3.527
  395W        W 1592   5.924   5.840   6.124
  396W        W 1593   1.517   3.937   4.351
  397W        W 1594   2.413   7.179   5.684
  398W        W 1595   1.207   5.814   7.398
  399W        W 1596   2.893   6.621   3.590
  400W        W 1597   2.730   3.423   7.804
  401W        W 1598   6.056   2.880   7.428
  402W        W 1599   4.544   0.821   1.378
  403W        W 1600   5.835   1.961   7.144
  404W        W 1601   0.040   5.666   3.943
  405W        W 1602   2.208   0.824   0.749
  406W        W 1603   3.381   1.925   0.508
  407W        W 1604   6.393   5.002   5.714
  408W        W 1605   0.878   2.110   4.038
  409W        W 1606   2.636   1.867   6.793
  410W        W 1607   1.040   4.048   4.520
  411W        W 1608   5.912   1.716   3.479
  412W        W 1609   4.084   3.119   7.127
  413W        W 1610   0.748   6.503   5.720
  414W        W 1611   3.346   6.265   3.234
  415W        W 1612   7.162   7.881   6.238
  416W        W 1613   7.219   1.184   6.443
  417W        W 1614   0.663   2.258   1.395
  418W        W 1615   6.513   4.956   6.708
  419W        W 1616   4.209   6.880   3.452
  420W        W 1617   1.879   4.669   5.965
  421W        W 1618   5.456   2.971   5.497
  422W        W 1619   2.329   4.838   7.889
  423W        W 1620   6.397   6.434   5.021
  424W        W 1621   0.872   2.222   0.917
  425W        W 1622   2.556   3.450   6.328
  426W        W 1623   0.227   4.350   1.085
  427W        W 1624   5.791   4.548   3.917
  428W        W 1625   4.555   6.275   4.262
  429W        W 1626   4.066   6.321   2.165
  430W        W 1627   4.986   4.037   5.725
  431W        W 1628   6.184   1.670   3.076
  432W        W 1629   1.158   0.685   6.787
  433W        W 1630   2.733   4.535   0.014
  434W        W 1631   5.635   5.282   0.888
  435W        W 1632   2.745   0.625   1.617
  436W        W 1633   7.089   2.469   1.042
  437W        W 1634   1.746   0.134   6.328
  438W        W 1635   4.821   7.071   1.113
  439W        W 1636   1.728   5.651   5.700
  440W        W 1637   3.308   4.359   6.816
  441W        W 1638   5.835   3.297   5.539
  442W        W 1639   5.135   3.569   3.878
  443W        W 1640   2.081   1.962   1.361
  444W        W 1641   7.830   3.496   3.179
  445W        W 1642   0.595   1.055   6.359
  446W        W 1643   3.380   1.921   2.231
  447W        W 1644   1.595   2.502   7.502
  448W        W 1645   6.601   6.225   5.428
  449W        W 1646   4.243   1.482   3.117
  450W        W 1647   6.793   5.549   2.563
  451W        W 1648   3.275   3.853   4.069
  452W        W 1649   7.773   7.446   5.833
  453W        W 1650   1.806   3.214   5.481
  454W        W 1651   6.467   7.872   3.223
  455W        W 1652   6.749   2.215   5.771
  456W        W 1653   2.651   3.131   3.954
  457W        W 1654   2.517   3.601   5.096
  458W        W 1655   6.568   2.800   5.405
  459W        W 1656   1.476   3.428   0.601
  460W        W 1657   1.368   1.537   2.210
  461W        W 1658   7.457   1.711   4.521
  462W        W 1659   1.035   4.479   4.813
  463W        W 1660   0.325   3.362   3.090
  464W        W 1661   4.228   7.157   5.982
  465W        W 1662   4.123   4.154   5.774
  466W        W 1663   3.795   2.386   7.802
  467W        W 1664   1.245   5.762   2.451
  468W        W 1665   3.140   7.696   5.207
  469W        W 1666   4.157   4.606   4.982
  470W        W 1667   6.415   7.157   2.063
  471W        W 1668   4.658   4.051   2.608
  472W        W 1669   6.979   7.936   5.751
  473W        W 1670   5.105   2.310   0.965
  474W        W 1671   0.912   4.193   1.519
  475W        W 1672   6.313   6.513   0.132
  476W        W 1673   6.458   3.943   3.411
  477W        W 1674   2.243   2.961   5.663
  478W        W 1675   1.810   2.292   3.223
  479W        W 1676   2.342   5.160   7.070
  480W        W 1677   2.150   2.480   5.784
  481W        W 1678   6.124   3.507   5.169
  482W        W 1679   5.666   2.409   2.802
  483W        W 1680   6.468   2.313   4.034
  484W        W 1681   2.822   7.417   3.961
  485W        W 1682   4.250   0.907   4.175
  486W        W 1683   3.761   3.480   4.762
  487W        W 1684   0.215   6.917   5.268
  488W        W 1685   0.888   5.334   0.047
  489W        W 1686   7.320   1.981   3.642
  490W        W 1687   3.429   3.519   2.065
  491W        W 1688   3.051   0.689   5.353
  492W        W 1689   1.976   2.039   4.437
  493W        W 1690   1.364   4.883   0.823
  494W        W 1691   6.982   7.973   3.261
  495W        W 1692   0.457   3.727   6.776
  496W        W 1693   7.389   4.894   2.671
  497W        W 1694   1.186   2.084   6.885
  498W        W 1695   4.967   4.554   4.079
  499W        W 1696   3.911   3.718   7.788
  500W        W 1697   4.917   2.982   6.608
  501W        W 1698   1.268   3.211   4.807
  502W        W 1699   6.249   7.363   6.016
  503W        W 1700   4.455   3.665   0.750
  504W        W 1701   6.790   7.949   6.590
  505W        W 1702   0.164   6.419   1.271
  506W        W 1703   7.937   7.882   5.611
  507W        W 1704   5.870   5.866   5.055
  508W        W 1705   0.936   0.954   4.413
  509W        W 1706   5.012   7.923   0.651
  510W        W 1707   6.239   6.025   0.049
  511W        W 1708   2.789   3.744   2.501
  512W        W 1709   2.947   1.117   5.068
  513W        W 1710   4.637   2.509   1.238
  514W        W 1711   5.890   1.309   1.739
  515W        W 1712   0.847   5.650   1.203
  516W        W 1713   4.107   0.703   1.582
  517W        W 1714   5.155   4.423   7.260
  518W        W 1715   1.411   4.809   6.091
  519W        W 1716   1.351   5.928   5.545
  520W        W 1717   6.757   5.396   1.512
  521W        W 1718   1.954   6.452   6.672
  522W        W 1719   7.796   5.192   2.539
  523W        W 1720   0.136   3.823   2.928
  524W        W 1721   0.240   3.591   1.117
  525W        W 1722   2.192   6.121   7.007
  526W        W 1723   1.042   3.701   0.633
  527W        W 1724   3.047   1.023   5.736
  528W        W 1725   5.580   3.756   1.317
  529W        W 1726   0.172   4.134   6.484
  530W        W 1727   3.401   7.220   6.078
  531W        W 1728   7.344   6.211   6.750
  532W        W 1729   6.688   5.512   7.085
  533W        W 1730   7.735   2.005   6.696
  534W        W 1731   5.004   5.468   5.313
  535W        W 1732   7.929   2.468   3.019
  536W        W 1733   3.323   4.048   0.921
  537W        W 1734   3.147   5.307   3.613
  538W        W 1735   0.118   4.304   2.097
  539W        W 1736   0.292   4.299   5.736
  540W        W 1737   2.553   1.935   2.701
  541W        W 1738   7.475   5.738   2.129
  542W        W 1739   5.610   0.794   0.851
  543W        W 1740   0.229   1.896   6.598
  544W        W 1741   5.045   3.619   1.488
  545W        W 1742   2.553   7.086   4.286
  546W        W 1743   1.796   2.895   5.892
  547W        W 1744   2.194   1.185   4.396
  548W        W 1745   4.578   0.943   2.907
  549W        W 1746   4.190   2.346   0.681
  550W        W 1747   5.170   5.278   6.602
  551W        W 1748   0.347   1.034   4.159
  552W        W 1749   4.562   5.723   5.303
  553W        W 1750   2.670   0.683   5.717
  554W        W 1751   0.181   5.585   6.134
  555W        W 1752   4.325   7.323   0.341
  556W        W 1753   0.338   5.491   4.327
  557W        W 1754   2.330   1.053   5.860
  558W        W 1755   2.527   6.945   4.800
  559W        W 1756   7.190   1.201   1.401
  560W        W 1757   1.845   5.335   7.139
  561W        W 1758   4.910   5.454   2.704
  562W        W 1759   7.188   3.069   1.651
  563W        W 1760   2.388   4.542   5.090
  564W        W 1761   3.640   7.407   1.669
  565W        W 1762   4.483   4.110   7.119
  566W        W 1763   1.359   6.996   4.481
  567W        W 1764   3.431   4.726   6.213
  568W        W 1765   5.606   1.502   1.349
  569W        W 1766   3.113   1.200   6.594
  570W        W 1767   6.762   4.513   4.912
  571W        W 1768   3.450   3.748   6.095
  572W        W 1769   5.079   0.957   6.042
  573W        W 1770   4.827   6.688   1.461
  574W        W 1771   2.298   3.525   3.879
  575W        W 1772   5.223   7.047   6.856
  576W        W 1773   1.625   2.300   4.735
  577W        W 1774   5.119   6.400   6.165
  578W        W 1775   6.892   1.004   7.213
  579W        W 1776   5.938   1.148   6.936
  580W        W 1777   6.316   0.385   4.927
  581W        W 1778   4.659   3.069   4.582
  582W        W 1779   7.388   6.839   4.714
  583W        W 1780   4.888   1.985   1.290
  584W        W 1781   6.724   4.525   4.393
  585W        W 1782   2.409   7.345   6.518
  586W        W 1783   2.944   2.703   3.887
  587W        W 1784   7.754   1.000   1.489
  588W        W 1785   6.054   2.982   0.869
  589W        W 1786   5.059   4.919   1.659
  590W        W 1787   7.605   3.952   2.994
  591W        W 1788   2.279   0.475   6.893
  592W        W 1789   4.899   7.957   2.048
  593W        W 1790   3.852   0.395   4.811
  594W        W 1791   3.968   0.954   6.557
  595W        W 1792   1.037   5.289   6.699
  596W        W 1793   6.152   3.033   7.946
  597W        W 1794   5.512   1.009   7.215
  598W        W 1795   4.890   5.155   4.922
  599W        W 1796   1.597   6.947   5.550
  600W        W 1797   3.610   3.950   7.051
  601W        W 1798   1.468   5.028   1.346
  602W        W 1799   5.966   6.308   4.169
  603W        W 1800   6.641   6.642   4.612
  604W        W 1801   7.010   0.928   0.325
  605W        W 1802   7.478   3.584   6.314
  606W        W 1803   5.440   5.514   3.239
  607W        W 1804   2.977   3.925   4.490
  608W        W 1805   3.386   5.083   5.822
  609W        W 1806   7.963   2.266   6.254
  610W        W 1807   3.874   5.090   5.946
  611W        W 1808   7.260   0.857   4.027
  612W        W 1809   0.823   3.315   3.211
  613W        W 1810   1.054   2.997   7.855
  614W        W 1811   2.441   6.256   4.310
  615W        W 1812   6.401   1.360   6.587
  616W        W 1813   4.768   4.976   4.258
  617W        W 1814   7.782   7.478   5.306
  618W        W 1815   6.615   5.450   5.594
  619W        W 1816   3.181   7.871   6.465
  620W        W 1817   3.289   1.119   1.119
  621W        W 1818   6.884   7.323   3.844
  622W        W 1819   5.484   5.090   1.894
  623W        W 1820   3.634   0.616   1.713
  624W        W 1821   3.720   6.222   4.982
  625W        W 1822   2.643   1.324   4.248
  626W        W 1823   7.794   0.940   4.141
  627W        W 1824   0.788   6.869   4.395
  628W        W 1825   0.024   5.722   3.435
  629W        W 1826   2.236   3.509   7.902
  630W        W 1827   4.481   7.459   1.048
  631W        W 1828   3.271   6.652   4.335
  632W        W 1829   5.077   5.953   6.481
  633W        W 1830   7.128   4.349   1.465
  634W        W 1831   6.963   6.251   5.791
  635W        W 1832   5.288   1.416   6.052
  636W        W 1833   1.751   5.064   3.749
  637W        W 1834   1.903   3.145   1.556
  638W        W 1835   1.171   3.495   6.142
  639W        W 1836   5.235   5.335   2.313
  640W        W 1837   4.433   2.736   2.568
  641W        W 1838   1.758   2.696   0.322
  642W        W 1839   7.579   6.398   2.059
  643W        W 1840   4.543   6.773   3.074
  644W        W 1841   4.798   3.814   4.648
  645W        W 1842   3.025   5.007   6.156
  646W        W 1843   4.506   6.594   4.715
  647W        W 1844   3.181   5.383   4.817
  648W        W 1845   3.091   2.721   2.576
  649W        W 1846   3.146   0.292   2.381
  650W        W 1847   6.443   0.963   2.520
  651W        W 1848   2.345   5.570   6.273
  652W        W 1849   3.851   0.805   7.068
  653W        W 1850   5.533   1.310   2.535
  654W        W 1851   4.346   4.801   2.381
  655W        W 1852   5.554   5.519   3.751
  656W        W 1853   3.725   2.978   4.825
  657W        W 1854   3.239   3.143   0.882
  658W        W 1855   7.379   2.566   4.800
  659W        W 1856   5.534   3.411   4.652
  660W        W 1857   3.312   5.986   0.571
  661W        W 1858   3.993   0.490   5.770
  662W        W 1859   3.718   4.357   6.521
  663W        W 1860   6.684   4.204   4.002
  664W        W 1861   0.189   3.372   1.910
  665W        W 1862   4.419   2.475   5.167
  666W        W 1863   2.964   3.974   6.340
  667W        W 1864   6.518   0.949   2.036
  668W        W 1865   3.758   1.020   2.481
  669W        W 1866   4.948   0.998   3.277
  670W        W 1867   5.575   6.372   3.310
  671W        W 1868   4.505   5.032   7.565
  672W        W 1869   1.060   5.345   7.211
  673W        W 1870   7.102   2.968   2.879
  674W        W 1871   5.076   6.277   4.207
  675W        W 1872   7.181   5.994   0.785
  676W        W 1873   7.471   3.197   0.797
  677W        W 1874   7.660   0.903   3.643
  678W        W 1875   0.271   2.167   1.073
  679W        W 1876   3.017   4.483   2.116
  680W        W 1877   6.965   2.948   3.737
  681W        W 1878   6.046   4.921   6.477
  682W        W 1879   7.942   5.565   2.228
  683W        W 1880   4.995   5.728   3.146
  684W        W 1881   4.758   2.088   2.157
  685W        W 1882   2.944   7.371   6.479
  686W        W 1883   0.629   4.956   0.345
  687W        W 1884   3.431   0.525   0.058
  688W        W 1885   6.054   6.248   5.341
  689W        W 1886   1.243   3.507   1.067
  690W        W 1887   3.561   1.235   2.911
  691W        W 1888   1.217   3.698   2.031
  692W        W 1889   1.215   5.337   0.993
  693W        W 1890   0.093   1.022   6.366
  694W        W 1891   5.110   0.306   0.264
  695W        W 1892   7.285   7.318   4.984
  696W        W 1893   5.141   6.705   1.857
  697W        W 1894   4.695   7.012   2.646
  698W        W 1895   2.729   2.383   6.680
  699W        W 1896   0.488   3.990   1.348
  700W        W 1897   5.722   5.614   4.632
  701W        W 1898   2.711   1.409   5.844
  702W        W 1899   6.307   6.152   2.126
  703W        W 1900   4.443   2.005   4.146
  704W        W 1901   0.505   0.804   1.227
  705W        W 1902   5.502   5.590   1.988
  706W        W 1903   0.551   2.852   5.332
  707W        W 1904   3.061   1.984   1.823
  708W        W 1905   7.490   3.265   5.485
  709W        W 1906   0.840   2.667   2.545
  710W        W 1907   5.612   2.306   6.845
  711W        W 1908   3.759   6.933   1.441
  712W        W 1909   6.312   3.124   5.694
  713W        W 1910   3.734   4.434   7.125
  714W        W 1911   5.337   4.029   2.788
  715W        W 1912   2.520   5.175   2.029
  716W        W 1913   5.962   7.556   3.931
  717W        W 1914   3.316   6.103   1.516
  718W        W 1915   4.929   0.326   7.232
  719W        W 1916   4.002   7.706   1.887
  720W        W 1917   4.928   2.415   3.327
  721W        W 1918   4.995   7.549   1.036
  722W        W 1919   3.411   3.614   3.058
  723W        W 1920   0.918   1.477   2.451
  724W        W 1921   3.440   6.509   7.174
  725W        W 1922   1.366   1.480   3.292
  726W        W 1923   7.556   1.770   2.018
  727W        W 1924   2.266   3.842   0.297
  728W        W 1925   2.603   2.806   6.418
  729W        W 1926   4.203   0.031   6.528
  730W        W 1927   7.240   1.587   5.500
  731W        W 1928   7.295   2.557   4.296
  732W        W 1929   3.087   1.424   1.512
  733W        W 1930   2.883   1.929   0.784
  734W        W 1931   3.114   0.071   5.986
  735W        W 1932   5.971   1.624   4.356
  736W        W 1933   6.886   5.829   6.380
  737W        W 1934   1.000   6.979   4.863
  738W        W 1935   4.206   4.660   5.925
  739W        W 1936   3.566   7.995   1.921
  740W        W 1937   3.244   6.111   4.231
  741W        W 1938   1.252   5.468   1.482
  742W        W 1939   1.169   6.053   4.180
  743W        W 1940   6.102   5.053   7.846
  744W        W 1941   2.670   5.888   7.157
  745W        W 1942   3.491   1.714   5.418
  746W        W 1943   3.396   4.162   3.694
  747W        W 1944   3.240   1.216   2.501
  748W        W 1945   4.777   0.874   2.173
  749W        W 1946   0.118   4.754   3.886
  750W        W 1947   6.421   1.892   6.574
  751W        W 1948   6.962   0.685   2.662
  752W        W 1949   6.731   0.278   2.946
  753W        W 1950   1.718   6.934   6.787
  754W        W 1951   2.268   5.915   3.300
  755W        W 1952   5.381   1.967   1.453
  756W        W 1953   1.364   1.180   6.777
  757W        W 1954   6.267   7.640   5.269
  758W        W 1955   3.850   6.215   3.074
  759W        W 1956   3.997   0.550   2.557
  760W        W 1957   7.619   7.907   6.017
  761W        W 1958   5.710   4.014   6.764
  762W        W 1959   4.599   0.996   5.924
  763W        W 1960   6.288   6.317   6.768
  764W        W 1961   4.288   2.587   1.638
  765W        W 1962   4.155   4.874   1.901
  766W        W 1963   3.899   4.365   5.370
  767W        W 1964   4.371   4.318   2.281
  768W        W 1965   6.698   0.740   1.615
  769W        W 1966   5.887   7.794   6.510
  770W        W 1967   5.053   0.092   6.774
  771W        W 1968   7.360   2.053   4.146
  772W        W 1969   1.307   2.450   0.512
  773W        W 1970   6.110   7.331   6.668
  774W        W 1971   5.776   6.309   4.852
  775W        W 1972   3.622   6.908   2.509
  776W        W 1973   0.017   5.926   1.468
  777W        W 1974   1.501   2.729   3.440
  778W        W 1975   6.467   2.683   4.933
  779W        W 1976   6.972   5.778   1.742
  780W        W 1977   6.270   2.105   5.623
  781W        W 1978   6.883   6.562   5.054
  782W        W 1979   1.872   5.746   6.839
  783W        W 1980   0.454   4.803   1.097
  784W        W 1981   1.795   2.205   5.536
  785W        W 1982   7.276   6.667   5.715
  786W        W 1983   2.693   6.728   5.598
  787W        W 1984   1.410   4.201   3.267
  788W        W 1985   3.633   6.445   1.259
  789W        W 1986   5.851   3.981   2.101
  790W        W 1987   4.063   6.703   2.994
  791W        W 1988   2.338   5.448   2.424
  792W        W 1989   6.572   5.901   1.379
  793W        W 1990   3.498   7.033   4.612
  794W        W 1991   5.898   4.158   1.245
  795W        W 1992   6.782   7.723   2.845
  796W        W 1993   7.460   2.145   6.273
  797W        W 1994   4.103   1.298   2.195
  798W        W 1995   2.851   3.235   1.207
  799W        W 1996   7.475   4.112   6.039
  800W        W 1997   3.344   1.622   0.966
  801W        W 1998   4.815   1.638   0.891
  802W        W 1999   3.914   1.419   0.997
  803W        W 2000   3.956   1.224   6.056
  804W        W 2001   6.827   3.440   2.984
  805W        W 2002   2.551   5.723   5.811
  806W        W 2003   5.577   4.667   1.603
  807W        W 2004   0.399   3.303   5.525
  808W        W 2005   4.938   6.646   4.962
  809W        W 2006   0.611   3.190   3.674
  810W        W 2007   3.238   0.549   7.553
  811W        W 2008   0.963   3.256   4.085
  812W        W 2009   3.433   0.541   5.067
  813W        W 2010   2.555   6.040   6.206
  814W        W 2011   2.755   3.228   6.732
  815W        W 2012   2.655   7.793   6.494
  816W        W 2013   7.418   7.804   5.486
  817W        W 2014   5.556   6.145   6.314
  818W        W 2015   6.758   2.067   4.376
  819W        W 2016   1.721   4.218   2.494
  820W        W 2017   1.710   2.375   3.729
  821W        W 2018   3.492   5.211   7.462
  822W        W 2019   6.076   2.482   1.147
  823W        W 2020   6.166   2.955   6.664
  824W        W 2021   6.689   1.940   1.788
  825W        W 2022   4.621   7.798   6.757
  826W        W 2023   6.131   6.943   1.667
  827W        W 2024   1.512   2.955   1.894
  828W        W 2025   5.294   1.813   0.973
  829W        W 2026   6.237   2.543   0.685
  830W        W 2027   3.695   0.998   0.820
  831W        W 2028   1.803   1.127   0.825
  832W        W 2029   0.060   3.074   3.446
  833W        W 2030   4.868   3.541   5.840
  834W        W 2031   6.996   2.848   2.382
  835W        W 2032   6.907   3.430   4.680
  836W        W 2033   1.305   0.749   3.278
  837W        W 2034   2.247   1.244   3.436
  838W        W 2035   2.953   3.672   0.842
  839W        W 2036   5.066   2.078   0.118
  840W        W 2037   0.526   2.908   3.261
  841W        W 2038   1.696   4.916   7.425
  842W        W 2039   4.501   3.933   6.097
  843W        W 2040   5.371   0.450   6.937
  844W        W 2041   6.686   3.651   2.483
  845W        W 2042   0.315   5.117   6.275
  846W        W 2043   4.140   7.863   0.976
  847W        W 2044   0.680   3.554   6.337
  848W        W 2045   2.134   7.658   7.788
  849W        W 2046   6.911   6.179   2.820
  850W        W 2047   3.640   1.989   6.565
  851W        W 2048   5.390   4.636   6.294
  852W        W 2049   1.151   3.345   7.502
  853W        W 2050   1.278   0.231   1.840
  854W        W 2051   4.485   0.574   5.669
  855W        W 2052   5.453   5.179   5.357
  856W        W 2053   5.373   2.137   0.560
  857W        W 2054   7.342   0.898   2.213
  858W        W 2055   7.683   1.301   2.945
  859W        W 2056   6.289   4.287   2.684
  860W        W 2057   3.352   7.216   4.130
  861W        W 2058   2.614   7.517   6.949
  862W        W 2059   1.396   0.376   7.130
  863W        W 2060   7.953   3.322   6.334
  864W        W 2061   3.055   6.897   6.284
  865W        W 2062   3.316   3.616   5.608
  866W        W 2063   4.472   5.470   4.877
  867W        W 2064   5.947   4.920   0.709
  868W        W 2065   3.264   5.640   4.386
  869W        W 2066   6.631   6.669   6.477
  870W        W 2067   4.379   3.154   2.915
  871W        W 2068   2.875   6.376   4.050
  872W        W 2069   2.757   7.114   7.232
  873W        W 2070   0.439   0.542   5.257
  874W        W 2071   3.972   2.940   1.367
  875W        W 2072   3.881   2.386   3.348
  876W        W 2073   1.590   0.225   1.015
  877W        W 2074   6.382   6.904   1.210
  878W        W 2075   4.952   3.121   1.307
  879W        W 2076   7.781   6.996   6.355
  880W        W 2077   4.910   5.226   7.263
  881W        W 2078   2.951   6.894   4.023
  882W        W 2079   6.660   1.756   0.749
  883W        W 2080   1.148   7.208   2.666
  884W        W 2081   6.293   6.696   5.463
  885W        W 2082   5.369   4.421   6.769
  886W        W 2083   6.888   6.363   3.316
  887W        W 2084   5.498   4.175   5.768
  888W        W 2085   6.818   1.535   1.514
  889W        W 2086   0.337   3.813   5.576
  890W        W 2087   3.862   3.554   7.263
  891W        W 2088   6.309   7.985   6.775
  892W        W 2089   5.211   7.041   4.791
  893W        W 2090   0.629   4.688   5.066
  894W        W 2091   0.273   4.680   5.412
  895W        W 2092   4.305   2.487   7.664
  896W        W 2093   2.881   5.383   0.210
  897W        W 2094   3.136   2.762   3.409
  898W        W 2095   3.617   0.435   2.203
  899W        W 2096   6.857   1.824   4.851
  900W        W 2097   5.845   5.798   3.438
  901W        W 2098   6.515   3.249   3.894
  902W        W 2099   5.576   2.029   4.373
  903W        W 2100   7.815   5.543   6.510
  904W        W 2101   3.973   3.597   3.148
  905W        W 2102   6.369   2.760   1.446
  906W        W 2103   7.422   4.924   7.081
  907W        W 2104   1.230   0.424   1.368
  908W        W 2105   6.835   3.976   1.701
  909W        W 2106   2.449   2.663   3.786
  910W        W 2107   1.270   2.304   3.308
  911W        W 2108   7.033   5.868   3.330
  912W        W 2109   0.744   3.581   1.100
  913W        W 2110   4.355   0.346   0.942
  914W        W 2111   3.798   0.874   5.081
  915W        W 2112   4.053   5.867   7.191
  916W        W 2113   4.745   7.443   1.475
  917W        W 2114   7.288   4.792   1.200
  918W        W 2115   6.453   5.977   2.584
  919W        W 2116   3.220   4.709   4.623
  920W        W 2117   3.060   2.804   6.641
  921W        W 2118   0.576   2.749   1.489
  922W        W 2119   5.278   2.774   1.114
  923W        W 2120   6.923   1.823   3.954
  924W        W 2121   5.787   0.944   1.352
  925W        W 2122   3.653   2.672   2.855
  926W        W 2123   0.955   1.120   4.913
  927W        W 2124   2.515   5.121   4.187
  928W        W 2125   5.588   2.870   2.582
  929W        W 2126   2.663   2.822   0.977
  930W        W 2127   2.881   4.282   2.579
  931W        W 2128   6.865   1.400   5.228
  932W        W 2129   5.397   0.246   7.396
  933W        W 2130   1.088   5.178   0.511
  934W        W 2131   4.337   7.588   5.744
  935W        W 2132   3.467   2.694   4.467
  936W        W 2133   2.353   6.149   1.363
  937W        W 2134   0.836   5.773   2.128
  938W        W 2135   4.326   2.898   5.424
  939W        W 2136   2.007   5.264   0.338
  940W        W 2137   0.526   3.974   0.844
  941W        W 2138   2.349   4.659   6.143
  942W        W 2139   6.653   3.541   1.152
  943W        W 2140   7.120   6.262   6.276
  944W        W 2141   7.187   7.009   1.753
  945W        W 2142   4.601   4.215   3.198
  946W        W 2143   3.939   2.837   7.571
  947W        W 2144   1.406   5.757   4.611
  948W        W 2145   6.388   6.686   4.178
  949W        W 2146   3.686   0.060   0.206
  950W        W 2147   3.150   4.862   5.427
  951W        W 2148   6.739   1.883   2.292
  952W        W 2149   7.144   4.485   2.457
  953W        W 2150   2.042   1.024   2.243
  954W        W 2151   6.367   7.706   6.353
  955W        W 2152   3.189   5.514   2.745
  956W        W 2153   6.742   3.238   6.263
  957W        W 2154   4.421   7.023   1.433
  958W        W 2155   2.226   5.569   5.018
  959W        W 2156   4.352   6.276   2.939
  960W        W 2157   5.501   5.076   0.460
  961W        W 2158   6.232   6.300   7.617
  962W        W 2159   1.417   5.286   0.032
  963W        W 2160   6.310   7.491   2.918
  964W        W 2161   0.729   4.658   3.314
  965W        W 2162   4.888   6.205   4.671
  966W        W 2163   5.393   2.468   2.348
  967W        W 2164   2.791   3.584   3.718
  968W        W 2165   3.476   7.800   6.923
  969W        W 2166   6.130   4.595   3.047
  970W        W 2167   5.561   5.336   4.228
  971W        W 2168   7.421   5.854   6.396
  972W        W 2169   6.268   5.486   1.373
  973W        W 2170   0.264   0.937   0.782
  974W        W 2171   0.548   7.302   6.061
  975W        W 2172   7.703   2.255   3.836
  976W        W 2173   3.788   6.398   6.053
  977W        W 2174   1.729   5.800   5.200
  978W        W 2175   4.932   4.697   3.387
  979W        W 2176   3.154   6.779   5.365
  980W        W 2177   1.705   3.715   5.583
  981W        W 2178   1.920   3.050   4.523
  982W        W 2179   6.550   2.974   0.974
  983W        W 2180   4.722   4.803   1.251
  984W        W 2181   5.903   5.508   1.701
  985W        W 2182   7.778   3.441   2.180
  986W        W 2183   2.261   3.094   6.620
  987W        W 2184   6.475   0.380   3.946
  988W        W 2185   7.242   2.445   0.561
  989W        W 2186   6.922   4.462   5.401
  990W        W 2187   1.853   6.834   2.202
  991W        W 2188   2.768   4.039   4.961
  992W        W 2189   0.406   2.017   4.247
  993W        W 2190   1.425   3.298   1.505
  994W        W 2191   3.777   1.681   3.076
  995W        W 2192   7.056   6.140   3.782
  996W        W 2193   3.499   3.397   5.190
  997W        W 2194   5.040   6.035   6.988
  998W        W 2195   3.200   0.196   0.377
  999W        W 2196   5.631   3.850   4.386
 1000W        W 2197   4.533   0.406   7.546
 1001W        W 2198   0.704   4.447   7.279
 1002W        W 2199   5.263   0.857   2.461
 1003W        W 2200   4.410   0.292   1.446
 1004W        W 2201   2.323   6.875   7.411
 1005W        W 2202   5.787   5.823   0.194
 1006W        W 2203   3.423   4.532   0.055
 1007W        W 2204   3.267   5.201   1.595
 1008W        W 2205   4.385   1.260   0.931
 1009W        W 2206   1.485   6.261   7.494
 1010W        W 2207   3.061   6.088   6.482
 1011W        W 2208   1.037   2.762   5.455
 1012W        W 2209   2.566   7.499   6.069
 1013W        W 2210   1.727   0.616   0.698
 1014W        W 2211   0.995   7.147   5.728
 1015W        W 2212   1.503   2.049   2.173
 1016W        W 2213   1.692   1.756   2.541
 1017W        W 2214   5.756   1.570   2.164
 1018W        W 2215   5.123   1.708   0.452
 1019W        W 2216   3.252   4.690   1.649
 1020W        W 2217   1.640   0.263   2.381
 1021W        W 2218   6.088   7.156   5.291
 1022W        W 2219   5.055   4.965   2.602
 1023W        W 2220   1.190   3.920   3.631
 1024W        W 2221   5.025   6.583   7.055
 1025W        W 2222   5.802   1.327   6.015
 1026W        W 2223   7.328   2.745   3.289
 1027W        W 2224   6.104   1.467   3.895
 1028W        W 2225   5.876   3.584   3.206
 1029W        W 2226   0.304   4.447   3.502
 1030W        W 2227   3.388   3.273   5.991
 1031W        W 2228   5.137   6.277   1.511
 1032W        W 2229   3.966   1.874   6.933
 1033W        W 2230   0.940   3.764   4.039
 1034W        W 2231   0.673   3.741   2.945
 1035W        W 2232   1.896   4.432   4.896
 1036W        W 2233   1.521   1.687   5.919
 1037W        W 2234   5.010   4.982   3.802
 1038W        W 2235   5.017   7.759   5.381
 1039W        W 2236   1.443   4.714   7.810
 1040W        W 2237   4.225   1.150   5.041
 1041W        W 2238   0.551   2.021   4.955
 1042W        W 2239   1.769   7.513   7.459
 1043W        W 2240   5.216   2.061   1.930
 1044W        W 2241   6.407   4.029   1.970
 1045W        W 2242   0.800   0.223   0.649
 1046W        W 2243   4.622   2.154   0.880
 1047W        W 2244   7.814   0.300   0.918
 1048W        W 2245   1.488   4.990   1.930
 1049W        W 2246   0.263   4.903   1.686
 1050W        W 2247   3.497   7.800   2.922
 1051W        W 2248   6.444   0.790   4.277
 1052W        W 2249   1.480   3.484   6.558
 1053W        W 2250   2.731   3.607   0.297
 1054W        W 2251   0.477   0.782   4.587
 1055W        W 2252   0.805   3.752   5.354
 1056W        W 2253   1.411   2.023   4.016
 1057W        W 2254   4.179   1.196   1.411
 1058W        W 2255   7.164   1.039   3.555
 1059W        W 2256   0.114   7.833   6.834
 1060W        W 2257   1.125   6.806   1.065
 1061W        W 2258   7.115   3.615   5.472
 1062W        W 2259   7.652   0.496   3.320
 1063W        W 2260   0.709   1.621   3.385
 1064W        W 2261   1.555   1.904   3.010
 1065W        W 2262   3.387   5.264   0.351
 1066W        W 2263   3.168   1.324   2.019
 1067W        W 2264   5.545   6.229   5.296
 1068W        W 2265   0.888   5.554   3.306
 1069W        W 2266   6.230   7.921   3.664
 1070W        W 2267   3.862   0.313   5.312
 1071W        W 2268   2.640   0.796   7.059
 1072W        W 2269   5.774   2.798   6.992
 1073W        W 2270   4.904   3.314   3.003
 1074W        W 2271   7.569   2.312   5.212
 1075W        W 2272   7.591   7.863   6.568
 1076W        W 2273   2.609   0.495   0.691
 1077W        W 2274   1.292   5.827   1.830
 1078W        W 2275   5.751   2.990   4.479
 1079W        W 2276   3.740   0.678   7.640
 1080W        W 2277   3.587   0.258   2.695
 1081W        W 2278   3.255   2.690   1.797
 1082W        W 2279   6.232   4.481   4.200
 1083W        W 2280   2.208   5.668   7.305
 1084W        W 2281   3.951   4.566   0.605
 1085W        W 2282   3.707   6.224   3.589
 1086W        W 2283   0.799   1.815   1.623
 1087W        W 2284   6.145   2.046   7.533
 1088W        W 2285   1.358   7.115   7.378
 1089W        W 2286   6.173   1.666   0.611
 1090W        W 2287   3.293   7.017   7.259
 1091W        W 2288   7.163   2.419   5.974
 1092W        W 2289   5.223   3.837   6.109
 1093W        W 2290   3.140   1.351   6.108
 1094W        W 2291   4.140   6.942   4.571
 1095W        W 2292   7.951   1.441   2.112
 1096W        W 2293   6.174   5.549   7.960
 1097W        W 2294   1.431   3.103   0.199
 1098W        W 2295   2.960   3.109   6.229
 1099W        W 2296   0.433   3.102   6.340
 1100W        W 2297   3.931   2.619   7.113
 1101W        W 2298   3.264   6.791   1.303
 1102W        W 2299   3.240   3.136   4.699
 1103W        W 2300   7.804   4.850   5.227
 1104W        W 2301   7.388   4.000   0.856
 1105W        W 2302   6.480   1.329   4.275
 1106W        W 2303   3.748   5.121   1.701
 1107W        W 2304   3.593   2.629   2.195
 1108W        W 2305   4.333   1.920   5.689
 1109W        W 2306   3.536   4.794   6.710
 1110W        W 2307   2.218   2.251   3.613
 1111W        W 2308   5.061   2.099   7.618
 1112W        W 2309   7.163   5.819   5.008
 1113W        W 2310   4.990   5.573   6.151
 1114W        W 2311   7.208   6.258   5.352
 1115W        W 2312   5.628   1.670   0.622
 1116W        W 2313   0.747   6.335   4.305
 1117W        W 2314   7.156   2.974   4.584
 1118W        W 2315   4.666   4.817   5.729
 1119W        W 2316   5.568   0.934   3.334
 1120W        W 2317   1.916   6.851   1.215
 1121W        W 2318   4.333   4.971   6.541
 1122W        W 2319   3.394   1.109   5.315
 1123W        W 2320   6.600   2.305   5.287
 1124W        W 2321   7.005   2.568   5.490
 1125W        W 2322   3.932   3.228   3.930
 1126W        W 2323   5.769   4.181   2.550
 1127W        W 2324   3.863   7.859   5.550
 1128W        W 2325   0.504   1.161   3.187
 1129W        W 2326   3.578   5.047   3.630
 1130W        W 2327   1.635   6.068   6.527
 1131W        W 2328   0.748   5.394   4.004
 1132W        W 2329   2.150   4.069   2.060
 1133W        W 2330   6.054   4.626   5.636
 1134W        W 2331   4.216   7.042   3.961
 1135W        W 2332   4.400   1.596   3.593
 1136W        W 2333   6.855   2.530   4.589
 1137W        W 2334   7.500   2.260   3.221
 1138W        W 2335   0.633   4.143   4.213
 1139W        W 2336   4.519   3.862   5.593
 1140W        W 2337   3.044   3.154   5.638
 1141W        W 2338   2.539   0.804   4.303
 1142W        W 2339   6.307   3.998   5.355
 1143W        W 2340   2.757   6.644   4.448
 1144W        W 2341   1.071   4.055   5.060
 1145W        W 2342   1.732   2.534   0.821
 1146W        W 2343   3.751   3.189   2.973
 1147W        W 2344   6.965   3.125   5.447
 1148W        W 2345   7.734   5.108   2.029
 1149W        W 2346   0.768   6.068   3.403
 1150W        W 2347   1.666   1.950   5.081
 1151W        W 2348   4.386   2.061   1.334
 1152W        W 2349   1.267   1.395   4.623
 1153W        W 2350   7.045   5.780   1.234
 1154W        W 2351   7.671   5.104   1.504
 1155W        W 2352   5.464   2.661   4.746
 1156W        W 2353   4.333   2.439   5.676
 1157W        W 2354   0.560   6.750   1.983
 1158W        W 2355   1.149   6.177   2.153
 1159W        W 2356   1.856   7.077   7.245
 1160W        W 2357   1.174   6.256   7.081
 1161W        W 2358   4.375   0.518   0.453
 1162W        W 2359   4.167   3.867   2.400
 1163W        W 2360   6.135   2.992   5.225
 1164W        W 2361   7.164   5.865   2.503
 1165W        W 2362   4.419   4.281   5.311
 1166W        W 2363   6.673   2.809   6.587
 1167W        W 2364   2.842   5.957   0.796
 1168W        W 2365   5.906   5.910   7.644
 1169W        W 2366   1.421   2.922   0.687
 1170W        W 2367   6.279   2.479   6.437
 1171W        W 2368   2.008   7.149   7.736
 1172W        W 2369   2.635   6.397   0.978
 1173W        W 2370   4.086   7.155   1.806
 1174W        W 2371   3.789   5.017   4.104
 1175W        W 2372   6.182   5.646   2.266
 1176W        W 2373   1.630   2.247   2.625
 1177W        W 2374   2.150   5.902   2.300
 1178W        W 2375   3.133   6.820   0.791
 1179W        W 2376   3.731   2.910   6.112
 1180W        W 2377   6.233   3.010   4.274
 1181W        W 2378   7.410   0.902   3.136
 1182W        W 2379   1.236   7.643   5.761
 1183W        W 2380   6.005   5.854   6.654
 1184W        W 2381   2.092   3.914   7.264
 1185W        W 2382   2.817   4.683   5.843
 1186W        W 2383   5.192   3.689   3.401
 1187W        W 2384   3.979   0.240   1.741
 1188W        W 2385   4.247   4.761   5.448
 1189W        W 2386   7.517   0.668   2.669
 1190W        W 2387   5.278   5.785   2.706
 1191W        W 2388   4.264   3.949   2.898
 1192W        W 2389   1.433   5.897   2.896
 1193W        W 2390   2.457   3.728   0.762
 1194W        W 2391   2.967   0.813   2.235
 1195W        W 2392   4.110   5.969   4.303
 1196W        W 2393   4.480   2.024   6.776
 1197W        W 2394   3.647   2.824   3.333
 1198W        W 2395   0.702   5.158   3.539
 1199W        W 2396   4.507   2.546   2.086
 1200W        W 2397   4.133   5.442   1.691
 1201W        W 2398   3.814   0.680   3.481
 1202W        W 2399   1.674   6.623   4.631
 1203W        W 2400   6.141   1.240   2.196
 1204W        W 2401   0.457   5.577   5.337
 1205W        W 2402   0.266   3.994   3.829
 1206W        W 2403   2.571   1.069   4.736
 1207W        W 2404   6.254   3.485   3.524
 1208W        W 2405   4.639   2.032   4.720
 1209W        W 2406   6.402   1.922   2.700
 1210W        W 2407   6.408   4.791   2.658
 1211W        W 2408   5.171   0.721   7.453
 1212W        W 2409   4.831   1.713   6.976
 1213W        W 2410   0.879   1.449   2.957
 1214W        W 2411   1.624   3.897   7.446
 1215W        W 2412   4.749   6.335   1.855
 1216W        W 2413   0.915   3.343   0.259
 1217W        W 2414   6.102   6.191   0.522
 1218W        W 2415   2.152   4.811   4.668
 1219W        W 2416   3.794   1.212   1.797
 1220W        W 2417   2.001   5.588   0.759
 1221W        W 2418   3.096   3.055   7.085
 1222W        W 2419   3.753   4.473   5.918
 1223W        W 2420   6.798   3.990   5.584
 1224W        W 2421   3.522   1.209   5.795
 1225W        W 2422   7.010   0.979   0.835
 1226W        W 2423   3.137   2.378   2.179
 1227W        W 2424   1.471   2.514   6.990
 1228W        W 2425   0.461   6.518   2.462
 1229W        W 2426   5.911   2.515   2.357
 1230W        W 2427   6.945   4.021   2.213
 1231W        W 2428   6.021   5.147   2.594
 1232W        W 2429   3.596   0.169   7.714
 1233W        W 2430   6.165   3.706   1.226
 1234W        W 2431   3.664   0.781   6.044
 1235W        W 2432   5.449   4.853   5.790
 1236W        W 2433   5.047   5.402   1.840
 1237W        W 2434   3.030   2.113   2.608
 1238W        W 2435   4.102   5.535   5.216
 1239W        W 2436   2.419   6.454   1.763
 1240W        W 2437   4.871   2.498   2.468
 1241W        W 2438   5.674   4.955   7.623
 1242W        W 2439   4.987   6.714   4.450
 1243W        W 2440   1.199   4.377   5.879
 1244W        W 2441   1.023   7.426   6.181
 1245W        W 2442   4.039   5.312   4.709
 1246W        W 2443   2.039   0.844   4.720
 1247W        W 2444   3.743   6.854   7.448
 1248W        W 2445   1.351   0.870   4.709
 1249W        W 2446   1.014   6.720   7.275
 1250W        W 2447   5.905   6.851   4.136
 1251W        W 2448   1.052   2.854   2.955
 1252W        W 2449   0.619   4.408   6.119
 1253W        W 2450   3.595   3.991   5.135
 1254W        W 2451   1.658   3.433   2.011
 1255W        W 2452   0.297   5.237   3.845
 1256W        W 2453   4.580   7.501   5.254
 1257W        W 2454   5.359   4.526   2.568
 1258W        W 2455   1.663   0.927   5.539
 1259W        W 2456   5.917   7.141   2.969
 1260W        W 2457   4.166   0.271   3.521
 1261W        W 2458   3.003   1.804   5.921
 1262W        W 2459   1.249   0.583   2.231
 1263W        W 2460   4.574   5.320   3.957
 1264W        W 2461   4.455   6.558   3.828
 1265W        W 2462   6.344   2.265   2.344
 1266W        W 2463   3.104   2.525   7.071
 1267W        W 2464   7.172   0.400   3.532
 1268W        W 2465   6.446   3.818   2.905
 1269W        W 2466   4.805   1.370   6.222
 1270W        W 2467   4.067   7.367   0.790
 1271W        W 2468   5.230   7.152   3.019
 1272W        W 2469   0.395   1.777   5.395
 1273W        W 2470   4.026   0.123   2.224
 1274W        W 2471   4.495   0.053   7.168
 1275W        W 2472   2.696   2.794   5.890
 1276W        W 2473   5.073   0.783   0.891
 1277W        W 2474   3.153   1.735   7.509
 1278W        W 2475   0.674   5.043   5.471
 1279W        W 2476   7.381   7.208   5.474
 1280W        W 2477   1.965   4.513   7.773
 1281W        W 2478   5.844   0.645   7.089
 1282W        W 2479   2.446   3.460   3.381
 1283W        W 2480   5.520   3.074   0.784
 1284W        W 2481   6.159   1.233   4.672
 1285W        W 2482   6.739   4.576   0.156
 1286W        W 2483   5.078   5.403   4.068
 1287W        W 2484   7.965   1.447   6.637
 1288W        W 2485   5.049   5.227   0.317
 1289W        W 2486   4.047   7.379   1.335
 1290W        W 2487   5.090   2.918   3.298
 1291W        W 2488   3.881   0.412   6.299
 1292W        W 2489   7.546   4.428   2.122
 1293W        W 2490   4.315   0.091   5.629
 1294W        W 2491   1.276   4.050   5.509
 1295W        W 2492   4.032   1.693   1.424
 1296W        W 2493   3.186   6.902   2.260
 1297W        W 2494   1.674   3.940   2.085
 1298W        W 2495   1.207   7.012   6.870
 1299W        W 2496   3.980   2.757   0.461
 1300W        W 2497   4.386   1.754   6.326
 1301W        W 2498   3.403   5.219   6.962
 1302W        W 2499   4.940   5.736   2.297
 1303W        W 2500   5.579   0.901   6.227
 1304W        W 2501   3.643   6.394   4.093
 1305W        W 2502   2.374   6.470   6.382
 1306W        W 2503   0.221   7.376   5.585
 1307W        W 2504   6.167   6.628   0.817
 1308W        W 2505   6.860   4.646   2.845
 1309W        W 2506   2.169   3.426   4.756
 1310W        W 2507   5.665   6.316   1.443
 1311W        W 2508   2.172   4.731   7.361
 1312W        W 2509   6.423   5.163   3.581
 1313W        W 2510   5.071   4.138   2.365
 1314W        W 2511   3.618   5.748   0.224
 1315W        W 2512   4.767   2.188   5.611
 1316W        W 2513   6.499   2.203   4.797
 1317W        W 2514   5.283   6.399   6.661
 1318W        W 2515   1.723   7.574   6.133
 1319W        W 2516   4.424   5.443   0.323
 1320W        W 2517   1.515   3.892   0.837
 1321W        W 2518   6.308   1.207   2.938
 1322W        W 2519   4.940   4.451   5.450
 1323W        W 2520   7.389   6.168   1.228
 1324W        W 2521   6.909   1.254   3.966
 1325W        W 2522   3.950   2.176   1.565
 1326W        W 2523   7.718   2.626   1.848
 1327W        W 2524   1.170   5.546   4.226
 1328W        W 2525   5.573   4.920   6.677
 1329W        W 2526   7.664   2.877   4.495
 1330W        W 2527   4.136   6.066   5.245
 1331W        W 2528   7.368   7.092   6.662
 1332W        W 2529   4.136   6.544   1.363
 1333W        W 2530   7.102   6.654   6.710
 1334W        W 2531   0.542   4.493   4.582
 1335W        W 2532   0.505   5.664   3.633
 1336W        W 2533   1.140   4.998   3.303
 1337W        W 2534   6.655   6.575   7.484
 1338W        W 2535   0.096   6.019   6.405
 1339W        W 2536   1.568   0.340   7.987
 1340W        W 2537   3.467   3.732   7.515
 1341W        W 2538   0.687   4.107   6.529
 1342W        W 2539   1.290   3.259   2.319
 1343W        W 2540   2.383   0.402   7.381
 1344W        W 2541   2.841   4.718   4.174
 1345W        W 2542   4.291   2.343   2.948
 1346W        W 2543   4.963   7.055   0.615
 1347W        W 2544   5.764   4.700   2.085
 1348W        W 2545   5.454   6.903   5.850
 1349W        W 2546   5.577   7.181   3.889
 1350W        W 2547   2.001   6.603   7.137
 1351W        W 2548   5.892   3.405   1.536
 1352W        W 2549   3.433   3.118   6.477
 1353W        W 2550   6.639   4.593   7.581
 1354W        W 2551   6.133   4.365   2.223
 1355W        W 2552   5.422   1.087   1.687
 1356W        W 2553   0.459   0.151   6.627
 1357W        W 2554   4.051   5.918   6.311
 1358W        W 2555   3.916   2.619   5.163
 1359W        W 2556   7.903   3.525   1.505
 1360W        W 2557   7.730   6.874   3.767
 1361W        W 2558   6.095   2.877   2.682
 1362W        W 2559   3.679   8.000   6.501
 1363W        W 2560   7.897   0.536   1.672
 1364W        W 2561   7.642   6.639   6.702
 1365W        W 2562   5.485   1.024   5.732
 1366W        W 2563   3.566   7.697   6.125
 1367W        W 2564   5.075   1.343   4.585
 1368W        W 2565   0.551   4.076   2.445
 1369W        W 2566   1.556   4.344   6.253
 1370W        W 2567   4.102   2.781   3.096
 1371W        W 2568   3.751   7.957   4.558
 1372W        W 2569   6.955   0.141   3.936
 1373W        W 2570   1.238   3.748   7.163
 1374W        W 2571   2.564   5.703   1.532
 1375W        W 2572   6.197   6.006   3.813
 1376W        W 2573   6.685   3.462   5.800
 1377W        W 2574   2.336   1.310   1.936
 1378W        W 2575   0.535   1.952   6.212
 1379W        W 2576   3.965   7.736   4.990
 1380W        W 2577   1.771   3.097   6.373
 1381W        W 2578   7.020   5.004   3.157
 1382W        W 2579   2.413   1.462   0.656
 1383W        W 2580   3.062   5.034   2.847
 1384W        W 2581   5.084   2.134   6.836
 1385W        W 2582   0.951   6.587   6.763
 1386W        W 2583   2.162   5.805   5.480
 1387W        W 2584   0.405   1.671   2.362
 1388W        W 2585   7.748   3.939   2.095
 1389W        W 2586   0.334   6.596   4.447
 1390W        W 2587   5.871   4.786   4.373
 1391W        W 2588   7.184   2.610   1.911
 1392W        W 2589   1.324   0.633   7.583
 1393W        W 2590   1.470   4.187   4.788
 1394W        W 2591   5.375   0.087   5.717
 1395W        W 2592   6.187   7.152   2.535
 1396W        W 2593   3.191   0.857   6.223
 1397W        W 2594   5.810   3.405   1.027
 1398W        W 2595   1.437   2.913   5.201
 1399W        W 2596   3.895   1.150   3.299
 1400W        W 2597   3.362   0.712   2.572
 1401W        W 2598   5.107   4.199   3.356
 1402W        W 2599   1.142   1.514   5.597
 1403W        W 2600   4.668   3.204   0.874
 1404W        W 2601   5.601   1.737   6.277
 1405W        W 2602   1.812   5.569   2.563
 1406W        W 2603   4.636   0.342   0.070
 1407W        W 2604   3.043   0.697   0.930
 1408W        W 2605   7.461   7.071   5.957
 1409W        W 2606   7.513   7.442   6.303
 1410W        W 2607   4.407   7.117   2.218
 1411W        W 2608   4.639   5.360   6.416
 1412W        W 2609   4.893   5.579   0.633
 1413W        W 2610   4.333   1.523   6.806
 1414W        W 2611   7.622   2.506   6.619
 1415W        W 2612   0.910   0.609   4.835
 1416W        W 2613   2.671   4.272   4.277
 1417W        W 2614   2.846   5.897   0.298
 1418W        W 2615   6.444   2.773   2.316
 1419W        W 2616   5.601   6.661   0.861
 1420W        W 2617   4.730   6.340   6.656
 1421W        W 2618   5.212   5.325   5.774
 1422W        W 2619   6.551   6.926   3.767
 1423W        W 2620   6.590   1.460   7.045
 1424W        W 2621   7.665   1.011   6.633
 1425W        W 2622   1.428   5.055   6.997
 1426W        W 2623   5.164   1.210   2.113
 1427W        W 2624   2.805   2.580   0.150
 1428W        W 2625   6.607   7.431   2.459
 1429W        W 2626   5.218   0.567   3.343
 1430W        W 2627   7.492   3.665   5.813
 1431W        W 2628   6.818   6.244   6.707
 1432W        W 2629   4.407   6.996   5.100
 1433W        W 2630   2.283   1.507   6.610
 1434W        W 2631   1.789   0.995   3.318
 1435W        W 2632   4.345   0.924   2.429
 1436W        W 2633   2.223   3.096   3.668
 1437W        W 2634   4.548   5.941   7.064
 1438W        W 2635   5.594   6.250   0.537
 1439W        W 2636   7.836   4.907   2.961
 1440W        W 2637   1.149   7.253   1.930
 1441W        W 2638   6.282   5.569   3.308
 1442W        W 2639   2.536   3.612   1.263
 1443W        W 2640   7.819   0.954   1.988
 1444W        W 2641   7.304   1.751   1.569
 1445W        W 2642   7.849   2.841   1.397
 1446W        W 2643   7.457   3.557   1.782
 1447W        W 2644   1.919   1.530   2.120
 1448W        W 2645   3.711   5.361   5.530
 1449W        W 2646   0.892   4.724   0.707
 1450W        W 2647   7.208   2.381   2.482
 1451W        W 2648   4.151   5.096   3.747
 1452W        W 2649   6.052   0.510   2.720
 1453W        W 2650   5.026   2.752   0.169
 1454W        W 2651   5.344   0.226   2.097
 1455W        W 2652   6.836   4.549   6.685
 1456W        W 2653   3.531   2.906   3.816
 1457W        W 2654   3.252   0.948   1.613
 1458W        W 2655   5.482   5.143   6.214
 1459W        W 2656   0.642   6.338   2.927
 1460W        W 2657   0.391   5.903   3.105
 1461W        W 2658   2.856   0.590   2.705
 1462W        W 2659   3.499   5.145   4.507
 1463W        W 2660   3.329   0.277   6.807
 1464W        W 2661   2.825   4.806   2.455
 1465W        W 2662   6.438   1.700   1.206
 1466W        W 2663   7.601   7.399   4.129
 1467W        W 2664   4.675   0.591   3.397
 1468W        W 2665   1.903   2.696   2.651
 1469W        W 2666   6.434   0.450   1.954
 1470W        W 2667   5.328   2.582   3.624
 1471W        W 2668   3.530   5.210   6.323
 1472W        W 2669   3.150   2.372   0.561
 1473W        W 2670   2.839   0.251   6.606
 1474W        W 2671   7.603   2.654   6.130
 1475W        W 2672   2.575   1.480   1.466
 1476W        W 2673   0.644   4.963   2.479
 1477W        W 2674   1.037   1.572   6.733
 1478W        W 2675   6.712   5.402   6.591
 1479W        W 2676   7.314   2.857   5.749
 1480W        W 2677   7.917   6.552   2.436
 1481W        W 2678   3.455   4.297   1.918
 1482W        W 2679   7.300   1.895   2.440
 1483W        W 2680   0.158   7.094   4.449
 1484W        W 2681   3.306   2.137   0.982
 1485W        W 2682   3.501   4.522   0.930
 1486W        W 2683   1.601   1.436   1.752
 1487W        W 2684   4.800   2.578   6.936
 1488W        W 2685   0.510   4.210   5.279
 1489W        W 2686   4.957   2.652   4.682
 1490W        W 2687   6.001   1.637   6.787
 1491W        W 2688   6.771   0.379   4.672
 1492W        W 2689   0.740   6.162   5.109
 1493W        W 2690   0.315   4.976   4.732
 1494W        W 2691   1.679   3.504   7.768
 1495W        W 2692   5.187   3.412   6.702
 1496W        W 2693   6.018   7.509   3.368
 1497W        W 2694   0.151   4.514   4.948
 1498W        W 2695   2.712   1.243   2.288
 1499W        W 2696   6.610   3.159   3.394
 1500W        W 2697   2.987   3.343   3.245
 1501W        W 2698   5.383   5.953   4.881
 1502W        W 2699   1.865   4.494   4.373
 1503W        W 2700   0.835   1.491   6.257
 1504W        W 2701   2.125   2.738   6.250
 1505W        W 2702   0.381   2.554   6.204
 1506W        W 2703   4.734   7.502   2.351
 1507W        W 2704   4.609   4.647   6.225
 1508W        W 2705   3.346   2.892   5.145
 1509W        W 2706   4.976   6.297   5.679
 1510W        W 2707   2.976   3.575   6.019
 1511W        W 2708   5.548   4.128   1.655
 1512W        W 2709   2.140   5.419   5.830
 1513W        W 2710   3.219   2.059   5.137
 1514W        W 2711   4.031   7.906   6.045
 1515W        W 2712   1.282   0.582   2.752
 1516W        W 2713   6.197   3.624   5.664
 1517W        W 2714   5.311   4.527   3.706
 1518W        W 2715   6.894   1.140   2.341
 1519W        W 2716   0.328   4.636   6.492
 1520W        W 2717   2.795   5.032   7.856
 1521W        W 2718   2.132   4.937   5.607
 1522W        W 2719   4.525   5.161   5.268
 1523W        W 2720   2.824   2.042   6.321
 1524W        W 2721   1.962   6.354   1.975
 1525W        W 2722   2.460   3.828   4.626
 1526W        W 2723   5.849   5.496   2.950
 1527W        W 2724   0.508   1.244   3.689
 1528W        W 2725   7.232   7.574   3.063
 1529W        W 2726   4.028   4.373   3.124
 1530W        W 2727   3.411   0.941   3.319
 1531W        W 2728   5.268   5.554   7.055
 1532W        W 2729   2.151   2.435   0.558
 1533W        W 2730   2.939   5.387   4.066
 1534W        W 2731   1.428   5.435   5.354
 1535W        W 2732   5.769   2.246   5.573
 1536W        W 2733   0.753   4.391   1.080
 1537W        W 2734   2.414   0.787   2.001
 1538W        W 2735   2.303   7.395   7.375
 1539W        W 2736   2.201   6.288   2.943
 1540W        W 2737   6.246   4.838   2.174
 1541W        W 2738   3.346   3.511   7.037
 1542W        W 2739   2.061   1.455   1.518
 1543W        W 2740   0.363   6.397   3.340
 1544W        W 2741   5.310   7.815   0.246
 1545W        W 2742   2.599   2.520   4.270
 1546W        W 2743   2.817   5.410   7.002
 1547W        W 2744   5.703   5.548   2.463
 1548W        W 2745   2.775   2.978   4.432
 1549W        W 2746   7.467   6.452   3.875
 1550W        W 2747   3.814   7.368   3.942
 1551W        W 2748   3.418   6.765   3.807
 1552W        W 2749   0.496   0.232   6.121
 1553W        W 2750   2.036   2.003   2.259
 1554W        W 2751   4.321   4.999   7.082
 1555W        W 2752   1.502   6.670   7.167
 1556W        W 2753   7.621   1.434   1.277
 1557W        W 2754   3.805   4.874   0.121
 1558W        W 2755   5.136   6.022   0.589
 1559W        W 2756   6.587   2.483   1.085
 1560W        W 2757   0.358   0.743   6.021
 1561W        W 2758   4.085   4.583   4.020
 1562W        W 2759   5.603   2.836   4.006
 1563W        W 2760   4.226   4.529   7.246
 1564W        W 2761   1.826   5.630   3.085
 1565W        W 2762   3.995   2.969   2.597
 1566W        W 2763   3.690   3.295   1.085
 1567W        W 2764   2.592   3.175   7.368
 1568W        W 2765   3.592   0.702   5.534
 1569W        W 2766   7.319   6.748   5.217
 1570W        W 2767   2.691   4.116   0.343
 1571W        W 2768   3.157   6.349   1.046
 1572W        W 2769   1.421   2.917   6.681
 1573W        W 2770   5.686   3.061   5.005
 1574W        W 2771   3.388   0.995   4.146
 1575W        W 2772   0.707   0.560   5.715
 1576W        W 2773   1.645   1.046   6.345
 1577W        W 2774   2.733   5.862   4.107
 1578W        W 2775   7.128   3.227   3.345
 1579W        W 2776   5.036   0.809   1.495
 1580W        W 2777   3.890   2.666   5.672
 1581W        W 2778   5.977   0.905   3.691
 1582W        W 2779   6.227   5.979   5.732
 1583W        W 2780   0.925   0.955   3.854
 1584W        W 2781   6.105   0.711   2.248
 1585W        W 2782   5.471   6.305   1.909
 1586W        W 2783   2.038   2.684   3.464
 1587W        W 2784   2.734   1.542   6.358
 1588W        W 2785   4.388   0.971   6.854
 1589W        W 2786   0.636   0.631   6.648
 1590W        W 2787   3.270   4.946   4.065
 1591W        W 2788   5.556   6.081   4.405
 1592W        W 2789   6.202   5.125   3.070
 1593W        W 2790   7.225   3.536   0.492
 1594W        W 2791   3.647   5.899   3.984
 1595W        W 2792   1.526   7.114   1.028
 1596W        W 2793   1.415   2.055   0.861
 1597W        W 2794   2.313   1.939   6.379
 1598W        W 2795   6.135   4.421   0.824
 1599W        W 2796   3.374   4.228   6.170
 1600W        W 2797   7.633   2.183   2.701
 1601W        W 2798   0.867   2.383   5.162
 1602W        W 2799   2.503   6.021   5.184
 1603W        W 2800   2.042   5.284   6.671
 1604W        W 2801   3.458   2.810   0.495
 1605W        W 2802   7.269   4.884   2.110
 1606W        W 2803   5.591   7.524   3.057
 1607W        W 2804   2.810   2.907   2.994
 1608W        W 2805   6.291   7.206   4.133
 1609W        W 2806   0.805   2.730   1.040
 1610W        W 2807   4.405   5.099   6.060
 1611W        W 2808   6.674   2.759   4.133
 1612W        W 2809   7.196   4.275   2.957
 1613W        W 2810   0.141   1.650   1.063
 1614W        W 2811   2.214   2.370   6.638
 1615W        W 2812   5.313   4.096   5.295
 1616W        W 2813   0.339   0.355   1.420
 1617W        W 2814   4.474   7.037   0.734
 1618W        W 2815   5.452   6.283   7.147
 1619W        W 2816   4.715   4.819   2.934
 1620W        W 2817   2.095   6.379   0.964
 1621W        W 2818   2.904   5.216   5.688
 1622W        W 2819   0.495   3.139   0.985
 1623W        W 2820   2.625   4.649   2.892
 1624W        W 2821   2.130   3.253   2.027
 1625W        W 2822   6.082   0.725   6.078
 1626W        W 2823   7.033   7.112   6.272
 1627W        W 2824   0.470   1.015   5.037
 1628W        W 2825   3.881   6.464   2.608
 1629W        W 2826   3.979   2.472   2.531
 1630W        W 2827   1.289   7.910   1.300
 1631W        W 2828   5.053   4.532   5.937
 1632W        W 2829   5.139   2.417   1.469
 1633W        W 2830   4.533   5.923   3.316
 1634W        W 2831   2.079   3.720   4.306
 1635W        W 2832   0.895   0.270   6.929
 1636W        W 2833   1.651   7.737   6.630
 1637W        W 2834   4.221   6.154   1.032
 1638W        W 2835   1.034   3.189   6.503
 1639W        W 2836   3.132   4.022   5.333
 1640W        W 2837   4.422   0.036   1.896
 1641W        W 2838   1.028   6.100   4.678
 1642W        W 2839   6.564   1.757   7.492
 1643W        W 2840   5.870   6.756   2.584
 1644W        W 2841   4.011   6.922   0.528
 1645W        W 2842   4.828   0.761   0.326
 1646W        W 2843   2.492   3.696   7.456
 1647W        W 2844   2.116   4.221   5.998
 1648W        W 2845   4.204   4.335   6.321
 1649W        W 2846   4.559   1.561   1.336
 1650W        W 2847   1.693   1.147   4.466
 1651W        W 2848   1.329   4.121   1.771
 1652W        W 2849   1.350   3.093   5.673
 1653W        W 2850   1.519   1.045   2.074
 1654W        W 2851   0.944   5.476   5.344
 1655W        W 2852   2.273   4.967   3.775
 1656W        W 2853   5.048   3.107   0.549
 1657W        W 2854   4.111   6.185   3.867
 1658W        W 2855   5.163   3.431   0.965
 1659W        W 2856   3.450   1.667   1.797
 1660W        W 2857   3.586   3.054   1.906
 1661W        W 2858   6.130   1.524   7.304
 1662W        W 2859   3.868   7.380   4.460
 1663W        W 2860   4.320   4.823   0.904
 1664W        W 2861   0.754   6.528   4.764
 1665W        W 2862   4.718   4.678   7.154
 1666W        W 2863   6.406   1.742   4.585
 1667W        W 2864   0.609   2.590   1.963
 1668W        W 2865   4.485   5.249   1.166
 1669W        W 2866   2.428   6.142   0.559
 1670W        W 2867   2.558   5.561   0.587
 1671W        W 2868   0.939   3.606   4.885
 1672W        W 2869   1.928   5.336   5.356
 1673W        W 2870   6.044   4.078   3.081
 1674W        W 2871   4.053   4.144   6.836
 1675W        W 2872   0.650   5.987   2.550
 1676W        W 2873   4.538   5.857   6.522
 1677W        W 2874   4.347   1.237   6.381
 1678W        W 2875   0.321   5.857   5.745
 1679W        W 2876   7.108   7.669   4.161
 1680W        W 2877   5.960   7.502   5.649
 1681W        W 2878   3.909   4.442   2.103
 1682W        W 2879   5.572   0.711   2.859
 1683W        W 2880   5.840   7.288   4.402
 1684W        W 2881   5.569   2.798   3.114
 1685W        W 2882   4.089   1.060   2.850
 1686W        W 2883   7.477   6.192   5.818
 1687W        W 2884   1.901   1.005   1.731
 1688W        W 2885   7.239   0.673   4.554
 1689W        W 2886   4.285   4.698   7.933
 1690W        W 2887   0.670   6.966   6.989
 1691W        W 2888   2.299   5.175   0.784
 1692W        W 2889   1.622   7.635   1.042
 1693W        W 2890   4.485   5.906   4.636
 1694W        W 2891   1.411   1.610   7.076
 1695W        W 2892   1.124   7.689   6.669
 1696W        W 2893   3.810   3.397   6.232
 1697W        W 2894   2.355   6.646   1.319
 1698W        W 2895   7.438   5.950   1.676
 1699W        W 2896   6.751   6.344   2.374
 1700W        W 2897   3.269   2.649   0.966
 1701W        W 2898   3.078   3.955   6.993
 1702W        W 2899   3.710   2.858   0.036
 1703W        W 2900   4.701   6.914   6.837
 1704W        W 2901   4.003   6.808   2.187
 1705W        W 2902   7.769   4.251   1.685
 1706W        W 2903   1.206   4.714   7.293
 1707W        W 2904   0.764   4.909   6.419
 1708W        W 2905   1.869   1.289   5.897
 1709W        W 2906   6.444   3.601   1.667
 1710W        W 2907   2.600   3.812   4.138
 1711W        W 2908   5.458   6.819   7.249
 1712W        W 2909   4.144   2.159   4.864
 1713W        W 2910   3.144   3.975   2.173
 1714W        W 2911   7.375   2.085   1.186
 1715W        W 2912   7.745   6.339   1.563
 1716W        W 2913   5.040   3.000   5.846
 1717W        W 2914   6.250   3.219   1.272
 1718W        W 2915   5.781   1.816   1.723
 1719W        W 2916   2.641   1.183   6.730
 1720W        W 2917   7.327   0.564   0.816
 1721W        W 2918   6.803   3.989   4.553
 1722W        W 2919   3.281   7.173   5.057
 1723W        W 2920   3.374   1.384   4.471
 1724W        W 2921   4.551   2.070   3.651
 1725W        W 2922   4.342   0.308   6.096
 1726W        W 2923   5.674   6.727   1.749
 1727W        W 2924   3.542   4.909   1.266
 1728W        W 2925   0.559   3.508   0.621
 1729W        W 2926   6.552   4.743   3.913
 1730W        W 2927   2.600   6.133   6.714
 1731W        W 2928   2.396   2.086   3.162
 1732W        W 2929   3.359   4.748   7.218
 1733W        W 2930   4.155   3.288   7.620
 1734W        W 2931   0.363   7.376   6.884
 1735W        W 2932   6.378   2.089   6.114
 1736W        W 2933   5.766   7.592   5.184
 1737W        W 2934   5.938   6.391   2.922
 1738W        W 2935   4.109   4.077   0.468
 1739W        W 2936   3.670   6.080   4.490
 1740W        W 2937   0.481   3.545   4.009
 1741W        W 2938   5.795   1.300   3.060
 1742W        W 2939   5.568   3.978   3.235
 1743W        W 2940   6.726   4.034   5.071
 1744W        W 2941   1.676   3.494   4.528
 1745W        W 2942   0.240   5.991   2.273
 1746W        W 2943   5.021   3.199   5.369
 1747W        W 2944   3.312   6.541   1.762
 1748W        W 2945   0.049   0.666   5.615
 1749W        W 2946   3.252   6.410   6.149
 1750W        W 2947   0.728   5.193   0.892
 1751W        W 2948   1.461   4.686   3.950
 1752W        W 2949   4.910   5.727   4.873
 1753W        W 2950   7.845   6.086   1.017
 1754W        W 2951   0.865   4.460   2.362
 1755W        W 2952   6.047   3.511   2.045
 1756W        W 2953   7.795   1.424   4.277
 1757W        W 2954   3.253   5.577   5.779
 1758W        W 2955   1.640   3.385   5.977
 1759W        W 2956   5.327   7.097   0.995
 1760W        W 2957   7.024   4.315   5.919
 1761W        W 2958   0.152   5.667   2.681
 1762W        W 2959   1.990   0.872   1.233
 1763W        W 2960   5.753   1.274   0.912
 1764W        W 2961   3.861   1.964   2.426
 1765W        W 2962   7.081   4.401   0.902
 1766W        W 2963   2.511   1.911   5.909
 1767W        W 2964   1.013   2.896   3.451
 1768W        W 2965   3.534   0.720   6.618
 1769W        W 2966   5.888   2.128   0.626
 1770W        W 2967   7.399   4.897   3.653
 1771W        W 2968   0.267   4.950   3.424
 1772W        W 2969   0.759   1.344   4.130
 1773W        W 2970   5.916   5.222   2.112
 1774W        W 2971   1.876   3.298   4.072
 1775W        W 2972   4.344   7.776   1.454
 1776W        W 2973   0.139   0.499   6.413
 1777W        W 2974   4.710   3.204   6.214
 1778W        W 2975   5.274   1.848   7.238
 1779W        W 2976   5.425   5.387   1.480
 1780W        W 2977   4.228   1.865   2.795
 1781W        W 2978   2.363   5.657   6.820
 1782W        W 2979   0.185   6.191   2.731
 1783W        W 2980   3.769   2.815   0.923
 1784W        W 2981   0.786   2.470   3.183
 1785W        W 2982   6.910   0.724   3.218
 1786W        W 2983   5.176   1.113   6.493
 1787W        W 2984   5.990   0.004   5.488
 1788W        W 2985   1.973   5.010   4.226
 1789W        W 2986   6.203   5.455   5.883
 1790W        W 2987   1.572   6.169   4.878
 1791W        W 2988   3.211   2.258   6.630
 1792W        W 2989   7.859   3.999   5.699
 1793W        W 2990   7.791   2.624   3.485
 1794W        W 2991   2.844   6.543   6.556
 1795W        W 2992   3.166   3.320   0.399
 1796W        W 2993   7.211   1.999   6.717
 1797W        W 2994   5.645   4.421   2.978
 1798W        W 2995   1.878   5.521   7.873
 1799W        W 2996   2.215   2.526   3.007
 1800W        W 2997   5.686   5.466   5.854
 1801W        W 2998   5.859   2.931   0.395
 1802W        W 2999   6.474   0.841   5.752
 1803W        W 3000   3.071   6.362   5.672
 1804W        W 3001   1.967   5.071   2.057
 1805W        W 3002   4.850   2.010   6.397
 1806W        W 3003   5.998   3.869   1.658
 1807W        W 3004   5.252   0.749   7.968
 1808W        W 3005   3.918   4.781   6.326
 1809W        W 3006   2.389   0.229   5.570
 1810W        W 3007   4.826   1.753   3.945
 1811W        W 3008   4.420   1.385   2.638
 1812W        W 3009   6.528   5.278   4.064
 1813W        W 3010   3.248   0.029   7.349
 1814W        W 3011   3.476   5.403   4.003
 1815W        W 3012   6.584   1.459   2.021
 1816W        W 3013   3.791   3.641   4.241
 1817W        W 3014   0.261   5.164   2.752
 1818W        W 3015   2.383   3.086   1.345
 1819W        W 3016   0.777   5.541   1.692
 1820W        W 3017   3.008   4.989   1.998
 1821W        W 3018   6.898   5.876   7.384
 1822W        W 3019   0.203   6.607   5.742
 1823W        W 3020   1.152   2.068   1.330
 1824W        W 3021   2.777   5.505   1.104
 1825W        W 3022   2.003   6.418   4.085
 1826W        W 3023   2.211   0.555   3.951
 1827W        W 3024   2.351   0.220   6.441
 1828W        W 3025   3.995   3.303   0.114
 1829W        W 3026   1.468   3.889   6.002
 1830W        W 3027   7.058   7.513   6.573
 1831W        W 3028   5.041   7.707   5.880
 1832W        W 3029   5.875   5.958   1.961
 1833W        W 3030   3.846   4.150   0.919
 1834W        W 3031   4.275   1.287   4.501
 1835W        W 3032   3.726   6.654   3.350
 1836W        W 3033   0.357   5.596   6.604
 1837W        W 3034   3.303   5.003   7.906
 1838W        W 3035   6.687   2.564   2.708
 1839W        W 3036   6.981   1.485   7.383
 1840W        W 3037   7.679   2.131   4.746
 1841W        W 3038   3.164   7.190   3.651
 1842W        W 3039   6.808   1.108   6.731
 1843W        W 3040   3.248   3.536   1.229
 1844W        W 3041   7.370   6.020   2.934
 1845W        W 3042   2.598   3.346   1.713
 1846W        W 3043   4.892   4.209   6.310
 1847W        W 3044   3.217   4.240   4.833
 1848W        W 3045   4.656   3.120   0.171
 1849W        W 3046   6.019   0.830   3.135
 1850W        W 3047   4.097   5.404   6.317
 1851W        W 3048   6.337   0.016   2.736
 1852W        W 3049   6.683   1.606   2.987
 1853W        W 3050   1.430   3.090   4.324
 1854W        W 3051   5.790   2.504   4.387
 1855W        W 3052   3.014   1.468   7.040
 1856W        W 3053   2.902   1.474   4.680
 1857W        W 3054   5.337   1.092   1.192
 1858W        W 3055   2.062   4.569   2.055
 1859W        W 3056   2.226   3.486   5.589
 1860W        W 3057   7.274   1.107   2.691
 1861W        W 3058   2.977   7.890   6.935
 1862W        W 3059   4.607   4.024   1.504
 1863W        W 3060   1.692   5.454   1.149
 1864W        W 3061   6.124   6.569   3.763
 1865W        W 3062   2.929   3.515   2.062
 1866W        W 3063   4.833   1.661   7.490
 1867W        W 3064   5.322   7.376   7.255
 1868W        W 3065   4.748   6.370   3.320
 1869W        W 3066   1.135   4.230   4.030
 1870W        W 3067   7.738   3.514   3.698
 1871W        W 3068   1.008   0.895   1.244
 1872W        W 3069   1.595   3.398   7.275
 1873W        W 3070   1.629   1.245   1.296
 1874W        W 3071   2.265   7.114   6.951
 1875W        W 3072   3.345   7.381   2.122
 1876W        W 3073   1.966   4.491   5.391
 1877W        W 3074   4.321   6.349   6.318
 1878W        W 3075   3.078   3.378   2.722
 1879W        W 3076   1.445   6.524   6.687
 1880W        W 3077   5.799   4.512   6.040
 1881W        W 3078   1.644   0.163   0.479
 1882W        W 3079   1.349   1.462   6.343
 1883W        W 3080   1.480   0.563   6.427
 1884W        W 3081   1.086   4.870   0.118
 1885W        W 3082   6.723   5.859   2.178
 1886W        W 3083   3.937   6.656   3.795
 1887W        W 3084   3.989   6.489   7.126
 1888W        W 3085   6.874   1.029   4.431
 1889W        W 3086   5.012   5.193   3.119
 1890W        W 3087   3.146   3.319   7.515
 1891W        W 3088   2.641   4.256   6.058
 1892W        W 3089   1.063   3.690   1.532
 1893W        W 3090   0.348   5.550   1.376
 1894W        W 3091   5.877   6.429   2.188
 1895W        W 3092   6.797   6.676   5.547
 1896W        W 3093   4.493   1.969   5.217
 1897W        W 3094   4.608   0.555   4.069
 1898W        W 3095   7.645   1.765   0.892
 1899W        W 3096   3.495   2.486   5.407
 1900W        W 3097   1.890   0.636   5.156
 1901W        W 3098   5.583   1.849   0.161
 1902W        W 3099   5.359   6.701   1.331
 1903W        W 3100   4.115   0.805   1.063
 1904W        W 3101   4.146   1.968   3.307
 1905W        W 3102   0.831   3.186   1.396
 1906W        W 3103   6.306   2.515   7.707
 1907W        W 3104   4.816   1.750   1.758
 1908W        W 3105   7.529   1.789   5.875
 1909W        W 3106   6.044   7.944   4.915
 1910W        W 3107   0.683   2.698   5.808
 1911W        W 3108   0.046   7.973   6.336
 1912W        W 3109   7.047   1.909   3.211
 1913W        W 3110   1.841   5.616   6.314
 1914W        W 3111   1.441   5.255   2.378
 1915W        W 3112   1.165   2.053   4.896
 1916W        W 3113   2.106   0.127   5.977
 1917W        W 3114   6.728   7.803   3.661
 1918W        W 3115   7.085   1.537   3.575
 1919W        W 3116   2.487   0.029   7.723
 1920W        W 3117   2.260   4.059   5.065
 1921W        W 3118   7.192   2.134   4.610
 1922W        W 3119   7.324   6.364   2.509
 1923W        W 3120   1.617   7.995   5.842
 1924W        W 3121   5.894   2.089   3.126
 1925W        W 3122   1.269   1.815   1.784
 1926W        W 3123   6.610   3.091   2.677
 1927W        W 3124   1.684   6.204   7.022
 1928W        W 3125   7.860   4.700   2.413
 1929W        W 3126   0.894   7.553   1.461
 1930W        W 3127   7.650   6.293   6.315
 1931W        W 3128   5.006   4.965   5.406
 1932W        W 3129   3.575   1.909   7.971
 1933W        W 3130   4.137   6.271   4.714
 1934W        W 3131   1.072   3.253   1.858
 1935W        W 3132   6.375   5.253   1.862
 1936W        W 3133   2.381   5.373   7.964
 1937W        W 3134   1.369   1.167   5.904
 1938W        W 3135   3.220   1.128   0.617
 1939W        W 3136   7.619   3.744   5.312
 1940W        W 3137   7.668   6.802   1.753
 1941W        W 3138   5.914   4.655   2.587
 1942W        W 3139   2.715   1.039   6.201
 1943W        W 3140   6.205   6.975   4.589
 1944W        W 3141   4.572   0.794   0.850
 1945W        W 3142   3.084   4.563   3.739
 1946W        W 3143   2.695   2.434   2.811
 1947W        W 3144   3.718   7.080   2.997
 1948W        W 3145   1.123   5.220   6.205
 1949W        W 3146   1.861   4.074   0.477
 1950W        W 3147   4.599   1.034   5.404
 1951W        W 3148   6.013   1.513   2.622
 1952W        W 3149   3.920   4.854   4.617
 1953W        W 3150   2.538   4.468   3.786
 1954W        W 3151   7.476   6.889   2.226
 1955W        W 3152   3.929   3.149   5.255
 1956W        W 3153   0.201   1.641   3.467
 1957W        W 3154   2.329   0.583   6.074
 1958W        W 3155   0.002   1.309   3.829
 1959W        W 3156   1.989   3.637   5.172
 1960W        W 3157   6.485   0.718   2.942
 1961W        W 3158   2.650   4.130   2.144
 1962W        W 3159   2.068   4.755   0.341
 1963W        W 3160   6.841   4.827   0.627
 1964W        W 3161   3.615   3.289   7.757
 1965W        W 3162   3.019   0.708   6.680
 1966W        W 3163   4.695   7.350   6.562
 1967W        W 3164   7.352   3.711   3.384
 1968W        W 3165   0.082   1.168   5.870
 1969W        W 3166   5.045   4.093   3.870
 1970W        W 3167   1.223   3.009   1.140
 1971W        W 3168   6.926   3.507   1.986
 1972W        W 3169   6.358   2.122   0.400
 1973W        W 3170   2.387   6.780   2.134
 1974W        W 3171   1.592   6.052   3.862
 1975W        W 3172   0.341   0.427   0.884
 1976W        W 3173   6.538   7.366   4.552
 1977W        W 3174   7.119   2.879   6.228
 1978W        W 3175   2.430   2.856   2.675
 1979W        W 3176   6.927   7.122   2.179
 1980W        W 3177   2.503   5.052   0.332
 1981W        W 3178   4.316   1.753   2.285
 1982W        W 3179   5.824   2.648   7.842
 1983W        W 3180   5.286   1.597   3.786
 1984W        W 3181   6.923   4.998   2.477
 1985W        W 3182   2.687   2.999   3.477
 1986W        W 3183   4.745   4.211   1.974
 1987W        W 3184   5.973   6.415   5.845
 1988W        W 3185   1.794   4.721   1.637
 1989W        W 3186   1.713   4.533   0.657
 1990W        W 3187   5.511   1.818   6.787
 1991W        W 3188   4.051   3.182   3.406
 1992W        W 3189   0.998   2.774   4.304
 1993W        W 3190   1.050   3.975   1.079
 1994W        W 3191   6.518   1.458   2.525
 1995W        W 3192   2.146   6.002   6.496
 1996W        W 3193   3.981   2.860   6.653
 1997W        W 3194   4.146   0.804   4.677
 1998W        W 3195   5.999   3.006   2.212
 1999W        W 3196   1.360   4.477   4.398
 2000W        W 3197   3.081   5.265   6.579
 2001W        W 3198   5.591   4.123   6.280
 2002W        W 3199   6.884   0.552   4.215
 2003W        W 3200   7.808   2.358   1.235
 2004W        W 3201   6.651   0.050   6.115
 2005W        W 3202   2.770   5.129   3.268
 2006W        W 3203   0.221   6.092   3.713
 2007W        W 3204   6.524   7.170   6.387
 2008W        W 3205   6.064   5.336   4.358
 2009W        W 3206   0.919   2.857   4.964
 2010W        W 3207   4.744   7.232   3.166
 2011W        W 3208   3.677   7.791   2.397
 2012W        W 3209   3.305   1.503   4.990
 2013W        W 3210   5.733   5.686   7.190
 2014W        W 3211   5.306   2.932   2.160
 2015W        W 3212   7.995   4.154   2.572
 2016W        W 3213   6.866   2.049   6.327
 2017W        W 3214   6.915   3.197   4.194
 2018W        W 3215   1.061   2.785   2.089
 2019W        W 3216   6.926   5.829   5.462
 2020W        W 3217   4.887   4.174   5.017
 2021W        W 3218   1.130   4.511   3.590
 2022W        W 3219   4.066   0.008   2.708
 2023W        W 3220   5.834   0.199   6.815
 2024W        W 3221   2.150   5.518   1.938
 2025W        W 3222   5.240   5.672   4.471
 2026W        W 3223   5.133   4.422   1.743
 2027W        W 3224   6.974   5.509   4.188
 2028W        W 3225   3.843   7.863   1.423
 2029W        W 3226   1.180   7.895   7.122
 2030W        W 3227   2.289   4.304   4.606
 2031W        W 3228   4.656   2.731   3.034
 2032W        W 3229   7.337   0.801   1.709
 2033W        W 3230   5.334   1.574   1.789
 2034W        W 3231   4.309   5.516   4.343
 2035W        W 3232   5.426   4.299   4.196
 2036W        W 3233   3.713   5.602   6.027
 2037W        W 3234   6.245   0.326   3.153
 2038W        W 3235   5.799   2.641   6.505
 2039W        W 3236   4.660   7.950   1.052
 2040W        W 3237   0.815   2.769   6.350
 2041W        W 3238   6.833   6.950   3.347
 2042W        W 3239   2.326   4.646   4.207
 2043W        W 3240   0.931   0.155   6.433
 2044W        W 3241   6.882   2.720   1.437
 2045W        W 3242   4.130   4.981   1.397
 2046W        W 3243   0.454   6.513   3.920
 2047W        W 3244   7.550   3.064   3.609
 2048W        W 3245   5.874   4.277   4.519
 2049W        W 3246   7.043   6.855   7.193
 2050W        W 3247   0.341   4.739   7.009
 2051W        W 3248   3.526   2.213   1.848
 2052W        W 3249   5.296   2.836   6.266
 2053W        W 3250   0.593   1.294   4.593
 2054W        W 3251   4.951   7.817   7.212
 2055W        W 3252   7.716   3.627   1.001
 2056W        W 3253   7.048   4.568   3.893
 2057W        W 3254   0.782   0.587   1.609
 2058W        W 3255   7.424   1.133   0.566
 2059W        W 3256   3.476   4.782   0.500
 2060W        W 3257   5.731   2.609   0.802
 2061W        W 3258   6.682   6.583   0.944
 2062W        W 3259   2.119   2.409   4.089
 2063W        W 3260   5.874   6.664   0.391
 2064W        W 3261   1.971   7.936   0.816
 2065W        W 3262   1.406   2.399   5.197
 2066W        W 3263   5.612   4.641   7.177
 2067W        W 3264   6.523   7.287   5.528
 2068W        W 3265   0.777   4.097   5.725
 2069W        W 3266   4.185   5.359   0.785
 2070W        W 3267   2.347   1.216   1.089
 2071W        W 3268   6.351   7.119   3.283
 2072W        W 3269   5.114   1.821   5.563
 2073W        W 3270   5.025   0.324   7.745
 2074W        W 3271   5.022   1.293   4.084
 2075W        W 3272   3.650   5.419   5.000
 2076W        W 3273   4.888   2.405   3.833
 2077W        W 3274   7.229   7.250   4.441
 2078W        W 3275   1.656   0.418   5.556
 2079W        W 3276   0.767   3.055   7.267
 2080W        W 3277   1.384   6.792   2.011
 2081W        W 3278   1.266   7.931   0.219
 2082W        W 3279   7.032   3.805   6.010
 2083W        W 3280   2.385   5.850   0.978
 2084W        W 3281   7.946   2.545   2.524
 2085W        W 3282   2.322   4.214   0.682
 2086W        W 3283   4.778   5.416   4.489
 2087W        W 3284   5.212   3.334   6.199
 2088W        W 3285   2.979   2.514   6.234
 2089W        W 3286   1.344   3.191   3.214
 2090W        W 3287   4.968   4.370   2.882
 2091W        W 3288   2.465   6.657   3.992
 2092W        W 3289   0.007   2.813   6.442
 2093W        W 3290   4.446   1.104   3.377
 2094W        W 3291   4.588   4.334   5.813
 2095W        W 3292   1.623   6.175   4.367
 2096W        W 3293   6.860   5.380   2.063
 2097W        W 3294   4.733   0.502   1.789
 2098W        W 3295   6.412   7.107   7.075
 2099W        W 3296   4.719   3.752   2.196
 2100W        W 3297   5.379   7.027   4.318
 2101W        W 3298   6.166   3.195   4.751
 2102W        W 3299   4.394   0.997   1.871
 2103W        W 3300   3.281   6.323   4.738
 2104W        W 3301   5.936   6.031   2.527
 2105W        W 3302   0.293   6.060   4.210
 2106W        W 3303   5.522   6.365   2.634
 2107W        W 3304   7.425   2.812   5.246
 2108W        W 3305   6.997   0.945   4.930
 2109W        W 3306   6.466   4.610   7.087
 2110W        W 3307   4.403   5.941   7.558
 2111W        W 3308   6.219   5.564   4.841
 2112W        W 3309   4.753   1.399   3.037
 2113W        W 3310   0.449   0.987   5.553
 2114W        W 3311   7.741   3.657   2.622
 2115W        W 3312   5.165   0.046   1.147
 2116W        W 3313   7.464   4.670   1.678
 2117W        W 3314   7.396   2.610   1.439
 2118W        W 3315   0.761   2.451   4.670
 2119W        W 3316   3.506   6.904   0.356
 2120W        W 3317   4.888   1.179   2.576
 2121W        W 3318   4.519   1.340   4.023
 2122W        W 3319   2.534   2.589   1.411
 2123W        W 3320   7.575   2.706   0.941
 2124W        W 3321   3.878   2.728   4.149
 2125W        W 3322   4.382   3.436   3.705
 2126W        W 3323   3.880   0.353   6.811
 2127W        W 3324   6.000   6.980   5.774
 2128W        W 3325   4.721   2.269   1.683
 2129W        W 3326   5.640   6.701   3.703
 2130W        W 3327   1.634   2.063   7.155
 2131W        W 3328   6.048   4.889   1.706
 2132W        W 3329   3.592   6.960   1.939
 2133W        W 3330   7.708   6.885   4.286
 2134W        W 3331   7.722   3.128   1.784
 2135W        W 3332   6.297   4.651   6.100
 2136W        W 3333   1.906   1.963   3.915
 2137W        W 3334   4.825   5.840   4.232
 2138W        W 3335   5.932   5.004   5.995
 2139W        W 3336   2.060   3.526   6.484
 2140W        W 3337   6.309   5.522   2.751
 2141W        W 3338   6.312   0.272   5.810
 2142W        W 3339   1.833   6.067   2.650
 2143W        W 3340   6.050   2.112   4.202
 2144W        W 3341   6.312   2.537   4.459
 2145W        W 3342   6.974   7.109   5.770
 2146W        W 3343   3.681   7.124   3.519
 2147W        W 3344   2.997   5.063   7.371
 2148W        W 3345   1.498   2.597   2.955
 2149W        W 3346   6.810   5.420   6.080
 2150W        W 3347   6.800   3.600   3.580
 2151W        W 3348   2.130   4.810   2.901
 2152W        W 3349   1.885   5.745   3.570
 2153W        W 3350   4.712   7.331   6.053
 2154W        W 3351   1.497   0.792   1.108
 2155W        W 3352   2.001   6.207   7.472
 2156W        W 3353   2.003   1.843   5.857
 2157W        W 3354   6.286   6.794   2.899
 2158W        W 3355   6.416   5.149   6.229
 2159W        W 3356   0.472   6.099   4.681
 2160W        W 3357   6.159   6.481   4.588
 2161W        W 3358   6.621   5.543   1.012
 2162W        W 3359   4.208   6.377   3.408
 2163W        W 3360   5.854   5.283   3.409
 2164W        W 3361   5.290   5.880   3.983
 2165W        W 3362   1.728   0.480   1.439
 2166W        W 3363   6.763   7.456   3.294
 2167W        W 3364   6.393   4.097   1.454
 2168W        W 3365   1.803   2.742   4.899
 2169W        W 3366   6.596   6.850   2.465
 2170W        W 3367   2.885   7.135   5.873
 2171W        W 3368   4.475   7.991   0.572
 2172W        W 3369   5.923   2.024   2.579
 2173W        W 3370   3.556   6.060   6.348
 2174W        W 3371   4.146   0.965   0.566
 2175W        W 3372   5.987   4.367   1.741
 2176W        W 3373   4.253   3.676   6.938
 2177W        W 3374   7.591   5.631   2.666
 2178W        W 3375   4.050   3.471   2.674
 2179W        W 3376   1.477   1.870   4.526
 2180W        W 3377   6.614   3.590   5.323
 2181W        W 3378   5.655   7.124   1.418
 2182W        W 3379   3.818   0.737   3.984
 2183W        W 3380   3.099   2.017   7.082
 2184W        W 3381   5.388   3.543   2.952
 2185W        W 3382   2.180   3.926   6.776
 2186W        W 3383   5.430   3.276   1.381
 2187W        W 3384   5.919   2.093   6.473
 2188W        W 3385   2.793   5.597   4.553
 2189W        W 3386   4.899   1.350   5.707
 2190W        W 3387   1.336   4.558   2.557
 2191W        W 3388   4.750   3.294   4.072
 2192W        W 3389   1.725   4.070   5.219
 2193W        W 3390   5.185   3.114   4.873
 2194W        W 3391   7.233   3.253   5.033
 2195W        W 3392   1.765   3.059   2.328
 2196W        W 3393   3.384   0.992   7.848
 2197W        W 3394   6.513   6.161   7.192
 2198W        W 3395   0.123   7.304   4.947
 2199W        W 3396   7.403   4.705   3.159
 2200W        W 3397   6.771   7.522   6.061
 2201W        W 3398   2.366   2.271   1.038
 2202W        W 3399   6.688   3.181   1.523
 2203W        W 3400   5.789   5.642   1.203
 2204W        W 3401   3.066   7.583   6.048
 2205W        W 3402   3.186   6.101   2.057
 2206W        W 3403   1.677   1.086   5.043
 2207W        W 3404   1.293   1.206   4.140
 2208W        W 3405   2.866   6.501   1.478
 2209W        W 3406   1.454   3.694   4.966
 2210W        W 3407   4.814   5.571   6.855
 2211W        W 3408   5.609   7.140   5.441
 2212W        W 3409   4.443   1.581   4.896
 2213W        W 3410   3.434   5.290   3.161
 2214W        W 3411   5.487   0.189   7.904
 2215W        W 3412   0.285   6.488   4.969
 2216W        W 3413   5.470   5.694   5.352
 2217W        W 3414   3.817   5.009   0.826
 2218W        W 3415   5.042   6.639   0.930
 2219W        W 3416   5.685   1.309   3.671
 2220W        W 3417   0.667   5.224   5.001
 2221W        W 3418   1.185   3.816   7.701
 2222W        W 3419   1.758   4.759   6.476
 2223W        W 3420   3.939   7.512   2.750
 2224W        W 3421   6.228   5.719   7.134
 2225W        W 3422   3.614   0.180   5.918
 2226W        W 3423   1.189   2.293   4.413
 2227W        W 3424   4.785   6.467   2.767
 2228W        W 3425   3.156   5.509   2.020
 2229W        W 3426   5.243   2.067   3.958
 2230W        W 3427   7.046   2.246   1.545
 2231W        W 3428   4.347   2.005   1.846
 2232W        W 3429   2.635   5.677   2.041
 2233W        W 3430   4.389   2.474   3.422
 2234W        W 3431   3.967   0.792   2.075
 2235W        W 3432   2.265   5.983   1.822
 2236W        W 3433   2.216   0.521   1.573
 2237W        W 3434   2.475   0.863   2.526
 2238W        W 3435   6.656   2.301   6.759
 2239W        W 3436   7.678   1.297   6.199
 2240W        W 3437   0.068   3.222   3.963
 2241W        W 3438   3.699   3.998   3.292
 2242W        W 3439   6.727   1.318   5.758
 2243W        W 3440   3.167   3.640   7.947
 2244W        W 3441   2.369   4.281   7.526
 2245W        W 3442   4.684   3.819   4.120
 2246W        W 3443   1.517   7.236   2.308
 2247W        W 3444   6.472   5.228   2.366
 2248W        W 3445   4.809   2.770   4.176
 2249W        W 3446   5.025   1.951   3.508
 2250W        W 3447   3.539   3.524   2.561
 2251W        W 3448   3.369   7.761   5.664
 2252W        W 3449   1.822   5.049   0.778
 2253W        W 3450   3.948   7.816   3.654
 2254W        W 3451   0.368   6.253   5.435
 2255W        W 3452   7.866   5.919   2.997
 2256W        W 3453   6.521   0.838   4.790
 2257W        W 3454   6.476   3.909   5.974
 2258W        W 3455   4.412   2.757   7.225
 2259W        W 3456   2.565   6.957   6.228
 2260W        W 3457   2.708   3.839   1.704
 2261W        W 3458   7.643   3.179   5.972
 2262W        W 3459   6.553   4.817   3.237
 2263W        W 3460   0.233   3.542   3.557
 2264W        W 3461   7.715   6.377   2.870
 2265W        W 3462   5.664   3.136   1.872
 2266W        W 3463   2.945   3.948   1.269
 2267W        W 3464   1.407   7.296   6.491
 2268W        W 3465   3.438   3.917   6.579
 2269W        W 3466   2.646   6.031   2.985
 2270W        W 3467   2.583   5.449   3.679
 2271W        W 3468   6.063   5.976   4.555
 2272W        W 3469   7.248   6.528   2.990
 2273W        W 3470   1.938   2.060   0.876
 2274W        W 3471   4.502   0.493   2.677
 2275W        W 3472   0.751   5.709   4.888
 2276W        W 3473   7.641   2.242   2.195
 2277W        W 3474   1.948   2.233   6.178
 2278W        W 3475   7.938   2.971   2.234
 2279W        W 3476   4.883   4.713   4.657
 2280W        W 3477   5.348   0.539   5.965
 2281W        W 3478   6.323   5.235   5.235
 2282W        W 3479   6.423   5.824   7.595
 2283W        W 3480   3.852   7.271   6.293
 2284W        W 3481   4.034   2.174   7.365
 2285W        W 3482   3.218   0.547   5.831
 2286W        W 3483   4.059   2.827   2.102
 2287W        W 3484   7.596   3.147   2.585
 2288W        W 3485   4.119   1.188   3.763
 2289W        W 3486   6.056   5.969   1.470
 2290W        W 3487   5.170   2.716   5.166
 2291W        W 3488   3.320   5.146   2.392
 2292W        W 3489   2.654   4.698   7.502
 2293W        W 3490   7.009   4.925   1.609
 2294W        W 3491   7.750   6.058   2.452
 2295W        W 3492   5.392   5.904   7.498
 2296W        W 3493   3.479   6.464   0.661
 2297W        W 3494   5.039   3.405   4.480
 2298W        W 3495   1.174   3.555   4.449
 2299W        W 3496   5.761   6.661   5.467
 2300W        W 3497   2.923   5.909   5.497
 2301W        W 3498   0.140   2.751   4.348
 2302W        W 3499   1.428   7.192   5.978
 2303W        W 3500   2.392   1.980   0.601
 2304W        W 3501   0.152   3.211   6.784
 2305W        W 3502   2.464   1.771   1.070
 2306W        W 3503   5.655   2.587   5.219
 2307W        W 3504   7.108   2.463   6.514
 2308W        W 3505   0.408   2.548   2.834
 2309W        W 3506   6.652   0.299   3.476
 2310W        W 3507   7.039   4.464   1.956
 2311W        W 3508   7.531   5.732   3.314
 2312W        W 3509   2.728   4.685   1.559
 2313W        W 3510   4.498   2.874   5.900
 2314W        W 3511   5.175   0.309   1.620
 2315W        W 3512   6.433   1.801   4.093
 2316W        W 3513   2.577   3.925   7.898
 2317W        W 3514   5.234   7.644   1.483
 2318W        W 3515   0.329   7.771   5.939
 2319W        W 3516   6.103   1.339   1.268
 2320W        W 3517   0.795   5.360   4.518
 2321W        W 3518   4.838   0.433   1.203
 2322W        W 3519   4.950   4.255   4.474
 2323W        W 3520   3.943   0.350   1.242
 2324W        W 3521   6.798   1.122   2.857
 2325W        W 3522   2.065   6.692   4.962
 2326W        W 3523   0.871   0.072   1.554
 2327W        W 3524   1.115   6.335   5.397
 2328W        W 3525   5.318   0.356   0.747
 2329W        W 3526   6.026   1.081   4.204
 2330W        W 3527   0.488   6.555   6.583
 2331W        W 3528   2.621   1.520   5.118
 2332W        W 3529   2.847   6.388   5.211
 2333W        W 3530   1.410   5.808   3.412
 2334W        W 3531   0.710   5.084   3.021
 2335W        W 3532   0.127   2.422   2.078
 2336W        W 3533   5.771   3.820   5.423
 2337W        W 3534   6.160   3.370   2.539
 2338W        W 3535   0.019   4.101   5.235
 2339W        W 3536   7.147   3.303   5.922
 2340W        W 3537   0.462   6.253   6.058
 2341W        W 3538   3.432   0.642   0.566
 2342W        W 3539   4.649   5.136   0.672
 2343W        W 3540   2.334   1.572   5.550
 2344W        W 3541   6.512   6.948   5.891
 2345W        W 3542   0.101   1.183   4.610
 2346W        W 3543   3.585   5.613   1.651
 2347W        W 3544   5.815   3.713   2.716
 2348W        W 3545   7.071   0.714   1.264
 2349W        W 3546   3.186   4.868   3.346
 2350W        W 3547   3.596   3.422   1.571
 2351W        W 3548   7.233   0.840   6.845
 2352W        W 3549   1.655   2.271   1.261
 2353W        W 3550   0.464   2.779   6.734
 2354W        W 3551   1.805   7.032   2.711
 2355W        W 3552   5.583   3.620   6.419
 2356W        W 3553   0.657   3.254   6.804
 2357W        W 3554   4.244   2.895   4.909
 2358W        W 3555   2.760   7.137   2.096
 2359W        W 3556   0.197   3.779   2.250
 2360W        W 3557   0.279   4.374   1.611
 2361W        W 3558   5.467   6.723   2.244
 2362W        W 3559   3.679   7.580   1.041
 2363W        W 3560   7.555   5.163   5.584
 2364W        W 3561   6.732   4.891   2.026
 2365W        W 3562   3.005   3.292   5.134
 2366W        W 3563   7.915   6.739   4.739
 2367W        W 3564   3.974   5.804   4.809
 2368W        W 3565   6.650   5.708   0.059
 2369W        W 3566   7.587   5.686   1.263
 2370W        W 3567   1.193   1.900   2.564
 2371W        W 3568   4.432   5.811   3.927
 2372W        W 3569   4.840   0.170   5.705
 2373W        W 3570   4.387   6.501   0.590
 2374W        W 3571   1.812   6.779   0.727
 2375W        W 3572   3.582   2.260   6.992
 2376W        W 3573   1.278   7.606   7.526
 2377W        W 3574   0.532   6.978   5.656
 2378W        W 3575   4.337   1.503   1.791
 2379W        W 3576   1.360   0.145   6.689
 2380W        W 3577   3.698   4.819   5.515
 2381W        W 3578   6.370   2.155   1.418
 2382W        W 3579   7.353   2.614   3.785
 2383W        W 3580   5.650   1.497   7.179
 2384W        W 3581   3.003   4.888   0.314
 2385W        W 3582   5.278   1.117   2.920
 2386W        W 3583   3.327   7.359   3.174
 2387W        W 3584   3.128   3.237   1.663
 2388W        W 3585   0.780   0.379   1.143
 2389W        W 3586   0.294   1.485   6.221
 2390W        W 3587   5.111   5.962   1.909
 2391W        W 3588   4.980   0.711   5.611
 2392W        W 3589   4.834   1.158   1.136
 2393W        W 3590   6.889   3.886   0.696
 2394W        W 3591   5.814   4.789   0.180
 2395W        W 3592   0.834   3.143   5.994
 2396W        W 3593   0.578   1.733   3.854
 2397W        W 3594   5.250   5.573   1.004
 2398W        W 3595   5.706   7.148   4.924
 2399W        W 3596   0.676   5.125   1.984
 2400W        W 3597   0.716   7.569   5.650
 2401W        W 3598   4.840   2.270   4.322
 2402W        W 3599   6.294   0.477   6.909
 2403W        W 3600   3.707   0.735   2.956
 2404W        W 3601   3.060   4.147   7.973
 2405W        W 3602   2.131   5.203   7.545
 2406W        W 3603   7.045   2.280   5.067
 2407W        W 3604   5.452   3.449   5.214
 2408W        W 3605   2.849   3.534   7.135
 2409W        W 3606   2.937   0.387   7.116
 2410W        W 3607   2.130   4.000   5.549
 2411W        W 3608   5.139   5.099   0.826
 2412W        W 3609   2.977   7.339   2.509
 2413W        W 3610   2.219   3.767   3.046
 2414W        W 3611   2.607   0.028   6.024
 2415W        W 3612   2.155   6.888   6.517
 2416W        W 3613   5.550   7.583   3.579
 2417W        W 3614   6.807   5.686   0.559
 2418W        W 3615   4.449   5.648   6.020
 2419W        W 3616   6.497   3.446   4.368
 2420W        W 3617   4.311   2.822   0.877
 2421W        W 3618   3.454   7.429   6.563
 2422W        W 3619   1.316   7.854   6.240
 2423W        W 3620   4.427   4.494   0.407
 2424W        W 3621   7.236   2.110   5.556
 2425W        W 3622   6.584   0.562   6.136
 2426W        W 3623   3.899   1.594   3.561
 2427W        W 3624   7.330   3.676   2.261
 2428W        W 3625   3.613   1.456   2.235
 2429W        W 3626   2.055   5.094   6.208
 2430W        W 3627   1.735   3.252   4.971
 2431W        W 3628   5.428   7.487   4.654
 2432W        W 3629   4.727   6.697   2.219
 2433W        W 3630   4.172   1.794   4.516
 2434W        W 3631   4.654   1.612   4.420
 2435W        W 3632   6.256   1.626   5.809
 2436W        W 3633   7.976   6.254   4.563
 2437W        W 3634   5.663   2.334   3.931
 2438W        W 3635   1.670   3.243   1.042
 2439W        W 3636   3.195   2.457   2.996
 2440W        W 3637   5.613   7.111   3.379
 2441W        W 3638   5.475   6.705   5.063
 2442W        W 3639   6.226   5.876   0.987
 2443W        W 3640   4.121   2.476   1.174
 2444W        W 3641   5.641   5.101   4.681
 2445W        W 3642   0.908   3.913   0.172
 2446W        W 3643   5.473   7.597   5.631
 2447W        W 3644   4.097   6.949   1.057
 2448W        W 3645   7.735   1.124   2.468
 2449W        W 3646   2.860   1.447   1.005
 2450W        W 3647   0.683   7.792   6.921
 2451W        W 3648   7.176   1.415   4.828
 2452W        W 3649   5.160   3.845   4.288
 2453W        W 3650   0.012   5.066   6.687
 2454W        W 3651   1.000   6.648   3.986
 2455W        W 3652   2.578   2.075   1.481
 2456W        W 3653   6.519   5.243   0.588
 2457W        W 3654   1.909   6.389   1.466
 2458W        W 3655   0.117   7.041   5.985
 2459W        W 3656   4.183   2.386   0.163
 2460W        W 3657   3.517   3.289   3.437
 2461W        W 3658   2.992   5.965   5.995
 2462W        W 3659   2.827   3.617   5.505
 2463W        W 3660   2.859   2.349   1.089
 2464W        W 3661   0.135   0.681   3.243
 2465W        W 3662   1.479   7.449   7.010
 2466W        W 3663   7.378   3.424   2.950
 2467W        W 3664   2.406   2.878   0.538
 2468W        W 3665   0.431   2.046   3.247
 2469W        W 3666   5.328   5.939   3.469
 2470W        W 3667   3.332   6.480   6.665
 2471W        W 3668   5.136   7.247   3.555
 2472W        W 3669   2.558   4.663   2.038
 2473W        W 3670   5.943   5.389   6.324
 2474W        W 3671   4.097   7.378   5.343
 2475W        W 3672   1.210   1.059   2.480
 2476W        W 3673   4.126   6.439   5.672
 2477W        W 3674   2.903   4.089   3.811
 2478W        W 3675   0.854   0.594   6.196
 2479W        W 3676   3.588   1.435   1.379
 2480W        W 3677   1.798   1.933   1.783
 2481W        W 3678   7.437   5.744   5.480
 2482W        W 3679   3.911   1.775   1.945
 2483W        W 3680   6.096   6.413   1.707
 2484W        W 3681   2.542   5.543   3.106
 2485W        W 3682   1.897   3.095   0.600
 2486W        W 3683   5.062   5.753   1.466
 2487W        W 3684   4.505   5.190   2.640
 2488W        W 3685   2.784   1.904   5.449
 2489W        W 3686   3.974   4.296   2.598
 2490W        W 3687   1.157   4.213   7.378
 2491W        W 3688   2.756   5.233   1.589
 2492W        W 3689   3.943   7.594   6.711
 2493W        W 3690   4.396   1.450   5.910
 2494W        W 3691   5.812   0.368   5.817
 2495W        W 3692   2.494   0.031   6.929
 2496W        W 3693   5.895   0.172   7.317
 2497W        W 3694   7.420   4.990   6.567
 2498W        W 3695   2.841   5.317   2.396
 2499W        W 3696   0.950   2.251   1.818
 2500W        W 3697   2.522   3.797   5.869
 2501W        W 3698   3.247   3.702   3.548
 2502W        W 3699   4.042   2.761   3.671
 2503W        W 3700   1.779   3.921   6.406
 2504W        W 3701   6.863   1.613   6.618
 2505W        W 3702   3.678   5.343   2.691
 2506W        W 3703   5.080   0.890   6.947
 2507W        W 3704   7.691   3.024   3.098
 2508W        W 3705   3.040   4.036   5.824
 2509W        W 3706   6.797   2.409   2.212
 2510W        W 3707   2.843   6.030   1.280
 2511W        W 3708   5.531   2.092   3.502
 2512W        W 3709   6.402   0.974   7.024
 2513W        W 3710   3.123   3.040   2.160
 2514W        W 3711   1.506   6.540   4.003
 2515W        W 3712   2.962   2.837   0.569
 2516W        W 3713   4.615   1.863   3.182
 2517W        W 3714   6.634   6.640   6.976
 2518W        W 3715   3.015   6.742   4.870
 2519W        W 3716   6.757   5.478   5.074
 2520W        W 3717   7.562   4.378   5.159
 2521W        W 3718   7.114   4.149   6.417
 2522W        W 3719   7.017   6.332   7.161
 2523W        W 3720   7.567   5.098   4.833
 2524W        W 3721   6.289   5.710   0.475
 2525W        W 3722   7.811   1.880   1.397
 2526W        W 3723   1.161   5.624   5.889
 2527W        W 3724   4.155   1.502   0.505
 2528W        W 3725   2.293   1.819   1.816
 2529W        W 3726   0.924   4.798   5.971
 2530W        W 3727   3.525   4.499   3.351
 2531W        W 3728   6.362   2.570   5.806
 2532W        W 3729   0.768   3.571   7.190
 2533W        W 3730   4.436   4.973   4.738
 2534W        W 3731   5.496   2.611   5.855
 2535W        W 3732   1.083   2.312   2.293
 2536W        W 3733   2.771   6.888   1.153
 2537W        W 3734   0.379   4.230   6.935
 2538W        W 3735   1.885   1.648   7.333
 2539W        W 3736   1.256   1.122   5.320
 2540W        W 3737   3.942   2.569   4.637
 2541W        W 3738   3.246   6.280   3.740
 2542W        W 3739   5.217   2.209   4.706
 2543W        W 3740   7.340   4.504   6.768
 2544W        W 3741   2.613   4.599   0.522
 2545W        W 3742   7.034   5.813   6.862
 2546W        W 3743   1.714   5.802   7.328
 2547W        W 3744   4.798   4.560   2.441
 2548W        W 3745   5.931   1.005   2.631
 2549W        W 3746   0.541   5.155   6.799
 2550W        W 3747   6.923   7.063   5.261
 2551W        W 3748   1.726   2.175   0.423
 2552W        W 3749   4.418   4.447   2.784
 2553W        W 3750   3.645   7.338   7.047
 2554W        W 3751   7.893   2.601   4.877
 2555W        W 3752   1.906   7.321   6.538
 2556W        W 3753   2.293   1.497   6.099
 2557W        W 3754   3.547   2.061   7.464
 2558W        W 3755   2.576   5.143   2.794
 2559W        W 3756   6.337   6.659   2.071
 2560W        W 3757   4.732   0.964   3.772
 2561W        W 3758   2.452   4.120   1.201
 2562W        W 3759   0.975   7.403   7.118
 2563W        W 3760   0.892   4.153   3.233
 2564W        W 3761   1.183   3.260   6.989
 2565W        W 3762   0.557   2.497   4.199
 2566W        W 3763   6.240   3.121   1.777
 2567W        W 3764   5.107   0.594   6.477
 2568W        W 3765   4.715   2.913   5.067
 2569W        W 3766   3.266   7.271   5.577
 2570W        W 3767   6.101   5.489   3.809
 2571W        W 3768   3.120   7.407   6.967
 2572W        W 3769   3.761   6.910   4.193
 2573W        W 3770   2.653   2.425   0.631
 2574W        W 3771   2.015   3.727   5.993
 2575W        W 3772   1.471   2.588   5.664
 2576W        W 3773   5.646   0.547   2.365
 2577W        W 3774   7.099   7.342   2.615
 2578W        W 3775   6.200   2.594   0.199
 2579W        W 3776   0.728   4.961   7.326
 2580W        W 3777   0.242   2.691   1.113
 2581W        W 3778   0.636   5.539   2.811
 2582W        W 3779   7.643   4.456   2.798
 2583W        W 3780   3.771   3.888   2.797
 2584W        W 3781   3.628   2.444   1.258
 2585W        W 3782   6.181   2.634   1.910
 2586W        W 3783   5.206   7.041   7.662
 2587W        W 3784   4.901   0.411   2.320
 2588W        W 3785   7.505   2.731   2.294
 2589W        W 3786   4.280   3.188   0.521
 2590W        W 3787   0.972   0.960   2.920
 2591W        W 3788   3.276   4.499   5.756
 2592W        W 3789   0.700   4.651   1.537
 2593W        W 3790   0.430   3.940   6.086
 2594W        W 3791   3.262   6.837   3.300
 2595W        W 3792   5.561   4.985   2.441
 2596W        W 3793   1.339   1.484   2.784
 2597W        W 3794   1.004   4.854   1.179
 2598W        W 3795   3.502   2.437   4.904
 2599W        W 3796   4.214   6.177   1.708
 2600W        W 3797   4.879   5.783   5.697
 2601W        W 3798   7.015   1.544   2.628
 2602W        W 3799   0.442   2.847   4.752
 2603W        W 3800   2.408   5.915   4.695
 2604W        W 3801   4.693   0.808   7.272
 2605W        W 3802   1.136   6.239   3.718
 2606W        W 3803   4.908   7.498   4.850
 2607W        W 3804   1.325   2.708   4.701
 2608W        W 3805   5.237   2.957   4.385
 2609W        W 3806   3.849   7.171   4.949
 2610W        W 3807   2.865   6.576   2.024
 2611W        W 3808   1.122   2.331   2.806
 2612W        W 3809   4.893   3.841   3.018
 2613W        W 3810   1.178   5.367   4.873
 2614W        W 3811   4.542   6.812   4.257
 2615W        W 3812   2.114   0.522   2.432
 2616W        W 3813   3.656   3.980   2.302
 2617W        W 3814   6.449   6.617   3.369
 2618W        W 3815   6.407   7.426   3.687
 2619W        W 3816   0.884   6.432   6.271
 2620W        W 3817   7.539   3.046   6.473
 2621W        W 3818   5.697   6.163   3.773
 2622W        W 3819   4.472   5.485   7.291
 2623W        W 3820   6.684   6.066   0.902
 2624W        W 3821   4.499   6.112   5.619
 2625W        W 3822   6.336   1.913   7.061
 2626W        W 3823   0.949   6.647   2.307
 2627W        W 3824   2.200   2.802   2.245
 2628W        W 3825   5.979   3.904   3.573
 2629W        W 3826   7.339   1.860   5.051
 2630W        W 3827   4.896   7.435   7.556
 2631W        W 3828   5.025   2.529   1.998
 2632W        W 3829   1.829   2.467   2.197
 2633W        W 3830   7.190   5.419   6.412
 2634W        W 3831   6.549   2.302   7.294
 2635W        W 3832   7.295   4.817   5.290
 2636W        W 3833   6.037   7.076   3.689
 2637W        W 3834   3.078   4.438   1.220
 2638W        W 3835   1.901   4.864   6.959
 2639W        W 3836   0.991   3.967   6.163
 2640W        W 3837   6.756   2.896   1.928
 2641W        W 3838   2.489   0.688   1.153
 2642W        W 3839   4.492   4.517   6.723
 2643W        W 3840   6.027   4.125   5.763
 2644W        W 3841   7.363   1.397   2.291
 2645W        W 3842   1.639   7.795   7.887
 2646W        W 3843   0.856   1.618   4.880
 2647W        W 3844   4.481   7.516   1.896
 2648W        W 3845   3.424   7.160   7.778
 2649W        W 3846   4.944   3.719   5.320
 2650W        W 3847   0.524   4.988   4.246
 2651W        W 3848   2.433   4.291   1.697
 2652W        W 3849   2.305   1.413   7.103
 2653W        W 3850   6.515   5.854   6.749
 2654W        W 3851   1.793   6.692   7.594
 2655W        W 3852   6.325   4.503   6.601
 2656W        W 3853   2.187   5.746   0.283
 2657W        W 3854   3.228   5.712   6.818
 2658W        W 3855   6.605   6.138   0.389
 2659W        W 3856   5.165   6.212   3.016
 2660W        W 3857   2.822   1.034   1.294
 2661W        W 3858   1.848   1.587   6.316
 2662W        W 3859   5.921   2.787   5.651
 2663W        W 3860   4.706   1.801   2.624
 2664W        W 3861   1.539   1.929   3.522
 2665W        W 3862   7.216   0.261   6.614
 2666W        W 3863   4.682   4.719   1.967
 2667W        W 3864   2.712   7.923   3.817
 2668W        W 3865   6.658   5.176   2.866
 2669W        W 3866   4.226   7.634   2.340
 2670W        W 3867   0.598   3.054   2.786
 2671W        W 3868   2.965   1.668   2.380
 2672W        W 3869   3.179   0.489   1.895
 2673W        W 3870   3.071   5.540   0.649
 2674W        W 3871   6.619   4.365   0.629
 2675W        W 3872   3.045   1.463   5.462
 2676W        W 3873   1.383   0.115   7.573
 2677W        W 3874   1.391   6.882   3.021
 2678W        W 3875   4.257   6.754   7.490
 2679W        W 3876   4.365   1.770   7.257
 2680W        W 3877   0.795   5.921   5.554
 2681W        W 3878   3.270   5.650   6.299
 2682W        W 3879   2.284   2.081   5.463
 2683W        W 3880   2.831   0.491   6.165
 2684W        W 3881   2.795   2.405   1.800
 2685W        W 3882   1.274   2.521   1.022
 2686W        W 3883   0.404   5.863   1.812
 2687W        W 3884   7.547   2.186   1.690
 2688W        W 3885   4.886   2.303   5.100
 2689W        W 3886   3.381   0.228   5.471
 2690W        W 3887   0.546   2.284   2.367
 2691W        W 3888   6.710   2.515   6.181
 2692W        W 3889   6.829   5.035   5.354
 2693W        W 3890   6.972   7.523   5.462
 2694W        W 3891   5.235   6.365   3.710
 2695W        W 3892   2.449   3.368   4.350
 2696W        W 3893   4.057   4.116   4.948
 2697W        W 3894   5.461   6.401   5.789
 2698W        W 3895   1.383   6.396   6.212
 2699W        W 3896   2.763   1.604   1.907
 2700W        W 3897   2.288   2.347   1.941
 2701W        W 3898   0.788   4.454   0.201
 2702W        W 3899   7.948   3.987   1.292
 2703W        W 3900   5.468   4.303   2.120
 2704W        W 3901   2.342   3.476   6.976
 2705W        W 3902   3.724   0.957   1.347
 2706W        W 3903   0.831   4.896   4.657
 2707W        W 3904   5.614   1.734   2.864
 2708W        W 3905   5.824   5.349   5.073
 2709W        W 3906   4.271   6.667   6.737
 2710W        W 3907   4.488   3.558   3.209
 2711W        W 3908   2.095   5.416   3.909
 2712W        W 3909   1.225   3.580   5.649
 2713W        W 3910   7.201   1.381   6.924
 2714W        W 3911   2.438   1.684   2.277
 2715W        W 3912   3.340   0.372   6.312
 2716W        W 3913   2.958   3.459   4.184
 2717W        W 3914   5.092   1.526   1.350
 2718W        W 3915   6.140   2.483   5.291
 2719W        W 3916   3.787   6.888   5.875
 2720W        W 3917   2.695   1.021   0.760
 2721W        W 3918   5.006   0.668   2.862
 2722W        W 3919   3.900   5.343   0.373
 2723W        W 3920   4.118   6.525   4.259
 2724W        W 3921   3.282   6.801   5.839
 2725W        W 3922   5.203   0.705   1.974
 2726W        W 3923   5.650   3.117   5.997
 2727W        W 3924   7.982   6.195   5.945
 2728W        W 3925   2.236   6.702   4.453
 2729W        W 3926   2.837   4.175   0.818
 2730W        W 3927   6.189   1.275   3.422
 2731W        W 3928   1.477   6.327   1.774
 2732W        W 3929   1.258   4.527   0.432
 2733W        W 3930   4.895   4.245   6.848
 2734W        W 3931   5.217   3.932   6.614
 2735W        W 3932   4.807   0.376   0.686
 2736W        W 3933   6.211   0.240   6.336
 2737W        W 3934   0.370   0.180   5.615
 2738W        W 3935   1.207   0.426   0.357
 2739W        W 3936   5.994   7.889   6.009
 2740W        W 3937   3.791   7.392   5.766
 2741W        W 3938   6.657   5.786   2.997
 2742W        W 3939   4.765   0.771   7.797
 2743W        W 3940   3.473   4.203   1.416
 2744W        W 3941   3.866   3.304   2.232
 2745W        W 3942   3.639   3.991   4.615
 2746W        W 3943   1.824   3.604   0.242
 2747W        W 3944   5.398   0.558   1.242
 2748W        W 3945   5.291   2.481   4.253
 2749W        W 3946   4.712   1.004   4.369
 2750W        W 3947   5.599   1.361   6.600
 2751W        W 3948   2.663   2.797   6.967
 2752W        W 3949   1.996   7.271   0.890
 2753W        W 3950   6.905   5.021   4.371
 2754W        W 3951   7.142   6.128   2.073
 2755W        W 3952   2.364   3.921   6.323
 2756W        W 3953   1.784   6.120   3.179
 2757W        W 3954   6.089   0.411   3.619
 2758W        W 3955   5.639   3.340   2.360
 2759W        W 3956   4.569   5.121   1.666
 2760W        W 3957   4.302   7.393   4.802
 2761W        W 3958   3.642   7.830   4.073
 2762W        W 3959   6.016   4.892   6.971
 2763W        W 3960   1.496   1.031   2.908
 2764W        W 3961   2.832   5.462   6.124
 2765W        W 3962   0.633   7.210   1.758
 2766W        W 3963   0.737   1.374   5.314
 2767W        W 3964   1.117   3.403   3.620
 2768W        W 3965   4.216   3.953   3.396
 2769W        W 3966   6.770   2.909   5.860
 2770W        W 3967   6.338   6.349   1.246
 2771W        W 3968   0.349   1.506   4.980
 2772W        W 3969   1.326   3.599   0.137
 2773W        W 3970   4.865   1.421   3.554
 2774W        W 3971   3.483   2.303   2.557
 2775W        W 3972   0.309   1.872   1.485
 2776W        W 3973   1.735   4.465   2.945
 2777W        W 3974   4.536   5.505   7.803
 2778W        W 3975   4.737   7.044   1.834
 2779W        W 3976   4.553   3.571   2.685
 2780W        W 3977   0.883   6.049   1.664
 2781W        W 3978   5.127   3.017   3.856
 2782W        W 3979   6.893   6.457   4.193
 2783W        W 3980   2.163   2.547   4.589
 2784W        W 3981   2.842   7.177   3.250
 2785W        W 3982   6.015   0.580   4.085
 2786W        W 3983   0.741   5.820   4.343
 2787W        W 3984   7.356   6.708   6.278
 2788W        W 3985   2.044   1.994   2.815
 2789W        W 3986   7.052   2.366   3.473
 2790W        W 3987   3.008   7.105   4.509
 2791W        W 3988   0.605   3.094   1.863
 2792W        W 3989   6.982   4.644   7.170
 2793W        W 3990   6.341   0.258   4.429
 2794W        W 3991   4.113   2.598   6.142
 2795W        W 3992   6.271   6.448   2.533
 2796W        W 3993   7.919   4.663   1.384
 2797W        W 3994   2.818   7.727   5.636
 2798W        W 3995   6.638   2.997   4.582
 2799W        W 3996   6.214   5.367   6.764
 2800W        W 3997   7.895   3.918   3.439
 2801W        W 3998   6.409   0.847   6.516
 2802W        W 3999   2.709   0.426   4.003
 2803W        W 4000   3.829   6.532   1.761
 2804W        W 4001   7.100   2.422   2.970
 2805W        W 4002   2.981   7.645   3.471
 2806W        W 4003   5.478   3.322   4.153
 2807W        W 4004   3.610   4.592   4.343
 2808W        W 4005   5.174   4.868   6.988
 2809W        W 4006   3.812   2.155   2.907
 2810W        W 4007   5.633   0.607   1.736
 2811W        W 4008   4.342   5.512   3.540
 2812W        W 4009   7.329   4.116   5.551
 2813W        W 4010   2.151   7.757   6.336
 2814W        W 4011   6.686   6.204   1.791
 2815W        W 4012   4.047   4.372   4.499
 2816W        W 4013   3.946   6.519   0.847
 2817W        W 4014   6.526   6.025   3.418
 2818W        W 4015   4.225   2.865   0.015
 2819W        W 4016   5.981   2.686   4.827
 2820W        W 4017   2.543   6.218   5.673
 2821W        W 4018   6.828   2.744   3.243
 2822W        W 4019   7.825   6.986   5.585
 2823W        W 4020   4.588   1.306   7.205
 2824W        W 4021   0.186   2.385   1.570
 2825W        W 4022   1.563   5.966   6.034
 2826W        W 4023   0.552   3.560   1.594
 2827W        W 4024   5.651   1.865   7.613
 2828W        W 4025   5.664   0.637   7.586
 2829W        W 4026   6.589   6.367   3.795
 2830W        W 4027   3.935   1.545   6.482
 2831W        W 4028   6.893   2.036   2.741
 2832W        W 4029   2.274   4.906   1.681
 2833W        W 4030   2.163   3.047   5.137
 2834W        W 4031   3.650   3.162   4.355
 2835W        W 4032   4.075   2.338   6.702
 2836W        W 4033   3.956   4.715   3.502
 2837W        W 4034   1.570   6.473   1.091
 2838W        W 4035   5.732   0.414   3.244
 2839W        W 4036   2.828   3.464   4.683
 2840W        W 4037   2.626   0.910   3.095
 2841W        W 4038   2.137   7.634   5.822
 2842W        W 4039   6.098   1.627   6.291
 2843W        W 4040   5.279   2.644   0.597
 2844W        W 4041   0.135   2.385   6.717
 2845W        W 4042   0.174   2.846   1.808
 2846W        W 4043   6.510   3.273   2.181
 2847W        W 4044   4.114   1.638   4.027
 2848W        W 4045   0.017   1.167   3.338
 2849W        W 4046   0.972   1.154   3.381
 2850W        W 4047   2.915   0.909   3.947
 2851W        W 4048   6.166   7.717   4.434
 2852W        W 4049   6.198   6.635   7.230
 2853W        W 4050   5.105   0.149   6.154
 2854W        W 4051   4.780   3.708   6.886
 2855W        W 4052   3.504   6.699   5.015
 2856W        W 4053   5.531   5.874   1.585
 2857W        W 4054   5.168   6.728   5.463
 2858W        W 4055   0.917   4.621   7.707
 2859W        W 4056   0.454   5.480   2.316
 2860W        W 4057   5.960   7.713   7.030
 2861W        W 4058   3.101   0.976   2.925
 2862W        W 4059   6.780   4.149   2.674
 2863W        W 4060   6.650   1.340   4.782
 2864W        W 4061   0.345   4.548   2.505
 2865W        W 4062   5.938   4.081   4.049
 2866W        W 4063   4.535   4.794   3.846
 2867W        W 4064   7.231   7.755   3.668
 2868W        W 4065   5.283   5.938   5.943
 2869W        W 4066   6.774   7.022   4.251
 2870W        W 4067   2.890   4.468   5.237
 2871W        W 4068   3.365   0.993   4.814
 2872W        W 4069   1.258   4.837   6.574
 2873W        W 4070   6.707   1.177   3.358
 2874W        W 4071   7.995   4.302   3.121
 2875W        W 4072   7.871   6.000   1.944
 2876W        W 4073   4.689   0.874   6.425
 2877W        W 4074   7.305   5.338   1.824
 2878W        W 4075   3.464   6.043   5.835
 2879W        W 4076   2.039   2.312   5.064
 2880W        W 4077   3.365   0.669   3.759
 2881W        W 4078   3.922   1.493   2.632
 2882W        W 4079   5.884   6.243   0.994
 2883W        W 4080   1.489   3.062   2.752
 2884W        W 4081   3.874   5.150   6.686
 2885W        W 4082   0.767   4.129   7.712
 2886W        W 4083   3.593   0.376   7.228
 2887W        W 4084   1.680   4.438   0.168
 2888W        W 4085   4.354   6.676   1.832
 2889W        W 4086   5.142   3.901   1.912
 2890W        W 4087   6.405   4.929   4.394
 2891W        W 4088   7.170   1.916   0.708
 2892W        W 4089   6.379   5.754   1.812
 2893W        W 4090   6.381   5.674   6.301
 2894W        W 4091   2.145   4.390   6.971
 2895W        W 4092   0.933   6.750   2.803
 2896W        W 4093   7.238   5.321   5.184
 2897W        W 4094   5.924   5.110   5.517
 2898W        W 4095   0.302   4.704   2.994
 2899W        W 4096   0.050   2.044   5.083
 2900W        W 4097   3.557   1.184   6.351
 2901W        W 4098   4.600   7.128   5.604
 2902W        W 4099   1.952   3.618   0.724
 2903W        W 4100   0.003   0.287   5.951
 2904W        W 4101   5.579   1.662   5.703
 2905W        W 4102   0.518   1.470   6.674
 2906W        W 4103   3.255   6.981   6.734
 2907W        W 4104   2.041   6.280   4.640
 2908W        W 4105   0.444   7.815   1.393
 2909W        W 4106   1.774   0.600   2.966
 2910W        W 4107   2.323   6.843   0.856
 2911W        W 4108   6.080   2.624   3.979
 2912W        W 4109   4.761   1.797   5.945
 2913W        W 4110   0.771   4.617   2.817
 2914W        W 4111   3.683   5.339   7.911
 2915W        W 4112   5.477   5.641   6.325
 2916W        W 4113   6.685   6.193   7.846
 2917W        W 4114   4.213   3.092   6.268
 2918W        W 4115   1.393   6.783   2.522
 2919W        W 4116   7.336   5.109   6.055
 2920W        W 4117   5.570   3.641   1.848
 2921W        W 4118   6.665   5.868   5.910
 2922W        W 4119   4.799   2.954   2.235
 2923W        W 4120   7.159   1.383   3.105
 2924W        W 4121   6.428   1.199   1.617
 2925W        W 4122   3.095   3.176   3.710
 2926W        W 4123   0.634   0.757   3.453
 2927W        W 4124   0.626   1.245   0.977
 2928W        W 4125   0.356   5.401   3.217
 2929W        W 4126   1.133   6.839   5.339
 2930W        W 4127   7.101   4.895   4.834
 2931W        W 4128   7.358   1.189   4.406
 2932W        W 4129   7.257   7.527   5.882
 2933W        W 4130   0.697   6.058   3.897
 2934W        W 4131   6.475   6.432   5.878
 2935W        W 4132   3.638   1.466   0.560
 2936W        W 4133   6.439   1.068   3.840
 2937W        W 4134   6.416   0.759   3.439
 2938W        W 4135   3.976   2.114   6.227
 2939W        W 4136   7.166   5.807   5.950
 2940W        W 4137   3.127   0.570   4.274
 2941W        W 4138   0.814   1.963   4.524
 2942W        W 4139   7.512   2.667   2.797
 2943W        W 4140   3.684   0.991   0.294
 2944W        W 4141   3.660   7.003   5.396
 2945W        W 4142   1.223   6.524   4.938
 2946W        W 4143   3.700   6.047   1.895
 2947W        W 4144   0.659   3.671   4.467
 2948W        W 4145   4.202   6.150   6.778
 2949W        W 4146   2.788   1.094   1.804
 2950W        W 4147   7.486   0.004   3.286
 2951W        W 4148   1.862   7.343   1.388
 2952W        W 4149   5.999   6.737   5.021
 2953W        W 4150   4.823   1.232   1.692
 2954W        W 4151   5.513   5.932   6.780
 2955W        W 4152   3.765   4.616   1.635
 2956W        W 4153   6.018   4.366   7.009
 2957W        W 4154   5.118   7.549   6.817
 2958W        W 4155   6.287   3.449   0.799
 2959W        W 4156   2.899   2.033   3.103
 2960W        W 4157   4.232   4.963   0.414
 2961W        W 4158   4.462   3.009   1.336
 2962W        W 4159   6.478   6.954   5.032
 2963W        W 4160   4.591   3.519   1.262
 2964W        W 4161   4.703   3.846   3.581
 2965W        W 4162   3.353   7.526   7.419
 2966W        W 4163   5.933   2.435   6.052
 2967W        W 4164   4.726   7.512   0.586
 2968W        W 4165   1.512   6.956   5.004
 2969W        W 4166   7.781   2.393   4.333
 2970W        W 4167   2.992   2.781   1.370
 2971W        W 4168   5.481   5.985   2.292
 2972W        W 4169   5.249   1.330   0.765
 2973W        W 4170   4.783   3.412   4.945
 2974W        W 4171   4.152   6.915   5.525
 2975W        W 4172   2.310   4.934   2.419
 2976W        W 4173   4.795   2.684   5.515
 2977W        W 4174   5.269   7.465   0.616
 2978W        W 4175   2.739   3.102   0.198
 2979W        W 4176   1.713   2.901   7.198
 2980W        W 4177   1.882   2.699   5.397
 2981W        W 4178   7.376   3.031   4.094
 2982W        W 4179   1.083   4.925   5.108
 2983W        W 4180   0.258   5.541   4.856
 2984W        W 4181   0.631   4.722   3.807
 2985W        W 4182   7.308   1.667   6.335
 2986W        W 4183   3.530   1.939   1.384
 2987W        W 4184   2.843   2.067   0.288
 2988W        W 4185   6.338   4.014   4.370
 2989W        W 4186   4.969   4.682   6.565
 2990W        W 4187   6.846   1.904   7.064
 2991W        W 4188   2.773   2.895   1.812
 2992W        W 4189   5.906   1.952   5.954
 2993W        W 4190   1.226   2.843   7.321
 2994W        W 4191   2.131   0.345   0.510
 2995W        W 4192   5.168   6.757   2.652
 2996W        W 4193   1.145   2.318   7.340
 2997W        W 4194   1.247   6.640   5.788
 2998W        W 4195   4.896   7.090   5.193
 2999W        W 4196   4.102   7.051   2.620
 3000W        W 4197   2.091   5.917   5.975
 3001W        W 4198   3.407   4.454   5.270
 3002W        W 4199   5.913   6.973   2.131
 3003W        W 4200   4.578   2.958   7.670
 3004W        W 4201   6.303   3.338   3.021
 3005W        W 4202   3.755   7.840   7.342
 3006W        W 4203   4.512   4.360   4.730
 3007W        W 4204   6.966   2.345   3.980
 3008W        W 4205   4.486   3.825   5.077
 3009W        W 4206   2.172   1.065   6.344
 3010W        W 4207   6.487   4.367   5.708
 3011W        W 4208   7.942   2.113   3.410
 3012W        W 4209   5.980   2.166   0.008
 3013W        W 4210   4.953   6.865   5.930
 3014W        W 4211   2.438   6.606   6.883
 3015W        W 4212   4.520   6.464   7.132
 3016W        W 4213   1.138   7.473   0.999
 3017W        W 4214   2.605   3.284   5.865
 3018W        W 4215   7.145   0.131   4.418
 3019W        W 4216   6.308   2.087   0.912
 3020W        W 4217   2.799   5.122   0.759
 3021W        W 4218   1.843   3.266   6.862
 3022W        W 4219   4.268   3.395   4.905
 3023W        W 4220   6.905   0.647   2.127
 3024W        W 4221   4.537   6.884   6.335
 3025W        W 4222   1.763   3.951   2.928
 3026W        W 4223   2.629   0.415   2.277
 3027W        W 4224   7.812   4.590   6.566
 3028W        W 4225   4.606   7.878   6.073
 3029W        W 4226   6.133   5.066   4.785
 3030W        W 4227   6.262   1.672   1.680
 3031W        W 4228   1.015   2.845   0.368
 3032W        W 4229   3.466   2.940   1.379
 3033W        W 4230   2.182   4.161   4.066
 3034W        W 4231   4.658   4.695   5.113
 3035W        W 4232   0.639   6.249   2.070
 3036W        W 4233   2.397   2.603   5.324
 3037W        W 4234   0.385   2.791   2.368
 3038W        W 4235   2.316   3.012   3.146
 3039W        W 4236   4.451   3.195   6.755
 3040W        W 4237   7.586   6.843   2.731
 3041W        W 4238   0.470   4.228   2.912
 3042W        W 4239   7.828   4.713   3.433
 3043W        W 4240   1.124   5.083   7.648
 3044W        W 4241   7.943   3.705   6.668
 3045W        W 4242   4.351   6.616   2.542
 3046W        W 4243   6.615   2.435   1.754
 3047W        W 4244   0.270   2.789   3.812
 3048W        W 4245   4.714   5.316   5.721
 3049W        W 4246   0.091   6.580   6.279
 3050W        W 4247   2.518   6.224   2.196
 3051W        W 4248   4.470   2.726   6.544
 3052W        W 4249   7.153   2.108   2.014
 3053W        W 4250   5.105   1.823   4.380
 3054W        W 4251   2.271   2.839   1.761
 3055W        W 4252   4.200   0.790   6.133
 3056W        W 4253   0.670   6.667   5.247
 3057W        W 4254   7.071   3.329   2.528
 3058W        W 4255   3.453   3.404   3.952
 3059W        W 4256   4.168   5.191   7.953
 3060W        W 4257   4.007   2.311   2.056
 3061W        W 4258   2.371   1.005   1.540
 3062W        W 4259   2.615   1.120   5.444
 3063W        W 4260   2.248   4.791   6.616
 3064W        W 4261   2.155   1.780   5.074
 3065W        W 4262   6.899   6.673   6.058
 3066W        W 4263   6.535   6.180   6.303
 3067W        W 4264   5.225   1.385   6.940
 3068W        W 4265   0.829   7.881   1.056
 3069W        W 4266   5.060   7.079   2.261
 3070W        W 4267   3.419   5.833   4.841
 3071W        W 4268   5.142   1.628   6.504
 3072W        W 4269   5.403   5.574   0.482
 3073W        W 4270   5.880   7.073   7.067
 3074W        W 4271   6.771   6.665   2.922
 3075W        W 4272   0.247   0.912   1.664
 3076W        W 4273   0.687   1.923   6.867
 3077W        W 4274   0.752   3.608   5.833
 3078W        W 4275   0.162   3.886   1.755
 3079W        W 4276   6.939   1.566   4.396
 3080W        W 4277   6.904   3.913   3.159
 3081W        W 4278   7.137   3.799   2.723
 3082W        W 4279   3.609   7.508   5.279
 3083W        W 4280   4.295   0.521   7.084
 3084W        W 4281   0.900   1.887   5.321
 3085W        W 4282   2.759   6.503   6.053
 3086W        W 4283   6.071   4.679   7.442
 3087W        W 4284   6.817   0.728   3.747
 3088W        W 4285   3.817   7.539   3.238
 3089W        W 4286   2.150   3.237   6.074
 3090W        W 4287   1.902   3.919   4.736
 3091W        W 4288   1.211   6.509   4.433
 3092W        W 4289   0.164   1.832   5.859
 3093W        W 4290   5.549   0.871   6.728
 3094W        W 4291   4.789   6.137   3.784
 3095W        W 4292   5.330   5.427   4.918
 3096W        W 4293   0.940   5.914   2.958
 3097W        W 4294   2.962   6.672   7.038
 3098W        W 4295   7.237   0.387   3.014
 3099W        W 4296   1.055   4.442   6.363
 3100W        W 4297   2.201   4.563   1.323
 3101W        W 4298   5.326   6.435   4.672
 3102W        W 4299   0.849   1.881   2.164
 3103W        W 4300   6.091   0.844   1.767
 3104W        W 4301   2.295   0.562   2.909
 3105W        W 4302   6.614   1.609   6.173
 3106W        W 4303   2.049   6.838   1.714
 3107W        W 4304   1.073   6.273   2.635
 3108W        W 4305   6.293   4.549   4.707
 3109W        W 4306   3.000   4.945   1.232
 3110W        W 4307   3.295   3.008   2.993
 3111W        W 4308   7.921   3.804   6.153
 3112W        W 4309   1.012   6.940   1.543
 3113W        W 4310   2.073   3.968   7.780
 3114W        W 4311   0.086   2.966   2.781
 3115W        W 4312   6.615   5.001   4.875
 3116W        W 4313   4.834   3.667   6.379
 3117W        W 4314   1.894   2.751   6.733
 3118W        W 4315   7.381   6.239   3.398
 3119W        W 4316   4.407   2.221   2.475
 3120W        W 4317   7.487   1.311   1.801
 3121W        W 4318   1.896   5.802   4.723
 3122W        W 4319   3.498   3.029   2.506
 3123W        W 4320   1.917   3.136   0.071
 3124W        W 4321   6.765   1.097   6.234
 3125W        W 4322   5.523   4.061   3.738
 3126W        W 4323   3.920   4.368   0.062
 3127W        W 4324   6.778   2.231   0.702
 3128W        W 4325   4.854   3.328   3.528
 3129W        W 4326   3.067   5.657   1.535
 3130W        W 4327   6.256   4.581   7.935
 3131W        W 4328   6.047   6.274   6.331
 3132W        W 4329   3.584   4.056   5.668
 3133W        W 4330   1.359   4.040   0.388
 3134W        W 4331   1.070   6.145   5.903
 3135W        W 4332   7.565   4.343   1.205
 3136W        W 4333   0.814   3.187   4.581
 3137W        W 4334   5.167   2.595   2.873
 3138W        W 4335   4.266   5.013   4.257
 3139W        W 4336   2.628   4.084   5.454
 3140W        W 4337   2.891   2.772   7.477
 3141W        W 4338   4.762   5.159   2.207
 3142W        W 4339   5.272   4.765   3.021
 3143W        W 4340   5.527   7.132   2.581
 3144W        W 4341   5.396   5.291   2.800
 3145W        W 4342   7.222   1.318   5.950
 3146W        W 4343   3.201   3.020   4.187
 3147W        W 4344   5.723   1.820   3.927
 3148W        W 4345   0.002   1.942   1.895
 3149W        W 4346   3.054   4.700   0.792
 3150W        W 4347   1.870   7.980   1.359
 3151W        W 4348   1.507   5.381   7.517
 3152W        W 4349   4.874   2.347   0.486
 3153W        W 4350   4.690   0.211   6.450
 3154W        W 4351   6.180   2.131   1.889
 3155W        W 4352   5.674   1.012   2.130
   8.00000   8.00000   8.00000
