Martini system from ../2_Creating_coordinates/TYR-LYS-TYR_aa.pdb
 4256
    1TYR     BB    1   2.831   1.398   1.772  0.3748  0.0529 -0.1326
    1TYR    SC1    2   2.717   1.646   1.718 -0.1788 -0.0841  0.0360
    1TYR    SC2    3   2.786   1.801   1.507 -0.2542 -0.2095 -0.0825
    1TYR    SC3    4   2.677   1.913   1.727 -0.1576 -0.0752 -0.1022
    2LYS     BB    5   2.915   1.226   1.526 -0.1482  0.1300  0.0024
    2LYS    SC1    6   3.249   1.232   1.616  0.0893  0.2443 -0.1405
    2LYS    SC2    7   3.418   1.315   1.745 -0.0569  0.1901 -0.1382
    3TYR     BB    8   2.811   1.073   1.292  0.1607  0.0097 -0.0391
    3TYR    SC1    9   3.028   0.944   1.054 -0.1639  0.1809 -0.2906
    3TYR    SC2   10   3.102   1.017   0.805  0.4863  0.2293 -0.1052
    3TYR    SC3   11   3.260   0.853   0.950  0.0072  0.0121  0.2034
    1TYR     BB   12   4.308   7.041   5.891  0.1366 -0.0351 -0.0665
    1TYR    SC1   13   4.002   7.023   5.919 -0.1043 -0.1619 -0.1940
    1TYR    SC2   14   3.788   7.042   6.082 -0.0533  0.3417 -0.1659
    1TYR    SC3   15   3.754   7.046   5.815 -0.1201 -0.2893 -0.1872
    2LYS     BB   16   4.518   7.015   6.097  0.1437 -0.1532 -0.0234
    2LYS    SC1   17   4.386   6.949   6.363 -0.0320  0.0387  0.2765
    2LYS    SC2   18   4.119   6.992   6.404  0.1973 -0.4649 -0.1461
    3TYR     BB   19   4.776   7.088   6.094  0.2930 -0.0069  0.3363
    3TYR    SC1   20   4.958   6.862   6.027  0.1747  0.0122 -0.0705
    3TYR    SC2   21   5.214   6.789   5.978  0.2563  0.0813  0.2293
    3TYR    SC3   22   5.060   6.640   6.143  0.1229  0.0775  0.1038
    1TYR     BB   23   4.309   5.825   5.471 -0.0871 -0.0295 -0.0287
    1TYR    SC1   24   4.017   5.752   5.407 -0.2530 -0.1628  0.1111
    1TYR    SC2   25   3.852   5.538   5.397 -0.0985 -0.2780 -0.0395
    1TYR    SC3   26   3.771   5.774   5.296 -0.1618 -0.3414 -0.1393
    2LYS     BB   27   4.284   6.036   5.644 -0.1572  0.2715 -0.0391
    2LYS    SC1   28   3.991   6.011   5.793 -0.1108  0.0482 -0.0624
    2LYS    SC2   29   3.813   6.035   6.020 -0.1755  0.1528  0.2281
    3TYR     BB   30   4.475   6.037   5.878 -0.0352 -0.0820 -0.1239
    3TYR    SC1   31   4.649   6.295   5.809  0.0206  0.0754 -0.1598
    3TYR    SC2   32   4.896   6.404   5.808 -0.0522  0.2464 -0.0933
    3TYR    SC3   33   4.681   6.560   5.855 -0.1706  0.0927 -0.1173
    1TYR     BB   34   0.798   6.013   3.360  0.2788 -0.2309  0.2060
    1TYR    SC1   35   0.517   6.099   3.316  0.0704  0.1822  0.0010
    1TYR    SC2   36   0.255   6.118   3.379  0.0693  0.1657  0.0013
    1TYR    SC3   37   0.375   6.318   3.243  0.0145  0.0972 -0.1502
    2LYS     BB   38   0.979   6.159   3.161  0.0713  0.3978 -0.2951
    2LYS    SC1   39   1.304   6.125   3.047  0.0461  0.3451 -0.1114
    2LYS    SC2   40   1.455   6.323   2.984 -0.5203  0.1673  0.0407
    3TYR     BB   41   0.854   6.424   2.997  0.0345  0.0173 -0.0831
    3TYR    SC1   42   1.047   6.599   3.180 -0.0805 -0.1933 -0.1927
    3TYR    SC2   43   1.111   6.838   3.288 -0.2004 -0.1006 -0.3212
    3TYR    SC3   44   1.268   6.623   3.332 -0.1813 -0.0383 -0.0665
    1TYR     BB   45   7.422   6.956   2.235  0.0339 -0.0559 -0.0908
    1TYR    SC1   46   7.733   6.864   2.338  0.0135  0.0039 -0.2578
    1TYR    SC2   47   7.915   6.715   2.471 -0.0494  0.0796 -0.0838
    1TYR    SC3   48   7.926   6.984   2.484 -0.0799  0.0872 -0.2015
    2LYS     BB   49   7.358   6.891   1.992  0.1703 -0.1887 -0.0611
    2LYS    SC1   50   7.568   6.682   1.889 -0.3464 -0.1393 -0.0262
    2LYS    SC2   51   7.844   6.628   1.836  0.0488 -0.1221  0.0325
    3TYR     BB   52   7.327   7.003   1.638  0.1693  0.2168  0.0466
    3TYR    SC1   53   7.495   6.827   1.427  0.4223  0.3289 -0.0855
    3TYR    SC2   54   7.552   6.835   1.163 -0.0583 -0.2404 -0.2351
    3TYR    SC3   55   7.499   6.599   1.282  0.1230  0.0044  0.3817
    1TYR     BB   56   7.590   5.326   2.547  0.2779  0.1632 -0.2229
    1TYR    SC1   57   7.494   5.181   2.325 -0.1365  0.2437 -0.1746
    1TYR    SC2   58   7.326   5.110   2.126 -0.0510 -0.0132 -0.1601
    1TYR    SC3   59   7.589   5.049   2.110  0.0062  0.2014 -0.0879
    2LYS     BB   60   7.462   5.415   2.857  0.0182  0.3318  0.0596
    2LYS    SC1   61   7.663   5.189   3.025  0.0882  0.0471 -0.0678
    2LYS    SC2   62   7.853   5.014   2.963 -0.2598 -0.0590  0.0947
    3TYR     BB   63   7.245   5.588   2.944  0.0608 -0.2259  0.4143
    3TYR    SC1   64   7.217   5.862   2.815  0.1818 -0.0122 -0.3639
    3TYR    SC2   65   7.217   6.129   2.854 -0.0428 -0.0375 -0.1607
    3TYR    SC3   66   7.288   6.027   2.615  0.1733  0.1953 -0.2001
    1TYR     BB   67   4.646   4.649   5.566  0.2035 -0.1257  0.3412
    1TYR    SC1   68   4.551   4.771   5.812 -0.3986  0.3449 -0.2287
    1TYR    SC2   69   4.411   4.659   6.015  0.2442 -0.1101  0.0061
    1TYR    SC3   70   4.586   4.859   6.065  0.3789 -0.1985 -0.1012
    2LYS     BB   71   4.452   4.514   5.420 -0.0353  0.0879  0.1380
    2LYS    SC1   72   4.180   4.606   5.498  0.0682 -0.2297  0.2720
    2LYS    SC2   73   3.990   4.701   5.669 -0.0710 -0.1592 -0.0720
    3TYR     BB   74   4.560   4.374   5.143  0.2229 -0.0366 -0.1484
    3TYR    SC1   75   4.623   4.059   5.112  0.1800  0.2073 -0.4844
    3TYR    SC2   76   4.545   3.801   5.121 -0.0557  0.2807  0.0894
    3TYR    SC3   77   4.807   3.862   5.114  0.0255  0.0143  0.4257
    1TYR     BB   78   3.861   6.259   5.358 -0.0713  0.0321  0.0045
    1TYR    SC1   79   4.063   6.177   5.168  0.1074  0.2574  0.0338
    1TYR    SC2   80   4.130   5.999   4.976 -0.1997  0.1743 -0.0038
    1TYR    SC3   81   4.302   6.196   5.044 -0.0074  0.0890 -0.2247
    2LYS     BB   82   3.597   6.259   5.211 -0.0921  0.1473  0.0613
    2LYS    SC1   83   3.333   6.407   5.309  0.0088  0.2238 -0.0823
    2LYS    SC2   84   3.072   6.416   5.405 -0.1202 -0.1106  0.0387
    3TYR     BB   85   3.580   6.242   4.917  0.1713 -0.3292  0.0787
    3TYR    SC1   86   3.589   6.518   4.747 -0.3738 -0.0453 -0.0477
    3TYR    SC2   87   3.696   6.628   4.525 -0.2396 -0.0096  0.0334
    3TYR    SC3   88   3.608   6.786   4.725 -0.2843 -0.0437  0.0409
    1TYR     BB   89   3.657   2.504   1.624 -0.1838 -0.0532 -0.3570
    1TYR    SC1   90   3.861   2.402   1.807 -0.1622 -0.1615 -0.0427
    1TYR    SC2   91   3.970   2.231   1.985  0.2692  0.0574 -0.0801
    1TYR    SC3   92   4.130   2.382   1.827 -0.0802  0.6449  0.0889
    2LYS     BB   93   3.335   2.340   1.752 -0.0327  0.0281 -0.1489
    2LYS    SC1   94   3.417   2.228   2.018  0.0098  0.1240  0.1760
    2LYS    SC2   95   3.540   2.169   2.206 -0.1767 -0.2159 -0.2797
    3TYR     BB   96   3.128   2.173   1.616 -0.0087  0.0085  0.1078
    3TYR    SC1   97   2.894   2.309   1.564  0.0975 -0.0723  0.0698
    3TYR    SC2   98   2.792   2.541   1.469  0.1124 -0.1286 -0.0879
    3TYR    SC3   99   2.654   2.397   1.651  0.0805 -0.0215 -0.0262
    1TYR     BB  100   0.673   5.814   2.406  0.1116  0.4551 -0.3163
    1TYR    SC1  101   0.526   6.062   2.308 -0.4242  0.0798  0.4804
    1TYR    SC2  102   0.452   6.234   2.113 -0.0335 -0.2800 -0.0197
    1TYR    SC3  103   0.306   6.216   2.340 -0.4637  0.2138 -0.2303
    2LYS     BB  104   0.462   5.563   2.418  0.0846 -0.1863  0.1978
    2LYS    SC1  105   0.358   5.377   2.207 -0.2609 -0.0025 -0.0525
    2LYS    SC2  106   0.386   5.215   2.028  0.0622 -0.0510 -0.0385
    3TYR     BB  107   0.382   5.413   2.712 -0.3919 -0.2248 -0.1660
    3TYR    SC1  108   0.677   5.530   2.860 -0.0718 -0.1924  0.2716
    3TYR    SC2  109   0.873   5.409   3.001  0.2531 -0.3608 -0.2809
    3TYR    SC3  110   0.862   5.679   2.988  0.0296 -0.3252  0.2826
    1TYR     BB  111   4.940   1.481   4.677  0.0935 -0.0753  0.2124
    1TYR    SC1  112   4.970   1.728   4.569  0.2779  0.1302  0.1726
    1TYR    SC2  113   5.035   1.971   4.666  0.8126  0.1711 -0.2291
    1TYR    SC3  114   4.906   1.950   4.430  0.4436  0.0567 -0.0275
    2LYS     BB  115   4.661   1.313   4.732  0.1544 -0.3962 -0.1738
    2LYS    SC1  116   4.713   1.151   4.485 -0.0828 -0.1168 -0.0038
    2LYS    SC2  117   4.780   1.022   4.291  0.1142  0.0690 -0.0402
    3TYR     BB  118   4.388   1.307   4.912  0.0544  0.1012  0.0754
    3TYR    SC1  119   4.372   1.394   5.218 -0.1448  0.2288  0.0374
    3TYR    SC2  120   4.540   1.312   5.412 -0.1065 -0.3102 -0.1994
    3TYR    SC3  121   4.274   1.308   5.454 -0.0900 -0.1489 -0.0674
    1TYR     BB  122   3.762   2.081   0.830  0.1813 -0.0059 -0.0962
    1TYR    SC1  123   3.632   1.804   0.836  0.0932 -0.0079 -0.1835
    1TYR    SC2  124   3.396   1.721   0.735 -0.0020  0.1969 -0.1358
    1TYR    SC3  125   3.554   1.548   0.868 -0.3542  0.1638  0.2695
    2LYS     BB  126   3.815   2.200   0.526  0.3163 -0.1298 -0.1399
    2LYS    SC1  127   4.036   2.341   0.474 -0.0998  0.2260  0.1915
    2LYS    SC2  128   4.133   2.535   0.341  0.0308 -0.0061 -0.0186
    3TYR     BB  129   3.675   1.966   0.338  0.1049 -0.0305  0.1233
    3TYR    SC1  130   3.796   1.735   0.425  0.2054  0.2718  0.0565
    3TYR    SC2  131   3.773   1.467   0.446 -0.0284  0.2598 -0.2561
    3TYR    SC3  132   3.961   1.599   0.590  0.2812 -0.1024 -0.3097
    1TYR     BB  133   0.151   6.755   3.336 -0.0931  0.1491 -0.1889
    1TYR    SC1  134   0.093   6.885   3.612 -0.0485 -0.3096  0.0911
    1TYR    SC2  135   0.244   6.992   3.810 -0.1424  0.0578 -0.0249
    1TYR    SC3  136  -0.025   6.985   3.833 -0.1821  0.4266 -0.2739
    2LYS     BB  137   0.493   6.772   3.193 -0.0083  0.1414  0.1972
    2LYS    SC1  138   0.617   6.878   3.447  0.0070 -0.0105 -0.0540
    2LYS    SC2  139   0.776   6.954   3.638 -0.2477 -0.1738 -0.0735
    3TYR     BB  140   0.443   6.745   2.931  0.0622 -0.1465  0.0893
    3TYR    SC1  141   0.696   6.893   2.810 -0.0934  0.1952  0.1360
    3TYR    SC2  142   0.781   6.970   2.565 -0.0192 -0.0885  0.0672
    3TYR    SC3  143   0.957   6.873   2.745 -0.1060 -0.0822  0.1568
    1TYR     BB  144   4.986   0.437   5.889 -0.0781  0.1210 -0.1336
    1TYR    SC1  145   5.200   0.496   6.127 -0.1942 -0.0588 -0.2736
    1TYR    SC2  146   5.301   0.638   6.334 -0.3057  0.0218 -0.2731
    1TYR    SC3  147   5.362   0.376   6.306 -0.0644  0.0784 -0.2970
    2LYS     BB  148   4.790   0.614   5.826 -0.0464  0.0649 -0.2305
    2LYS    SC1  149   4.560   0.583   6.004  0.2600  0.0455  0.1485
    2LYS    SC2  150   4.391   0.608   6.191 -0.3351  0.2440 -0.4451
    3TYR     BB  151   4.722   0.735   5.561  0.0918 -0.0748 -0.0968
    3TYR    SC1  152   4.605   0.704   5.332 -0.0038  0.0511 -0.1401
    3TYR    SC2  153   4.447   0.665   5.116 -0.0967 -0.2987 -0.0179
    3TYR    SC3  154   4.521   0.915   5.186 -0.7263 -0.0993  0.0098
    1TYR     BB  155   2.598   1.948   7.444 -0.2008 -0.1996 -0.0493
    1TYR    SC1  156   2.650   1.694   7.255 -0.0297 -0.2902  0.1220
    1TYR    SC2  157   2.505   1.603   7.047  0.0179  0.2977 -0.1939
    1TYR    SC3  158   2.763   1.531   7.072 -0.0647 -0.0046 -0.1659
    2LYS     BB  159   2.513   2.202   7.134  0.1448  0.0780 -0.2570
    2LYS    SC1  160   2.252   2.291   7.231 -0.3393  0.2303 -0.0289
    2LYS    SC2  161   2.050   2.282   7.346 -0.1864 -0.1606 -0.1961
    3TYR     BB  162   2.669   2.049   6.948  0.1294 -0.3479  0.0968
    3TYR    SC1  163   2.918   1.957   6.908 -0.1936  0.0264 -0.0303
    3TYR    SC2  164   3.109   1.769   6.945 -0.1719  0.0293 -0.1248
    3TYR    SC3  165   3.178   2.029   6.922 -0.2329  0.1179  0.4846
    1TYR     BB  166   5.212   6.177   5.415 -0.0763  0.1927 -0.1041
    1TYR    SC1  167   5.307   6.246   5.703  0.1476  0.1598 -0.0274
    1TYR    SC2  168   5.565   6.277   5.776  0.1352  0.0927  0.0464
    1TYR    SC3  169   5.370   6.402   5.915  0.0964 -0.1894  0.2552
    2LYS     BB  170   5.338   5.914   5.305 -0.2555 -0.1738  0.2980
    2LYS    SC1  171   5.458   5.681   5.482 -0.0521  0.2764  0.0465
    2LYS    SC2  172   5.593   5.517   5.543 -0.1462  0.0959  0.3567
    3TYR     BB  173   5.063   5.731   5.195 -0.0348  0.1529 -0.0980
    3TYR    SC1  174   5.145   5.648   4.925 -0.1034  0.1471  0.0980
    3TYR    SC2  175   5.209   5.532   4.690 -0.1075  0.0003  0.1678
    3TYR    SC3  176   5.263   5.794   4.731 -0.1181  0.0301  0.0000
    1TYR     BB  177   3.790   3.611   1.041  0.0508  0.0545  0.4592
    1TYR    SC1  178   3.820   3.926   1.101 -0.3439 -0.0957 -0.2135
    1TYR    SC2  179   3.654   3.997   1.302 -0.0669 -0.2639  0.0879
    1TYR    SC3  180   3.841   4.171   1.212 -0.1332 -0.2196  0.0344
    2LYS     BB  181   3.787   3.456   1.356  0.4443  0.1210  0.0778
    2LYS    SC1  182   4.043   3.618   1.422 -0.1410 -0.0433 -0.0576
    2LYS    SC2  183   4.253   3.796   1.362  0.0583 -0.1354 -0.0635
    3TYR     BB  184   3.554   3.369   1.445  0.0080  0.1852  0.0420
    3TYR    SC1  185   3.389   3.640   1.572 -0.0987  0.1816  0.0866
    3TYR    SC2  186   3.181   3.812   1.568 -0.1609  0.1105  0.1991
    3TYR    SC3  187   3.416   3.888   1.677  0.0361  0.3668 -0.3567
    1TYR     BB  188   4.315   7.109   4.925  0.2116 -0.0699 -0.0595
    1TYR    SC1  189   4.259   7.383   4.974  0.2122  0.0875 -0.0238
    1TYR    SC2  190   4.088   7.591   4.994  0.2541  0.1773 -0.4568
    1TYR    SC3  191   4.326   7.599   5.122 -0.0670  0.0222  0.2094
    2LYS     BB  192   4.073   6.913   4.959 -0.0495  0.0005  0.1228
    2LYS    SC1  193   3.810   7.175   4.952  0.0076  0.0676  0.3135
    2LYS    SC2  194   3.539   7.193   5.000  0.3096 -0.0297  0.2463
    3TYR     BB  195   4.045   6.671   4.993 -0.1082  0.1043  0.0237
    3TYR    SC1  196   4.127   6.479   4.727  0.1315 -0.0354 -0.0007
    3TYR    SC2  197   4.021   6.254   4.623  0.3113 -0.1972  0.1581
    3TYR    SC3  198   4.158   6.424   4.464  0.4098 -0.3393  0.0875
    1TYR     BB  199   5.695   6.636   4.372 -0.1377  0.0630 -0.0770
    1TYR    SC1  200   5.566   6.803   4.182 -0.1656 -0.0576  0.1334
    1TYR    SC2  201   5.687   7.031   4.100 -0.3899 -0.0470 -0.1914
    1TYR    SC3  202   5.448   6.959   3.996 -0.3620 -0.3938 -0.0360
    2LYS     BB  203   5.694   6.329   4.262 -0.1161 -0.0804 -0.1196
    2LYS    SC1  204   5.450   6.330   4.022 -0.1251 -0.1635  0.0102
    2LYS    SC2  205   5.222   6.255   3.940  0.1914  0.0187  0.1025
    3TYR     BB  206   5.933   6.142   4.255  0.1903 -0.3906 -0.0195
    3TYR    SC1  207   6.193   6.126   4.422  0.1501 -0.0940 -0.0905
    3TYR    SC2  208   6.261   6.160   4.681  0.2082  0.1611 -0.1359
    3TYR    SC3  209   6.438   6.052   4.508  0.0609 -0.3056 -0.0116
    1TYR     BB  210   5.040   0.064   5.468 -0.1387  0.2594 -0.2521
    1TYR    SC1  211   5.179  -0.161   5.626  0.0233  0.0422  0.1088
    1TYR    SC2  212   5.359  -0.355   5.576  0.2055  0.1987  0.1424
    1TYR    SC3  213   5.145  -0.407   5.732  0.2399  0.0205  0.1337
    2LYS     BB  214   5.185   0.288   5.476 -0.0933 -0.0099  0.2282
    2LYS    SC1  215   5.435   0.297   5.697 -0.0359  0.0527  0.1203
    2LYS    SC2  216   5.565   0.125   5.844  0.0634  0.2368 -0.2712
    3TYR     BB  217   5.217   0.558   5.339 -0.2995 -0.0052 -0.0417
    3TYR    SC1  218   5.014   0.541   5.117  0.2017  0.0394 -0.4989
    3TYR    SC2  219   4.980   0.436   4.871 -0.1433 -0.3480 -0.3021
    3TYR    SC3  220   4.783   0.417   5.054  0.1352 -0.1411  0.0351
    1TYR     BB  221   4.242   6.581   5.510  0.0752 -0.0853  0.0293
    1TYR    SC1  222   4.464   6.765   5.523 -0.1833  0.4449 -0.1895
    1TYR    SC2  223   4.581   6.888   5.314 -0.1643  0.4702 -0.1641
    1TYR    SC3  224   4.677   6.925   5.563 -0.2225  0.4863 -0.1440
    2LYS     BB  225   4.154   6.505   5.778  0.1349 -0.2591  0.1964
    2LYS    SC1  226   3.854   6.493   5.801 -0.0338 -0.2986  0.2755
    2LYS    SC2  227   3.641   6.582   5.859  0.3753 -0.0662 -0.3723
    3TYR     BB  228   4.200   6.581   6.110 -0.1654  0.2010 -0.4682
    3TYR    SC1  229   4.509   6.484   6.230  0.1187 -0.0421 -0.3426
    3TYR    SC2  230   4.689   6.507   6.430 -0.2790  0.3893 -0.0056
    3TYR    SC3  231   4.686   6.285   6.276  0.1997  0.1498  0.2989
    1TYR     BB  232   7.239   6.535   3.177 -0.0833  0.0703  0.2727
    1TYR    SC1  233   7.372   6.541   3.449 -0.2319 -0.0437  0.0183
    1TYR    SC2  234   7.444   6.541   3.710 -0.3299  0.0276  0.0460
    1TYR    SC3  235   7.555   6.364   3.539  0.0091  0.2175  0.0597
    2LYS     BB  236   7.361   6.901   3.073 -0.0569 -0.4915 -0.0715
    2LYS    SC1  237   7.459   7.108   3.248 -0.2568 -0.0864 -0.2974
    2LYS    SC2  238   7.514   7.322   3.462 -0.1746 -0.1644  0.1772
    3TYR     BB  239   7.559   6.824   2.810 -0.0192  0.0347  0.0916
    3TYR    SC1  240   7.624   6.540   2.860 -0.2666 -0.0242  0.3464
    3TYR    SC2  241   7.628   6.298   2.741 -0.1937  0.1630 -0.0541
    3TYR    SC3  242   7.614   6.316   3.010 -0.2348 -0.2801 -0.0168
    1TYR     BB  243   2.956   2.430   7.086  0.1467 -0.0891 -0.2006
    1TYR    SC1  244   3.198   2.618   7.027  0.0409  0.1555 -0.1110
    1TYR    SC2  245   3.442   2.722   7.076  0.1548 -0.0541 -0.2207
    1TYR    SC3  246   3.250   2.876   6.965  0.1781  0.1630  0.0287
    2LYS     BB  247   2.907   2.425   7.379  0.1112  0.2024 -0.0534
    2LYS    SC1  248   3.082   2.637   7.509 -0.3075 -0.0697 -0.0221
    2LYS    SC2  249   3.240   2.849   7.517 -0.0615 -0.1293 -0.0314
    3TYR     BB  250   2.673   2.480   7.586 -0.1201 -0.0790 -0.1489
    3TYR    SC1  251   2.454   2.624   7.442 -0.0103  0.1681  0.2090
    3TYR    SC2  252   2.220   2.740   7.512 -0.1105  0.1018 -0.0059
    3TYR    SC3  253   2.316   2.769   7.261 -0.1172 -0.2420 -0.0544
    1TYR     BB  254   4.360   3.093   4.711  0.4788 -0.0409 -0.1515
    1TYR    SC1  255   4.561   3.204   4.886  0.0755 -0.3931  0.4200
    1TYR    SC2  256   4.824   3.259   4.858 -0.0595  0.1256 -0.0736
    1TYR    SC3  257   4.683   3.375   5.057  0.0009  0.1859 -0.0654
    2LYS     BB  258   4.088   2.935   4.865 -0.0422 -0.1177 -0.0107
    2LYS    SC1  259   3.842   3.092   4.955 -0.0238  0.0046  0.1436
    2LYS    SC2  260   3.616   3.296   5.002  0.2401 -0.2320 -0.1891
    3TYR     BB  261   4.127   2.625   4.864 -0.3174 -0.0834  0.0355
    3TYR    SC1  262   4.187   2.446   5.098 -0.2202  0.2224  0.3765
    3TYR    SC2  263   4.281   2.343   5.329  0.1621 -0.0063  0.1326
    3TYR    SC3  264   4.358   2.237   5.093 -0.2125  0.2264 -0.1067
    1TYR     BB  265   7.571   5.522   1.994 -0.1665 -0.1038 -0.0372
    1TYR    SC1  266   7.272   5.567   2.196 -0.1549 -0.1067  0.1226
    1TYR    SC2  267   7.011   5.628   2.228 -0.2872 -0.4235 -0.2558
    1TYR    SC3  268   7.175   5.622   2.442 -0.4883  0.1711 -0.0601
    2LYS     BB  269   7.487   5.718   1.669  0.1263  0.4055  0.0254
    2LYS    SC1  270   7.708   5.503   1.543  0.1865  0.0796 -0.2808
    2LYS    SC2  271   7.803   5.525   1.313  0.0672 -0.0968  0.0912
    3TYR     BB  272   7.218   5.790   1.696  0.2340 -0.1938 -0.0288
    3TYR    SC1  273   6.996   5.928   1.504 -0.1324  0.1789  0.0049
    3TYR    SC2  274   6.818   6.040   1.335  0.0010  0.1334 -0.1691
    3TYR    SC3  275   6.883   5.780   1.309  0.0158  0.1235 -0.0404
    1TYR     BB  276   0.041   5.762   2.480  0.3914  0.0110  0.1636
    1TYR    SC1  277  -0.016   5.944   2.252  0.1530  0.1444  0.1785
    1TYR    SC2  278  -0.239   5.974   2.103  0.2643 -0.0546 -0.0372
    1TYR    SC3  279  -0.004   6.075   2.016  0.3067 -0.0625  0.0670
    2LYS     BB  280   0.108   5.844   2.793  0.0523 -0.3456  0.1247
    2LYS    SC1  281   0.367   5.951   2.765 -0.0594  0.0397  0.0416
    2LYS    SC2  282   0.569   6.058   2.819  0.0415  0.1413 -0.1262
    3TYR     BB  283   0.028   5.827   3.086 -0.0991 -0.2400  0.1465
    3TYR    SC1  284   0.271   5.659   3.211 -0.1218 -0.0896  0.1565
    3TYR    SC2  285   0.525   5.636   3.301 -0.0768 -0.0124  0.0517
    3TYR    SC3  286   0.387   5.416   3.227  0.0658 -0.0296 -0.1759
    1TYR     BB  287   3.965   1.773   1.229 -0.1170 -0.0778  0.3417
    1TYR    SC1  288   4.183   1.901   0.992  0.1535  0.4208  0.2887
    1TYR    SC2  289   4.323   2.117   0.910  0.1723  0.3791  0.2097
    1TYR    SC3  290   4.203   1.957   0.728 -0.0729  0.4767  0.2802
    2LYS     BB  291   4.019   1.974   1.522 -0.1275 -0.1009 -0.0458
    2LYS    SC1  292   4.197   1.761   1.678  0.0222  0.1255  0.1128
    2LYS    SC2  293   4.283   1.563   1.861  0.1909 -0.0615 -0.0016
    3TYR     BB  294   3.667   1.910   1.735  0.1636 -0.1203 -0.1241
    3TYR    SC1  295   3.565   1.710   1.544  0.0875  0.2122 -0.1447
    3TYR    SC2  296   3.528   1.628   1.289 -0.0401  0.1186 -0.0976
    3TYR    SC3  297   3.315   1.686   1.444  0.0326  0.0877  0.0164
    1TYR     BB  298   0.405   6.548   3.712 -0.2140 -0.0407 -0.1309
    1TYR    SC1  299   0.691   6.417   3.663  0.1598 -0.1513 -0.1923
    1TYR    SC2  300   0.892   6.294   3.796  0.1605  0.1779  0.1315
    1TYR    SC3  301   0.946   6.446   3.579  0.1815 -0.2072 -0.1462
    2LYS     BB  302   0.240   6.508   3.931 -0.2128  0.2124 -0.1587
    2LYS    SC1  303   0.338   6.646   4.222 -0.0406  0.0240  0.0065
    2LYS    SC2  304   0.246   6.840   4.335  0.2614  0.0217 -0.2961
    3TYR     BB  305   0.165   6.216   4.026  0.1334  0.3910 -0.1828
    3TYR    SC1  306  -0.055   6.024   3.924 -0.2645 -0.1102  0.1890
    3TYR    SC2  307  -0.293   6.104   3.825 -0.1336  0.0059 -0.0434
    3TYR    SC3  308  -0.261   5.850   3.911 -0.2786 -0.0754 -0.2210
    1TYR     BB  309   5.672   5.615   4.999 -0.2032 -0.2279 -0.1204
    1TYR    SC1  310   5.499   5.395   5.083  0.0259 -0.0561  0.2842
    1TYR    SC2  311   5.471   5.129   5.114 -0.2030 -0.0802 -0.0597
    1TYR    SC3  312   5.288   5.297   5.220 -0.1169 -0.0625  0.0647
    2LYS     BB  313   5.796   5.660   4.707  0.1428  0.1967  0.2662
    2LYS    SC1  314   6.128   5.734   4.838 -0.0069  0.1763 -0.1685
    2LYS    SC2  315   6.395   5.725   4.943 -0.2842 -0.1953 -0.3060
    3TYR     BB  316   5.786   5.744   4.494  0.0241 -0.0535  0.3070
    3TYR    SC1  317   5.531   5.686   4.290 -0.0079 -0.0735 -0.1088
    3TYR    SC2  318   5.351   5.833   4.151 -0.0662 -0.1253 -0.0886
    3TYR    SC3  319   5.349   5.563   4.133 -0.0078 -0.1274 -0.0669
    1TYR     BB  320   5.043   4.370   5.410  0.2722 -0.0100  0.0683
    1TYR    SC1  321   4.859   4.170   5.515  0.0789 -0.3168 -0.2190
    1TYR    SC2  322   4.824   3.988   5.712 -0.0257 -0.0399  0.0289
    1TYR    SC3  323   4.627   4.033   5.533  0.0109 -0.1842 -0.0500
    2LYS     BB  324   5.093   4.295   5.056 -0.0885  0.2113  0.1985
    2LYS    SC1  325   5.404   4.174   4.984  0.1475  0.1678 -0.1238
    2LYS    SC2  326   5.539   3.941   5.019  0.0948  0.1018 -0.0923
    3TYR     BB  327   4.956   4.324   4.842 -0.4608 -0.0383  0.0765
    3TYR    SC1  328   4.823   4.555   4.739 -0.0635 -0.4624  0.2262
    3TYR    SC2  329   4.717   4.801   4.768  0.3650 -0.2060 -0.2082
    3TYR    SC3  330   4.584   4.613   4.627  0.0744 -0.2065  0.0535
    1TYR     BB  331   6.388   0.093   4.154 -0.0725  0.0221  0.2714
    1TYR    SC1  332   6.235  -0.188   4.044  0.0842  0.0292  0.1763
    1TYR    SC2  333   6.227  -0.451   3.986 -0.0030  0.0601  0.0423
    1TYR    SC3  334   6.005  -0.326   4.075  0.0690  0.0642  0.2215
    2LYS     BB  335   6.511   0.212   3.955 -0.1513  0.0167  0.0280
    2LYS    SC1  336   6.824   0.251   4.029 -0.1331  0.1165  0.0090
    2LYS    SC2  337   7.004   0.293   3.869 -0.0934  0.2041  0.2173
    3TYR     BB  338   6.487   0.153   3.615 -0.3178  0.0241 -0.0184
    3TYR    SC1  339   6.691  -0.064   3.597  0.2396  0.2353  0.1663
    3TYR    SC2  340   6.777  -0.251   3.772 -0.2404  0.0656  0.2407
    3TYR    SC3  341   6.950  -0.139   3.597  0.0997 -0.3013  0.3247
    1TYR     BB  342   3.751   2.172   5.242 -0.3312 -0.1138 -0.2940
    1TYR    SC1  343   3.634   2.413   5.103  0.1697  0.1509 -0.1542
    1TYR    SC2  344   3.407   2.545   5.042  0.0482  0.0744  0.1166
    1TYR    SC3  345   3.646   2.667   5.014 -0.0318  0.1946 -0.0628
    2LYS     BB  346   3.678   2.234   5.606 -0.2808  0.0535 -0.0540
    2LYS    SC1  347   3.390   2.252   5.557  0.1877 -0.2063  0.0637
    2LYS    SC2  348   3.223   2.173   5.434  0.0556  0.0390 -0.0195
    3TYR     BB  349   3.705   2.451   5.870 -0.0344  0.2803 -0.2395
    3TYR    SC1  350   3.452   2.467   6.011  0.0477  0.0381  0.1442
    3TYR    SC2  351   3.328   2.446   6.250 -0.0374 -0.0573  0.0924
    3TYR    SC3  352   3.310   2.675   6.108 -0.2558 -0.1098  0.0311
    1TYR     BB  353   2.612   3.491   0.105  0.2811  0.2233 -0.3189
    1TYR    SC1  354   2.308   3.440   0.080 -0.0046 -0.0540  0.0281
    1TYR    SC2  355   2.053   3.493   0.009  0.0467  0.0121 -0.1113
    1TYR    SC3  356   2.155   3.246  -0.030  0.1358  0.0983 -0.4664
    2LYS     BB  357   2.670   3.315   0.474 -0.1435 -0.1764 -0.1991
    2LYS    SC1  358   2.435   3.259   0.652  0.2619 -0.1864 -0.2618
    2LYS    SC2  359   2.199   3.188   0.783 -0.0411  0.0427 -0.0245
    3TYR     BB  360   2.985   3.248   0.684  0.2856 -0.1090 -0.2102
    3TYR    SC1  361   2.870   3.108   0.885  0.2160  0.1999  0.0910
    3TYR    SC2  362   2.861   2.945   1.101  0.2860  0.2546  0.1356
    3TYR    SC3  363   2.662   2.939   0.919  0.3635  0.0066  0.0543
    1TYR     BB  364   0.542   5.961   3.814 -0.0196 -0.3803  0.2233
    1TYR    SC1  365   0.303   5.753   3.676 -0.0402  0.0440 -0.3420
    1TYR    SC2  366   0.184   5.520   3.609 -0.2028  0.0253 -0.0146
    1TYR    SC3  367   0.050   5.753   3.583 -0.1060  0.0657 -0.1685
    2LYS     BB  368   0.718   5.713   3.915  0.1859  0.0272  0.0604
    2LYS    SC1  369   0.911   5.663   3.630  0.2411  0.0413 -0.3106
    2LYS    SC2  370   1.050   5.588   3.471  0.1072 -0.1590 -0.0491
    3TYR     BB  371   0.671   5.359   4.075  0.2485  0.1157  0.2579
    3TYR    SC1  372   0.674   5.554   4.368  0.1424 -0.1486 -0.2261
    3TYR    SC2  373   0.553   5.790   4.419  0.0625 -0.2086 -0.1325
    3TYR    SC3  374   0.821   5.768   4.439  0.0377 -0.2287  0.2799
    1TYR     BB  375   5.473   4.654   4.843 -0.0537  0.2233 -0.1038
    1TYR    SC1  376   5.562   4.683   5.144 -0.1262  0.3195 -0.1598
    1TYR    SC2  377   5.718   4.767   5.348  0.0263 -0.0748 -0.1031
    1TYR    SC3  378   5.475   4.661   5.398  0.0037 -0.0408 -0.1393
    2LYS     BB  379   5.237   4.793   4.830  0.0118  0.2110  0.3661
    2LYS    SC1  380   5.116   4.770   5.102  0.0803 -0.2989 -0.0197
    2LYS    SC2  381   4.996   4.860   5.246  0.0180 -0.1125  0.3533
    3TYR     BB  382   5.135   4.951   4.532 -0.0929  0.0658  0.3317
    3TYR    SC1  383   5.371   5.118   4.504  0.1011  0.1893  0.2043
    3TYR    SC2  384   5.602   5.225   4.413  0.0873 -0.0280 -0.1062
    3TYR    SC3  385   5.571   5.175   4.677  0.3270  0.1568 -0.0387
    1TYR     BB  386   3.864   3.196   2.641 -0.0301  0.2308 -0.0668
    1TYR    SC1  387   4.141   3.119   2.474  0.0573 -0.0867  0.0980
    1TYR    SC2  388   4.362   2.964   2.471 -0.1009 -0.3182 -0.1048
    1TYR    SC3  389   4.279   3.085   2.244 -0.0443 -0.0220  0.0265
    2LYS     BB  390   3.543   3.037   2.565 -0.0523  0.4186  0.1024
    2LYS    SC1  391   3.496   2.788   2.729 -0.1734 -0.1433  0.0347
    2LYS    SC2  392   3.639   2.605   2.789 -0.2419  0.2159 -0.2071
    3TYR     BB  393   3.504   3.154   2.321 -0.3215  0.0663  0.2598
    3TYR    SC1  394   3.467   3.429   2.217  0.0187  0.0523  0.2045
    3TYR    SC2  395   3.401   3.657   2.347  0.3170  0.2101  0.0906
    3TYR    SC3  396   3.442   3.661   2.080  0.2247 -0.0010  0.0710
    1TYR     BB  397   6.485   5.854   3.980  0.0046  0.2961 -0.0037
    1TYR    SC1  398   6.755   5.710   3.904 -0.0646  0.0785  0.0356
    1TYR    SC2  399   6.947   5.870   3.802 -0.0488  0.0324 -0.0077
    1TYR    SC3  400   6.984   5.603   3.810 -0.1783  0.0079 -0.1685
    2LYS     BB  401   6.247   5.865   3.892 -0.2998  0.0355  0.1106
    2LYS    SC1  402   6.045   5.704   4.073 -0.2623 -0.0747 -0.0612
    2LYS    SC2  403   5.958   5.477   4.098 -0.0544  0.0482 -0.0381
    3TYR     BB  404   6.109   6.121   3.738  0.3786  0.0224 -0.3609
    3TYR    SC1  405   5.828   6.047   3.754 -0.1444 -0.1361  0.0969
    3TYR    SC2  406   5.592   5.952   3.662 -0.3065  0.1976  0.1488
    3TYR    SC3  407   5.662   5.915   3.921 -0.3292  0.1518  0.1485
    1TYR     BB  408   5.117   2.047   5.504  0.1840 -0.1827  0.0963
    1TYR    SC1  409   4.947   2.286   5.457  0.1125  0.0789  0.0058
    1TYR    SC2  410   4.711   2.413   5.428  0.1056  0.0709  0.0273
    1TYR    SC3  411   4.916   2.537   5.551  0.1268  0.0950 -0.0323
    2LYS     BB  412   5.307   2.033   5.701  0.1228 -0.1832  0.1515
    2LYS    SC1  413   5.255   2.324   5.893  0.3888 -0.2288 -0.0115
    2LYS    SC2  414   5.067   2.462   6.017 -0.3960 -0.0832 -0.2224
    3TYR     BB  415   5.443   1.895   5.976  0.0099 -0.0693 -0.1291
    3TYR    SC1  416   5.250   1.923   6.217  0.0081 -0.1834 -0.4390
    3TYR    SC2  417   5.015   1.878   6.341  0.2134  0.0996  0.0885
    3TYR    SC3  418   5.245   1.787   6.450  0.4063  0.3733 -0.0721
    1TYR     BB  419   2.817   2.904   7.141  0.0487 -0.1304 -0.2464
    1TYR    SC1  420   2.862   3.052   6.875 -0.1028  0.1900 -0.0374
    1TYR    SC2  421   2.786   3.140   6.632 -0.0119 -0.2559 -0.2408
    1TYR    SC3  422   3.029   3.207   6.729 -0.1654  0.1769 -0.1236
    2LYS     BB  423   2.756   3.084   7.375 -0.1701 -0.1045 -0.1333
    2LYS    SC1  424   2.521   3.234   7.313  0.0256  0.0079 -0.1018
    2LYS    SC2  425   2.514   3.490   7.247  0.0671 -0.1869  0.2087
    3TYR     BB  426   2.693   2.951   7.684  0.2569 -0.0433 -0.0758
    3TYR    SC1  427   2.470   2.907   7.874  0.1291  0.1317  0.1016
    3TYR    SC2  428   2.207   2.910   7.936  0.0746 -0.1631 -0.0908
    3TYR    SC3  429   2.385   2.795   8.104  0.1369  0.3190  0.1988
    1TYR     BB  430   4.610   2.578   4.774  0.0823  0.0646 -0.2059
    1TYR    SC1  431   4.783   2.358   4.867 -0.0657  0.0284 -0.0981
    1TYR    SC2  432   4.824   2.169   5.055 -0.5274  0.0563  0.0442
    1TYR    SC3  433   5.027   2.330   4.981 -0.1368 -0.4383 -0.0324
    2LYS     BB  434   4.629   2.773   5.081  0.1563  0.2337  0.0822
    2LYS    SC1  435   4.887   2.831   5.151  0.2767  0.2089  0.2987
    2LYS    SC2  436   5.147   2.802   5.161  0.2716 -0.1520  0.1190
    3TYR     BB  437   4.463   2.954   5.319  0.0368  0.1189  0.0803
    3TYR    SC1  438   4.199   2.796   5.390 -0.1109  0.2522  0.1249
    3TYR    SC2  439   3.956   2.679   5.399  0.0593 -0.1413 -0.0585
    3TYR    SC3  440   4.127   2.651   5.606 -0.0211  0.0825  0.0433
    1TYR     BB  441   4.317   3.189   5.808  0.1046  0.3037  0.3887
    1TYR    SC1  442   4.474   2.905   5.837 -0.0406 -0.1204 -0.0184
    1TYR    SC2  443   4.543   2.653   5.771 -0.2445 -0.1372 -0.1798
    1TYR    SC3  444   4.680   2.784   5.963 -0.3033 -0.4648  0.0985
    2LYS     BB  445   4.053   3.136   5.704 -0.1196 -0.2019 -0.2580
    2LYS    SC1  446   3.874   2.956   5.901  0.2016 -0.1192  0.1241
    2LYS    SC2  447   3.749   2.961   6.137 -0.2239  0.1328 -0.0527
    3TYR     BB  448   3.810   3.166   5.465 -0.0150  0.1421  0.5018
    3TYR    SC1  449   3.606   2.951   5.424  0.4124 -0.3196 -0.1491
    3TYR    SC2  450   3.469   2.725   5.480 -0.1733  0.0437 -0.0053
    3TYR    SC3  451   3.362   2.910   5.315  0.4482  0.0822 -0.4065
    1TYR     BB  452   3.340   3.117   1.058 -0.1000  0.0304 -0.3865
    1TYR    SC1  453   3.345   2.956   1.306  0.1098 -0.1426 -0.3960
    1TYR    SC2  454   3.183   2.746   1.356 -0.3427  0.2603 -0.0509
    1TYR    SC3  455   3.266   2.904   1.559  0.2756  0.2329 -0.2582
    2LYS     BB  456   3.601   3.165   0.932  0.1460 -0.1462  0.1428
    2LYS    SC1  457   3.448   3.378   0.694  0.1551  0.1743  0.2055
    2LYS    SC2  458   3.406   3.478   0.464  0.3284 -0.0916  0.0333
    3TYR     BB  459   3.868   3.120   0.884  0.0441 -0.1412  0.0992
    3TYR    SC1  460   4.095   3.134   0.711  0.4411 -0.1999  0.3356
    3TYR    SC2  461   4.165   3.019   0.477  0.1091  0.0786  0.0871
    3TYR    SC3  462   4.321   3.210   0.586  0.1044  0.1800 -0.0807
    1TYR     BB  463   6.973   6.135   1.936  0.1884  0.0280 -0.0719
    1TYR    SC1  464   6.719   6.186   1.739 -0.0701 -0.1662  0.3162
    1TYR    SC2  465   6.500   6.341   1.770  0.0441  0.1105 -0.1374
    1TYR    SC3  466   6.481   6.106   1.639 -0.0164  0.0327  0.0088
    2LYS     BB  467   6.825   6.065   2.188 -0.1371  0.3177  0.1967
    2LYS    SC1  468   6.500   6.088   2.184 -0.1761  0.1966  0.0908
    2LYS    SC2  469   6.233   6.010   2.164 -0.1891  0.1887  0.0489
    3TYR     BB  470   6.867   6.182   2.473  0.2333  0.2675  0.1473
    3TYR    SC1  471   6.685   6.409   2.529  0.2702  0.1858  0.0765
    3TYR    SC2  472   6.427   6.490   2.534  0.2137  0.0084  0.1324
    3TYR    SC3  473   6.625   6.672   2.507  0.0834  0.1458  0.0831
    1TYR     BB  474   6.881   6.626   3.508  0.1684 -0.1794 -0.1082
    1TYR    SC1  475   6.924   6.425   3.709  0.3349 -0.0199 -0.1538
    1TYR    SC2  476   7.031   6.453   3.955 -0.1828 -0.0469  0.0904
    1TYR    SC3  477   6.847   6.261   3.909 -0.0686 -0.0668 -0.3349
    2LYS     BB  478   7.015   6.929   3.485  0.1149 -0.0786  0.1166
    2LYS    SC1  479   7.155   6.988   3.774  0.3396  0.0522  0.1064
    2LYS    SC2  480   7.112   6.940   4.029  0.2103  0.1065  0.3107
    3TYR     BB  481   6.931   7.077   3.303  0.0688  0.1209  0.0763
    3TYR    SC1  482   6.740   7.302   3.166  0.0925 -0.3219  0.5389
    3TYR    SC2  483   6.479   7.296   3.095  0.2789 -0.2885 -0.2693
    3TYR    SC3  484   6.597   7.531   3.156  0.1093 -0.3190  0.2298
    1TYR     BB  485   4.420   1.772   6.199 -0.3688  0.1447 -0.3717
    1TYR    SC1  486   4.590   1.989   6.008 -0.0589 -0.2973 -0.2687
    1TYR    SC2  487   4.654   2.189   5.839 -0.3897 -0.1680 -0.2485
    1TYR    SC3  488   4.847   2.027   5.935 -0.1457  0.0039 -0.4352
    2LYS     BB  489   4.167   1.783   6.421 -0.0869  0.0564  0.2575
    2LYS    SC1  490   4.143   2.081   6.490 -0.2259 -0.1617  0.1440
    2LYS    SC2  491   4.143   2.184   6.703  0.1401 -0.0502  0.1787
    3TYR     BB  492   4.128   1.606   6.637 -0.1369  0.0248  0.1064
    3TYR    SC1  493   3.928   1.454   6.772  0.1447  0.0117 -0.1566
    3TYR    SC2  494   3.734   1.298   6.876  0.3096 -0.0118  0.1284
    3TYR    SC3  495   3.895   1.440   7.040  0.5368  0.0040 -0.1010
    1TYR     BB  496   2.419   3.254   1.254  0.1283  0.0179 -0.0727
    1TYR    SC1  497   2.512   3.474   1.096 -0.1951 -0.0958 -0.0654
    1TYR    SC2  498   2.426   3.662   0.922 -0.0722  0.1272  0.1073
    1TYR    SC3  499   2.684   3.584   0.920 -0.1233 -0.0456  0.0348
    2LYS     BB  500   2.519   3.187   1.567 -0.0899  0.2350 -0.3295
    2LYS    SC1  501   2.269   3.080   1.686 -0.0226 -0.0997  0.0636
    2LYS    SC2  502   2.045   3.186   1.800  0.0369 -0.1883  0.0652
    3TYR     BB  503   2.771   3.030   1.627 -0.1055  0.3950 -0.0494
    3TYR    SC1  504   2.971   3.144   1.813  0.1165 -0.3097 -0.1907
    3TYR    SC2  505   3.184   3.106   1.975 -0.0375  0.0625  0.1208
    3TYR    SC3  506   3.159   3.337   1.838 -0.3232  0.0993  0.2272
    1TYR     BB  507   3.682   2.962   1.813  0.0146 -0.2252 -0.0419
    1TYR    SC1  508   3.812   3.222   1.926 -0.0289  0.1000  0.1030
    1TYR    SC2  509   3.819   3.489   1.887  0.1279  0.0669 -0.1179
    1TYR    SC3  510   3.924   3.382   2.112  0.0064  0.1944  0.0016
    2LYS     BB  511   3.873   2.933   1.520  0.0268 -0.0926 -0.1088
    2LYS    SC1  512   4.163   2.831   1.635  0.0964  0.0278 -0.1406
    2LYS    SC2  513   4.300   2.810   1.850 -0.0444 -0.0600  0.0781
    3TYR     BB  514   3.769   2.841   1.268  0.0369 -0.2577  0.1131
    3TYR    SC1  515   3.950   2.597   1.230  0.5038  0.3259 -0.0774
    3TYR    SC2  516   4.049   2.371   1.122 -0.2913 -0.1301  0.0470
    3TYR    SC3  517   4.123   2.445   1.371  0.0319 -0.2027 -0.0218
    1TYR     BB  518   7.319   6.330   1.702  0.1146 -0.0315  0.0374
    1TYR    SC1  519   7.129   6.471   1.535 -0.1454 -0.2280 -0.0891
    1TYR    SC2  520   6.868   6.529   1.502 -0.0757  0.1854  0.0158
    1TYR    SC3  521   7.052   6.636   1.336  0.0627  0.2779  0.2239
    2LYS     BB  522   7.576   6.207   1.499 -0.3211  0.2570 -0.1273
    2LYS    SC1  523   7.444   6.025   1.279  0.0888 -0.2715  0.1886
    2LYS    SC2  524   7.363   5.969   1.075  0.4468  0.2301  0.0500
    3TYR     BB  525   7.875   6.184   1.543 -0.0577  0.2305 -0.0918
    3TYR    SC1  526   7.935   5.940   1.751 -0.2387 -0.1611 -0.2360
    3TYR    SC2  527   8.077   5.710   1.758  0.2770  0.1410  0.1294
    3TYR    SC3  528   7.951   5.797   1.980 -0.1619  0.0848 -0.0833
    1TYR     BB  529   3.506   1.749   5.310 -0.1846  0.2271 -0.3141
    1TYR    SC1  530   3.471   1.846   5.015  0.2448 -0.0259 -0.1592
    1TYR    SC2  531   3.488   1.963   4.772  0.2107 -0.1759 -0.2358
    1TYR    SC3  532   3.272   2.007   4.928  0.0069 -0.4422 -0.4315
    2LYS     BB  533   3.871   1.658   5.323 -0.2900 -0.0814  0.0601
    2LYS    SC1  534   3.805   1.370   5.195  0.0056 -0.1602  0.1292
    2LYS    SC2  535   3.736   1.150   5.188  0.0458 -0.0659  0.1237
    3TYR     BB  536   4.126   1.837   5.262  0.0072  0.1278  0.0892
    3TYR    SC1  537   4.382   1.803   5.374  0.4576 -0.3041 -0.4662
    3TYR    SC2  538   4.579   1.985   5.407 -0.0227  0.1508  0.2361
    3TYR    SC3  539   4.582   1.755   5.549  0.1962 -0.0497 -0.0775
    1TYR     BB  540   4.643   6.271   4.665 -0.1675  0.1675  0.4257
    1TYR    SC1  541   4.665   6.514   4.779  0.2156 -0.0760 -0.1931
    1TYR    SC2  542   4.781   6.702   4.935  0.0690  0.0208 -0.1982
    1TYR    SC3  543   4.519   6.645   4.964  0.1395 -0.2811 -0.1040
    2LYS     BB  544   4.716   5.971   4.749 -0.2264  0.0927  0.2041
    2LYS    SC1  545   4.781   5.768   4.465 -0.1140  0.0227 -0.1373
    2LYS    SC2  546   4.898   5.593   4.359 -0.3545 -0.2809 -0.0566
    3TYR     BB  547   4.633   5.774   4.965 -0.0391 -0.0707  0.0177
    3TYR    SC1  548   4.778   5.468   4.878  0.2354 -0.0438 -0.1935
    3TYR    SC2  549   4.907   5.249   4.968  0.1162 -0.0957 -0.1467
    3TYR    SC3  550   4.841   5.270   4.707  0.0329 -0.1655 -0.1321
    1TYR     BB  551   2.558   3.066   2.111 -0.1925 -0.0021  0.3421
    1TYR    SC1  552   2.250   3.064   2.244  0.0834  0.1591 -0.0131
    1TYR    SC2  553   2.112   2.940   2.441  0.1767  0.0564 -0.0112
    1TYR    SC3  554   2.097   3.208   2.413  0.2652  0.0883  0.2192
    2LYS     BB  555   2.654   2.802   2.086  0.1420  0.0112  0.1340
    2LYS    SC1  556   2.406   2.625   2.014  0.0178  0.2338 -0.2112
    2LYS    SC2  557   2.131   2.587   2.048  0.0529 -0.0406  0.0048
    3TYR     BB  558   2.935   2.678   1.920 -0.1140  0.0601  0.1149
    3TYR    SC1  559   2.912   2.381   2.012 -0.0496  0.1513  0.0178
    3TYR    SC2  560   2.882   2.120   2.078  0.2738  0.1337  0.1135
    3TYR    SC3  561   2.798   2.312   2.248  0.6186  0.0867  0.3504
    1TYR     BB  562   4.166   4.051   5.301  0.0543 -0.2416 -0.1505
    1TYR    SC1  563   3.928   3.848   5.251 -0.2218  0.3998  0.6028
    1TYR    SC2  564   3.723   3.768   5.095  0.2419 -0.0605  0.1826
    1TYR    SC3  565   3.746   3.672   5.346 -0.2507  0.3111  0.3908
    2LYS     BB  566   4.083   4.295   5.164 -0.2212 -0.3804 -0.0813
    2LYS    SC1  567   3.792   4.324   5.159 -0.0053 -0.2713  0.0686
    2LYS    SC2  568   3.528   4.322   5.124  0.2033 -0.0223 -0.0371
    3TYR     BB  569   4.174   4.589   4.998 -0.1516 -0.2264 -0.1498
    3TYR    SC1  570   3.971   4.793   5.089  0.1593 -0.3905  0.0570
    3TYR    SC2  571   3.900   5.026   5.205  0.3281 -0.3911  0.1666
    3TYR    SC3  572   3.833   4.977   4.948  0.2228 -0.2568  0.1667
    1TYR     BB  573   5.030   7.615   4.545  0.1076  0.3310 -0.0048
    1TYR    SC1  574   5.196   7.800   4.530 -0.0850  0.0998 -0.3846
    1TYR    SC2  575   5.323   8.037   4.552  0.1703 -0.0414 -0.2778
    1TYR    SC3  576   5.465   7.807   4.555 -0.0994 -0.2140 -0.0057
    2LYS     BB  577   4.812   7.614   4.730 -0.1775  0.0921  0.1814
    2LYS    SC1  578   4.611   7.823   4.700  0.1531  0.2318 -0.1081
    2LYS    SC2  579   4.352   7.919   4.711  0.2286  0.0678 -0.2109
    3TYR     BB  580   4.905   7.554   4.997  0.2618 -0.0348  0.2932
    3TYR    SC1  581   5.216   7.593   4.986  0.0439 -0.0537  0.1814
    3TYR    SC2  582   5.403   7.787   5.004 -0.0385  0.0560 -0.0906
    3TYR    SC3  583   5.478   7.529   4.981  0.0761  0.0845 -0.0457
    1TYR     BB  584   3.022   3.305   2.395 -0.1057 -0.1166 -0.0215
    1TYR    SC1  585   3.145   3.444   2.661 -0.0452 -0.1349  0.0009
    1TYR    SC2  586   3.151   3.670   2.809  0.1993  0.0697 -0.3047
    1TYR    SC3  587   3.266   3.444   2.903  0.2944  0.1769 -0.1567
    2LYS     BB  588   2.799   3.289   2.432 -0.1966 -0.2071  0.3925
    2LYS    SC1  589   2.574   3.501   2.309 -0.0476  0.2389 -0.2365
    2LYS    SC2  590   2.501   3.779   2.367 -0.3083  0.2131 -0.2434
    3TYR     BB  591   2.590   3.136   2.608  0.5080  0.1660  0.1179
    3TYR    SC1  592   2.540   2.830   2.578 -0.1831 -0.1698 -0.0891
    3TYR    SC2  593   2.380   2.613   2.588 -0.1366 -0.2093 -0.1825
    3TYR    SC3  594   2.645   2.583   2.544 -0.0574 -0.1639  0.2136
    1TYR     BB  595   6.425   5.569   4.387  0.2011  0.2950  0.2057
    1TYR    SC1  596   6.409   5.347   4.128  0.2050  0.0454 -0.1204
    1TYR    SC2  597   6.335   5.138   3.974 -0.2217  0.0234  0.0958
    1TYR    SC3  598   6.434   5.362   3.859 -0.2687 -0.0929 -0.1831
    2LYS     BB  599   6.710   5.671   4.388 -0.0144  0.2206  0.0081
    2LYS    SC1  600   6.934   5.462   4.325  0.0491  0.2106 -0.4187
    2LYS    SC2  601   6.943   5.199   4.205  0.0133  0.2715  0.2602
    3TYR     BB  602   6.847   5.939   4.302  0.1270 -0.0133 -0.2246
    3TYR    SC1  603   7.128   5.944   4.350 -0.1057 -0.1572 -0.0227
    3TYR    SC2  604   7.361   5.810   4.364  0.0241  0.0367 -0.2401
    3TYR    SC3  605   7.359   6.079   4.382 -0.1953  0.0314 -0.1482
    1TYR     BB  606   6.014   5.621   3.555 -0.0374 -0.2048  0.3094
    1TYR    SC1  607   6.132   5.349   3.587  0.0723 -0.2352  0.2452
    1TYR    SC2  608   6.278   5.132   3.519  0.1130 -0.1123 -0.0799
    1TYR    SC3  609   6.027   5.102   3.613  0.2931 -0.3202  0.3696
    2LYS     BB  610   6.021   5.796   3.320  0.1119 -0.2277 -0.1140
    2LYS    SC1  611   5.698   5.732   3.215  0.2943 -0.2752  0.1178
    2LYS    SC2  612   5.478   5.612   3.269 -0.0806  0.0485 -0.0106
    3TYR     BB  613   6.258   5.757   3.164 -0.1364  0.0572  0.6419
    3TYR    SC1  614   6.114   5.658   2.873 -0.2722  0.3069 -0.1434
    3TYR    SC2  615   6.170   5.502   2.659 -0.0177  0.1992 -0.0037
    3TYR    SC3  616   6.023   5.727   2.628  0.0355  0.1983 -0.2950
    1TYR     BB  617   4.095   2.093   4.358 -0.0729 -0.2319 -0.0828
    1TYR    SC1  618   4.232   1.806   4.382  0.1696  0.2430  0.1382
    1TYR    SC2  619   4.495   1.745   4.366  0.0844 -0.1075 -0.0826
    1TYR    SC3  620   4.315   1.552   4.423 -0.1208  0.1519  0.1908
    2LYS     BB  621   3.961   2.198   4.581  0.2331 -0.1709 -0.0683
    2LYS    SC1  622   3.690   2.373   4.605 -0.1012 -0.2762  0.0081
    2LYS    SC2  623   3.447   2.349   4.471 -0.0536 -0.2789 -0.1793
    3TYR     BB  624   3.975   1.993   4.841  0.1451 -0.0336  0.0747
    3TYR    SC1  625   3.904   1.706   4.769 -0.2232  0.1549 -0.0625
    3TYR    SC2  626   3.710   1.531   4.700 -0.0895  0.0119 -0.0833
    3TYR    SC3  627   3.968   1.451   4.706 -0.0357  0.1855 -0.0036
    1TYR     BB  628   5.041   1.563   5.652  0.0877 -0.5791  0.3966
    1TYR    SC1  629   5.333   1.587   5.524 -0.1063  0.2182 -0.0130
    1TYR    SC2  630   5.562   1.572   5.666 -0.0726  0.3195 -0.0555
    1TYR    SC3  631   5.565   1.675   5.416 -0.1476  0.2280 -0.0948
    2LYS     BB  632   5.012   1.570   5.893  0.3836  0.1398 -0.2207
    2LYS    SC1  633   5.256   1.462   6.084  0.1907  0.0781 -0.2657
    2LYS    SC2  634   5.405   1.311   6.100  0.0321  0.0195  0.4594
    3TYR     BB  635   4.735   1.465   6.013  0.3113 -0.4061  0.3198
    3TYR    SC1  636   4.824   1.402   6.276 -0.1973 -0.1084 -0.1412
    3TYR    SC2  637   4.890   1.500   6.519  0.3327 -0.1727 -0.2435
    3TYR    SC3  638   4.741   1.275   6.500  0.3179 -0.1893  0.0192
    1TYR     BB  639   6.704   0.063   4.549  0.2672 -0.0317 -0.0441
    1TYR    SC1  640   6.769  -0.195   4.401  0.3517 -0.2953 -0.0528
    1TYR    SC2  641   6.696  -0.310   4.167 -0.1751  0.0170 -0.0609
    1TYR    SC3  642   6.955  -0.248   4.212 -0.0546 -0.0882 -0.5425
    2LYS     BB  643   6.413   0.164   4.750  0.2143 -0.2641  0.0270
    2LYS    SC1  644   6.277   0.389   4.560  0.0792  0.0046 -0.1540
    2LYS    SC2  645   6.252   0.692   4.624  0.1765 -0.0436 -0.0318
    3TYR     BB  646   6.301  -0.001   4.919  0.4350 -0.0643  0.1097
    3TYR    SC1  647   6.308  -0.143   5.187 -0.0209 -0.2909 -0.3016
    3TYR    SC2  648   6.270  -0.336   5.372 -0.2627 -0.1184 -0.1639
    3TYR    SC3  649   6.465  -0.153   5.406 -0.3229 -0.0719 -0.0639
    1TYR     BB  650   4.192   1.331   0.097 -0.2167 -0.0111  0.0607
    1TYR    SC1  651   4.338   1.081   0.092  0.3931  0.0743  0.0770
    1TYR    SC2  652   4.536   0.916   0.008  0.2878  0.0073 -0.0441
    1TYR    SC3  653   4.479   0.936   0.271  0.1188 -0.3682 -0.0437
    2LYS     BB  654   3.992   1.506  -0.028  0.2782  0.1613 -0.0036
    2LYS    SC1  655   3.782   1.291  -0.150 -0.0865 -0.2087  0.3216
    2LYS    SC2  656   3.582   1.219  -0.260 -0.0285 -0.1291  0.3858
    3TYR     BB  657   3.853   1.744  -0.128  0.1128  0.0562  0.1392
    3TYR    SC1  658   3.690   1.753  -0.374  0.1546 -0.3031 -0.1282
    3TYR    SC2  659   3.589   1.926  -0.555  0.1402 -0.1731  0.0024
    3TYR    SC3  660   3.495   1.674  -0.543 -0.0514 -0.1035  0.0085
    1TYR     BB  661   4.203   7.457   5.682 -0.0624  0.2580 -0.2331
    1TYR    SC1  662   4.428   7.400   5.555 -0.2052  0.1491 -0.2051
    1TYR    SC2  663   4.695   7.377   5.584 -0.2908 -0.4905  0.4264
    1TYR    SC3  664   4.577   7.297   5.355  0.0412 -0.1592  0.1219
    2LYS     BB  665   3.980   7.343   5.422 -0.1942  0.1679  0.1290
    2LYS    SC1  666   3.859   7.653   5.437 -0.2204 -0.0648  0.1911
    2LYS    SC2  667   3.778   7.876   5.519  0.0992 -0.3204 -0.0746
    3TYR     BB  668   4.036   7.049   5.405  0.3050 -0.0909  0.4944
    3TYR    SC1  669   3.789   6.881   5.432 -0.2526 -0.3498  0.1343
    3TYR    SC2  670   3.631   6.796   5.230 -0.0893 -0.1643 -0.0780
    3TYR    SC3  671   3.525   6.843   5.474 -0.3389 -0.1484 -0.1858
    1TYR     BB  672   7.143   6.590   2.701  0.1485 -0.0355  0.0619
    1TYR    SC1  673   7.340   6.503   2.452  0.3043  0.0117  0.1325
    1TYR    SC2  674   7.267   6.415   2.208  0.0642  0.5614 -0.0142
    1TYR    SC3  675   7.526   6.403   2.284  0.0602 -0.2014 -0.0199
    2LYS     BB  676   7.073   6.885   2.604  0.1477  0.4892 -0.3061
    2LYS    SC1  677   7.040   7.165   2.796 -0.1632 -0.1396  0.0755
    2LYS    SC2  678   7.013   7.381   2.679  0.0468 -0.1034  0.1458
    3TYR     BB  679   6.937   6.982   2.302 -0.2054  0.2551  0.0225
    3TYR    SC1  680   6.928   6.735   2.187  0.0532  0.4989 -0.1290
    3TYR    SC2  681   6.961   6.594   1.959  0.1820  0.1513  0.0937
    3TYR    SC3  682   6.743   6.553   2.113  0.3155  0.0458  0.2588
    1TYR     BB  683   3.266   2.214   0.714 -0.1912 -0.1365 -0.0528
    1TYR    SC1  684   3.321   2.309   0.434  0.1292  0.1124 -0.1873
    1TYR    SC2  685   3.220   2.268   0.187 -0.1556  0.2693 -0.1025
    1TYR    SC3  686   3.417   2.449   0.224 -0.0825  0.2150 -0.2187
    2LYS     BB  687   3.053   2.187   0.945 -0.2398 -0.0505  0.2559
    2LYS    SC1  688   2.863   2.424   0.931  0.0058 -0.0886  0.1091
    2LYS    SC2  689   2.600   2.427   0.933  0.1260  0.0306 -0.1320
    3TYR     BB  690   3.012   1.974   1.135  0.1546 -0.2225 -0.1793
    3TYR    SC1  691   3.058   1.708   1.042 -0.1501  0.0479 -0.1404
    3TYR    SC2  692   3.117   1.463   1.138  0.0181  0.1226 -0.0480
    3TYR    SC3  693   2.992   1.488   0.900 -0.3886 -0.0658  0.1333
    1TYR     BB  694   4.559   0.728   6.637  0.1145  0.0609  0.1341
    1TYR    SC1  695   4.812   0.896   6.741 -0.1396 -0.3974 -0.1572
    1TYR    SC2  696   5.078   0.874   6.705 -0.1261 -0.2614 -0.1457
    1TYR    SC3  697   4.981   1.001   6.923 -0.1957 -0.0410 -0.3003
    2LYS     BB  698   4.741   0.454   6.553  0.3236  0.1250 -0.2419
    2LYS    SC1  699   4.891   0.392   6.888  0.0824  0.0833  0.2672
    2LYS    SC2  700   5.129   0.493   7.071  0.0882 -0.1968 -0.1410
    3TYR     BB  701   4.799   0.277   6.356  0.0999 -0.0725 -0.2075
    3TYR    SC1  702   4.924   0.080   6.184 -0.0354 -0.3688  0.2801
    3TYR    SC2  703   4.976  -0.148   6.048  0.1558 -0.2190  0.0931
    3TYR    SC3  704   5.173   0.031   6.092 -0.0722  0.0987 -0.1208
    1TYR     BB  705   6.500   6.982   3.557  0.0652  0.0021 -0.1822
    1TYR    SC1  706   6.565   6.928   3.869  0.2917  0.0101 -0.1145
    1TYR    SC2  707   6.636   6.896   4.128  0.2778  0.2045 -0.0846
    1TYR    SC3  708   6.688   6.701   3.948  0.0379 -0.0544  0.1161
    2LYS     BB  709   6.412   6.763   3.405 -0.2380 -0.4228 -0.3816
    2LYS    SC1  710   6.158   6.886   3.260 -0.0763 -0.1284  0.3447
    2LYS    SC2  711   5.908   6.958   3.294  0.1148  0.1913 -0.3478
    3TYR     BB  712   6.373   6.515   3.652 -0.1603  0.2460  0.1645
    3TYR    SC1  713   6.160   6.646   3.794 -0.0796  0.1484 -0.3217
    3TYR    SC2  714   5.973   6.841   3.799 -0.0912  0.1375  0.1148
    3TYR    SC3  715   5.913   6.594   3.889  0.0300  0.0275 -0.0954
    1TYR     BB  716   2.104   1.717   0.679 -0.0003 -0.2245 -0.1945
    1TYR    SC1  717   1.854   1.747   0.930 -0.1653 -0.0030 -0.1904
    1TYR    SC2  718   1.618   1.730   1.059 -0.0461  0.3007  0.0886
    1TYR    SC3  719   1.831   1.839   1.183  0.2589 -0.0075 -0.1405
    2LYS     BB  720   2.278   1.980   0.797 -0.0421  0.0133  0.1619
    2LYS    SC1  721   2.099   2.197   0.887 -0.0508  0.1753 -0.0401
    2LYS    SC2  722   1.961   2.287   1.100 -0.1276 -0.1312 -0.1717
    3TYR     BB  723   2.567   1.918   0.736  0.1381  0.2541  0.2411
    3TYR    SC1  724   2.689   2.112   0.547  0.4415  0.0625  0.1890
    3TYR    SC2  725   2.746   2.137   0.285 -0.0369 -0.0116  0.0671
    3TYR    SC3  726   2.805   2.338   0.455  0.0913  0.1237 -0.1317
    1TYR     BB  727   4.218   5.441   5.109 -0.0961  0.2004  0.1259
    1TYR    SC1  728   3.978   5.511   4.969 -0.0078 -0.0611  0.0448
    1TYR    SC2  729   3.741   5.611   4.887  0.0395 -0.0838 -0.1242
    1TYR    SC3  730   3.846   5.394   4.765  0.1899 -0.0202 -0.1109
    2LYS     BB  731   4.402   5.154   4.988  0.0695  0.2639  0.0935
    2LYS    SC1  732   4.263   5.062   4.712  0.2383 -0.0258 -0.1045
    2LYS    SC2  733   4.178   4.873   4.485  0.1214  0.0700 -0.0345
    3TYR     BB  734   4.456   4.975   5.164 -0.0593 -0.3026  0.0758
    3TYR    SC1  735   4.338   5.052   5.448  0.0257 -0.0496 -0.0463
    3TYR    SC2  736   4.334   5.132   5.706 -0.1223  0.2827 -0.1453
    3TYR    SC3  737   4.138   5.210   5.537 -0.1299 -0.0853 -0.3178
    1TYR     BB  738   5.475   7.031   5.086 -0.2152  0.2440  0.0520
    1TYR    SC1  739   5.225   7.116   5.152 -0.2603 -0.3461 -0.2664
    1TYR    SC2  740   4.986   7.063   5.039 -0.5613  0.2438  0.0354
    1TYR    SC3  741   4.999   7.133   5.299 -0.0461  0.1961  0.0341
    2LYS     BB  742   5.726   6.946   5.303 -0.1231 -0.5514  0.1969
    2LYS    SC1  743   5.671   6.644   5.287 -0.3773  0.2686  0.2458
    2LYS    SC2  744   5.649   6.416   5.328  0.0387  0.2813  0.0610
    3TYR     BB  745   5.839   7.127   5.465  0.1715  0.0378 -0.0888
    3TYR    SC1  746   5.799   7.447   5.423 -0.3291 -0.0020 -0.2626
    3TYR    SC2  747   5.720   7.688   5.331 -0.1680  0.1392 -0.0434
    3TYR    SC3  748   5.976   7.650   5.409 -0.1821 -0.1151 -0.1087
    1TYR     BB  749   4.377   1.168   6.802  0.2110 -0.0326 -0.0325
    1TYR    SC1  750   4.141   1.044   6.724  0.1387  0.1948 -0.0673
    1TYR    SC2  751   3.885   0.963   6.694  0.1686  0.0724 -0.0024
    1TYR    SC3  752   4.076   0.869   6.528  0.2253 -0.0965  0.1542
    2LYS     BB  753   4.440   1.344   6.945 -0.0258 -0.1330  0.0217
    2LYS    SC1  754   4.734   1.397   6.967  0.0175  0.2824 -0.0257
    2LYS    SC2  755   4.939   1.526   6.967  0.3521 -0.0965 -0.2906
    3TYR     BB  756   4.361   1.353   7.252 -0.2745  0.1643  0.1207
    3TYR    SC1  757   4.174   1.124   7.267  0.2124 -0.1544  0.0093
    3TYR    SC2  758   3.980   0.966   7.168 -0.0993  0.0642  0.2465
    3TYR    SC3  759   4.116   0.891   7.389 -0.0059 -0.0260  0.1597
    1TYR     BB  760   6.317   7.286   4.545 -0.0112 -0.1180  0.3984
    1TYR    SC1  761   6.053   7.484   4.496 -0.2686  0.0639  0.3445
    1TYR    SC2  762   5.818   7.557   4.608 -0.3275  0.2254  0.1265
    1TYR    SC3  763   5.912   7.691   4.394  0.0932  0.3307  0.3632
    2LYS     BB  764   6.245   7.003   4.526  0.1618  0.0065 -0.4018
    2LYS    SC1  765   6.492   6.852   4.692 -0.2947  0.0970  0.0909
    2LYS    SC2  766   6.582   6.647   4.836 -0.0007 -0.1431  0.2358
    3TYR     BB  767   6.150   6.801   4.281 -0.1658  0.1831  0.1554
    3TYR    SC1  768   6.301   6.556   4.247  0.1802  0.0357 -0.2419
    3TYR    SC2  769   6.540   6.437   4.287  0.2687  0.2488 -0.1179
    3TYR    SC3  770   6.374   6.345   4.095  0.2531 -0.1874  0.0887
    1TYR     BB  771   6.725   5.653   1.864  0.2005 -0.3601  0.1200
    1TYR    SC1  772   6.536   5.589   2.111 -0.1194  0.1645 -0.1235
    1TYR    SC2  773   6.464   5.627   2.369 -0.3098 -0.1035 -0.1324
    1TYR    SC3  774   6.309   5.477   2.206  0.0135 -0.2744 -0.2937
    2LYS     BB  775   6.898   5.373   1.697  0.1934  0.0845  0.2828
    2LYS    SC1  776   6.785   5.338   1.383 -0.0398 -0.2672  0.1763
    2LYS    SC2  777   6.695   5.295   1.146  0.2710 -0.4148  0.0164
    3TYR     BB  778   7.196   5.296   1.741  0.1491  0.2544  0.3001
    3TYR    SC1  779   7.291   5.285   1.417 -0.0989 -0.1263  0.0681
    3TYR    SC2  780   7.331   5.308   1.151 -0.1954  0.1659  0.0745
    3TYR    SC3  781   7.258   5.524   1.295  0.0067  0.0467  0.3665
    1TYR     BB  782   2.085   2.382   6.782  0.4686 -0.0369 -0.0765
    1TYR    SC1  783   2.310   2.588   6.845  0.1764 -0.0273 -0.4676
    1TYR    SC2  784   2.578   2.607   6.872  0.1343  0.0090  0.0503
    1TYR    SC3  785   2.430   2.829   6.831  0.1513  0.0464  0.1849
    2LYS     BB  786   2.181   1.996   6.771  0.0240  0.1747  0.0874
    2LYS    SC1  787   2.031   1.855   6.978  0.2744  0.0715 -0.2386
    2LYS    SC2  788   2.017   1.569   6.992 -0.0801 -0.0717  0.2791
    3TYR     BB  789   2.329   1.817   6.590  0.3739  0.0300  0.2111
    3TYR    SC1  790   2.609   1.721   6.528  0.1479 -0.1025  0.0093
    3TYR    SC2  791   2.805   1.693   6.344  0.2610 -0.2457  0.1485
    3TYR    SC3  792   2.852   1.632   6.603  0.0833 -0.1117  0.2152
    1TYR     BB  793   4.527   5.539   5.812  0.0338  0.2461  0.0432
    1TYR    SC1  794   4.224   5.582   5.924 -0.1877  0.2777 -0.3061
    1TYR    SC2  795   4.002   5.429   5.917  0.0437 -0.0772 -0.2299
    1TYR    SC3  796   4.033   5.612   6.113  0.0447 -0.3938  0.0766
    2LYS     BB  797   4.792   5.352   6.069 -0.0530 -0.3329 -0.1551
    2LYS    SC1  798   4.590   5.329   6.287 -0.2202 -0.1653  0.0868
    2LYS    SC2  799   4.440   5.223   6.407  0.2031 -0.0072 -0.1981
    3TYR     BB  800   5.045   5.131   6.138 -0.3352 -0.0466  0.1114
    3TYR    SC1  801   5.096   4.962   5.863 -0.0748  0.0498  0.0643
    3TYR    SC2  802   5.279   4.997   5.668  0.1898 -0.2528  0.2462
    3TYR    SC3  803   5.171   4.753   5.709 -0.1467 -0.1108  0.2419
    1TYR     BB  804   4.221   0.552   6.970  0.1345 -0.3223 -0.0175
    1TYR    SC1  805   4.394   0.711   7.105 -0.0013 -0.0663  0.4927
    1TYR    SC2  806   4.637   0.662   7.213  0.2599 -0.0614 -0.0500
    1TYR    SC3  807   4.543   0.915   7.200  0.3451 -0.0304 -0.0710
    2LYS     BB  808   4.372   0.271   6.851 -0.2075 -0.0842  0.3140
    2LYS    SC1  809   4.265   0.071   7.085  0.1677  0.0173 -0.0736
    2LYS    SC2  810   4.265   0.015   7.323 -0.0351  0.2019  0.1483
    3TYR     BB  811   4.309   0.257   6.576  0.2921 -0.3317 -0.0850
    3TYR    SC1  812   4.075   0.259   6.429  0.2849 -0.1281 -0.5634
    3TYR    SC2  813   3.820   0.213   6.352  0.1244 -0.2941  0.0038
    3TYR    SC3  814   3.916   0.465   6.356 -0.2219 -0.1548  0.2825
    1TYR     BB  815   6.249   6.344   3.232 -0.2456 -0.0819  0.0854
    1TYR    SC1  816   6.004   6.386   3.343  0.2826 -0.1763  0.0095
    1TYR    SC2  817   5.789   6.510   3.450  0.2797  0.1805 -0.3782
    1TYR    SC3  818   5.771   6.252   3.372  0.1369  0.0671 -0.0005
    2LYS     BB  819   6.194   6.189   2.927  0.1439  0.0450  0.2517
    2LYS    SC1  820   5.879   6.071   2.963 -0.1376 -0.3406  0.1156
    2LYS    SC2  821   5.626   6.063   2.888 -0.0758 -0.0342  0.2724
    3TYR     BB  822   6.369   6.025   2.695 -0.2112 -0.2434 -0.1093
    3TYR    SC1  823   6.592   5.823   2.760 -0.2692 -0.1102 -0.0935
    3TYR    SC2  824   6.828   5.725   2.673 -0.1350  0.1648 -0.0523
    3TYR    SC3  825   6.770   5.723   2.937 -0.0436  0.3708 -0.0280
    1TYR     BB  826   7.076   5.168   2.647 -0.0221  0.0050 -0.0409
    1TYR    SC1  827   7.206   4.938   2.543  0.0959  0.0868 -0.0522
    1TYR    SC2  828   7.308   4.724   2.413 -0.1097 -0.1174  0.1115
    1TYR    SC3  829   7.454   4.850   2.601  0.0652 -0.0234 -0.0828
    2LYS     BB  830   6.779   5.242   2.550  0.0679 -0.0939  0.1436
    2LYS    SC1  831   6.830   5.152   2.221 -0.3993 -0.0337  0.2009
    2LYS    SC2  832   6.775   5.013   2.022  0.1310 -0.1420  0.1609
    3TYR     BB  833   6.545   5.020   2.572 -0.1203 -0.0217  0.0026
    3TYR    SC1  834   6.268   5.077   2.528 -0.1424 -0.2906 -0.3412
    3TYR    SC2  835   6.003   5.121   2.501 -0.0693  0.3318 -0.2297
    3TYR    SC3  836   6.101   5.027   2.734 -0.1777  0.1957 -0.2373
    1TYR     BB  837   3.426   1.576   0.074  0.0305 -0.1203 -0.0115
    1TYR    SC1  838   3.308   1.438   0.298  0.0501 -0.0508 -0.1019
    1TYR    SC2  839   3.310   1.324   0.543 -0.0196 -0.1770 -0.1591
    1TYR    SC3  840   3.094   1.298   0.384 -0.0147 -0.0098 -0.1952
    2LYS     BB  841   3.222   1.566  -0.164 -0.1086 -0.1565  0.1184
    2LYS    SC1  842   3.044   1.355  -0.141 -0.1037  0.2432  0.0587
    2LYS    SC2  843   2.828   1.232  -0.139  0.3026  0.0381  0.1925
    3TYR     BB  844   3.077   1.899  -0.181 -0.0860 -0.0595  0.0620
    3TYR    SC1  845   3.297   2.094  -0.258  0.0153 -0.0220 -0.0606
    3TYR    SC2  846   3.519   2.196  -0.142 -0.1688  0.1265  0.1713
    3TYR    SC3  847   3.433   2.294  -0.378 -0.0015  0.0818  0.0902
    1TYR     BB  848   4.249   4.238   5.828 -0.0575  0.0651 -0.0074
    1TYR    SC1  849   3.969   4.182   5.801 -0.0819 -0.0139  0.3097
    1TYR    SC2  850   3.807   4.110   5.598  0.1222  0.2601  0.0378
    1TYR    SC3  851   3.703   4.166   5.840 -0.1434  0.0765 -0.0283
    2LYS     BB  852   4.412   4.089   6.036  0.2441 -0.1446 -0.2343
    2LYS    SC1  853   4.160   4.006   6.243 -0.1093  0.1108  0.1022
    2LYS    SC2  854   3.906   3.989   6.281  0.2111 -0.0191 -0.0404
    3TYR     BB  855   4.627   4.146   6.223 -0.2020 -0.1360  0.4546
    3TYR    SC1  856   4.870   4.252   6.028  0.2254  0.1233  0.7183
    3TYR    SC2  857   4.898   4.494   5.912 -0.1109 -0.1437  0.0019
    3TYR    SC3  858   5.092   4.308   5.885 -0.1284 -0.1609 -0.0048
    1TYR     BB  859   4.167   2.082   5.743 -0.1658 -0.4536  0.0263
    1TYR    SC1  860   4.237   2.307   5.967  0.1750 -0.2306 -0.1470
    1TYR    SC2  861   4.168   2.556   6.047 -0.4396 -0.4475  0.0733
    1TYR    SC3  862   4.381   2.433   6.157 -0.1950 -0.0713  0.0417
    2LYS     BB  863   4.018   1.826   5.810  0.1552  0.0937  0.4094
    2LYS    SC1  864   3.697   1.819   5.755 -0.0001  0.1531 -0.1929
    2LYS    SC2  865   3.487   1.749   5.824 -0.2263  0.2431 -0.4677
    3TYR     BB  866   4.208   1.556   5.865  0.0509  0.1009  0.1431
    3TYR    SC1  867   4.007   1.332   5.797  0.0818 -0.1910 -0.0461
    3TYR    SC2  868   3.821   1.165   5.696 -0.0557  0.1146 -0.3221
    3TYR    SC3  869   3.748   1.359   5.870  0.0315  0.1423 -0.3160
    1TYR     BB  870   5.127   6.259   4.956  0.1800 -0.1815  0.1059
    1TYR    SC1  871   5.193   6.248   4.671  0.1298 -0.2437  0.0722
    1TYR    SC2  872   5.334   6.145   4.465  0.0495  0.3227 -0.2936
    1TYR    SC3  873   5.087   6.245   4.422 -0.1593  0.0525  0.1830
    2LYS     BB  874   5.234   6.537   5.047 -0.0348 -0.1706 -0.3177
    2LYS    SC1  875   5.163   6.637   5.339 -0.0797  0.0996  0.0388
    2LYS    SC2  876   5.235   6.777   5.548 -0.1307  0.0617 -0.1065
    3TYR     BB  877   5.453   6.600   4.833  0.0173  0.0044 -0.3732
    3TYR    SC1  878   5.638   6.344   4.786 -0.1537 -0.1195  0.0972
    3TYR    SC2  879   5.827   6.153   4.770 -0.1496 -0.1154  0.0963
    3TYR    SC3  880   5.589   6.098   4.885 -0.1780 -0.1445  0.0246
    1TYR     BB  881   6.108   6.475   5.536 -0.0349 -0.2193 -0.1362
    1TYR    SC1  882   6.163   6.302   5.329 -0.0638  0.2801 -0.2030
    1TYR    SC2  883   6.362   6.161   5.213  0.1071  0.1932  0.1787
    1TYR    SC3  884   6.118   6.168   5.099  0.2359  0.0252 -0.1221
    2LYS     BB  885   6.195   6.765   5.503 -0.0494  0.1428  0.0837
    2LYS    SC1  886   6.249   6.983   5.737 -0.1436 -0.0546 -0.1660
    2LYS    SC2  887   6.425   7.168   5.862 -0.0138 -0.0329  0.0039
    3TYR     BB  888   6.268   6.789   5.213 -0.2324  0.0586 -0.0356
    3TYR    SC1  889   6.125   6.634   5.000  0.1869  0.0571 -0.1078
    3TYR    SC2  890   6.086   6.544   4.748  0.0812  0.0471 -0.0885
    3TYR    SC3  891   5.922   6.732   4.851  0.0861  0.0064 -0.0055
    1TYR     BB  892   4.139   1.858   7.107 -0.2451  0.1374  0.0160
    1TYR    SC1  893   4.355   1.816   7.333 -0.1393  0.2041  0.3474
    1TYR    SC2  894   4.509   1.754   7.546 -0.0805  0.0613  0.2657
    1TYR    SC3  895   4.619   1.765   7.300 -0.2076 -0.0806  0.2008
    2LYS     BB  896   4.001   2.151   7.232  0.3078 -0.2254  0.4031
    2LYS    SC1  897   3.872   2.387   7.044 -0.2091 -0.0424 -0.2800
    2LYS    SC2  898   3.898   2.596   7.058  0.2106 -0.0378  0.3517
    3TYR     BB  899   3.974   2.214   7.586 -0.1617 -0.1897 -0.4526
    3TYR    SC1  900   4.132   1.992   7.766 -0.2356 -0.4036 -0.0484
    3TYR    SC2  901   4.356   2.025   7.913 -0.2873 -0.2324 -0.0053
    3TYR    SC3  902   4.211   1.799   7.936 -0.2546 -0.2382  0.1530
    1TYR     BB  903   4.145   7.459   6.212  0.2504 -0.3481 -0.1558
    1TYR    SC1  904   3.860   7.476   6.066  0.1198 -0.0637 -0.1915
    1TYR    SC2  905   3.597   7.526   6.104  0.1561  0.1233 -0.1758
    1TYR    SC3  906   3.696   7.512   5.854  0.1892  0.3815 -0.1801
    2LYS     BB  907   4.406   7.508   6.134 -0.0698  0.0089  0.0509
    2LYS    SC1  908   4.586   7.488   6.398  0.0836 -0.1056 -0.1305
    2LYS    SC2  909   4.743   7.389   6.548 -0.0566  0.0373 -0.0169
    3TYR     BB  910   4.536   7.738   5.933  0.1196 -0.3250  0.1980
    3TYR    SC1  911   4.541   7.822   5.641  0.0759 -0.1863 -0.5153
    3TYR    SC2  912   4.598   7.889   5.386  0.1221 -0.0248 -0.4635
    3TYR    SC3  913   4.347   7.917   5.480  0.1552  0.1484 -0.4220
    1TYR     BB  914   6.073   5.273   4.528  0.2682 -0.0289  0.1022
    1TYR    SC1  915   6.003   5.180   4.842 -0.0313  0.1494  0.0510
    1TYR    SC2  916   5.938   4.978   5.009  0.3974 -0.0008  0.0523
    1TYR    SC3  917   5.922   5.234   5.094 -0.0715 -0.0272  0.0775
    2LYS     BB  918   5.989   4.993   4.361 -0.0692 -0.0790 -0.3271
    2LYS    SC1  919   5.842   4.994   4.064  0.2069 -0.0661 -0.2490
    2LYS    SC2  920   5.632   4.928   3.896  0.0319  0.2439  0.1767
    3TYR     BB  921   5.836   4.766   4.551 -0.2212  0.1573  0.0558
    3TYR    SC1  922   5.593   4.634   4.381  0.0589 -0.2102 -0.0822
    3TYR    SC2  923   5.393   4.456   4.344 -0.1126 -0.0950  0.2434
    3TYR    SC3  924   5.378   4.701   4.232 -0.0728 -0.1418  0.1337
    1TYR     BB  925   5.889   0.323   4.855 -0.2782 -0.2781  0.1939
    1TYR    SC1  926   6.103   0.423   5.046 -0.0147  0.2660 -0.1094
    1TYR    SC2  927   6.240   0.340   5.262  0.1511 -0.2903 -0.4042
    1TYR    SC3  928   6.351   0.519   5.093  0.1274 -0.0522 -0.1755
    2LYS     BB  929   5.712   0.614   4.876 -0.1123  0.1420 -0.0234
    2LYS    SC1  930   5.777   0.682   4.586  0.3415 -0.1367 -0.0512
    2LYS    SC2  931   5.643   0.817   4.375 -0.0238  0.1946 -0.1235
    3TYR     BB  932   5.529   0.822   4.996 -0.3632 -0.0028  0.3163
    3TYR    SC1  933   5.300   0.905   4.789  0.0151  0.0101 -0.2268
    3TYR    SC2  934   5.138   0.899   4.572 -0.1487  0.1125 -0.1106
    3TYR    SC3  935   5.242   1.133   4.657 -0.2408  0.1029  0.0328
    1TYR     BB  936   2.716   1.583   0.152  0.0922 -0.1586 -0.0060
    1TYR    SC1  937   2.931   1.749   0.290  0.0317 -0.0508 -0.2876
    1TYR    SC2  938   3.168   1.861   0.356 -0.0525  0.0021 -0.0659
    1TYR    SC3  939   2.994   1.787   0.550 -0.1483 -0.1899 -0.2209
    2LYS     BB  940   2.473   1.666   0.322 -0.0454  0.2974 -0.1287
    2LYS    SC1  941   2.525   1.486   0.594  0.1281 -0.0747  0.3750
    2LYS    SC2  942   2.600   1.281   0.645 -0.1044 -0.2697  0.0177
    3TYR     BB  943   2.297   1.851   0.253  0.7023 -0.1066  0.2266
    3TYR    SC1  944   2.307   2.127   0.204  0.0104 -0.2035  0.1271
    3TYR    SC2  945   2.212   2.371   0.141  0.3229 -0.1291 -0.0836
    3TYR    SC3  946   2.289   2.318   0.394 -0.1037 -0.1403  0.0543
    1TYR     BB  947   5.178   7.159   4.643  0.2946 -0.4685 -0.0200
    1TYR    SC1  948   5.165   6.878   4.525 -0.0621 -0.1860  0.0329
    1TYR    SC2  949   5.036   6.643   4.559 -0.0026 -0.2467 -0.1457
    1TYR    SC3  950   5.117   6.718   4.313 -0.1976  0.0553 -0.1247
    2LYS     BB  951   5.413   7.267   4.513  0.0283 -0.2100  0.0088
    2LYS    SC1  952   5.428   7.420   4.268 -0.3729 -0.1582 -0.0040
    2LYS    SC2  953   5.545   7.506   4.065  0.1354  0.1573 -0.1771
    3TYR     BB  954   5.651   7.078   4.608  0.0843 -0.0491 -0.3262
    3TYR    SC1  955   5.862   7.164   4.822  0.0058 -0.1328  0.0440
    3TYR    SC2  956   6.083   7.151   4.976  0.1588  0.2838 -0.1241
    3TYR    SC3  957   5.911   7.358   5.002 -0.0060  0.1683 -0.2642
    1TYR     BB  958   2.724   3.548   1.815  0.2026 -0.3314  0.0487
    1TYR    SC1  959   2.954   3.687   2.014 -0.0596 -0.1677  0.0907
    1TYR    SC2  960   2.994   3.818   2.246  0.1493 -0.1462  0.0459
    1TYR    SC3  961   3.056   3.937   2.012 -0.2562 -0.0855 -0.0408
    2LYS     BB  962   2.766   3.589   1.501 -0.0748  0.0350  0.3404
    2LYS    SC1  963   2.653   3.851   1.430  0.0401  0.2642 -0.0374
    2LYS    SC2  964   2.515   4.034   1.389  0.1635 -0.1262  0.1730
    3TYR     BB  965   3.000   3.341   1.352  0.0076 -0.2361  0.0576
    3TYR    SC1  966   3.087   3.547   1.155  0.3525 -0.0835 -0.1000
    3TYR    SC2  967   3.129   3.709   0.943  0.3424  0.0353 -0.0131
    3TYR    SC3  968   3.307   3.704   1.145  0.4172 -0.1721 -0.0807
    1TYR     BB  969   6.560   6.028   3.480 -0.0586  0.4043 -0.2123
    1TYR    SC1  970   6.638   5.749   3.475  0.2171  0.1016 -0.2012
    1TYR    SC2  971   6.833   5.606   3.355  0.1562 -0.0928 -0.0737
    1TYR    SC3  972   6.616   5.480   3.455  0.2419  0.0492  0.3131
    2LYS     BB  973   6.779   6.158   3.278 -0.3044  0.0357 -0.3202
    2LYS    SC1  974   7.095   6.080   3.346  0.0005 -0.0350  0.1144
    2LYS    SC2  975   7.235   5.869   3.345 -0.1508  0.2205 -0.0292
    3TYR     BB  976   6.771   6.254   2.982  0.1480  0.1015  0.0597
    3TYR    SC1  977   6.691   6.570   2.969  0.1942  0.1462 -0.0808
    3TYR    SC2  978   6.680   6.839   2.980  0.1278  0.1504 -0.2284
    3TYR    SC3  979   6.461   6.698   2.909  0.1324  0.0510 -0.0502
    1TYR     BB  980   4.304   1.268   6.332 -0.2078  0.1853 -0.0370
    1TYR    SC1  981   3.967   1.323   6.294 -0.2737 -0.0260  0.0360
    1TYR    SC2  982   3.721   1.239   6.369 -0.2925  0.0384  0.0469
    1TYR    SC3  983   3.760   1.496   6.294 -0.1552  0.1281  0.4001
    2LYS     BB  984   4.409   1.083   6.128  0.1685  0.2370  0.0256
    2LYS    SC1  985   4.108   0.918   6.064  0.1060  0.2065 -0.2974
    2LYS    SC2  986   3.855   0.840   6.072  0.2921 -0.0503 -0.0285
    3TYR     BB  987   4.494   1.092   5.826 -0.0236  0.0377 -0.1082
    3TYR    SC1  988   4.310   0.927   5.609  0.0636 -0.0519 -0.3236
    3TYR    SC2  989   4.085   0.876   5.469 -0.2205 -0.2950  0.1896
    3TYR    SC3  990   4.204   0.678   5.610  0.2346 -0.1322  0.0536
    1TYR     BB  991   6.499   5.337   3.001 -0.2142  0.1010 -0.0642
    1TYR    SC1  992   6.184   5.233   3.118  0.2756 -0.1742 -0.1294
    1TYR    SC2  993   5.967   5.074   3.139  0.1332 -0.0724 -0.6569
    1TYR    SC3  994   5.938   5.332   3.065  0.4235 -0.0062 -0.5535
    2LYS     BB  995   6.702   5.119   3.085 -0.0325  0.1195 -0.0895
    2LYS    SC1  996   6.616   4.821   3.109  0.3356  0.1783 -0.2712
    2LYS    SC2  997   6.380   4.720   3.195  0.3214 -0.2528  0.2020
    3TYR     BB  998   6.960   5.197   3.174  0.3016  0.0350 -0.1255
    3TYR    SC1  999   7.178   4.998   3.206 -0.1661 -0.0783  0.2314
    3TYR    SC2 1000   7.285   4.867   2.995 -0.2998  0.1729 -0.0013
    3TYR    SC3 1001   7.379   4.823   3.245 -0.4500 -0.4859 -0.0393
    1TYR     BB 1002   5.034   1.107   5.804 -0.1991 -0.2650  0.0075
    1TYR    SC1 1003   4.996   0.997   6.080  0.0804  0.1837  0.1522
    1TYR    SC2 1004   5.082   1.047   6.331  0.1328  0.0005  0.1722
    1TYR    SC3 1005   4.881   0.871   6.290  0.2549 -0.1185  0.0733
    2LYS     BB 1006   5.328   1.019   5.681  0.1919 -0.0253  0.1178
    2LYS    SC1 1007   5.451   1.123   5.408  0.0061  0.2832 -0.1387
    2LYS    SC2 1008   5.708   1.169   5.316  0.1731 -0.0945  0.0263
    3TYR     BB 1009   5.482   0.809   5.784 -0.1798  0.0829 -0.0038
    3TYR    SC1 1010   5.712   0.744   5.563 -0.1282  0.3759 -0.3896
    3TYR    SC2 1011   5.734   0.512   5.426 -0.4159  0.2099 -0.1677
    3TYR    SC3 1012   5.904   0.715   5.375  0.1444 -0.2005 -0.0595
    1TYR     BB 1013   5.307   1.443   5.044 -0.1855 -0.0690 -0.2442
    1TYR    SC1 1014   5.082   1.230   5.115  0.3811 -0.1164  0.1139
    1TYR    SC2 1015   4.985   0.978   5.122 -0.2098  0.0862 -0.0172
    1TYR    SC3 1016   4.941   1.146   5.329 -0.4799  0.2912 -0.2311
    2LYS     BB 1017   5.218   1.781   5.067 -0.3295  0.0707  0.0474
    2LYS    SC1 1018   5.418   1.951   4.981  0.0273  0.2993  0.0763
    2LYS    SC2 1019   5.527   2.136   4.824  0.2938  0.1192  0.2076
    3TYR     BB 1020   4.848   1.695   5.156  0.4136 -0.0507 -0.1900
    3TYR    SC1 1021   4.630   1.760   4.986  0.2473 -0.0503 -0.3016
    3TYR    SC2 1022   4.393   1.777   4.858 -0.0992  0.4035  0.3336
    3TYR    SC3 1023   4.603   1.926   4.775 -0.1070  0.2090 -0.0650
    1TYR     BB 1024   4.177   3.700   5.670  0.0632 -0.0675  0.0411
    1TYR    SC1 1025   3.891   3.608   5.744 -0.1302 -0.0743 -0.5114
    1TYR    SC2 1026   3.661   3.732   5.813  0.1792  0.2004  0.1291
    1TYR    SC3 1027   3.684   3.465   5.842  0.0096  0.1989  0.2694
    2LYS     BB 1028   4.326   3.550   5.458 -0.1127 -0.0614 -0.1657
    2LYS    SC1 1029   4.639   3.502   5.589  0.1154  0.0457 -0.2722
    2LYS    SC2 1030   4.857   3.563   5.483  0.0103  0.2939  0.4149
    3TYR     BB 1031   4.208   3.332   5.252  0.1552  0.3306 -0.2855
    3TYR    SC1 1032   4.173   3.512   4.993  0.1211  0.4022  0.0340
    3TYR    SC2 1033   4.288   3.623   4.775 -0.1172  0.2254 -0.1887
    3TYR    SC3 1034   4.023   3.570   4.777 -0.0614 -0.0810  0.0153
    1TYR     BB 1035   2.983   2.615   6.594  0.0435  0.3200  0.1504
    1TYR    SC1 1036   3.227   2.787   6.551 -0.3839  0.2819  0.2740
    1TYR    SC2 1037   3.362   3.005   6.465 -0.0525 -0.1571 -0.4273
    1TYR    SC3 1038   3.487   2.819   6.616 -0.2546 -0.0077 -0.0610
    2LYS     BB 1039   2.911   2.340   6.584 -0.2430 -0.0240  0.0956
    2LYS    SC1 1040   3.060   2.087   6.465  0.0291  0.0647  0.2922
    2LYS    SC2 1041   3.262   1.955   6.412  0.0712 -0.1830 -0.3443
    3TYR     BB 1042   2.541   2.285   6.528 -0.0725  0.0293 -0.2515
    3TYR    SC1 1043   2.432   2.592   6.411  0.1257  0.1236  0.3138
    3TYR    SC2 1044   2.564   2.823   6.365 -0.1472  0.1844 -0.2835
    3TYR    SC3 1045   2.300   2.827   6.424 -0.0863  0.0298  0.0219
    1TYR     BB 1046   2.505   2.130   1.278 -0.0815 -0.1108  0.0248
    1TYR    SC1 1047   2.340   2.425   1.334 -0.2085 -0.2499 -0.1589
    1TYR    SC2 1048   2.371   2.693   1.326 -0.1485 -0.2599 -0.3195
    1TYR    SC3 1049   2.244   2.577   1.535  0.1854 -0.1434 -0.0396
    2LYS     BB 1050   2.320   1.907   1.254  0.0011 -0.1036  0.1161
    2LYS    SC1 1051   2.230   1.732   1.483 -0.1292  0.0630  0.3750
    2LYS    SC2 1052   2.188   1.683   1.760 -0.1613 -0.0139 -0.1274
    3TYR     BB 1053   2.559   1.637   1.135 -0.0102  0.3183 -0.1145
    3TYR    SC1 1054   2.268   1.436   1.035 -0.2279  0.1583 -0.0210
    3TYR    SC2 1055   2.178   1.217   0.907 -0.0568 -0.0326  0.1743
    3TYR    SC3 1056   2.006   1.372   1.045 -0.2505  0.1937 -0.2927
    1TYR     BB 1057   3.052   2.810   2.402 -0.3128  0.0601  0.0221
    1TYR    SC1 1058   3.014   2.870   2.713 -0.0906  0.1630  0.1611
    1TYR    SC2 1059   2.916   2.790   2.951  0.3254 -0.1177  0.2516
    1TYR    SC3 1060   2.969   3.051   2.908 -0.1677  0.0028  0.2955
    2LYS     BB 1061   3.249   2.605   2.353 -0.1017  0.1975 -0.0124
    2LYS    SC1 1062   3.175   2.406   2.559  0.0335 -0.1260 -0.1563
    2LYS    SC2 1063   3.055   2.352   2.765  0.1522  0.0443  0.3842
    3TYR     BB 1064   3.426   2.680   2.078 -0.1066 -0.0377  0.2520
    3TYR    SC1 1065   3.696   2.679   2.197  0.0458  0.0116  0.0173
    3TYR    SC2 1066   3.904   2.621   2.359 -0.1044  0.0203  0.2174
    3TYR    SC3 1067   3.919   2.831   2.190 -0.0017  0.1037  0.3281
    1TYR     BB 1068   5.101   5.522   5.749 -0.1305  0.0411  0.0979
    1TYR    SC1 1069   4.929   5.372   5.527  0.1155  0.0205 -0.0575
    1TYR    SC2 1070   4.782   5.146   5.510  0.2752 -0.0886 -0.0206
    1TYR    SC3 1071   4.707   5.366   5.374 -0.2430  0.0413  0.4312
    2LYS     BB 1072   4.974   5.832   5.733 -0.0873  0.1431  0.1173
    2LYS    SC1 1073   4.996   5.915   6.011  0.1618 -0.2684  0.0937
    2LYS    SC2 1074   5.113   6.076   6.170  0.0852 -0.2658  0.2773
    3TYR     BB 1075   4.817   5.912   5.559  0.0853  0.1528 -0.1015
    3TYR    SC1 1076   4.710   6.150   5.400 -0.2321  0.2197 -0.0157
    3TYR    SC2 1077   4.718   6.420   5.394 -0.6808  0.2384 -0.2843
    3TYR    SC3 1078   4.723   6.280   5.163  0.5775 -0.0593 -0.1660
    1TYR     BB 1079   3.247   2.710   0.848 -0.1031  0.2126 -0.1246
    1TYR    SC1 1080   3.106   2.737   0.582 -0.5042 -0.2527  0.1006
    1TYR    SC2 1081   3.037   2.751   0.322  0.1339  0.4069 -0.0740
    1TYR    SC3 1082   2.846   2.760   0.512 -0.3417  0.0237 -0.4964
    2LYS     BB 1083   3.507   2.583   0.939 -0.0710 -0.0209 -0.2601
    2LYS    SC1 1084   3.453   2.359   1.181  0.0476 -0.2724  0.1779
    2LYS    SC2 1085   3.540   2.109   1.280  0.0625 -0.0718  0.1035
    3TYR     BB 1086   3.754   2.641   0.772 -0.0311  0.1471  0.2940
    3TYR    SC1 1087   3.657   2.800   0.534  0.1128 -0.2080 -0.3966
    3TYR    SC2 1088   3.715   3.037   0.418  0.0134  0.0701  0.0835
    3TYR    SC3 1089   3.484   2.910   0.359 -0.0237  0.1890 -0.0352
    1TYR     BB 1090   4.709   7.089   4.599  0.0709 -0.0585  0.1597
    1TYR    SC1 1091   4.806   7.233   4.313 -0.3707  0.0095 -0.1789
    1TYR    SC2 1092   5.025   7.150   4.179 -0.2658 -0.0665  0.0344
    1TYR    SC3 1093   4.921   7.394   4.129  0.0531  0.1006  0.1471
    2LYS     BB 1094   4.464   6.844   4.525  0.1280  0.0361  0.0132
    2LYS    SC1 1095   4.600   6.685   4.309 -0.1221  0.0435 -0.1890
    2LYS    SC2 1096   4.626   6.480   4.144 -0.1218 -0.1299 -0.1467
    3TYR     BB 1097   4.181   6.978   4.431  0.0458 -0.0436 -0.1595
    3TYR    SC1 1098   4.013   6.824   4.232  0.1505 -0.1805  0.0017
    3TYR    SC2 1099   3.851   6.650   4.103  0.2329 -0.0899 -0.2301
    3TYR    SC3 1100   4.119   6.630   4.076  0.2510 -0.0590 -0.0832
    4W        W 1101   7.020   1.210   0.235  0.1432  0.2995  0.1951
    5W        W 1102   5.290   1.361   7.202 -0.1612 -0.0609  0.0347
    6W        W 1103   5.848   1.024   0.891 -0.0404 -0.2607 -0.0752
    7W        W 1104   4.754   5.373   7.325  0.0554  0.2030  0.0272
    8W        W 1105   2.241   6.312   5.328  0.1456 -0.1058 -0.0656
    9W        W 1106   2.743   7.621   3.258  0.0042  0.1622 -0.0043
   10W        W 1107   7.097   1.526   3.479  0.0092  0.0190 -0.1076
   11W        W 1108   3.975   3.083   6.649  0.2940  0.1642 -0.0507
   12W        W 1109   2.883   7.455   5.576 -0.1344  0.1287  0.0193
   13W        W 1110   4.253   5.993   0.263  0.2126  0.2374 -0.1218
   14W        W 1111   3.762   4.743   1.857 -0.4146  0.2285 -0.0265
   15W        W 1112   6.496   3.336   6.304 -0.0696  0.1046 -0.1127
   16W        W 1113   2.312   5.842   0.954  0.1636  0.1929  0.1063
   17W        W 1114   2.360   0.347   7.472  0.0595 -0.1372 -0.1958
   18W        W 1115   7.054   1.258   2.464  0.1081 -0.4584 -0.1273
   19W        W 1116   5.229   5.364   2.882  0.1678  0.3328 -0.0522
   20W        W 1117   4.763   7.279   2.908 -0.0362  0.0668  0.0753
   21W        W 1118   0.901   3.663   0.250  0.0945 -0.1321  0.4256
   22W        W 1119   3.352   5.965   0.082 -0.2331  0.3101 -0.1376
   23W        W 1120   3.199   7.238   6.477 -0.0494 -0.2265 -0.2706
   24W        W 1121   4.792   6.114   1.877  0.2611 -0.2238  0.1883
   25W        W 1122   3.606   6.379   7.497 -0.1966 -0.0897  0.3052
   26W        W 1123   2.475   3.926   5.310 -0.1099  0.2668 -0.0352
   27W        W 1124   4.287   5.683   3.828  0.1772  0.0533 -0.1660
   28W        W 1125   6.337   4.596   2.703  0.0064  0.3387  0.3349
   29W        W 1126   2.575   5.866   0.020  0.1640 -0.1137  0.1719
   30W        W 1127   1.334   2.725   7.254 -0.3325 -0.4469 -0.0750
   31W        W 1128   1.861   2.125   0.517 -0.0908  0.0303  0.1392
   32W        W 1129   0.336   4.046   4.266 -0.1499  0.0829  0.0680
   33W        W 1130   6.635   1.288   7.478 -0.1502  0.2352 -0.0965
   34W        W 1131   4.518   6.414   3.224  0.0609 -0.2076 -0.0582
   35W        W 1132   2.336   6.246   7.027 -0.0227  0.0032  0.0717
   36W        W 1133   3.251   6.327   2.068  0.2300 -0.0705 -0.0014
   37W        W 1134   6.366   4.100   5.438 -0.0683 -0.4808 -0.1899
   38W        W 1135   0.364   2.015   1.674 -0.0564  0.1653  0.1153
   39W        W 1136   1.349   4.722   6.283 -0.0588  0.0553  0.0674
   40W        W 1137   1.093   0.993   1.576 -0.1525 -0.0146 -0.1107
   41W        W 1138   4.044   0.261   4.169 -0.1507 -0.1091 -0.2024
   42W        W 1139   3.457   6.415   0.327  0.1552  0.0675 -0.1350
   43W        W 1140   3.994   3.554   6.708 -0.1473  0.2766 -0.4171
   44W        W 1141   6.265   7.137   0.147 -0.0419 -0.0473 -0.0906
   45W        W 1142   2.727   7.503   4.104 -0.1389  0.0579 -0.1607
   46W        W 1143   5.393   1.203   3.598  0.0218  0.0783 -0.0100
   47W        W 1144   1.119   1.444   7.259  0.0754  0.2896 -0.0403
   48W        W 1145   0.045   4.086   5.557  0.1551 -0.0374 -0.1173
   49W        W 1146   3.084   4.914   6.984  0.2088  0.1567  0.0033
   50W        W 1147   1.712   6.449   3.585 -0.2566 -0.2025  0.0473
   51W        W 1148   3.802   0.258   7.351 -0.0523  0.0808 -0.0318
   52W        W 1149   5.148   0.930   2.727  0.1182  0.0841  0.4895
   53W        W 1150   2.430   2.433   3.900  0.0126 -0.0532 -0.1984
   54W        W 1151   2.148   5.160   1.382  0.2401  0.2611 -0.2383
   55W        W 1152   2.278   3.705   2.799  0.0691 -0.0117 -0.0178
   56W        W 1153   0.210   6.208   1.034  0.0774  0.1017  0.2294
   57W        W 1154   2.554   4.950   1.020 -0.3940 -0.1125  0.0157
   58W        W 1155   7.545   7.164   0.783 -0.0927  0.1630 -0.0023
   59W        W 1156   2.585   4.077   6.609 -0.0014  0.0602 -0.0807
   60W        W 1157   6.861   6.254   5.768 -0.0068 -0.3449  0.1632
   61W        W 1158   4.835   2.976   3.765 -0.0457  0.2150  0.0210
   62W        W 1159   4.234   1.062   4.427  0.1613  0.2258  0.2903
   63W        W 1160   0.259   5.013   1.214 -0.3916  0.0041  0.1469
   64W        W 1161   3.495   4.115   7.513 -0.0493  0.0987 -0.2859
   65W        W 1162   0.737   6.498   5.094 -0.4336  0.0682 -0.0519
   66W        W 1163   0.852   6.965   1.221  0.2238  0.2350 -0.0946
   67W        W 1164   7.100   2.123   0.528  0.0335 -0.2089 -0.3014
   68W        W 1165   1.137   3.967   3.665  0.2541 -0.1089  0.0217
   69W        W 1166   1.201   1.178   6.816 -0.0741 -0.2792  0.2504
   70W        W 1167   6.996   2.846   6.809  0.1863 -0.2342 -0.0217
   71W        W 1168   0.059   4.108   1.194  0.1173  0.1913  0.1608
   72W        W 1169   6.876   0.813   0.991  0.1665  0.2927  0.1045
   73W        W 1170   5.531   0.728   3.187  0.1784 -0.1082 -0.1829
   74W        W 1171   2.908   3.187   5.581  0.0039  0.1403 -0.0341
   75W        W 1172   2.802   4.488   6.958 -0.0162 -0.1266  0.0607
   76W        W 1173   0.577   2.945   4.327 -0.0569  0.0848 -0.1499
   77W        W 1174   4.590   6.736   2.175 -0.1449  0.2111 -0.1040
   78W        W 1175   3.893   7.367   7.611  0.1365 -0.0454 -0.0243
   79W        W 1176   3.330   3.400   5.434  0.2257 -0.0720  0.0699
   80W        W 1177   5.809   0.554   6.110 -0.0711 -0.2062  0.1227
   81W        W 1178   2.243   3.763   6.915 -0.0921 -0.0153  0.0784
   82W        W 1179   6.183   0.822   5.927 -0.0486 -0.1236 -0.0425
   83W        W 1180   5.543   2.531   1.480  0.1897  0.0991  0.2978
   84W        W 1181   0.529   4.288   5.596  0.0449  0.1281  0.4678
   85W        W 1182   4.085   3.363   6.196  0.0620  0.1408 -0.2349
   86W        W 1183   7.225   4.353   0.174 -0.1371  0.3226 -0.1620
   87W        W 1184   1.527   7.361   7.047 -0.0709 -0.0112 -0.0497
   88W        W 1185   5.599   1.198   1.958  0.0502 -0.3051 -0.0575
   89W        W 1186   6.126   5.608   5.349  0.2819 -0.1183 -0.0336
   90W        W 1187   3.029   0.666   2.381  0.1142 -0.1770 -0.1218
   91W        W 1188   6.335   4.721   7.236  0.2093  0.1094 -0.0290
   92W        W 1189   2.387   1.843   5.704 -0.1178  0.3196  0.1340
   93W        W 1190   3.818   0.284   6.885  0.1002 -0.0591 -0.0480
   94W        W 1191   6.080   1.007   4.243 -0.4704 -0.0489  0.0227
   95W        W 1192   2.000   5.571   5.282 -0.1519 -0.0456 -0.1770
   96W        W 1193   6.665   7.203   4.954 -0.2369  0.1148 -0.2444
   97W        W 1194   0.853   3.218   0.085 -0.2771  0.0883 -0.1621
   98W        W 1195   0.720   5.475   5.255 -0.0776 -0.0624  0.0726
   99W        W 1196   5.660   0.263   2.136  0.2760  0.1664 -0.3260
  100W        W 1197   1.740   0.346   0.150  0.0945  0.0527 -0.4858
  101W        W 1198   0.733   3.840   4.594  0.0362 -0.1377 -0.1631
  102W        W 1199   0.279   5.705   7.401 -0.1212 -0.0556  0.1370
  103W        W 1200   1.065   2.605   1.014  0.4179  0.0143 -0.1125
  104W        W 1201   1.050   4.121   0.118 -0.0174  0.0902  0.2815
  105W        W 1202   2.432   5.444   4.446  0.0293 -0.2220 -0.1844
  106W        W 1203   7.345   4.202   0.665  0.0245 -0.0459 -0.0399
  107W        W 1204   0.524   1.091   1.279  0.0869  0.1338  0.1090
  108W        W 1205   0.674   2.468   1.767  0.2779  0.1866  0.0220
  109W        W 1206   5.602   0.201   3.368  0.0202 -0.0674 -0.0792
  110W        W 1207   4.811   0.502   0.152  0.0438 -0.0610 -0.1380
  111W        W 1208   3.302   7.209   7.028  0.0702  0.0683  0.0120
  112W        W 1209   2.850   4.645   4.006  0.1768  0.0456  0.1776
  113W        W 1210   0.076   3.569   1.915  0.0746  0.1480 -0.2305
  114W        W 1211   6.555   5.156   7.567 -0.0521  0.0034  0.1911
  115W        W 1212   2.541   4.510   0.681  0.3605  0.0545 -0.4060
  116W        W 1213   5.893   3.814   1.818  0.1501 -0.0530  0.4580
  117W        W 1214   5.425   0.139   1.265 -0.0970 -0.1693 -0.1031
  118W        W 1215   6.477   1.152   2.499 -0.1272  0.2418  0.0804
  119W        W 1216   7.525   3.729   6.684  0.3676  0.1160 -0.2262
  120W        W 1217   5.986   4.633   3.538 -0.1039 -0.1772 -0.0906
  121W        W 1218   6.453   1.368   0.356  0.1270 -0.1325 -0.3168
  122W        W 1219   2.112   7.628   1.463 -0.1506 -0.0230 -0.1573
  123W        W 1220   1.588   3.077   2.557  0.2932  0.3189 -0.2044
  124W        W 1221   7.421   4.780   0.344 -0.1272  0.1374  0.4054
  125W        W 1222   0.871   7.476   4.694 -0.2378 -0.1415 -0.1535
  126W        W 1223   5.901   4.547   3.000 -0.1168 -0.0251  0.3570
  127W        W 1224   5.473   4.131   0.606  0.0032 -0.2435 -0.0191
  128W        W 1225   6.612   1.735   3.401 -0.2387 -0.1768  0.0472
  129W        W 1226   7.397   1.636   5.018 -0.1981  0.2476  0.0474
  130W        W 1227   0.553   0.293   3.947 -0.0097  0.1023 -0.1588
  131W        W 1228   2.115   7.401   1.021  0.0614  0.1575  0.2227
  132W        W 1229   6.178   3.835   1.331 -0.4986 -0.0628 -0.1807
  133W        W 1230   0.514   6.871   6.003 -0.0110  0.2213 -0.0154
  134W        W 1231   4.701   0.194   0.847 -0.2430 -0.2948 -0.1830
  135W        W 1232   3.199   0.848   7.450  0.2393  0.0715 -0.0191
  136W        W 1233   2.316   2.984   3.732 -0.1611 -0.1002  0.1737
  137W        W 1234   7.425   6.463   0.790  0.3502  0.0991  0.0749
  138W        W 1235   4.130   3.853   1.858 -0.0395  0.1507  0.1562
  139W        W 1236   6.400   3.940   0.549 -0.0111 -0.0176 -0.1620
  140W        W 1237   1.986   4.663   3.191  0.0041  0.1422  0.1645
  141W        W 1238   1.430   5.404   0.380  0.0918 -0.1942  0.3918
  142W        W 1239   7.118   2.260   0.025 -0.2381  0.0983 -0.1137
  143W        W 1240   1.671   2.000   4.129 -0.1164  0.0440  0.0534
  144W        W 1241   6.610   1.639   0.951 -0.3884  0.3823  0.0046
  145W        W 1242   7.574   5.745   0.145 -0.1965  0.1311 -0.3350
  146W        W 1243   4.618   4.636   2.902  0.0976  0.1201  0.0688
  147W        W 1244   2.120   7.519   6.063 -0.2093  0.2646 -0.2213
  148W        W 1245   0.973   0.901   5.072 -0.0304 -0.0863 -0.0408
  149W        W 1246   0.619   0.062   3.126 -0.1070  0.1068 -0.2324
  150W        W 1247   5.932   7.625   0.601  0.0981 -0.1257 -0.1513
  151W        W 1248   1.189   5.383   6.287 -0.0771 -0.0352  0.0593
  152W        W 1249   2.568   0.819   5.944  0.1327  0.0196  0.0689
  153W        W 1250   0.745   6.680   1.614 -0.3380  0.2019  0.0399
  154W        W 1251   1.212   2.055   4.345  0.1271 -0.1152 -0.0269
  155W        W 1252   5.961   7.131   2.048  0.2217 -0.2280 -0.0252
  156W        W 1253   4.244   4.270   6.657  0.2411 -0.1037 -0.0684
  157W        W 1254   5.753   2.450   1.008 -0.1385  0.1063  0.0242
  158W        W 1255   1.194   1.076   5.881  0.1752 -0.0103  0.1598
  159W        W 1256   0.064   1.799   2.326 -0.0235 -0.0411  0.1543
  160W        W 1257   3.568   4.580   0.659 -0.2290  0.1686  0.0335
  161W        W 1258   0.056   0.107   6.157  0.0341 -0.1371 -0.0611
  162W        W 1259   5.656   3.785   4.547  0.0242  0.0409 -0.2370
  163W        W 1260   0.183   3.160   6.437  0.1537 -0.2333 -0.2411
  164W        W 1261   4.823   2.748   6.403  0.0804 -0.0792 -0.0724
  165W        W 1262   7.121   1.680   0.860  0.4787  0.2455 -0.0871
  166W        W 1263   7.227   4.251   1.800  0.0898 -0.1694  0.1193
  167W        W 1264   4.263   4.775   6.530 -0.2488 -0.1011  0.1211
  168W        W 1265   2.733   0.335   6.224 -0.1019 -0.0213 -0.1282
  169W        W 1266   4.382   0.362   0.406  0.0373 -0.0861  0.1019
  170W        W 1267   5.522   3.291   6.848 -0.2263  0.0271 -0.0458
  171W        W 1268   1.175   1.852   4.825  0.2027 -0.2917  0.0285
  172W        W 1269   0.510   0.545   6.956  0.1880 -0.0845 -0.1826
  173W        W 1270   1.369   7.216   7.476 -0.0106 -0.0435  0.1973
  174W        W 1271   7.276   5.697   5.338 -0.0303 -0.0258  0.0755
  175W        W 1272   5.872   4.348   6.581 -0.0003  0.0150  0.0923
  176W        W 1273   4.192   4.486   2.132  0.2200  0.0311 -0.0790
  177W        W 1274   3.710   0.723   3.088  0.1093  0.3529  0.0299
  178W        W 1275   5.217   4.028   4.531 -0.0604 -0.1402 -0.1117
  179W        W 1276   5.999   5.237   6.114  0.3938  0.3077 -0.0087
  180W        W 1277   5.301   3.954   2.423  0.1937  0.1065 -0.0424
  181W        W 1278   0.997   3.024   7.020 -0.2575 -0.1628 -0.0157
  182W        W 1279   1.710   6.045   1.135  0.1655  0.0198  0.0085
  183W        W 1280   2.188   7.180   6.932 -0.0508 -0.0460  0.2717
  184W        W 1281   2.597   2.880   5.887 -0.2058  0.0862  0.3382
  185W        W 1282   0.667   6.544   4.613  0.0074 -0.0414  0.1706
  186W        W 1283   3.191   1.369   2.203  0.0695  0.0323 -0.0288
  187W        W 1284   5.326   4.658   3.186 -0.0341  0.0917  0.0056
  188W        W 1285   0.331   2.007   1.082 -0.1717 -0.0807  0.2994
  189W        W 1286   0.591   6.899   2.103 -0.1899  0.0510 -0.0872
  190W        W 1287   4.396   7.437   4.459  0.0185 -0.0316 -0.0444
  191W        W 1288   2.802   3.954   7.054 -0.3425 -0.0619  0.0834
  192W        W 1289   3.335   5.056   7.368 -0.0723  0.1129 -0.2272
  193W        W 1290   1.310   5.917   7.108  0.1464 -0.1783  0.0018
  194W        W 1291   2.218   1.915   3.900  0.0762 -0.0749  0.1701
  195W        W 1292   5.436   5.111   6.711 -0.0204 -0.1667 -0.3271
  196W        W 1293   2.458   4.570   5.418 -0.2560 -0.1230  0.2445
  197W        W 1294   6.707   1.591   3.874  0.0174  0.0995 -0.1108
  198W        W 1295   5.839   2.164   7.356  0.1872  0.3624 -0.0856
  199W        W 1296   5.133   0.001   7.148 -0.2327 -0.0287 -0.0290
  200W        W 1297   2.202   2.633   3.403 -0.3681 -0.1458  0.2448
  201W        W 1298   1.517   0.859   0.220 -0.1600 -0.1827 -0.1022
  202W        W 1299   3.007   4.678   5.480 -0.0540 -0.1174 -0.3359
  203W        W 1300   7.626   2.350   2.417  0.1651  0.1726  0.2025
  204W        W 1301   2.886   6.196   1.761 -0.3015 -0.1020  0.0416
  205W        W 1302   4.700   2.218   2.653  0.1092  0.1860  0.0327
  206W        W 1303   2.922   1.112   4.062 -0.1549 -0.0320  0.1250
  207W        W 1304   0.900   1.774   7.540  0.3262 -0.0775  0.0892
  208W        W 1305   5.967   1.568   6.048 -0.2796  0.0624 -0.4159
  209W        W 1306   2.115   3.471   5.154 -0.1125 -0.2434 -0.0290
  210W        W 1307   0.157   7.193   1.998 -0.0511 -0.1727 -0.4154
  211W        W 1308   0.001   6.855   7.549  0.0413  0.1769  0.2146
  212W        W 1309   5.430   2.394   5.260  0.2037  0.1305  0.0949
  213W        W 1310   7.211   3.888   1.078 -0.0557  0.3083  0.0244
  214W        W 1311   0.374   6.113   0.051  0.4867  0.0894 -0.2543
  215W        W 1312   5.945   2.465   0.195  0.3655 -0.2226 -0.0446
  216W        W 1313   4.976   4.520   1.573  0.0162 -0.0465 -0.1400
  217W        W 1314   2.350   7.400   1.892 -0.1353 -0.0092  0.0536
  218W        W 1315   2.666   0.825   4.869 -0.1557  0.4870  0.4963
  219W        W 1316   1.527   4.260   6.459  0.1313  0.0602 -0.1424
  220W        W 1317   0.039   3.303   6.931  0.2050  0.1928 -0.0731
  221W        W 1318   4.169   0.827   0.752 -0.0840 -0.1060 -0.2339
  222W        W 1319   4.124   4.652   6.986  0.2806  0.0705  0.2432
  223W        W 1320   7.508   4.603   1.027 -0.1163 -0.4656  0.1195
  224W        W 1321   2.178   6.696   1.688  0.2038 -0.1794 -0.2762
  225W        W 1322   1.176   5.915   3.990 -0.1019 -0.0067 -0.1018
  226W        W 1323   7.392   6.277   6.459  0.2333  0.0286 -0.1767
  227W        W 1324   6.649   4.124   2.512 -0.3330 -0.1037 -0.0383
  228W        W 1325   2.808   1.213   6.149  0.4254  0.2921  0.1337
  229W        W 1326   6.050   5.293   1.394 -0.0424  0.3538  0.1034
  230W        W 1327   5.712   5.460   2.221 -0.0521 -0.2230  0.2950
  231W        W 1328   0.064   3.157   2.611 -0.2153  0.1481 -0.1617
  232W        W 1329   5.465   1.770   6.973  0.1289  0.4104  0.2002
  233W        W 1330   1.542   4.579   3.404  0.3795 -0.2286 -0.3360
  234W        W 1331   3.538   6.119   7.013 -0.1568  0.0694  0.0627
  235W        W 1332   0.325   1.571   1.980  0.2131  0.0706  0.0681
  236W        W 1333   0.568   6.304   0.633 -0.0382  0.0646 -0.1397
  237W        W 1334   5.825   0.751   2.213  0.0645  0.0623 -0.1328
  238W        W 1335   0.510   3.464   4.367  0.1523 -0.0052 -0.1823
  239W        W 1336   1.474   1.593   5.121 -0.1388  0.4753  0.3233
  240W        W 1337   7.194   1.304   6.747 -0.4675 -0.1906 -0.0548
  241W        W 1338   4.622   1.603   0.984  0.1811  0.1006 -0.0161
  242W        W 1339   0.980   4.926   5.977  0.3578 -0.0004 -0.0518
  243W        W 1340   6.434   3.174   5.423 -0.1375 -0.3944 -0.2318
  244W        W 1341   1.246   6.483   1.448  0.0226 -0.0500 -0.0202
  245W        W 1342   0.825   4.638   0.756 -0.0250 -0.0126 -0.0227
  246W        W 1343   1.628   6.739   7.544  0.1055 -0.1882  0.0355
  247W        W 1344   1.529   5.900   2.521 -0.0016  0.0548  0.0526
  248W        W 1345   4.966   7.248   1.426  0.3204  0.0676 -0.1625
  249W        W 1346   0.411   0.922   2.706  0.2411 -0.2920 -0.0541
  250W        W 1347   4.276   7.109   3.316  0.0953  0.1307  0.0520
  251W        W 1348   5.843   2.644   5.431  0.0110  0.0110 -0.1326
  252W        W 1349   1.044   5.044   4.986 -0.2053  0.0905 -0.0959
  253W        W 1350   1.508   0.801   7.383 -0.0786  0.0620  0.1872
  254W        W 1351   1.560   7.399   2.036  0.1602  0.2383 -0.0917
  255W        W 1352   6.762   6.269   6.608 -0.3468  0.1640 -0.0535
  256W        W 1353   1.992   3.721   0.642  0.0575 -0.0522  0.0027
  257W        W 1354   0.771   3.092   2.227 -0.3467  0.1396 -0.0259
  258W        W 1355   6.494   6.786   6.388 -0.2415 -0.0313 -0.0526
  259W        W 1356   2.102   1.253   5.720 -0.2937 -0.3729  0.0816
  260W        W 1357   6.939   0.347   6.364 -0.1906  0.3174 -0.2004
  261W        W 1358   4.707   7.375   7.087 -0.1539 -0.0127 -0.1427
  262W        W 1359   4.357   1.423   1.352  0.0365 -0.2672 -0.0293
  263W        W 1360   4.098   5.941   2.659 -0.2037 -0.2635  0.0985
  264W        W 1361   5.923   2.873   3.609  0.0669  0.0101  0.1261
  265W        W 1362   5.204   7.408   3.703  0.1040  0.2400 -0.0657
  266W        W 1363   2.171   7.604   3.287 -0.0686 -0.1410  0.2125
  267W        W 1364   0.529   7.335   5.069 -0.1241  0.0455  0.1538
  268W        W 1365   2.527   1.341   4.842  0.0033  0.0681  0.1761
  269W        W 1366   2.186   6.854   5.174 -0.0086  0.1828 -0.3165
  270W        W 1367   6.866   0.759   0.393 -0.1686  0.0067 -0.2736
  271W        W 1368   5.746   2.540   3.913  0.1113  0.2495  0.5427
  272W        W 1369   5.344   2.247   3.954  0.1677 -0.0147  0.0131
  273W        W 1370   1.095   4.052   4.193  0.1103  0.0067 -0.1516
  274W        W 1371   3.916   6.651   0.689 -0.0677 -0.1597 -0.0602
  275W        W 1372   3.071   6.058   6.430  0.3205 -0.0638 -0.4805
  276W        W 1373   4.757   3.365   3.392 -0.0260  0.0767 -0.2321
  277W        W 1374   6.527   0.355   0.175  0.0467  0.0093 -0.0698
  278W        W 1375   3.267   0.267   5.379  0.1806  0.2062  0.2359
  279W        W 1376   6.398   3.386   3.371  0.2536  0.0058 -0.2438
  280W        W 1377   7.095   6.590   0.052 -0.2531  0.2303  0.0335
  281W        W 1378   6.662   3.488   0.223 -0.1298  0.0212  0.1451
  282W        W 1379   1.531   4.974   7.127 -0.1257 -0.1037  0.0832
  283W        W 1380   7.357   4.971   6.519 -0.0811 -0.2411 -0.3017
  284W        W 1381   0.795   3.461   5.676 -0.0023 -0.2355  0.1872
  285W        W 1382   6.447   0.542   1.235 -0.2321 -0.1736 -0.3976
  286W        W 1383   1.899   3.846   3.762 -0.0516 -0.1354  0.0439
  287W        W 1384   1.226   3.649   2.708  0.0393  0.1918  0.1489
  288W        W 1385   2.819   0.829   7.093  0.4829 -0.1324 -0.0500
  289W        W 1386   2.702   5.825   7.144  0.0372  0.1328 -0.1666
  290W        W 1387   1.013   1.428   3.833  0.2131 -0.3175  0.1729
  291W        W 1388   5.989   2.509   6.534  0.0272 -0.2166  0.1858
  292W        W 1389   1.632   2.002   2.596 -0.0765  0.2160  0.0069
  293W        W 1390   5.527   2.439   0.559 -0.1219 -0.3200 -0.0257
  294W        W 1391   1.789   2.014   5.117  0.3493 -0.0541 -0.1893
  295W        W 1392   7.227   1.809   6.605 -0.4346  0.1049  0.1488
  296W        W 1393   2.583   6.016   6.128  0.0346 -0.0839  0.1643
  297W        W 1394   2.076   3.100   5.599 -0.0669 -0.0618  0.1345
  298W        W 1395   5.724   3.728   2.487  0.1225 -0.1069  0.0660
  299W        W 1396   1.948   5.210   4.457  0.1336 -0.2110  0.0503
  300W        W 1397   7.080   2.591   1.937  0.0349  0.1830  0.0407
  301W        W 1398   2.325   6.800   6.630  0.1221 -0.1740 -0.2640
  302W        W 1399   6.853   1.048   7.094  0.5642 -0.0196  0.1520
  303W        W 1400   2.538   6.576   0.641 -0.0566  0.0038 -0.3374
  304W        W 1401   0.140   5.078   3.494  0.0524  0.2186 -0.0440
  305W        W 1402   4.282   2.585   7.333  0.1426  0.2266 -0.1725
  306W        W 1403   5.612   0.697   2.679 -0.1256  0.2910  0.1589
  307W        W 1404   6.500   0.530   7.009  0.0779  0.0873 -0.0057
  308W        W 1405   0.277   6.677   0.826  0.1107 -0.1236 -0.2508
  309W        W 1406   3.533   0.520   0.584 -0.2670  0.0374  0.1291
  310W        W 1407   0.014   1.707   3.654 -0.0558 -0.0875 -0.1379
  311W        W 1408   5.417   6.571   0.954  0.1201 -0.1683  0.1111
  312W        W 1409   6.519   1.789   5.277  0.0179  0.2842 -0.2888
  313W        W 1410   7.362   2.725   6.442  0.1737  0.0146 -0.2582
  314W        W 1411   5.233   2.677   2.411  0.1064  0.0999 -0.0279
  315W        W 1412   1.816   4.196   4.341  0.2177  0.0569  0.0166
  316W        W 1413   1.727   2.033   6.555  0.2299 -0.0581  0.0337
  317W        W 1414   0.921   1.509   5.109  0.2626  0.2128  0.1192
  318W        W 1415   5.204   0.602   1.616 -0.1817 -0.2135  0.4681
  319W        W 1416   5.299   4.966   0.459  0.0075 -0.1200  0.1613
  320W        W 1417   7.142   5.304   6.825 -0.0503 -0.3499  0.0096
  321W        W 1418   1.917   5.481   6.465  0.1086  0.0255  0.1506
  322W        W 1419   0.045   4.861   4.526  0.2119 -0.0419  0.2453
  323W        W 1420   2.408   3.083   3.137 -0.0332 -0.0739  0.0122
  324W        W 1421   6.909   2.563   0.318  0.0976 -0.0438 -0.0454
  325W        W 1422   4.324   3.096   2.991 -0.0100 -0.0065  0.0323
  326W        W 1423   4.747   1.544   1.721 -0.1375 -0.0780 -0.0459
  327W        W 1424   0.205   5.683   4.134 -0.0773 -0.0972  0.1985
  328W        W 1425   6.358   0.153   1.510  0.0456  0.2464  0.1726
  329W        W 1426   5.428   6.587   3.101 -0.0380  0.0690 -0.2146
  330W        W 1427   0.499   4.484   2.342  0.1709  0.1383 -0.0149
  331W        W 1428   3.278   0.177   2.463  0.0777  0.3718  0.0739
  332W        W 1429   6.215   3.754   6.224 -0.1130 -0.0702  0.3133
  333W        W 1430   2.014   0.664   7.330 -0.0909 -0.0519 -0.0240
  334W        W 1431   4.646   5.638   0.408  0.0312 -0.0467  0.0749
  335W        W 1432   4.239   6.385   1.071  0.2360 -0.1714  0.4161
  336W        W 1433   0.485   0.206   4.883  0.2483  0.0951 -0.2397
  337W        W 1434   6.756   3.267   6.778 -0.2034 -0.1619 -0.2976
  338W        W 1435   3.425   0.317   0.138 -0.0024 -0.1284 -0.4898
  339W        W 1436   1.070   2.361   4.745 -0.1120  0.2325  0.2979
  340W        W 1437   3.784   4.802   7.595 -0.0485 -0.1853 -0.1440
  341W        W 1438   7.602   1.070   4.937  0.0093  0.0171  0.1559
  342W        W 1439   4.972   4.970   7.143 -0.3386  0.0888 -0.0497
  343W        W 1440   1.565   2.163   4.669 -0.2311  0.3499  0.0361
  344W        W 1441   7.467   0.756   5.284  0.0933 -0.1799  0.3741
  345W        W 1442   7.190   0.699   3.547  0.5629  0.3757 -0.1058
  346W        W 1443   3.788   7.195   0.651 -0.1581 -0.0382  0.3124
  347W        W 1444   0.291   3.255   1.381 -0.1593 -0.2106  0.0126
  348W        W 1445   2.746   4.679   0.215 -0.1999  0.4549 -0.2564
  349W        W 1446   7.200   3.755   4.507 -0.0223 -0.0310  0.0093
  350W        W 1447   0.377   3.466   6.069  0.4202 -0.3019 -0.1106
  351W        W 1448   0.035   3.176   7.406  0.0933  0.0389  0.0152
  352W        W 1449   2.062   1.317   2.570  0.4712  0.3128 -0.1759
  353W        W 1450   5.174   7.578   3.158 -0.1056  0.0560  0.0113
  354W        W 1451   2.718   4.943   3.317 -0.1033  0.2184 -0.1798
  355W        W 1452   7.229   4.468   7.286  0.1316  0.1736 -0.2165
  356W        W 1453   0.393   4.779   7.270 -0.1710  0.1940 -0.1695
  357W        W 1454   4.711   1.072   2.550 -0.0468 -0.0500  0.1916
  358W        W 1455   0.583   3.633   5.209 -0.2379  0.0629  0.0625
  359W        W 1456   4.970   6.015   6.624 -0.2848  0.0959 -0.1718
  360W        W 1457   3.715   4.052   2.162  0.3031  0.0140 -0.2641
  361W        W 1458   0.415   7.572   1.795  0.2127 -0.0343 -0.1590
  362W        W 1459   6.389   1.398   7.069 -0.0995  0.3240  0.0584
  363W        W 1460   2.114   6.169   7.488 -0.0729 -0.1320 -0.1391
  364W        W 1461   4.986   6.414   2.474  0.0695  0.1263  0.0613
  365W        W 1462   2.391   5.699   4.898 -0.0857  0.2035 -0.0109
  366W        W 1463   7.150   6.236   5.377 -0.0405 -0.0443  0.1769
  367W        W 1464   5.523   3.452   2.922 -0.2790 -0.1644 -0.1365
  368W        W 1465   1.468   4.968   4.389 -0.0177  0.0336  0.2462
  369W        W 1466   3.639   4.169   4.282  0.1124 -0.2723 -0.1424
  370W        W 1467   4.691   4.935   3.794  0.0386 -0.0716  0.1840
  371W        W 1468   7.406   6.592   4.211  0.0631  0.1302  0.0277
  372W        W 1469   1.022   4.848   1.680 -0.0231 -0.1798  0.1275
  373W        W 1470   6.289   1.854   0.592 -0.4487 -0.1665 -0.2187
  374W        W 1471   3.298   4.514   6.724  0.4372 -0.1086 -0.0447
  375W        W 1472   0.160   5.002   4.026  0.1502 -0.0726 -0.0284
  376W        W 1473   5.750   5.325   0.694 -0.0756  0.0658 -0.0396
  377W        W 1474   7.360   2.641   1.235  0.2227 -0.0173 -0.1907
  378W        W 1475   7.604   5.579   0.866  0.1667  0.1095 -0.1625
  379W        W 1476   6.143   3.597   0.914 -0.1294  0.1444 -0.2589
  380W        W 1477   2.002   4.465   7.405  0.2867 -0.1102  0.0639
  381W        W 1478   6.939   0.668   1.475 -0.3151 -0.1286  0.0409
  382W        W 1479   0.345   1.480   3.345  0.2537  0.0327  0.3107
  383W        W 1480   0.792   3.300   4.713  0.1267 -0.0013  0.0180
  384W        W 1481   5.894   7.491   1.671 -0.2125 -0.1457  0.2311
  385W        W 1482   2.840   6.170   5.094 -0.0356  0.0465  0.0528
  386W        W 1483   0.614   6.418   6.088  0.0598  0.0706 -0.1860
  387W        W 1484   4.329   0.822   2.842 -0.2224  0.4530 -0.0007
  388W        W 1485   6.139   4.207   3.212 -0.3563 -0.0158 -0.2334
  389W        W 1486   7.363   2.865   3.748  0.4615  0.1205  0.1838
  390W        W 1487   0.946   1.280   0.061 -0.3325 -0.3477  0.0150
  391W        W 1488   5.304   1.358   6.659  0.0320  0.1888 -0.0418
  392W        W 1489   3.351   7.617   0.753 -0.0266 -0.0559  0.0500
  393W        W 1490   5.255   0.387   2.511 -0.2724  0.2392 -0.3844
  394W        W 1491   2.373   7.404   4.820  0.2298 -0.0058 -0.0289
  395W        W 1492   1.003   4.570   2.513 -0.1492  0.2754 -0.0560
  396W        W 1493   1.187   5.419   4.226 -0.1310  0.0777 -0.3455
  397W        W 1494   7.581   1.948   1.341  0.0372  0.3720 -0.3342
  398W        W 1495   4.952   2.336   7.382 -0.1444  0.4761 -0.0839
  399W        W 1496   1.960   0.598   2.049  0.1501  0.4143  0.1539
  400W        W 1497   3.727   3.649   2.643  0.1345 -0.0022  0.1432
  401W        W 1498   5.820   2.056   6.211 -0.1339 -0.1030 -0.0045
  402W        W 1499   0.915   0.634   5.826  0.1379  0.0512  0.0064
  403W        W 1500   0.439   3.678   0.605 -0.1388  0.0583  0.2877
  404W        W 1501   1.612   1.262   7.089 -0.1506  0.0581  0.0414
  405W        W 1502   3.751   5.672   6.889  0.0078 -0.4237  0.2654
  406W        W 1503   6.387   3.764   3.796 -0.0504  0.0244 -0.4887
  407W        W 1504   3.452   2.940   3.662 -0.1980 -0.1599  0.2144
  408W        W 1505   5.232   3.514   4.591 -0.1337 -0.0322 -0.4200
  409W        W 1506   4.087   0.312   0.957  0.0680  0.0615  0.1393
  410W        W 1507   0.412   2.910   0.007 -0.0468 -0.0276 -0.3481
  411W        W 1508   3.386   5.898   3.523  0.0186  0.0819  0.1059
  412W        W 1509   3.101   4.695   2.198 -0.0131 -0.3840  0.2305
  413W        W 1510   0.873   7.196   0.175  0.0171 -0.1735 -0.1232
  414W        W 1511   2.587   6.362   5.645  0.0427 -0.0692 -0.0557
  415W        W 1512   0.941   7.082   5.084  0.0644 -0.3623 -0.1351
  416W        W 1513   1.711   6.639   1.549  0.1106 -0.2339  0.0362
  417W        W 1514   1.824   7.017   0.346  0.2614  0.4209 -0.3275
  418W        W 1515   1.582   6.273   5.750 -0.1194 -0.0336 -0.0343
  419W        W 1516   0.971   2.723   5.173 -0.0257 -0.0886  0.1425
  420W        W 1517   3.052   6.191   4.095 -0.0017 -0.0763  0.1910
  421W        W 1518   4.362   5.552   0.010 -0.1171  0.0198 -0.1642
  422W        W 1519   0.464   1.330   0.271  0.1228 -0.1430  0.0259
  423W        W 1520   7.414   0.508   2.366 -0.0940 -0.0729  0.0157
  424W        W 1521   7.099   7.070   5.192 -0.2536 -0.0435 -0.2937
  425W        W 1522   6.975   0.207   2.290  0.1193  0.0199 -0.1013
  426W        W 1523   5.446   3.719   3.352 -0.1267 -0.0904 -0.0645
  427W        W 1524   5.277   1.620   1.736  0.0158 -0.2311 -0.3018
  428W        W 1525   1.827   2.203   2.073 -0.0378 -0.0890 -0.0998
  429W        W 1526   0.342   0.785   4.102  0.0144  0.0539  0.1841
  430W        W 1527   4.817   6.926   3.295  0.0370 -0.0832 -0.1069
  431W        W 1528   1.272   6.369   0.905  0.3717 -0.1856  0.1268
  432W        W 1529   1.370   2.346   3.028  0.0412  0.1919  0.0242
  433W        W 1530   1.960   6.045   5.009 -0.0983  0.2612 -0.1136
  434W        W 1531   1.396   3.938   7.396 -0.1381  0.2482 -0.0227
  435W        W 1532   2.336   6.746   1.191 -0.3143 -0.0423 -0.0061
  436W        W 1533   4.894   5.199   0.135  0.1194 -0.2023 -0.0930
  437W        W 1534   5.634   7.364   3.098  0.0363 -0.1638  0.0504
  438W        W 1535   2.428   4.843   2.898 -0.0613  0.0887 -0.0368
  439W        W 1536   5.852   7.444   2.558  0.2887  0.3457 -0.1853
  440W        W 1537   0.405   6.633   1.280  0.3724  0.2488 -0.1878
  441W        W 1538   1.216   5.905   1.407 -0.2050 -0.0531  0.1739
  442W        W 1539   6.472   1.672   6.233 -0.1754  0.0929  0.2210
  443W        W 1540   6.982   3.835   7.613 -0.3132 -0.3716 -0.2025
  444W        W 1541   5.012   3.151   4.226  0.1933 -0.1452 -0.1318
  445W        W 1542   6.457   3.758   6.725  0.1725 -0.1326 -0.1553
  446W        W 1543   3.321   4.535   3.492  0.2522  0.0226  0.1800
  447W        W 1544   6.762   5.991   0.523  0.3390 -0.4031  0.0249
  448W        W 1545   1.675   7.012   3.448 -0.2023 -0.1994  0.2713
  449W        W 1546   1.386   2.545   4.390  0.0998  0.1187  0.1645
  450W        W 1547   1.978   2.967   1.304  0.2011 -0.0499 -0.4744
  451W        W 1548   4.274   0.467   7.499 -0.0987  0.5990 -0.1197
  452W        W 1549   5.853   2.088   2.776 -0.2620  0.0718 -0.2036
  453W        W 1550   5.481   3.082   4.565  0.3595  0.0243  0.0275
  454W        W 1551   3.040   6.652   3.832 -0.0747  0.0248 -0.0862
  455W        W 1552   0.135   0.344   1.750 -0.1845  0.1207 -0.4845
  456W        W 1553   1.888   3.271   0.446  0.0992  0.0109  0.1444
  457W        W 1554   1.439   6.906   2.305 -0.0229 -0.2098 -0.0900
  458W        W 1555   6.822   1.018   2.858 -0.1032  0.3569  0.1642
  459W        W 1556   1.253   5.338   5.771 -0.0050  0.1385 -0.2545
  460W        W 1557   4.307   2.682   0.795  0.0587 -0.1272 -0.0951
  461W        W 1558   6.212   4.461   4.431 -0.0136  0.2217  0.0492
  462W        W 1559   3.231   5.484   2.541 -0.1000  0.0933  0.0379
  463W        W 1560   5.935   3.736   3.986  0.2376  0.1026 -0.1890
  464W        W 1561   1.190   7.315   5.944  0.3082  0.2326 -0.1334
  465W        W 1562   7.232   5.387   7.366 -0.0695  0.2625  0.0236
  466W        W 1563   1.224   2.656   2.543 -0.3034  0.0051  0.5267
  467W        W 1564   3.388   3.086   5.860 -0.1153 -0.3492 -0.0602
  468W        W 1565   4.764   5.608   2.658  0.2200 -0.0247 -0.1017
  469W        W 1566   2.026   5.664   2.719  0.3104 -0.1874  0.0664
  470W        W 1567   1.306   4.077   1.905  0.2715 -0.2242 -0.0098
  471W        W 1568   5.675   6.565   2.215  0.1327  0.0314  0.0353
  472W        W 1569   0.476   0.338   0.506  0.1338  0.0457 -0.3042
  473W        W 1570   3.755   6.885   3.293 -0.1086  0.0558  0.2807
  474W        W 1571   5.975   0.711   7.088 -0.0398  0.1707 -0.1824
  475W        W 1572   4.218   1.344   2.859  0.1662  0.0609  0.2306
  476W        W 1573   5.590   3.672   7.181  0.0175  0.3706 -0.0606
  477W        W 1574   5.799   6.761   7.210 -0.0152  0.2490  0.2912
  478W        W 1575   1.906   0.967   1.328  0.0151  0.0443 -0.0049
  479W        W 1576   4.814   3.255   6.329  0.1444 -0.0103 -0.2106
  480W        W 1577   5.914   0.109   3.846 -0.0592  0.1803 -0.0940
  481W        W 1578   3.726   7.628   1.039  0.0664  0.0278  0.1403
  482W        W 1579   2.228   5.903   4.442 -0.2090 -0.1336 -0.1519
  483W        W 1580   1.365   6.162   1.877 -0.0514 -0.2139  0.4553
  484W        W 1581   7.052   5.044   0.821  0.1537  0.1164 -0.0091
  485W        W 1582   6.105   6.196   0.864  0.1904  0.2044  0.0144
  486W        W 1583   5.883   4.599   7.489  0.0775  0.3358  0.1258
  487W        W 1584   2.593   0.454   0.360  0.0107  0.2413 -0.0991
  488W        W 1585   1.706   1.117   5.489  0.3081 -0.1253  0.1475
  489W        W 1586   0.443   2.729   2.154 -0.4037  0.0181  0.0669
  490W        W 1587   7.183   4.748   1.880  0.1490 -0.1083 -0.0968
  491W        W 1588   0.165   7.498   1.277  0.2027  0.0761  0.0695
  492W        W 1589   3.783   4.794   2.926  0.1234  0.0394 -0.4015
  493W        W 1590   2.658   7.143   6.817 -0.1579  0.2691  0.1161
  494W        W 1591   5.777   4.859   0.510 -0.1443 -0.1749  0.1481
  495W        W 1592   6.137   2.274   6.945  0.3099 -0.5015 -0.3302
  496W        W 1593   1.258   4.894   0.424  0.0907  0.1324  0.3941
  497W        W 1594   0.193   7.297   5.500 -0.0640 -0.0707  0.1088
  498W        W 1595   3.153   4.082   3.078 -0.1687 -0.3665  0.2449
  499W        W 1596   2.036   1.263   4.453 -0.0280 -0.3144 -0.1449
  500W        W 1597   5.345   5.669   0.886 -0.0145 -0.1616 -0.0430
  501W        W 1598   6.431   5.404   5.739  0.0681 -0.0984 -0.0565
  502W        W 1599   0.753   2.046   4.593 -0.2667  0.2130 -0.3547
  503W        W 1600   6.713   5.530   6.590  0.3415 -0.2324 -0.0975
  504W        W 1601   3.775   0.023   0.466 -0.1469  0.3063 -0.1825
  505W        W 1602   6.332   2.239   7.470  0.0839 -0.1175  0.0395
  506W        W 1603   5.020   2.641   4.103 -0.0844  0.2563  0.1516
  507W        W 1604   0.944   5.645   0.373  0.2166  0.2871  0.1158
  508W        W 1605   0.106   2.535   0.051  0.1644 -0.1003 -0.1697
  509W        W 1606   7.615   6.022   5.087  0.0832  0.3700  0.2586
  510W        W 1607   5.891   4.053   0.908 -0.1820  0.1178 -0.1490
  511W        W 1608   0.404   0.272   1.019  0.2213  0.3058  0.1291
  512W        W 1609   5.838   1.964   1.239 -0.2877  0.0405 -0.1832
  513W        W 1610   0.867   5.837   6.393  0.0812 -0.0066 -0.3842
  514W        W 1611   6.773   4.490   6.917 -0.1866 -0.0512  0.0591
  515W        W 1612   4.490   3.827   6.574 -0.1301  0.1630 -0.1934
  516W        W 1613   5.136   4.676   2.698  0.0678 -0.1387 -0.0090
  517W        W 1614   5.448   0.782   0.156 -0.1280  0.2889 -0.1891
  518W        W 1615   1.677   4.915   2.917  0.1519  0.0702 -0.1100
  519W        W 1616   1.765   3.399   6.084 -0.0957 -0.1105  0.1681
  520W        W 1617   3.674   6.934   0.263 -0.0540 -0.0919  0.4209
  521W        W 1618   5.176   5.723   3.680 -0.3802  0.2192 -0.2617
  522W        W 1619   5.076   2.397   1.469  0.1552 -0.2232  0.7085
  523W        W 1620   0.517   4.875   4.293  0.1472  0.4701  0.1773
  524W        W 1621   0.283   5.195   0.515 -0.1239 -0.2744  0.1972
  525W        W 1622   4.999   2.006   6.912  0.0400 -0.1718 -0.1325
  526W        W 1623   2.797   7.586   6.612 -0.1312 -0.0615  0.1281
  527W        W 1624   3.834   7.458   3.380 -0.2714  0.0731  0.3359
  528W        W 1625   2.757   4.230   5.649  0.2695  0.1687 -0.0926
  529W        W 1626   2.074   0.490   1.572  0.0143  0.2280  0.1870
  530W        W 1627   3.094   1.959   4.437 -0.1474  0.2876 -0.3569
  531W        W 1628   0.429   7.090   1.034  0.2129  0.1121 -0.0945
  532W        W 1629   7.418   1.628   7.031  0.2077 -0.1347 -0.2654
  533W        W 1630   5.216   3.471   2.516  0.0139 -0.2833 -0.0981
  534W        W 1631   5.890   3.285   3.308 -0.1262  0.2019  0.0398
  535W        W 1632   0.672   1.078   5.980  0.3329 -0.0755  0.3054
  536W        W 1633   1.676   1.069   4.152 -0.2159  0.1257 -0.1836
  537W        W 1634   5.693   0.872   3.859  0.1169  0.0185  0.0001
  538W        W 1635   1.848   7.092   4.429  0.0935 -0.1285  0.2600
  539W        W 1636   5.718   1.581   0.779 -0.0116 -0.5211  0.0207
  540W        W 1637   5.710   0.658   0.577 -0.2127  0.0514 -0.0766
  541W        W 1638   2.157   0.436   3.812  0.1197 -0.0686 -0.1148
  542W        W 1639   7.240   3.922   3.656  0.1822  0.0125 -0.0554
  543W        W 1640   7.248   3.393   3.616  0.2154  0.0533 -0.1389
  544W        W 1641   1.835   0.206   6.363 -0.0099  0.1119  0.2908
  545W        W 1642   2.576   2.104   2.598 -0.0214  0.0979 -0.5593
  546W        W 1643   0.045   1.684   5.616  0.0640  0.0923 -0.0457
  547W        W 1644   6.094   0.324   1.929 -0.0977 -0.1776  0.2177
  548W        W 1645   0.582   2.373   0.080 -0.2476  0.1929 -0.3941
  549W        W 1646   4.615   3.404   3.880  0.1220 -0.0140 -0.0071
  550W        W 1647   5.492   2.734   4.241 -0.1178  0.3045 -0.0904
  551W        W 1648   4.958   6.901   3.805  0.2369  0.0431 -0.0105
  552W        W 1649   1.091   2.432   6.886 -0.1583  0.0651 -0.2097
  553W        W 1650   6.612   1.122   4.141  0.3034  0.0205 -0.1804
  554W        W 1651   5.213   1.304   3.116 -0.2213 -0.2067 -0.1070
  555W        W 1652   1.164   1.437   6.369 -0.1923 -0.0787 -0.0600
  556W        W 1653   6.381   5.753   6.161 -0.0641 -0.1504  0.2344
  557W        W 1654   1.299   7.553   0.818  0.0376 -0.2725  0.0986
  558W        W 1655   2.006   4.981   7.198  0.0565  0.0553 -0.3615
  559W        W 1656   3.986   3.936   7.002  0.0155 -0.1203  0.1024
  560W        W 1657   0.351   1.221   3.815 -0.0212  0.0885 -0.1176
  561W        W 1658   3.321   6.638   4.264  0.1752  0.0812  0.1702
  562W        W 1659   5.176   3.092   2.091 -0.0999  0.2195 -0.1970
  563W        W 1660   0.798   6.647   0.296  0.0148 -0.1476 -0.1461
  564W        W 1661   1.828   4.207   0.489  0.0029 -0.3123  0.1394
  565W        W 1662   2.500   7.080   0.817  0.0288 -0.2143 -0.2669
  566W        W 1663   2.565   1.397   5.575 -0.0134  0.0749 -0.1732
  567W        W 1664   5.588   5.415   1.201 -0.2726  0.0710  0.0009
  568W        W 1665   0.032   1.366   6.515 -0.1545 -0.1646 -0.0150
  569W        W 1666   2.415   1.390   3.866 -0.1341  0.2068 -0.1442
  570W        W 1667   2.839   6.780   5.846  0.0189 -0.0525  0.0283
  571W        W 1668   3.083   0.298   1.579  0.2056 -0.1841  0.0426
  572W        W 1669   3.207   2.654   3.357  0.0116 -0.0081  0.0167
  573W        W 1670   6.470   3.538   4.204  0.0278 -0.2102 -0.0787
  574W        W 1671   6.928   5.081   3.671  0.2758 -0.4196  0.0736
  575W        W 1672   2.575   7.555   0.618  0.1261 -0.0542 -0.1635
  576W        W 1673   1.692   3.761   2.962  0.3386  0.3932 -0.2143
  577W        W 1674   1.049   5.720   5.538 -0.1675  0.3816  0.0842
  578W        W 1675   5.461   0.904   7.207  0.1340  0.1013  0.1856
  579W        W 1676   0.123   4.692   6.503 -0.1088 -0.1291 -0.2342
  580W        W 1677   5.606   3.337   0.226  0.0630  0.1184 -0.3406
  581W        W 1678   7.536   0.637   4.392 -0.4243 -0.0836  0.3146
  582W        W 1679   1.289   1.292   4.659 -0.2253  0.1191 -0.0335
  583W        W 1680   2.856   0.746   1.807 -0.0188  0.0290 -0.1198
  584W        W 1681   3.033   0.224   4.352 -0.0326 -0.1196 -0.2124
  585W        W 1682   6.677   0.178   7.378 -0.2221 -0.1520 -0.0677
  586W        W 1683   0.890   0.118   0.041 -0.0880 -0.2995  0.4339
  587W        W 1684   4.925   5.018   3.176  0.1592 -0.2826  0.4751
  588W        W 1685   0.752   4.839   7.608 -0.2426 -0.0168  0.0010
  589W        W 1686   2.283   4.416   4.438  0.1997 -0.3553  0.0681
  590W        W 1687   6.627   6.522   5.372 -0.0936  0.2704 -0.3196
  591W        W 1688   0.527   5.639   0.863  0.2960 -0.1157 -0.0395
  592W        W 1689   4.395   6.932   0.861  0.1344  0.0073  0.1260
  593W        W 1690   5.881   4.659   2.439 -0.1008 -0.1001 -0.3638
  594W        W 1691   3.547   3.713   7.232  0.0761  0.0983 -0.0073
  595W        W 1692   0.572   1.752   2.445 -0.2150 -0.1078 -0.0475
  596W        W 1693   1.344   5.415   1.668 -0.0517 -0.2299  0.1315
  597W        W 1694   5.767   1.680   7.401 -0.0139 -0.0108 -0.1083
  598W        W 1695   3.565   5.734   6.352  0.2205  0.1320 -0.3192
  599W        W 1696   5.999   3.779   3.444 -0.0260  0.3082 -0.2764
  600W        W 1697   7.323   3.537   2.205  0.0389  0.1624  0.0068
  601W        W 1698   0.525   1.432   4.273 -0.2424 -0.0530  0.0314
  602W        W 1699   1.805   5.671   0.168 -0.0240 -0.0261  0.1183
  603W        W 1700   3.573   0.336   1.539  0.1794 -0.1515  0.1123
  604W        W 1701   0.977   7.198   6.405 -0.0281  0.0546 -0.2364
  605W        W 1702   6.896   1.304   5.829  0.1037  0.2275  0.0086
  606W        W 1703   3.681   6.058   2.856  0.2395  0.0717 -0.1414
  607W        W 1704   4.487   4.150   2.747 -0.0635  0.0798  0.0324
  608W        W 1705   2.256   6.319   6.511 -0.2500 -0.0405  0.4939
  609W        W 1706   0.813   5.233   2.523  0.1354  0.2253  0.2095
  610W        W 1707   0.782   5.164   3.384 -0.1796 -0.2420  0.0796
  611W        W 1708   4.017   4.450   2.614  0.2605  0.2503  0.2843
  612W        W 1709   2.078   7.168   3.856 -0.1862 -0.0303 -0.0377
  613W        W 1710   7.477   1.367   2.700  0.2138 -0.1486 -0.1774
  614W        W 1711   0.306   2.830   1.104 -0.0134  0.0322  0.2985
  615W        W 1712   4.649   3.724   0.586  0.2193  0.0726  0.0492
  616W        W 1713   4.973   7.126   1.943  0.1921  0.0089 -0.2170
  617W        W 1714   4.521   5.935   2.341  0.0821  0.1292  0.1162
  618W        W 1715   3.029   3.634   3.307  0.0599 -0.0720 -0.2037
  619W        W 1716   5.949   3.592   5.344  0.2983 -0.3982 -0.0985
  620W        W 1717   6.916   2.503   6.398  0.2176 -0.2473  0.0627
  621W        W 1718   6.134   5.914   7.313 -0.2062  0.1318  0.1609
  622W        W 1719   2.298   2.437   5.958  0.1277  0.0875  0.2490
  623W        W 1720   1.040   3.678   4.995 -0.1121  0.0088  0.1430
  624W        W 1721   6.029   0.449   6.664  0.0363  0.0037  0.0122
  625W        W 1722   0.998   7.124   0.751  0.4402  0.0618  0.0088
  626W        W 1723   1.502   3.371   0.712  0.1608  0.1042 -0.0708
  627W        W 1724   5.758   1.229   4.729 -0.0125  0.0388 -0.0770
  628W        W 1725   5.852   2.197   1.893  0.1259  0.3005  0.1218
  629W        W 1726   3.282   5.783   4.695  0.2378 -0.0003  0.0301
  630W        W 1727   6.817   2.593   3.714  0.3274 -0.3606  0.0738
  631W        W 1728   2.785   1.058   2.165 -0.0092 -0.0481 -0.1901
  632W        W 1729   3.329   4.007   5.548 -0.2826  0.2553  0.2909
  633W        W 1730   4.005   5.206   6.743 -0.2097 -0.2151 -0.1433
  634W        W 1731   7.046   3.714   0.596  0.2203 -0.2114  0.0297
  635W        W 1732   1.897   4.768   4.701  0.0074 -0.1324 -0.0118
  636W        W 1733   6.637   3.083   4.952 -0.1820  0.1562 -0.0459
  637W        W 1734   4.849   6.778   0.642 -0.0502  0.2932  0.0449
  638W        W 1735   6.082   4.596   6.207  0.0017  0.2314 -0.0684
  639W        W 1736   1.815   5.896   6.775  0.0064  0.2540 -0.0859
  640W        W 1737   1.302   6.430   2.516  0.1651 -0.2501 -0.0049
  641W        W 1738   1.997   3.416   4.453 -0.0189 -0.2040 -0.2430
  642W        W 1739   4.788   2.711   2.734 -0.2298  0.0383  0.1226
  643W        W 1740   0.403   3.201   3.140 -0.1154  0.0665 -0.0581
  644W        W 1741   2.738   3.038   5.078 -0.1247 -0.0802  0.0263
  645W        W 1742   7.209   2.215   1.635 -0.2055  0.0527  0.0253
  646W        W 1743   2.619   6.014   6.654 -0.0777 -0.0160  0.1638
  647W        W 1744   6.022   1.272   2.268  0.0729  0.2305  0.0433
  648W        W 1745   4.693   6.707   2.819  0.1658 -0.1620  0.0668
  649W        W 1746   0.368   4.183   0.766 -0.0998  0.2032 -0.0994
  650W        W 1747   3.023   5.122   0.264 -0.0833  0.1822 -0.1326
  651W        W 1748   1.712   4.376   2.073 -0.3146 -0.2919 -0.0852
  652W        W 1749   5.416   3.556   2.094  0.0106  0.0376 -0.1193
  653W        W 1750   7.277   5.921   5.906 -0.4694  0.1474  0.2050
  654W        W 1751   0.060   2.595   6.029  0.2344 -0.1651 -0.1631
  655W        W 1752   4.085   6.644   3.007 -0.2330 -0.1608 -0.0489
  656W        W 1753   4.085   7.524   2.837 -0.0436  0.0677  0.2551
  657W        W 1754   3.345   4.207   0.367 -0.0314  0.2097  0.4653
  658W        W 1755   5.290   7.042   3.318  0.0031 -0.0048  0.0309
  659W        W 1756   6.609   6.455   0.210  0.0710  0.2451  0.0082
  660W        W 1757   3.055   6.883   2.145  0.1166 -0.1511 -0.4603
  661W        W 1758   7.213   6.686   6.683 -0.1478 -0.2337  0.0205
  662W        W 1759   5.233   2.535   0.955  0.1369 -0.1921 -0.0179
  663W        W 1760   6.697   0.654   3.775 -0.0157  0.1464  0.3927
  664W        W 1761   6.261   2.562   1.006  0.1517  0.1055 -0.0294
  665W        W 1762   3.607   5.455   1.190 -0.1232 -0.1101  0.1110
  666W        W 1763   2.093   0.893   6.755  0.1334  0.1232  0.1035
  667W        W 1764   3.268   0.114   3.631  0.0592  0.4362 -0.0125
  668W        W 1765   4.441   1.353   3.514  0.0900  0.1609  0.3115
  669W        W 1766   1.643   5.574   4.285 -0.2500 -0.0185 -0.2425
  670W        W 1767   7.291   0.267   1.901 -0.0398  0.0139 -0.0727
  671W        W 1768   5.680   6.270   6.230 -0.1870  0.0825  0.0992
  672W        W 1769   4.539   6.886   6.838 -0.0431 -0.0351  0.1910
  673W        W 1770   1.183   1.950   3.879 -0.3021  0.0602 -0.2164
  674W        W 1771   2.127   2.914   5.063 -0.0127 -0.1247 -0.2696
  675W        W 1772   3.220   6.765   7.598  0.1847 -0.1020  0.0203
  676W        W 1773   1.691   7.474   5.571 -0.1054  0.0504 -0.1555
  677W        W 1774   0.647   7.332   6.063 -0.0666  0.1204 -0.1473
  678W        W 1775   7.581   3.755   0.703  0.1600  0.1048 -0.2556
  679W        W 1776   1.835   2.653   0.451 -0.2099  0.0193  0.0914
  680W        W 1777   4.598   3.389   4.344 -0.0588 -0.0732  0.2080
  681W        W 1778   2.528   5.324   5.234  0.1437  0.0187 -0.0831
  682W        W 1779   1.038   2.742   6.096  0.1078 -0.0228  0.0292
  683W        W 1780   5.971   5.102   5.609  0.0407  0.1260 -0.0483
  684W        W 1781   3.260   7.148   5.893  0.1581  0.1941 -0.0012
  685W        W 1782   3.798   7.376   7.050 -0.2751 -0.1202 -0.1457
  686W        W 1783   4.916   1.948   0.135  0.1314 -0.0202 -0.2320
  687W        W 1784   2.212   5.847   6.389  0.0332 -0.0145 -0.0657
  688W        W 1785   6.143   7.115   2.857 -0.0183 -0.1486  0.1880
  689W        W 1786   0.123   3.528   3.956  0.1231 -0.0501 -0.1243
  690W        W 1787   5.292   5.009   2.428  0.1273 -0.2023 -0.1279
  691W        W 1788   6.370   5.061   5.218  0.1079 -0.1054  0.0353
  692W        W 1789   1.870   6.654   3.116 -0.2990 -0.0437 -0.1328
  693W        W 1790   6.684   2.454   1.247  0.0731  0.2889  0.1882
  694W        W 1791   4.241   2.975   4.020 -0.1453 -0.1708  0.0237
  695W        W 1792   2.293   2.203   5.341  0.3984  0.0785  0.1562
  696W        W 1793   5.016   2.848   4.619 -0.0370  0.1044  0.0566
  697W        W 1794   4.975   6.879   7.170  0.1570 -0.0948  0.1000
  698W        W 1795   1.280   4.637   2.051 -0.1146  0.0064 -0.2607
  699W        W 1796   4.718   7.576   2.179 -0.1274 -0.1993  0.2745
  700W        W 1797   1.653   5.367   2.585  0.1456 -0.0377  0.0786
  701W        W 1798   3.056   0.867   3.596 -0.1549  0.0713 -0.1793
  702W        W 1799   5.043   4.403   0.196 -0.1920  0.2849 -0.3303
  703W        W 1800   1.756   6.272   7.133 -0.1975  0.0215 -0.4715
  704W        W 1801   2.237   4.146   0.164  0.0740 -0.1632 -0.1115
  705W        W 1802   7.571   3.378   3.031  0.0989 -0.0177  0.0146
  706W        W 1803   1.144   2.134   5.199 -0.0069 -0.1632  0.2962
  707W        W 1804   5.455   6.809   6.766 -0.1659  0.3859  0.0606
  708W        W 1805   0.605   1.267   0.746  0.2610  0.0080  0.2200
  709W        W 1806   4.321   5.717   3.289  0.1001 -0.0520 -0.2884
  710W        W 1807   3.148   7.153   1.721  0.3642 -0.0989 -0.1663
  711W        W 1808   6.127   1.627   2.613 -0.4221  0.2248 -0.1212
  712W        W 1809   0.524   4.880   4.812 -0.0699 -0.1339  0.2871
  713W        W 1810   6.348   2.110   6.068  0.1895  0.2369  0.1086
  714W        W 1811   0.086   4.346   0.362 -0.1640  0.0354 -0.0121
  715W        W 1812   1.595   3.816   0.927 -0.3229  0.0634 -0.3131
  716W        W 1813   3.480   5.255   6.822 -0.2082 -0.0475 -0.0226
  717W        W 1814   3.803   4.361   7.240 -0.0748 -0.0037  0.1486
  718W        W 1815   0.469   3.189   0.401  0.0220 -0.2560 -0.0301
  719W        W 1816   3.144   5.042   5.815 -0.1863  0.3084  0.0273
  720W        W 1817   1.255   6.837   6.613 -0.0341 -0.0143  0.2146
  721W        W 1818   2.976   7.244   0.806  0.2018 -0.0740 -0.1941
  722W        W 1819   0.587   2.374   0.804  0.1455 -0.0978 -0.4301
  723W        W 1820   5.645   4.284   3.382 -0.2935 -0.1552  0.1404
  724W        W 1821   0.234   0.493   6.565  0.1650  0.2973  0.1905
  725W        W 1822   1.919   2.452   5.106 -0.0931  0.0329 -0.1397
  726W        W 1823   6.482   1.704   0.031  0.1056 -0.0337 -0.2118
  727W        W 1824   6.809   4.706   0.058 -0.1533  0.2181 -0.0475
  728W        W 1825   4.368   3.060   3.546  0.3934 -0.2302  0.0593
  729W        W 1826   7.227   3.536   7.053  0.2176 -0.0264  0.0801
  730W        W 1827   5.731   2.325   2.376  0.1076  0.0056  0.2106
  731W        W 1828   2.733   6.924   6.301 -0.0956  0.3913  0.0788
  732W        W 1829   3.056   3.729   7.492 -0.1117  0.1521 -0.2013
  733W        W 1830   5.661   5.445   6.444  0.0204  0.0002  0.0106
  734W        W 1831   2.345   0.836   0.618  0.0390 -0.0270  0.0739
  735W        W 1832   5.940   0.534   3.560  0.2089 -0.0231 -0.0887
  736W        W 1833   6.006   3.353   6.402  0.0281 -0.0608 -0.1032
  737W        W 1834   3.983   2.653   3.774 -0.3340 -0.2670  0.1959
  738W        W 1835   2.984   2.609   5.203 -0.0165 -0.0424 -0.5980
  739W        W 1836   7.189   0.747   4.736  0.1867  0.0976 -0.1410
  740W        W 1837   0.493   2.734   3.902  0.2117 -0.0276 -0.0133
  741W        W 1838   3.649   1.066   0.713 -0.0020  0.3218 -0.4497
  742W        W 1839   1.547   3.611   4.130  0.3170 -0.4253 -0.1377
  743W        W 1840   3.358   4.530   2.919  0.1426 -0.2060  0.0558
  744W        W 1841   6.337   0.978   3.093  0.2316  0.2172 -0.1977
  745W        W 1842   7.458   4.874   7.449  0.0832  0.1677  0.0454
  746W        W 1843   0.960   3.308   3.508 -0.0326  0.0002 -0.2742
  747W        W 1844   4.088   3.995   7.484  0.1754  0.2298  0.0105
  748W        W 1845   7.343   5.607   4.825 -0.1587 -0.1598  0.3432
  749W        W 1846   1.812   4.873   0.020  0.2736  0.2206  0.1188
  750W        W 1847   4.011   5.868   2.159  0.0112  0.0652  0.1004
  751W        W 1848   5.829   4.214   4.760  0.0716  0.1620 -0.0181
  752W        W 1849   6.721   7.437   2.260 -0.2674 -0.0115  0.0706
  753W        W 1850   0.115   0.456   2.730 -0.0098  0.0263  0.1831
  754W        W 1851   6.745   1.937   1.849 -0.1325  0.1719 -0.0583
  755W        W 1852   7.620   2.890   3.123 -0.2046 -0.2050 -0.2315
  756W        W 1853   3.947   4.700   1.063  0.0266 -0.2081  0.1437
  757W        W 1854   6.953   4.865   6.083  0.1177 -0.1050  0.0923
  758W        W 1855   4.274   3.544   0.174  0.0063 -0.0237  0.1241
  759W        W 1856   6.826   4.080   0.363  0.1176  0.1377  0.1184
  760W        W 1857   0.041   7.527   4.912 -0.0635 -0.0928  0.1483
  761W        W 1858   6.901   7.000   5.975 -0.0162  0.3149 -0.1343
  762W        W 1859   1.629   7.236   1.576 -0.0069 -0.0494  0.3810
  763W        W 1860   4.220   6.059   6.323  0.1840 -0.1107  0.0391
  764W        W 1861   6.452   0.669   6.403 -0.0998  0.1637 -0.3424
  765W        W 1862   0.762   7.456   2.709 -0.1575 -0.0664 -0.0318
  766W        W 1863   0.618   5.169   0.891  0.0894  0.1315 -0.0183
  767W        W 1864   0.303   1.468   2.752 -0.2229  0.0454  0.1989
  768W        W 1865   3.039   0.400   3.275  0.0284 -0.1234 -0.0713
  769W        W 1866   2.949   1.560   3.848 -0.3119  0.2089 -0.0010
  770W        W 1867   5.041   6.315   1.326  0.2545  0.0456 -0.1127
  771W        W 1868   0.204   4.015   3.771  0.3190  0.0776 -0.1821
  772W        W 1869   0.080   6.619   7.009 -0.0866  0.0774  0.0857
  773W        W 1870   2.455   1.260   6.722 -0.1840  0.1604  0.2130
  774W        W 1871   6.870   0.032   5.032  0.0228 -0.0774  0.1045
  775W        W 1872   7.038   0.582   2.930 -0.0172 -0.2391 -0.2599
  776W        W 1873   6.794   1.938   1.311 -0.1039 -0.0354 -0.0823
  777W        W 1874   6.846   0.337   3.330 -0.1929 -0.2170 -0.1021
  778W        W 1875   4.212   1.812   3.421 -0.1673 -0.2594  0.0600
  779W        W 1876   2.589   5.669   4.031 -0.0092 -0.0322  0.0139
  780W        W 1877   6.537   0.407   0.676 -0.2204  0.1962 -0.1185
  781W        W 1878   6.704   5.261   6.129 -0.0987 -0.1903  0.3137
  782W        W 1879   2.680   2.748   3.389  0.0177 -0.1517  0.3479
  783W        W 1880   2.147   1.792   4.393  0.2413 -0.1088 -0.2886
  784W        W 1881   0.302   2.222   3.819 -0.0112  0.4417  0.3562
  785W        W 1882   0.853   6.037   6.878 -0.0769  0.0938  0.1373
  786W        W 1883   2.371   2.122   2.014  0.2958  0.2461 -0.3186
  787W        W 1884   6.112   7.464   6.643  0.1815  0.0539 -0.1034
  788W        W 1885   3.793   4.348   0.240  0.0403  0.1561  0.1473
  789W        W 1886   3.652   5.163   3.904  0.3085 -0.0184 -0.0286
  790W        W 1887   2.545   0.411   3.384  0.1728 -0.0832 -0.1411
  791W        W 1888   0.183   5.571   5.206  0.0597  0.1763 -0.0723
  792W        W 1889   5.990   2.868   6.853  0.1621  0.4303 -0.1338
  793W        W 1890   2.840   7.335   2.121 -0.0501  0.0909 -0.2311
  794W        W 1891   6.334   4.954   1.240 -0.2909 -0.0127  0.1324
  795W        W 1892   3.392   5.578   7.268 -0.0190 -0.0528 -0.2492
  796W        W 1893   5.859   1.075   3.367  0.6073 -0.0348 -0.1534
  797W        W 1894   1.262   4.993   2.601 -0.2835  0.0245  0.2408
  798W        W 1895   1.151   5.183   3.768 -0.2950 -0.1957  0.1061
  799W        W 1896   1.562   3.682   5.151 -0.4792  0.0908  0.1250
  800W        W 1897   7.231   5.219   5.143 -0.0273 -0.1825 -0.1163
  801W        W 1898   2.430   5.938   2.310 -0.3594 -0.3989 -0.0714
  802W        W 1899   7.117   0.696   4.102  0.2743  0.1124 -0.2043
  803W        W 1900   3.500   0.141   3.155 -0.2622 -0.1398 -0.1604
  804W        W 1901   2.397   7.614   3.697 -0.4029  0.1895 -0.1708
  805W        W 1902   6.376   4.836   5.900 -0.0879  0.0786  0.4718
  806W        W 1903   2.472   2.707   5.441  0.0302 -0.2500 -0.0612
  807W        W 1904   3.765   4.390   6.739  0.2113  0.4057  0.1671
  808W        W 1905   6.604   4.266   4.123 -0.1470  0.2841 -0.0661
  809W        W 1906   6.328   2.082   2.708 -0.5938  0.0078  0.2413
  810W        W 1907   7.483   3.987   2.183 -0.0783 -0.0140 -0.0886
  811W        W 1908   3.158   6.682   4.948 -0.2957  0.2316 -0.0590
  812W        W 1909   1.126   0.479   1.657  0.3372  0.0483  0.0367
  813W        W 1910   2.081   4.135   3.251  0.3287 -0.2530 -0.1454
  814W        W 1911   3.424   7.180   1.064 -0.1594 -0.3410 -0.1377
  815W        W 1912   0.168   2.412   1.378  0.0369 -0.1729 -0.3227
  816W        W 1913   1.926   2.310   3.103  0.0047 -0.0859  0.0222
  817W        W 1914   5.712   3.974   2.987  0.2882  0.0886  0.1260
  818W        W 1915   1.137   1.016   2.562  0.0632 -0.0693 -0.2697
  819W        W 1916   3.591   6.934   1.545  0.1955 -0.1899  0.1342
  820W        W 1917   3.533   2.347   6.724  0.2350 -0.1031 -0.0837
  821W        W 1918   0.677   4.442   2.949 -0.2103  0.0179 -0.1621
  822W        W 1919   6.975   0.839   5.183 -0.2125  0.1153  0.0438
  823W        W 1920   6.166   3.310   3.851 -0.2929 -0.2558 -0.1192
  824W        W 1921   6.389   5.648   1.393  0.0445 -0.3141  0.0964
  825W        W 1922   1.133   3.137   2.562  0.1221  0.2518 -0.2712
  826W        W 1923   2.373   2.530   4.422  0.0558 -0.0773 -0.1114
  827W        W 1924   2.974   2.352   3.650 -0.0919  0.1512 -0.0255
  828W        W 1925   0.950   2.866   3.873  0.0221 -0.0323 -0.2357
  829W        W 1926   0.867   3.854   1.840  0.1113 -0.2901  0.0127
  830W        W 1927   6.433   0.558   2.776  0.1144  0.2089 -0.0099
  831W        W 1928   7.068   1.666   5.431  0.1760 -0.1808  0.0387
  832W        W 1929   2.306   5.600   0.375 -0.1553 -0.0043 -0.2061
  833W        W 1930   5.861   7.196   7.560 -0.2203 -0.4099 -0.2786
  834W        W 1931   4.017   2.157   2.502 -0.0469 -0.0110 -0.2826
  835W        W 1932   3.304   7.097   2.903  0.2756  0.2928 -0.1723
  836W        W 1933   2.563   2.049   4.266 -0.0853  0.1729  0.2298
  837W        W 1934   1.528   4.459   7.175  0.0974  0.2452 -0.0889
  838W        W 1935   7.288   3.296   4.115 -0.0549 -0.0820 -0.1200
  839W        W 1936   6.257   1.294   4.658  0.0364  0.0188  0.3112
  840W        W 1937   2.080   6.170   5.876  0.0786 -0.0192 -0.3418
  841W        W 1938   2.512   1.055   2.695 -0.0221  0.0064 -0.1367
  842W        W 1939   1.726   7.008   5.388  0.1385  0.1958  0.1172
  843W        W 1940   2.890   4.855   7.428 -0.1159  0.0016 -0.1263
  844W        W 1941   4.505   7.258   7.539 -0.0046 -0.2286 -0.1292
  845W        W 1942   1.396   6.830   1.161  0.0952 -0.0580 -0.1813
  846W        W 1943   4.502   2.241   7.080 -0.1183 -0.0517  0.3387
  847W        W 1944   6.244   4.215   1.652  0.1874 -0.0302 -0.1822
  848W        W 1945   0.309   0.158   3.524 -0.0238 -0.1039  0.0662
  849W        W 1946   4.264   4.907   2.696  0.2718 -0.0331  0.0398
  850W        W 1947   4.499   5.128   6.925  0.2063 -0.2523  0.1352
  851W        W 1948   0.176   2.557   6.651  0.0677 -0.1855  0.1673
  852W        W 1949   1.172   0.771   4.624  0.2155 -0.1702  0.1188
  853W        W 1950   4.581   1.034   1.543  0.0848 -0.2165 -0.2705
  854W        W 1951   3.052   3.443   4.981 -0.1349  0.1308 -0.0002
  855W        W 1952   6.063   1.006   1.803 -0.1108 -0.0341 -0.0020
  856W        W 1953   5.097   0.205   3.975  0.0412 -0.0245  0.1103
  857W        W 1954   0.325   4.094   2.077 -0.0063 -0.0123  0.0567
  858W        W 1955   0.202   3.946   4.724 -0.3710 -0.2638  0.3328
  859W        W 1956   5.549   0.538   6.814  0.4126 -0.1218  0.0222
  860W        W 1957   2.984   3.089   6.158  0.2424  0.4186 -0.1478
  861W        W 1958   0.905   2.503   4.260  0.1926 -0.1681  0.0209
  862W        W 1959   4.604   4.201   4.316 -0.0190  0.4348  0.0160
  863W        W 1960   2.149   0.669   0.166  0.1999  0.0266 -0.1592
  864W        W 1961   7.339   3.226   1.747 -0.3316 -0.1429 -0.3687
  865W        W 1962   2.333   4.546   1.236  0.0889  0.0978  0.0299
  866W        W 1963   1.406   1.577   4.261 -0.0112 -0.1602  0.2389
  867W        W 1964   3.571   7.469   1.509  0.0485  0.2043  0.3169
  868W        W 1965   4.597   3.896   3.875  0.0838 -0.1223  0.0595
  869W        W 1966   0.206   6.236   4.554  0.0650  0.1048  0.0171
  870W        W 1967   6.017   4.336   0.488  0.2105 -0.6034 -0.0117
  871W        W 1968   0.748   1.996   4.081 -0.1951 -0.1655  0.0544
  872W        W 1969   1.190   1.618   1.420  0.0903 -0.1028 -0.1906
  873W        W 1970   3.375   3.913   6.115  0.0948  0.2021 -0.0945
  874W        W 1971   3.767   5.800   0.337 -0.0533  0.1997  0.0649
  875W        W 1972   5.988   3.405   4.439  0.0592 -0.1096  0.1122
  876W        W 1973   1.334   6.383   7.367 -0.1083 -0.1772 -0.0834
  877W        W 1974   1.868   0.419   4.195  0.1583 -0.0257 -0.2252
  878W        W 1975   0.968   6.872   5.635  0.4456 -0.2447 -0.3537
  879W        W 1976   6.509   7.419   6.384  0.0482 -0.0858  0.2621
  880W        W 1977   4.100   1.050   3.233  0.0702 -0.2186  0.0226
  881W        W 1978   7.488   2.762   2.191 -0.2780  0.0211 -0.1126
  882W        W 1979   6.296   0.694   2.208 -0.1459  0.0566 -0.2716
  883W        W 1980   2.960   1.178   4.597  0.2198 -0.0503  0.0193
  884W        W 1981   5.419   2.355   2.991  0.0589  0.1675 -0.2805
  885W        W 1982   3.391   5.666   2.060  0.0506 -0.1737  0.2905
  886W        W 1983   0.839   1.406   1.599  0.3297  0.1080  0.0636
  887W        W 1984   1.375   2.141   1.280 -0.0040 -0.1544  0.0573
  888W        W 1985   0.729   6.122   1.661 -0.0837 -0.1492  0.1845
  889W        W 1986   1.000   3.403   1.722 -0.0682 -0.0544  0.1495
  890W        W 1987   1.647   0.615   2.425 -0.0072  0.2579  0.2388
  891W        W 1988   6.195   3.405   0.388  0.0356  0.0686  0.3674
  892W        W 1989   3.659   2.466   3.420  0.1034 -0.2258  0.0661
  893W        W 1990   1.250   2.104   1.794 -0.1046  0.0690  0.0668
  894W        W 1991   5.071   2.796   3.252 -0.3764  0.0195  0.1754
  895W        W 1992   1.921   0.110   2.014 -0.0515 -0.2240  0.1798
  896W        W 1993   7.110   3.023   5.095  0.1666  0.0614 -0.0301
  897W        W 1994   5.109   4.208   4.033  0.1817  0.1371  0.2014
  898W        W 1995   5.901   3.376   2.121  0.1434  0.0510 -0.0632
  899W        W 1996   1.511   7.447   0.306  0.1913  0.0629 -0.1373
  900W        W 1997   1.303   4.281   0.527 -0.0495  0.2591  0.2348
  901W        W 1998   7.340   7.561   7.035  0.2147  0.1517  0.1505
  902W        W 1999   4.701   5.898   3.578  0.1401 -0.2579  0.1131
  903W        W 2000   7.234   6.721   7.228  0.0784  0.1926 -0.0425
  904W        W 2001   4.876   4.607   6.373 -0.2734 -0.2980 -0.2324
  905W        W 2002   0.717   3.003   1.330 -0.1448 -0.0438  0.1013
  906W        W 2003   1.462   3.568   1.290  0.1785  0.2590 -0.0761
  907W        W 2004   7.139   2.443   4.029  0.0228  0.0204 -0.1900
  908W        W 2005   2.847   4.599   6.439 -0.1662  0.1396 -0.1490
  909W        W 2006   5.952   3.617   7.591 -0.0582 -0.1782  0.0344
  910W        W 2007   3.525   5.295   3.014 -0.0046 -0.3551  0.1705
  911W        W 2008   4.878   2.099   3.931 -0.1554 -0.1262 -0.1185
  912W        W 2009   1.247   0.681   5.434  0.0199 -0.2775  0.2215
  913W        W 2010   5.587   5.406   3.725 -0.2542  0.2248  0.1875
  914W        W 2011   3.108   7.082   4.119 -0.1362  0.1371 -0.2278
  915W        W 2012   0.305   3.320   5.468  0.2029  0.2005 -0.0153
  916W        W 2013   6.920   6.054   7.464  0.2155 -0.0685 -0.1835
  917W        W 2014   0.574   0.996   7.524  0.1289 -0.0121 -0.2378
  918W        W 2015   6.751   5.864   5.313  0.2639 -0.2838 -0.0530
  919W        W 2016   0.942   0.355   6.326 -0.2694 -0.0687  0.0687
  920W        W 2017   0.926   1.601   0.424 -0.0831 -0.1663  0.1902
  921W        W 2018   7.389   2.181   5.164 -0.1914  0.0025  0.1350
  922W        W 2019   0.006   2.370   4.532  0.1811 -0.1142 -0.1458
  923W        W 2020   3.243   5.714   4.010  0.1025  0.0480  0.0874
  924W        W 2021   2.279   5.719   3.187 -0.3515  0.2107 -0.4880
  925W        W 2022   7.119   4.137   4.814  0.1921 -0.1704  0.2162
  926W        W 2023   6.450   3.200   2.191 -0.1165  0.0055  0.3328
  927W        W 2024   1.423   1.347   0.017  0.1389  0.1734  0.1512
  928W        W 2025   2.160   2.967   4.248  0.1295 -0.3771 -0.1431
  929W        W 2026   0.810   7.527   1.068  0.3557  0.3325 -0.0992
  930W        W 2027   6.326   4.783   4.803  0.2020 -0.1518  0.2034
  931W        W 2028   4.359   2.443   2.285 -0.0260 -0.2575  0.1194
  932W        W 2029   5.441   2.274   7.137  0.0033  0.1691 -0.2211
  933W        W 2030   0.756   7.456   3.708  0.2480 -0.4446  0.1047
  934W        W 2031   1.996   0.100   5.231 -0.1216  0.0900 -0.2825
  935W        W 2032   1.786   3.585   1.639  0.1262  0.3292  0.3711
  936W        W 2033   2.759   2.244   5.633 -0.0541  0.0573  0.1777
  937W        W 2034   4.926   4.156   6.764  0.0233 -0.1379  0.2851
  938W        W 2035   0.264   2.223   0.443  0.1439 -0.1573  0.0020
  939W        W 2036   4.591   3.775   3.063 -0.1136  0.2329  0.0209
  940W        W 2037   2.942   5.647   0.278  0.1270 -0.0234  0.0850
  941W        W 2038   2.360   4.973   4.357 -0.0855 -0.1001  0.2865
  942W        W 2039   0.093   7.150   7.025 -0.0179 -0.2303  0.2641
  943W        W 2040   1.467   1.495   5.844 -0.0810 -0.3566 -0.1736
  944W        W 2041   3.900   3.190   3.620  0.4650  0.1787  0.0513
  945W        W 2042   3.060   3.707   3.791 -0.0644  0.1585  0.1308
  946W        W 2043   3.457   0.814   6.992 -0.0534  0.0632 -0.2697
  947W        W 2044   5.022   7.189   0.392  0.0350  0.4790 -0.2596
  948W        W 2045   6.833   0.272   1.077 -0.0016  0.1369 -0.2237
  949W        W 2046   2.327   3.582   3.838 -0.1355 -0.1599  0.0458
  950W        W 2047   6.024   5.049   1.936 -0.0015  0.0423 -0.0900
  951W        W 2048   1.611   3.153   4.328 -0.0987  0.0664 -0.1451
  952W        W 2049   5.526   3.647   1.504  0.1372 -0.4273 -0.2984
  953W        W 2050   5.245   6.404   6.543  0.1354  0.2265 -0.2786
  954W        W 2051   3.415   6.292   6.146 -0.3906 -0.0458 -0.0291
  955W        W 2052   4.709   5.343   2.153 -0.1103 -0.3154 -0.1487
  956W        W 2053   2.015   6.706   7.027 -0.0245  0.0659  0.0654
  957W        W 2054   0.790   5.732   7.261  0.0513  0.1522  0.0551
  958W        W 2055   3.267   0.910   5.303  0.1565  0.1558  0.2610
  959W        W 2056   0.374   5.960   5.433 -0.0048  0.1133  0.4620
  960W        W 2057   7.009   7.454   7.348  0.1817  0.1890  0.1470
  961W        W 2058   1.316   7.242   5.428 -0.2587 -0.3104  0.0458
  962W        W 2059   5.361   2.811   5.573 -0.2981 -0.1531 -0.1260
  963W        W 2060   5.054   6.494   0.170  0.0919  0.0022 -0.3202
  964W        W 2061   3.234   5.421   0.631  0.1775  0.0657  0.0854
  965W        W 2062   7.385   4.916   3.799 -0.0742  0.2030 -0.3238
  966W        W 2063   7.009   0.324   6.914 -0.0510 -0.5962  0.1772
  967W        W 2064   6.509   4.749   3.650 -0.0860 -0.0617  0.2338
  968W        W 2065   1.603   0.712   5.747  0.2855  0.1429  0.1096
  969W        W 2066   5.608   4.888   2.825  0.1979  0.0628  0.4407
  970W        W 2067   7.168   1.576   4.087 -0.0157  0.0956 -0.2026
  971W        W 2068   2.516   6.728   7.098  0.0445  0.0615 -0.3204
  972W        W 2069   2.882   4.511   3.136  0.4676  0.2162 -0.2672
  973W        W 2070   2.409   4.353   6.073  0.0223  0.0910 -0.0133
  974W        W 2071   0.335   3.688   2.960  0.0344 -0.0558  0.0269
  975W        W 2072   5.959   5.883   6.359 -0.2008 -0.0184 -0.0950
  976W        W 2073   4.212   7.122   7.123  0.0042  0.0742 -0.0263
  977W        W 2074   4.333   6.889   2.591  0.0529 -0.3942 -0.0145
  978W        W 2075   0.024   1.872   2.857 -0.2575 -0.0740 -0.0823
  979W        W 2076   4.834   5.984   4.030 -0.0661  0.0144 -0.2347
  980W        W 2077   3.948   0.377   1.938  0.0424  0.0533 -0.3032
  981W        W 2078   2.051   5.704   4.029 -0.1211  0.3248 -0.0957
  982W        W 2079   4.759   5.022   2.517  0.2359  0.1546 -0.1796
  983W        W 2080   1.612   5.056   6.614 -0.0378  0.0685  0.2046
  984W        W 2081   0.819   1.934   1.473  0.2288  0.2888 -0.0646
  985W        W 2082   4.874   2.536   6.826 -0.2715  0.0494 -0.0747
  986W        W 2083   7.064   6.224   7.046  0.1182 -0.0265  0.2827
  987W        W 2084   4.452   5.978   0.747 -0.1610  0.2941 -0.1694
  988W        W 2085   5.016   3.522   5.948  0.0596  0.3523  0.1913
  989W        W 2086   7.550   3.653   1.347 -0.5953  0.4665 -0.1565
  990W        W 2087   5.624   0.182   2.834 -0.0377 -0.1439  0.0122
  991W        W 2088   1.863   0.718   6.334  0.2491  0.1166 -0.0187
  992W        W 2089   7.189   2.280   2.693 -0.0700 -0.4073 -0.2731
  993W        W 2090   1.647   0.284   1.638 -0.0002 -0.2930  0.2571
  994W        W 2091   4.568   0.137   4.136 -0.0344  0.0113 -0.0001
  995W        W 2092   4.006   1.758   2.242 -0.3180  0.1549  0.1747
  996W        W 2093   5.471   6.851   1.847 -0.0589  0.1074 -0.1099
  997W        W 2094   4.206   4.414   3.036 -0.0560  0.0071 -0.1407
  998W        W 2095   1.151   4.276   3.255 -0.1064  0.1425 -0.2729
  999W        W 2096   7.083   6.617   4.937  0.3296 -0.0203 -0.4832
 1000W        W 2097   4.683   2.231   6.448  0.0864  0.0970 -0.3578
 1001W        W 2098   4.977   0.803   3.354  0.1149  0.0131 -0.0465
 1002W        W 2099   2.409   5.038   0.474  0.0155 -0.0465  0.6654
 1003W        W 2100   1.680   6.124   0.062 -0.1331 -0.1498 -0.0042
 1004W        W 2101   0.923   2.139   2.466  0.1966  0.0359  0.2084
 1005W        W 2102   2.798   2.082   5.149  0.1494  0.0842 -0.1701
 1006W        W 2103   1.926   5.529   3.561 -0.1351 -0.1822  0.4297
 1007W        W 2104   5.765   7.051   0.440 -0.0210  0.0489  0.1230
 1008W        W 2105   4.724   4.235   3.183  0.1266 -0.1753 -0.0524
 1009W        W 2106   6.856   5.591   4.932  0.3746  0.0356  0.2022
 1010W        W 2107   7.424   2.053   4.082  0.1116  0.0978  0.0657
 1011W        W 2108   6.758   1.886   2.912 -0.2381  0.1619  0.2591
 1012W        W 2109   2.605   0.433   1.374 -0.3242 -0.1755 -0.1640
 1013W        W 2110   3.731   6.668   1.169 -0.2593  0.0439 -0.3058
 1014W        W 2111   7.251   4.801   4.307 -0.2286  0.1389 -0.1560
 1015W        W 2112   5.465   3.902   3.844  0.1267 -0.1521  0.2175
 1016W        W 2113   5.760   7.025   1.458 -0.1552 -0.4085  0.0851
 1017W        W 2114   1.673   5.319   7.500  0.1060  0.0417  0.2057
 1018W        W 2115   6.008   0.339   2.496  0.1116 -0.1609  0.0825
 1019W        W 2116   2.649   5.497   0.671 -0.1237  0.2826 -0.3381
 1020W        W 2117   1.710   4.449   5.551 -0.1041  0.0073 -0.0792
 1021W        W 2118   1.484   7.033   6.240  0.0133  0.1680 -0.0294
 1022W        W 2119   1.640   1.816   1.674  0.2357  0.0240 -0.1284
 1023W        W 2120   6.055   4.190   3.793  0.0152  0.0222  0.0223
 1024W        W 2121   6.354   4.985   6.364 -0.4762  0.3392  0.1358
 1025W        W 2122   6.439   1.066   1.167 -0.1888  0.1330 -0.0509
 1026W        W 2123   5.479   3.821   0.194 -0.0262  0.1546  0.4185
 1027W        W 2124   4.572   2.462   1.173  0.0699 -0.1326 -0.2331
 1028W        W 2125   1.617   0.974   2.771 -0.1813 -0.0412 -0.2624
 1029W        W 2126   2.595   4.825   1.495 -0.0484 -0.1629 -0.1853
 1030W        W 2127   2.742   4.383   2.240  0.0389 -0.0204  0.1382
 1031W        W 2128   3.392   6.417   6.628 -0.1145  0.0060  0.0356
 1032W        W 2129   1.426   3.040   3.477 -0.1275 -0.0438  0.0276
 1033W        W 2130   5.639   2.976   6.483 -0.2123 -0.1240  0.2713
 1034W        W 2131   3.245   7.222   0.382  0.1818 -0.1825  0.2497
 1035W        W 2132   1.321   5.941   6.490  0.0997 -0.1878  0.4989
 1036W        W 2133   0.307   7.123   1.534  0.1935  0.3224  0.2282
 1037W        W 2134   0.894   0.238   2.015  0.1530 -0.0678 -0.0343
 1038W        W 2135   5.265   5.561   7.437 -0.1069 -0.1269  0.0428
 1039W        W 2136   0.258   4.812   0.179  0.1879 -0.0199 -0.2486
 1040W        W 2137   4.096   4.444   1.603  0.1756  0.1912 -0.1050
 1041W        W 2138   2.144   6.693   5.667 -0.1734 -0.0041 -0.0662
 1042W        W 2139   6.427   3.879   0.077 -0.1044 -0.0943  0.2843
 1043W        W 2140   4.329   4.938   2.170  0.2162  0.2239 -0.0752
 1044W        W 2141   2.647   5.966   1.422  0.3230 -0.2167  0.0689
 1045W        W 2142   0.343   6.108   6.373  0.3237  0.0829  0.1746
 1046W        W 2143   7.439   5.312   0.391 -0.0835  0.2861  0.1613
 1047W        W 2144   1.183   2.298   0.011  0.0606 -0.0938 -0.1995
 1048W        W 2145   6.308   4.183   6.482 -0.1842 -0.3612 -0.1806
 1049W        W 2146   3.667   6.980   6.721  0.1397 -0.0454 -0.1586
 1050W        W 2147   7.374   2.490   0.481 -0.1149 -0.2852  0.1687
 1051W        W 2148   3.108   0.284   4.896  0.5334 -0.1413  0.0840
 1052W        W 2149   7.040   6.466   0.513 -0.2931 -0.1402 -0.1473
 1053W        W 2150   0.257   6.464   5.013  0.1744  0.0861  0.0436
 1054W        W 2151   6.792   1.205   0.706 -0.0830  0.2043  0.2105
 1055W        W 2152   7.294   4.389   3.846 -0.0191  0.0942  0.1608
 1056W        W 2153   1.736   0.744   3.757  0.0139  0.2023 -0.0298
 1057W        W 2154   7.506   1.479   3.193 -0.0833  0.1026  0.0644
 1058W        W 2155   3.348   4.542   7.292 -0.0022 -0.3360 -0.0208
 1059W        W 2156   5.287   7.506   2.684  0.2765 -0.1044 -0.2076
 1060W        W 2157   3.692   3.649   4.416  0.3192  0.1568  0.0095
 1061W        W 2158   7.385   1.244   4.427 -0.1254  0.0164  0.4115
 1062W        W 2159   5.312   4.456   2.199  0.1482 -0.1049 -0.1694
 1063W        W 2160   7.419   6.833   0.410 -0.0861 -0.1909 -0.1226
 1064W        W 2161   2.529   4.466   7.498 -0.0641 -0.1616 -0.2189
 1065W        W 2162   1.755   6.524   6.653  0.0488  0.1607 -0.2268
 1066W        W 2163   7.426   4.327   3.383 -0.0628  0.1259 -0.0512
 1067W        W 2164   5.522   0.230   0.805 -0.0380 -0.0467 -0.0860
 1068W        W 2165   2.647   2.853   4.120 -0.1764 -0.2065 -0.2713
 1069W        W 2166   0.460   5.764   0.384 -0.0454  0.1511 -0.1537
 1070W        W 2167   5.665   0.044   6.880  0.0956  0.0793 -0.1997
 1071W        W 2168   5.081   3.966   0.805 -0.1634 -0.2593 -0.0699
 1072W        W 2169   2.261   5.258   3.895  0.1148  0.0209 -0.0836
 1073W        W 2170   2.193   0.934   4.841  0.2569  0.0928 -0.5215
 1074W        W 2171   2.981   6.269   0.188 -0.1532  0.0657 -0.0974
 1075W        W 2172   0.279   5.296   4.430  0.0718  0.2319 -0.2945
 1076W        W 2173   1.322   5.954   0.445  0.0616  0.0525  0.4738
 1077W        W 2174   2.396   0.300   1.889  0.0779  0.1727 -0.2738
 1078W        W 2175   3.963   2.779   3.122 -0.1895  0.1172 -0.2538
 1079W        W 2176   6.659   4.529   5.611 -0.1837 -0.0382 -0.0914
 1080W        W 2177   6.942   1.449   6.327  0.0049 -0.2203 -0.0662
 1081W        W 2178   7.228   7.561   0.125 -0.0590 -0.0472  0.2469
 1082W        W 2179   2.993   4.229   7.502  0.0579 -0.6052  0.1327
 1083W        W 2180   1.513   6.786   0.676 -0.1017 -0.0466 -0.1580
 1084W        W 2181   3.722   0.838   1.626 -0.0866  0.2667 -0.2808
 1085W        W 2182   6.683   7.552   6.956 -0.1094  0.1278  0.1561
 1086W        W 2183   4.423   5.424   1.344 -0.1358  0.2408 -0.1752
 1087W        W 2184   0.157   3.302   0.784 -0.2100  0.0798 -0.2211
 1088W        W 2185   7.278   3.400   0.903  0.0699 -0.3355 -0.2586
 1089W        W 2186   2.692   0.817   3.176  0.1934 -0.1978 -0.0747
 1090W        W 2187   2.138   7.344   0.536  0.1890  0.1109  0.2526
 1091W        W 2188   3.966   5.812   4.512  0.0306  0.0983 -0.0985
 1092W        W 2189   1.922   0.622   5.332 -0.1318 -0.2328 -0.2162
 1093W        W 2190   2.010   7.577   2.779 -0.1816  0.0191  0.1988
 1094W        W 2191   5.120   5.127   4.053 -0.0506  0.0467 -0.0466
 1095W        W 2192   4.093   3.913   3.017  0.1767 -0.3087  0.1143
 1096W        W 2193   5.355   1.954   3.425 -0.0095 -0.4560  0.1677
 1097W        W 2194   2.854   2.247   3.200  0.0133  0.1669  0.4050
 1098W        W 2195   5.186   0.193   7.610 -0.6226  0.0731 -0.0100
 1099W        W 2196   6.538   0.211   6.607 -0.1264  0.0203 -0.1833
 1100W        W 2197   6.207   7.347   3.522 -0.1624  0.0960 -0.1454
 1101W        W 2198   0.921   5.190   4.547  0.1082 -0.0450 -0.2378
 1102W        W 2199   2.740   5.923   4.564  0.0762  0.0202  0.1937
 1103W        W 2200   1.582   0.763   1.730 -0.1721 -0.1099 -0.1678
 1104W        W 2201   2.108   0.797   2.528 -0.2132  0.0185  0.1539
 1105W        W 2202   1.846   4.853   1.173  0.0669 -0.0654  0.0540
 1106W        W 2203   4.946   0.101   1.541 -0.3290  0.0376 -0.0957
 1107W        W 2204   3.350   0.016   6.781  0.1555  0.0675 -0.1004
 1108W        W 2205   7.606   7.051   4.818  0.0834  0.0325 -0.0214
 1109W        W 2206   1.949   4.600   6.887 -0.3261 -0.2128  0.1414
 1110W        W 2207   5.780   4.164   1.444  0.0709  0.1096 -0.0185
 1111W        W 2208   0.021   0.158   4.445  0.1149 -0.1986 -0.0348
 1112W        W 2209   5.673   2.738   2.716  0.1709  0.3512 -0.2256
 1113W        W 2210   3.412   4.636   4.008  0.2432  0.3175  0.0572
 1114W        W 2211   5.979   3.403   1.372 -0.2315 -0.4050 -0.2790
 1115W        W 2212   3.709   1.540   2.595  0.0822 -0.2754  0.0247
 1116W        W 2213   7.095   3.453   5.933  0.1202  0.1158  0.1392
 1117W        W 2214   4.502   4.109   7.106  0.1106  0.0567  0.1640
 1118W        W 2215   2.862   1.368   3.049  0.0857  0.4755  0.0342
 1119W        W 2216   2.486   7.149   7.338 -0.0481 -0.1371 -0.2242
 1120W        W 2217   1.722   6.068   4.240  0.1215 -0.1858  0.0403
 1121W        W 2218   2.610   2.040   6.105 -0.1819  0.1759  0.0152
 1122W        W 2219   5.426   4.491   1.697  0.0340 -0.0035  0.0362
 1123W        W 2220   1.002   3.307   0.549 -0.0201 -0.0624  0.0528
 1124W        W 2221   2.396   3.473   5.576 -0.1132  0.1724  0.0062
 1125W        W 2222   1.346   3.371   6.422 -0.2524  0.0575 -0.1525
 1126W        W 2223   2.927   7.229   2.603 -0.2501  0.2551  0.0549
 1127W        W 2224   3.717   5.570   2.556 -0.0505  0.1571  0.1159
 1128W        W 2225   1.680   2.937   5.339  0.2829 -0.0844  0.0687
 1129W        W 2226   1.757   2.979   0.870 -0.3555  0.0216 -0.2101
 1130W        W 2227   4.644   0.426   2.424 -0.2543  0.0741 -0.1465
 1131W        W 2228   6.559   0.914   1.594  0.0038 -0.0968 -0.1348
 1132W        W 2229   0.884   0.324   0.876 -0.0993 -0.2169  0.1115
 1133W        W 2230   6.354   3.218   7.563  0.3330  0.0040 -0.1496
 1134W        W 2231   2.385   5.307   6.335 -0.1677  0.1086  0.0052
 1135W        W 2232   3.899   0.917   2.668 -0.1172 -0.3054 -0.0298
 1136W        W 2233   5.546   1.156   2.522  0.1211 -0.4251  0.2173
 1137W        W 2234   6.467   4.252   4.904  0.0625  0.1948 -0.1352
 1138W        W 2235   0.248   1.848   4.278 -0.0233  0.2344  0.1347
 1139W        W 2236   2.011   1.640   5.396  0.0341 -0.1368  0.0936
 1140W        W 2237   5.958   0.557   3.033  0.0258  0.1209  0.4600
 1141W        W 2238   0.880   4.456   7.332  0.0096 -0.0478 -0.0218
 1142W        W 2239   0.435   7.110   7.477 -0.1377  0.4570  0.0708
 1143W        W 2240   2.257   0.979   3.555 -0.0259  0.2159 -0.0927
 1144W        W 2241   0.133   1.487   0.960  0.0605 -0.2604 -0.0773
 1145W        W 2242   6.623   4.218   3.600  0.1708  0.0100  0.4836
 1146W        W 2243   7.209   4.795   6.950 -0.0158 -0.0599  0.1590
 1147W        W 2244   5.953   3.269   7.221  0.3032  0.1563 -0.0861
 1148W        W 2245   6.796   0.757   7.507 -0.2953  0.0777 -0.0114
 1149W        W 2246   0.457   6.414   6.728 -0.1763 -0.0015 -0.2038
 1150W        W 2247   7.553   1.986   0.216 -0.1823  0.0604  0.0185
 1151W        W 2248   3.099   6.806   6.665  0.0023  0.0251 -0.0715
 1152W        W 2249   0.574   1.311   6.474 -0.0650  0.1079 -0.0892
 1153W        W 2250   6.328   4.739   1.696 -0.3968  0.3496 -0.0738
 1154W        W 2251   2.179   5.279   0.894 -0.1248 -0.1784  0.0742
 1155W        W 2252   3.223   0.752   1.460 -0.0993 -0.1798 -0.3884
 1156W        W 2253   1.472   2.617   4.934  0.1162  0.2119  0.1721
 1157W        W 2254   3.710   4.344   3.288 -0.3471  0.1643  0.1667
 1158W        W 2255   4.766   6.163   0.407 -0.1426 -0.1486 -0.1317
 1159W        W 2256   6.594   6.674   5.821  0.1443 -0.1128  0.0109
 1160W        W 2257   4.848   6.410   3.650  0.0064 -0.1655 -0.0269
 1161W        W 2258   0.516   2.144   2.144  0.0293  0.0051 -0.2662
 1162W        W 2259   7.492   7.206   4.343  0.0087  0.0876  0.0692
 1163W        W 2260   4.567   2.339   4.349  0.0222 -0.0243  0.0075
 1164W        W 2261   0.815   1.327   3.373  0.0596 -0.2780  0.1465
 1165W        W 2262   7.178   5.262   5.700 -0.2026  0.1441 -0.1475
 1166W        W 2263   2.730   1.950   3.810  0.0615 -0.1289 -0.2845
 1167W        W 2264   6.618   3.022   7.203 -0.0280 -0.2868 -0.3114
 1168W        W 2265   0.589   2.421   4.982  0.2698  0.1616 -0.1808
 1169W        W 2266   1.139   3.945   6.525  0.0620  0.1211 -0.3306
 1170W        W 2267   1.037   5.996   2.169 -0.0557 -0.0382 -0.0027
 1171W        W 2268   7.185   7.071   0.011 -0.2867 -0.3650  0.0098
 1172W        W 2269   4.474   2.906   0.148 -0.1002  0.3709  0.1016
 1173W        W 2270   6.796   3.673   3.451  0.0869 -0.4392  0.0941
 1174W        W 2271   1.891   3.293   3.916  0.0368 -0.1441 -0.1664
 1175W        W 2272   1.468   0.402   4.570 -0.2780 -0.0060  0.2133
 1176W        W 2273   7.090   7.208   0.471 -0.2007 -0.3924  0.0428
 1177W        W 2274   2.944   5.375   6.800 -0.2123  0.0304 -0.0110
 1178W        W 2275   0.535   1.706   3.744 -0.1416 -0.2731 -0.1008
 1179W        W 2276   7.143   0.478   0.739 -0.0185  0.1812  0.2273
 1180W        W 2277   4.984   2.400   3.607 -0.2779 -0.1364  0.0967
 1181W        W 2278   2.360   4.444   1.782 -0.2560 -0.0273  0.4823
 1182W        W 2279   4.882   2.006   1.824 -0.0163 -0.1014 -0.0897
 1183W        W 2280   2.457   5.479   6.815  0.0264 -0.1466  0.0859
 1184W        W 2281   1.733   5.380   3.124 -0.0978 -0.3653  0.0007
 1185W        W 2282   2.397   1.165   0.212  0.2139  0.4261 -0.0074
 1186W        W 2283   3.527   6.719   1.984 -0.0664 -0.1639  0.0216
 1187W        W 2284   2.803   5.739   2.674 -0.0845  0.1328  0.2484
 1188W        W 2285   3.687   1.270   2.984 -0.0334 -0.1046  0.2109
 1189W        W 2286   2.850   0.426   2.778 -0.3165 -0.0461  0.0887
 1190W        W 2287   6.693   0.157   1.859 -0.2310  0.0755  0.0319
 1191W        W 2288   4.774   0.588   2.853  0.1241 -0.2039 -0.0181
 1192W        W 2289   4.618   4.227   0.038  0.0056 -0.0362  0.0581
 1193W        W 2290   6.202   0.252   6.212 -0.1125 -0.1165  0.0050
 1194W        W 2291   0.097   3.640   7.293  0.0046 -0.2866 -0.1923
 1195W        W 2292   4.413   1.777   2.596  0.2419  0.0762 -0.2544
 1196W        W 2293   1.636   5.694   2.062 -0.1395 -0.4268  0.0428
 1197W        W 2294   3.253   4.247   2.354 -0.0776  0.0068  0.0413
 1198W        W 2295   3.694   0.050   2.272  0.0534 -0.1072 -0.0459
 1199W        W 2296   6.748   3.476   7.356  0.0191 -0.3463 -0.1203
 1200W        W 2297   1.283   3.442   4.606  0.1552  0.1768 -0.0018
 1201W        W 2298   2.384   4.359   2.751 -0.2990 -0.0659  0.1422
 1202W        W 2299   1.716   7.073   6.665 -0.1173 -0.0651 -0.4206
 1203W        W 2300   5.827   4.170   4.231 -0.2009 -0.0035 -0.0702
 1204W        W 2301   3.208   5.150   4.222  0.0932 -0.1326  0.2750
 1205W        W 2302   0.846   2.801   4.684 -0.1701  0.4171  0.0081
 1206W        W 2303   5.940   1.981   4.605  0.3010  0.2215  0.0679
 1207W        W 2304   4.954   6.593   1.809  0.1677  0.0233  0.0396
 1208W        W 2305   5.480   2.011   4.355 -0.0930  0.4076 -0.1676
 1209W        W 2306   1.195   7.580   2.376 -0.2219  0.3218 -0.3177
 1210W        W 2307   1.017   1.767   5.514 -0.0340 -0.0195  0.1189
 1211W        W 2308   4.629   1.720   3.782  0.1716  0.1873  0.1082
 1212W        W 2309   1.184   3.355   3.955  0.1389 -0.1546 -0.1568
 1213W        W 2310   1.938   5.248   0.428  0.2192  0.0530 -0.0027
 1214W        W 2311   0.180   4.654   5.054  0.2920  0.1363 -0.0210
 1215W        W 2312   2.052   6.888   0.758 -0.0706 -0.1200  0.0346
 1216W        W 2313   3.218   1.487   6.155 -0.1267  0.2574 -0.3652
 1217W        W 2314   2.688   5.596   5.891 -0.3161 -0.1269  0.2224
 1218W        W 2315   1.556   1.810   3.045 -0.0437 -0.1733 -0.2113
 1219W        W 2316   6.076   6.215   1.411 -0.0058 -0.4293 -0.1669
 1220W        W 2317   1.901   7.005   1.217 -0.0097  0.3300 -0.1204
 1221W        W 2318   1.075   0.957   7.273 -0.3492 -0.1581  0.0531
 1222W        W 2319   3.723   4.310   3.791  0.5101  0.0414  0.0664
 1223W        W 2320   4.089   6.169   3.154  0.1062  0.1031 -0.0659
 1224W        W 2321   7.214   7.375   2.182 -0.2148 -0.0852 -0.0712
 1225W        W 2322   6.684   4.412   1.836  0.1900 -0.1465 -0.1424
 1226W        W 2323   2.644   6.910   1.771 -0.0442 -0.1219  0.0050
 1227W        W 2324   1.606   7.509   6.063  0.0038  0.0600 -0.1425
 1228W        W 2325   7.217   7.396   4.728 -0.4332 -0.0714 -0.0445
 1229W        W 2326   5.304   1.132   1.475  0.1809 -0.1582  0.0862
 1230W        W 2327   6.271   2.765   5.654 -0.0938 -0.0105  0.0572
 1231W        W 2328   7.110   4.483   2.823  0.0276  0.2003  0.0126
 1232W        W 2329   1.094   2.592   3.389  0.0638 -0.1352  0.2862
 1233W        W 2330   6.572   4.975   0.508 -0.1377  0.1300 -0.1300
 1234W        W 2331   3.825   0.207   3.712 -0.0299 -0.0385 -0.0665
 1235W        W 2332   5.558   5.047   3.373 -0.1235  0.0883  0.0782
 1236W        W 2333   6.276   3.669   7.183  0.0377 -0.0477  0.0422
 1237W        W 2334   2.062   4.691   5.757 -0.1628 -0.2258 -0.2418
 1238W        W 2335   5.020   0.895   1.169 -0.1164  0.2317 -0.2079
 1239W        W 2336   2.857   3.666   5.488 -0.1673 -0.0938 -0.0507
 1240W        W 2337   0.252   2.031   4.831  0.0425  0.2724 -0.0385
 1241W        W 2338   0.217   1.598   5.150 -0.1361  0.1047  0.0713
 1242W        W 2339   5.421   3.779   6.709 -0.1359 -0.0834  0.0691
 1243W        W 2340   6.393   3.610   5.719  0.1022 -0.2502 -0.1366
 1244W        W 2341   0.688   0.715   2.330  0.0065  0.1807  0.0485
 1245W        W 2342   1.691   2.527   2.492 -0.3377 -0.3046  0.0257
 1246W        W 2343   3.983   7.014   3.788  0.1748 -0.2454 -0.0043
 1247W        W 2344   1.162   1.899   7.099 -0.4685 -0.2326  0.1660
 1248W        W 2345   4.472   0.287   1.833 -0.0575 -0.1326 -0.1079
 1249W        W 2346   1.467   1.304   1.804 -0.2148 -0.0111 -0.0719
 1250W        W 2347   5.690   3.396   3.717  0.1216 -0.0976 -0.0682
 1251W        W 2348   5.796   4.909   6.453  0.0854  0.2193  0.0394
 1252W        W 2349   4.768   6.844   0.114  0.1325 -0.2296  0.1161
 1253W        W 2350   7.329   3.408   5.397  0.0350 -0.2830  0.0658
 1254W        W 2351   5.240   4.165   3.049 -0.2125 -0.0774 -0.4075
 1255W        W 2352   6.667   3.149   5.874  0.1356  0.0148  0.2530
 1256W        W 2353   5.594   2.916   3.229 -0.0198 -0.0537  0.2081
 1257W        W 2354   5.480   7.392   0.674 -0.1408  0.2137 -0.0960
 1258W        W 2355   1.595   0.924   3.278  0.1788 -0.1921 -0.0064
 1259W        W 2356   5.025   2.940   1.077  0.1325  0.2031  0.0204
 1260W        W 2357   0.345   2.517   7.236 -0.0416 -0.1352  0.1606
 1261W        W 2358   1.973   3.755   5.698 -0.0487  0.0678  0.3254
 1262W        W 2359   1.173   1.212   0.524  0.0037 -0.0039 -0.0685
 1263W        W 2360   2.545   7.507   1.190 -0.2804 -0.2181  0.2262
 1264W        W 2361   0.827   7.546   0.567 -0.3595 -0.3043  0.1167
 1265W        W 2362   2.531   0.588   2.396  0.0929  0.0079 -0.0822
 1266W        W 2363   3.245   4.960   3.194  0.0976  0.3263 -0.1057
 1267W        W 2364   1.536   4.252   3.914 -0.1900 -0.1342  0.1539
 1268W        W 2365   1.248   5.142   2.077  0.1199  0.0744  0.0639
 1269W        W 2366   6.710   4.738   0.951  0.3273  0.0997  0.0745
 1270W        W 2367   1.390   5.363   4.645  0.0107  0.1328  0.1154
 1271W        W 2368   4.177   1.234   2.380 -0.0389 -0.2967 -0.1047
 1272W        W 2369   3.271   4.103   7.085  0.3491 -0.0039  0.1028
 1273W        W 2370   0.668   2.632   6.828  0.2581 -0.2405  0.0416
 1274W        W 2371   0.852   1.625   5.986 -0.0615 -0.1368  0.1802
 1275W        W 2372   0.433   0.514   3.119  0.0200  0.2906  0.2430
 1276W        W 2373   0.049   7.441   7.462 -0.2072  0.0136 -0.0028
 1277W        W 2374   5.034   3.909   1.575 -0.2062 -0.2040  0.0446
 1278W        W 2375   1.425   6.502   6.239 -0.0467  0.1525 -0.0334
 1279W        W 2376   3.153   3.671   6.913 -0.2090  0.0838 -0.2244
 1280W        W 2377   3.338   0.378   1.059 -0.1582  0.0430  0.1477
 1281W        W 2378   1.523   3.056   1.597  0.0781  0.1644  0.1056
 1282W        W 2379   2.779   4.499   1.135 -0.1185  0.1931  0.3713
 1283W        W 2380   4.708   1.800   0.569 -0.2451 -0.3296 -0.0260
 1284W        W 2381   0.880   2.088   0.439  0.0713 -0.0278 -0.2034
 1285W        W 2382   2.514   6.228   3.361  0.1476 -0.0002  0.2405
 1286W        W 2383   1.435   2.563   2.043 -0.1545 -0.2099 -0.0271
 1287W        W 2384   7.489   3.135   1.269  0.0455 -0.0772 -0.0480
 1288W        W 2385   4.343   6.238   3.714  0.4253 -0.0766 -0.3387
 1289W        W 2386   0.116   7.200   5.973  0.2364 -0.1917 -0.0134
 1290W        W 2387   6.426   5.940   5.661 -0.1343  0.3199 -0.2499
 1291W        W 2388   0.955   0.324   4.636  0.3286 -0.1671  0.0941
 1292W        W 2389   1.647   1.147   6.528 -0.2161 -0.0755 -0.0251
 1293W        W 2390   5.215   5.828   1.460 -0.2721 -0.2585  0.0752
 1294W        W 2391   0.401   1.800   0.127 -0.1014 -0.2707  0.0980
 1295W        W 2392   5.420   2.274   0.024 -0.0097 -0.0986 -0.1305
 1296W        W 2393   6.946   5.203   0.299  0.0105 -0.2230 -0.3234
 1297W        W 2394   4.427   0.591   1.065  0.0729  0.0300 -0.0771
 1298W        W 2395   2.594   6.268   0.999 -0.1410  0.1061  0.1042
 1299W        W 2396   1.364   0.523   2.991  0.1437  0.2165 -0.1157
 1300W        W 2397   0.777   6.435   2.514 -0.0318  0.2050  0.0143
 1301W        W 2398   5.789   6.603   1.241 -0.2309 -0.1251 -0.1020
 1302W        W 2399   0.158   5.320   6.494  0.1675  0.0409 -0.0461
 1303W        W 2400   4.604   1.238   2.084 -0.0061  0.1441 -0.0528
 1304W        W 2401   1.535   4.027   1.420 -0.1774  0.1888 -0.1526
 1305W        W 2402   2.904   1.224   5.201  0.0302 -0.2890 -0.0626
 1306W        W 2403   0.958   5.999   0.841  0.1128  0.0507 -0.2089
 1307W        W 2404   1.453   0.305   2.066 -0.1550  0.1043  0.0030
 1308W        W 2405   2.582   7.095   5.456  0.0459  0.0561 -0.2388
 1309W        W 2406   6.884   0.089   0.536  0.1466  0.2335  0.4368
 1310W        W 2407   4.801   5.549   3.163  0.0605 -0.1561  0.1025
 1311W        W 2408   5.671   2.147   6.681  0.2200  0.1694 -0.0430
 1312W        W 2409   2.446   3.791   0.447  0.1672  0.0917 -0.1199
 1313W        W 2410   1.656   6.505   2.123  0.2257  0.2746 -0.0796
 1314W        W 2411   3.136   0.760   4.790 -0.4448 -0.3414  0.4723
 1315W        W 2412   2.448   6.355   0.210  0.0750  0.1339 -0.0111
 1316W        W 2413   6.062   0.474   0.893 -0.0378  0.1556  0.1034
 1317W        W 2414   6.564   2.141   3.705 -0.0836  0.2703 -0.3137
 1318W        W 2415   3.296   0.910   4.290 -0.0448 -0.1319 -0.1216
 1319W        W 2416   4.962   0.357   1.976  0.1376 -0.0259 -0.2683
 1320W        W 2417   4.139   5.539   0.545 -0.0707  0.0879  0.0711
 1321W        W 2418   1.185   2.560   1.514 -0.2852  0.1701  0.0673
 1322W        W 2419   1.047   3.006   6.498 -0.0635  0.0657  0.2009
 1323W        W 2420   6.767   2.246   6.794  0.3125 -0.0918 -0.4551
 1324W        W 2421   4.070   7.101   1.658  0.0455 -0.0292 -0.1327
 1325W        W 2422   4.070   7.543   1.918 -0.0181  0.1086 -0.0920
 1326W        W 2423   0.238   0.735   2.140  0.1973 -0.2152 -0.0303
 1327W        W 2424   7.627   0.524   0.721 -0.3026  0.1330  0.1557
 1328W        W 2425   5.660   7.604   7.359 -0.1957  0.0190 -0.0664
 1329W        W 2426   1.634   5.059   3.499 -0.0753 -0.0324 -0.0512
 1330W        W 2427   1.835   0.099   0.677  0.0421 -0.2059  0.0935
 1331W        W 2428   6.247   4.258   2.180  0.0641  0.1313  0.1460
 1332W        W 2429   3.553   7.298   3.868 -0.1434  0.1677  0.0394
 1333W        W 2430   2.304   0.479   5.028 -0.1404  0.0126  0.0470
 1334W        W 2431   0.304   2.784   0.572 -0.2417 -0.3116  0.0763
 1335W        W 2432   4.327   4.268   1.112 -0.2437  0.1296 -0.0841
 1336W        W 2433   4.400   3.617   7.065 -0.0878 -0.0534 -0.0257
 1337W        W 2434   0.785   5.036   0.450 -0.0093 -0.0264  0.3326
 1338W        W 2435   2.122   1.803   2.294 -0.1843  0.0607 -0.1988
 1339W        W 2436   0.854   5.421   2.025 -0.2024  0.0680  0.0602
 1340W        W 2437   3.480   4.996   0.936  0.2123 -0.0291 -0.1477
 1341W        W 2438   0.249   0.699   7.351 -0.0907  0.2980  0.1334
 1342W        W 2439   3.382   6.666   7.087 -0.2775 -0.0878 -0.1804
 1343W        W 2440   1.032   1.238   2.033 -0.0226 -0.1465  0.1343
 1344W        W 2441   5.252   0.675   0.657 -0.2430 -0.0068 -0.0336
 1345W        W 2442   2.770   7.108   4.959  0.1109  0.2137 -0.0702
 1346W        W 2443   5.669   3.477   4.939  0.1020 -0.2613 -0.5681
 1347W        W 2444   1.976   3.482   1.121  0.2784 -0.0965 -0.0201
 1348W        W 2445   3.967   6.513   2.510  0.0202  0.0039  0.1169
 1349W        W 2446   0.083   0.014   3.134  0.0278 -0.3937  0.0284
 1350W        W 2447   0.247   7.617   2.662 -0.1945 -0.1531 -0.1603
 1351W        W 2448   1.841   0.488   2.895 -0.2871  0.3930 -0.0410
 1352W        W 2449   4.422   3.309   6.690  0.0384 -0.3563 -0.4089
 1353W        W 2450   3.559   3.289   7.586  0.3272  0.1015  0.0967
 1354W        W 2451   1.691   4.936   2.297 -0.1740  0.0140  0.1414
 1355W        W 2452   6.648   1.755   5.775 -0.0002 -0.4750  0.2797
 1356W        W 2453   6.802   2.608   5.051 -0.1496  0.1550 -0.2147
 1357W        W 2454   3.612   4.619   2.378 -0.1930  0.0917  0.1924
 1358W        W 2455   0.571   1.579   5.556  0.1536  0.4451  0.1485
 1359W        W 2456   3.735   3.060   7.198 -0.2141 -0.0036  0.1235
 1360W        W 2457   4.867   1.165   3.678 -0.2652  0.2635  0.0477
 1361W        W 2458   4.845   5.817   7.614  0.3701  0.0737  0.0164
 1362W        W 2459   7.609   7.292   0.300  0.1667 -0.2221 -0.1058
 1363W        W 2460   3.158   3.168   3.350  0.0816  0.1775  0.1348
 1364W        W 2461   5.976   2.931   4.628  0.0603 -0.0020  0.3787
 1365W        W 2462   1.416   0.495   6.481  0.1834  0.0189  0.0791
 1366W        W 2463   5.889   1.291   2.894  0.3027  0.0380 -0.1200
 1367W        W 2464   5.725   4.302   6.090 -0.0546 -0.2671 -0.1017
 1368W        W 2465   1.457   0.923   5.051 -0.4320  0.2978  0.2302
 1369W        W 2466   2.117   5.716   1.386  0.3601 -0.0804  0.2786
 1370W        W 2467   6.541   5.296   4.736  0.2708  0.3410  0.0408
 1371W        W 2468   2.033   2.785   2.906 -0.1837 -0.0768  0.0002
 1372W        W 2469   3.256   6.235   3.029 -0.3199  0.0577  0.2839
 1373W        W 2470   1.310   0.403   4.998 -0.0872  0.2919 -0.0555
 1374W        W 2471   3.689   1.878   6.620 -0.3481 -0.3558  0.1563
 1375W        W 2472   4.782   3.313   2.902  0.0914  0.0496 -0.1066
 1376W        W 2473   4.257   5.362   2.426  0.0027 -0.2851 -0.2777
 1377W        W 2474   6.836   3.470   5.486 -0.0372 -0.0374 -0.0092
 1378W        W 2475   6.240   2.080   4.187  0.0787 -0.0330 -0.0932
 1379W        W 2476   4.615   2.314   0.564  0.0359 -0.1750 -0.3351
 1380W        W 2477   6.984   4.597   3.487  0.2436  0.3418 -0.0799
 1381W        W 2478   1.587   3.487   3.491 -0.0475 -0.1606 -0.3476
 1382W        W 2479   5.381   3.340   5.619  0.2399 -0.0089  0.2373
 1383W        W 2480   1.696   3.538   7.371 -0.1892 -0.2957  0.0408
 1384W        W 2481   1.281   5.775   7.603 -0.2291  0.3918  0.0335
 1385W        W 2482   1.403   7.230   4.695  0.2598 -0.0311 -0.3774
 1386W        W 2483   7.344   1.201   0.798 -0.0345  0.1563 -0.1069
 1387W        W 2484   6.357   0.037   1.022 -0.2649  0.2666  0.1870
 1388W        W 2485   2.625   0.318   4.715  0.1232  0.0929  0.0094
 1389W        W 2486   1.933   4.006   2.640 -0.3603  0.1409  0.0044
 1390W        W 2487   2.663   6.645   5.244 -0.3200  0.2143 -0.2434
 1391W        W 2488   6.896   4.688   3.997 -0.2277  0.4062 -0.1877
 1392W        W 2489   2.407   1.580   6.141  0.1342  0.0281  0.4329
 1393W        W 2490   3.471   3.530   3.514  0.0768 -0.1111  0.4242
 1394W        W 2491   1.196   4.149   6.968  0.2743 -0.3188  0.3056
 1395W        W 2492   3.316   1.368   3.357  0.3113  0.2223 -0.1276
 1396W        W 2493   6.677   2.994   2.581 -0.1556  0.0998  0.1251
 1397W        W 2494   0.881   1.958   3.388 -0.1242 -0.2535  0.1644
 1398W        W 2495   7.303   4.718   4.979 -0.1848 -0.1282  0.3367
 1399W        W 2496   4.647   5.996   2.962  0.1141  0.1031  0.3986
 1400W        W 2497   2.529   5.416   2.902 -0.2944  0.0817  0.0288
 1401W        W 2498   6.895   2.956   4.058 -0.5662  0.1213 -0.0701
 1402W        W 2499   6.724   6.931   0.159  0.2007 -0.1004 -0.0861
 1403W        W 2500   6.749   4.848   1.520 -0.1709 -0.0752 -0.0185
 1404W        W 2501   2.001   5.106   6.048 -0.1918  0.0444 -0.1507
 1405W        W 2502   7.145   4.112   2.506  0.2286  0.2094  0.1429
 1406W        W 2503   4.161   4.110   3.966  0.1997 -0.1075  0.2864
 1407W        W 2504   6.355   0.888   0.710 -0.2745 -0.0305  0.1642
 1408W        W 2505   2.118   2.026   6.212 -0.0828 -0.0328  0.0689
 1409W        W 2506   3.466   0.559   6.516 -0.0188  0.2573 -0.0034
 1410W        W 2507   0.489   0.039   6.385 -0.2051  0.0132  0.0940
 1411W        W 2508   0.138   5.734   4.680  0.1162  0.3580  0.3887
 1412W        W 2509   2.922   5.802   0.944  0.2851 -0.2046 -0.0291
 1413W        W 2510   1.463   0.383   0.898  0.0019  0.0665  0.4181
 1414W        W 2511   2.668   6.770   7.600  0.3376 -0.2209  0.2055
 1415W        W 2512   6.428   6.930   2.094  0.1090 -0.0926  0.1299
 1416W        W 2513   4.382   5.990   4.292 -0.0325  0.3486  0.1153
 1417W        W 2514   4.851   5.051   6.590 -0.1950 -0.0550  0.2550
 1418W        W 2515   3.073   6.986   5.308  0.2093  0.2908 -0.0351
 1419W        W 2516   6.025   4.568   5.729  0.2806  0.1314  0.1394
 1420W        W 2517   0.881   2.030   0.966 -0.1341 -0.1746  0.0280
 1421W        W 2518   7.621   0.022   2.247 -0.1300 -0.1554  0.2149
 1422W        W 2519   0.552   3.237   1.764 -0.1243 -0.2632  0.0267
 1423W        W 2520   6.941   3.735   4.052  0.0012  0.0171  0.1112
 1424W        W 2521   2.650   3.522   6.235  0.1697 -0.0124  0.3569
 1425W        W 2522   1.324   1.870   0.186 -0.1187  0.3776 -0.1675
 1426W        W 2523   6.261   3.299   6.830  0.2661  0.3636  0.1241
 1427W        W 2524   6.406   0.829   5.499 -0.0776  0.1449  0.1707
 1428W        W 2525   0.163   3.945   6.121 -0.1336  0.0406  0.0746
 1429W        W 2526   6.804   7.348   0.876 -0.3314 -0.2106 -0.0496
 1430W        W 2527   2.037   2.267   4.180  0.1193 -0.2282 -0.0861
 1431W        W 2528   5.661   2.693   7.267  0.1435 -0.3661 -0.0674
 1432W        W 2529   7.108   4.550   6.435 -0.2735 -0.1850 -0.2694
 1433W        W 2530   4.910   3.682   2.078  0.2431 -0.1097  0.1456
 1434W        W 2531   6.233   4.709   0.788 -0.3291  0.0386  0.1432
 1435W        W 2532   1.976   3.144   3.365 -0.1404  0.0938 -0.2080
 1436W        W 2533   1.910   0.040   7.243  0.0486  0.0431 -0.0832
 1437W        W 2534   0.866   2.703   7.428  0.0657  0.1725 -0.1032
 1438W        W 2535   3.778   1.235   2.124  0.4276 -0.2228  0.2551
 1439W        W 2536   0.605   4.765   5.689 -0.2431 -0.0232 -0.1842
 1440W        W 2537   0.622   1.885   5.133 -0.0400 -0.1107  0.1250
 1441W        W 2538   7.464   2.944   0.282  0.1743 -0.1438 -0.1824
 1442W        W 2539   3.048   0.707   6.208  0.1283 -0.0774 -0.0114
 1443W        W 2540   1.262   6.820   3.769 -0.2661  0.0052  0.1990
 1444W        W 2541   3.503   3.327   6.839  0.1614 -0.1523  0.0235
 1445W        W 2542   0.910   2.901   1.789  0.0537 -0.0182  0.1848
 1446W        W 2543   6.607   3.829   1.068  0.1016 -0.2613  0.1562
 1447W        W 2544   7.468   0.116   0.527 -0.1276  0.0021 -0.0561
 1448W        W 2545   4.631   1.083   3.104 -0.1002  0.0436 -0.1295
 1449W        W 2546   3.187   1.259   7.017 -0.1037 -0.0666  0.0882
 1450W        W 2547   0.193   1.046   0.717  0.0220  0.0259 -0.2104
 1451W        W 2548   7.171   3.881   5.344 -0.2499 -0.1709  0.1524
 1452W        W 2549   3.097   6.622   1.718  0.0944  0.4097 -0.1894
 1453W        W 2550   6.066   2.397   1.458 -0.0360 -0.1577  0.1803
 1454W        W 2551   1.771   5.170   5.048  0.3479 -0.0990 -0.1263
 1455W        W 2552   0.863   0.424   5.179  0.1092  0.1995  0.2477
 1456W        W 2553   2.580   5.464   1.340  0.0608  0.2679 -0.1667
 1457W        W 2554   4.463   0.571   3.244 -0.3214  0.1980 -0.0566
 1458W        W 2555   1.390   2.376   6.378  0.0667  0.0066  0.1807
 1459W        W 2556   1.138   1.994   6.614  0.0213  0.0154 -0.0071
 1460W        W 2557   0.052   5.253   4.870 -0.3378 -0.0814 -0.2643
 1461W        W 2558   1.563   0.807   6.874  0.3408  0.1744  0.0034
 1462W        W 2559   5.657   6.979   2.751 -0.0413  0.1708  0.0968
 1463W        W 2560   5.141   4.561   0.698 -0.2223 -0.0797  0.0171
 1464W        W 2561   2.628   4.086   4.535 -0.2878 -0.1412 -0.0061
 1465W        W 2562   2.538   0.053   2.435  0.1808  0.3403  0.0493
 1466W        W 2563   5.335   5.780   1.932 -0.1689  0.3185  0.0510
 1467W        W 2564   2.239   6.260   1.334 -0.3157  0.2482 -0.0262
 1468W        W 2565   1.107   4.568   5.540 -0.1735  0.0700 -0.1840
 1469W        W 2566   1.346   5.602   2.879 -0.1281 -0.2559  0.2038
 1470W        W 2567   5.438   3.189   1.167  0.0224 -0.2207  0.0594
 1471W        W 2568   1.771   6.134   6.313 -0.0106 -0.0071 -0.1817
 1472W        W 2569   5.802   3.058   4.084  0.1289  0.0816 -0.2968
 1473W        W 2570   1.311   0.219   5.537 -0.5703  0.0102 -0.0338
 1474W        W 2571   4.466   4.038   2.205  0.1862  0.0579  0.0484
 1475W        W 2572   4.359   7.187   2.127  0.0429 -0.1804 -0.2222
 1476W        W 2573   7.384   0.185   3.524 -0.2199 -0.1023 -0.0785
 1477W        W 2574   2.398   4.222   7.063 -0.0017 -0.1483  0.1905
 1478W        W 2575   3.168   4.214   1.302  0.0848  0.1276 -0.0308
 1479W        W 2576   4.976   1.613   3.448  0.2449 -0.1413  0.0648
 1480W        W 2577   4.589   4.556   2.367 -0.2678  0.0721 -0.2470
 1481W        W 2578   3.175   0.620   5.752 -0.0499 -0.0938  0.1884
 1482W        W 2579   1.217   7.314   3.453  0.1228  0.0172 -0.4109
 1483W        W 2580   5.823   6.371   6.801  0.1164  0.2331  0.1198
 1484W        W 2581   1.110   3.656   0.949  0.0065  0.2678  0.0136
 1485W        W 2582   0.482   6.003   4.935 -0.0843 -0.0161 -0.1752
 1486W        W 2583   4.029   0.424   5.132 -0.0614 -0.1308 -0.1495
 1487W        W 2584   0.041   2.375   2.996 -0.3197  0.1814  0.1109
 1488W        W 2585   7.229   0.346   5.377  0.2413 -0.1340 -0.2786
 1489W        W 2586   7.314   0.776   6.577  0.3757 -0.0994  0.1655
 1490W        W 2587   2.405   5.283   1.832 -0.1878  0.0800  0.0559
 1491W        W 2588   2.289   3.277   6.594 -0.1121  0.0600  0.1418
 1492W        W 2589   1.301   6.845   4.258 -0.0461 -0.0644 -0.3156
 1493W        W 2590   1.244   1.590   3.368  0.0990 -0.2521 -0.0285
 1494W        W 2591   0.484   4.962   6.769  0.1056  0.1039  0.0994
 1495W        W 2592   6.150   7.231   1.295  0.1369  0.0588  0.0446
 1496W        W 2593   7.167   4.861   5.451 -0.0118 -0.0597 -0.0702
 1497W        W 2594   7.227   3.663   3.203 -0.0532  0.1188 -0.2855
 1498W        W 2595   5.977   6.919   6.684 -0.0546  0.2057  0.0257
 1499W        W 2596   0.800   0.494   3.561  0.2000 -0.1119  0.1034
 1500W        W 2597   5.528   5.997   7.004  0.2532 -0.3202  0.0308
 1501W        W 2598   1.551   2.611   6.797  0.1723  0.3342 -0.0749
 1502W        W 2599   0.244   1.531   1.461  0.1510 -0.1143 -0.0741
 1503W        W 2600   5.988   5.619   5.858 -0.0517  0.0767  0.0329
 1504W        W 2601   3.541   1.168   1.217 -0.0132 -0.0066  0.0069
 1505W        W 2602   1.980   2.634   3.902  0.0229 -0.1161 -0.1208
 1506W        W 2603   3.073   4.096   6.569 -0.0287  0.0816  0.0623
 1507W        W 2604   0.447   4.800   1.746  0.1789  0.1244 -0.0003
 1508W        W 2605   6.289   0.949   3.769  0.0464 -0.2011 -0.0832
 1509W        W 2606   5.298   6.785   1.365 -0.1499  0.1466 -0.0087
 1510W        W 2607   4.715   6.350   0.934 -0.1656 -0.0797  0.0119
 1511W        W 2608   3.453   7.391   5.465 -0.1164  0.1294 -0.1734
 1512W        W 2609   2.205   5.732   7.186 -0.2220 -0.2570 -0.3832
 1513W        W 2610   0.882   4.433   1.856 -0.3025  0.1795  0.1061
 1514W        W 2611   0.657   7.448   2.225  0.0435  0.1511  0.1448
 1515W        W 2612   2.901   2.451   4.246 -0.1587 -0.2508  0.1206
 1516W        W 2613   2.445   5.830   5.390  0.3594 -0.3524 -0.1140
 1517W        W 2614   1.908   4.451   1.514  0.0419 -0.3334 -0.0208
 1518W        W 2615   7.472   2.862   6.969 -0.2148  0.0343  0.1131
 1519W        W 2616   3.953   6.131   4.116 -0.2079  0.0741  0.1536
 1520W        W 2617   1.085   6.363   4.332  0.0757  0.1454  0.2203
 1521W        W 2618   5.613   2.485   6.234  0.2858 -0.0312  0.3774
 1522W        W 2619   3.687   2.890   4.534 -0.3706  0.0618 -0.1480
 1523W        W 2620   7.064   2.306   4.556 -0.2977 -0.0249  0.2148
 1524W        W 2621   1.475   1.623   6.772 -0.1298  0.0336 -0.3347
 1525W        W 2622   0.476   5.347   7.133  0.1642 -0.0503  0.2035
 1526W        W 2623   2.378   7.627   5.644 -0.1331 -0.1780 -0.0793
 1527W        W 2624   5.640   5.442   2.682 -0.1057 -0.1751  0.1342
 1528W        W 2625   2.652   6.332   3.799  0.1844 -0.0072 -0.1989
 1529W        W 2626   6.124   1.719   3.167 -0.3255 -0.0456  0.1452
 1530W        W 2627   2.710   1.215   3.543 -0.0647 -0.0015  0.2846
 1531W        W 2628   1.800   5.981   3.727  0.1004  0.0605  0.2162
 1532W        W 2629   3.050   0.464   0.528  0.0747  0.2097  0.2458
 1533W        W 2630   1.010   4.870   4.120  0.0054 -0.0031  0.2298
 1534W        W 2631   1.918   1.709   5.914 -0.0913 -0.1355  0.1668
 1535W        W 2632   6.180   4.554   5.209  0.1969 -0.2652 -0.0496
 1536W        W 2633   5.771   6.585   0.671 -0.1238  0.1942 -0.3603
 1537W        W 2634   0.033   2.016   6.770 -0.0725  0.0476  0.5558
 1538W        W 2635   1.941   1.091   0.448 -0.0110 -0.0565  0.0997
 1539W        W 2636   7.119   3.183   2.647  0.1192  0.5714 -0.1385
 1540W        W 2637   6.936   5.982   6.250  0.1665 -0.0346  0.0405
 1541W        W 2638   4.355   4.025   3.467 -0.0452  0.0425  0.3832
 1542W        W 2639   3.512   6.869   2.442  0.4567 -0.0300 -0.0169
 1543W        W 2640   6.126   4.645   3.991 -0.1162 -0.2125  0.1312
 1544W        W 2641   3.063   6.213   1.244 -0.2059 -0.2356  0.0618
 1545W        W 2642   4.060   7.580   1.416  0.0888 -0.2493 -0.0924
 1546W        W 2643   1.388   0.616   4.106 -0.3732  0.0796  0.2373
 1547W        W 2644   3.283   5.234   4.761 -0.1288 -0.2322 -0.1753
 1548W        W 2645   1.248   5.160   3.133 -0.0498  0.0130 -0.2211
 1549W        W 2646   7.330   3.143   4.621  0.1161 -0.4117  0.1383
 1550W        W 2647   2.939   5.974   5.560  0.0561 -0.0948  0.1459
 1551W        W 2648   5.128   4.279   3.527 -0.1575 -0.2833 -0.1593
 1552W        W 2649   0.799   6.685   0.837  0.0990  0.1140 -0.0531
 1553W        W 2650   0.646   4.898   3.806  0.0600  0.1371  0.0054
 1554W        W 2651   6.748   3.476   2.455 -0.2816 -0.2269 -0.3613
 1555W        W 2652   0.537   3.124   7.235  0.2283  0.1055 -0.2882
 1556W        W 2653   0.833   7.299   1.632 -0.0196  0.1340 -0.1071
 1557W        W 2654   5.283   4.777   7.617 -0.1956  0.0491 -0.1550
 1558W        W 2655   0.432   7.043   0.464  0.0180  0.2161  0.2889
 1559W        W 2656   3.910   6.006   3.644  0.0473  0.1520  0.0737
 1560W        W 2657   0.383   6.594   7.457 -0.0552  0.4231  0.2001
 1561W        W 2658   4.541   2.682   3.222 -0.1761  0.1205 -0.1161
 1562W        W 2659   0.752   3.962   3.044 -0.1723 -0.0813 -0.1460
 1563W        W 2660   2.802   6.451   3.043 -0.0267 -0.0045 -0.0466
 1564W        W 2661   5.659   6.063   0.561 -0.1317  0.0109  0.0791
 1565W        W 2662   4.829   4.805   0.459  0.0396 -0.0782  0.1789
 1566W        W 2663   4.286   3.532   3.450 -0.2378  0.1712 -0.0074
 1567W        W 2664   5.897   3.202   2.759 -0.0877  0.0720  0.0995
 1568W        W 2665   6.181   5.530   7.616 -0.0256 -0.2009  0.2476
 1569W        W 2666   7.098   1.577   4.590  0.1557  0.1901 -0.2574
 1570W        W 2667   6.623   3.441   0.693 -0.0001 -0.1135 -0.0873
 1571W        W 2668   7.363   2.651   4.841  0.0400  0.1997 -0.1638
 1572W        W 2669   7.145   0.387   0.210  0.1365  0.0792  0.1113
 1573W        W 2670   3.457   0.571   3.517 -0.1504 -0.1439 -0.2205
 1574W        W 2671   0.734   6.334   1.133 -0.0016 -0.0832  0.2614
 1575W        W 2672   1.788   2.059   0.063 -0.0744  0.0376  0.3098
 1576W        W 2673   4.710   3.850   1.129 -0.0301  0.3068  0.0786
 1577W        W 2674   2.708   1.722   3.359 -0.1720  0.2327 -0.1340
 1578W        W 2675   4.941   2.361   3.055 -0.2153 -0.0615  0.0608
 1579W        W 2676   3.043   4.886   1.285 -0.2202  0.3663 -0.0182
 1580W        W 2677   2.415   2.160   3.461 -0.0760  0.0561 -0.1176
 1581W        W 2678   5.659   3.117   6.036  0.0352  0.0838 -0.0861
 1582W        W 2679   4.902   1.370   1.270  0.0210 -0.1303 -0.0019
 1583W        W 2680   1.038   4.393   3.864  0.2315 -0.0385  0.0416
 1584W        W 2681   6.547   1.741   6.686  0.3962 -0.0276 -0.0984
 1585W        W 2682   4.779   2.862   0.635  0.3041  0.1102 -0.0290
 1586W        W 2683   2.397   1.278   3.112  0.1490  0.1663 -0.0370
 1587W        W 2684   4.549   6.462   1.429 -0.1625 -0.0017  0.3457
 1588W        W 2685   2.061   3.230   7.079 -0.0968 -0.3139  0.0483
 1589W        W 2686   1.717   6.786   3.944 -0.1749 -0.2927  0.2595
 1590W        W 2687   2.184   6.517   2.185  0.1587 -0.2150 -0.0228
 1591W        W 2688   4.443   6.744   3.675  0.2309 -0.3471 -0.1090
 1592W        W 2689   1.660   5.391   1.261 -0.1217  0.1211  0.2415
 1593W        W 2690   6.277   4.372   7.619 -0.2434 -0.0970 -0.2371
 1594W        W 2691   1.339   0.106   7.367  0.1105 -0.1480 -0.1063
 1595W        W 2692   2.671   6.507   1.428 -0.1610  0.1741  0.1681
 1596W        W 2693   1.425   6.790   5.815  0.0337 -0.1032  0.0261
 1597W        W 2694   2.449   4.511   3.426 -0.2343  0.0717  0.1189
 1598W        W 2695   3.320   1.596   2.921  0.3301  0.1235  0.0065
 1599W        W 2696   0.544   1.106   1.880  0.1379  0.2878  0.0003
 1600W        W 2697   1.369   6.242   5.207  0.1413  0.1632 -0.1836
 1601W        W 2698   4.835   1.290   7.412  0.1270  0.5278  0.0663
 1602W        W 2699   3.122   6.665   2.644 -0.1076  0.0944  0.1014
 1603W        W 2700   1.189   0.267   0.410 -0.0723  0.0932  0.0739
 1604W        W 2701   3.119   7.482   5.129 -0.1239  0.1387  0.1979
 1605W        W 2702   0.761   4.885   1.271 -0.3531  0.0648  0.1603
 1606W        W 2703   7.235   1.071   3.164  0.0924  0.0585 -0.3431
 1607W        W 2704   4.241   6.796   1.308 -0.0255 -0.2095  0.0792
 1608W        W 2705   0.453   6.937   4.763  0.0721  0.0789  0.0140
 1609W        W 2706   7.566   1.920   1.847 -0.0649  0.3737 -0.2039
 1610W        W 2707   6.080   5.185   0.369 -0.0805 -0.0520 -0.1338
 1611W        W 2708   4.336   2.128   3.850  0.0779  0.0276 -0.3209
 1612W        W 2709   6.430   5.229   1.736  0.5479  0.0167 -0.0295
 1613W        W 2710   6.357   2.056   1.113 -0.1158  0.0386  0.2838
 1614W        W 2711   3.676   1.037   4.646 -0.1962  0.1405 -0.2537
 1615W        W 2712   3.860   0.967   0.272  0.1920  0.0160 -0.3428
 1616W        W 2713   2.078   2.191   4.674  0.0144 -0.2300  0.2820
 1617W        W 2714   6.318   4.228   0.970 -0.0420  0.0284  0.1167
 1618W        W 2715   7.627   0.450   6.990  0.1362 -0.1544 -0.4244
 1619W        W 2716   2.911   5.585   4.955  0.0947  0.3126 -0.0569
 1620W        W 2717   1.471   0.244   6.917 -0.1443  0.0843  0.1535
 1621W        W 2718   1.143   2.980   4.342  0.0866 -0.2166  0.3307
 1622W        W 2719   1.044   7.102   2.116  0.1409  0.0793  0.0216
 1623W        W 2720   1.065   0.575   0.036  0.0472 -0.1721 -0.2722
 1624W        W 2721   3.353   2.508   4.001 -0.1613  0.0216  0.1294
 1625W        W 2722   6.053   6.866   2.470  0.0983 -0.0158 -0.0862
 1626W        W 2723   1.012   4.741   3.466 -0.0130  0.0693 -0.1549
 1627W        W 2724   1.244   3.020   2.106  0.0179  0.0926  0.3155
 1628W        W 2725   1.847   7.314   4.890 -0.1067  0.0708  0.0017
 1629W        W 2726   5.920   1.011   6.261  0.0820 -0.1263 -0.1183
 1630W        W 2727   3.618   4.137   2.691  0.1859 -0.0545  0.0557
 1631W        W 2728   6.687   6.891   1.199  0.1141  0.0823  0.0901
 1632W        W 2729   6.404   5.501   7.156  0.1753 -0.1129 -0.0397
 1633W        W 2730   3.004   2.393   4.737  0.2303 -0.1669 -0.0109
 1634W        W 2731   6.775   2.995   3.471  0.2538  0.5301  0.0569
 1635W        W 2732   3.126   5.842   6.001  0.0061  0.2183 -0.1357
 1636W        W 2733   1.544   2.851   6.363 -0.1028 -0.1327 -0.1205
 1637W        W 2734   0.458   7.498   0.200  0.1462 -0.0314  0.1644
 1638W        W 2735   2.013   4.061   1.795 -0.0158 -0.0273 -0.0732
 1639W        W 2736   1.371   4.348   5.936 -0.1605  0.2207 -0.1491
 1640W        W 2737   1.512   2.455   5.442 -0.3990 -0.0832  0.1766
 1641W        W 2738   1.014   4.398   6.447 -0.0625  0.0396 -0.0151
 1642W        W 2739   2.780   4.149   0.336 -0.0175 -0.4167  0.1656
 1643W        W 2740   2.376   6.245   1.822 -0.0846 -0.4141  0.4686
 1644W        W 2741   6.547   3.055   0.427  0.0510  0.0901 -0.1662
 1645W        W 2742   0.124   6.082   0.600 -0.1291  0.3806  0.1397
 1646W        W 2743   4.335   5.600   7.084  0.1005  0.0674 -0.0037
 1647W        W 2744   0.792   2.212   7.277  0.1984  0.3194 -0.1774
 1648W        W 2745   5.069   0.405   1.074  0.2400  0.1812  0.0771
 1649W        W 2746   5.864   2.078   5.197  0.0526  0.1344 -0.0275
 1650W        W 2747   1.248   3.771   3.182 -0.3350  0.2152  0.0132
 1651W        W 2748   4.819   3.365   0.885  0.1337  0.2511 -0.0865
 1652W        W 2749   4.234   4.551   7.472  0.0530 -0.3070  0.1748
 1653W        W 2750   6.599   2.350   1.700  0.1673 -0.1295  0.0249
 1654W        W 2751   3.337   7.537   4.640  0.0620  0.1330  0.2913
 1655W        W 2752   2.121   6.344   0.816 -0.0746 -0.0774  0.1513
 1656W        W 2753   0.093   4.344   7.469 -0.1785  0.1948 -0.2288
 1657W        W 2754   3.014   5.353   3.484 -0.1052 -0.0287  0.0843
 1658W        W 2755   2.612   5.818   1.899 -0.1289  0.1700  0.1249
 1659W        W 2756   1.044   0.178   3.879 -0.3917 -0.1356 -0.0845
 1660W        W 2757   6.913   2.852   4.614  0.4648  0.2543  0.0025
 1661W        W 2758   5.945   7.222   7.080  0.3088 -0.0691  0.1370
 1662W        W 2759   2.093   4.707   0.782 -0.1111 -0.3976  0.2613
 1663W        W 2760   7.015   7.408   1.759 -0.2876 -0.0154  0.0217
 1664W        W 2761   6.306   1.923   2.128 -0.1149 -0.1205  0.0108
 1665W        W 2762   4.386   7.393   0.383 -0.0167 -0.3148 -0.1613
 1666W        W 2763   0.221   2.627   3.475  0.2578 -0.0764  0.2757
 1667W        W 2764   3.563   6.608   2.911 -0.2973  0.0880  0.1725
 1668W        W 2765   6.395   5.111   6.864  0.1401  0.1234  0.2479
 1669W        W 2766   2.676   6.785   2.610 -0.1633  0.2050  0.1324
 1670W        W 2767   6.863   0.858   6.181 -0.2931  0.3474  0.2263
 1671W        W 2768   6.992   6.415   4.464  0.2319 -0.0604  0.0026
 1672W        W 2769   5.294   4.257   6.428  0.0063 -0.0441  0.0963
 1673W        W 2770   0.623   6.226   4.239  0.1497 -0.0418  0.1674
 1674W        W 2771   6.124   3.833   4.934 -0.0549  0.0160 -0.0120
 1675W        W 2772   2.082   6.357   3.941 -0.1558  0.0064  0.1125
 1676W        W 2773   0.406   5.344   5.674 -0.1232 -0.3585 -0.0380
 1677W        W 2774   3.265   0.508   3.994 -0.2132 -0.0184  0.1395
 1678W        W 2775   5.252   3.043   2.832 -0.1080 -0.1798  0.1801
 1679W        W 2776   7.306   4.293   6.791 -0.3598 -0.0866 -0.2433
 1680W        W 2777   0.025   3.498   0.237 -0.1663  0.0444  0.0178
 1681W        W 2778   5.183   2.829   7.169  0.0005  0.1081 -0.1016
 1682W        W 2779   1.045   5.048   6.618  0.0997 -0.0777 -0.2320
 1683W        W 2780   2.460   5.415   2.354 -0.0486  0.2159  0.2833
 1684W        W 2781   0.641   1.617   1.161  0.2436 -0.0170  0.1329
 1685W        W 2782   5.548   4.867   2.032 -0.1309  0.2449 -0.1926
 1686W        W 2783   5.310   6.617   3.588  0.2284  0.3822  0.0581
 1687W        W 2784   3.504   6.342   0.878 -0.0788 -0.1044  0.0721
 1688W        W 2785   1.162   5.162   0.003  0.1950  0.1163  0.2239
 1689W        W 2786   0.616   4.098   6.369  0.3728 -0.0606 -0.0965
 1690W        W 2787   1.781   2.587   1.606  0.0529  0.0046  0.2264
 1691W        W 2788   6.801   0.173   2.806  0.2835 -0.1454 -0.1012
 1692W        W 2789   1.641   7.612   1.208 -0.2038  0.0482 -0.1199
 1693W        W 2790   7.055   3.065   5.621  0.0888  0.2978  0.1135
 1694W        W 2791   0.439   6.916   5.377  0.0987  0.4636  0.1743
 1695W        W 2792   0.241   2.679   2.618 -0.2147 -0.1880 -0.3180
 1696W        W 2793   6.767   0.694   2.006 -0.1653  0.1773  0.2941
 1697W        W 2794   2.840   7.012   1.327  0.0213 -0.3612  0.0195
 1698W        W 2795   6.504   6.374   1.181  0.2187  0.0187  0.5478
 1699W        W 2796   0.116   0.842   6.240 -0.5424  0.0258  0.2614
 1700W        W 2797   7.551   6.039   6.935 -0.1164  0.1576 -0.1454
 1701W        W 2798   1.241   6.750   5.263 -0.2378  0.1532 -0.2941
 1702W        W 2799   1.988   4.020   5.189 -0.1197  0.0593 -0.0336
 1703W        W 2800   6.911   0.718   2.447 -0.1737  0.1248  0.0454
 1704W        W 2801   4.936   1.161   0.760  0.0845 -0.0413  0.0706
 1705W        W 2802   4.776   2.858   1.533 -0.2178  0.0139  0.2278
 1706W        W 2803   4.535   0.740   4.666  0.1511 -0.1622 -0.1746
 1707W        W 2804   1.631   3.750   0.199 -0.3113  0.0023 -0.2713
 1708W        W 2805   1.750   6.534   1.042  0.2263  0.0483  0.0683
 1709W        W 2806   4.661   1.590   3.042 -0.1013 -0.3499 -0.0725
 1710W        W 2807   0.632   3.237   0.873  0.3277 -0.1539 -0.0613
 1711W        W 2808   4.546   0.051   3.223 -0.2066  0.2160  0.2715
 1712W        W 2809   3.721   4.839   6.511  0.0430  0.1288 -0.0172
 1713W        W 2810   0.391   0.262   2.223 -0.0115 -0.0542  0.0594
 1714W        W 2811   2.844   5.618   6.372 -0.2718  0.0459  0.1088
 1715W        W 2812   1.578   0.020   3.077 -0.2083 -0.3028  0.1834
 1716W        W 2813   3.228   4.357   5.853  0.1542  0.1310  0.2181
 1717W        W 2814   7.326   1.970   3.181  0.0988 -0.2238  0.0651
 1718W        W 2815   1.279   3.378   5.924  0.0426  0.0703  0.2108
 1719W        W 2816   2.006   3.990   7.342  0.0201  0.4051 -0.4652
 1720W        W 2817   2.445   1.944   3.023  0.1503  0.1910 -0.0565
 1721W        W 2818   0.033   4.505   1.509  0.1874 -0.0261  0.1532
 1722W        W 2819   1.943   1.074   1.814 -0.2207  0.2426 -0.0164
 1723W        W 2820   0.610   0.815   6.477  0.0072 -0.0770  0.1798
 1724W        W 2821   2.640   0.716   3.769  0.2605 -0.0463  0.0146
 1725W        W 2822   4.062   3.592   3.928 -0.0574  0.1549  0.0673
 1726W        W 2823   4.051   3.312   4.323  0.0527 -0.0345  0.0064
 1727W        W 2824   5.917   4.064   7.220 -0.0765  0.3042 -0.1245
 1728W        W 2825   7.599   5.524   7.025 -0.0864 -0.1106  0.1514
 1729W        W 2826   6.865   3.027   7.630 -0.1405  0.0998 -0.1689
 1730W        W 2827   4.242   3.840   0.810 -0.0061 -0.1519 -0.2618
 1731W        W 2828   5.993   1.503   0.366  0.0402 -0.2279 -0.1141
 1732W        W 2829   1.780   6.642   2.609  0.1855 -0.1098 -0.2443
 1733W        W 2830   7.523   4.363   4.600  0.0578  0.0469  0.3510
 1734W        W 2831   6.799   4.919   5.057  0.2301  0.1606  0.0314
 1735W        W 2832   0.972   6.350   6.452 -0.1663 -0.0637  0.1031
 1736W        W 2833   6.821   2.489   7.281  0.0805  0.0439  0.0168
 1737W        W 2834   1.874   0.466   1.114 -0.2290  0.0084  0.3075
 1738W        W 2835   5.798   1.240   1.462  0.1855 -0.0423 -0.0675
 1739W        W 2836   1.582   3.851   6.214  0.0925 -0.0170 -0.2182
 1740W        W 2837   1.327   4.677   0.912  0.1166  0.3251 -0.0121
 1741W        W 2838   1.511   1.266   1.176  0.2747  0.0706  0.1370
 1742W        W 2839   1.561   6.285   4.740  0.2933 -0.1955 -0.3468
 1743W        W 2840   0.242   1.304   6.009 -0.1503  0.0573 -0.0355
 1744W        W 2841   0.698   5.971   5.856 -0.1736 -0.1129  0.3231
 1745W        W 2842   1.075   1.547   2.439  0.0432 -0.2581 -0.0425
 1746W        W 2843   4.046   6.126   7.032 -0.1830 -0.2951 -0.2237
 1747W        W 2844   1.693   6.232   0.626  0.2801 -0.2595 -0.1737
 1748W        W 2845   7.468   2.326   3.616 -0.0538  0.0493 -0.3811
 1749W        W 2846   7.165   1.654   1.641  0.1402 -0.1982 -0.1753
 1750W        W 2847   0.940   6.871   7.456  0.3441  0.2736  0.1820
 1751W        W 2848   5.363   4.114   1.211  0.0043  0.3660 -0.2092
 1752W        W 2849   0.922   2.343   3.793  0.0385 -0.3577 -0.1893
 1753W        W 2850   0.650   2.946   5.565 -0.0258  0.1309 -0.0822
 1754W        W 2851   7.581   2.086   7.392 -0.0139 -0.1734  0.2524
 1755W        W 2852   1.564   7.293   3.968  0.3146  0.1001 -0.1542
 1756W        W 2853   3.000   5.316   2.982 -0.1036  0.0787  0.0453
 1757W        W 2854   4.723   7.306   0.799 -0.2407 -0.2896  0.2743
 1758W        W 2855   1.480   4.853   5.791  0.0677 -0.1894 -0.0336
 1759W        W 2856   4.989   0.999   0.204  0.1799 -0.3035 -0.3249
 1760W        W 2857   0.742   4.020   6.879  0.0244 -0.2356  0.3174
 1761W        W 2858   7.245   2.618   5.351 -0.2579  0.1206  0.1944
 1762W        W 2859   1.395   1.999   0.646  0.1120  0.1726 -0.2597
 1763W        W 2860   3.920   2.261   3.009 -0.0791 -0.2838  0.2174
 1764W        W 2861   4.771   0.026   0.241 -0.0635  0.0591 -0.2215
 1765W        W 2862   6.514   6.267   6.105 -0.2514  0.2483  0.2873
 1766W        W 2863   6.115   0.010   0.103 -0.1249  0.0008 -0.0546
 1767W        W 2864   5.808   1.710   1.649 -0.0869 -0.0165 -0.0674
 1768W        W 2865   5.351   0.562   3.644 -0.2026 -0.0608  0.0530
 1769W        W 2866   1.904   6.532   0.270  0.1573 -0.1717 -0.1729
 1770W        W 2867   2.782   3.351   4.551  0.0504 -0.2756 -0.0028
 1771W        W 2868   3.252   4.833   1.739  0.1011 -0.5034  0.2998
 1772W        W 2869   3.323   3.400   4.576 -0.0766 -0.2246 -0.1084
 1773W        W 2870   6.464   2.608   3.384  0.2225 -0.1157 -0.2621
 1774W        W 2871   0.600   4.463   0.360 -0.1554  0.0395  0.1121
 1775W        W 2872   7.436   3.078   6.081  0.3661  0.1028  0.1884
 1776W        W 2873   2.365   0.960   5.349 -0.0666  0.1518 -0.0233
 1777W        W 2874   5.797   3.299   0.700  0.0201  0.1873  0.2083
 1778W        W 2875   2.863   3.955   6.142 -0.2987 -0.0239 -0.0272
 1779W        W 2876   5.836   7.537   1.113 -0.1646 -0.0591 -0.0674
 1780W        W 2877   2.903   5.217   1.656 -0.2985  0.1804  0.1825
 1781W        W 2878   1.539   1.481   2.608 -0.2063 -0.0528  0.1078
 1782W        W 2879   2.153   6.712   7.519  0.2759  0.0590 -0.3211
 1783W        W 2880   5.758   6.072   1.969  0.2238  0.2475 -0.3459
 1784W        W 2881   1.894   2.196   3.686 -0.0644  0.1606 -0.1016
 1785W        W 2882   3.281   4.655   0.157  0.1111  0.0400  0.0759
 1786W        W 2883   4.024   5.192   1.040 -0.1323  0.0158 -0.0872
 1787W        W 2884   7.450   2.931   0.804  0.0538  0.0890  0.1867
 1788W        W 2885   4.371   6.497   0.541 -0.0758  0.0465  0.0155
 1789W        W 2886   2.673   6.709   3.498 -0.0409  0.1510  0.1795
 1790W        W 2887   2.426   4.316   4.980  0.2485  0.0044 -0.1602
 1791W        W 2888   5.777   6.296   7.398 -0.2925  0.0481 -0.0732
 1792W        W 2889   3.454   6.311   1.595  0.0030  0.0328  0.2562
 1793W        W 2890   4.826   0.101   2.771  0.0419  0.1253  0.1598
 1794W        W 2891   2.166   4.574   0.263  0.3270 -0.2587  0.1948
 1795W        W 2892   5.546   3.164   2.381 -0.0661 -0.4108 -0.1002
 1796W        W 2893   5.917   6.587   2.932 -0.0104  0.2473  0.2004
 1797W        W 2894   5.265   7.157   6.332  0.0009 -0.1788  0.1818
 1798W        W 2895   5.529   7.142   2.296 -0.2682  0.0438  0.1604
 1799W        W 2896   6.999   1.147   1.631  0.1952  0.3260  0.2068
 1800W        W 2897   4.177   4.993   1.694  0.0327 -0.0978 -0.0761
 1801W        W 2898   7.377   1.457   2.082  0.1628 -0.1287  0.1049
 1802W        W 2899   2.720   5.160   4.071  0.3860 -0.2827 -0.0726
 1803W        W 2900   7.590   1.574   7.500  0.0539  0.2904 -0.0472
 1804W        W 2901   6.193   1.834   3.692  0.0558 -0.0493 -0.0202
 1805W        W 2902   1.311   6.974   0.266 -0.3301  0.1419  0.3490
 1806W        W 2903   4.979   4.804   2.043 -0.1131  0.1078  0.2641
 1807W        W 2904   6.238   3.961   4.469  0.0150  0.0914  0.1579
 1808W        W 2905   4.903   5.427   1.244 -0.2434 -0.2482  0.3631
 1809W        W 2906   3.256   5.395   6.184  0.0810  0.2637  0.0197
 1810W        W 2907   1.528   7.592   5.077  0.2015 -0.1960  0.4645
 1811W        W 2908   2.020   4.208   6.452 -0.0200 -0.1790 -0.2605
 1812W        W 2909   2.402   0.791   1.699  0.1204 -0.2997  0.4315
 1813W        W 2910   7.174   1.797   2.580  0.1535  0.0210 -0.0459
 1814W        W 2911   3.345   1.012   5.991 -0.1392 -0.1148  0.2157
 1815W        W 2912   0.651   0.304   2.628 -0.0474  0.0865 -0.0689
 1816W        W 2913   7.557   1.989   0.789 -0.1475 -0.1436  0.0729
 1817W        W 2914   4.750   0.649   3.864 -0.0314 -0.0959 -0.1253
 1818W        W 2915   2.553   0.743   6.588  0.0471 -0.0466  0.0134
 1819W        W 2916   6.217   2.922   6.361  0.1408  0.1379  0.2378
 1820W        W 2917   6.835   6.959   1.650 -0.2677  0.0396  0.0259
 1821W        W 2918   1.154   0.914   6.438 -0.0040  0.1082 -0.1390
 1822W        W 2919   2.691   3.276   3.565 -0.0110 -0.1043  0.3174
 1823W        W 2920   3.962   1.127   3.799 -0.0787 -0.2349 -0.4291
 1824W        W 2921   3.746   0.683   4.067 -0.0251  0.2362  0.1482
 1825W        W 2922   0.727   3.715   2.627  0.2800  0.0707  0.3300
 1826W        W 2923   2.138   4.867   1.932 -0.0220  0.1066  0.2415
 1827W        W 2924   0.425   5.735   6.815  0.1160 -0.2613  0.1038
 1828W        W 2925   1.043   0.187   2.887 -0.1080  0.3856  0.0272
 1829W        W 2926   2.897   4.156   5.188 -0.1851 -0.2920  0.4906
 1830W        W 2927   1.774   3.983   6.863  0.0806  0.1267 -0.0018
 1831W        W 2928   3.563   4.547   1.404 -0.5194  0.0605 -0.0701
 1832W        W 2929   2.373   0.025   7.092 -0.1034  0.2547  0.2974
 1833W        W 2930   1.880   5.354   1.769 -0.0934 -0.4031 -0.3521
 1834W        W 2931   6.168   3.205   5.935  0.1426  0.0647  0.2101
 1835W        W 2932   2.106   6.038   0.344 -0.0562  0.2117 -0.4082
 1836W        W 2933   0.404   3.982   0.202 -0.1039 -0.2412  0.2974
 1837W        W 2934   3.122   1.766   1.888  0.2077  0.0581  0.1549
 1838W        W 2935   7.240   4.020   6.359 -0.0521  0.1121 -0.0659
 1839W        W 2936   3.095   6.131   7.223 -0.0452 -0.2961  0.0122
 1840W        W 2937   6.318   1.788   4.814  0.0565 -0.0043  0.0701
 1841W        W 2938   2.825   0.668   5.318  0.1014  0.1699 -0.1562
 1842W        W 2939   1.364   2.928   0.545  0.0687  0.2528  0.0506
 1843W        W 2940   2.281   7.150   1.453 -0.2953  0.1217  0.3289
 1844W        W 2941   7.147   1.741   5.931  0.2264 -0.0596 -0.0113
 1845W        W 2942   2.254   0.611   4.506  0.0436 -0.1126 -0.0077
 1846W        W 2943   6.287   6.525   6.979 -0.0994  0.0262 -0.0065
 1847W        W 2944   2.848   4.638   5.945 -0.3763 -0.0845 -0.1206
 1848W        W 2945   2.044   7.390   2.301 -0.3276  0.1631  0.0272
 1849W        W 2946   3.962   0.666   3.599  0.1750  0.0742 -0.2240
 1850W        W 2947   2.129   3.997   4.727 -0.1841 -0.1295  0.2773
 1851W        W 2948   0.123   3.059   4.134  0.0032  0.2166 -0.0101
 1852W        W 2949   3.309   0.938   2.057 -0.2872  0.2273 -0.0792
 1853W        W 2950   5.196   4.623   6.770 -0.1371 -0.0061  0.0406
 1854W        W 2951   7.316   3.212   6.594 -0.3325  0.1292 -0.1976
 1855W        W 2952   5.672   0.725   1.730  0.2791  0.3500  0.0315
 1856W        W 2953   1.070   2.517   5.659 -0.1592  0.0149  0.1771
 1857W        W 2954   2.249   7.327   4.301 -0.0323  0.4487 -0.0652
 1858W        W 2955   6.873   1.961   4.946 -0.2387  0.2006  0.0547
 1859W        W 2956   2.398   0.373   2.912 -0.2232 -0.0429  0.0045
 1860W        W 2957   0.748   1.014   5.503 -0.0991 -0.1555 -0.0940
 1861W        W 2958   1.963   6.044   2.289 -0.0591  0.1331 -0.1013
 1862W        W 2959   0.101   4.522   2.925  0.2866  0.1259  0.1198
 1863W        W 2960   3.576   2.000   2.753 -0.1036  0.1622 -0.0312
 1864W        W 2961   4.571   4.607   1.871 -0.3266 -0.0709 -0.0250
 1865W        W 2962   4.030   5.334   2.897  0.1366 -0.3082  0.2016
 1866W        W 2963   6.398   2.873   3.834 -0.0350  0.0385 -0.0471
 1867W        W 2964   1.645   1.671   4.644 -0.1264 -0.3920 -0.2196
 1868W        W 2965   6.434   2.891   1.364  0.0577 -0.0883  0.3403
 1869W        W 2966   0.128   0.997   1.674  0.1066  0.2255 -0.1098
 1870W        W 2967   5.891   5.300   6.932  0.1066  0.2888  0.0866
 1871W        W 2968   5.163   3.443   3.771 -0.0062 -0.0216  0.1323
 1872W        W 2969   6.397   0.574   3.347 -0.0956 -0.1473  0.0962
 1873W        W 2970   7.459   0.784   7.567 -0.0094  0.2395  0.1350
 1874W        W 2971   7.169   6.078   4.829  0.1914  0.0266 -0.1353
 1875W        W 2972   0.747   0.170   1.521 -0.1526 -0.1340  0.3950
 1876W        W 2973   3.526   6.835   3.750  0.1572 -0.1210 -0.1561
 1877W        W 2974   4.696   0.566   1.531 -0.1971  0.1618 -0.1804
 1878W        W 2975   5.635   2.994   5.137  0.3319  0.1286  0.3066
 1879W        W 2976   7.479   4.275   5.154  0.0134  0.2455  0.1194
 1880W        W 2977   3.482   5.089   2.149  0.0288  0.3148  0.1580
 1881W        W 2978   4.387   5.645   1.842  0.0539  0.2650 -0.2495
 1882W        W 2979   5.902   2.578   3.135 -0.5232  0.2307 -0.1257
 1883W        W 2980   1.190   0.781   2.100  0.1160 -0.0832 -0.2990
 1884W        W 2981   7.607   3.039   5.088  0.2367  0.0785 -0.0518
 1885W        W 2982   6.139   0.569   0.353 -0.2223 -0.1728  0.3017
 1886W        W 2983   5.636   0.456   7.367 -0.1453 -0.0745 -0.0010
 1887W        W 2984   7.024   5.102   4.709  0.1970 -0.1409 -0.0567
 1888W        W 2985   2.273   4.244   2.236  0.0199 -0.2838 -0.1636
 1889W        W 2986   6.976   1.705   7.538  0.3523  0.0667 -0.3719
 1890W        W 2987   3.103   7.554   1.280  0.2844 -0.2818  0.1037
 1891W        W 2988   1.701   7.544   3.530 -0.2084  0.0452  0.1104
 1892W        W 2989   5.690   7.010   0.940 -0.0213  0.0033 -0.1935
 1893W        W 2990   0.496   2.601   3.048 -0.0664  0.0890  0.2753
 1894W        W 2991   4.865   3.579   6.808 -0.0295 -0.0056  0.1572
 1895W        W 2992   4.727   3.016   6.937 -0.1572  0.0813  0.2643
 1896W        W 2993   4.735   3.299   0.288  0.2938  0.0792 -0.1384
 1897W        W 2994   0.768   3.505   1.281  0.1037  0.0066  0.0045
 1898W        W 2995   4.327   3.420   1.040  0.0458 -0.2254 -0.0020
 1899W        W 2996   5.601   7.195   5.971  0.2728 -0.1363 -0.2752
 1900W        W 2997   1.618   6.782   4.843  0.0935  0.0474 -0.0896
 1901W        W 2998   1.586   4.098   3.444  0.0512 -0.1562  0.0761
 1902W        W 2999   0.846   4.938   7.102 -0.2218 -0.5833  0.2664
 1903W        W 3000   7.555   5.050   0.814  0.2308 -0.1872  0.0981
 1904W        W 3001   4.305   3.549   2.720  0.0917  0.2003 -0.0951
 1905W        W 3002   1.392   7.536   6.525 -0.0449  0.0061 -0.1146
 1906W        W 3003   7.440   6.262   0.309  0.0621 -0.1695 -0.1545
 1907W        W 3004   6.828   1.963   6.372  0.0969 -0.3466 -0.2424
 1908W        W 3005   5.913   4.506   1.863  0.2642  0.3139 -0.0213
 1909W        W 3006   0.543   0.462   0.002 -0.0523 -0.3886  0.3494
 1910W        W 3007   1.436   3.520   2.009  0.0063 -0.4215 -0.1394
 1911W        W 3008   2.116   5.054   6.600 -0.2137 -0.0114  0.1016
 1912W        W 3009   1.951   1.485   4.002  0.2380 -0.4807  0.2957
 1913W        W 3010   5.167   7.180   6.846  0.2457  0.1030 -0.0253
 1914W        W 3011   5.011   1.449   4.156 -0.1029 -0.0904 -0.1271
 1915W        W 3012   3.376   1.487   4.394 -0.1282  0.2061  0.0372
 1916W        W 3013   2.896   1.840   2.896  0.2045 -0.2928  0.2704
 1917W        W 3014   0.372   1.946   7.199  0.0381 -0.0606  0.3576
 1918W        W 3015   0.530   2.757   6.359 -0.1554 -0.0831 -0.0262
 1919W        W 3016   4.164   0.639   2.398 -0.1228 -0.2735  0.0755
 1920W        W 3017   1.945   2.104   5.637 -0.2367 -0.0536 -0.1319
 1921W        W 3018   6.844   3.909   2.145  0.0352 -0.1097  0.3995
 1922W        W 3019   2.429   3.612   4.351 -0.1781  0.3290  0.1050
 1923W        W 3020   3.437   5.386   5.204  0.0553 -0.1023  0.0289
 1924W        W 3021   3.007   0.014   0.344  0.5155  0.0184  0.0803
 1925W        W 3022   6.077   0.070   3.182  0.1393 -0.0609  0.1448
 1926W        W 3023   3.255   5.960   2.591  0.0862  0.1873 -0.2248
 1927W        W 3024   5.993   0.827   1.310  0.0208  0.0601 -0.2989
 1928W        W 3025   1.619   5.116   0.822  0.3050 -0.2444  0.1855
 1929W        W 3026   1.037   6.807   6.133 -0.0103 -0.2077 -0.2134
 1930W        W 3027   6.212   1.466   1.836  0.0418 -0.0381  0.1325
 1931W        W 3028   7.522   0.336   1.279  0.2190 -0.2789  0.0158
 1932W        W 3029   5.330   6.109   7.506 -0.0185  0.2422 -0.1949
 1933W        W 3030   7.198   4.835   1.308  0.2253 -0.0427 -0.0703
 1934W        W 3031   6.652   2.420   2.768 -0.1636 -0.2545 -0.3883
 1935W        W 3032   5.819   2.038   0.634 -0.2373 -0.0163 -0.1257
 1936W        W 3033   0.477   0.449   6.091 -0.0401 -0.1023  0.1682
 1937W        W 3034   3.912   3.524   0.560  0.0848 -0.2422 -0.1119
 1938W        W 3035   4.428   6.419   0.062  0.1583 -0.1831  0.0421
 1939W        W 3036   2.775   7.573   1.689 -0.1069 -0.1701 -0.0207
 1940W        W 3037   2.119   7.280   5.419  0.1745  0.1194 -0.2862
 1941W        W 3038   1.454   5.620   3.718 -0.0100  0.3353  0.1933
 1942W        W 3039   4.509   0.123   1.296 -0.0701  0.0731 -0.2637
 1943W        W 3040   2.532   1.528   2.684 -0.1455 -0.1922 -0.1878
 1944W        W 3041   0.916   5.118   5.498 -0.2213  0.1733  0.1795
 1945W        W 3042   6.424   7.149   6.848  0.0029 -0.0006 -0.2268
 1946W        W 3043   2.012   0.448   3.350 -0.0229 -0.0499 -0.0246
 1947W        W 3044   0.146   0.427   5.685  0.1540 -0.0133  0.0226
 1948W        W 3045   3.227   2.921   4.229  0.2074 -0.0400 -0.0596
 1949W        W 3046   4.555   1.080   1.029 -0.2693  0.3630 -0.2207
 1950W        W 3047   5.360   5.039   0.957  0.1360  0.0286 -0.1596
 1951W        W 3048   6.525   6.086   7.168 -0.2527  0.2791  0.0715
 1952W        W 3049   7.203   2.125   1.045 -0.0412 -0.1754 -0.3227
 1953W        W 3050   3.515   1.618   3.831 -0.1252 -0.0202 -0.1551
 1954W        W 3051   6.854   5.632   7.086 -0.1201 -0.1115 -0.0456
 1955W        W 3052   2.970   5.910   2.227 -0.1257  0.0733 -0.1379
 1956W        W 3053   4.088   0.892   1.932 -0.0914 -0.2055  0.0984
 1957W        W 3054   1.747   3.565   2.457  0.0641 -0.1371 -0.0012
 1958W        W 3055   5.308   3.372   6.402 -0.2266 -0.0330 -0.0209
 1959W        W 3056   7.513   7.326   2.615 -0.1266  0.1105  0.1610
 1960W        W 3057   6.861   2.790   3.010  0.3379  0.1285 -0.3933
 1961W        W 3058   0.736   1.261   2.870  0.3831  0.2252 -0.0686
 1962W        W 3059   2.118   4.841   3.644 -0.0706 -0.0957 -0.2530
 1963W        W 3060   7.439   1.939   4.594  0.3193  0.1066  0.0359
 1964W        W 3061   2.093   1.607   4.911 -0.1192 -0.2098  0.2432
 1965W        W 3062   6.060   6.110   5.926  0.3291 -0.1102 -0.0929
 1966W        W 3063   0.466   1.469   7.410 -0.1851  0.3435 -0.0617
 1967W        W 3064   4.708   5.087   1.729  0.2046  0.2271  0.0760
 1968W        W 3065   2.977   2.892   3.793  0.0370  0.3611  0.0283
 1969W        W 3066   6.708   6.147   4.901 -0.0490 -0.1253  0.0493
 1970W        W 3067   0.479   1.911   5.924 -0.2637 -0.0919  0.1879
 1971W        W 3068   6.749   4.993   5.653 -0.1734 -0.0258  0.0295
 1972W        W 3069   0.139   0.974   6.779 -0.0282 -0.0644  0.0558
 1973W        W 3070   0.079   3.193   3.600 -0.0491 -0.0188 -0.0329
 1974W        W 3071   3.693   5.286   6.321  0.1391  0.0430  0.3879
 1975W        W 3072   7.018   6.928   4.514  0.1489  0.0194 -0.4245
 1976W        W 3073   7.259   3.960   5.878  0.0669  0.1539 -0.0728
 1977W        W 3074   0.753   7.597   4.226 -0.3191  0.1868 -0.0291
 1978W        W 3075   4.866   5.632   1.707  0.0725  0.0508 -0.0532
 1979W        W 3076   4.101   3.966   2.494  0.0203  0.1361 -0.1644
 1980W        W 3077   3.625   7.039   7.368 -0.1657 -0.2667  0.1283
 1981W        W 3078   7.184   3.397   0.100 -0.0947  0.0401 -0.0384
 1982W        W 3079   2.986   6.734   0.434 -0.0157  0.1800 -0.0140
 1983W        W 3080   6.695   3.356   3.812 -0.0562  0.3116 -0.0987
 1984W        W 3081   5.934   2.465   4.880 -0.0453 -0.1199 -0.1072
 1985W        W 3082   5.640   3.221   1.725  0.0662 -0.2236  0.0814
 1986W        W 3083   3.510   0.050   4.233  0.1404  0.1822  0.5422
 1987W        W 3084   0.698   4.339   3.445  0.5517  0.2817 -0.1295
 1988W        W 3085   0.780   6.248   7.427 -0.1221  0.2022 -0.3639
 1989W        W 3086   3.208   0.085   5.822 -0.2400  0.2274 -0.0396
 1990W        W 3087   3.054   7.625   2.898  0.2368 -0.0885  0.0409
 1991W        W 3088   1.259   3.782   0.516 -0.2389  0.1265  0.1683
 1992W        W 3089   7.236   2.411   6.843 -0.0632  0.1443  0.0798
 1993W        W 3090   1.517   3.983   5.602 -0.0491  0.0972 -0.0834
 1994W        W 3091   3.219   4.134   4.017  0.1489 -0.1114  0.0060
 1995W        W 3092   6.617   0.531   5.888  0.1086 -0.1344 -0.3558
 1996W        W 3093   6.717   3.369   1.763  0.1602  0.1191  0.1302
 1997W        W 3094   3.374   4.056   3.523  0.1020 -0.2135  0.0087
 1998W        W 3095   5.337   4.047   1.913 -0.2857  0.1061 -0.1821
 1999W        W 3096   5.034   1.850   1.303 -0.1945  0.2764 -0.0623
 2000W        W 3097   4.516   5.191   2.949 -0.0479  0.1344  0.2782
 2001W        W 3098   7.255   0.260   7.371  0.2450 -0.0256  0.1416
 2002W        W 3099   2.581   7.589   0.080  0.1024  0.0092 -0.1252
 2003W        W 3100   3.733   5.342   0.655 -0.1181  0.0560  0.1313
 2004W        W 3101   1.617   4.271   0.021 -0.0416  0.2277  0.0949
 2005W        W 3102   5.112   1.251   2.230 -0.0515  0.0830  0.1968
 2006W        W 3103   2.537   4.015   1.903  0.0715 -0.0025  0.0433
 2007W        W 3104   4.664   4.382   3.802 -0.0712 -0.0778  0.0221
 2008W        W 3105   6.095   4.145   2.681  0.0004  0.1117 -0.2743
 2009W        W 3106   5.719   5.791   1.545  0.0406 -0.0788 -0.0781
 2010W        W 3107   7.264   1.191   5.395  0.0927 -0.1850  0.2714
 2011W        W 3108   6.535   1.653   4.389 -0.0530 -0.1900 -0.0638
 2012W        W 3109   1.137   0.475   2.504 -0.0774 -0.1665 -0.2340
 2013W        W 3110   2.956   0.457   7.553  0.3368  0.0050 -0.0995
 2014W        W 3111   5.203   6.248   0.624  0.1404 -0.3724  0.0623
 2015W        W 3112   5.918   4.770   6.915  0.2912 -0.0066 -0.0366
 2016W        W 3113   4.018   3.081   7.627  0.0210 -0.1279 -0.1105
 2017W        W 3114   1.388   3.694   6.929  0.1772 -0.1685 -0.0866
 2018W        W 3115   5.151   2.390   4.518 -0.0406 -0.1923 -0.3184
 2019W        W 3116   5.038   0.795   7.407  0.1089  0.1145  0.0408
 2020W        W 3117   7.112   6.905   0.842 -0.1544 -0.0218 -0.0714
 2021W        W 3118   6.936   7.457   5.479 -0.0663 -0.0710  0.3475
 2022W        W 3119   3.804   0.288   2.792 -0.3236 -0.1029 -0.1387
 2023W        W 3120   2.375   3.170   4.697 -0.1276 -0.3400 -0.3700
 2024W        W 3121   3.589   0.671   4.963  0.0489 -0.2145  0.1897
 2025W        W 3122   4.547   6.899   1.664  0.4978 -0.1991 -0.0306
 2026W        W 3123   4.589   4.689   3.378 -0.1207  0.1898 -0.1342
 2027W        W 3124   3.196   0.115   6.324 -0.0910  0.1232 -0.0987
 2028W        W 3125   7.409   0.907   2.668 -0.0660  0.0651 -0.0530
 2029W        W 3126   6.210   0.440   7.458  0.1228 -0.0859 -0.0826
 2030W        W 3127   1.545   2.722   1.215 -0.1444  0.1931 -0.0824
 2031W        W 3128   0.921   6.543   7.029  0.1427  0.1000  0.1672
 2032W        W 3129   5.739   3.831   6.288 -0.3308 -0.3496 -0.1110
 2033W        W 3130   5.333   2.966   3.794 -0.2359  0.2734 -0.1033
 2034W        W 3131   1.900   5.605   4.729  0.0782  0.1628 -0.0212
 2035W        W 3132   7.297   5.851   0.571  0.0433 -0.1433  0.1163
 2036W        W 3133   3.833   1.348   4.227  0.0721 -0.1023  0.1326
 2037W        W 3134   5.053   2.533   0.270 -0.0935 -0.1041  0.2171
 2038W        W 3135   4.917   0.324   3.463  0.0956  0.0690 -0.2830
 2039W        W 3136   0.982   1.083   1.064  0.1169  0.3085  0.1700
 2040W        W 3137   7.048   4.263   4.350  0.2642 -0.1526  0.1146
 2041W        W 3138   0.022   1.448   4.094  0.1562 -0.1557 -0.0142
 2042W        W 3139   3.506   0.457   4.461  0.1781  0.0701  0.0574
 2043W        W 3140   0.103   5.238   7.577  0.0434 -0.1252 -0.0252
 2044W        W 3141   6.870   3.009   1.054  0.2697  0.0460  0.0048
 2045W        W 3142   6.146   2.355   3.686 -0.0854  0.3370  0.3197
 2046W        W 3143   5.015   7.232   7.478 -0.0648  0.0768  0.0518
 2047W        W 3144   1.953   4.405   3.667 -0.3015  0.1635  0.1762
 2048W        W 3145   5.541   1.796   0.281 -0.0412  0.2682 -0.1449
 2049W        W 3146   6.253   2.411   0.519 -0.0276 -0.2005  0.2201
 2050W        W 3147   0.089   1.582   0.462  0.1387 -0.3725  0.2165
 2051W        W 3148   5.895   3.141   5.519 -0.0625  0.3752  0.2774
 2052W        W 3149   3.894   4.723   4.104  0.0099  0.1026 -0.1807
 2053W        W 3150   0.891   4.043   5.327  0.2237  0.1373  0.3789
 2054W        W 3151   7.111   0.147   1.456  0.0149  0.1899  0.3320
 2055W        W 3152   1.340   5.631   0.918  0.0077  0.1339 -0.0766
 2056W        W 3153   3.835   1.455   3.486 -0.0483  0.1060 -0.0582
 2057W        W 3154   2.265   0.374   6.008 -0.2699  0.0395 -0.2199
 2058W        W 3155   1.623   1.760   3.653  0.0714  0.3570 -0.2471
 2059W        W 3156   7.472   4.345   6.095 -0.0666 -0.0435  0.1184
 2060W        W 3157   6.856   3.791   2.851  0.0458 -0.0546 -0.0276
 2061W        W 3158   0.206   6.578   0.318 -0.2539 -0.3325 -0.1947
 2062W        W 3159   7.379   5.841   7.346  0.0030 -0.1139 -0.0971
 2063W        W 3160   6.596   0.607   4.287 -0.2621 -0.0847 -0.3621
 2064W        W 3161   4.851   6.347   7.391  0.0070  0.0828  0.1952
 2065W        W 3162   3.574   3.813   3.095  0.2827 -0.2498  0.2044
 2066W        W 3163   0.030   4.537   7.017  0.1305 -0.2453 -0.3416
 2067W        W 3164   0.894   0.125   5.902 -0.0713 -0.1580  0.0229
 2068W        W 3165   4.420   3.541   2.210  0.0681  0.1578  0.1860
 2069W        W 3166   0.671   2.378   3.433  0.0312  0.2690  0.1492
 2070W        W 3167   1.888   4.206   5.978 -0.0347 -0.1454  0.0652
 2071W        W 3168   0.650   1.124   7.017  0.2723  0.2905  0.1707
 2072W        W 3169   0.085   1.560   4.617  0.0385  0.1018 -0.1619
 2073W        W 3170   3.863   5.203   7.346 -0.0181 -0.1656  0.1633
 2074W        W 3171   0.972   3.627   7.286 -0.1374 -0.0547 -0.0367
 2075W        W 3172   1.083   3.903   1.383 -0.1171 -0.1796  0.0476
 2076W        W 3173   0.477   0.387   4.397 -0.1482  0.0492 -0.0742
 2077W        W 3174   3.547   3.080   3.111 -0.0723 -0.0292  0.0718
 2078W        W 3175   0.232   1.740   6.334  0.0578 -0.2207 -0.0306
 2079W        W 3176   6.421   3.468   4.685 -0.2852 -0.1976  0.2161
 2080W        W 3177   1.199   7.590   1.756 -0.1324  0.0890 -0.0933
 2081W        W 3178   3.192   0.914   3.082  0.2371 -0.3070 -0.1113
 2082W        W 3179   4.226   0.133   2.329 -0.1010 -0.0879  0.1332
 2083W        W 3180   6.798   4.632   4.638  0.1588  0.2280 -0.1242
 2084W        W 3181   2.625   0.032   5.169 -0.0691  0.0220  0.0325
 2085W        W 3182   6.700   0.300   5.434 -0.3450 -0.2309 -0.1452
 2086W        W 3183   3.152   3.575   6.438  0.0670 -0.0732 -0.2405
 2087W        W 3184   0.861   6.159   0.288 -0.0025 -0.4175 -0.0083
 2088W        W 3185   1.603   2.571   0.027  0.0513  0.4186  0.0601
 2089W        W 3186   5.643   2.781   2.022  0.0362  0.1776  0.0571
 2090W        W 3187   2.912   6.410   6.903 -0.0415 -0.0076  0.1261
 2091W        W 3188   6.111   5.643   1.779 -0.2025  0.0961  0.1144
 2092W        W 3189   0.524   3.577   3.427 -0.0793  0.2317 -0.0594
 2093W        W 3190   1.170   1.148   4.186 -0.4080  0.3516  0.4035
 2094W        W 3191   0.036   6.779   5.716 -0.0730  0.0395  0.4033
 2095W        W 3192   6.466   2.722   0.098 -0.1458  0.0507  0.3998
 2096W        W 3193   5.852   1.214   7.131 -0.0858 -0.1909 -0.2680
 2097W        W 3194   6.222   6.775   1.067  0.2502  0.0057  0.0742
 2098W        W 3195   0.277   7.475   3.961  0.0512 -0.2566 -0.0152
 2099W        W 3196   5.511   1.120   0.517 -0.1021  0.4989  0.1214
 2100W        W 3197   5.272   2.937   1.522 -0.0443  0.0926  0.1404
 2101W        W 3198   6.859   3.882   7.077  0.3437 -0.1465  0.1293
 2102W        W 3199   0.951   2.578   2.136  0.3725 -0.0366 -0.0962
 2103W        W 3200   2.566   7.052   3.914 -0.2255 -0.0613  0.0020
 2104W        W 3201   0.065   6.316   5.489 -0.0603 -0.0634  0.1555
 2105W        W 3202   6.536   4.915   4.349  0.1879 -0.1292  0.3511
 2106W        W 3203   0.826   4.474   4.372 -0.0170 -0.0578  0.0875
 2107W        W 3204   1.265   4.117   4.714  0.2768 -0.0965 -0.1928
 2108W        W 3205   7.370   7.483   5.246 -0.1334  0.1500 -0.0385
 2109W        W 3206   7.011   3.115   0.580  0.0492  0.1605  0.0267
 2110W        W 3207   7.389   1.348   1.285 -0.0969  0.0965  0.2308
 2111W        W 3208   7.393   3.987   7.173 -0.7283 -0.1042 -0.1167
 2112W        W 3209   4.138   0.465   1.490  0.0104 -0.0576 -0.1055
 2113W        W 3210   1.879   7.549   6.763  0.1415 -0.1774  0.0339
 2114W        W 3211   2.928   4.580   2.656  0.0101  0.4376  0.4798
 2115W        W 3212   2.480   5.121   5.719  0.1620  0.0197 -0.0013
 2116W        W 3213   0.119   2.896   4.634  0.0583 -0.0767 -0.2458
 2117W        W 3214   1.429   5.520   6.737 -0.0008 -0.3110  0.0927
 2118W        W 3215   7.314   5.386   3.511  0.2361  0.0383  0.1813
 2119W        W 3216   0.128   4.198   6.508 -0.2038 -0.2948 -0.2281
 2120W        W 3217   2.938   5.288   2.158  0.2476 -0.2027 -0.1381
 2121W        W 3218   6.811   5.024   6.559  0.0406  0.0789 -0.0950
 2122W        W 3219   2.356   0.241   6.579  0.0053 -0.3396  0.0414
 2123W        W 3220   6.599   1.147   2.017  0.1538  0.0039  0.1679
 2124W        W 3221   7.547   0.367   3.966  0.0442 -0.1539  0.0152
 2125W        W 3222   1.718   3.257   4.855 -0.0690 -0.2025  0.2305
 2126W        W 3223   5.928   5.751   1.023  0.1491 -0.0764  0.0340
 2127W        W 3224   1.887   4.630   4.174  0.0812 -0.2289 -0.2006
 2128W        W 3225   6.756   1.696   0.480 -0.0423  0.0215 -0.0339
 2129W        W 3226   5.509   2.620   6.799 -0.0489  0.2125  0.1114
 2130W        W 3227   1.343   0.375   6.011 -0.1175  0.2272  0.0294
 2131W        W 3228   6.860   3.321   3.067  0.0869 -0.0818 -0.2181
 2132W        W 3229   3.399   4.374   1.880  0.2064  0.1925 -0.1277
 2133W        W 3230   5.518   5.926   2.389  0.2287  0.0837 -0.0989
 2134W        W 3231   6.919   3.005   6.313 -0.1694  0.2000 -0.0300
 2135W        W 3232   2.867   4.213   3.547  0.1741 -0.1723 -0.1376
 2136W        W 3233   5.898   3.746   0.503  0.0487  0.1210 -0.1452
 2137W        W 3234   6.109   3.038   1.710  0.0925  0.0035 -0.2826
 2138W        W 3235   1.996   7.610   3.993  0.0532 -0.1398  0.0300
 2139W        W 3236   3.382   7.234   3.361  0.2852  0.2828 -0.1329
 2140W        W 3237   2.811   5.804   3.148 -0.1937 -0.0989 -0.0566
 2141W        W 3238   6.213   7.531   2.209  0.2590  0.1378 -0.0675
 2142W        W 3239   2.999   3.728   4.393 -0.0117 -0.2300 -0.1686
 2143W        W 3240   0.725   5.235   6.307  0.3703 -0.2657 -0.4312
 2144W        W 3241   6.689   1.306   5.320  0.1441 -0.1536 -0.0525
 2145W        W 3242   5.377   1.137   0.975  0.2995  0.0427  0.1500
 2146W        W 3243   6.223   2.940   3.111  0.1184  0.1851 -0.1442
 2147W        W 3244   4.377   5.546   4.562 -0.2550 -0.1115  0.2698
 2148W        W 3245   6.560   0.981   4.936 -0.0389 -0.1259 -0.2238
 2149W        W 3246   0.401   7.173   6.449 -0.1219 -0.0016 -0.2149
 2150W        W 3247   4.756   5.561   6.816 -0.0786  0.1081 -0.0189
 2151W        W 3248   3.609   5.142   5.664  0.1749  0.2768 -0.0700
 2152W        W 3249   1.790   5.272   5.635  0.2084 -0.2033 -0.0622
 2153W        W 3250   3.018   2.686   5.697  0.2189 -0.0633  0.0567
 2154W        W 3251   1.094   3.895   5.913  0.1306  0.0811 -0.4178
 2155W        W 3252   6.850   1.055   4.534 -0.1360 -0.1027  0.1915
 2156W        W 3253   0.997   0.083   6.793  0.1485 -0.0564  0.1787
 2157W        W 3254   1.718   3.789   4.606 -0.1617 -0.0089 -0.2842
 2158W        W 3255   6.982   3.479   4.885  0.1811 -0.0530 -0.2647
 2159W        W 3256   5.646   1.554   3.264 -0.2749 -0.2164 -0.2119
 2160W        W 3257   2.368   7.313   6.445 -0.0412  0.0199  0.0337
 2161W        W 3258   4.020   7.379   4.162  0.0883 -0.2074 -0.2183
 2162W        W 3259   6.333   4.220   7.078 -0.0982  0.2232 -0.0087
 2163W        W 3260   2.284   0.362   0.859  0.0916  0.0417  0.0422
 2164W        W 3261   5.635   1.270   0.033 -0.2826  0.0675 -0.1397
 2165W        W 3262   5.638   7.252   6.649  0.2911  0.2061 -0.1718
 2166W        W 3263   1.100   1.801   2.865  0.0462  0.1091  0.1741
 2167W        W 3264   2.673   3.524   3.010 -0.0361  0.2028 -0.0014
 2168W        W 3265   2.373   4.027   3.615 -0.2497 -0.0161  0.0601
 2169W        W 3266   1.444   6.840   2.913  0.0893 -0.2033  0.1597
 2170W        W 3267   7.479   3.902   4.118  0.0701  0.3251 -0.0214
 2171W        W 3268   6.185   1.362   0.842 -0.0930 -0.2392  0.0529
 2172W        W 3269   6.172   1.414   5.251  0.0592 -0.0477  0.2116
 2173W        W 3270   3.002   6.351   5.922 -0.0393  0.0943 -0.0558
 2174W        W 3271   0.438   5.038   5.279  0.1002  0.3000  0.5296
 2175W        W 3272   2.551   5.389   3.514  0.1379  0.2833 -0.1699
 2176W        W 3273   5.035   6.314   2.948  0.1921  0.1480  0.2839
 2177W        W 3274   6.826   2.003   4.196  0.1818  0.0410 -0.3065
 2178W        W 3275   1.616   0.943   0.806  0.1855 -0.1252 -0.3264
 2179W        W 3276   7.441   3.730   4.904  0.0798  0.0834 -0.3113
 2180W        W 3277   4.021   4.899   0.594 -0.0426 -0.0825  0.1255
 2181W        W 3278   3.338   5.922   0.578 -0.0271  0.1573  0.1478
 2182W        W 3279   3.555   5.811   1.578 -0.3216 -0.3562  0.1202
 2183W        W 3280   7.464   4.019   2.978 -0.2553 -0.3588 -0.0054
 2184W        W 3281   4.449   6.346   2.587  0.1518  0.1864  0.0028
 2185W        W 3282   1.957   0.406   6.811 -0.0025 -0.0927 -0.1784
 2186W        W 3283   3.239   2.931   4.775 -0.3410 -0.1911  0.1568
 2187W        W 3284   7.035   3.558   6.459  0.3121 -0.3029  0.0988
 2188W        W 3285   2.125   5.396   7.594 -0.3517  0.0579  0.1835
 2189W        W 3286   7.279   0.926   2.127  0.0034 -0.1417 -0.2114
 2190W        W 3287   1.514   4.469   2.602 -0.3660 -0.1098  0.4218
 2191W        W 3288   0.143   3.680   2.483  0.2677 -0.3033  0.1368
 2192W        W 3289   5.486   2.760   0.119 -0.0792 -0.0336 -0.0453
 2193W        W 3290   1.329   4.312   5.184  0.1985 -0.3066  0.2111
 2194W        W 3291   4.228   2.386   3.444  0.0336  0.0174  0.0116
 2195W        W 3292   5.484   3.158   7.396  0.0736  0.0978  0.1405
 2196W        W 3293   0.351   2.820   1.646  0.1041 -0.3449  0.4442
 2197W        W 3294   7.110   7.230   1.272 -0.0261  0.2075 -0.2039
 2198W        W 3295   4.904   5.905   0.939  0.1750 -0.1645 -0.2974
 2199W        W 3296   0.561   5.431   4.808  0.1571 -0.0927  0.0738
 2200W        W 3297   7.478   3.917   0.061  0.2141 -0.0234  0.0621
 2201W        W 3298   6.803   4.592   2.387  0.2763  0.0256 -0.0692
 2202W        W 3299   6.812   4.109   6.559 -0.0695  0.0713 -0.4688
 2203W        W 3300   6.032   2.916   2.320  0.2210  0.1435  0.0130
 2204W        W 3301   1.882   4.653   6.275  0.1506 -0.0362 -0.0321
 2205W        W 3302   4.259   6.932   0.276 -0.3497 -0.2654  0.2029
 2206W        W 3303   5.212   1.626   0.799 -0.5226 -0.1144 -0.0360
 2207W        W 3304   6.046   5.698   0.484 -0.3392  0.1755  0.1025
 2208W        W 3305   4.378   6.044   7.380 -0.1721 -0.0644  0.0382
 2209W        W 3306   7.527   1.194   3.581 -0.0113  0.0861  0.0194
 2210W        W 3307   0.378   6.110   7.156 -0.0292 -0.1331  0.1949
 2211W        W 3308   4.563   3.768   7.468  0.0710  0.1439  0.0496
 2212W        W 3309   4.331   2.905   6.342  0.0760 -0.4689  0.3112
 2213W        W 3310   2.695   6.637   4.721  0.1892  0.0492 -0.1039
 2214W        W 3311   5.435   0.213   1.747  0.1515  0.1030 -0.0331
 2215W        W 3312   0.478   3.512   7.586 -0.3118 -0.1179  0.0267
 2216W        W 3313   1.589   1.444   0.637  0.0720  0.0659 -0.0735
 2217W        W 3314   0.062   0.271   0.138  0.2237  0.1909 -0.0980
 2218W        W 3315   0.554   0.727   0.850 -0.1972 -0.4439 -0.0686
 2219W        W 3316   5.607   6.775   6.302 -0.3584 -0.1023  0.0101
 2220W        W 3317   7.614   5.305   5.984 -0.1321  0.1847  0.2081
 2221W        W 3318   5.934   2.955   0.055  0.1467  0.1117 -0.0891
 2222W        W 3319   0.099   0.942   3.089 -0.0509  0.1870  0.3106
 2223W        W 3320   6.699   4.232   7.416 -0.1833 -0.3322 -0.0257
 2224W        W 3321   3.358   1.515   6.626 -0.0219 -0.1833 -0.3243
 2225W        W 3322   6.174   5.441   6.527  0.1412  0.1959  0.2876
 2226W        W 3323   5.212   2.328   6.490  0.3649 -0.1483 -0.0802
 2227W        W 3324   4.594   2.872   4.326 -0.0014  0.0432  0.0514
 2228W        W 3325   0.532   3.594   2.164  0.4054 -0.3143  0.2308
 2229W        W 3326   1.203   3.608   5.471 -0.0344  0.0300 -0.1097
 2230W        W 3327   2.345   0.816   1.178  0.0444  0.3064 -0.2054
 2231W        W 3328   6.427   0.942   0.168 -0.3540 -0.0194 -0.0733
 2232W        W 3329   5.845   1.749   2.253  0.0733  0.2389 -0.0323
 2233W        W 3330   2.369   4.422   3.955  0.2402 -0.2068  0.0522
 2234W        W 3331   6.104   6.622   6.041 -0.0657  0.0574  0.1322
 2235W        W 3332   4.445   0.877   3.575  0.0566 -0.3356 -0.0564
 2236W        W 3333   0.089   1.192   2.331 -0.0084 -0.1518  0.1642
 2237W        W 3334   1.220   1.306   2.970  0.2471 -0.0543  0.1644
 2238W        W 3335   7.378   0.519   6.142  0.0620 -0.0584  0.0458
 2239W        W 3336   6.042   5.112   7.346  0.1821 -0.0176 -0.1055
 2240W        W 3337   0.068   4.551   2.003  0.0618  0.1492  0.1507
 2241W        W 3338   1.213   5.571   2.388 -0.0365  0.0741 -0.0586
 2242W        W 3339   6.169   2.560   2.717 -0.1776  0.0531  0.3804
 2243W        W 3340   5.542   5.780   6.013 -0.0208 -0.2915 -0.1059
 2244W        W 3341   0.731   4.642   5.234 -0.4085  0.1453  0.1119
 2245W        W 3342   3.779   2.046   3.833 -0.1164  0.3266 -0.0412
 2246W        W 3343   5.625   4.546   0.805 -0.0418  0.0702 -0.1061
 2247W        W 3344   4.318   5.028   7.563 -0.0799  0.0446  0.0779
 2248W        W 3345   4.651   1.998   3.409  0.2769  0.5436 -0.1360
 2249W        W 3346   0.976   3.470   6.792  0.2039  0.4224 -0.0622
 2250W        W 3347   4.900   4.897   1.190  0.0998 -0.1730  0.0868
 2251W        W 3348   1.836   0.379   4.874 -0.3492  0.0285  0.1914
 2252W        W 3349   6.786   2.088   2.375 -0.2892 -0.1511  0.1594
 2253W        W 3350   7.399   0.864   1.222 -0.0102 -0.1382 -0.0240
 2254W        W 3351   0.684   4.741   6.371  0.1609 -0.0497 -0.3649
 2255W        W 3352   0.565   5.287   1.516  0.0805  0.0656  0.0753
 2256W        W 3353   5.478   1.562   1.246  0.1719  0.1506 -0.0038
 2257W        W 3354   4.280   0.731   4.018 -0.1254 -0.1977 -0.1320
 2258W        W 3355   1.246   6.496   0.431  0.1311 -0.2366  0.1643
 2259W        W 3356   0.917   3.535   6.244 -0.0036 -0.0311  0.0484
 2260W        W 3357   6.875   2.195   5.950  0.0566 -0.5060  0.0041
 2261W        W 3358   0.548   0.612   1.799  0.3399 -0.0532  0.1603
 2262W        W 3359   4.459   4.709   0.843  0.0398  0.0003  0.3437
 2263W        W 3360   5.666   0.991   6.685  0.0170  0.0817  0.0967
 2264W        W 3361   1.214   1.305   5.417 -0.0902  0.0164 -0.0017
 2265W        W 3362   7.142   5.513   6.234  0.1106 -0.3623 -0.1598
 2266W        W 3363   2.522   0.285   4.225 -0.1562 -0.2163 -0.0848
 2267W        W 3364   6.657   7.582   5.900 -0.0668  0.5069  0.0110
 2268W        W 3365   3.748   5.629   3.908 -0.1450  0.0328  0.1839
 2269W        W 3366   2.956   4.960   0.768 -0.0293 -0.0863  0.2686
 2270W        W 3367   1.760   5.810   7.332 -0.1064 -0.2070  0.0809
 2271W        W 3368   5.321   1.689   2.282 -0.2246  0.0783 -0.2084
 2272W        W 3369   0.762   3.114   6.052  0.2459 -0.3253  0.0751
 2273W        W 3370   3.945   6.521   3.625  0.2322 -0.1311  0.0622
 2274W        W 3371   5.831   5.921   0.079 -0.0899 -0.1320  0.1395
 2275W        W 3372   3.976   5.560   1.542 -0.2088 -0.0729 -0.1349
 2276W        W 3373   5.460   5.148   7.212  0.1872  0.0867 -0.1393
 2277W        W 3374   6.089   1.770   5.610  0.2051 -0.0896  0.1064
 2278W        W 3375   2.651   3.973   4.011 -0.1472 -0.0392  0.0526
 2279W        W 3376   2.685   3.582   6.745  0.0802 -0.0118  0.0636
 2280W        W 3377   0.464   3.623   6.522 -0.1546 -0.0624  0.0252
 2281W        W 3378   0.635   7.144   4.099  0.0961  0.0882 -0.1156
 2282W        W 3379   4.877   4.210   1.976 -0.1082 -0.4196 -0.3702
 2283W        W 3380   1.753   1.357   3.078 -0.3210  0.0437  0.2670
 2284W        W 3381   1.551   6.746   7.049 -0.0210  0.5645 -0.1754
 2285W        W 3382   3.492   4.413   6.308 -0.0781  0.1195 -0.0480
 2286W        W 3383   6.361   7.417   7.319  0.3224 -0.3266  0.2676
 2287W        W 3384   1.194   3.100   1.101 -0.1419 -0.0760  0.3600
 2288W        W 3385   3.681   4.841   7.057 -0.0363  0.5644 -0.1941
 2289W        W 3386   3.716   1.959   3.393 -0.2521 -0.0475  0.2024
 2290W        W 3387   4.219   7.483   0.841  0.1752  0.1705 -0.0232
 2291W        W 3388   4.421   1.303   0.620  0.3414  0.0070 -0.0114
 2292W        W 3389   2.252   6.855   4.190 -0.1072 -0.0302  0.1798
 2293W        W 3390   2.052   1.732   2.867 -0.1472 -0.2667  0.3778
 2294W        W 3391   4.745   4.253   0.553  0.2229  0.1440 -0.3307
 2295W        W 3392   2.423   7.041   2.228 -0.0946  0.3741 -0.1758
 2296W        W 3393   0.189   0.736   0.275 -0.0295 -0.2635 -0.2728
 2297W        W 3394   2.771   2.808   4.582  0.1425 -0.1117 -0.0005
 2298W        W 3395   6.273   1.354   3.464  0.3115 -0.4098 -0.0992
 2299W        W 3396   2.176   3.994   4.134  0.2169  0.1152 -0.1873
 2300W        W 3397   4.638   2.445   1.748  0.1196  0.1852 -0.0349
 2301W        W 3398   5.782   1.522   3.803 -0.0944 -0.0518  0.1723
 2302W        W 3399   1.592   2.389   5.928 -0.0263  0.1961 -0.0408
 2303W        W 3400   2.425   4.789   7.087  0.0479  0.3357  0.4114
 2304W        W 3401   0.830   0.712   2.921 -0.2529  0.0892  0.0697
 2305W        W 3402   5.325   4.590   1.205  0.1145  0.2311 -0.1143
 2306W        W 3403   0.669   2.914   3.440  0.0307 -0.1748  0.0059
 2307W        W 3404   6.178   0.115   7.041  0.0136 -0.0269  0.0283
 2308W        W 3405   0.393   0.068   5.797  0.0885 -0.0456  0.1557
 2309W        W 3406   4.935   6.887   6.564 -0.3818  0.3602  0.1935
 2310W        W 3407   7.166   2.675   5.958  0.2376  0.0777 -0.2113
 2311W        W 3408   2.467   1.922   4.762  0.0529 -0.3935 -0.2426
 2312W        W 3409   6.151   6.336   6.448  0.0917 -0.1644 -0.1690
 2313W        W 3410   6.561   4.468   0.422 -0.0693  0.2672 -0.1541
 2314W        W 3411   2.809   4.071   2.641  0.1154  0.0373 -0.0463
 2315W        W 3412   5.196   0.209   0.476  0.2559  0.0639  0.0646
 2316W        W 3413   0.179   1.161   5.487  0.0639  0.5325 -0.1557
 2317W        W 3414   0.401   5.619   6.123  0.1784  0.0068 -0.1858
 2318W        W 3415   1.685   4.278   2.974 -0.2707  0.0794 -0.1256
 2319W        W 3416   1.759   5.722   6.023 -0.2679 -0.0245  0.0439
 2320W        W 3417   7.234   4.328   5.606  0.1102 -0.7247 -0.4483
 2321W        W 3418   6.639   2.176   0.216 -0.0247 -0.2189  0.2782
 2322W        W 3419   0.360   3.696   1.084  0.0084 -0.0412  0.0375
 2323W        W 3420   2.946   1.665   4.826  0.0382  0.1813 -0.2392
 2324W        W 3421   3.236   7.575   1.888 -0.1095 -0.0432 -0.2424
 2325W        W 3422   2.571   4.059   3.152  0.1554 -0.0389  0.0577
 2326W        W 3423   5.638   4.811   5.884  0.0691  0.2033  0.2417
 2327W        W 3424   4.842   0.480   4.389 -0.6401 -0.1075  0.1675
 2328W        W 3425   7.406   6.926   6.161  0.2594 -0.0337  0.2160
 2329W        W 3426   3.551   1.671   2.140  0.1490 -0.2412  0.0195
 2330W        W 3427   6.243   6.881   7.350 -0.4915 -0.1632 -0.0579
 2331W        W 3428   5.171   1.439   0.210  0.0448  0.0870 -0.0167
 2332W        W 3429   1.677   3.395   5.528 -0.0478 -0.1390  0.2993
 2333W        W 3430   5.423   4.230   7.502  0.0692 -0.1158 -0.0118
 2334W        W 3431   7.092   7.174   6.928  0.1098 -0.2119 -0.0758
 2335W        W 3432   0.924   1.631   4.459 -0.0155 -0.2472  0.3058
 2336W        W 3433   1.700   1.139   6.043 -0.1450  0.0554  0.0251
 2337W        W 3434   2.981   7.218   7.530 -0.0810  0.0665  0.2591
 2338W        W 3435   5.477   6.304   1.567  0.5273 -0.0825 -0.2861
 2339W        W 3436   1.047   6.375   5.817 -0.3210 -0.1850  0.1560
 2340W        W 3437   5.419   7.342   1.615 -0.0273  0.0825  0.0388
 2341W        W 3438   2.844   7.014   3.114  0.1914  0.2176 -0.2359
 2342W        W 3439   7.421   5.278   4.483 -0.1321 -0.1499 -0.0281
 2343W        W 3440   4.705   7.352   3.673 -0.0692  0.4103  0.1578
 2344W        W 3441   5.853   6.545   1.759 -0.1340  0.1888  0.0813
 2345W        W 3442   1.863   6.545   4.398 -0.0924 -0.1738  0.1099
 2346W        W 3443   6.496   2.763   6.747 -0.2896 -0.1576  0.0130
 2347W        W 3444   6.397   4.256   5.926  0.2853 -0.2049 -0.2317
 2348W        W 3445   4.575   7.415   1.702  0.1323  0.1750 -0.3863
 2349W        W 3446   2.627   6.307   7.406 -0.0083  0.1929 -0.2201
 2350W        W 3447   4.948   4.232   2.552  0.1563  0.1104 -0.1849
 2351W        W 3448   2.476   7.184   3.429  0.1533 -0.2355 -0.0528
 2352W        W 3449   1.435   0.757   1.237  0.1678  0.0005 -0.0948
 2353W        W 3450   0.820   2.859   0.462  0.0824 -0.2737  0.3098
 2354W        W 3451   5.531   1.265   4.210  0.0496 -0.3447 -0.0330
 2355W        W 3452   1.821   6.508   5.354 -0.0684 -0.1846  0.1743
 2356W        W 3453   2.289   3.245   6.070 -0.0137 -0.2068  0.2604
 2357W        W 3454   6.723   1.498   4.888 -0.0502  0.0146  0.0605
 2358W        W 3455   0.096   1.139   7.260 -0.2869 -0.2894  0.0509
 2359W        W 3456   6.946   4.430   5.155  0.0553 -0.1162 -0.0676
 2360W        W 3457   1.827   1.235   4.972 -0.0327 -0.0661  0.0134
 2361W        W 3458   6.388   2.611   4.672  0.0020  0.0467 -0.0660
 2362W        W 3459   6.191   6.806   0.496  0.2175  0.3228  0.0017
 2363W        W 3460   4.510   2.602   3.818  0.0424  0.0042 -0.1477
 2364W        W 3461   2.235   6.917   4.680 -0.2400 -0.1513  0.1393
 2365W        W 3462   1.842   0.604   0.563 -0.2296 -0.1843 -0.0773
 2366W        W 3463   4.105   4.626   3.619  0.1355  0.0753 -0.3401
 2367W        W 3464   5.326   6.871   7.597 -0.0637  0.1654  0.1951
 2368W        W 3465   6.752   3.952   5.627 -0.1604  0.0613  0.0216
 2369W        W 3466   4.763   5.471   3.900  0.0491  0.2851 -0.1224
 2370W        W 3467   7.220   2.675   7.497 -0.2159 -0.2974 -0.0785
 2371W        W 3468   7.512   6.763   5.246 -0.0374  0.1571  0.3391
 2372W        W 3469   1.865   5.716   0.695  0.1283  0.2211 -0.0238
 2373W        W 3470   0.506   4.386   3.891 -0.0039 -0.1013  0.2134
 2374W        W 3471   3.943   0.606   4.558 -0.2337  0.2155 -0.3864
 2375W        W 3472   5.685   5.064   0.024 -0.0977 -0.1303  0.1034
 2376W        W 3473   3.794   6.628   6.364 -0.2611  0.2455 -0.1215
 2377W        W 3474   5.349   3.889   5.971 -0.0982 -0.0444 -0.0484
 2378W        W 3475   3.427   1.140   3.835  0.0897  0.2661 -0.1658
 2379W        W 3476   2.154   4.249   5.569 -0.2853 -0.1836 -0.0534
 2380W        W 3477   2.833   6.685   4.290  0.0202  0.1333  0.1699
 2381W        W 3478   4.363   0.359   3.691 -0.0550  0.2508 -0.0407
 2382W        W 3479   7.347   0.835   0.416 -0.0381 -0.0384  0.0388
 2383W        W 3480   5.498   5.933   6.483  0.1397 -0.1610 -0.0100
 2384W        W 3481   0.274   7.473   0.667 -0.1808  0.0938  0.2154
 2385W        W 3482   2.141   4.968   5.351 -0.0661  0.1289 -0.1853
 2386W        W 3483   4.025   1.307   0.979  0.2596 -0.1720  0.2321
 2387W        W 3484   5.934   3.734   6.785 -0.1354  0.1614 -0.0623
 2388W        W 3485   1.120   1.616   0.871  0.0301 -0.0647 -0.1502
 2389W        W 3486   1.694   3.087   7.622  0.0718  0.0270  0.0665
 2390W        W 3487   5.040   1.928   2.977  0.1550 -0.0543  0.0263
 2391W        W 3488   5.903   2.901   1.256 -0.1548 -0.1297 -0.0426
 2392W        W 3489   2.980   6.886   7.143  0.0123 -0.1299  0.0978
 2393W        W 3490   1.647   5.888   3.258  0.2004 -0.1993 -0.3323
 2394W        W 3491   6.727   3.814   6.096 -0.1360 -0.0931 -0.0513
 2395W        W 3492   2.892   3.365   4.080 -0.1090  0.1234 -0.0279
 2396W        W 3493   1.905   7.127   5.816  0.1742  0.0865  0.2161
 2397W        W 3494   4.776   3.215   2.408 -0.0967 -0.2064 -0.0219
 2398W        W 3495   0.819   5.466   5.901 -0.0266 -0.0138 -0.1449
 2399W        W 3496   6.491   2.497   2.232 -0.0896  0.0338 -0.0140
 2400W        W 3497   4.985   0.995   1.820 -0.1351 -0.0927  0.1187
 2401W        W 3498   2.865   1.665   5.851 -0.3603 -0.0029  0.2576
 2402W        W 3499   7.521   7.513   1.698 -0.0537 -0.1256  0.1463
 2403W        W 3500   0.155   6.088   5.909 -0.0704 -0.1266  0.0830
 2404W        W 3501   2.318   6.900   0.343  0.1679  0.1003 -0.1636
 2405W        W 3502   7.336   2.763   4.354  0.2079  0.2451  0.1236
 2406W        W 3503   1.838   1.274   3.588  0.2536 -0.0594 -0.0905
 2407W        W 3504   0.864   4.408   5.985 -0.2928 -0.1818  0.1922
 2408W        W 3505   6.237   0.984   6.757  0.0581 -0.0036 -0.2241
 2409W        W 3506   6.715   7.034   7.284 -0.3257  0.0824  0.1794
 2410W        W 3507   2.913   5.463   4.445  0.0441 -0.1425  0.1516
 2411W        W 3508   4.792   3.754   2.602  0.0838  0.2608  0.3351
 2412W        W 3509   4.395   4.692   4.072  0.2514  0.0300  0.0259
 2413W        W 3510   6.403   2.228   5.061  0.0046  0.1458 -0.1582
 2414W        W 3511   1.766   2.919   2.083 -0.2096 -0.0161  0.1129
 2415W        W 3512   6.125   1.308   7.541 -0.0791 -0.2027 -0.0026
 2416W        W 3513   1.087   7.102   6.981 -0.3865  0.1290 -0.1188
 2417W        W 3514   2.799   6.445   6.401 -0.0314  0.0372 -0.1035
 2418W        W 3515   7.302   7.599   0.991 -0.2250 -0.0539  0.0717
 2419W        W 3516   5.223   5.507   2.314 -0.0128  0.1787  0.2639
 2420W        W 3517   6.923   4.270   6.041 -0.0214  0.2107 -0.0468
 2421W        W 3518   4.260   2.547   2.792 -0.0709  0.0628  0.3601
 2422W        W 3519   6.975   6.571   6.224 -0.2019 -0.0332 -0.1196
 2423W        W 3520   3.987   6.803   2.122 -0.1944 -0.3654 -0.0464
 2424W        W 3521   0.898   0.571   4.195  0.3346  0.0144  0.3670
 2425W        W 3522   1.228   2.865   0.079 -0.0555 -0.1335 -0.1430
 2426W        W 3523   6.788   2.643   5.553 -0.1306  0.4968  0.1797
 2427W        W 3524   6.140   1.934   6.533  0.3058  0.3403 -0.0114
 2428W        W 3525   2.683   1.653   2.210  0.0115  0.0572 -0.1310
 2429W        W 3526   4.711   2.774   2.184 -0.0669 -0.1600 -0.3498
 2430W        W 3527   5.345   2.136   2.095  0.0633  0.0291  0.3728
 2431W        W 3528   2.165   0.133   4.528 -0.2742  0.2611 -0.1655
 2432W        W 3529   4.536   1.985   1.457 -0.1590 -0.1500  0.0454
 2433W        W 3530   0.607   2.147   6.791 -0.0473 -0.1300 -0.0812
 2434W        W 3531   3.364   2.240   3.113  0.1310 -0.2180  0.1082
 2435W        W 3532   0.078   4.504   4.150  0.0868  0.2163 -0.1794
 2436W        W 3533   1.987   4.576   5.165 -0.1137 -0.0247  0.0835
 2437W        W 3534   5.487   7.155   7.206 -0.0240 -0.1064 -0.2986
 2438W        W 3535   1.031   3.551   2.251 -0.1384  0.2471  0.0230
 2439W        W 3536   6.270   1.425   3.995  0.0247 -0.3221 -0.0722
 2440W        W 3537   0.650   2.386   1.301  0.1870 -0.0147 -0.1106
 2441W        W 3538   0.221   2.620   5.300 -0.0988  0.0939 -0.1206
 2442W        W 3539   4.227   3.098   7.105  0.1169  0.0098  0.3173
 2443W        W 3540   6.239   4.806   0.155 -0.0632 -0.1853  0.0973
 2444W        W 3541   6.662   2.199   0.721 -0.2432  0.1597 -0.0193
 2445W        W 3542   6.443   3.839   3.154 -0.2564  0.0050  0.2239
 2446W        W 3543   5.784   3.587   5.830  0.0122  0.0750  0.1651
 2447W        W 3544   2.820   4.067   0.906  0.0065  0.1719  0.1347
 2448W        W 3545   6.317   1.322   5.729  0.3520  0.0882 -0.3553
 2449W        W 3546   1.197   4.645   4.726 -0.0232 -0.3816 -0.2484
 2450W        W 3547   4.939   2.137   0.927 -0.1424  0.0357  0.0377
 2451W        W 3548   3.972   6.562   1.669 -0.1074  0.1305 -0.3138
 2452W        W 3549   1.058   0.931   3.319  0.2581  0.0335 -0.0192
 2453W        W 3550   6.046   2.495   6.056  0.0310 -0.1372  0.1947
 2454W        W 3551   6.272   1.961   1.591  0.0349 -0.1352  0.2309
 2455W        W 3552   6.539   1.920   7.181  0.3727  0.1076  0.0236
 2456W        W 3553   4.855   4.346   1.120 -0.0840  0.2418  0.1703
 2457W        W 3554   0.431   3.738   1.608  0.1089  0.0936  0.2353
 2458W        W 3555   2.215   1.116   6.250 -0.0395 -0.1552 -0.1685
 2459W        W 3556   4.870   4.594   4.210  0.2356 -0.2171 -0.2435
 2460W        W 3557   0.131   6.806   6.560  0.1543 -0.0011 -0.1161
 2461W        W 3558   3.205   4.976   3.716 -0.0603  0.1608 -0.1577
 2462W        W 3559   3.811   7.020   2.778  0.0975 -0.2199  0.1072
 2463W        W 3560   4.725   2.777   7.361 -0.1716  0.2281 -0.2613
 2464W        W 3561   2.310   1.285   2.088 -0.0108  0.3933  0.3767
 2465W        W 3562   6.417   7.290   1.738  0.1602  0.0692 -0.2177
 2466W        W 3563   7.613   5.054   5.456 -0.2012 -0.3112  0.1432
 2467W        W 3564   2.911   0.182   0.881  0.0146 -0.1654 -0.0408
 2468W        W 3565   7.630   2.020   6.005  0.3471  0.1064 -0.2610
 2469W        W 3566   0.937   7.493   7.265  0.0647 -0.1326 -0.2392
 2470W        W 3567   1.973   5.419   2.257  0.1442  0.0531  0.2098
 2471W        W 3568   1.181   0.194   1.277 -0.3598 -0.0183 -0.0656
 2472W        W 3569   4.364   2.060   3.008 -0.4095  0.1567  0.0066
 2473W        W 3570   3.082   6.295   4.594 -0.0050 -0.1957  0.2334
 2474W        W 3571   7.371   6.424   5.878 -0.1442  0.2543  0.0343
 2475W        W 3572   6.359   2.150   3.196  0.1511  0.0646 -0.0743
 2476W        W 3573   0.043   2.446   0.869 -0.2297 -0.0286  0.4172
 2477W        W 3574   3.716   4.557   4.726  0.1942  0.3945 -0.2316
 2478W        W 3575   0.238   4.020   6.974  0.2865 -0.4248  0.0765
 2479W        W 3576   7.476   7.216   6.566 -0.0536  0.2791  0.0040
 2480W        W 3577   0.535   6.435   5.572 -0.2946 -0.3308 -0.0313
 2481W        W 3578   3.870   3.821   3.508  0.1167  0.0723  0.0570
 2482W        W 3579   1.153   4.135   2.770 -0.0228 -0.2084  0.2273
 2483W        W 3580   3.270   6.686   1.201  0.1698  0.0347 -0.1182
 2484W        W 3581   6.096   0.385   5.728  0.1466 -0.2122  0.1692
 2485W        W 3582   7.115   7.497   6.092  0.0846  0.0096  0.1380
 2486W        W 3583   1.996   4.621   2.685  0.1673  0.2467 -0.0708
 2487W        W 3584   7.060   1.950   3.719  0.2227  0.0580 -0.0690
 2488W        W 3585   2.815   0.884   0.398  0.1239 -0.3087  0.3377
 2489W        W 3586   5.260   1.756   3.869  0.1555 -0.2702  0.0147
 2490W        W 3587   3.554   4.824   6.031 -0.2283  0.0170 -0.1177
 2491W        W 3588   2.726   0.614   0.876  0.0365  0.3235 -0.2580
 2492W        W 3589   6.271   5.265   0.833 -0.1676 -0.0220  0.1136
 2493W        W 3590   6.147   1.400   6.539 -0.1310  0.3417 -0.1489
 2494W        W 3591   3.808   5.058   2.489 -0.0313  0.0246  0.2419
 2495W        W 3592   6.391   6.002   0.116  0.3833  0.3612 -0.1149
 2496W        W 3593   4.498   4.692   1.383  0.0971 -0.1283  0.1097
 2497W        W 3594   1.703   5.213   3.929  0.3926 -0.0889 -0.0868
 2498W        W 3595   3.214   2.021   3.977 -0.0067 -0.2875 -0.0133
 2499W        W 3596   3.601   3.447   6.351 -0.1523 -0.1438  0.1644
 2500W        W 3597   0.600   3.890   5.860 -0.4214  0.2463 -0.1038
 2501W        W 3598   2.408   4.855   6.200 -0.3757 -0.0986  0.0151
 2502W        W 3599   6.200   2.769   7.286 -0.0561  0.0577 -0.1788
 2503W        W 3600   2.004   6.967   6.267  0.1638  0.0573 -0.1821
 2504W        W 3601   5.949   5.810   6.884  0.0330  0.1006 -0.1038
 2505W        W 3602   1.372   4.480   4.309  0.4098 -0.0415  0.1271
 2506W        W 3603   0.810   4.334   4.848  0.4338  0.0279 -0.0540
 2507W        W 3604   4.487   7.082   4.023  0.0252  0.0722 -0.1934
 2508W        W 3605   3.597   0.099   5.062 -0.1013 -0.3731 -0.0160
 2509W        W 3606   1.437   4.556   1.397 -0.1686 -0.0879  0.0417
 2510W        W 3607   4.721   3.317   1.354 -0.2013 -0.2389  0.1926
 2511W        W 3608   3.723   2.935   4.044  0.1057  0.1972 -0.1918
 2512W        W 3609   6.766   4.980   7.166  0.1605 -0.2774  0.1446
 2513W        W 3610   3.658   0.995   3.441 -0.1118 -0.0664 -0.0187
 2514W        W 3611   5.107   7.556   0.934 -0.3306  0.0910 -0.0932
 2515W        W 3612   2.719   7.454   6.016 -0.1480 -0.0947 -0.0702
 2516W        W 3613   4.356   2.968   1.208 -0.0250  0.2171  0.1552
 2517W        W 3614   0.010   3.600   5.763 -0.1008 -0.4024  0.3850
 2518W        W 3615   6.493   0.287   2.317 -0.2079 -0.1533 -0.2976
 2519W        W 3616   1.504   2.935   5.883  0.2465 -0.0133  0.0917
 2520W        W 3617   0.887   1.771   2.024  0.0508 -0.2481  0.1652
 2521W        W 3618   5.937   2.774   0.606  0.1620  0.1767  0.0237
 2522W        W 3619   4.151   0.950   1.324  0.0528  0.2660 -0.0278
 2523W        W 3620   1.432   3.992   2.368  0.1811  0.0645  0.2766
 2524W        W 3621   0.869   5.536   6.775  0.0639  0.1622  0.1349
 2525W        W 3622   0.499   3.582   7.013  0.1543  0.1982  0.2336
 2526W        W 3623   0.188   0.003   6.809  0.2781  0.2631  0.2834
 2527W        W 3624   3.413   3.353   4.050  0.3465  0.1885 -0.0058
 2528W        W 3625   5.138   5.259   3.554 -0.1939 -0.0132 -0.2262
 2529W        W 3626   5.281   5.037   1.475 -0.1067 -0.2686 -0.0001
 2530W        W 3627   0.874   2.408   6.422 -0.0243 -0.1714  0.0502
 2531W        W 3628   1.882   0.261   5.774  0.2537 -0.0700 -0.0521
 2532W        W 3629   2.056   3.987   1.321 -0.0498  0.2657  0.3679
 2533W        W 3630   0.995   7.564   5.196  0.1395 -0.1587 -0.0356
 2534W        W 3631   7.015   2.951   1.532 -0.1392  0.2834 -0.3654
 2535W        W 3632   3.189   4.792   4.572  0.0727  0.0832  0.0360
 2536W        W 3633   0.128   3.726   5.270 -0.1260 -0.0215 -0.1125
 2537W        W 3634   5.896   0.845   7.595  0.0360 -0.0146  0.0800
 2538W        W 3635   5.566   6.121   1.075  0.0449  0.2592  0.0197
 2539W        W 3636   1.889   7.041   1.975  0.0618  0.0203  0.2931
 2540W        W 3637   5.538   3.710   0.914 -0.2315 -0.0401  0.0537
 2541W        W 3638   4.223   6.486   6.653 -0.2888  0.1830  0.0884
 2542W        W 3639   1.836   2.715   4.523  0.0015  0.0316 -0.0684
 2543W        W 3640   0.847   0.645   1.281 -0.3505 -0.1353  0.0483
 2544W        W 3641   2.813   0.238   3.780 -0.1239 -0.3299  0.4006
 2545W        W 3642   0.221   4.087   3.287 -0.2556  0.0984  0.0956
 2546W        W 3643   3.002   6.280   0.718  0.1472 -0.0929  0.0605
 2547W        W 3644   5.684   0.239   0.222  0.1286  0.1463 -0.3508
 2548W        W 3645   6.770   6.724   6.895 -0.2274  0.0728  0.0298
 2549W        W 3646   5.800   2.153   3.323 -0.0571  0.3729 -0.0690
 2550W        W 3647   0.014   4.013   1.706  0.0147  0.2424  0.1254
 2551W        W 3648   2.100   3.589   2.113  0.1647 -0.2229  0.0843
 2552W        W 3649   6.255   3.077   0.843 -0.0171  0.2017  0.0720
 2553W        W 3650   2.378   4.531   6.613  0.0592 -0.0574  0.2572
 2554W        W 3651   1.154   6.585   4.802 -0.0259  0.0979  0.1459
 2555W        W 3652   4.724   0.732   0.688 -0.1790  0.1890 -0.0685
 2556W        W 3653   5.484   4.230   6.955  0.2270  0.0533 -0.0579
 2557W        W 3654   2.705   6.531   2.165 -0.0697 -0.1762  0.1086
 2558W        W 3655   5.441   6.479   2.626  0.5744 -0.3900  0.0367
 2559W        W 3656   7.413   0.663   1.695  0.0125 -0.0146 -0.1719
 2560W        W 3657   7.118   6.684   5.561  0.0312  0.2678  0.2270
 2561W        W 3658   3.667   4.931   3.428  0.1971  0.0402 -0.0643
 2562W        W 3659   0.089   0.589   4.829  0.0257  0.2023  0.2521
 2563W        W 3660   3.631   0.573   2.380 -0.0752  0.1044  0.1071
 2564W        W 3661   0.760   0.843   0.403  0.0788  0.0037  0.2443
 2565W        W 3662   2.133   0.885   3.015 -0.0026 -0.0872 -0.1790
 2566W        W 3663   6.629   2.680   0.728 -0.0151 -0.1052 -0.2572
 2567W        W 3664   6.034   4.531   1.263 -0.1948 -0.2239 -0.1412
 2568W        W 3665   1.172   3.071   5.515  0.1184 -0.2127 -0.0150
 2569W        W 3666   5.131   3.404   1.683 -0.3751  0.0896 -0.0238
 2570W        W 3667   3.794   5.766   0.855  0.0978  0.2234 -0.0224
 2571W        W 3668   3.699   5.038   1.417  0.0169  0.0881  0.0686
 2572W        W 3669   0.563   1.558   4.771  0.1432  0.1905  0.2722
 2573W        W 3670   1.581   2.427   0.832  0.1699 -0.0872  0.0650
 2574W        W 3671   0.750   7.340   5.555 -0.0181 -0.0966  0.2304
 2575W        W 3672   2.765   0.340   5.724  0.0192 -0.0838 -0.0229
 2576W        W 3673   4.586   5.922   1.387  0.0479 -0.0441 -0.0585
 2577W        W 3674   2.492   1.148   4.405  0.0281 -0.0070 -0.0167
 2578W        W 3675   5.160   2.981   6.719  0.1671  0.0739  0.2299
 2579W        W 3676   6.257   3.631   2.495  0.0177  0.1928 -0.0850
 2580W        W 3677   1.233   4.196   0.984 -0.1087 -0.2114 -0.4210
 2581W        W 3678   1.634   2.595   3.407 -0.1914  0.0273 -0.1185
 2582W        W 3679   0.811   7.220   3.205  0.1204 -0.2727  0.1483
 2583W        W 3680   2.845   7.496   4.688 -0.1651  0.4228 -0.0455
 2584W        W 3681   1.648   5.809   1.623  0.0074 -0.2605  0.1592
 2585W        W 3682   4.036   0.326   3.240 -0.0242 -0.1046  0.0958
 2586W        W 3683   5.208   5.859   0.301  0.0857 -0.0550  0.4236
 2587W        W 3684   6.579   6.502   0.707  0.1065 -0.0423  0.0173
 2588W        W 3685   0.883   6.136   5.376 -0.3061  0.3743  0.2494
 2589W        W 3686   2.117   7.021   2.676  0.2645 -0.3444  0.0208
 2590W        W 3687   1.080   7.226   4.007  0.0025 -0.0615 -0.1793
 2591W        W 3688   0.491   1.790   0.675  0.1965  0.0768 -0.0200
 2592W        W 3689   3.914   2.577   6.476  0.0989  0.0485  0.2813
 2593W        W 3690   3.620   6.260   3.353  0.0886  0.0485 -0.0098
 2594W        W 3691   3.712   5.012   4.478  0.1742  0.0076 -0.2597
 2595W        W 3692   2.901   7.351   3.664 -0.3160 -0.0937  0.1411
 2596W        W 3693   3.505   3.876   6.626  0.0914  0.0212 -0.2980
 2597W        W 3694   7.506   3.546   6.239  0.2916  0.3530  0.1523
 2598W        W 3695   5.350   6.471   7.142  0.4699  0.0237 -0.0910
 2599W        W 3696   6.746   6.515   7.339  0.1269 -0.2680  0.0643
 2600W        W 3697   5.272   3.049   0.520 -0.1837  0.0981 -0.0416
 2601W        W 3698   6.481   1.187   6.178  0.3297  0.4906  0.1033
 2602W        W 3699   2.989   5.155   5.202 -0.1227 -0.2227  0.2925
 2603W        W 3700   5.311   5.588   6.910 -0.1512 -0.0365  0.1778
 2604W        W 3701   0.289   3.012   5.916  0.2675  0.1310  0.0553
 2605W        W 3702   5.151   5.836   2.974  0.4959  0.0113  0.0728
 2606W        W 3703   1.166   4.675   2.969 -0.3421 -0.0570 -0.2088
 2607W        W 3704   2.819   4.686   5.035  0.2656 -0.0457 -0.1224
 2608W        W 3705   1.287   6.078   3.532  0.4807  0.1859  0.1492
 2609W        W 3706   0.766   3.208   5.176  0.1243  0.0317 -0.1456
 2610W        W 3707   4.639   5.795   6.326  0.0592  0.1150  0.1551
 2611W        W 3708   4.677   3.273   7.432  0.4072 -0.1070 -0.1889
 2612W        W 3709   5.625   5.529   0.243  0.1600  0.1552 -0.0853
 2613W        W 3710   6.746   3.871   5.138  0.2113  0.0264 -0.1837
 2614W        W 3711   6.352   4.718   2.196 -0.0164 -0.3819 -0.0683
 2615W        W 3712   5.764   2.204   5.709 -0.0693 -0.4666  0.0458
 2616W        W 3713   0.649   7.347   6.820  0.3239 -0.1003 -0.2575
 2617W        W 3714   5.967   1.013   0.406 -0.2682 -0.3095 -0.0527
 2618W        W 3715   6.086   0.992   5.015 -0.1291  0.1805 -0.2716
 2619W        W 3716   0.648   2.168   5.531  0.0077  0.0982  0.0971
 2620W        W 3717   3.623   7.185   4.457 -0.0466  0.0856 -0.0222
 2621W        W 3718   4.984   5.917   2.372 -0.0185 -0.0509  0.1838
 2622W        W 3719   2.557   5.218   7.254 -0.2775  0.0955 -0.2366
 2623W        W 3720   7.343   3.674   2.698  0.2363 -0.0005  0.1430
 2624W        W 3721   7.431   1.335   5.834 -0.2869 -0.2496 -0.1807
 2625W        W 3722   2.034   1.754   3.341 -0.2325  0.1859  0.1910
 2626W        W 3723   2.548   0.786   7.526  0.0332 -0.2289  0.1680
 2627W        W 3724   2.429   6.223   4.808  0.0054 -0.1360 -0.4171
 2628W        W 3725   3.824   4.029   4.708 -0.2384  0.0550  0.1342
 2629W        W 3726   0.007   3.650   3.445  0.0693  0.0036 -0.1333
 2630W        W 3727   1.048   6.114   4.841  0.2500 -0.1589  0.1350
 2631W        W 3728   6.157   6.498   2.136  0.3624  0.0464  0.1492
 2632W        W 3729   0.708   4.049   1.105  0.0814 -0.3336 -0.0553
 2633W        W 3730   6.192   2.629   4.225 -0.2159  0.1098 -0.1562
 2634W        W 3731   5.867   4.115   0.076  0.2656 -0.0412  0.1413
 2635W        W 3732   2.363   0.498   5.533  0.0222  0.1029  0.0347
 2636W        W 3733   7.222   1.256   7.322  0.0091  0.4090  0.1800
 2637W        W 3734   5.805   2.419   4.399  0.1351 -0.0111  0.0900
 2638W        W 3735   2.479   2.491   4.926  0.0613  0.0819 -0.1104
 2639W        W 3736   6.609   2.821   1.842 -0.1342  0.1342 -0.1277
 2640W        W 3737   6.605   4.574   6.320 -0.3079  0.3230  0.0858
 2641W        W 3738   2.905   7.504   7.095 -0.1235 -0.2618 -0.0156
 2642W        W 3739   1.214   0.713   0.653  0.0057  0.0617  0.2198
 2643W        W 3740   2.881   0.202   2.100  0.0193 -0.0995 -0.0890
 2644W        W 3741   4.990   1.504   2.660  0.1997  0.1032  0.1789
 2645W        W 3742   6.810   4.225   0.853  0.1066  0.0018  0.0362
 2646W        W 3743   3.899   0.452   0.238 -0.2340 -0.0323  0.0995
 2647W        W 3744   0.586   5.412   0.020  0.0001  0.2958 -0.3648
 2648W        W 3745   4.835   1.793   2.302 -0.0002 -0.1245 -0.2407
 2649W        W 3746   4.728   4.691   7.564 -0.2318  0.0185  0.0262
 2650W        W 3747   3.286   5.865   5.191  0.0039  0.2363  0.0697
 2651W        W 3748   6.130   6.348   0.392 -0.3484  0.0399  0.1206
 2652W        W 3749   3.304   0.350   7.144  0.0521  0.0305 -0.0906
 2653W        W 3750   1.967   2.627   5.602  0.4751  0.0385  0.0877
 2654W        W 3751   5.999   1.728   6.985 -0.2272  0.1887 -0.0907
 2655W        W 3752   0.626   3.180   2.664  0.1193 -0.4047 -0.0477
 2656W        W 3753   0.123   2.392   1.884  0.1061  0.3794 -0.4197
 2657W        W 3754   0.299   3.469   4.850  0.4534 -0.0968 -0.1671
 2658W        W 3755   4.563   2.416   0.084 -0.4573  0.0401  0.1016
 2659W        W 3756   7.202   5.791   6.666 -0.0592 -0.3885  0.0108
 2660W        W 3757   5.797   1.646   4.966  0.0858  0.0704 -0.0113
 2661W        W 3758   1.708   4.230   4.838  0.1519 -0.3185 -0.2601
 2662W        W 3759   3.534   5.033   0.366 -0.0273  0.1478  0.0667
 2663W        W 3760   5.712   7.597   6.336 -0.2450 -0.0578 -0.0931
 2664W        W 3761   2.730   7.147   0.328 -0.3043  0.3269  0.0508
 2665W        W 3762   5.458   7.401   0.182  0.2837 -0.1774  0.0422
 2666W        W 3763   2.183   6.770   3.499 -0.2735  0.0620 -0.1557
 2667W        W 3764   4.603   0.726   2.029 -0.2204  0.0486 -0.3293
 2668W        W 3765   7.277   0.814   7.085 -0.0855 -0.2276 -0.0174
 2669W        W 3766   0.358   4.464   4.595  0.0198  0.0704 -0.2504
 2670W        W 3767   2.777   1.559   4.317 -0.2718 -0.1993 -0.2472
 2671W        W 3768   3.413   6.825   0.759 -0.1848 -0.2451  0.0351
 2672W        W 3769   6.522   3.386   1.233  0.0035 -0.2191 -0.0795
 2673W        W 3770   1.473   4.861   5.285  0.2449  0.3005  0.3703
 2674W        W 3771   0.367   0.594   5.228  0.0361  0.0185 -0.4256
 2675W        W 3772   2.374   0.556   7.026  0.2950  0.0061  0.0598
 2676W        W 3773   7.138   3.091   7.237  0.3157  0.2667  0.2518
 2677W        W 3774   6.137   3.199   5.008  0.2055 -0.1302 -0.0351
 2678W        W 3775   1.199   5.868   5.981  0.3435  0.0970 -0.0794
 2679W        W 3776   3.629   7.205   1.925  0.0520 -0.0167 -0.0516
 2680W        W 3777   5.851   0.375   1.445  0.1261  0.2691 -0.3066
 2681W        W 3778   7.287   7.122   5.663  0.0231 -0.1264 -0.1196
 2682W        W 3779   6.864   2.195   3.270  0.0216 -0.1523  0.0309
 2683W        W 3780   6.829   0.751   6.724 -0.0571 -0.0837  0.2893
 2684W        W 3781   0.455   0.160   7.247 -0.0893  0.3841  0.3553
 2685W        W 3782   4.545   5.384   0.887  0.2826  0.1606 -0.3445
 2686W        W 3783   4.929   3.843   3.490  0.0996  0.0796 -0.3056
 2687W        W 3784   2.399   6.827   3.034  0.1543  0.2890  0.0602
 2688W        W 3785   5.195   0.798   4.035 -0.2259 -0.0899  0.0772
 2689W        W 3786   0.933   7.007   4.554  0.2349  0.0110  0.3329
 2690W        W 3787   6.432   2.369   6.439 -0.1467 -0.1237 -0.1051
 2691W        W 3788   0.240   1.076   4.522 -0.2313  0.1013 -0.0684
 2692W        W 3789   6.009   7.198   6.244 -0.3137  0.1251 -0.1084
 2693W        W 3790   0.019   2.553   4.033  0.1856  0.3023  0.2062
 2694W        W 3791   7.550   0.972   3.993  0.1113 -0.2410 -0.0984
 2695W        W 3792   6.826   3.935   1.528  0.0036  0.1066 -0.0788
 2696W        W 3793   2.821   2.487   6.135  0.1786  0.0467  0.2016
 2697W        W 3794   2.253   4.169   0.913  0.0250 -0.0574 -0.3108
 2698W        W 3795   5.183   2.957   6.068 -0.2689  0.2360  0.0343
 2699W        W 3796   2.190   0.859   4.096 -0.1268  0.1061  0.2628
 2700W        W 3797   3.153   7.106   4.642  0.2155  0.0271  0.0498
 2701W        W 3798   6.718   7.493   1.371  0.2495 -0.2491  0.1020
 2702W        W 3799   6.903   7.030   6.517 -0.0074  0.2463 -0.1821
 2703W        W 3800   5.185   7.090   0.952 -0.1042 -0.0893  0.0540
 2704W        W 3801   1.826   2.708   7.165  0.0939 -0.2582 -0.1980
 2705W        W 3802   5.482   4.672   7.174 -0.3008 -0.0376  0.3719
 2706W        W 3803   4.874   2.326   2.223 -0.1759 -0.1790 -0.0888
 2707W        W 3804   2.805   0.711   4.325 -0.1029  0.0709 -0.2534
 2708W        W 3805   4.041   5.353   3.432 -0.0945  0.1905  0.3268
 2709W        W 3806   5.441   2.511   3.492 -0.1158 -0.1977  0.1868
 2710W        W 3807   3.864   0.071   4.590 -0.0792  0.0845 -0.1281
 2711W        W 3808   6.865   3.356   4.405  0.1092 -0.2780  0.0890
 2712W        W 3809   2.843   5.072   6.212  0.0161 -0.1605 -0.2548
 2713W        W 3810   2.269   6.483   2.693  0.1107  0.1382 -0.0039
 2714W        W 3811   1.141   0.174   3.366  0.1010  0.2680  0.2105
 2715W        W 3812   2.975   5.424   7.449 -0.1073  0.0409  0.2059
 2716W        W 3813   0.036   0.212   5.245 -0.2235 -0.2448  0.1148
 2717W        W 3814   6.296   6.421   7.506  0.0199 -0.0269  0.2976
 2718W        W 3815   0.825   2.268   2.965 -0.4242  0.2034  0.3188
 2719W        W 3816   0.256   0.687   1.258 -0.0745  0.1100 -0.2679
 2720W        W 3817   1.147   2.087   5.958  0.1155  0.6117 -0.0751
 2721W        W 3818   1.619   1.735   7.305  0.2234  0.1408 -0.0709
 2722W        W 3819   7.613   5.025   1.616 -0.2077  0.0651  0.0819
 2723W        W 3820   2.096   5.147   2.693 -0.0801 -0.3015  0.0080
 2724W        W 3821   0.789   1.642   6.869 -0.2823  0.0298 -0.0483
 2725W        W 3822   1.212   7.278   1.257 -0.1093  0.0470  0.0678
 2726W        W 3823   7.462   5.370   4.003 -0.0337 -0.0113  0.3437
 2727W        W 3824   5.058   3.322   7.149 -0.0715 -0.2548  0.1268
 2728W        W 3825   3.393   5.323   1.678  0.1625 -0.3909 -0.2501
 2729W        W 3826   3.867   6.600   6.999  0.0123  0.0555 -0.0416
 2730W        W 3827   3.945   1.769   2.974  0.1259 -0.1204 -0.3187
 2731W        W 3828   5.195   2.105   0.536  0.1721 -0.0942 -0.2304
 2732W        W 3829   5.292   0.728   2.111 -0.0336 -0.0539  0.1279
 2733W        W 3830   7.336   2.277   5.682  0.3250 -0.3844  0.1982
 2734W        W 3831   2.150   3.740   6.260  0.0759 -0.1472  0.0378
 2735W        W 3832   2.406   7.085   5.918  0.0428 -0.2063 -0.1186
 2736W        W 3833   5.271   2.110   2.571 -0.0284 -0.0780  0.0679
 2737W        W 3834   7.528   6.318   7.443 -0.1589  0.0763 -0.0676
 2738W        W 3835   2.160   5.736   1.956  0.1104 -0.0605  0.0390
 2739W        W 3836   3.683   3.741   0.143  0.3747  0.1091 -0.1116
 2740W        W 3837   6.339   4.612   6.727 -0.1502 -0.2036 -0.1180
 2741W        W 3838   0.261   1.540   6.928 -0.0037  0.0094  0.1085
 2742W        W 3839   0.545   0.136   5.377 -0.1963 -0.0771 -0.0156
 2743W        W 3840   1.653   7.223   0.796 -0.1788 -0.2686 -0.1817
 2744W        W 3841   5.235   3.270   3.301  0.1119 -0.2255 -0.1190
 2745W        W 3842   6.988   4.112   3.191 -0.0005  0.1239  0.0443
 2746W        W 3843   0.600   1.194   2.370 -0.0400 -0.2006 -0.3243
 2747W        W 3844   6.132   2.594   1.916 -0.0873  0.2754 -0.2392
 2748W        W 3845   0.733   2.697   2.559 -0.1844 -0.0015 -0.2228
 2749W        W 3846   7.272   2.501   3.207  0.1809 -0.0025 -0.0847
 2750W        W 3847   7.009   4.619   0.554  0.0943 -0.0035  0.0571
 2751W        W 3848   6.434   3.087   4.365 -0.1711 -0.0450  0.0802
 2752W        W 3849   0.423   2.176   2.685  0.0936 -0.1368 -0.1370
 2753W        W 3850   5.501   3.432   4.170 -0.3253 -0.0546  0.1049
 2754W        W 3851   2.702   4.653   4.546 -0.1278  0.3240 -0.0525
 2755W        W 3852   5.121   5.593   6.439  0.2797  0.0435 -0.1084
 2756W        W 3853   2.702   7.119   4.437  0.0826  0.3742 -0.0195
 2757W        W 3854   3.765   6.261   2.031 -0.0435  0.0804  0.0258
 2758W        W 3855   1.654   4.893   1.790 -0.0145  0.0444  0.0413
 2759W        W 3856   2.206   5.268   4.842  0.1454 -0.0986 -0.2557
 2760W        W 3857   0.332   7.381   4.509 -0.0166  0.1278 -0.4617
 2761W        W 3858   6.743   7.424   0.121  0.0601  0.0074 -0.1290
 2762W        W 3859   0.283   2.080   3.319 -0.0551  0.0867  0.0081
 2763W        W 3860   6.633   2.451   4.184 -0.1909  0.1537 -0.0574
 2764W        W 3861   2.682   4.862   1.981  0.2049  0.1850 -0.0212
 2765W        W 3862   0.494   1.137   5.057 -0.1641  0.0298  0.0555
 2766W        W 3863   3.379   5.409   0.108  0.0288 -0.1138 -0.3170
 2767W        W 3864   3.738   0.656   1.057 -0.0779 -0.1536  0.2433
 2768W        W 3865   2.219   3.608   3.279 -0.1572  0.0566  0.0318
 2769W        W 3866   0.154   3.155   2.142  0.2511  0.1597  0.1889
 2770W        W 3867   7.386   2.728   2.725 -0.1807 -0.2952  0.0433
 2771W        W 3868   3.691   0.715   7.487 -0.1486  0.2315 -0.1735
 2772W        W 3869   6.722   3.918   4.498 -0.1832 -0.1138  0.1848
 2773W        W 3870   1.492   4.753   3.873  0.0303  0.4305 -0.1526
 2774W        W 3871   7.107   1.215   4.916  0.0676 -0.2690 -0.1379
 2775W        W 3872   1.408   6.379   3.972  0.0961  0.0827 -0.0061
 2776W        W 3873   3.667   1.885   4.329  0.0422 -0.1674 -0.1136
 2777W        W 3874   2.822   6.281   2.594 -0.1014  0.3252 -0.0642
 2778W        W 3875   6.122   7.208   0.766 -0.0692 -0.0840  0.0474
 2779W        W 3876   6.785   0.470   4.839  0.4120 -0.0657  0.1864
 2780W        W 3877   6.562   7.006   0.659 -0.1740  0.2737 -0.0969
 2781W        W 3878   2.441   2.420   3.005  0.2908 -0.1553 -0.1070
 2782W        W 3879   3.012   1.698   5.317 -0.1070  0.1060 -0.2342
 2783W        W 3880   0.501   4.458   6.755  0.1171  0.0096 -0.0106
 2784W        W 3881   1.046   5.630   4.886  0.0324 -0.1166 -0.0272
 2785W        W 3882   3.544   6.118   4.431  0.0263 -0.2715  0.0586
 2786W        W 3883   4.242   3.830   4.347 -0.0323 -0.3632 -0.0471
 2787W        W 3884   1.528   1.859   6.179 -0.1921  0.0844  0.0136
 2788W        W 3885   5.755   5.568   7.330 -0.0431  0.0854  0.3498
 2789W        W 3886   3.574   7.453   2.700 -0.1002  0.1675  0.1103
 2790W        W 3887   5.358   4.756   6.268  0.1619  0.1467  0.0360
 2791W        W 3888   6.589   2.175   4.576 -0.4013 -0.4356  0.0290
 2792W        W 3889   4.187   5.776   1.113  0.1974  0.0270  0.3632
 2793W        W 3890   1.918   1.566   6.464  0.0780  0.0945  0.4497
 2794W        W 3891   5.718   4.869   1.516 -0.5553 -0.0491 -0.1692
 2795W        W 3892   7.325   1.121   6.247 -0.2480  0.4869 -0.0714
 2796W        W 3893   5.435   2.071   0.992 -0.0666 -0.0968 -0.1693
 2797W        W 3894   3.408   5.905   1.123  0.1342  0.1388  0.1380
 2798W        W 3895   4.747   3.792   4.632 -0.0510 -0.0949  0.0002
 2799W        W 3896   3.057   1.009   6.606  0.0536  0.2239  0.2297
 2800W        W 3897   6.411   7.526   0.519  0.2356 -0.2676 -0.2571
 2801W        W 3898   1.278   5.047   1.260 -0.2890  0.1513 -0.2462
 2802W        W 3899   3.014   4.463   0.651  0.0194  0.0526 -0.2532
 2803W        W 3900   7.443   0.204   6.547  0.0833  0.1199 -0.0123
 2804W        W 3901   1.316   5.405   5.250  0.1257  0.3557 -0.0793
 2805W        W 3902   3.465   1.103   2.595  0.1735 -0.1458  0.1788
 2806W        W 3903   0.918   4.114   2.323 -0.0973  0.0387 -0.1328
 2807W        W 3904   6.644   4.380   1.351 -0.0066 -0.1483 -0.1295
 2808W        W 3905   7.500   6.519   4.724  0.1693  0.2182 -0.0905
 2809W        W 3906   3.330   0.430   1.985  0.0588  0.0458 -0.1826
 2810W        W 3907   3.921   3.435   3.165  0.2246  0.0133 -0.0082
 2811W        W 3908   0.999   6.561   2.067  0.1043  0.2198 -0.2447
 2812W        W 3909   3.999   4.457   6.232 -0.1251 -0.1427  0.0217
 2813W        W 3910   2.192   0.199   0.346  0.3740 -0.0795  0.0869
 2814W        W 3911   6.604   4.277   2.977  0.0326 -0.0862 -0.1866
 2815W        W 3912   1.246   4.644   7.619 -0.1880  0.0329 -0.0223
 2816W        W 3913   7.075   5.630   0.153 -0.2365 -0.2232 -0.2141
 2817W        W 3914   4.264   7.497   3.725  0.0903 -0.1421 -0.1988
 2818W        W 3915   6.847   5.627   5.843  0.0182 -0.3262  0.0693
 2819W        W 3916   0.359   7.242   2.932  0.0033 -0.0195 -0.0668
 2820W        W 3917   7.310   2.296   6.238 -0.2176  0.0153 -0.1754
 2821W        W 3918   2.107   0.311   2.434 -0.1901  0.1046 -0.0416
 2822W        W 3919   0.107   0.716   3.602  0.4255  0.0710 -0.0191
 2823W        W 3920   0.886   3.378   3.053  0.0730 -0.0243 -0.0128
 2824W        W 3921   1.885   1.144   7.542 -0.0607  0.2629 -0.0329
 2825W        W 3922   2.962   3.692   0.376 -0.2914 -0.1658  0.0090
 2826W        W 3923   4.945   3.890   0.228  0.0294  0.1983 -0.1008
 2827W        W 3924   3.251   5.751   6.773 -0.2905  0.0692 -0.0136
 2828W        W 3925   6.033   0.492   4.096 -0.4263  0.1944  0.3016
 2829W        W 3926   3.904   7.152   1.176  0.1373 -0.1366  0.0989
 2830W        W 3927   0.304   4.716   0.681 -0.0053 -0.2190  0.1111
 2831W        W 3928   7.036   1.480   2.974  0.2946  0.1977  0.1761
 2832W        W 3929   7.349   0.254   4.850  0.0725 -0.3692  0.4211
 2833W        W 3930   5.524   0.638   1.132 -0.3097  0.3429  0.0754
 2834W        W 3931   4.742   6.850   1.186  0.2317 -0.1827  0.1160
 2835W        W 3932   6.393   0.928   7.260 -0.1670  0.1043 -0.2408
 2836W        W 3933   1.113   5.167   0.779 -0.0911  0.0207 -0.1365
 2837W        W 3934   6.269   7.630   2.701 -0.0972 -0.2345 -0.0807
 2838W        W 3935   4.473   7.273   1.245 -0.2183 -0.0108  0.1098
 2839W        W 3936   0.700   3.811   3.988  0.0812 -0.1437 -0.1932
 2840W        W 3937   6.340   6.776   1.583 -0.0845 -0.4561 -0.0873
 2841W        W 3938   0.943   5.418   1.166  0.1109 -0.0366 -0.1509
 2842W        W 3939   1.844   1.430   2.127  0.0371 -0.2180  0.3944
 2843W        W 3940   2.341   1.110   7.183  0.0646 -0.1815 -0.3801
 2844W        W 3941   4.265   3.305   1.709  0.1602 -0.0106  0.1861
 2845W        W 3942   1.466   5.797   4.946 -0.1309  0.3004  0.2119
 2846W        W 3943   1.914   2.503   6.351 -0.1282 -0.0837  0.3761
 2847W        W 3944   4.106   4.352   4.434  0.0972 -0.2776  0.3184
 2848W        W 3945   4.393   4.564   0.358 -0.1769 -0.0685 -0.0061
 2849W        W 3946   4.179   4.900   3.237 -0.0078 -0.1221  0.1635
 2850W        W 3947   5.539   4.240   5.611  0.1139  0.3331  0.0599
 2851W        W 3948   5.589   1.688   2.742 -0.0520  0.1565  0.0296
 2852W        W 3949   7.047   3.476   1.397 -0.1450  0.1629 -0.0569
 2853W        W 3950   1.226   6.914   1.656 -0.0879  0.1959 -0.0339
 2854W        W 3951   5.998   4.040   5.765 -0.0457  0.3359 -0.1147
 2855W        W 3952   6.233   1.513   1.281 -0.2881  0.0415  0.0926
 2856W        W 3953   4.172   5.641   6.595  0.1078 -0.1296 -0.0752
 2857W        W 3954   1.548   1.099   2.237  0.2033  0.1231  0.2510
 2858W        W 3955   7.436   4.821   5.910 -0.0883 -0.0251 -0.1380
 2859W        W 3956   3.579   5.575   4.355 -0.0387  0.1870 -0.2972
 2860W        W 3957   3.526   5.408   3.492 -0.0557  0.0534  0.0243
 2861W        W 3958   5.067   3.726   3.036  0.1230  0.2196  0.4138
 2862W        W 3959   3.192   5.487   5.608 -0.2110  0.0638  0.1272
 2863W        W 3960   2.951   1.038   5.689 -0.1040 -0.1706  0.0044
 2864W        W 3961   1.890   6.218   1.784 -0.0929 -0.0052  0.0593
 2865W        W 3962   5.149   3.435   7.627  0.2800  0.0163  0.2044
 2866W        W 3963   1.290   0.589   3.616 -0.0063  0.0441  0.1286
 2867W        W 3964   0.600   3.145   6.699 -0.0965  0.0047  0.3898
 2868W        W 3965   4.136   6.078   1.586 -0.2262  0.1271 -0.1851
 2869W        W 3966   0.369   4.077   2.685 -0.2880 -0.0265  0.4503
 2870W        W 3967   1.528   0.169   3.901 -0.2228  0.0499 -0.0104
 2871W        W 3968   3.576   5.650   5.812 -0.0067  0.1468  0.1998
 2872W        W 3969   5.619   5.332   1.700 -0.4498 -0.3068  0.0327
 2873W        W 3970   7.233   2.174   2.138 -0.1212 -0.0121 -0.0595
 2874W        W 3971   4.253   4.041   0.358  0.0801  0.3021 -0.0783
 2875W        W 3972   4.097   6.733   7.443  0.0843 -0.0970  0.3681
 2876W        W 3973   1.010   0.624   6.787  0.2340 -0.2655  0.0003
 2877W        W 3974   3.811   6.138   6.536 -0.0243 -0.3905  0.1941
 2878W        W 3975   0.506   0.954   3.349  0.2884 -0.2739 -0.1100
 2879W        W 3976   3.492   6.379   2.483 -0.0487 -0.1207  0.0326
 2880W        W 3977   3.528   0.436   6.024  0.3454  0.3855  0.2990
 2881W        W 3978   1.860   7.109   7.328  0.0552 -0.1490  0.2460
 2882W        W 3979   1.749   0.807   4.565 -0.1025 -0.0907 -0.0910
 2883W        W 3980   4.068   1.668   3.916 -0.0676  0.0263 -0.0120
 2884W        W 3981   5.008   5.878   7.153 -0.0452 -0.1415  0.0616
 2885W        W 3982   3.325   7.307   2.300  0.3946  0.0155 -0.3641
 2886W        W 3983   1.896   2.931   6.722 -0.0543 -0.3950  0.1430
 2887W        W 3984   5.596   4.423   3.863  0.1750 -0.0598  0.0200
 2888W        W 3985   2.349   5.817   3.646  0.0276  0.1561  0.2497
 2889W        W 3986   0.535   6.857   7.012 -0.0429  0.0303  0.1422
 2890W        W 3987   5.024   4.411   7.247 -0.1592 -0.0938 -0.1755
 2891W        W 3988   1.423   2.401   3.897  0.1077  0.1334  0.0422
 2892W        W 3989   6.282   2.216   5.537 -0.2129 -0.1507  0.1189
 2893W        W 3990   5.344   6.821   0.498  0.0011 -0.0029  0.0795
 2894W        W 3991   4.181   5.111   3.843  0.1427  0.0409 -0.1099
 2895W        W 3992   3.860   5.878   7.446  0.3546  0.1621  0.0832
 2896W        W 3993   1.860   1.534   0.197  0.3945 -0.0804 -0.0379
 2897W        W 3994   5.802   2.019   3.910  0.2312 -0.1621 -0.0089
 2898W        W 3995   7.153   4.346   1.310  0.1764 -0.2440 -0.2385
 2899W        W 3996   0.003   3.501   4.448  0.1269 -0.2433  0.1493
 2900W        W 3997   4.968   3.834   6.399  0.1590 -0.0794 -0.0628
 2901W        W 3998   4.556   1.867   6.750  0.1716 -0.0458 -0.1432
 2902W        W 3999   0.476   4.273   1.608  0.0974 -0.1280  0.0421
 2903W        W 4000   0.775   4.904   2.118  0.1753  0.1017  0.0182
 2904W        W 4001   0.400   4.207   5.143 -0.1122  0.1673  0.2356
 2905W        W 4002   2.745   0.319   7.142 -0.2674 -0.2411  0.1327
 2906W        W 4003   6.781   5.362   5.341 -0.1921  0.0764  0.1654
 2907W        W 4004   1.957   2.853   6.041  0.2441 -0.2286  0.1252
 2908W        W 4005   5.283   6.269   2.074 -0.0612  0.3828  0.2766
 2909W        W 4006   6.507   1.439   2.979 -0.0081  0.3293  0.0220
 2910W        W 4007   0.730   1.854   6.370 -0.0691 -0.0130 -0.0632
 2911W        W 4008   1.293   4.650   6.767 -0.1880 -0.2760  0.1142
 2912W        W 4009   0.610   3.258   3.893  0.1752  0.1811  0.2276
 2913W        W 4010   0.212   2.076   5.377 -0.2007  0.0356  0.1717
 2914W        W 4011   6.790   0.961   3.392 -0.1051  0.1354 -0.1375
 2915W        W 4012   2.066   2.236   2.588  0.2296  0.1103 -0.4732
 2916W        W 4013   7.060   3.098   2.148  0.0471 -0.3045  0.0333
 2917W        W 4014   3.318   0.857   0.279  0.3036  0.1183 -0.0510
 2918W        W 4015   7.212   3.075   3.265  0.0484  0.1670 -0.0411
 2919W        W 4016   3.043   6.285   3.488  0.1036  0.3572  0.1725
 2920W        W 4017   2.476   6.346   4.304 -0.1916 -0.1456  0.0930
 2921W        W 4018   2.088   0.798   5.821  0.0114  0.4359 -0.0134
 2922W        W 4019   0.774   4.934   2.941  0.3210 -0.1556  0.0062
 2923W        W 4020   6.984   1.171   3.845 -0.1615 -0.1050  0.0995
 2924W        W 4021   7.578   0.495   3.183  0.1764 -0.1413 -0.0230
 2925W        W 4022   6.273   2.725   5.162 -0.3942 -0.3774  0.2225
 2926W        W 4023   1.969   7.449   0.086  0.0402  0.3509  0.0132
 2927W        W 4024   5.192   5.231   1.922  0.1367  0.0980  0.4381
 2928W        W 4025   2.562   3.594   4.950 -0.1287  0.2454 -0.0579
 2929W        W 4026   5.132   3.584   1.219 -0.0801 -0.1367  0.0669
 2930W        W 4027   4.501   6.108   6.753  0.3548  0.0949 -0.1961
 2931W        W 4028   5.235   7.535   2.200 -0.1437  0.1383 -0.0321
 2932W        W 4029   1.491   1.988   5.629  0.1523 -0.1599 -0.0906
 2933W        W 4030   0.641   1.775   3.017 -0.1049 -0.1137  0.1399
 2934W        W 4031   6.041   3.641   2.956  0.0176  0.2303 -0.0899
 2935W        W 4032   7.592   5.780   6.326  0.0057 -0.0489  0.0801
 2936W        W 4033   4.541   4.141   1.642  0.0466  0.3601 -0.1488
 2937W        W 4034   3.234   4.885   6.416  0.0150 -0.0451 -0.1465
 2938W        W 4035   2.013   6.199   3.259  0.0828  0.0566  0.3189
 2939W        W 4036   5.878   6.707   0.095 -0.0008 -0.1921 -0.1502
 2940W        W 4037   2.039   7.147   3.149  0.0630  0.0115  0.1496
 2941W        W 4038   6.649   1.499   1.574 -0.3311  0.0583 -0.0080
 2942W        W 4039   6.517   5.478   0.450 -0.3654 -0.0018  0.0495
 2943W        W 4040   6.363   5.928   6.636 -0.1679  0.1077  0.2047
 2944W        W 4041   0.142   4.603   3.660 -0.0751  0.0593  0.2681
 2945W        W 4042   0.933   4.432   1.270 -0.0484  0.1780 -0.0195
 2946W        W 4043   5.211   6.771   2.239 -0.1083  0.3251  0.1219
 2947W        W 4044   3.068   5.680   1.474  0.1010 -0.1830 -0.1759
 2948W        W 4045   0.394   4.542   1.117  0.1693  0.1162  0.0078
 2949W        W 4046   1.191   5.327   7.187 -0.2360 -0.1099 -0.1097
 2950W        W 4047   6.650   5.616   7.566 -0.1929  0.3599 -0.2487
 2951W        W 4048   0.727   0.939   3.850 -0.1410  0.0777  0.1105
 2952W        W 4049   5.419   2.021   1.554 -0.0949 -0.0910 -0.0160
 2953W        W 4050   2.592   3.934   7.492  0.2098 -0.0593 -0.1678
 2954W        W 4051   7.052   2.567   0.885 -0.0883 -0.0119 -0.0785
 2955W        W 4052   5.058   3.876   7.252 -0.1248 -0.0740  0.0300
 2956W        W 4053   2.514   1.670   5.162  0.1194 -0.0356 -0.0568
 2957W        W 4054   2.796   5.032   2.618  0.2065 -0.3079  0.0666
 2958W        W 4055   1.215   7.336   2.936 -0.2405  0.3840 -0.1091
 2959W        W 4056   0.026   5.020   6.993  0.0726 -0.3503  0.2537
 2960W        W 4057   4.530   5.239   3.462  0.0403 -0.1064  0.2789
 2961W        W 4058   3.976   6.164   0.644 -0.2300  0.1491 -0.1669
 2962W        W 4059   5.579   4.335   2.648  0.0533 -0.1830 -0.0204
 2963W        W 4060   3.357   0.538   2.818 -0.1998  0.0703 -0.0774
 2964W        W 4061   3.420   4.136   0.867  0.2684 -0.1725  0.1521
 2965W        W 4062   0.099   6.540   6.202  0.3632  0.0382  0.2425
 2966W        W 4063   3.968   3.482   7.346  0.0206 -0.0947  0.0227
 2967W        W 4064   7.050   2.017   7.194 -0.3205 -0.0538  0.1437
 2968W        W 4065   5.132   4.769   3.656  0.1129 -0.1158  0.1126
 2969W        W 4066   2.844   6.733   0.962 -0.2269  0.1520 -0.0347
 2970W        W 4067   1.441   3.278   3.002  0.0349 -0.0861 -0.2232
 2971W        W 4068   6.884   1.568   7.024 -0.4776 -0.2022 -0.3510
 2972W        W 4069   1.754   4.323   1.045 -0.2569  0.0872  0.1896
 2973W        W 4070   0.588   0.693   4.806 -0.1944  0.2489  0.1248
 2974W        W 4071   6.067   1.973   0.171 -0.1944 -0.1394 -0.0777
 2975W        W 4072   2.404   6.558   6.099  0.0182 -0.1839  0.1296
 2976W        W 4073   4.354   0.312   2.821  0.4962 -0.0811 -0.2112
 2977W        W 4074   5.927   1.573   4.328  0.0567  0.0587  0.0424
 2978W        W 4075   3.593   3.814   3.945 -0.1227 -0.1867 -0.0806
 2979W        W 4076   4.988   5.343   0.644  0.4352 -0.1613 -0.3084
 2980W        W 4077   1.485   2.811   2.991  0.0384  0.0997  0.1190
 2981W        W 4078   7.258   1.604   0.338  0.2497  0.1259 -0.0190
 2982W        W 4079   1.366   3.331   0.223  0.1847  0.1945  0.1697
 2983W        W 4080   4.683   1.438   0.220  0.2451 -0.3095 -0.0446
 2984W        W 4081   4.258   6.346   2.071 -0.2297 -0.4169  0.1024
 2985W        W 4082   4.419   6.515   7.161 -0.1569  0.3563 -0.0812
 2986W        W 4083   2.960   1.134   2.618  0.1693  0.0920 -0.1762
 2987W        W 4084   0.454   2.917   4.974 -0.1512  0.1382  0.1132
 2988W        W 4085   1.209   3.204   5.004 -0.0516  0.1632 -0.1578
 2989W        W 4086   1.366   1.105   3.688 -0.1477 -0.0565  0.4063
 2990W        W 4087   6.880   1.545   2.097  0.1486 -0.1674 -0.1905
 2991W        W 4088   3.342   5.717   3.032  0.0554 -0.3680 -0.1888
 2992W        W 4089   3.177   1.849   3.420 -0.0031 -0.1054 -0.0376
 2993W        W 4090   1.847   1.432   1.521 -0.2962 -0.2275  0.0802
 2994W        W 4091   1.570   2.902   3.913  0.0910  0.1823 -0.1665
 2995W        W 4092   1.653   7.279   2.612  0.1276 -0.1231  0.2717
 2996W        W 4093   0.312   4.959   6.117 -0.1629  0.1542  0.2433
 2997W        W 4094   3.518   4.637   5.537 -0.1792  0.0453  0.0042
 2998W        W 4095   7.476   0.851   5.798  0.0092 -0.3799  0.0768
 2999W        W 4096   0.869   2.912   3.013 -0.3915  0.1800  0.1666
 3000W        W 4097   1.295   2.440   0.449  0.0659  0.1244 -0.0216
 3001W        W 4098   1.885   6.124   2.766 -0.1097  0.1636  0.0150
 3002W        W 4099   1.835   6.601   6.014 -0.0369 -0.1540  0.3236
 3003W        W 4100   1.309   6.345   6.791 -0.4760  0.0563  0.1274
 3004W        W 4101   3.227   6.724   3.337 -0.0568  0.2051  0.1535
 3005W        W 4102   6.358   3.689   1.974 -0.1836 -0.0774  0.0533
 3006W        W 4103   1.822   3.466   6.669  0.0222 -0.1113  0.1613
 3007W        W 4104   6.645   1.249   6.662  0.2959 -0.0095 -0.2676
 3008W        W 4105   4.365   4.087   4.753 -0.0834 -0.1467 -0.1451
 3009W        W 4106   6.983   0.792   5.681  0.1642  0.0195 -0.0458
 3010W        W 4107   2.401   4.720   2.348  0.1189 -0.0612 -0.0545
 3011W        W 4108   2.605   5.325   0.112  0.0665 -0.0350  0.3111
 3012W        W 4109   3.965   6.446   0.223 -0.2369  0.2151 -0.3710
 3013W        W 4110   7.011   2.668   2.402 -0.0780  0.0141 -0.1243
 3014W        W 4111   4.451   5.199   0.405 -0.0034 -0.2566  0.0666
 3015W        W 4112   3.799   6.141   1.222 -0.0579 -0.0475 -0.1642
 3016W        W 4113   1.730   7.579   4.460 -0.2357 -0.1892 -0.0484
 3017W        W 4114   0.911   0.369   7.250 -0.1493  0.2811  0.3676
 3018W        W 4115   0.596   4.028   7.350  0.3193  0.2279 -0.2029
 3019W        W 4116   0.004   4.362   2.473 -0.4188  0.2003  0.0823
 3020W        W 4117   5.903   4.162   5.259  0.0404 -0.2103 -0.3252
 3021W        W 4118   1.322   3.262   7.347 -0.0592 -0.0764  0.1226
 3022W        W 4119   6.057   0.904   2.601 -0.1922  0.0354 -0.0966
 3023W        W 4120   2.223   5.582   5.717 -0.0192  0.1859  0.0045
 3024W        W 4121   6.480   5.834   0.887  0.0934 -0.0640 -0.1736
 3025W        W 4122   3.833   5.766   3.219  0.1069 -0.0271  0.0648
 3026W        W 4123   0.656   2.485   5.920 -0.0716  0.0503 -0.1733
 3027W        W 4124   4.439   7.428   2.543  0.3012 -0.0723 -0.0244
 3028W        W 4125   2.721   5.130   4.748 -0.0342 -0.3435  0.1942
 3029W        W 4126   2.331   4.784   4.933  0.0249  0.1004 -0.1374
 3030W        W 4127   5.727   1.644   6.542  0.1665 -0.1909 -0.2664
 3031W        W 4128   6.636   1.641   2.533 -0.0587  0.0023  0.1644
 3032W        W 4129   3.322   4.998   2.591 -0.3446  0.2750 -0.3651
 3033W        W 4130   0.862   4.021   0.611  0.0650 -0.2198 -0.3515
 3034W        W 4131   3.426   7.547   7.456 -0.2959  0.0690  0.2812
 3035W        W 4132   7.020   0.265   5.884  0.1662  0.0262  0.0431
 3036W        W 4133   5.726   4.140   2.200  0.2420  0.1315 -0.0434
 3037W        W 4134   0.834   1.146   4.656  0.1278 -0.0035 -0.1359
 3038W        W 4135   0.066   4.571   5.583  0.1188 -0.1814 -0.0010
 3039W        W 4136   3.812   4.019   0.624 -0.1091 -0.0451  0.3097
 3040W        W 4137   5.073   2.977   7.598  0.1244 -0.2882 -0.0765
 3041W        W 4138   7.474   2.797   1.700  0.2453  0.0537  0.0270
 3042W        W 4139   4.625   3.642   1.707 -0.1699 -0.0743 -0.0928
 3043W        W 4140   1.830   5.416   6.956 -0.0948  0.0958  0.1693
 3044W        W 4141   3.793   7.397   6.544 -0.0072 -0.0163 -0.2407
 3045W        W 4142   4.877   6.486   6.880 -0.0818  0.2438 -0.0256
 3046W        W 4143   2.659   5.972   0.523 -0.2869  0.0213 -0.2105
 3047W        W 4144   6.876   1.302   1.201  0.1910 -0.2498  0.2643
 3048W        W 4145   5.131   2.605   1.931 -0.2418  0.1547  0.3153
 3049W        W 4146   5.218   3.522   0.568 -0.0403  0.1437  0.0484
 3050W        W 4147   3.956   7.285   2.401  0.0736 -0.1369 -0.3161
 3051W        W 4148   7.612   1.206   0.223  0.0764  0.3804 -0.0821
 3052W        W 4149   0.443   2.361   4.328 -0.0814 -0.0106  0.1268
 3053W        W 4150   6.908   2.129   5.420  0.0926 -0.0373 -0.0672
 3054W        W 4151   2.682   4.975   6.703 -0.1375 -0.2853  0.2155
 3055W        W 4152   1.675   4.688   0.533  0.3069  0.1108 -0.2816
 3056W        W 4153   3.238   4.250   4.539 -0.0623  0.1917 -0.0812
 3057W        W 4154   5.247   3.370   5.114  0.3647  0.0036 -0.2100
 3058W        W 4155   0.044   5.660   5.661 -0.2861 -0.3251 -0.0555
 3059W        W 4156   2.912   5.820   3.660  0.1356 -0.2236 -0.0106
 3060ION    CL- 4157   0.692   6.775   6.480 -0.0590  0.0998 -0.0894
 3061ION    CL- 4158   3.323   1.349   4.924 -0.0506  0.1246  0.1206
 3062ION    CL- 4159   3.891   1.352   1.512 -0.1237  0.2904  0.1612
 3063ION    CL- 4160   0.798   6.689   4.061 -0.1943  0.0974  0.1760
 3064ION    CL- 4161   0.513   4.730   3.289  0.1724 -0.2173 -0.1472
 3065ION    CL- 4162   5.225   1.855   7.393 -0.0605  0.0738 -0.0926
 3066ION    CL- 4163   3.652   0.731   5.581  0.1711 -0.1469  0.0215
 3067ION    CL- 4164   2.010   2.162   1.574 -0.1745  0.1180 -0.0971
 3068ION    CL- 4165   7.113   0.319   4.405 -0.1472 -0.1014  0.0899
 3069ION    CL- 4166   4.996   3.683   4.176 -0.0722 -0.0609  0.0800
 3070ION    CL- 4167   2.233   1.556   7.469 -0.2497 -0.2971  0.1778
 3071ION    CL- 4168   5.238   6.165   3.384 -0.1212 -0.0390 -0.1184
 3072ION    CL- 4169   1.308   5.911   4.496  0.0810  0.2170 -0.0149
 3073ION    CL- 4170   5.410   1.587   4.584 -0.3095 -0.1138  0.2703
 3074ION    CL- 4171   6.087   7.538   5.860  0.4633 -0.0133  0.0014
 3075ION    CL- 4172   5.540   4.463   0.294  0.1858 -0.2260  0.1942
 3076ION    CL- 4173   3.773   2.672   7.582  0.2400  0.0054 -0.4001
 3077ION    CL- 4174   3.177   3.302   7.249 -0.4838  0.1242 -0.0717
 3078ION    CL- 4175   1.463   3.184   6.886 -0.0105 -0.2770  0.0190
 3079ION    CL- 4176   5.694   7.291   3.631 -0.1377 -0.0504  0.2106
 3080ION    CL- 4177   4.721   0.237   7.360 -0.2629 -0.1827  0.0684
 3081ION    CL- 4178   4.656   4.661   6.872  0.1701  0.0455  0.2616
 3082ION    CL- 4179   4.326   2.654   6.752 -0.0573 -0.1235 -0.1151
 3083ION    CL- 4180   4.263   7.389   6.722  0.0411 -0.1955  0.2401
 3084ION    CL- 4181   1.538   2.208   7.199 -0.1084 -0.0371  0.1607
 3085ION    CL- 4182   4.110   4.394   0.718  0.3065  0.2811  0.1232
 3086ION    CL- 4183   5.258   3.859   5.456  0.0636  0.1118 -0.1562
 3087ION    CL- 4184   5.518   6.428   0.229 -0.0777  0.1775  0.0638
 3088ION    CL- 4185   2.272   3.626   1.601 -0.0487  0.0422  0.0977
 3089ION    CL- 4186   3.499   6.298   3.836 -0.3049  0.0166 -0.0738
 3090ION    CL- 4187   5.168   6.903   2.803 -0.1659 -0.2904 -0.0369
 3091ION    CL- 4188   1.388   2.120   3.444  0.0737 -0.0338 -0.2234
 3092ION    CL- 4189   0.351   7.260   3.436 -0.2995 -0.1891 -0.2564
 3093ION    CL- 4190   4.530   3.612   6.058 -0.0329 -0.1076 -0.1721
 3094ION    CL- 4191   3.285   6.736   6.226  0.4437 -0.1810  0.1074
 3095ION    CL- 4192   6.673   7.025   5.434 -0.2282  0.3662 -0.2981
 3096ION    CL- 4193   5.894   6.212   2.485 -0.2113 -0.0808  0.2739
 3097ION    CL- 4194   5.836   1.128   5.805  0.0210 -0.0534  0.3751
 3098ION    CL- 4195   2.226   5.157   3.214  0.0051  0.1223 -0.2852
 3099ION    CL- 4196   3.888   5.357   2.086  0.3126 -0.2042 -0.0378
 3100ION    CL- 4197   7.323   7.404   3.889  0.0573 -0.1174  0.1836
 3101ION    CL- 4198   7.179   7.553   3.141 -0.3765  0.0702 -0.2736
 3102ION    CL- 4199   2.956   0.416   6.662  0.2820  0.3072 -0.0285
 3103ION    CL- 4200   4.086   0.884   4.956  0.1166 -0.2543 -0.0954
 3104ION    CL- 4201   6.944   6.183   0.931  0.0957  0.1275  0.1773
 3105ION    CL- 4202   4.453   1.282   4.003  0.4035 -0.1203  0.0227
 3106ION    CL- 4203   4.965   7.154   2.436 -0.0082  0.1738  0.3494
 3107ION    CL- 4204   0.332   4.906   2.478  0.1649 -0.0092 -0.0298
 3108ION    CL- 4205   2.471   7.402   2.917 -0.4891 -0.0237 -0.0936
 3109ION    CL- 4206   3.418   4.819   5.059 -0.0428  0.0422  0.0490
 3110ION    CL- 4207   3.322   1.364   5.566 -0.0620 -0.1280 -0.2476
 3111ION    CL- 4208   5.501   5.261   6.011  0.0191 -0.0032  0.0709
 3112ION    CL- 4209   2.341   1.258   1.489  0.1707  0.1016  0.3527
 3113ION    CL- 4210   1.049   6.006   2.656 -0.0721 -0.1311 -0.2552
 3114ION    CL- 4211   6.570   2.617   6.039 -0.0508 -0.0357  0.0968
 3115ION    CL- 4212   3.288   3.885   5.015 -0.1440  0.1749  0.0396
 3116ION    CL- 4213   2.192   2.675   0.893  0.0230  0.0915  0.2392
 3117ION    CL- 4214   3.981   5.213   0.224 -0.3401 -0.0634  0.0301
 3118ION    CL- 4215   6.415   3.334   2.873  0.0372 -0.2802  0.0776
 3119ION    CL- 4216   1.535   5.815   5.522  0.0763  0.1723  0.1154
 3120ION    CL- 4217   3.432   6.107   5.639 -0.0654  0.4678  0.3857
 3121ION    CL- 4218   0.370   4.479   6.074 -0.0689 -0.0525 -0.2613
 3122ION    CL- 4219   4.044   2.577   4.326  0.2263 -0.3244 -0.0684
 3123ION    CL- 4220   5.838   4.976   1.019 -0.1559 -0.1155  0.1225
 3124ION    CL- 4221   2.863   4.402   1.681 -0.0812 -0.1629  0.3870
 3125ION    CL- 4222   5.205   0.403   3.011  0.1918  0.0321  0.0558
 3126ION    CL- 4223   1.652   0.149   2.527 -0.4735  0.2498  0.0145
 3127ION    CL- 4224   4.068   0.261   5.900 -0.2928 -0.0903 -0.0059
 3128ION    CL- 4225   6.999   5.586   0.834  0.0013  0.1402 -0.0996
 3129ION    CL- 4226   1.474   1.763   2.167 -0.3138 -0.0082  0.0909
 3130ION    CL- 4227   2.406   5.965   2.810  0.1134 -0.1249  0.0253
 3131ION    CL- 4228   3.078   3.207   0.184 -0.0367 -0.1185 -0.0691
 3132ION    CL- 4229   4.644   5.088   4.289 -0.0795  0.0076  0.3755
 3133ION    CL- 4230   4.706   3.206   1.899 -0.0983  0.1307 -0.2131
 3134ION    CL- 4231   3.161   1.904   2.469 -0.1106  0.4323 -0.0621
 3135ION    CL- 4232   1.938   3.318   2.887  0.0657 -0.2218 -0.1116
 3136ION    CL- 4233   7.243   3.749   1.765  0.0915  0.0108  0.0657
 3137ION    CL- 4234   5.478   2.644   4.801 -0.1762 -0.0825 -0.2338
 3138ION    CL- 4235   7.361   0.170   2.760 -0.1051 -0.0781  0.0187
 3139ION    CL- 4236   3.166   3.513   5.877 -0.2920  0.0840  0.1248
 3140ION    CL- 4237   4.024   4.988   6.062  0.2065 -0.3520  0.0509
 3141ION    CL- 4238   3.006   5.342   1.096 -0.2319  0.0730  0.0570
 3142ION    CL- 4239   4.414   1.959   2.112 -0.4130  0.3379 -0.0853
 3143ION    CL- 4240   1.239   7.599   4.355  0.3219 -0.3456 -0.3424
 3144ION    CL- 4241   2.434   3.894   5.849 -0.1390  0.3011 -0.2488
 3145ION    CL- 4242   0.392   2.295   6.266 -0.1913  0.2818  0.1841
 3146ION    CL- 4243   2.299   4.918   7.606 -0.2083 -0.3673 -0.2071
 3147ION    CL- 4244   5.532   0.395   4.114  0.5473 -0.0197  0.1167
 3148ION    CL- 4245   3.808   2.088   6.173  0.3163 -0.3574 -0.0327
 3149ION    CL- 4246   6.601   7.148   2.662  0.0008 -0.0586  0.0876
 3150ION    CL- 4247   7.572   2.949   5.588 -0.4896  0.1075 -0.0815
 3151ION    CL- 4248   7.022   7.507   6.587  0.0557 -0.0167 -0.0708
 3152ION    CL- 4249   5.724   6.742   5.776  0.2578  0.1493  0.1591
 3153ION    CL- 4250   0.571   5.769   1.326 -0.0277 -0.1596  0.1130
 3154ION    CL- 4251   3.114   2.104   5.963 -0.0025 -0.0753 -0.0909
 3155ION    CL- 4252   5.245   7.623   6.580 -0.3075 -0.1220 -0.0068
 3156ION    CL- 4253   4.039   5.312   4.294  0.2069 -0.2747  0.0618
 3157ION    CL- 4254   5.819   5.971   5.490  0.2560 -0.1961  0.2276
 3158ION    CL- 4255   4.888   3.058   5.612  0.1086 -0.1313 -0.1555
 3159ION    CL- 4256   7.423   7.624   5.712 -0.1421 -0.1537  0.0818
   7.63267   7.63267   7.63267
