Martini system from ../2_Creating_coordinates/TYR-TRP-TYR_aa.pdb
 4380
    1TYR     BB    1   1.922   0.923   7.470 -0.0442  0.0513 -0.4380
    1TYR    SC1    2   2.052   1.058   7.713  0.1168  0.1290 -0.1334
    1TYR    SC2    3   2.160   1.295   7.784  0.0130  0.0303  0.4067
    1TYR    SC3    4   2.218   1.072   7.925 -0.1657 -0.2043  0.1255
    2TRP     BB    5   1.955   1.110   7.285  0.1145  0.0434 -0.1097
    2TRP    SC1    6   1.677   1.208   7.127 -0.1941 -0.0285 -0.0994
    2TRP    SC2    7   1.434   1.312   7.074 -0.2087 -0.1150 -0.2067
    2TRP    SC3    8   1.466   1.141   7.281 -0.1668  0.1661  0.0259
    2TRP    SC4    9   1.219   1.230   7.216 -0.1830  0.0573 -0.0642
    3TYR     BB   10   2.150   1.377   7.193 -0.2180  0.1540 -0.1671
    3TYR    SC1   11   2.360   1.237   6.995 -0.0373 -0.2307 -0.0890
    3TYR    SC2   12   2.487   1.047   6.851  0.0833 -0.1801 -0.0513
    3TYR    SC3   13   2.525   1.308   6.793 -0.1107 -0.1664 -0.1268
    1TYR     BB   14   1.524   0.516   3.490 -0.0565 -0.2186  0.0380
    1TYR    SC1   15   1.379   0.237   3.397 -0.1572  0.2987 -0.0304
    1TYR    SC2   16   1.200   0.068   3.287 -0.0013  0.1302 -0.0303
    1TYR    SC3   17   1.206   0.104   3.555 -0.0911  0.2035 -0.0375
    2TRP     BB   18   1.915   0.433   3.362  0.3244  0.0376 -0.0343
    2TRP    SC1   19   1.929   0.709   3.257  0.1149  0.0859 -0.1565
    2TRP    SC2   20   1.814   0.926   3.145 -0.1229  0.0732  0.0527
    2TRP    SC3   21   1.881   0.929   3.407  0.0535 -0.0386  0.0108
    2TRP    SC4   22   1.742   1.135   3.301 -0.2333 -0.1034  0.2450
    3TYR     BB   23   2.020   0.235   3.452 -0.4396  0.2523 -0.0305
    3TYR    SC1   24   2.275   0.156   3.592  0.0051  0.0926 -0.1791
    3TYR    SC2   25   2.450   0.000   3.726  0.1180  0.1687 -0.2360
    3TYR    SC3   26   2.522   0.249   3.650  0.0585  0.1259 -0.4428
    1TYR     BB   27   0.763   1.999   5.745  0.2405  0.1420 -0.1226
    1TYR    SC1   28   0.807   1.777   5.571 -0.1641 -0.2047 -0.1240
    1TYR    SC2   29   0.780   1.628   5.348  0.2833 -0.3840 -0.0717
    1TYR    SC3   30   1.026   1.694   5.437  0.1092  0.3716 -0.0710
    2TRP     BB   31   1.081   2.055   5.829  0.3355 -0.2002  0.0574
    2TRP    SC1   32   1.295   1.974   5.682 -0.1713  0.1744  0.2511
    2TRP    SC2   33   1.472   1.942   5.481 -0.0133 -0.2796  0.4464
    2TRP    SC3   34   1.537   2.092   5.696 -0.1451  0.1248  0.2161
    2TRP    SC4   35   1.718   2.051   5.500 -0.0768 -0.1093  0.3244
    3TYR     BB   36   1.272   2.223   6.094  0.0549 -0.1727 -0.1662
    3TYR    SC1   37   1.263   2.072   6.385 -0.0274 -0.6218  0.1307
    3TYR    SC2   38   1.401   1.942   6.577  0.1257 -0.0973  0.3987
    3TYR    SC3   39   1.175   2.077   6.640 -0.0150 -0.2019  0.1359
    1TYR     BB   40   1.831   1.145   1.576  0.2005  0.2910 -0.1265
    1TYR    SC1   41   2.055   0.934   1.581 -0.2436 -0.1453  0.2604
    1TYR    SC2   42   2.065   0.681   1.488  0.0626 -0.0238 -0.0683
    1TYR    SC3   43   2.291   0.805   1.566 -0.0205  0.2782 -0.2858
    2TRP     BB   44   1.818   1.379   1.409 -0.1543 -0.0976  0.3035
    2TRP    SC1   45   1.582   1.458   1.274 -0.0303  0.1154 -0.1474
    2TRP    SC2   46   1.392   1.546   1.104 -0.1227  0.2661  0.0293
    2TRP    SC3   47   1.586   1.714   1.189  0.0654  0.1261 -0.1127
    2TRP    SC4   48   1.406   1.797   1.006  0.4022  0.0630 -0.4905
    3TYR     BB   49   2.052   1.481   1.214 -0.0490 -0.0245 -0.0591
    3TYR    SC1   50   2.014   1.767   1.111  0.2060  0.1732 -0.1921
    3TYR    SC2   51   1.897   2.010   1.122  0.1088  0.1183  0.1087
    3TYR    SC3   52   2.163   1.990   1.078  0.0272  0.2440 -0.5883
    1TYR     BB   53   3.401   1.277   7.138 -0.0311 -0.2028 -0.2290
    1TYR    SC1   54   3.396   0.978   7.077 -0.0617  0.1141  0.0996
    1TYR    SC2   55   3.343   0.808   6.874  0.0951  0.2256 -0.0371
    1TYR    SC3   56   3.456   0.716   7.101 -0.0053  0.1143 -0.0312
    2TRP     BB   57   3.413   1.574   6.997  0.0388  0.1609 -0.1763
    2TRP    SC1   58   3.667   1.582   6.798 -0.4531  0.0981 -0.0918
    2TRP    SC2   59   3.800   1.632   6.569 -0.3599 -0.0830 -0.0788
    2TRP    SC3   60   3.785   1.822   6.760 -0.2871  0.0071 -0.1615
    2TRP    SC4   61   3.921   1.870   6.532 -0.0444 -0.2363 -0.0747
    3TYR     BB   62   3.146   1.756   6.841  0.0013 -0.1632 -0.2180
    3TYR    SC1   63   3.322   1.902   6.625 -0.3611  0.2417 -0.5903
    3TYR    SC2   64   3.506   2.078   6.534  0.1887  0.0533  0.0565
    3TYR    SC3   65   3.467   1.845   6.404  0.0657  0.2831 -0.3369
    1TYR     BB   66   2.612   2.011   1.262 -0.0646 -0.4879  0.0313
    1TYR    SC1   67   2.634   1.742   1.070 -0.1331  0.0517 -0.2682
    1TYR    SC2   68   2.428   1.597   0.975 -0.0837 -0.0720 -0.1902
    1TYR    SC3   69   2.681   1.528   0.912 -0.0554 -0.0857 -0.0644
    2TRP     BB   70   2.816   2.035   1.445  0.0251  0.1946 -0.0678
    2TRP    SC1   71   3.082   2.146   1.355  0.2595 -0.0219 -0.3122
    2TRP    SC2   72   3.269   2.260   1.197  0.2055  0.2387 -0.1951
    2TRP    SC3   73   3.050   2.400   1.270 -0.0014 -0.0357 -0.2660
    2TRP    SC4   74   3.233   2.511   1.105 -0.0654  0.2091 -0.1783
    3TYR     BB   75   2.833   1.924   1.733  0.2407 -0.0046 -0.0420
    3TYR    SC1   76   2.688   2.163   1.929 -0.2323 -0.3236  0.3567
    3TYR    SC2   77   2.511   2.365   1.960  0.0357  0.0495 -0.2760
    3TYR    SC3   78   2.744   2.367   2.098 -0.0225  0.0917 -0.1768
    1TYR     BB   79   0.765   2.756   4.526 -0.1457 -0.0080 -0.0234
    1TYR    SC1   80   1.066   2.576   4.544  0.0636 -0.2502 -0.0035
    1TYR    SC2   81   1.072   2.312   4.602  0.2003 -0.2976 -0.2201
    1TYR    SC3   82   1.282   2.428   4.479  0.1306 -0.0912 -0.1498
    2TRP     BB   83   0.571   2.468   4.431 -0.0795  0.1624  0.0137
    2TRP    SC1   84   0.665   2.340   4.146  0.1841  0.6093 -0.6632
    2TRP    SC2   85   0.790   2.181   3.968  0.1954 -0.0516 -0.1180
    2TRP    SC3   86   0.933   2.356   4.115  0.2639  0.1137 -0.3720
    2TRP    SC4   87   1.050   2.227   3.910  0.1475 -0.0463 -0.3397
    3TYR     BB   88   0.343   2.456   4.567 -0.2320  0.0151  0.1870
    3TYR    SC1   89   0.207   2.257   4.724 -0.1351  0.1187 -0.0783
    3TYR    SC2   90  -0.012   2.126   4.814  0.1149  0.0875  0.5457
    3TYR    SC3   91   0.155   2.006   4.638 -0.4706  0.2063 -0.1497
    1TYR     BB   92   2.054   0.402   4.939  0.0507  0.1864 -0.2221
    1TYR    SC1   93   2.268   0.335   4.694  0.0881  0.1992  0.0970
    1TYR    SC2   94   2.375   0.301   4.449  0.2502 -0.0443  0.1968
    1TYR    SC3   95   2.489   0.182   4.663 -0.1596 -0.2287  0.3240
    2TRP     BB   96   1.734   0.684   4.939  0.0250 -0.0591 -0.1555
    2TRP    SC1   97   1.765   0.674   5.258  0.0511  0.0720  0.1545
    2TRP    SC2   98   1.711   0.643   5.521 -0.0145 -0.0768  0.1247
    2TRP    SC3   99   1.671   0.438   5.349 -0.6784  0.2224 -0.1195
    2TRP    SC4  100   1.635   0.401   5.614 -0.1752 -0.1094 -0.0810
    3TYR     BB  101   1.579   0.728   4.751 -0.2102 -0.0119 -0.3838
    3TYR    SC1  102   1.376   0.982   4.719  0.0634  0.1445  0.0257
    3TYR    SC2  103   1.119   1.048   4.766  0.1001  0.2149  0.1311
    3TYR    SC3  104   1.301   1.241   4.715  0.0479  0.1426 -0.3971
    1TYR     BB  105   3.685   1.392   0.503 -0.2743 -0.2762 -0.0661
    1TYR    SC1  106   3.710   1.693   0.642 -0.1405  0.0334  0.0930
    1TYR    SC2  107   3.852   1.920   0.603 -0.0142 -0.0456  0.0871
    1TYR    SC3  108   3.883   1.778   0.831 -0.0179 -0.1100  0.0479
    2TRP     BB  109   3.715   1.479   0.224  0.0343  0.1603 -0.0275
    2TRP    SC1  110   3.927   1.703   0.192 -0.0516 -0.1595  0.0348
    2TRP    SC2  111   4.064   1.931   0.235 -0.2089 -0.0714  0.0780
    2TRP    SC3  112   3.807   1.942   0.155 -0.2935 -0.2302  0.3131
    2TRP    SC4  113   3.949   2.170   0.182 -0.2820 -0.1631 -0.1918
    3TYR     BB  114   3.663   1.337  -0.087 -0.0286  0.0436 -0.0883
    3TYR    SC1  115   3.833   1.502  -0.272 -0.0097 -0.0016  0.1124
    3TYR    SC2  116   3.945   1.612  -0.492 -0.2107 -0.2330 -0.1148
    3TYR    SC3  117   3.994   1.718  -0.248 -0.3005  0.2816 -0.3033
    1TYR     BB  118   6.871   7.297   4.927  0.0262  0.1326  0.1497
    1TYR    SC1  119   6.699   7.427   5.164 -0.0982  0.3730 -0.4847
    1TYR    SC2  120   6.506   7.431   5.353  0.1299 -0.4225 -0.1823
    1TYR    SC3  121   6.746   7.547   5.402  0.0257 -0.1896 -0.2042
    2TRP     BB  122   6.726   7.468   4.694 -0.2684 -0.1903  0.1112
    2TRP    SC1  123   6.669   7.311   4.459  0.0753  0.1116  0.1333
    2TRP    SC2  124   6.534   7.091   4.377  0.0388  0.1839 -0.0034
    2TRP    SC3  125   6.412   7.332   4.380  0.0254  0.1786  0.3075
    2TRP    SC4  126   6.268   7.108   4.335  0.0278  0.2200  0.0779
    3TYR     BB  127   6.511   7.716   4.738 -0.1942  0.1940 -0.3267
    3TYR    SC1  128   6.305   7.743   4.497  0.1528  0.2172 -0.2828
    3TYR    SC2  129   6.178   7.702   4.262 -0.0098  0.0643 -0.1707
    3TYR    SC3  130   6.101   7.904   4.423  0.0068  0.0812 -0.1839
    1TYR     BB  131   5.459   1.118   2.878 -0.2407  0.0561  0.1610
    1TYR    SC1  132   5.619   1.075   2.610 -0.0743  0.2113  0.0044
    1TYR    SC2  133   5.686   1.148   2.359  0.3077  0.2026  0.0953
    1TYR    SC3  134   5.796   0.928   2.469 -0.1810 -0.0418  0.1281
    2TRP     BB  135   5.323   1.349   2.988 -0.0937  0.0518  0.1898
    2TRP    SC1  136   5.469   1.594   3.000 -0.0534  0.1793 -0.1297
    2TRP    SC2  137   5.661   1.745   3.116  0.1200 -0.2620  0.1928
    2TRP    SC3  138   5.406   1.760   3.203  0.0859  0.0090  0.0584
    2TRP    SC4  139   5.593   1.924   3.307  0.1262  0.0653 -0.1007
    3TYR     BB  140   5.325   1.267   3.339  0.1378  0.1374  0.1596
    3TYR    SC1  141   5.536   1.409   3.500 -0.0029 -0.4954 -0.2314
    3TYR    SC2  142   5.611   1.457   3.754 -0.1589 -0.1095 -0.2509
    3TYR    SC3  143   5.775   1.525   3.551 -0.2291  0.0185 -0.2663
    1TYR     BB  144   1.104   1.030   6.758  0.0735  0.1467 -0.2597
    1TYR    SC1  145   1.132   1.254   6.619 -0.0296  0.1409  0.1073
    1TYR    SC2  146   1.297   1.468   6.627  0.2432 -0.0555 -0.0336
    1TYR    SC3  147   1.047   1.494   6.529  0.3107  0.1739 -0.1539
    2TRP     BB  148   1.120   0.709   6.539 -0.3678 -0.0834 -0.2298
    2TRP    SC1  149   1.080   0.803   6.276  0.2296  0.0190 -0.0960
    2TRP    SC2  150   0.960   0.926   6.067  0.1735 -0.1473 -0.1643
    2TRP    SC3  151   1.128   1.064   6.227 -0.1594  0.1134 -0.0232
    2TRP    SC4  152   1.003   1.189   6.023 -0.2096 -0.0673 -0.1057
    3TYR     BB  153   1.209   0.454   6.538 -0.0889 -0.3447  0.1139
    3TYR    SC1  154   1.499   0.342   6.568  0.1637  0.3277  0.1326
    3TYR    SC2  155   1.670   0.136   6.600 -0.0797  0.1248  0.1654
    3TYR    SC3  156   1.726   0.376   6.710  0.1289  0.0323  0.2678
    1TYR     BB  157   4.243   1.152   7.159  0.4457 -0.3657  0.2744
    1TYR    SC1  158   4.177   1.189   7.431 -0.1040 -0.1296  0.0234
    1TYR    SC2  159   4.108   1.139   7.687  0.0069 -0.0202  0.0760
    1TYR    SC3  160   4.223   1.375   7.622 -0.0243 -0.0458 -0.0754
    2TRP     BB  161   3.872   1.165   6.992 -0.0883  0.2901 -0.0384
    2TRP    SC1  162   3.779   0.994   7.235  0.2807  0.2304 -0.0296
    2TRP    SC2  163   3.793   0.862   7.469  0.0825  0.1788 -0.0449
    2TRP    SC3  164   3.872   0.741   7.241  0.3050  0.2397 -0.0034
    2TRP    SC4  165   3.901   0.615   7.478 -0.1374  0.0804 -0.0216
    3TYR     BB  166   3.808   1.050   6.705 -0.1760 -0.2536 -0.4059
    3TYR    SC1  167   3.559   1.219   6.636 -0.1589 -0.0279  0.1956
    3TYR    SC2  168   3.370   1.062   6.523 -0.2217  0.0703  0.1615
    3TYR    SC3  169   3.316   1.321   6.576 -0.0535  0.1346  0.0313
    1TYR     BB  170   1.111   0.363   1.484  0.2053 -0.0829 -0.1764
    1TYR    SC1  171   0.827   0.454   1.460  0.0036  0.3925  0.1307
    1TYR    SC2  172   0.610   0.543   1.327 -0.0235 -0.0651 -0.1614
    1TYR    SC3  173   0.587   0.458   1.582 -0.1322  0.1108 -0.1103
    2TRP     BB  174   1.255   0.621   1.635  0.0777 -0.0539  0.0891
    2TRP    SC1  175   1.054   0.802   1.728 -0.1122  0.1141 -0.0009
    2TRP    SC2  176   0.950   1.042   1.796 -0.0430  0.1547 -0.0380
    2TRP    SC3  177   0.797   0.860   1.668 -0.0908  0.1851 -0.0245
    2TRP    SC4  178   0.684   1.081   1.774 -0.0860  0.0569  0.2583
    3TYR     BB  179   1.419   0.869   1.438 -0.2494  0.1717  0.1459
    3TYR    SC1  180   1.293   1.154   1.451 -0.2867  0.1896  0.2307
    3TYR    SC2  181   1.363   1.331   1.643 -0.1489  0.1283  0.2384
    3TYR    SC3  182   1.132   1.362   1.508  0.0013  0.4752  0.0459
    1TYR     BB  183   2.106   0.094   2.898 -0.0456 -0.1638 -0.0928
    1TYR    SC1  184   2.002  -0.138   2.803 -0.0852  0.1723 -0.0690
    1TYR    SC2  185   1.854  -0.343   2.898  0.1013  0.1858  0.2692
    1TYR    SC3  186   2.085  -0.392   2.768 -0.1336  0.1690 -0.1627
    2TRP     BB  187   2.336   0.069   3.087  0.0682 -0.1481  0.2122
    2TRP    SC1  188   2.267  -0.187   3.241 -0.0074  0.2589 -0.1838
    2TRP    SC2  189   2.298  -0.414   3.385  0.2792  0.2885 -0.1911
    2TRP    SC3  190   2.327  -0.420   3.117 -0.1163  0.2605 -0.2403
    2TRP    SC4  191   2.351  -0.647   3.260 -0.1998  0.2191 -0.2906
    3TYR     BB  192   2.630   0.097   3.165 -0.2892  0.1773  0.2637
    3TYR    SC1  193   2.898   0.136   3.026  0.0604  0.0647 -0.1481
    3TYR    SC2  194   3.161   0.184   2.989  0.0527  0.1999 -0.0382
    3TYR    SC3  195   3.020   0.052   2.800  0.2609 -0.1280  0.0254
    1TYR     BB  196   5.519   0.272   2.749  0.1211  0.3773  0.1016
    1TYR    SC1  197   5.642   0.313   2.447  0.2421  0.1687 -0.0852
    1TYR    SC2  198   5.780   0.498   2.306  0.0888  0.1064 -0.3229
    1TYR    SC3  199   5.658   0.294   2.178  0.1609 -0.0988 -0.0739
    2TRP     BB  200   5.229   0.210   2.768  0.0405 -0.0670 -0.1785
    2TRP    SC1  201   5.100   0.399   3.041 -0.1476 -0.1161 -0.0611
    2TRP    SC2  202   5.079   0.604   3.216 -0.2440 -0.0424 -0.1577
    2TRP    SC3  203   5.297   0.583   3.057  0.0360 -0.3272  0.2404
    2TRP    SC4  204   5.281   0.781   3.241 -0.3569  0.0971 -0.2128
    3TYR     BB  205   5.124  -0.105   2.725 -0.3516  0.0085 -0.1403
    3TYR    SC1  206   4.938  -0.183   3.004 -0.2446 -0.0966 -0.1951
    3TYR    SC2  207   4.730  -0.259   3.158 -0.1827 -0.1246 -0.1242
    3TYR    SC3  208   4.978  -0.350   3.213 -0.1259  0.0364 -0.1090
    1TYR     BB  209   1.123   1.284   4.275  0.0368 -0.0255 -0.2768
    1TYR    SC1  210   1.085   1.338   3.930  0.2228 -0.2655 -0.2693
    1TYR    SC2  211   1.153   1.504   3.728  0.3587 -0.1470 -0.1295
    1TYR    SC3  212   0.980   1.301   3.684  0.1357  0.0704 -0.2888
    2TRP     BB  213   0.877   1.386   4.434  0.2250 -0.0359  0.2025
    2TRP    SC1  214   1.004   1.611   4.599 -0.1966  0.4479  0.1172
    2TRP    SC2  215   1.102   1.831   4.721  0.1003  0.1454  0.4566
    2TRP    SC3  216   1.268   1.668   4.583 -0.1627  0.2630 -0.0263
    2TRP    SC4  217   1.357   1.907   4.672  0.0794  0.0829  0.2400
    3TYR     BB  218   0.706   1.133   4.523  0.4114  0.0172  0.0949
    3TYR    SC1  219   0.486   1.082   4.627  0.2854 -0.4346  0.2168
    3TYR    SC2  220   0.353   0.984   4.841 -0.1335 -0.4618 -0.0408
    3TYR    SC3  221   0.322   1.243   4.769  0.2965 -0.3495  0.1347
    1TYR     BB  222   4.459   1.009   2.573 -0.1734  0.1259 -0.1112
    1TYR    SC1  223   4.335   0.815   2.745 -0.0255 -0.2134 -0.1195
    1TYR    SC2  224   4.143   0.644   2.826 -0.1744  0.0379  0.0756
    1TYR    SC3  225   4.393   0.554   2.781 -0.2759 -0.2485  0.0608
    2TRP     BB  226   4.750   1.151   2.531  0.2412 -0.2803 -0.0718
    2TRP    SC1  227   4.816   1.348   2.764 -0.0004  0.2158 -0.4978
    2TRP    SC2  228   4.873   1.565   2.915 -0.1252  0.0653 -0.2248
    2TRP    SC3  229   4.940   1.561   2.653 -0.1680  0.4518 -0.2486
    2TRP    SC4  230   5.007   1.773   2.807  0.2306  0.0538  0.1640
    3TYR     BB  231   5.024   1.060   2.369  0.0102  0.0676 -0.0645
    3TYR    SC1  232   5.215   1.290   2.457 -0.1809  0.1890  0.1633
    3TYR    SC2  233   5.358   1.426   2.272  0.0174  0.1972  0.3194
    3TYR    SC3  234   5.339   1.520   2.525  0.1388 -0.0481  0.4252
    1TYR     BB  235   3.483   0.541   0.788  0.1145  0.2619  0.2282
    1TYR    SC1  236   3.328   0.717   0.560  0.0316 -0.1471 -0.0147
    1TYR    SC2  237   3.133   0.725   0.374 -0.0485 -0.0135  0.0729
    1TYR    SC3  238   3.270   0.949   0.435  0.2039 -0.1268 -0.0601
    2TRP     BB  239   3.598   0.250   0.643 -0.0814 -0.1144  0.2286
    2TRP    SC1  240   3.362   0.127   0.473 -0.1243 -0.0067  0.1397
    2TRP    SC2  241   3.140   0.037   0.350 -0.0435 -0.1014  0.0608
    2TRP    SC3  242   3.145   0.286   0.453 -0.1420 -0.0519 -0.0506
    2TRP    SC4  243   2.925   0.198   0.325 -0.1328 -0.2212  0.0467
    3TYR     BB  244   3.864   0.275   0.550  0.4584 -0.0752 -0.1321
    3TYR    SC1  245   4.064   0.349   0.326 -0.1893  0.1160 -0.1519
    3TYR    SC2  246   4.224   0.555   0.258  0.1719 -0.1015  0.0045
    3TYR    SC3  247   4.205   0.340   0.096 -0.2908  0.0868 -0.2140
    1TYR     BB  248   0.146   0.316   7.576 -0.2164 -0.2707 -0.1481
    1TYR    SC1  249   0.100   0.117   7.754 -0.0200 -0.0725 -0.2605
    1TYR    SC2  250  -0.015   0.082   7.995  0.1362  0.4065 -0.1020
    1TYR    SC3  251   0.215  -0.046   7.936 -0.0127  0.1218 -0.0865
    2TRP     BB  252   0.452   0.585   7.547 -0.1294 -0.1116  0.0173
    2TRP    SC1  253   0.346   0.654   7.266 -0.0420  0.0206  0.1678
    2TRP    SC2  254   0.302   0.745   7.016  0.2716 -0.1448  0.0460
    2TRP    SC3  255   0.443   0.895   7.191  0.0459 -0.0258  0.1306
    2TRP    SC4  256   0.379   0.995   6.948 -0.0523 -0.0067  0.1637
    3TYR     BB  257   0.614   0.818   7.658  0.1611  0.2337 -0.0260
    3TYR    SC1  258   0.708   0.848   7.954 -0.0871  0.1164  0.0957
    3TYR    SC2  259   0.789   0.678   8.147 -0.1296  0.2512  0.2347
    3TYR    SC3  260   0.859   0.938   8.159 -0.1263  0.2594  0.0629
    1TYR     BB  261   1.881   0.710   6.349  0.3193 -0.2137  0.1480
    1TYR    SC1  262   2.029   0.627   6.100 -0.0504  0.2459  0.1150
    1TYR    SC2  263   1.955   0.738   5.865 -0.0147  0.1139  0.0400
    1TYR    SC3  264   2.100   0.510   5.867 -0.2480 -0.0397  0.1913
    2TRP     BB  265   2.024   0.866   6.590 -0.0258 -0.0980  0.0786
    2TRP    SC1  266   2.115   0.649   6.792  0.2747 -0.2403 -0.0761
    2TRP    SC2  267   2.153   0.489   7.006  0.1177 -0.1068  0.0554
    2TRP    SC3  268   2.257   0.738   7.004  0.3382 -0.1950 -0.1370
    2TRP    SC4  269   2.254   0.595   7.233  0.1873 -0.0108 -0.0196
    3TYR     BB  270   1.970   1.143   6.757 -0.1065 -0.0634  0.0517
    3TYR    SC1  271   2.100   1.352   6.583  0.2120 -0.0177  0.0254
    3TYR    SC2  272   2.109   1.589   6.454 -0.0906 -0.0313 -0.0298
    3TYR    SC3  273   2.311   1.412   6.425  0.1159  0.1956 -0.0266
    1TYR     BB  274   1.996   0.321   2.477  0.2032 -0.1763 -0.0260
    1TYR    SC1  275   2.094   0.588   2.607 -0.2067 -0.3287  0.0583
    1TYR    SC2  276   2.335   0.671   2.697 -0.1851 -0.3806  0.0488
    1TYR    SC3  277   2.120   0.678   2.860 -0.2105 -0.1863  0.0091
    2TRP     BB  278   1.690   0.145   2.446  0.3512 -0.2297 -0.5283
    2TRP    SC1  279   1.794  -0.129   2.433  0.0241 -0.0162  0.0817
    2TRP    SC2  280   1.829  -0.395   2.401 -0.0329 -0.0264  0.1023
    2TRP    SC3  281   1.601  -0.301   2.510 -0.0806  0.0393 -0.0503
    2TRP    SC4  282   1.641  -0.568   2.489 -0.1599  0.0279 -0.0581
    3TYR     BB  283   1.501   0.258   2.397 -0.1696  0.0473 -0.3426
    3TYR    SC1  284   1.249   0.381   2.507 -0.2760  0.0261 -0.0379
    3TYR    SC2  285   1.027   0.395   2.661 -0.3423  0.1766 -0.1437
    3TYR    SC3  286   1.151   0.622   2.581  0.1761  0.1032  0.3695
    1TYR     BB  287   2.505   0.193   2.608 -0.1644 -0.0169  0.0859
    1TYR    SC1  288   2.572  -0.111   2.693  0.0136  0.0334 -0.0540
    1TYR    SC2  289   2.652  -0.307   2.861  0.3761  0.1727 -0.0531
    1TYR    SC3  290   2.527  -0.370   2.630  0.3092 -0.0453  0.0395
    2TRP     BB  291   2.744   0.347   2.516 -0.3101  0.1308 -0.0954
    2TRP    SC1  292   2.881   0.484   2.725 -0.1384  0.1762 -0.3070
    2TRP    SC2  293   2.989   0.550   2.964 -0.1411 -0.0174 -0.2497
    2TRP    SC3  294   2.720   0.544   2.934 -0.1453 -0.2249 -0.1864
    2TRP    SC4  295   2.828   0.583   3.178 -0.1150 -0.0326 -0.2279
    3TYR     BB  296   2.994   0.291   2.312  0.2095  0.2543  0.1859
    3TYR    SC1  297   3.260   0.211   2.403 -0.3193 -0.3639  0.3750
    3TYR    SC2  298   3.494   0.187   2.535 -0.1862 -0.0977  0.1998
    3TYR    SC3  299   3.446   0.035   2.317 -0.0116  0.1076  0.0130
    1TYR     BB  300   0.274   7.555   6.088 -0.0274  0.2412  0.0349
    1TYR    SC1  301   0.448   7.326   6.193 -0.2033 -0.3025 -0.3402
    1TYR    SC2  302   0.597   7.277   6.412 -0.4377  0.2478 -0.0304
    1TYR    SC3  303   0.640   7.136   6.185  0.0257 -0.1240  0.2621
    2TRP     BB  304   0.388   7.750   5.915 -0.2847 -0.3628 -0.1003
    2TRP    SC1  305   0.265   7.943   5.732 -0.1701 -0.1074  0.2148
    2TRP    SC2  306   0.253   8.169   5.585 -0.0461 -0.1655  0.1129
    2TRP    SC3  307   0.216   8.180   5.852 -0.1924 -0.0475  0.0895
    2TRP    SC4  308   0.236   8.408   5.709 -0.1226 -0.1100 -0.0021
    3TYR     BB  309   0.660   7.655   5.714 -0.0437 -0.1044  0.1932
    3TYR    SC1  310   0.863   7.473   5.872  0.0155 -0.0085  0.0209
    3TYR    SC2  311   0.974   7.227   5.862 -0.1283 -0.0751  0.0295
    3TYR    SC3  312   1.113   7.434   5.965  0.1381 -0.0706 -0.3185
    1TYR     BB  313   0.489   1.629   4.450  0.1476  0.0015  0.0170
    1TYR    SC1  314   0.195   1.652   4.346  0.0320 -0.0354 -0.0915
    1TYR    SC2  315   0.017   1.785   4.193  0.1006  0.1386 -0.0223
    1TYR    SC3  316  -0.067   1.586   4.355  0.0312 -0.0707 -0.3055
    2TRP     BB  317   0.650   1.910   4.464  0.3233 -0.1228 -0.0144
    2TRP    SC1  318   0.867   1.837   4.229 -0.0482 -0.0264 -0.0887
    2TRP    SC2  319   1.115   1.775   4.142 -0.0024 -0.1179  0.0983
    2TRP    SC3  320   1.079   1.984   4.309  0.0042 -0.3203  0.3603
    2TRP    SC4  321   1.324   1.933   4.207 -0.0563 -0.0243  0.0461
    3TYR     BB  322   0.641   2.048   4.741 -0.0096 -0.1358 -0.2423
    3TYR    SC1  323   0.493   2.062   5.007 -0.0073  0.0977  0.3119
    3TYR    SC2  324   0.418   2.278   5.149  0.3658  0.2004  0.3674
    3TYR    SC3  325   0.493   2.053   5.277  0.1113  0.0794  0.3121
    1TYR     BB  326   0.071   0.193   5.308 -0.0123  0.0372 -0.3003
    1TYR    SC1  327   0.118  -0.023   5.043 -0.2326 -0.0267  0.1796
    1TYR    SC2  328   0.075   0.030   4.782 -0.4652  0.0583  0.2320
    1TYR    SC3  329   0.173  -0.210   4.857 -0.4631  0.0081  0.0729
    2TRP     BB  330   0.027  -0.062   5.559 -0.0847 -0.0823 -0.0406
    2TRP    SC1  331   0.272  -0.268   5.628 -0.2320 -0.1757 -0.2627
    2TRP    SC2  332   0.496  -0.409   5.576 -0.2735 -0.2617 -0.2119
    2TRP    SC3  333   0.337  -0.480   5.783 -0.1718  0.0024 -0.0370
    2TRP    SC4  334   0.563  -0.619   5.733  0.0021  0.1613  0.2728
    3TYR     BB  335  -0.143  -0.078   5.731 -0.2694 -0.1201  0.0270
    3TYR    SC1  336  -0.449  -0.129   5.864 -0.3048  0.3020 -0.2632
    3TYR    SC2  337  -0.713  -0.125   5.806 -0.3240  0.1254 -0.1973
    3TYR    SC3  338  -0.631  -0.184   6.056 -0.2327  0.5772 -0.1093
    1TYR     BB  339   5.875   7.465   4.587  0.0595 -0.0572  0.2092
    1TYR    SC1  340   5.874   7.181   4.524  0.2701 -0.3140 -0.6072
    1TYR    SC2  341   5.703   7.032   4.376 -0.1764 -0.3789 -0.0666
    1TYR    SC3  342   5.785   6.944   4.618 -0.0281  0.0227  0.0400
    2TRP     BB  343   5.705   7.604   4.368 -0.0180 -0.3844  0.1298
    2TRP    SC1  344   5.765   7.483   4.110 -0.1213 -0.0168 -0.0671
    2TRP    SC2  345   5.830   7.314   3.910  0.2014  0.1788 -0.1366
    2TRP    SC3  346   6.009   7.368   4.105 -0.0209  0.1811  0.0732
    2TRP    SC4  347   6.071   7.193   3.908  0.2173  0.1994  0.1287
    3TYR     BB  348   5.606   7.939   4.472 -0.0860  0.2148 -0.0450
    3TYR    SC1  349   5.789   8.000   4.745 -0.1060 -0.1286 -0.1038
    3TYR    SC2  350   5.881   8.224   4.865  0.2401 -0.1686 -0.2794
    3TYR    SC3  351   5.800   8.014   5.014  0.0159  0.0278 -0.1148
    1TYR     BB  352   2.966   1.254   6.955  0.0717  0.0878 -0.3399
    1TYR    SC1  353   2.910   0.886   6.986 -0.2430  0.1204 -0.1011
    1TYR    SC2  354   2.759   0.697   7.105  0.0891  0.0958  0.3085
    1TYR    SC3  355   2.944   0.626   6.922 -0.2737  0.1120 -0.0839
    2TRP     BB  356   2.839   1.482   7.142  0.2444 -0.1904  0.0782
    2TRP    SC1  357   3.013   1.447   7.391 -0.2064  0.2172  0.2225
    2TRP    SC2  358   3.169   1.423   7.610  0.1314 -0.0772 -0.0362
    2TRP    SC3  359   2.982   1.236   7.556  0.2802 -0.1917 -0.1679
    2TRP    SC4  360   3.138   1.212   7.775 -0.1355  0.1265  0.1858
    3TYR     BB  361   2.725   1.768   7.121 -0.1408 -0.1021 -0.0394
    3TYR    SC1  362   2.451   1.812   7.044 -0.1802  0.1097  0.1020
    3TYR    SC2  363   2.294   1.702   6.854  0.1703  0.2011 -0.2574
    3TYR    SC3  364   2.200   1.904   7.007 -0.0664  0.2430 -0.4510
    1TYR     BB  365   1.419   0.074   7.611  0.0161  0.1749 -0.0464
    1TYR    SC1  366   1.428  -0.198   7.703 -0.2288  0.0567  0.0406
    1TYR    SC2  367   1.286  -0.414   7.780 -0.0071 -0.1188 -0.0309
    1TYR    SC3  368   1.556  -0.428   7.765  0.0066  0.1502 -0.0819
    2TRP     BB  369   1.225   0.345   7.540  0.0525  0.1611 -0.1666
    2TRP    SC1  370   1.246   0.314   7.261 -0.3386  0.2013  0.0938
    2TRP    SC2  371   1.292   0.273   6.999  0.4161  0.0949  0.2157
    2TRP    SC3  372   1.225   0.066   7.158 -0.0545  0.1618  0.1207
    2TRP    SC4  373   1.307   0.020   6.905 -0.1307  0.0866  0.1088
    3TYR     BB  374   1.068   0.538   7.724 -0.1005 -0.0091 -0.0816
    3TYR    SC1  375   0.832   0.323   7.796 -0.1709 -0.0193 -0.1135
    3TYR    SC2  376   0.749   0.183   8.012  0.1614  0.1192  0.1141
    3TYR    SC3  377   0.606   0.176   7.783 -0.0106 -0.3146  0.2234
    1TYR     BB  378   1.263   7.520   1.465 -0.0904  0.2551  0.0887
    1TYR    SC1  379   1.062   7.297   1.439  0.2753  0.0550 -0.2920
    1TYR    SC2  380   0.953   7.096   1.296  0.0639  0.1232 -0.2323
    1TYR    SC3  381   0.801   7.235   1.470  0.2964  0.0932  0.0047
    2TRP     BB  382   1.574   7.489   1.584  0.0881 -0.0114  0.2284
    2TRP    SC1  383   1.715   7.752   1.560  0.2306  0.1571  0.0292
    2TRP    SC2  384   1.845   7.931   1.405  0.1831  0.1921  0.0292
    2TRP    SC3  385   1.579   7.953   1.441  0.1915  0.1757  0.1043
    2TRP    SC4  386   1.708   8.126   1.279  0.1165  0.1076 -0.0300
    3TYR     BB  387   1.683   7.269   1.471 -0.5116  0.1780 -0.0660
    3TYR    SC1  388   1.814   7.007   1.573  0.3564  0.1502  0.2894
    3TYR    SC2  389   1.824   6.833   1.780  0.0007 -0.1179  0.0959
    3TYR    SC3  390   1.913   6.759   1.536 -0.0599  0.0105  0.0334
    1TYR     BB  391   1.673   0.852   4.278  0.0888 -0.0895 -0.1589
    1TYR    SC1  392   1.985   0.762   4.347 -0.0443 -0.1153 -0.0168
    1TYR    SC2  393   2.181   0.743   4.532 -0.1216 -0.0562  0.0726
    1TYR    SC3  394   2.243   0.783   4.272 -0.0205  0.1789  0.1304
    2TRP     BB  395   1.577   1.086   4.196 -0.0054  0.3165 -0.0698
    2TRP    SC1  396   1.473   1.101   3.931 -0.1526 -0.1352  0.3207
    2TRP    SC2  397   1.433   1.155   3.670  0.3143 -0.0148  0.2635
    2TRP    SC3  398   1.354   0.918   3.773  0.0264 -0.0203  0.0445
    2TRP    SC4  399   1.316   0.971   3.511  0.0625  0.2796  0.0951
    3TYR     BB  400   1.584   1.361   4.308 -0.0611  0.0731 -0.1675
    3TYR    SC1  401   1.591   1.562   4.071 -0.2641  0.1567  0.1147
    3TYR    SC2  402   1.697   1.788   3.967 -0.1767  0.0660  0.0043
    3TYR    SC3  403   1.586   1.603   3.804 -0.1080 -0.0424  0.0782
    1TYR     BB  404   0.848   0.611   4.856 -0.2250  0.1932  0.0414
    1TYR    SC1  405   0.700   0.621   4.589 -0.0605 -0.1108 -0.2072
    1TYR    SC2  406   0.486   0.711   4.451 -0.0352 -0.2543 -0.3444
    1TYR    SC3  407   0.634   0.508   4.353 -0.1269 -0.4906 -0.0163
    2TRP     BB  408   1.122   0.440   4.768 -0.0445  0.0286  0.0942
    2TRP    SC1  409   1.024   0.233   4.601  0.0164  0.0793 -0.1937
    2TRP    SC2  410   0.865   0.095   4.431 -0.0643  0.0391 -0.0879
    2TRP    SC3  411   0.790   0.128   4.688  0.2601 -0.2851  0.0597
    2TRP    SC4  412   0.632  -0.008   4.518  0.2075 -0.3839  0.1859
    3TYR     BB  413   1.336   0.342   5.041  0.1470  0.0091  0.0230
    3TYR    SC1  414   1.553   0.167   4.997  0.0107  0.0365 -0.0114
    3TYR    SC2  415   1.698  -0.034   4.889 -0.0714 -0.0132 -0.0309
    3TYR    SC3  416   1.713   0.017   5.154 -0.2150 -0.1877  0.0133
    1TYR     BB  417   1.563   0.389   0.347 -0.0419 -0.0949  0.2212
    1TYR    SC1  418   1.832   0.356   0.504  0.2771  0.0326 -0.2178
    1TYR    SC2  419   1.992   0.451   0.700 -0.1467  0.0182  0.1556
    1TYR    SC3  420   2.029   0.200   0.605  0.1082  0.0503  0.1600
    2TRP     BB  421   1.389   0.093   0.515 -0.0280 -0.1279  0.4123
    2TRP    SC1  422   1.533  -0.197   0.528 -0.1531  0.1147  0.0681
    2TRP    SC2  423   1.579  -0.444   0.628 -0.2037  0.0688 -0.0210
    2TRP    SC3  424   1.329  -0.370   0.557 -0.1917  0.1520  0.0213
    2TRP    SC4  425   1.374  -0.616   0.659 -0.2294  0.0770 -0.1394
    3TYR     BB  426   1.153   0.119   0.561 -0.1657  0.1216 -0.0364
    3TYR    SC1  427   0.996  -0.122   0.705  0.0448  0.3325  0.3759
    3TYR    SC2  428   0.746  -0.213   0.656  0.0420  0.3793  0.3008
    3TYR    SC3  429   0.915  -0.357   0.810  0.1509  0.0764 -0.0806
    1TYR     BB  430   3.689   0.100   0.116 -0.2359  0.0324 -0.0116
    1TYR    SC1  431   3.437  -0.069  -0.012 -0.0915  0.0040 -0.1533
    1TYR    SC2  432   3.282  -0.237  -0.156  0.2982 -0.5361  0.0188
    1TYR    SC3  433   3.326  -0.285   0.106  0.2842 -0.0493  0.1218
    2TRP     BB  434   3.503   0.408   0.118 -0.3666  0.0794  0.2012
    2TRP    SC1  435   3.624   0.678   0.211 -0.1636  0.3375  0.3416
    2TRP    SC2  436   3.710   0.932   0.242  0.4159  0.2262 -0.1283
    2TRP    SC3  437   3.801   0.737   0.406  0.3051  0.2514 -0.0351
    2TRP    SC4  438   3.900   0.987   0.426  0.2580  0.2654  0.0260
    3TYR     BB  439   3.269   0.439  -0.019 -0.0210  0.2406  0.2174
    3TYR    SC1  440   3.242   0.683  -0.158  0.0149  0.1964  0.1446
    3TYR    SC2  441   3.055   0.856  -0.248 -0.0305 -0.0583 -0.2828
    3TYR    SC3  442   3.283   0.949  -0.137 -0.3307  0.2590  0.1028
    1TYR     BB  443   4.571   1.331   0.807  0.1152  0.0037 -0.1218
    1TYR    SC1  444   4.383   1.461   0.636  0.0847 -0.0910  0.0422
    1TYR    SC2  445   4.221   1.654   0.538 -0.1684 -0.0577  0.4912
    1TYR    SC3  446   4.207   1.403   0.440 -0.0787  0.0694  0.1367
    2TRP     BB  447   4.271   1.143   0.991 -0.0363 -0.1823  0.0879
    2TRP    SC1  448   4.426   0.912   1.062  0.0069 -0.0475  0.3487
    2TRP    SC2  449   4.586   0.698   1.022  0.1390  0.0946  0.0736
    2TRP    SC3  450   4.692   0.931   1.107  0.0105  0.0814  0.2800
    2TRP    SC4  451   4.851   0.717   1.067  0.1166  0.1781  0.1773
    3TYR     BB  452   4.000   1.212   0.890  0.1046 -0.2190  0.0963
    3TYR    SC1  453   3.802   1.408   1.056  0.1729 -0.0131  0.0691
    3TYR    SC2  454   3.543   1.464   1.005  0.1442 -0.0896  0.1285
    3TYR    SC3  455   3.679   1.609   1.187  0.1132 -0.1164  0.1733
    1TYR     BB  456   7.062   0.767   5.253 -0.2874 -0.0576  0.1297
    1TYR    SC1  457   7.219   0.589   5.007  0.0949  0.2894 -0.2918
    1TYR    SC2  458   7.368   0.364   5.000 -0.0242  0.2064 -0.2097
    1TYR    SC3  459   7.395   0.550   4.806 -0.0592  0.0349 -0.3830
    2TRP     BB  460   6.780   0.885   5.199  0.0122 -0.0102  0.1507
    2TRP    SC1  461   6.692   1.157   5.377 -0.1898 -0.2903  0.1189
    2TRP    SC2  462   6.670   1.354   5.560 -0.1406 -0.1610 -0.0106
    2TRP    SC3  463   6.666   1.095   5.638 -0.1404 -0.1088  0.1689
    2TRP    SC4  464   6.636   1.292   5.821  0.1934  0.0286  0.0852
    3TYR     BB  465   6.571   0.843   5.065 -0.1311  0.4717  0.3024
    3TYR    SC1  466   6.251   0.896   5.182 -0.1501 -0.0604 -0.0289
    3TYR    SC2  467   6.018   0.945   5.055 -0.0077 -0.1262 -0.3281
    3TYR    SC3  468   6.022   0.789   5.276 -0.2974  0.2006 -0.0768
    1TYR     BB  469   2.576   1.488   7.565 -0.0795  0.1259 -0.0547
    1TYR    SC1  470   2.500   1.216   7.482  0.1011  0.1342 -0.0400
    1TYR    SC2  471   2.427   0.956   7.476 -0.2145  0.2171 -0.0655
    1TYR    SC3  472   2.606   1.051   7.297 -0.4222  0.1068 -0.3408
    2TRP     BB  473   2.604   1.513   7.843  0.1428  0.3592  0.0150
    2TRP    SC1  474   2.516   1.779   7.950  0.2028  0.3517  0.0093
    2TRP    SC2  475   2.389   1.979   8.080 -0.0929  0.0702  0.1711
    2TRP    SC3  476   2.554   1.814   8.215  0.0839  0.1492  0.0556
    2TRP    SC4  477   2.437   2.021   8.342  0.2490  0.2230  0.0908
    3TYR     BB  478   2.699   1.327   8.075  0.1187 -0.3257 -0.0171
    3TYR    SC1  479   2.747   1.021   7.987 -0.2076 -0.0243  0.1290
    3TYR    SC2  480   2.690   0.757   7.995  0.2409 -0.1416 -0.1143
    3TYR    SC3  481   2.799   0.865   7.773 -0.0501  0.2834 -0.0658
    1TYR     BB  482   2.804   1.319   2.273  0.4726 -0.0156  0.0027
    1TYR    SC1  483   2.787   1.048   2.424 -0.1356  0.0569  0.3007
    1TYR    SC2  484   2.687   0.883   2.614  0.0024 -0.3071  0.0714
    1TYR    SC3  485   2.680   0.810   2.354  0.1774  0.0015 -0.0272
    2TRP     BB  486   2.515   1.458   2.241  0.0381  0.4374  0.1487
    2TRP    SC1  487   2.351   1.196   2.341  0.0422  0.0247  0.2936
    2TRP    SC2  488   2.234   0.954   2.368  0.2095 -0.1442 -0.3031
    2TRP    SC3  489   2.111   1.149   2.227  0.0322  0.1718  0.2513
    2TRP    SC4  490   1.985   0.914   2.272  0.1386  0.0175 -0.1910
    3TYR     BB  491   2.475   1.723   2.058  0.0005 -0.2282  0.1072
    3TYR    SC1  492   2.235   1.899   2.049  0.3051 -0.0753  0.1854
    3TYR    SC2  493   2.159   2.158   2.040  0.1001 -0.1384 -0.0388
    3TYR    SC3  494   1.977   1.966   2.092  0.2344 -0.2469  0.0396
    1TYR     BB  495   3.601   0.750   2.645  0.2088  0.1871  0.2383
    1TYR    SC1  496   3.544   0.533   2.839 -0.1945 -0.0869  0.1708
    1TYR    SC2  497   3.608   0.302   2.963 -0.1470 -0.1129  0.0993
    1TYR    SC3  498   3.484   0.499   3.099  0.0746 -0.0659  0.2399
    2TRP     BB  499   3.827   0.934   2.541  0.0843  0.0502 -0.0261
    2TRP    SC1  500   4.024   0.790   2.367 -0.2299 -0.1452 -0.3324
    2TRP    SC2  501   4.254   0.658   2.316 -0.1139 -0.0807 -0.0033
    2TRP    SC3  502   4.027   0.520   2.367 -0.0900 -0.1474 -0.0761
    2TRP    SC4  503   4.265   0.391   2.361 -0.0822 -0.1278 -0.2714
    3TYR     BB  504   3.931   1.094   2.800 -0.0398  0.0813 -0.0170
    3TYR    SC1  505   4.205   1.257   2.871  0.1328 -0.1790  0.0304
    3TYR    SC2  506   4.354   1.445   2.747  0.0218 -0.2621 -0.2367
    3TYR    SC3  507   4.421   1.362   2.995  0.0120  0.2038 -0.0657
    1TYR     BB  508   0.780   2.490   4.924  0.0671 -0.1928 -0.0532
    1TYR    SC1  509   0.573   2.668   4.984  0.2774  0.0627 -0.0792
    1TYR    SC2  510   0.409   2.727   5.190  0.2134 -0.0785 -0.0887
    1TYR    SC3  511   0.411   2.884   4.971 -0.0855 -0.2031 -0.1882
    2TRP     BB  512   1.058   2.580   5.014 -0.0443  0.0364 -0.3111
    2TRP    SC1  513   0.949   2.860   5.138 -0.4222 -0.0971 -0.0128
    2TRP    SC2  514   0.842   3.108   5.151 -0.2797 -0.0305 -0.0891
    2TRP    SC3  515   0.973   3.029   4.928  0.1536  0.0260  0.1323
    2TRP    SC4  516   0.871   3.278   4.943  0.0294 -0.0125 -0.0381
    3TYR     BB  517   1.392   2.722   4.929  0.2701 -0.1127  0.0336
    3TYR    SC1  518   1.396   2.934   5.109  0.0535  0.1978 -0.2694
    3TYR    SC2  519   1.541   3.028   5.316 -0.1177 -0.3201  0.1107
    3TYR    SC3  520   1.328   3.167   5.227  0.3819  0.2858 -0.2417
    1TYR     BB  521   1.116   7.305   1.959  0.2992 -0.3139  0.1173
    1TYR    SC1  522   0.883   7.528   1.845  0.1239 -0.2458  0.2256
    1TYR    SC2  523   0.721   7.743   1.867  0.2136 -0.1757  0.2123
    1TYR    SC3  524   0.796   7.655   1.623  0.0687 -0.3062  0.2123
    2TRP     BB  525   1.231   7.503   2.181  0.1950 -0.1067  0.0448
    2TRP    SC1  526   0.969   7.671   2.312 -0.0909 -0.3609  0.0048
    2TRP    SC2  527   0.711   7.733   2.360 -0.0930 -0.3380 -0.0358
    2TRP    SC3  528   0.796   7.479   2.388 -0.0815 -0.3158  0.1446
    2TRP    SC4  529   0.539   7.542   2.441 -0.2264 -0.3831 -0.4018
    3TYR     BB  530   1.307   7.811   1.963 -0.0050  0.0754  0.0228
    3TYR    SC1  531   1.039   7.987   1.969 -0.1479  0.0622 -0.4178
    3TYR    SC2  532   0.810   8.130   1.971 -0.1317  0.1186  0.2400
    3TYR    SC3  533   0.937   8.076   2.203  0.4283 -0.0792 -0.0882
    1TYR     BB  534   1.824   1.137   4.667 -0.0056 -0.0375  0.1264
    1TYR    SC1  535   2.033   1.217   4.469  0.2105  0.2711  0.1343
    1TYR    SC2  536   2.151   1.280   4.234  0.1720  0.1033  0.0677
    1TYR    SC3  537   2.299   1.187   4.439  0.1752  0.0298  0.0323
    2TRP     BB  538   1.803   1.311   4.906 -0.1818  0.0396  0.0051
    2TRP    SC1  539   1.730   1.218   5.175 -0.0266 -0.0784  0.0154
    2TRP    SC2  540   1.703   1.160   5.437 -0.0517 -0.0122  0.0276
    2TRP    SC3  541   1.933   1.102   5.309 -0.0975 -0.1939  0.0244
    2TRP    SC4  542   1.920   1.081   5.578  0.0093  0.2225  0.0707
    3TYR     BB  543   1.744   1.597   4.776  0.0816 -0.0065 -0.0580
    3TYR    SC1  544   1.960   1.648   4.577  0.2516  0.1038 -0.0229
    3TYR    SC2  545   1.973   1.729   4.320  0.1284 -0.1348 -0.1083
    3TYR    SC3  546   2.200   1.678   4.456  0.1930 -0.0507 -0.1827
    1TYR     BB  547   4.647   7.501   2.378  0.2272  0.2148 -0.1629
    1TYR    SC1  548   4.615   7.321   2.585  0.1660 -0.1698  0.0296
    1TYR    SC2  549   4.476   7.285   2.813  0.3185 -0.0631  0.1422
    1TYR    SC3  550   4.706   7.150   2.773  0.4876  0.1926  0.2219
    2TRP     BB  551   4.831   7.805   2.443 -0.0401  0.1640 -0.0810
    2TRP    SC1  552   4.754   7.892   2.712  0.5467 -0.2792  0.0000
    2TRP    SC2  553   4.689   7.922   2.973 -0.3318  0.5022 -0.2404
    2TRP    SC3  554   4.556   7.743   2.820  0.0863  0.1441 -0.2084
    2TRP    SC4  555   4.519   7.746   3.088  0.1617  0.0207 -0.1952
    3TYR     BB  556   5.132   7.903   2.278 -0.0752 -0.0655 -0.0203
    3TYR    SC1  557   5.271   7.648   2.289 -0.0795 -0.1421  0.4149
    3TYR    SC2  558   5.221   7.411   2.171  0.0351 -0.0597  0.1950
    3TYR    SC3  559   5.453   7.449   2.303  0.2547  0.0860 -0.2098
    1TYR     BB  560   0.175   0.869   6.519  0.0918  0.1107 -0.1117
    1TYR    SC1  561   0.183   1.175   6.460  0.1027  0.0118 -0.2148
    1TYR    SC2  562   0.257   1.402   6.333  0.2064  0.0834 -0.0324
    1TYR    SC3  563   0.006   1.376   6.429  0.2636  0.2248  0.1619
    2TRP     BB  564   0.120   0.617   6.334 -0.2160 -0.3187 -0.3944
    2TRP    SC1  565  -0.163   0.649   6.217 -0.0404  0.0317 -0.2259
    2TRP    SC2  566  -0.428   0.697   6.208 -0.0248  0.2168  0.0892
    2TRP    SC3  567  -0.325   0.550   6.409  0.1157  0.1571 -0.0240
    2TRP    SC4  568  -0.591   0.593   6.397  0.0948  0.0781  0.1186
    3TYR     BB  569   0.303   0.377   6.340 -0.1033  0.3224  0.2236
    3TYR    SC1  570   0.315   0.155   6.573 -0.0729 -0.0208  0.1528
    3TYR    SC2  571   0.213  -0.095   6.574  0.0639 -0.0779  0.1453
    3TYR    SC3  572   0.437  -0.040   6.714  0.2019 -0.0312 -0.0876
    1TYR     BB  573   0.625   0.321   0.792  0.1138  0.0885  0.2641
    1TYR    SC1  574   0.430   0.083   0.741 -0.0235 -0.0105 -0.2187
    1TYR    SC2  575   0.161   0.097   0.761  0.0129  0.2345  0.2963
    1TYR    SC3  576   0.288  -0.138   0.803 -0.1143  0.1149  0.0380
    2TRP     BB  577   0.932   0.313   0.966 -0.0167  0.0005  0.2479
    2TRP    SC1  578   0.942   0.645   0.965 -0.1141 -0.0796  0.0108
    2TRP    SC2  579   0.875   0.902   1.012 -0.1977 -0.1018  0.0147
    2TRP    SC3  580   1.036   0.771   1.184  0.0991  0.0403 -0.1440
    2TRP    SC4  581   0.944   1.017   1.246 -0.1417 -0.0773 -0.0136
    3TYR     BB  582   0.944   0.029   1.118  0.0755  0.4718 -0.1092
    3TYR    SC1  583   0.706  -0.119   1.134 -0.1410  0.1545  0.0422
    3TYR    SC2  584   0.575  -0.354   1.104  0.1817 -0.0345  0.0485
    3TYR    SC3  585   0.458  -0.149   1.235 -0.2132 -0.0938 -0.1930
    1TYR     BB  586   2.919   2.515   0.720 -0.1018 -0.1988  0.0577
    1TYR    SC1  587   3.170   2.555   0.623  0.1149  0.1213  0.0205
    1TYR    SC2  588   3.362   2.706   0.509  0.2383 -0.2906 -0.3513
    1TYR    SC3  589   3.418   2.560   0.729  0.1220  0.1680  0.0021
    2TRP     BB  590   2.793   2.337   0.846  0.0186 -0.0936 -0.1896
    2TRP    SC1  591   2.505   2.430   0.924  0.1566  0.1176 -0.1425
    2TRP    SC2  592   2.254   2.429   1.024  0.1525  0.1977 -0.1515
    2TRP    SC3  593   2.464   2.475   1.187  0.1956 -0.2480 -0.0672
    2TRP    SC4  594   2.213   2.503   1.280  0.2136  0.0393 -0.0946
    3TYR     BB  595   2.941   2.068   0.885  0.1913 -0.0548 -0.1293
    3TYR    SC1  596   3.243   2.066   0.786 -0.1584 -0.1236  0.0689
    3TYR    SC2  597   3.475   1.996   0.905 -0.1457 -0.0152  0.1098
    3TYR    SC3  598   3.478   2.122   0.666 -0.1405  0.3511  0.2942
    1TYR     BB  599   1.728   7.576   3.232  0.1627 -0.2859  0.1515
    1TYR    SC1  600   1.537   7.432   3.373  0.1397  0.3384 -0.2323
    1TYR    SC2  601   1.341   7.247   3.362  0.1554  0.3001  0.0459
    1TYR    SC3  602   1.468   7.296   3.595  0.5966  0.2011 -0.1609
    2TRP     BB  603   1.626   7.765   2.929 -0.0067  0.0205 -0.0686
    2TRP    SC1  604   1.349   7.676   2.862  0.0394  0.2207  0.0041
    2TRP    SC2  605   1.150   7.550   2.729 -0.0955  0.3327  0.0966
    2TRP    SC3  606   1.320   7.409   2.884 -0.0924  0.2340  0.0041
    2TRP    SC4  607   1.113   7.285   2.762 -0.0551  0.2974 -0.1260
    3TYR     BB  608   1.662   8.043   2.890 -0.2073  0.0448  0.1317
    3TYR    SC1  609   1.670   8.285   2.726 -0.0891 -0.1604 -0.0239
    3TYR    SC2  610   1.696   8.552   2.700 -0.2632 -0.1482 -0.0934
    3TYR    SC3  611   1.644   8.400   2.483 -0.1385 -0.2431 -0.0586
    1TYR     BB  612   1.004   0.564   3.558 -0.1843 -0.1655 -0.0860
    1TYR    SC1  613   0.801   0.333   3.547 -0.0737  0.0408 -0.4250
    1TYR    SC2  614   0.558   0.265   3.451 -0.1215  0.0670 -0.3239
    1TYR    SC3  615   0.739   0.073   3.507  0.0214  0.0620 -0.7533
    2TRP     BB  616   0.995   0.559   3.202  0.1101  0.0157 -0.0033
    2TRP    SC1  617   0.865   0.316   3.084 -0.1364 -0.2037  0.3573
    2TRP    SC2  618   0.732   0.119   2.955 -0.0509 -0.1050  0.1094
    2TRP    SC3  619   0.613   0.357   2.997 -0.0585 -0.1182  0.1650
    2TRP    SC4  620   0.503   0.180   2.826  0.0857  0.0210 -0.0794
    3TYR     BB  621   1.267   0.578   3.077 -0.3509  0.0122  0.0451
    3TYR    SC1  622   1.299   0.820   2.941 -0.2320  0.0599 -0.0985
    3TYR    SC2  623   1.353   1.079   2.995 -0.0657 -0.0160  0.1177
    3TYR    SC3  624   1.231   1.012   2.764 -0.2170  0.2644  0.1107
    1TYR     BB  625   3.595   0.593   2.182  0.0723 -0.0854  0.0405
    1TYR    SC1  626   3.770   0.809   2.044 -0.0210 -0.2833 -0.0064
    1TYR    SC2  627   3.793   1.077   2.028 -0.0652 -0.2634  0.2294
    1TYR    SC3  628   3.805   0.928   1.804 -0.2978 -0.0452  0.0640
    2TRP     BB  629   3.312   0.534   1.999 -0.2015  0.2301 -0.1771
    2TRP    SC1  630   3.033   0.602   1.967  0.0038 -0.1309 -0.1329
    2TRP    SC2  631   2.767   0.560   1.973 -0.0191  0.0227  0.0103
    2TRP    SC3  632   2.902   0.538   1.740 -0.1338 -0.1844 -0.0398
    2TRP    SC4  633   2.637   0.485   1.748 -0.1725  0.0177  0.0987
    3TYR     BB  634   3.437   0.487   1.750 -0.3679  0.2139 -0.1253
    3TYR    SC1  635   3.298   0.645   1.520 -0.2431  0.1544  0.1036
    3TYR    SC2  636   3.153   0.866   1.470 -0.1447  0.1968  0.0005
    3TYR    SC3  637   3.241   0.714   1.265 -0.0155  0.1905  0.0601
    1TYR     BB  638   3.170   0.787   2.424  0.0712 -0.1178  0.0124
    1TYR    SC1  639   3.128   0.907   2.695  0.1180  0.1411 -0.0970
    1TYR    SC2  640   3.011   0.989   2.924  0.1995 -0.0725  0.0250
    1TYR    SC3  641   3.278   0.948   2.916  0.2670  0.3413 -0.2302
    2TRP     BB  642   3.290   1.010   2.211  0.3489  0.1102  0.1772
    2TRP    SC1  643   3.432   1.168   2.428  0.1207  0.0321  0.0167
    2TRP    SC2  644   3.515   1.285   2.657 -0.0048 -0.1963  0.1836
    2TRP    SC3  645   3.264   1.328   2.566  0.1674  0.2176 -0.1359
    2TRP    SC4  646   3.345   1.441   2.797  0.0187 -0.0529  0.0555
    3TYR     BB  647   3.297   1.055   1.905  0.2719 -0.0443  0.2272
    3TYR    SC1  648   3.150   1.257   1.792 -0.0463 -0.1565 -0.0254
    3TYR    SC2  649   2.941   1.427   1.804  0.0721  0.0059 -0.2030
    3TYR    SC3  650   2.999   1.301   1.573  0.1611 -0.0499 -0.1510
    1TYR     BB  651   7.241   7.520   4.630 -0.1463 -0.0909 -0.2183
    1TYR    SC1  652   7.159   7.340   4.428 -0.1517  0.1845  0.0031
    1TYR    SC2  653   7.041   7.286   4.192 -0.1105 -0.0274  0.0283
    1TYR    SC3  654   7.075   7.089   4.373 -0.0321  0.1073  0.1624
    2TRP     BB  655   7.170   7.807   4.539 -0.1086  0.1249 -0.2162
    2TRP    SC1  656   6.964   7.938   4.736  0.0180  0.0241  0.0164
    2TRP    SC2  657   6.787   8.052   4.905 -0.1105 -0.1856  0.0272
    2TRP    SC3  658   6.940   7.845   4.988 -0.1283 -0.2479 -0.0923
    2TRP    SC4  659   6.754   7.950   5.153  0.1584 -0.0553  0.1218
    3TYR     BB  660   7.326   7.953   4.351 -0.0646 -0.0639 -0.3603
    3TYR    SC1  661   7.665   7.960   4.382  0.2952  0.0917 -0.1075
    3TYR    SC2  662   7.922   7.877   4.368  0.1681 -0.2791 -0.5575
    3TYR    SC3  663   7.804   7.989   4.152 -0.0157  0.0231 -0.3112
    1TYR     BB  664   3.991   0.692   0.859 -0.0106  0.0376  0.0499
    1TYR    SC1  665   4.231   0.757   0.698 -0.3893 -0.0460 -0.4731
    1TYR    SC2  666   4.468   0.692   0.587 -0.0756  0.0921  0.0685
    1TYR    SC3  667   4.375   0.945   0.569 -0.0349  0.1096  0.1026
    2TRP     BB  668   3.960   0.510   1.115  0.0310  0.0586  0.0105
    2TRP    SC1  669   4.214   0.369   1.215  0.0312  0.2148  0.0763
    2TRP    SC2  670   4.461   0.277   1.275 -0.0442 -0.0617 -0.0175
    2TRP    SC3  671   4.262   0.257   1.456  0.0295  0.2900  0.1114
    2TRP    SC4  672   4.500   0.139   1.504 -0.1015 -0.0259  0.0142
    3TYR     BB  673   3.750   0.523   1.299 -0.2886  0.0540 -0.0813
    3TYR    SC1  674   3.803   0.244   1.478  0.2261  0.1764  0.0729
    3TYR    SC2  675   3.883   0.013   1.594  0.1384  0.2687  0.3267
    3TYR    SC3  676   3.621   0.054   1.541  0.2116  0.0452 -0.3289
    1TYR     BB  677   2.733   0.739   1.307  0.1926  0.0998 -0.2155
    1TYR    SC1  678   2.636   0.997   1.334 -0.0505  0.0130  0.3822
    1TYR    SC2  679   2.663   1.258   1.274  0.2037 -0.0975 -0.0362
    1TYR    SC3  680   2.420   1.158   1.333  0.0464  0.1691 -0.2057
    2TRP     BB  681   2.579   0.393   1.270  0.0128 -0.0511 -0.1159
    2TRP    SC1  682   2.858   0.309   1.189  0.0766 -0.0618 -0.2554
    2TRP    SC2  683   3.122   0.299   1.132  0.1335 -0.2822  0.0170
    2TRP    SC3  684   3.038   0.282   1.388 -0.1492 -0.2543 -0.0689
    2TRP    SC4  685   3.298   0.238   1.327 -0.0054  0.0689  0.2644
    3TYR     BB  686   2.298   0.228   1.198 -0.2383  0.0622  0.4807
    3TYR    SC1  687   2.340  -0.013   1.014  0.0799 -0.2049 -0.0075
    3TYR    SC2  688   2.384  -0.276   0.972 -0.0538 -0.1765 -0.3609
    3TYR    SC3  689   2.351  -0.109   0.762  0.3692  0.1876 -0.1562
    1TYR     BB  690   3.802   0.191   2.010  0.0534 -0.2979  0.0653
    1TYR    SC1  691   3.988   0.413   1.886  0.0611  0.1910  0.3111
    1TYR    SC2  692   4.254   0.413   1.837  0.0319 -0.1210  0.1150
    1TYR    SC3  693   4.093   0.589   1.709  0.0889 -0.2451 -0.1356
    2TRP     BB  694   4.015  -0.052   2.068  0.2023 -0.0175  0.2353
    2TRP    SC1  695   4.051  -0.073   2.379 -0.5708 -0.4267  0.1468
    2TRP    SC2  696   4.166   0.034   2.598 -0.1475 -0.1128 -0.2055
    2TRP    SC3  697   3.913   0.101   2.531 -0.3304 -0.3111  0.2382
    2TRP    SC4  698   4.035   0.224   2.738  0.1202  0.1028 -0.2387
    3TYR     BB  699   4.314  -0.115   1.856  0.2259  0.1836 -0.1846
    3TYR    SC1  700   4.600  -0.010   1.904  0.0443  0.3583  0.0266
    3TYR    SC2  701   4.758   0.197   1.975  0.1924  0.3329 -0.2119
    3TYR    SC3  702   4.868  -0.043   1.922  0.0135  0.1609  0.1547
    1TYR     BB  703   2.923   0.703   0.848  0.0379  0.2059  0.2019
    1TYR    SC1  704   2.693   0.512   0.782 -0.1040  0.0997  0.0460
    1TYR    SC2  705   2.636   0.251   0.819  0.0040  0.0570 -0.0787
    1TYR    SC3  706   2.444   0.420   0.733  0.0780 -0.1093 -0.6152
    2TRP     BB  707   2.865   1.015   0.825  0.3135  0.0609  0.2461
    2TRP    SC1  708   2.596   1.083   0.828  0.1434 -0.2649  0.3226
    2TRP    SC2  709   2.337   1.156   0.799  0.3036  0.2327 -0.0384
    2TRP    SC3  710   2.418   0.911   0.719  0.0287  0.2488 -0.3959
    2TRP    SC4  711   2.157   0.979   0.704  0.0695  0.4976 -0.1051
    3TYR     BB  712   3.054   1.163   1.037 -0.1054  0.0332  0.0929
    3TYR    SC1  713   3.342   1.085   0.943  0.2081  0.0504 -0.2090
    3TYR    SC2  714   3.575   0.963   1.006  0.0842 -0.2920 -0.3838
    3TYR    SC3  715   3.533   1.053   0.755  0.0979 -0.0557 -0.3046
    1TYR     BB  716   2.036   1.771   0.124 -0.1303  0.2891  0.0813
    1TYR    SC1  717   2.030   1.651   0.419  0.0113  0.1679  0.0533
    1TYR    SC2  718   2.193   1.466   0.531  0.0772  0.1405 -0.0855
    1TYR    SC3  719   2.129   1.690   0.667  0.1087  0.0806  0.0293
    2TRP     BB  720   1.890   1.625  -0.065  0.1907 -0.1762 -0.2060
    2TRP    SC1  721   1.701   1.400   0.018  0.1362 -0.0558 -0.0273
    2TRP    SC2  722   1.543   1.211   0.128  0.0695 -0.0122 -0.0475
    2TRP    SC3  723   1.627   1.419   0.277 -0.1648  0.1403 -0.1203
    2TRP    SC4  724   1.464   1.233   0.385  0.2201 -0.1371  0.0111
    3TYR     BB  725   1.775   1.781  -0.335 -0.4367 -0.0562 -0.0194
    3TYR    SC1  726   1.817   1.707  -0.603 -0.0593 -0.0046  0.1388
    3TYR    SC2  727   1.761   1.565  -0.826 -0.5526  0.3471  0.0196
    3TYR    SC3  728   1.831   1.825  -0.845  0.3777  0.1559  0.2308
    1TYR     BB  729   6.054   0.732   3.735  0.1701  0.0397  0.0292
    1TYR    SC1  730   5.840   0.570   3.880 -0.4163 -0.0238 -0.0980
    1TYR    SC2  731   5.814   0.358   4.044 -0.1497  0.0938  0.1070
    1TYR    SC3  732   5.625   0.551   4.042 -0.3892 -0.1327 -0.0742
    2TRP     BB  733   6.185   0.619   3.455 -0.1571  0.1930 -0.1041
    2TRP    SC1  734   6.330   0.864   3.330  0.3788  0.0567  0.1639
    2TRP    SC2  735   6.539   0.953   3.185  0.1967 -0.1970 -0.2818
    2TRP    SC3  736   6.330   1.116   3.234  0.3172 -0.0684 -0.1822
    2TRP    SC4  737   6.538   1.204   3.086  0.2530 -0.2338 -0.3780
    3TYR     BB  738   6.349   0.323   3.352 -0.2592  0.1453 -0.0378
    3TYR    SC1  739   6.517   0.171   3.576  0.0060  0.1103 -0.3546
    3TYR    SC2  740   6.755   0.169   3.703  0.0246 -0.0120 -0.3903
    3TYR    SC3  741   6.665  -0.055   3.581 -0.2476 -0.0579 -0.1209
    1TYR     BB  742   4.049   0.940   1.374  0.1312 -0.0966  0.2520
    1TYR    SC1  743   4.340   0.878   1.494 -0.0383 -0.0533  0.1949
    1TYR    SC2  744   4.509   0.668   1.506  0.0071 -0.0089  0.3647
    1TYR    SC3  745   4.604   0.919   1.532 -0.0255  0.0455  0.0109
    2TRP     BB  746   4.093   1.302   1.520  0.0635 -0.0279  0.1602
    2TRP    SC1  747   4.350   1.395   1.530  0.0100  0.0584  0.0670
    2TRP    SC2  748   4.604   1.388   1.621 -0.0165  0.0598  0.1422
    2TRP    SC3  749   4.555   1.368   1.356  0.0392 -0.3713  0.1541
    2TRP    SC4  750   4.808   1.351   1.448  0.0609  0.1215  0.2196
    3TYR     BB  751   3.773   1.483   1.682 -0.0149 -0.0128  0.3071
    3TYR    SC1  752   3.562   1.278   1.562 -0.2245 -0.0101  0.1328
    3TYR    SC2  753   3.536   1.047   1.423 -0.0050 -0.0204  0.1047
    3TYR    SC3  754   3.387   1.262   1.357 -0.0686 -0.0948  0.0029
    1TYR     BB  755   4.011   7.509   0.760  0.0287  0.3547  0.0335
    1TYR    SC1  756   4.259   7.690   0.646 -0.0373  0.1408  0.0699
    1TYR    SC2  757   4.325   7.928   0.754  0.0121  0.2231 -0.1365
    1TYR    SC3  758   4.439   7.848   0.523 -0.2269  0.1350 -0.2275
    2TRP     BB  759   3.824   7.639   1.056  0.1135  0.1048  0.2102
    2TRP    SC1  760   4.036   7.571   1.227  0.0849  0.2681  0.0585
    2TRP    SC2  761   4.206   7.442   1.392  0.0394  0.3033  0.1336
    2TRP    SC3  762   4.287   7.515   1.145 -0.0372 -0.1740 -0.0458
    2TRP    SC4  763   4.458   7.387   1.311 -0.1443 -0.3510 -0.0691
    3TYR     BB  764   3.471   7.552   0.982 -0.3288 -0.2260 -0.2759
    3TYR    SC1  765   3.506   7.360   0.722 -0.4609 -0.2269 -0.3150
    3TYR    SC2  766   3.599   7.348   0.469  0.2048  0.0117 -0.1088
    3TYR    SC3  767   3.689   7.174   0.655  0.1288  0.1695  0.0799
    1TYR     BB  768   4.196   1.307   2.343  0.0279 -0.0007 -0.0174
    1TYR    SC1  769   4.276   1.109   2.115 -0.1289 -0.1984  0.1143
    1TYR    SC2  770   4.215   0.905   1.949 -0.3161  0.0395 -0.1199
    1TYR    SC3  771   4.419   1.071   1.889 -0.1260 -0.1054  0.1003
    2TRP     BB  772   3.941   1.468   2.438  0.0229 -0.2081  0.1744
    2TRP    SC1  773   3.729   1.530   2.190 -0.1114  0.0781 -0.3185
    2TRP    SC2  774   3.494   1.459   2.076 -0.2698  0.1114 -0.0239
    2TRP    SC3  775   3.497   1.619   2.294 -0.0095 -0.3052  0.2976
    2TRP    SC4  776   3.263   1.559   2.173 -0.1273  0.1786  0.2615
    3TYR     BB  777   3.901   1.742   2.677 -0.0551 -0.3563 -0.1425
    3TYR    SC1  778   3.790   1.599   2.913  0.0802  0.2738 -0.0043
    3TYR    SC2  779   3.896   1.468   3.124 -0.4412 -0.1709  0.0107
    3TYR    SC3  780   3.667   1.608   3.153 -0.3180  0.0838 -0.1897
    1TYR     BB  781   2.237   0.265   1.674  0.1180 -0.0529  0.2335
    1TYR    SC1  782   2.241   0.457   1.923 -0.1536  0.4338 -0.0883
    1TYR    SC2  783   2.255   0.715   2.001 -0.0656  0.2793  0.4635
    1TYR    SC3  784   2.341   0.520   2.166  0.1757 -0.0941 -0.0692
    2TRP     BB  785   2.181   0.013   1.704 -0.0848 -0.1340 -0.0250
    2TRP    SC1  786   1.980  -0.113   1.893  0.0341  0.1542  0.0044
    2TRP    SC2  787   1.750  -0.146   2.029  0.0617  0.0700  0.0314
    2TRP    SC3  788   1.869  -0.358   1.913  0.0746  0.1298 -0.0658
    2TRP    SC4  789   1.620  -0.382   2.013  0.0959  0.0552 -0.0299
    3TYR     BB  790   2.151  -0.153   1.461  0.1229 -0.0338  0.1535
    3TYR    SC1  791   2.271  -0.438   1.545 -0.2511  0.0894 -0.0715
    3TYR    SC2  792   2.406  -0.672   1.555  0.2020  0.3423  0.0534
    3TYR    SC3  793   2.278  -0.580   1.775 -0.0758  0.1657 -0.0281
    1TYR     BB  794   4.146   2.187   1.595 -0.1478  0.1771 -0.1557
    1TYR    SC1  795   4.253   2.311   1.355 -0.1083 -0.0323  0.0847
    1TYR    SC2  796   4.212   2.479   1.147 -0.2244 -0.2359 -0.0616
    1TYR    SC3  797   4.463   2.400   1.209 -0.1726 -0.0415 -0.0148
    2TRP     BB  798   3.954   1.921   1.545 -0.1164  0.0306 -0.0534
    2TRP    SC1  799   4.047   1.758   1.316  0.3796 -0.0275  0.2198
    2TRP    SC2  800   4.217   1.632   1.149 -0.0335  0.1190 -0.3541
    2TRP    SC3  801   4.203   1.902   1.149  0.2212  0.1524  0.2213
    2TRP    SC4  802   4.358   1.774   0.968  0.1641  0.3899 -0.0031
    3TYR     BB  803   3.642   2.066   1.518  0.0366 -0.0891 -0.1566
    3TYR    SC1  804   3.588   2.406   1.507  0.0562  0.3623  0.3710
    3TYR    SC2  805   3.823   2.526   1.450  0.1040  0.0007 -0.3185
    3TYR    SC3  806   3.600   2.594   1.314 -0.1428  0.1350  0.1283
    1TYR     BB  807   1.780   0.674   3.869  0.2095 -0.1293 -0.2867
    1TYR    SC1  808   2.031   0.519   3.945 -0.0559 -0.2553  0.1325
    1TYR    SC2  809   2.287   0.535   3.862 -0.1319  0.2144 -0.0496
    1TYR    SC3  810   2.212   0.338   4.030  0.2777 -0.1045 -0.2187
    2TRP     BB  811   2.000   0.974   3.907 -0.0821 -0.0890 -0.0260
    2TRP    SC1  812   1.863   1.230   3.769  0.0766 -0.0150  0.1558
    2TRP    SC2  813   1.929   1.407   3.577  0.0080 -0.0325  0.1155
    2TRP    SC3  814   2.024   1.438   3.828  0.0610  0.0161  0.0898
    2TRP    SC4  815   2.086   1.619   3.638 -0.1251  0.0764  0.0848
    3TYR     BB  816   2.326   1.031   3.875 -0.0932  0.0084 -0.3174
    3TYR    SC1  817   2.313   1.157   3.608 -0.1475  0.1066 -0.0521
    3TYR    SC2  818   2.218   1.187   3.357 -0.4879  0.2295  0.0832
    3TYR    SC3  819   2.402   1.360   3.453 -0.3274  0.1598 -0.0892
    1TYR     BB  820   1.964   1.527   1.894 -0.1349  0.0209 -0.2908
    1TYR    SC1  821   1.688   1.688   1.777 -0.0001  0.1195 -0.1036
    1TYR    SC2  822   1.442   1.792   1.744 -0.1120 -0.1064 -0.0107
    1TYR    SC3  823   1.655   1.956   1.770 -0.2312  0.0910 -0.2247
    2TRP     BB  824   2.196   1.437   1.761  0.0043 -0.0399 -0.1013
    2TRP    SC1  825   2.387   1.218   1.877  0.1147  0.2152 -0.2911
    2TRP    SC2  826   2.573   1.036   1.950  0.0068  0.2386  0.0683
    2TRP    SC3  827   2.603   1.176   1.721  0.1971 -0.0759 -0.1083
    2TRP    SC4  828   2.793   1.000   1.798 -0.0684 -0.2988  0.0610
    3TYR     BB  829   2.442   1.625   1.589 -0.1727 -0.3718 -0.0059
    3TYR    SC1  830   2.301   1.888   1.552 -0.1164 -0.3597  0.2431
    3TYR    SC2  831   2.037   1.929   1.591 -0.0534 -0.1169  0.4461
    3TYR    SC3  832   2.204   2.140   1.563  0.0805 -0.2677 -0.0019
    1TYR     BB  833   7.547   1.470   5.536 -0.0707  0.3143  0.0855
    1TYR    SC1  834   7.270   1.567   5.588 -0.0897 -0.2405 -0.0564
    1TYR    SC2  835   7.086   1.634   5.774 -0.0757  0.5952 -0.2925
    1TYR    SC3  836   7.016   1.619   5.513  0.1061  0.4651 -0.3360
    2TRP     BB  837   7.736   1.450   5.814 -0.1615 -0.2402 -0.0463
    2TRP    SC1  838   8.029   1.526   5.808 -0.0426 -0.0302  0.1320
    2TRP    SC2  839   8.281   1.489   5.897 -0.0898 -0.2887  0.1680
    2TRP    SC3  840   8.117   1.661   6.025  0.1778  0.1737 -0.0779
    2TRP    SC4  841   8.352   1.590   6.137  0.0957  0.0111 -0.0048
    3TYR     BB  842   7.639   1.136   5.931  0.0472 -0.1682  0.0923
    3TYR    SC1  843   7.387   1.198   6.103 -0.3552 -0.1349  0.0165
    3TYR    SC2  844   7.213   1.400   6.148 -0.3412 -0.0867 -0.1366
    3TYR    SC3  845   7.242   1.203   6.330 -0.1227  0.2131  0.1684
    1TYR     BB  846   5.748   7.269   3.409 -0.2737  0.2317 -0.0236
    1TYR    SC1  847   5.907   7.021   3.508  0.2645 -0.0705 -0.0864
    1TYR    SC2  848   6.110   6.846   3.538  0.2614 -0.0575  0.0140
    1TYR    SC3  849   5.865   6.757   3.466  0.1912 -0.1327  0.3287
    2TRP     BB  850   5.514   7.441   3.436  0.0286 -0.0472  0.1346
    2TRP    SC1  851   5.483   7.547   3.695 -0.3002  0.0111 -0.2480
    2TRP    SC2  852   5.512   7.744   3.877 -0.1176 -0.0768 -0.1785
    2TRP    SC3  853   5.269   7.634   3.835 -0.1434 -0.1367  0.0998
    2TRP    SC4  854   5.299   7.828   4.020  0.0548 -0.2700  0.2127
    3TYR     BB  855   5.347   7.651   3.236  0.4496 -0.0580 -0.0469
    3TYR    SC1  856   5.086   7.678   3.395 -0.2692 -0.2851 -0.2800
    3TYR    SC2  857   4.876   7.623   3.555 -0.1787  0.1001 -0.0109
    3TYR    SC3  858   4.864   7.830   3.383 -0.1575 -0.1193 -0.2855
    1TYR     BB  859   6.288   0.438   5.061  0.1522 -0.0027  0.0626
    1TYR    SC1  860   6.314   0.522   4.794  0.1418 -0.0638 -0.1708
    1TYR    SC2  861   6.296   0.762   4.671  0.1898 -0.0483 -0.1481
    1TYR    SC3  862   6.438   0.563   4.558  0.1917 -0.0502 -0.1425
    2TRP     BB  863   6.182   0.149   5.172 -0.1266 -0.1820 -0.3347
    2TRP    SC1  864   5.979   0.234   5.391  0.0356  0.2066 -0.0803
    2TRP    SC2  865   5.788   0.386   5.508  0.0927  0.3733 -0.1986
    2TRP    SC3  866   6.049   0.439   5.552  0.1293 -0.0965  0.2831
    2TRP    SC4  867   5.859   0.603   5.652  0.2374 -0.0395  0.3980
    3TYR     BB  868   6.127  -0.056   4.989  0.1909  0.1490  0.1333
    3TYR    SC1  869   6.268  -0.352   4.942 -0.2789 -0.2689  0.5693
    3TYR    SC2  870   6.322  -0.579   4.805 -0.1199  0.0484  0.0699
    3TYR    SC3  871   6.438  -0.534   5.045 -0.2085 -0.4163  0.2119
    1TYR     BB  872   2.581   0.089   2.082  0.0083  0.3352  0.1939
    1TYR    SC1  873   2.384  -0.095   2.183 -0.1124  0.2119  0.0569
    1TYR    SC2  874   2.253  -0.330   2.161  0.1955  0.0274  0.1252
    1TYR    SC3  875   2.222  -0.178   2.382  0.0989 -0.0145  0.1409
    2TRP     BB  876   2.684  -0.037   1.749  0.1042  0.1492 -0.0719
    2TRP    SC1  877   2.957   0.048   1.772 -0.0430 -0.6447 -0.0367
    2TRP    SC2  878   3.225   0.081   1.757 -0.0932  0.2538  0.2893
    2TRP    SC3  879   3.119  -0.069   1.954  0.1574  0.0359  0.2652
    2TRP    SC4  880   3.384  -0.077   1.907  0.1060  0.1049 -0.0642
    3TYR     BB  881   2.654  -0.124   1.408 -0.1545  0.0015  0.0411
    3TYR    SC1  882   2.673  -0.383   1.276  0.1969  0.0404  0.2312
    3TYR    SC2  883   2.648  -0.613   1.136  0.0530  0.3788 -0.3391
    3TYR    SC3  884   2.891  -0.534   1.224  0.0553 -0.1734  0.2415
    1TYR     BB  885   5.990   0.057   3.666  0.1358  0.1134 -0.1128
    1TYR    SC1  886   6.167  -0.147   3.559  0.0921 -0.0034  0.2447
    1TYR    SC2  887   6.311  -0.375   3.550 -0.1547 -0.1626  0.1978
    1TYR    SC3  888   6.280  -0.226   3.327 -0.1248 -0.1675  0.1903
    2TRP     BB  889   5.820   0.197   3.432  0.2269 -0.0553 -0.2387
    2TRP    SC1  890   5.958   0.082   3.191  0.0906 -0.1404  0.1410
    2TRP    SC2  891   6.037  -0.014   2.951  0.0345  0.2052 -0.0242
    2TRP    SC3  892   5.778  -0.032   3.026  0.1154 -0.2485  0.1880
    2TRP    SC4  893   5.851  -0.098   2.774 -0.0051  0.1683  0.0345
    3TYR     BB  894   5.625   0.370   3.446 -0.3028  0.1993  0.1507
    3TYR    SC1  895   5.427   0.459   3.629  0.2641 -0.2762 -0.0351
    3TYR    SC2  896   5.158   0.448   3.628  0.2492 -0.0137 -0.1973
    3TYR    SC3  897   5.286   0.603   3.809  0.2938 -0.1466 -0.1133
    1TYR     BB  898   6.340   1.198   4.177  0.3435 -0.0927  0.0165
    1TYR    SC1  899   6.241   1.194   3.894  0.1742 -0.1158 -0.3213
    1TYR    SC2  900   6.017   1.179   3.744 -0.0133  0.1471 -0.0803
    1TYR    SC3  901   6.245   1.279   3.638  0.0577 -0.3081 -0.3892
    2TRP     BB  902   6.530   0.985   4.215 -0.0555 -0.2763 -0.3013
    2TRP    SC1  903   6.482   0.741   4.029  0.2162 -0.1695 -0.1110
    2TRP    SC2  904   6.476   0.523   3.870 -0.0660 -0.1466 -0.1383
    2TRP    SC3  905   6.329   0.529   4.096 -0.1893  0.0734 -0.2198
    2TRP    SC4  906   6.282   0.340   3.909 -0.1334 -0.0668 -0.0946
    3TYR     BB  907   6.806   1.116   4.114 -0.0786  0.2562 -0.0683
    3TYR    SC1  908   6.767   1.068   3.803  0.1674 -0.1128  0.2491
    3TYR    SC2  909   6.546   0.984   3.673  0.3147 -0.3249  0.1280
    3TYR    SC3  910   6.705   1.171   3.561  0.2733 -0.2761  0.1501
    1TYR     BB  911   2.500   6.881   2.225 -0.0454 -0.1867  0.2565
    1TYR    SC1  912   2.203   6.856   2.243  0.1601  0.0256 -0.2756
    1TYR    SC2  913   2.014   6.774   2.417  0.3530 -0.2017 -0.1663
    1TYR    SC3  914   1.949   6.823   2.160  0.0754  0.0860 -0.0496
    2TRP     BB  915   2.712   7.174   1.980  0.1977 -0.1747 -0.0357
    2TRP    SC1  916   2.817   7.331   2.262  0.0347  0.0734  0.0552
    2TRP    SC2  917   2.952   7.398   2.486 -0.1933 -0.1679  0.2730
    2TRP    SC3  918   3.075   7.256   2.292  0.0033  0.0350  0.2438
    2TRP    SC4  919   3.217   7.345   2.504 -0.0471  0.4223  0.1241
    3TYR     BB  920   2.873   7.129   1.728 -0.1819 -0.2589 -0.1482
    3TYR    SC1  921   3.095   7.290   1.577 -0.1910 -0.1373 -0.3390
    3TYR    SC2  922   3.172   7.428   1.359  0.2982 -0.0553 -0.1309
    3TYR    SC3  923   3.348   7.267   1.485 -0.0911 -0.4176 -0.0221
    1TYR     BB  924   2.066   1.197   2.759  0.0710 -0.0761 -0.0014
    1TYR    SC1  925   1.951   1.410   2.898  0.0974  0.1123 -0.1623
    1TYR    SC2  926   1.932   1.539   3.134  0.0104  0.0982 -0.1610
    1TYR    SC3  927   1.817   1.644   2.913  0.0991  0.1156 -0.1991
    2TRP     BB  928   2.380   1.144   2.890 -0.4149 -0.0661  0.1668
    2TRP    SC1  929   2.556   1.338   2.711 -0.0385 -0.2051 -0.6654
    2TRP    SC2  930   2.680   1.575   2.676 -0.2409 -0.0031 -0.1354
    2TRP    SC3  931   2.820   1.361   2.761 -0.1225  0.0180 -0.2730
    2TRP    SC4  932   2.943   1.600   2.733 -0.2788  0.1347 -0.0105
    3TYR     BB  933   2.558   1.052   3.075  0.0120  0.1761  0.0774
    3TYR    SC1  934   2.393   0.777   3.192 -0.0708  0.2497 -0.0542
    3TYR    SC2  935   2.325   0.735   3.450  0.1675  0.1103 -0.0101
    3TYR    SC3  936   2.392   0.526   3.292  0.2268  0.2152 -0.1258
    1TYR     BB  937   0.847   0.251   6.742 -0.0548  0.0072 -0.1933
    1TYR    SC1  938   0.879  -0.029   6.850  0.1533  0.0327  0.0484
    1TYR    SC2  939   0.927  -0.295   6.841  0.8253  0.1145  0.3856
    1TYR    SC3  940   0.859  -0.177   7.075  0.1973  0.2174  0.1768
    2TRP     BB  941   0.688   0.457   6.809 -0.0417  0.3126 -0.0652
    2TRP    SC1  942   0.780   0.669   6.998  0.1704  0.0032  0.0512
    2TRP    SC2  943   0.895   0.829   7.182  0.1116  0.2910 -0.1547
    2TRP    SC3  944   1.034   0.623   7.077  0.1283  0.0877  0.2432
    2TRP    SC4  945   1.143   0.773   7.273 -0.0765  0.1532  0.3102
    3TYR     BB  946   0.627   0.673   6.517  0.1821  0.1761 -0.0275
    3TYR    SC1  947   0.670   0.971   6.489 -0.0556 -0.0384  0.2107
    3TYR    SC2  948   0.713   1.221   6.397 -0.1625 -0.1355 -0.1213
    3TYR    SC3  949   0.623   1.183   6.649  0.6898  0.1194  0.2683
    1TYR     BB  950   5.598   0.951   3.591  0.2505 -0.0844 -0.1261
    1TYR    SC1  951   5.625   1.039   3.902  0.0204 -0.1852 -0.1389
    1TYR    SC2  952   5.576   0.978   4.161 -0.3127  0.3672 -0.0520
    1TYR    SC3  953   5.752   1.174   4.099 -0.1346  0.1492 -0.2590
    2TRP     BB  954   5.796   0.962   3.354  0.2473 -0.2730  0.3583
    2TRP    SC1  955   5.736   0.742   3.139  0.3831  0.3528 -0.0066
    2TRP    SC2  956   5.891   0.550   3.028 -0.0045  0.0531 -0.0533
    2TRP    SC3  957   5.759   0.724   2.870  0.0902  0.1535 -0.0233
    2TRP    SC4  958   5.920   0.538   2.760 -0.1365 -0.0242 -0.0657
    3TYR     BB  959   5.860   1.232   3.159  0.1147  0.1464  0.0689
    3TYR    SC1  960   6.016   1.113   2.923 -0.0025 -0.1239 -0.4808
    3TYR    SC2  961   6.143   0.951   2.749  0.3298 -0.0490 -0.3184
    3TYR    SC3  962   6.248   1.192   2.810  0.3095 -0.1364  0.0999
    1TYR     BB  963   0.791   2.466   5.424 -0.0149 -0.0346  0.2422
    1TYR    SC1  964   0.897   2.716   5.582 -0.1164 -0.0399 -0.0088
    1TYR    SC2  965   0.913   2.968   5.677 -0.3830  0.0166 -0.1030
    1TYR    SC3  966   1.112   2.869   5.523  0.0837 -0.0912  0.5172
    2TRP     BB  967   1.033   2.287   5.377  0.0511  0.5246 -0.2929
    2TRP    SC1  968   1.241   2.429   5.517  0.2545 -0.0074 -0.2143
    2TRP    SC2  969   1.454   2.572   5.602  0.1237  0.1173 -0.0888
    2TRP    SC3  970   1.457   2.456   5.358  0.3223  0.1425 -0.1000
    2TRP    SC4  971   1.680   2.576   5.454  0.3217 -0.0798  0.1966
    3TYR     BB  972   1.043   2.099   5.146 -0.1382  0.1445  0.1631
    3TYR    SC1  973   1.351   2.104   5.078 -0.2140 -0.1678 -0.0758
    3TYR    SC2  974   1.515   2.252   4.922 -0.1604  0.0761  0.1998
    3TYR    SC3  975   1.600   2.016   5.022 -0.0543  0.1018  0.1712
    1TYR     BB  976   0.718   0.988   5.110 -0.0991 -0.3585  0.0463
    1TYR    SC1  977   0.503   1.119   5.256  0.3659  0.0623  0.0835
    1TYR    SC2  978   0.376   1.347   5.326 -0.0375 -0.1019 -0.0741
    1TYR    SC3  979   0.363   1.130   5.486  0.5645  0.0439  0.2078
    2TRP     BB  980   0.785   1.343   4.956 -0.1332  0.4223  0.1043
    2TRP    SC1  981   1.042   1.361   5.114 -0.1619  0.3565 -0.0065
    2TRP    SC2  982   1.275   1.399   5.245  0.0252 -0.1015 -0.1835
    2TRP    SC3  983   1.208   1.560   5.039  0.0171  0.2421  0.0780
    2TRP    SC4  984   1.440   1.600   5.172  0.2418 -0.2568 -0.1349
    3TYR     BB  985   0.653   1.598   4.925  0.1812 -0.2043 -0.0346
    3TYR    SC1  986   0.340   1.672   4.979  0.0875  0.5858 -0.0188
    3TYR    SC2  987   0.081   1.607   4.935  0.1703  0.2190 -0.0006
    3TYR    SC3  988   0.151   1.736   5.161  0.0459 -0.0097  0.1735
    1TYR     BB  989   6.319   1.339   5.067  0.1736  0.1393  0.0613
    1TYR    SC1  990   6.226   1.368   5.319  0.0265 -0.0820 -0.0362
    1TYR    SC2  991   6.009   1.279   5.453  0.1270 -0.4572 -0.1056
    1TYR    SC3  992   6.160   1.479   5.556 -0.2702 -0.1537 -0.0801
    2TRP     BB  993   6.322   1.216   4.749 -0.1648 -0.0788  0.1744
    2TRP    SC1  994   6.641   1.197   4.679 -0.1570 -0.2968 -0.3239
    2TRP    SC2  995   6.886   1.274   4.597 -0.1013 -0.1845 -0.0635
    2TRP    SC3  996   6.668   1.411   4.517 -0.0307  0.0490  0.1270
    2TRP    SC4  997   6.911   1.472   4.415 -0.0343 -0.1295  0.0047
    3TYR     BB  998   5.974   1.208   4.595  0.0536  0.0163  0.0017
    3TYR    SC1  999   5.956   0.935   4.443 -0.3450 -0.0724  0.0879
    3TYR    SC2 1000   5.927   0.667   4.433 -0.1812 -0.0866 -0.1110
    3TYR    SC3 1001   6.056   0.796   4.234  0.6190  0.0229  0.4228
    1TYR     BB 1002   1.384   1.481   5.709  0.1778  0.0980 -0.1092
    1TYR    SC1 1003   1.282   1.583   5.976  0.0312 -0.0729  0.0995
    1TYR    SC2 1004   1.350   1.599   6.237 -0.1109  0.0155  0.1321
    1TYR    SC3 1005   1.130   1.728   6.146 -0.0603 -0.0117 -0.0323
    2TRP     BB 1006   1.700   1.547   5.733  0.1982 -0.1007 -0.2766
    2TRP    SC1 1007   1.810   1.623   5.446  0.2725  0.2357  0.2261
    2TRP    SC2 1008   1.941   1.776   5.266  0.1576  0.0244 -0.0464
    2TRP    SC3 1009   2.073   1.581   5.398  0.1486 -0.1116 -0.2340
    2TRP    SC4 1010   2.205   1.738   5.222  0.0622 -0.2598 -0.4361
    3TYR     BB 1011   1.873   1.618   5.969  0.1206  0.2673  0.0887
    3TYR    SC1 1012   2.018   1.349   6.054  0.3956  0.3104  0.1403
    3TYR    SC2 1013   2.094   1.109   6.153 -0.0828  0.0833 -0.0018
    3TYR    SC3 1014   2.175   1.185   5.907 -0.0414  0.0026 -0.0135
    1TYR     BB 1015   3.423   1.783   7.437  0.2683  0.4944 -0.2153
    1TYR    SC1 1016   3.601   1.975   7.322  0.1047 -0.0151  0.2617
    1TYR    SC2 1017   3.823   2.113   7.387  0.1359  0.0328  0.0619
    1TYR    SC3 1018   3.773   2.052   7.129  0.0217 -0.1596  0.1272
    2TRP     BB 1019   3.110   1.956   7.413  0.1870  0.4005  0.0320
    2TRP    SC1 1020   3.150   2.127   7.185 -0.2059  0.0458 -0.3160
    2TRP    SC2 1021   3.329   2.189   6.992  0.2277 -0.0652  0.0310
    2TRP    SC3 1022   3.312   2.341   7.214 -0.2646  0.0612 -0.0786
    2TRP    SC4 1023   3.505   2.390   7.031  0.0669  0.0377  0.2491
    3TYR     BB 1024   2.866   1.877   7.625  0.2375 -0.0948  0.2338
    3TYR    SC1 1025   2.589   2.015   7.561  0.0037 -0.0319 -0.0127
    3TYR    SC2 1026   2.361   2.129   7.651  0.0511 -0.1203  0.2314
    3TYR    SC3 1027   2.351   1.935   7.463 -0.0792 -0.1575  0.2751
    1TYR     BB 1028   6.493   0.265   5.631  0.1210 -0.0050  0.0551
    1TYR    SC1 1029   6.620   0.265   5.908 -0.0387  0.2315 -0.4415
    1TYR    SC2 1030   6.572   0.274   6.174 -0.2612 -0.1109 -0.4621
    1TYR    SC3 1031   6.826   0.265   6.083 -0.1853 -0.1217 -0.2564
    2TRP     BB 1032   6.569   0.573   5.528 -0.0345 -0.0892  0.0840
    2TRP    SC1 1033   6.321   0.726   5.625 -0.3812  0.0807 -0.0017
    2TRP    SC2 1034   6.236   0.959   5.730 -0.2659  0.0150  0.2474
    2TRP    SC3 1035   6.336   0.767   5.891  0.1015 -0.0159 -0.0028
    2TRP    SC4 1036   6.248   0.999   5.997 -0.0383 -0.1876  0.2721
    3TYR     BB 1037   6.882   0.621   5.649  0.1946  0.1050 -0.0622
    3TYR    SC1 1038   6.856   0.788   5.885  0.1942  0.1445 -0.0491
    3TYR    SC2 1039   6.869   0.945   6.104 -0.1765  0.1497 -0.0228
    3TYR    SC3 1040   6.726   0.716   6.110  0.0685 -0.0139 -0.1693
    1TYR     BB 1041   1.718   0.073   7.154  0.0445 -0.0602 -0.0366
    1TYR    SC1 1042   1.932   0.010   6.968  0.2011  0.3533  0.1204
    1TYR    SC2 1043   2.194   0.012   6.900  0.0806  0.1318 -0.4189
    1TYR    SC3 1044   2.048  -0.214   6.871 -0.1212  0.1711  0.1380
    2TRP     BB 1045   1.759   0.389   7.307 -0.0806  0.0038 -0.1389
    2TRP    SC1 1046   1.626   0.541   7.122 -0.3335 -0.0840  0.1495
    2TRP    SC2 1047   1.463   0.691   6.968 -0.1909 -0.3423 -0.2759
    2TRP    SC3 1048   1.724   0.754   6.989 -0.2599 -0.1435  0.1076
    2TRP    SC4 1049   1.564   0.894   6.823 -0.1326 -0.2520 -0.1124
    3TYR     BB 1050   1.872   0.399   7.568  0.1364 -0.0143  0.0432
    3TYR    SC1 1051   2.092   0.563   7.701 -0.2323 -0.1437  0.1332
    3TYR    SC2 1052   2.186   0.566   7.954  0.0285 -0.1731  0.0407
    3TYR    SC3 1053   2.348   0.636   7.749 -0.1933 -0.1045 -0.1155
    1TYR     BB 1054   4.975   1.159   1.908 -0.0263 -0.0138  0.2514
    1TYR    SC1 1055   5.045   0.966   1.615  0.1953 -0.0528 -0.1755
    1TYR    SC2 1056   5.229   0.768   1.612  0.1605 -0.0850 -0.1895
    1TYR    SC3 1057   5.126   0.861   1.380  0.2275 -0.0030 -0.1869
    2TRP     BB 1058   4.930   1.442   2.045  0.2109  0.0925 -0.1155
    2TRP    SC1 1059   5.067   1.695   1.887  0.0804  0.3106  0.0084
    2TRP    SC2 1060   5.006   1.878   1.699 -0.4475 -0.1004 -0.2560
    2TRP    SC3 1061   5.136   1.651   1.630 -0.1006  0.0080  0.0048
    2TRP    SC4 1062   5.063   1.828   1.439  0.2059 -0.0244 -0.1501
    3TYR     BB 1063   4.655   1.467   2.163  0.3338 -0.1461  0.0757
    3TYR    SC1 1064   4.581   1.657   2.413 -0.1237 -0.2097  0.2496
    3TYR    SC2 1065   4.495   1.815   2.615 -0.0774  0.2878 -0.0981
    3TYR    SC3 1066   4.346   1.787   2.391 -0.0335 -0.0912 -0.0884
    1TYR     BB 1067   7.394   0.728   5.741  0.0825 -0.0254 -0.2657
    1TYR    SC1 1068   7.263   0.990   5.690 -0.0974  0.4243  0.1165
    1TYR    SC2 1069   7.175   1.153   5.494 -0.2228 -0.1439 -0.3337
    1TYR    SC3 1070   7.074   1.175   5.743 -0.3577  0.3373 -0.4186
    2TRP     BB 1071   7.344   0.461   5.659  0.1135 -0.0424 -0.0698
    2TRP    SC1 1072   7.285   0.300   5.932  0.0288  0.0133  0.0397
    2TRP    SC2 1073   7.287   0.188   6.177  0.2407  0.2625  0.1576
    2TRP    SC3 1074   7.517   0.279   6.068  0.1024  0.4263 -0.0048
    2TRP    SC4 1075   7.519   0.169   6.315  0.3644  0.3624 -0.0320
    3TYR     BB 1076   7.189   0.295   5.447  0.1100  0.2153  0.0396
    3TYR    SC1 1077   7.191   0.027   5.315  0.3515  0.4141 -0.3488
    3TYR    SC2 1078   7.319  -0.117   5.126  0.1847  0.1031 -0.2340
    3TYR    SC3 1079   7.174  -0.242   5.316 -0.2436  0.4363 -0.3203
    1TYR     BB 1080   3.157   2.309   1.843  0.1816  0.0657 -0.1572
    1TYR    SC1 1081   2.928   2.458   1.681 -0.0805 -0.0054  0.1347
    1TYR    SC2 1082   2.682   2.450   1.569 -0.0180  0.2171 -0.0275
    1TYR    SC3 1083   2.788   2.686   1.646  0.0691  0.1016  0.2206
    2TRP     BB 1084   3.303   2.030   1.906 -0.1885  0.2830 -0.2722
    2TRP    SC1 1085   3.374   2.033   2.209  0.2539 -0.0514  0.0870
    2TRP    SC2 1086   3.425   2.074   2.470  0.1067  0.0614  0.1002
    2TRP    SC3 1087   3.254   2.237   2.340 -0.2055 -0.2868  0.0565
    2TRP    SC4 1088   3.317   2.286   2.598 -0.0517  0.0690 -0.0428
    3TYR     BB 1089   3.311   1.741   1.723  0.2177 -0.2319  0.0563
    3TYR    SC1 1090   3.262   1.727   1.417 -0.0465 -0.0803  0.0604
    3TYR    SC2 1091   3.039   1.631   1.301  0.0729 -0.1062 -0.1542
    3TYR    SC3 1092   3.249   1.704   1.148  0.1974 -0.0451  0.0427
    1TYR     BB 1093   6.738   0.171   4.234  0.1099 -0.1934 -0.1509
    1TYR    SC1 1094   6.619  -0.085   4.034 -0.3455 -0.0539 -0.1647
    1TYR    SC2 1095   6.396  -0.166   3.906 -0.2087 -0.3057 -0.2527
    1TYR    SC3 1096   6.606  -0.334   3.930 -0.1390 -0.1798  0.0949
    2TRP     BB 1097   6.890   0.462   4.099  0.0873 -0.0291 -0.2571
    2TRP    SC1 1098   6.825   0.630   4.369  0.0789 -0.2010 -0.0756
    2TRP    SC2 1099   6.821   0.761   4.605 -0.0072  0.0078 -0.1894
    2TRP    SC3 1100   7.048   0.751   4.459  0.0097 -0.0043 -0.1625
    2TRP    SC4 1101   7.045   0.880   4.696 -0.0572  0.1445 -0.2426
    3TYR     BB 1102   7.057   0.703   3.965  0.0540  0.2814  0.2442
    3TYR    SC1 1103   6.930   0.642   3.654 -0.2938  0.1970  0.1127
    3TYR    SC2 1104   6.752   0.521   3.490 -0.1574  0.0419  0.0756
    3TYR    SC3 1105   6.886   0.740   3.406  0.2977 -0.3326 -0.2390
    1TYR     BB 1106   7.401   1.228   4.636  0.2584 -0.2085  0.0242
    1TYR    SC1 1107   7.503   0.959   4.603 -0.0776  0.0917  0.0219
    1TYR    SC2 1108   7.697   0.777   4.555  0.1267  0.3118 -0.0074
    1TYR    SC3 1109   7.474   0.779   4.404 -0.1015 -0.2122  0.2896
    2TRP     BB 1110   7.299   1.273   4.957  0.0209 -0.2010 -0.0350
    2TRP    SC1 1111   7.541   1.147   5.109  0.2678 -0.1985 -0.2138
    2TRP    SC2 1112   7.575   0.975   5.314  0.3153 -0.1435 -0.1750
    2TRP    SC3 1113   7.543   0.881   5.063 -0.3351 -0.2432 -0.0772
    2TRP    SC4 1114   7.575   0.709   5.269 -0.0056 -0.1690 -0.0593
    3TYR     BB 1115   7.046   1.374   5.063 -0.0404 -0.3288  0.0481
    3TYR    SC1 1116   6.857   1.617   4.958  0.3420  0.2942  0.0188
    3TYR    SC2 1117   6.607   1.695   4.893  0.3522  0.2233 -0.1077
    3TYR    SC3 1118   6.685   1.695   5.151  0.0430 -0.2632  0.0017
    1TYR     BB 1119   1.334   7.341   1.016 -0.0079  0.0650 -0.3028
    1TYR    SC1 1120   1.485   7.056   1.118 -0.3126 -0.0426  0.0076
    1TYR    SC2 1121   1.697   6.890   1.143 -0.1478  0.2010  0.3207
    1TYR    SC3 1122   1.460   6.822   1.252 -0.0291  0.2480  0.6218
    2TRP     BB 1123   1.503   7.498   1.018 -0.1829  0.0494 -0.1638
    2TRP    SC1 1124   1.387   7.816   1.045 -0.0588 -0.2217  0.1135
    2TRP    SC2 1125   1.382   8.084   1.018 -0.4615 -0.2429 -0.1148
    2TRP    SC3 1126   1.572   7.940   0.892 -0.0499 -0.0546  0.2561
    2TRP    SC4 1127   1.567   8.209   0.866 -0.5103 -0.0783 -0.0427
    3TYR     BB 1128   1.871   7.514   1.001 -0.1982 -0.0238 -0.1572
    3TYR    SC1 1129   1.946   7.249   1.025 -0.1151 -0.2776 -0.2152
    3TYR    SC2 1130   2.099   7.052   1.127  0.1494 -0.1769 -0.4040
    3TYR    SC3 1131   1.987   7.024   0.883 -0.0490 -0.2056 -0.3123
    1TYR     BB 1132   1.593   1.111   5.918  0.0350 -0.0864 -0.4694
    1TYR    SC1 1133   1.654   1.213   6.191 -0.0061  0.1290 -0.1383
    1TYR    SC2 1134   1.700   1.329   6.430  0.0015 -0.0518 -0.0506
    1TYR    SC3 1135   1.516   1.132   6.408  0.1342 -0.1667 -0.1530
    2TRP     BB 1136   1.408   0.903   5.844  0.1033  0.1287  0.1758
    2TRP    SC1 1137   1.290   0.785   5.577 -0.2463  0.1640 -0.2414
    2TRP    SC2 1138   1.178   0.715   5.342 -0.2853  0.2913 -0.2618
    2TRP    SC3 1139   1.371   0.903   5.348 -0.1660  0.1690 -0.2107
    2TRP    SC4 1140   1.278   0.814   5.111  0.4523 -0.3809 -0.2832
    3TYR     BB 1141   1.496   0.651   6.130  0.2793 -0.3038  0.2581
    3TYR    SC1 1142   1.559   0.355   6.077 -0.2434 -0.0211 -0.1346
    3TYR    SC2 1143   1.515   0.102   6.160  0.1736 -0.1155 -0.1710
    3TYR    SC3 1144   1.767   0.199   6.152 -0.0013  0.4172  0.1623
    1TYR     BB 1145   2.437   2.105   2.487  0.1670 -0.1532  0.3080
    1TYR    SC1 1146   2.712   2.020   2.399  0.2534  0.0388  0.0069
    1TYR    SC2 1147   2.955   1.974   2.506  0.1585  0.0888  0.2552
    1TYR    SC3 1148   2.912   1.931   2.243  0.3951 -0.0578  0.2368
    2TRP     BB 1149   2.243   1.762   2.514  0.0566  0.3877  0.2147
    2TRP    SC1 1150   2.288   1.720   2.791  0.2117  0.3109 -0.3283
    2TRP    SC2 1151   2.356   1.651   3.043  0.1641 -0.0878 -0.4154
    2TRP    SC3 1152   2.220   1.880   2.998 -0.1445 -0.1817 -0.0343
    2TRP    SC4 1153   2.276   1.804   3.251  0.3473 -0.3153 -0.1686
    3TYR     BB 1154   2.049   1.564   2.441 -0.0550 -0.0843 -0.2674
    3TYR    SC1 1155   1.781   1.697   2.345  0.1416  0.0776  0.2015
    3TYR    SC2 1156   1.576   1.773   2.187 -0.0203 -0.0753  0.3329
    3TYR    SC3 1157   1.546   1.772   2.455  0.2509  0.1810  0.3705
    1TYR     BB 1158   0.737   0.107   6.277  0.2060 -0.1910  0.0310
    1TYR    SC1 1159   0.954  -0.066   6.382 -0.0148  0.1117 -0.0743
    1TYR    SC2 1160   1.210  -0.074   6.465 -0.0009 -0.2819 -0.1294
    1TYR    SC3 1161   1.075  -0.304   6.423 -0.2718 -0.0853 -0.3890
    2TRP     BB 1162   0.845   0.352   6.195 -0.0179  0.4547 -0.3794
    2TRP    SC1 1163   1.127   0.335   6.068  0.4401  0.2660  0.3106
    2TRP    SC2 1164   1.231   0.218   5.849  0.1037 -0.1674  0.3661
    2TRP    SC3 1165   1.093   0.449   5.826  0.0194 -0.2385  0.1092
    2TRP    SC4 1166   1.219   0.345   5.611  0.0848 -0.4153  0.2297
    3TYR     BB 1167   0.662   0.534   6.025 -0.2523  0.1114 -0.3294
    3TYR    SC1 1168   0.537   0.776   6.018 -0.0734 -0.2212  0.1028
    3TYR    SC2 1169   0.398   0.982   6.123  0.2747 -0.0050  0.1608
    3TYR    SC3 1170   0.547   1.019   5.901  0.2634 -0.2237  0.1135
    1TYR     BB 1171   1.610   7.379   4.143  0.4868 -0.0437  0.2629
    1TYR    SC1 1172   1.830   7.306   3.920  0.0910 -0.3571 -0.1831
    1TYR    SC2 1173   2.087   7.385   3.898  0.0062 -0.0230 -0.0523
    1TYR    SC3 1174   1.927   7.384   3.680  0.0925 -0.1460 -0.1166
    2TRP     BB 1175   1.310   7.501   4.212  0.0771  0.1000  0.1148
    2TRP    SC1 1176   1.183   7.378   4.468  0.2434 -0.3429  0.0892
    2TRP    SC2 1177   1.012   7.371   4.677 -0.0378 -0.0937 -0.1222
    2TRP    SC3 1178   1.243   7.510   4.696 -0.2330  0.2399 -0.0902
    2TRP    SC4 1179   1.067   7.510   4.901 -0.2723  0.0029 -0.1203
    3TYR     BB 1180   1.106   7.512   4.005  0.0547 -0.0875  0.2544
    3TYR    SC1 1181   0.922   7.743   3.941 -0.2612 -0.1738 -0.1205
    3TYR    SC2 1182   0.850   7.998   3.995 -0.1105 -0.1178 -0.1786
    3TYR    SC3 1183   0.673   7.798   4.032 -0.2779  0.0104 -0.2677
    1TYR     BB 1184   4.224   1.591   1.925 -0.1707 -0.2150  0.1547
    1TYR    SC1 1185   4.030   1.829   2.013 -0.1673  0.3190  0.2419
    1TYR    SC2 1186   3.776   1.913   1.980 -0.3492 -0.2044  0.1834
    1TYR    SC3 1187   3.917   1.993   2.195 -0.5133  0.1863  0.1575
    2TRP     BB 1188   4.462   1.793   1.831 -0.0862  0.2812 -0.1406
    2TRP    SC1 1189   4.504   1.820   1.498 -0.2943  0.0104 -0.0740
    2TRP    SC2 1190   4.643   1.794   1.268 -0.1468  0.0647  0.0079
    2TRP    SC3 1191   4.623   2.036   1.387  0.1787 -0.0384  0.2970
    2TRP    SC4 1192   4.734   2.015   1.142 -0.5174  0.1796 -0.0726
    3TYR     BB 1193   4.611   1.939   1.967  0.0277  0.0068  0.0220
    3TYR    SC1 1194   4.800   1.959   2.202 -0.2591 -0.1358 -0.0518
    3TYR    SC2 1195   5.000   1.821   2.322  0.0447  0.1851 -0.1671
    3TYR    SC3 1196   4.886   2.032   2.447  0.0822  0.2716 -0.2770
    1TYR     BB 1197   0.340   7.448   7.324 -0.0636  0.0020 -0.0647
    1TYR    SC1 1198   0.519   7.368   7.564  0.3631 -0.2244 -0.0128
    1TYR    SC2 1199   0.626   7.377   7.812 -0.0311 -0.1751  0.1647
    1TYR    SC3 1200   0.571   7.139   7.698  0.1206 -0.1972  0.1343
    2TRP     BB 1201   0.494   7.784   7.190  0.0335  0.1263 -0.2744
    2TRP    SC1 1202   0.227   7.889   7.031 -0.4396 -0.0578  0.0975
    2TRP    SC2 1203   0.010   7.786   6.907 -0.1651 -0.1210 -0.3587
    2TRP    SC3 1204   0.110   8.024   6.828  0.0518 -0.1896 -0.3008
    2TRP    SC4 1205  -0.121   7.933   6.723 -0.0607  0.0677 -0.2858
    3TYR     BB 1206   0.763   7.885   7.312 -0.1206  0.0162  0.1200
    3TYR    SC1 1207   0.864   7.646   7.467 -0.0743 -0.0237 -0.2417
    3TYR    SC2 1208   0.952   7.391   7.479 -0.2553 -0.0767  0.1384
    3TYR    SC3 1209   0.975   7.552   7.695 -0.0872  0.2546 -0.1150
    1TYR     BB 1210   5.319   0.702   2.580 -0.3441 -0.0108  0.0681
    1TYR    SC1 1211   5.409   0.691   2.294  0.1788 -0.0308 -0.0786
    1TYR    SC2 1212   5.521   0.838   2.097 -0.1970  0.3349 -0.0361
    1TYR    SC3 1213   5.275   0.732   2.063 -0.1642  0.1928  0.1493
    2TRP     BB 1214   5.031   0.662   2.638  0.1915 -0.3897  0.1733
    2TRP    SC1 1215   4.984   0.878   2.861 -0.1258  0.2091 -0.2561
    2TRP    SC2 1216   4.910   1.019   3.079 -0.0653 -0.1934  0.0392
    2TRP    SC3 1217   4.737   0.845   2.964 -0.1117  0.0453 -0.2706
    2TRP    SC4 1218   4.657   0.999   3.172 -0.0811 -0.2667 -0.0181
    3TYR     BB 1219   4.753   0.639   2.399  0.2140  0.2285  0.0269
    3TYR    SC1 1220   4.726   0.714   2.151 -0.3387  0.1213 -0.0173
    3TYR    SC2 1221   4.885   0.663   1.938 -0.1179 -0.2669  0.2249
    3TYR    SC3 1222   4.618   0.681   1.905 -0.0533  0.2874 -0.1720
    1TYR     BB 1223   1.651   1.216   2.073 -0.0101 -0.2334  0.2368
    1TYR    SC1 1224   1.626   1.228   2.370 -0.0074  0.2167  0.4023
    1TYR    SC2 1225   1.376   1.236   2.471 -0.2082  0.2209 -0.0632
    1TYR    SC3 1226   1.580   1.353   2.605 -0.4071  0.0375  0.4281
    2TRP     BB 1227   1.540   0.933   1.941 -0.0656  0.1694 -0.0728
    2TRP    SC1 1228   1.790   0.745   1.894 -0.0225 -0.1176  0.0562
    2TRP    SC2 1229   1.804   0.492   1.801  0.2371 -0.1226  0.0998
    2TRP    SC3 1230   1.825   0.540   2.066 -0.0793 -0.0730  0.1219
    2TRP    SC4 1231   1.793   0.287   1.977 -0.4037 -0.0533  0.1705
    3TYR     BB 1232   1.346   0.733   2.115  0.2035  0.2067 -0.0976
    3TYR    SC1 1233   1.107   0.911   2.207 -0.0638 -0.1991  0.0345
    3TYR    SC2 1234   0.965   1.068   2.374  0.1342  0.1433 -0.1057
    3TYR    SC3 1235   0.841   0.873   2.234 -0.0875  0.0561  0.1996
    1TYR     BB 1236   0.563   1.452   4.001 -0.0197  0.3237 -0.1578
    1TYR    SC1 1237   0.372   1.230   4.122  0.0148 -0.0309 -0.0306
    1TYR    SC2 1238   0.197   1.192   4.324  0.1538  0.0927  0.1153
    1TYR    SC3 1239   0.282   0.981   4.179  0.0221  0.0082  0.1589
    2TRP     BB 1240   0.583   1.723   3.844  0.1096 -0.0783 -0.3021
    2TRP    SC1 1241   0.434   1.914   4.022 -0.2095  0.0882  0.0070
    2TRP    SC2 1242   0.320   2.080   4.203 -0.4390 -0.1353  0.0753
    2TRP    SC3 1243   0.261   2.106   3.940 -0.3358  0.0002  0.0640
    2TRP    SC4 1244   0.196   2.302   4.114 -0.0037  0.1176  0.0644
    3TYR     BB 1245   0.763   1.754   3.662  0.0377  0.3422 -0.1951
    3TYR    SC1 1246   1.015   1.917   3.638 -0.1341 -0.1167 -0.3192
    3TYR    SC2 1247   1.133   2.119   3.503  0.2223 -0.1660 -0.0998
    3TYR    SC3 1248   1.284   1.943   3.642 -0.1068 -0.3534  0.0359
    1TYR     BB 1249   1.376   1.045   0.894 -0.1068  0.1102 -0.1490
    1TYR    SC1 1250   1.257   0.872   0.681 -0.1770  0.2316 -0.2279
    1TYR    SC2 1251   1.217   0.616   0.607 -0.4257  0.1578  0.1283
    1TYR    SC3 1252   1.264   0.804   0.420 -0.0913 -0.1635 -0.1311
    2TRP     BB 1253   1.693   1.130   0.962  0.0969  0.0895 -0.0626
    2TRP    SC1 1254   1.847   0.870   1.113 -0.0687  0.0644 -0.1168
    2TRP    SC2 1255   2.042   0.694   1.050 -0.0177  0.1365 -0.1617
    2TRP    SC3 1256   2.106   0.942   1.135 -0.0881  0.1029 -0.0064
    2TRP    SC4 1257   2.299   0.757   1.100 -0.0588  0.1135  0.0943
    3TYR     BB 1258   1.793   1.282   0.814 -0.3847  0.2477  0.0065
    3TYR    SC1 1259   1.649   1.566   0.719  0.0112  0.0983  0.1113
    3TYR    SC2 1260   1.408   1.617   0.608 -0.0089  0.2216  0.2089
    3TYR    SC3 1261   1.593   1.813   0.625  0.0868  0.1361  0.1648
    1TYR     BB 1262   3.254   1.833   0.295 -0.0660 -0.1866 -0.0197
    1TYR    SC1 1263   3.192   1.631   0.493 -0.3118 -0.2651  0.0122
    1TYR    SC2 1264   3.132   1.597   0.754 -0.2773 -0.1062  0.0422
    1TYR    SC3 1265   3.165   1.382   0.593  0.1942 -0.2283  0.2799
    2TRP     BB 1266   3.116   2.127   0.309  0.0621  0.3399 -0.0601
    2TRP    SC1 1267   3.290   2.324   0.247  0.3865 -0.4808  0.3268
    2TRP    SC2 1268   3.435   2.520   0.132  0.0058 -0.2699  0.1808
    2TRP    SC3 1269   3.442   2.270   0.031  0.1743 -0.2369  0.1069
    2TRP    SC4 1270   3.602   2.462  -0.072  0.2811 -0.1778  0.3711
    3TYR     BB 1271   2.837   2.182   0.363  0.1293 -0.2523  0.0712
    3TYR    SC1 1272   2.614   2.358   0.340 -0.2375  0.0227  0.0846
    3TYR    SC2 1273   2.381   2.439   0.450 -0.2596 -0.0108  0.0629
    3TYR    SC3 1274   2.455   2.533   0.208 -0.1615  0.1427  0.1502
    1TYR     BB 1275   0.913   0.294   5.227 -0.1092 -0.1070 -0.0785
    1TYR    SC1 1276   0.742   0.046   5.164 -0.1744 -0.0741 -0.0473
    1TYR    SC2 1277   0.525  -0.079   5.265 -0.1884 -0.3794 -0.4268
    1TYR    SC3 1278   0.577  -0.091   5.000  0.1158 -0.0288 -0.3933
    2TRP     BB 1279   0.731   0.477   5.361  0.0573  0.1012 -0.1356
    2TRP    SC1 1280   0.452   0.506   5.207  0.3511  0.0513 -0.1073
    2TRP    SC2 1281   0.301   0.576   4.994  0.3286  0.1304 -0.0658
    2TRP    SC3 1282   0.438   0.344   4.992  0.1222  0.0060 -0.0615
    2TRP    SC4 1283   0.287   0.413   4.779 -0.0288  0.0056  0.0435
    3TYR     BB 1284   0.747   0.720   5.590  0.0318  0.4591 -0.0403
    3TYR    SC1 1285   0.872   0.974   5.577  0.1812  0.0496  0.1723
    3TYR    SC2 1286   1.072   1.152   5.545 -0.0109  0.2397 -0.0034
    3TYR    SC3 1287   0.816   1.237   5.557 -0.1020 -0.0204 -0.0321
    1TYR     BB 1288   1.179   0.759   4.350  0.1705  0.0784 -0.1130
    1TYR    SC1 1289   0.926   0.836   4.169 -0.0487  0.2417  0.4228
    1TYR    SC2 1290   0.732   0.980   4.047  0.1463  0.0425 -0.1649
    1TYR    SC3 1291   0.947   0.896   3.907  0.2059 -0.5442  0.2306
    2TRP     BB 1292   1.293   0.462   4.243  0.1339  0.1646 -0.0842
    2TRP    SC1 1293   1.461   0.295   4.414  0.0822  0.1047  0.1496
    2TRP    SC2 1294   1.654   0.141   4.523 -0.0140  0.1051  0.3249
    2TRP    SC3 1295   1.720   0.369   4.394  0.1516 -0.1860 -0.1372
    2TRP    SC4 1296   1.913   0.198   4.475  0.0242 -0.2259  0.0958
    3TYR     BB 1297   1.318   0.427   3.948 -0.1031 -0.2179 -0.1701
    3TYR    SC1 1298   1.545   0.252   3.931  0.2753  0.5048 -0.1033
    3TYR    SC2 1299   1.624   0.078   3.740 -0.0471  0.0044  0.1877
    3TYR    SC3 1300   1.799   0.160   3.929  0.0844 -0.0896  0.1086
    4W        W 1301   2.685   6.381   2.731  0.1669 -0.2855  0.0561
    5W        W 1302   1.215   6.851   6.117  0.1711  0.3925 -0.0537
    6W        W 1303   0.874   6.472   3.274 -0.1415  0.1159 -0.1724
    7W        W 1304   0.613   5.017   7.175  0.1683 -0.0524 -0.0485
    8W        W 1305   4.237   2.223   2.685 -0.0614 -0.0394 -0.0098
    9W        W 1306   0.027   2.182   0.370 -0.0141  0.4841  0.1301
   10W        W 1307   1.305   3.751   1.320  0.1958 -0.1024 -0.1624
   11W        W 1308   0.334   7.488   1.731  0.1006  0.2466 -0.2434
   12W        W 1309   7.352   5.732   1.235  0.1554  0.0525 -0.1004
   13W        W 1310   5.189   5.983   6.638 -0.2533  0.0587  0.1205
   14W        W 1311   5.011   5.532   6.658 -0.0475  0.1483  0.1763
   15W        W 1312   4.125   6.840   6.605 -0.0725  0.0456  0.1564
   16W        W 1313   2.462   1.554   5.715 -0.0085 -0.2399  0.2922
   17W        W 1314   3.167   4.960   5.890  0.1720  0.5333  0.3356
   18W        W 1315   4.841   4.545   2.937  0.0302 -0.0594  0.1858
   19W        W 1316   7.194   2.709   4.767 -0.2363 -0.1029  0.0701
   20W        W 1317   7.172   5.881   7.121  0.1832  0.0067 -0.2230
   21W        W 1318   5.638   3.417   3.711 -0.0336 -0.2715 -0.0795
   22W        W 1319   5.048   3.818   5.055  0.2172  0.1609 -0.1853
   23W        W 1320   6.325   1.493   0.642 -0.0170 -0.0604  0.0581
   24W        W 1321   2.107   2.833   7.361 -0.0089  0.1227 -0.2536
   25W        W 1322   6.273   2.939   0.091 -0.1192 -0.0098 -0.0193
   26W        W 1323   7.099   3.749   1.172  0.1770  0.1900  0.2040
   27W        W 1324   3.048   6.437   2.388 -0.1158 -0.2494 -0.3751
   28W        W 1325   1.688   4.953   4.685 -0.1913 -0.0675  0.1307
   29W        W 1326   2.256   5.588   0.115 -0.1893 -0.2965  0.1449
   30W        W 1327   0.172   5.314   6.449  0.0648  0.0886  0.1642
   31W        W 1328   5.165   0.547   4.427 -0.1056 -0.2323 -0.1015
   32W        W 1329   6.846   5.312   2.670  0.0745 -0.1878 -0.3409
   33W        W 1330   7.099   5.526   1.673 -0.1782  0.4042  0.0033
   34W        W 1331   3.646   6.705   4.031 -0.1325  0.0391 -0.2748
   35W        W 1332   1.528   5.928   3.117  0.0497 -0.4215  0.1515
   36W        W 1333   5.780   2.656   6.326 -0.0416 -0.0787  0.2790
   37W        W 1334   4.637   7.185   3.571  0.1268  0.1393 -0.2991
   38W        W 1335   6.881   2.229   3.053 -0.1174 -0.2361 -0.1123
   39W        W 1336   6.777   2.807   3.890 -0.0554  0.1475  0.5154
   40W        W 1337   6.621   4.487   3.585 -0.0348 -0.1015  0.1423
   41W        W 1338   3.895   4.681   6.917  0.0321 -0.2700 -0.2495
   42W        W 1339   1.842   5.732   2.121 -0.0365  0.0424 -0.3015
   43W        W 1340   3.875   2.864   2.778 -0.2352  0.2315  0.0773
   44W        W 1341   7.141   1.325   7.337 -0.0459  0.2587  0.3207
   45W        W 1342   6.362   3.605   3.521 -0.0370  0.0914  0.1372
   46W        W 1343   5.640   6.182   1.457 -0.3118  0.1461  0.2037
   47W        W 1344   4.163   7.350   3.175  0.2228 -0.1135  0.1555
   48W        W 1345   4.667   6.663   7.479  0.1850 -0.0470  0.0814
   49W        W 1346   7.192   2.479   5.298  0.3970  0.1603  0.1579
   50W        W 1347   6.448   1.892   4.218  0.0774  0.0202 -0.2565
   51W        W 1348   6.051   4.716   6.140 -0.0785 -0.2532  0.1226
   52W        W 1349   1.992   5.467   7.228 -0.0160 -0.2326  0.0396
   53W        W 1350   2.966   6.011   2.923 -0.1273  0.2972  0.3296
   54W        W 1351   7.278   2.085   1.137  0.3013  0.0372 -0.1407
   55W        W 1352   5.193   3.840   2.467 -0.3095 -0.2554  0.2617
   56W        W 1353   4.383   7.230   0.553 -0.0797  0.1846 -0.1617
   57W        W 1354   0.518   1.217   3.498  0.1731 -0.2483 -0.0767
   58W        W 1355   0.924   5.978   7.010 -0.4442 -0.2127  0.1859
   59W        W 1356   4.412   5.028   4.142  0.3249  0.3780  0.2125
   60W        W 1357   1.754   2.866   3.273 -0.2155  0.2440 -0.0428
   61W        W 1358   2.417   6.548   6.611 -0.0106 -0.2699  0.0687
   62W        W 1359   4.086   6.883   4.192 -0.2774  0.2332 -0.0335
   63W        W 1360   0.237   1.418   1.709  0.1145 -0.1458 -0.0476
   64W        W 1361   7.266   0.376   0.141  0.2947 -0.1594 -0.2420
   65W        W 1362   0.169   2.055   1.004  0.1357 -0.0041  0.1871
   66W        W 1363   3.800   2.876   4.863  0.1804  0.0609 -0.1071
   67W        W 1364   2.518   0.807   5.833  0.0378 -0.1433 -0.3489
   68W        W 1365   2.199   3.575   4.049 -0.0549  0.0127 -0.4219
   69W        W 1366   4.729   1.928   3.195  0.4007 -0.1457  0.0658
   70W        W 1367   6.382   0.294   1.174  0.5469  0.4311 -0.2444
   71W        W 1368   5.431   4.021   0.368 -0.2435 -0.2018  0.1983
   72W        W 1369   7.354   0.143   2.308 -0.2472  0.2509 -0.1349
   73W        W 1370   6.847   3.726   5.669 -0.1777  0.1602  0.1356
   74W        W 1371   2.459   7.343   7.202  0.0995 -0.1504  0.1408
   75W        W 1372   2.789   4.274   3.324 -0.0299 -0.0455 -0.0533
   76W        W 1373   2.486   4.633   6.466 -0.0970 -0.2520 -0.1616
   77W        W 1374   6.873   4.713   1.008  0.1893  0.0277 -0.0399
   78W        W 1375   4.045   2.490   3.067 -0.1629 -0.1155  0.0252
   79W        W 1376   6.776   5.656   5.679  0.2315 -0.1243  0.2458
   80W        W 1377   6.567   7.469   7.365  0.0557  0.1864 -0.2156
   81W        W 1378   0.590   3.328   5.556 -0.1095  0.1631  0.1079
   82W        W 1379   2.755   3.206   1.444  0.0598 -0.3188 -0.0294
   83W        W 1380   0.010   2.350   2.014  0.0819 -0.0848  0.2354
   84W        W 1381   2.612   0.674   4.753 -0.2155  0.0238  0.1492
   85W        W 1382   5.528   5.785   2.742 -0.2943 -0.0824  0.3136
   86W        W 1383   7.619   4.093   0.248  0.0791 -0.0155  0.0485
   87W        W 1384   4.437   0.803   4.137 -0.2044  0.0247  0.2212
   88W        W 1385   6.031   6.199   6.541 -0.0956 -0.0341  0.0028
   89W        W 1386   5.843   2.756   7.616  0.0941 -0.0365  0.0873
   90W        W 1387   2.373   6.524   3.114 -0.0990  0.0398  0.0895
   91W        W 1388   2.174   4.301   0.909  0.0251 -0.0661  0.1264
   92W        W 1389   2.645   5.924   0.438  0.0842 -0.1870 -0.1418
   93W        W 1390   2.508   7.102   6.797  0.1215 -0.0936  0.0953
   94W        W 1391   2.812   2.839   1.103 -0.4620  0.1338  0.0640
   95W        W 1392   0.024   6.276   0.327  0.1457 -0.3544 -0.1671
   96W        W 1393   7.248   5.131   1.979 -0.1454  0.0612  0.0807
   97W        W 1394   5.371   6.671   7.222 -0.0334  0.0633 -0.0658
   98W        W 1395   6.227   4.690   4.664 -0.1571  0.1132 -0.0691
   99W        W 1396   6.034   6.716   5.006  0.0746 -0.2414  0.0998
  100W        W 1397   2.276   4.222   3.550 -0.0390 -0.0597 -0.0697
  101W        W 1398   3.385   5.771   1.373 -0.2700 -0.0229  0.0435
  102W        W 1399   7.505   4.079   3.493 -0.1659  0.0130 -0.0595
  103W        W 1400   7.351   4.178   1.221 -0.1316  0.1311 -0.3123
  104W        W 1401   6.134   0.420   0.671 -0.0823  0.0157  0.0757
  105W        W 1402   0.568   0.751   3.357 -0.1973  0.2023  0.0326
  106W        W 1403   4.938   2.903   3.254 -0.0355  0.4250 -0.0508
  107W        W 1404   1.793   3.295   2.617 -0.1936  0.0780 -0.0347
  108W        W 1405   0.810   4.905   1.186  0.0746 -0.1791 -0.0238
  109W        W 1406   1.729   6.494   6.647  0.1911  0.1250 -0.0173
  110W        W 1407   7.039   5.241   4.617  0.1781  0.3184  0.2792
  111W        W 1408   7.287   5.475   2.915  0.0533 -0.0263  0.1592
  112W        W 1409   4.633   4.282   3.265  0.2587 -0.0444  0.1030
  113W        W 1410   0.909   3.738   2.715 -0.5732 -0.1771 -0.1077
  114W        W 1411   3.789   3.554   1.223 -0.0849 -0.4407  0.0123
  115W        W 1412   2.808   5.181   1.215 -0.3261 -0.1257  0.0043
  116W        W 1413   7.538   6.569   3.131  0.3292 -0.2342 -0.1139
  117W        W 1414   1.929   5.469   0.895 -0.2566 -0.2644 -0.2497
  118W        W 1415   5.774   4.978   0.099 -0.1731  0.2404 -0.0165
  119W        W 1416   0.469   7.157   6.947  0.1987  0.0915 -0.2763
  120W        W 1417   0.983   1.785   1.320  0.1107  0.0503  0.0530
  121W        W 1418   6.934   4.438   5.107  0.0647 -0.3602  0.1800
  122W        W 1419   6.288   1.868   5.289  0.2145  0.0102  0.2064
  123W        W 1420   7.123   4.911   0.134  0.0198  0.2361  0.1567
  124W        W 1421   7.463   5.105   7.293 -0.1957 -0.2107 -0.0903
  125W        W 1422   0.283   5.312   7.000 -0.1311  0.0778  0.2001
  126W        W 1423   2.910   6.877   2.583  0.3361 -0.2280 -0.1772
  127W        W 1424   6.094   6.435   3.060  0.4791  0.1138 -0.0441
  128W        W 1425   6.172   6.957   2.252  0.0168  0.0249  0.2520
  129W        W 1426   4.916   6.896   6.423  0.0467  0.2231 -0.2410
  130W        W 1427   3.201   4.543   0.274  0.1323 -0.0872  0.0973
  131W        W 1428   7.508   1.782   1.453 -0.0607  0.3949 -0.1399
  132W        W 1429   5.624   4.162   4.239  0.1250  0.0436 -0.2843
  133W        W 1430   2.734   6.605   5.403 -0.1785  0.0465  0.0262
  134W        W 1431   3.154   5.266   3.576  0.0340 -0.2352 -0.2549
  135W        W 1432   0.390   3.562   1.084 -0.1424  0.0209 -0.4322
  136W        W 1433   2.183   1.975   5.711 -0.1202  0.1330  0.1086
  137W        W 1434   1.124   2.800   4.093 -0.1564  0.1826 -0.2675
  138W        W 1435   2.882   2.457   2.539  0.0901 -0.1831  0.0193
  139W        W 1436   3.411   0.287   6.731 -0.2427 -0.1959 -0.2363
  140W        W 1437   4.564   3.354   7.547 -0.0982  0.1135 -0.0818
  141W        W 1438   6.503   3.503   5.924 -0.1516 -0.0527  0.0513
  142W        W 1439   4.871   1.445   3.382 -0.0128  0.0735 -0.0665
  143W        W 1440   5.959   3.355   5.240 -0.1388  0.0995  0.0429
  144W        W 1441   5.527   6.428   3.621  0.3621 -0.0222  0.2611
  145W        W 1442   1.566   7.131   4.598  0.3842 -0.1014  0.1935
  146W        W 1443   4.209   6.341   6.464  0.0292 -0.2232  0.1817
  147W        W 1444   4.294   5.575   1.159  0.0882  0.2405 -0.2478
  148W        W 1445   1.262   3.924   0.851 -0.1221 -0.1544  0.0165
  149W        W 1446   6.042   4.836   5.490  0.2803 -0.3983 -0.3311
  150W        W 1447   4.989   3.454   5.543 -0.2166  0.1397 -0.1726
  151W        W 1448   2.355   4.681   0.450 -0.2244 -0.2695 -0.1216
  152W        W 1449   0.890   7.313   3.192  0.1691 -0.1996  0.1919
  153W        W 1450   2.897   3.553   2.031  0.0699 -0.1291 -0.0431
  154W        W 1451   5.399   5.508   1.396 -0.0006  0.3436 -0.0500
  155W        W 1452   6.443   3.430   6.471 -0.2025  0.2219  0.0835
  156W        W 1453   2.001   6.122   0.780  0.1093 -0.0433 -0.0544
  157W        W 1454   7.051   5.804   2.564 -0.1818  0.1485  0.0821
  158W        W 1455   3.009   1.538   3.935 -0.2535  0.0527  0.2015
  159W        W 1456   4.942   2.294   7.439  0.0315 -0.2092  0.0374
  160W        W 1457   1.778   6.919   7.070  0.1642 -0.1079 -0.1674
  161W        W 1458   4.246   1.388   5.779  0.3487  0.0473 -0.2006
  162W        W 1459   3.100   3.016   3.134 -0.2739 -0.2262  0.3129
  163W        W 1460   1.609   3.899   1.871 -0.0138 -0.0962  0.1231
  164W        W 1461   6.870   4.676   7.348  0.1385 -0.0280  0.0291
  165W        W 1462   1.067   6.643   1.441  0.1496 -0.1939  0.3481
  166W        W 1463   5.111   2.981   1.154  0.0804 -0.0166 -0.3104
  167W        W 1464   6.756   2.047   0.144 -0.2250 -0.1270  0.4024
  168W        W 1465   0.359   4.336   6.244 -0.1520 -0.4816 -0.0531
  169W        W 1466   7.551   0.608   2.156  0.1055  0.2930 -0.1189
  170W        W 1467   6.745   6.079   3.490  0.0748  0.2099 -0.2234
  171W        W 1468   1.202   5.695   4.966 -0.1153  0.0024  0.0351
  172W        W 1469   3.146   3.627   0.071 -0.0248  0.1210  0.1949
  173W        W 1470   6.951   1.009   2.889 -0.4050  0.2054  0.1148
  174W        W 1471   3.755   7.177   6.729  0.1851  0.4436 -0.0500
  175W        W 1472   5.593   6.805   0.186  0.0316 -0.0866  0.0721
  176W        W 1473   7.116   7.485   0.241 -0.1227  0.0515 -0.1018
  177W        W 1474   3.188   5.778   5.196  0.1925  0.3050  0.0287
  178W        W 1475   6.614   5.018   3.187  0.1951 -0.0513  0.2261
  179W        W 1476   6.801   2.815   1.423  0.0197  0.1365  0.2780
  180W        W 1477   0.105   4.224   3.042 -0.1126 -0.1981  0.1427
  181W        W 1478   5.163   1.223   3.853  0.1173 -0.2024 -0.0746
  182W        W 1479   4.659   4.646   2.420 -0.2052  0.1889  0.0527
  183W        W 1480   4.188   0.873   4.612  0.2058 -0.0456  0.1777
  184W        W 1481   5.341   5.382   2.830 -0.1806  0.2055 -0.0191
  185W        W 1482   6.600   2.359   5.852 -0.2042 -0.0189 -0.1198
  186W        W 1483   2.624   4.740   4.264  0.4678 -0.0037 -0.1629
  187W        W 1484   4.007   5.299   4.305  0.2705 -0.1316  0.5907
  188W        W 1485   1.148   5.129   6.654  0.2959 -0.2448 -0.2678
  189W        W 1486   5.447   4.580   4.783  0.2388 -0.2824 -0.2604
  190W        W 1487   6.362   4.616   6.539  0.1223 -0.0144  0.0774
  191W        W 1488   5.471   7.474   6.064  0.2754  0.0535 -0.3708
  192W        W 1489   1.001   3.332   4.359  0.1936  0.0046 -0.0406
  193W        W 1490   1.186   7.551   5.421 -0.1670  0.1596 -0.1627
  194W        W 1491   6.935   4.310   6.032 -0.2198 -0.0735 -0.1604
  195W        W 1492   6.161   6.422   5.541 -0.0433  0.3301  0.2701
  196W        W 1493   7.395   1.459   2.802 -0.0082  0.1731  0.1287
  197W        W 1494   7.389   2.651   7.310 -0.2067  0.2219  0.4631
  198W        W 1495   0.500   5.371   1.491 -0.2828 -0.3551  0.1640
  199W        W 1496   5.144   0.924   6.908 -0.0110 -0.0636  0.0919
  200W        W 1497   6.637   5.682   7.242 -0.1149 -0.0249 -0.0522
  201W        W 1498   6.268   2.632   3.855 -0.0545 -0.0686 -0.2393
  202W        W 1499   7.146   0.091   0.694  0.1000 -0.0666  0.2590
  203W        W 1500   2.283   5.084   1.276  0.1528 -0.1156 -0.0540
  204W        W 1501   7.136   2.103   5.601 -0.0360 -0.1510 -0.1215
  205W        W 1502   4.322   5.410   0.422  0.0255 -0.0714  0.2248
  206W        W 1503   6.675   5.763   3.976  0.0026 -0.0656 -0.1248
  207W        W 1504   4.629   1.193   0.232  0.0335 -0.1515  0.3417
  208W        W 1505   2.043   4.396   0.260  0.0011  0.0693  0.0516
  209W        W 1506   2.610   3.685   0.084  0.0093 -0.1325  0.2764
  210W        W 1507   0.556   2.235   0.638 -0.0106 -0.0477 -0.0555
  211W        W 1508   6.316   1.658   6.048 -0.0060  0.1188  0.0501
  212W        W 1509   6.177   1.660   4.677 -0.0568  0.0651  0.0381
  213W        W 1510   5.882   5.198   1.511 -0.1851 -0.0129  0.0419
  214W        W 1511   2.667   5.840   4.405 -0.2161 -0.2039  0.2843
  215W        W 1512   0.539   5.120   4.976 -0.2813  0.0837 -0.0513
  216W        W 1513   4.663   0.416   3.781  0.0786  0.3690  0.3192
  217W        W 1514   1.032   6.121   0.327  0.0918 -0.2383 -0.3908
  218W        W 1515   4.498   1.090   3.705  0.0930  0.2748 -0.0559
  219W        W 1516   2.672   6.600   1.839 -0.2262  0.0870  0.1686
  220W        W 1517   0.031   5.886   6.054  0.0199  0.1089  0.0501
  221W        W 1518   7.183   2.041   2.170  0.0690 -0.0457 -0.0574
  222W        W 1519   0.769   6.083   7.458  0.1133 -0.1838  0.1622
  223W        W 1520   5.588   7.232   7.494  0.2761  0.0858 -0.1764
  224W        W 1521   3.403   5.974   7.587  0.1207  0.2028 -0.2363
  225W        W 1522   0.618   5.474   3.018 -0.1246  0.3486 -0.3158
  226W        W 1523   1.834   4.396   3.782  0.3176  0.1133 -0.0291
  227W        W 1524   0.628   6.741   3.723  0.1554  0.0323  0.0368
  228W        W 1525   7.195   2.609   3.540  0.1605  0.2419 -0.2998
  229W        W 1526   6.008   4.653   0.661  0.4060  0.1244  0.0153
  230W        W 1527   3.275   3.663   4.439  0.1785  0.1907 -0.1728
  231W        W 1528   3.498   2.534   3.946 -0.0303 -0.2191  0.1415
  232W        W 1529   0.866   4.748   3.103 -0.0780  0.0099 -0.2794
  233W        W 1530   3.615   0.248   7.258  0.0750 -0.1480  0.1064
  234W        W 1531   0.240   6.392   3.922 -0.0535 -0.0376 -0.0684
  235W        W 1532   2.371   7.159   0.058  0.2492 -0.2883  0.2444
  236W        W 1533   1.109   5.053   7.170  0.3440  0.0226 -0.0773
  237W        W 1534   2.622   5.053   5.964 -0.3453 -0.1385  0.1679
  238W        W 1535   6.693   3.010   3.351 -0.0809 -0.2479  0.0897
  239W        W 1536   5.799   1.574   2.116 -0.3768  0.2707  0.3067
  240W        W 1537   3.384   5.792   3.614 -0.3099  0.1214  0.0959
  241W        W 1538   5.761   0.187   1.025 -0.1366  0.0993  0.3501
  242W        W 1539   0.915   5.362   4.741 -0.1102  0.0725 -0.1736
  243W        W 1540   0.463   3.336   6.588 -0.0269 -0.2034 -0.1501
  244W        W 1541   1.397   3.403   4.718  0.0687  0.2397  0.1566
  245W        W 1542   7.526   1.387   0.040  0.0456 -0.0574  0.0768
  246W        W 1543   0.371   0.269   2.077  0.1312 -0.6494  0.0617
  247W        W 1544   2.716   0.532   4.238 -0.0342 -0.1572  0.1786
  248W        W 1545   4.491   3.633   2.056  0.3030  0.0184  0.0817
  249W        W 1546   1.451   3.654   5.679 -0.1796  0.1710 -0.0897
  250W        W 1547   4.245   2.769   3.442 -0.1051 -0.1932  0.2356
  251W        W 1548   5.690   7.016   6.453  0.0614 -0.3071 -0.1527
  252W        W 1549   2.858   2.241   6.773 -0.2250 -0.1151  0.2774
  253W        W 1550   2.980   0.000   5.666  0.0010  0.3667 -0.0256
  254W        W 1551   4.135   2.422   2.023 -0.0501  0.0564 -0.0748
  255W        W 1552   7.350   1.416   1.871  0.0876 -0.3283  0.0987
  256W        W 1553   6.843   5.880   2.095  0.0800 -0.1242 -0.1506
  257W        W 1554   5.325   7.293   4.147  0.1818 -0.1012  0.0225
  258W        W 1555   6.281   1.660   2.033 -0.1037  0.1499  0.0184
  259W        W 1556   5.181   7.250   1.090 -0.2723 -0.0388 -0.0449
  260W        W 1557   0.701   7.242   4.117 -0.0665 -0.4026  0.2049
  261W        W 1558   3.774   3.494   2.499 -0.3643  0.4199  0.2576
  262W        W 1559   1.171   3.310   3.930  0.1728 -0.1686  0.0641
  263W        W 1560   4.315   3.936   5.468 -0.2512 -0.0236 -0.0363
  264W        W 1561   5.234   4.407   5.662 -0.3299  0.1074  0.1329
  265W        W 1562   3.364   4.669   1.502  0.0744  0.0025 -0.2474
  266W        W 1563   0.047   2.622   1.112 -0.1450  0.2497 -0.0507
  267W        W 1564   2.231   5.945   1.263  0.4169  0.1794 -0.1075
  268W        W 1565   7.454   6.609   3.730  0.0448 -0.0830  0.0228
  269W        W 1566   6.208   5.407   1.040  0.2390  0.0986  0.1759
  270W        W 1567   5.417   3.740   3.280 -0.1372  0.1294 -0.0218
  271W        W 1568   7.523   3.530   5.984  0.0651  0.1204 -0.5168
  272W        W 1569   0.133   3.830   3.860 -0.1790 -0.0987  0.0879
  273W        W 1570   4.567   6.292   0.155 -0.4772 -0.0341  0.0506
  274W        W 1571   3.536   5.376   4.439  0.0253 -0.1555  0.0233
  275W        W 1572   2.958   0.520   5.860 -0.4593  0.3453  0.0100
  276W        W 1573   3.317   3.536   3.843 -0.0655 -0.0355  0.1333
  277W        W 1574   3.160   2.570   6.682  0.0059 -0.1338 -0.1582
  278W        W 1575   3.164   5.506   1.803 -0.0071  0.0854  0.0131
  279W        W 1576   6.840   2.567   7.420  0.1134  0.2168 -0.1965
  280W        W 1577   4.867   4.647   3.475  0.1498  0.0003  0.1718
  281W        W 1578   3.797   5.751   6.120  0.5669  0.1147 -0.1441
  282W        W 1579   0.960   5.419   1.319 -0.0566 -0.0467  0.1640
  283W        W 1580   6.764   6.856   4.699  0.0697  0.2781 -0.3420
  284W        W 1581   2.558   4.026   6.375  0.0940 -0.0446 -0.0061
  285W        W 1582   6.626   0.926   1.315 -0.1206 -0.0283  0.1451
  286W        W 1583   1.230   2.527   7.091 -0.1334 -0.0035 -0.2666
  287W        W 1584   3.677   1.966   4.426 -0.3726 -0.3039  0.0030
  288W        W 1585   1.872   5.711   2.841 -0.2011  0.1057 -0.0827
  289W        W 1586   1.332   4.813   6.022  0.2168 -0.1937  0.3001
  290W        W 1587   4.350   4.204   2.398 -0.0215 -0.0040 -0.3516
  291W        W 1588   2.624   6.172   5.234  0.0284  0.1055 -0.1419
  292W        W 1589   2.523   6.405   0.454 -0.2601  0.1074 -0.0881
  293W        W 1590   5.820   4.158   0.601  0.3003  0.0284 -0.1361
  294W        W 1591   7.059   2.565   1.919  0.1228  0.0857 -0.1372
  295W        W 1592   0.281   4.220   6.727 -0.1566  0.0993 -0.0128
  296W        W 1593   0.346   1.119   3.048 -0.1418  0.2561  0.2372
  297W        W 1594   0.804   4.931   4.067  0.1776  0.0143  0.3194
  298W        W 1595   6.295   3.005   2.646 -0.1834 -0.0489 -0.0692
  299W        W 1596   3.919   2.498   0.539  0.3935  0.0893  0.0370
  300W        W 1597   5.303   7.197   0.316 -0.1905 -0.1682  0.1174
  301W        W 1598   5.929   5.251   0.541 -0.1977  0.1203 -0.0985
  302W        W 1599   5.758   5.140   5.226 -0.1967 -0.1176  0.0336
  303W        W 1600   2.167   2.028   4.820 -0.0122  0.1518  0.2201
  304W        W 1601   6.648   1.568   7.114  0.1052  0.0021 -0.1694
  305W        W 1602   0.212   6.094   2.091  0.1455 -0.2612 -0.3250
  306W        W 1603   1.851   6.272   2.997  0.1208 -0.0212  0.1045
  307W        W 1604   1.030   5.254   0.386 -0.0280  0.0827  0.4558
  308W        W 1605   1.700   5.699   5.029  0.1010 -0.0035  0.0090
  309W        W 1606   6.632   1.081   7.543  0.2274 -0.0838 -0.2140
  310W        W 1607   5.989   4.204   0.166 -0.2088 -0.1791 -0.5360
  311W        W 1608   5.507   2.508   5.861  0.0439 -0.0649  0.4582
  312W        W 1609   3.506   7.452   2.900  0.1981  0.0383  0.1060
  313W        W 1610   1.821   7.024   3.294  0.0836 -0.0276 -0.2073
  314W        W 1611   7.312   2.396   0.637 -0.0133 -0.1168  0.3199
  315W        W 1612   2.948   5.326   6.178 -0.1005 -0.0901 -0.0920
  316W        W 1613   3.313   5.319   1.045  0.0024 -0.0248  0.2852
  317W        W 1614   1.150   1.480   2.045 -0.0028 -0.1315 -0.3084
  318W        W 1615   7.149   2.972   5.444  0.3553 -0.0581  0.0014
  319W        W 1616   2.782   6.247   5.730 -0.2295 -0.0324  0.0617
  320W        W 1617   4.883   4.808   1.527 -0.3669  0.2891  0.3892
  321W        W 1618   6.828   4.560   3.133  0.2953  0.2560  0.3359
  322W        W 1619   6.325   4.978   0.777 -0.4166 -0.0421  0.0471
  323W        W 1620   4.508   3.736   0.801 -0.0788  0.1286  0.0623
  324W        W 1621   4.348   2.114   7.444  0.0857 -0.1033  0.2068
  325W        W 1622   5.728   4.743   6.562 -0.0173  0.0375  0.2460
  326W        W 1623   4.032   1.041   3.875 -0.3867  0.0193  0.1110
  327W        W 1624   4.094   0.713   6.426  0.2130 -0.1497  0.0211
  328W        W 1625   1.337   2.271   1.141  0.2880  0.1279  0.0960
  329W        W 1626   4.496   7.529   5.696  0.3133 -0.1568  0.1197
  330W        W 1627   7.535   2.534   4.423  0.2246  0.0547 -0.0669
  331W        W 1628   7.113   0.859   7.183 -0.1433  0.0953  0.1017
  332W        W 1629   1.407   4.435   5.614 -0.0478 -0.0604 -0.4161
  333W        W 1630   3.101   3.552   3.087 -0.0158 -0.0942  0.1441
  334W        W 1631   6.758   2.654   5.440 -0.0172  0.1677  0.1856
  335W        W 1632   3.476   3.826   2.752 -0.0931  0.0032  0.1562
  336W        W 1633   1.869   4.565   5.482 -0.0316  0.0170 -0.3805
  337W        W 1634   4.261   2.719   1.567  0.0464  0.0064 -0.0893
  338W        W 1635   5.162   4.894   1.060 -0.1150 -0.1007  0.4230
  339W        W 1636   5.981   4.327   2.051  0.0861 -0.0281 -0.3388
  340W        W 1637   5.382   3.668   1.931 -0.1918  0.0060  0.4504
  341W        W 1638   3.017   2.494   3.193  0.0679 -0.1099  0.1906
  342W        W 1639   4.244   7.266   5.303  0.1277  0.2094  0.4487
  343W        W 1640   3.681   6.977   0.102  0.1515 -0.0518  0.1048
  344W        W 1641   4.288   4.962   4.581  0.1628  0.0312 -0.2222
  345W        W 1642   3.963   3.568   4.525  0.0333 -0.1997  0.1293
  346W        W 1643   3.330   3.289   7.355  0.2055 -0.3816  0.2166
  347W        W 1644   5.946   4.234   6.369  0.0976  0.1792  0.0926
  348W        W 1645   4.139   4.927   1.964 -0.2271  0.1866  0.0733
  349W        W 1646   2.078   3.598   0.170  0.0709  0.0740  0.0596
  350W        W 1647   5.124   4.686   6.345 -0.0284  0.2818 -0.3076
  351W        W 1648   6.299   5.625   4.346  0.0827 -0.1063 -0.3682
  352W        W 1649   4.688   1.865   0.666 -0.1478  0.0528 -0.1216
  353W        W 1650   2.902   7.567   3.811 -0.2760 -0.0999  0.0493
  354W        W 1651   3.891   0.021   6.876 -0.0460  0.1021  0.0867
  355W        W 1652   6.104   2.353   1.528  0.2171  0.3281  0.0968
  356W        W 1653   1.337   6.631   4.322 -0.0390  0.1416  0.2233
  357W        W 1654   1.059   6.465   2.401 -0.1411 -0.0137  0.0350
  358W        W 1655   0.972   7.159   3.651 -0.1457 -0.0866  0.0481
  359W        W 1656   3.345   6.465   7.367  0.1221 -0.1001  0.2880
  360W        W 1657   6.747   0.845   1.963  0.1412 -0.0826  0.2777
  361W        W 1658   6.263   2.401   1.005 -0.0824  0.2254  0.1605
  362W        W 1659   5.712   1.017   0.903  0.1704  0.2757  0.1224
  363W        W 1660   4.193   7.106   2.272  0.3483 -0.1857  0.3746
  364W        W 1661   5.591   6.568   6.199 -0.0098  0.1754  0.3812
  365W        W 1662   5.967   4.497   6.883 -0.0567  0.1208 -0.3480
  366W        W 1663   2.533   3.482   6.900  0.2370  0.2077  0.2202
  367W        W 1664   0.530   2.737   3.344  0.0422  0.2996  0.0958
  368W        W 1665   7.276   6.530   0.145  0.0912 -0.0584 -0.0375
  369W        W 1666   2.268   6.096   2.707  0.0055  0.1963  0.3073
  370W        W 1667   4.066   7.530   7.372 -0.2584 -0.0955  0.1086
  371W        W 1668   5.874   1.849   0.706  0.0173  0.1769  0.2594
  372W        W 1669   4.323   6.116   1.740 -0.2656  0.1164 -0.3719
  373W        W 1670   4.692   4.948   4.870 -0.0467  0.0389  0.1929
  374W        W 1671   2.768   5.864   1.963  0.2121  0.1252 -0.2931
  375W        W 1672   4.300   2.990   7.326  0.0476  0.0085 -0.2372
  376W        W 1673   4.142   3.927   3.504 -0.3427  0.1304 -0.0827
  377W        W 1674   2.585   0.482   6.654 -0.2949 -0.2098  0.0903
  378W        W 1675   1.515   4.651   3.473 -0.0880 -0.0597 -0.2341
  379W        W 1676   5.888   5.382   2.005  0.2463  0.1086  0.2946
  380W        W 1677   4.587   2.364   4.126  0.1113  0.0805 -0.2033
  381W        W 1678   5.670   3.111   6.178 -0.2967 -0.3644 -0.2417
  382W        W 1679   3.239   5.250   5.271  0.2273 -0.1076 -0.3550
  383W        W 1680   5.544   2.894   6.720  0.0292 -0.0817  0.0277
  384W        W 1681   0.084   3.263   7.062  0.3818  0.0223 -0.3303
  385W        W 1682   0.045   6.745   6.948  0.1395 -0.1401  0.2765
  386W        W 1683   3.563   5.652   4.907  0.2837  0.0517 -0.1018
  387W        W 1684   6.690   1.122   0.839  0.3944  0.0087 -0.0775
  388W        W 1685   5.347   2.987   7.197 -0.1724  0.1445 -0.3182
  389W        W 1686   4.169   5.442   7.547  0.2474 -0.0041  0.0107
  390W        W 1687   0.508   6.207   5.312  0.1634  0.0629  0.2733
  391W        W 1688   5.823   3.258   0.450 -0.2891 -0.0806  0.0311
  392W        W 1689   2.371   4.457   3.143 -0.0526  0.0473  0.0161
  393W        W 1690   6.032   1.975   1.203  0.2841  0.2859 -0.0062
  394W        W 1691   3.466   7.095   4.356 -0.2489  0.0135  0.0620
  395W        W 1692   6.119   6.654   1.755 -0.0358  0.1608  0.0163
  396W        W 1693   1.984   7.122   0.375  0.2496  0.1137  0.1732
  397W        W 1694   1.519   2.931   6.255 -0.0026  0.0773 -0.1277
  398W        W 1695   4.910   1.510   4.375  0.0186 -0.2037  0.0580
  399W        W 1696   7.593   7.539   1.342  0.2222 -0.0405 -0.0558
  400W        W 1697   6.553   4.999   3.728  0.0611 -0.0316 -0.0835
  401W        W 1698   3.934   4.295   5.549 -0.0567  0.3094 -0.0496
  402W        W 1699   2.816   6.583   1.286 -0.0919 -0.1173  0.2956
  403W        W 1700   4.554   6.199   0.643  0.3194  0.0816 -0.1864
  404W        W 1701   0.652   3.542   0.637 -0.1961 -0.1750 -0.0244
  405W        W 1702   6.226   1.764   3.717 -0.1110  0.1446  0.0218
  406W        W 1703   5.082   6.434   1.401  0.1197  0.3861 -0.2153
  407W        W 1704   7.354   7.135   1.466  0.0773  0.0945 -0.3987
  408W        W 1705   1.882   3.697   2.315  0.5380  0.0659 -0.1404
  409W        W 1706   7.203   1.786   6.402  0.1466 -0.3178 -0.1643
  410W        W 1707   0.823   5.672   0.138  0.0959  0.0333  0.0411
  411W        W 1708   3.188   6.855   0.071  0.1504 -0.0284  0.0949
  412W        W 1709   0.700   2.952   2.207 -0.2125 -0.0499 -0.0753
  413W        W 1710   6.976   5.092   1.407 -0.3698 -0.2065  0.1428
  414W        W 1711   5.036   3.871   0.638 -0.1139 -0.2700 -0.2478
  415W        W 1712   7.224   6.565   5.607  0.2580  0.0311  0.0235
  416W        W 1713   2.317   4.432   4.447  0.0301  0.0513 -0.1877
  417W        W 1714   3.945   6.396   6.900  0.3012  0.1400  0.1884
  418W        W 1715   6.970   4.849   3.488  0.0577 -0.1788 -0.2389
  419W        W 1716   5.837   3.209   2.210 -0.0805 -0.0308 -0.0252
  420W        W 1717   3.837   6.138   4.860  0.0979  0.1645  0.2513
  421W        W 1718   2.151   6.893   3.776  0.1768 -0.2690  0.0457
  422W        W 1719   7.117   3.194   3.733 -0.2462  0.0648  0.3758
  423W        W 1720   5.291   6.325   2.854  0.3407  0.1647 -0.1489
  424W        W 1721   5.605   0.197   6.434  0.1627  0.0723 -0.1146
  425W        W 1722   0.944   5.731   5.455  0.2617 -0.2392 -0.2813
  426W        W 1723   7.354   3.128   7.373  0.0581 -0.0003 -0.1020
  427W        W 1724   1.825   4.185   1.541 -0.0136 -0.0007  0.1134
  428W        W 1725   3.173   0.742   5.494  0.1343 -0.0030 -0.1922
  429W        W 1726   2.693   1.747   6.633  0.0860  0.1183  0.2121
  430W        W 1727   0.526   4.194   3.773  0.3256  0.0408 -0.1317
  431W        W 1728   0.010   0.186   3.109  0.0547  0.1744 -0.0169
  432W        W 1729   4.196   0.358   7.160  0.0216 -0.1705 -0.1725
  433W        W 1730   3.108   3.867   0.956 -0.2828 -0.0128 -0.1670
  434W        W 1731   2.240   3.761   2.651 -0.0607  0.0105  0.0652
  435W        W 1732   4.059   4.745   0.303 -0.2545  0.3366 -0.0472
  436W        W 1733   3.089   0.294   3.479 -0.1882 -0.2420 -0.4500
  437W        W 1734   1.795   4.609   7.383  0.0802 -0.1634  0.0468
  438W        W 1735   1.416   7.047   5.601  0.0880 -0.2856 -0.3671
  439W        W 1736   2.438   6.167   7.579  0.1357 -0.0219 -0.2450
  440W        W 1737   6.367   7.057   1.477  0.1529 -0.2274 -0.1719
  441W        W 1738   3.674   4.491   3.545 -0.1768 -0.2053 -0.2331
  442W        W 1739   0.763   2.878   1.701  0.0906  0.0207 -0.3041
  443W        W 1740   5.549   5.910   0.087 -0.0936  0.1330  0.0183
  444W        W 1741   4.465   3.946   4.970 -0.1324  0.2707 -0.1199
  445W        W 1742   0.329   5.860   3.727  0.1429  0.0924 -0.2298
  446W        W 1743   3.619   5.780   1.856  0.1260  0.1593  0.1102
  447W        W 1744   4.023   5.342   6.278 -0.0121  0.1331  0.2057
  448W        W 1745   0.280   5.545   3.389  0.0677  0.2130  0.0592
  449W        W 1746   0.370   6.773   5.358  0.0693 -0.0380  0.1328
  450W        W 1747   6.425   7.023   0.545  0.0358 -0.0141  0.1653
  451W        W 1748   3.099   6.108   1.656  0.0695  0.0965  0.1606
  452W        W 1749   6.151   2.079   5.710  0.1249 -0.1800 -0.1248
  453W        W 1750   3.223   6.007   2.127  0.2084  0.0764 -0.0177
  454W        W 1751   0.753   1.293   7.096  0.0859 -0.0613  0.1361
  455W        W 1752   0.770   6.331   2.796 -0.1751  0.1071 -0.0877
  456W        W 1753   3.145   5.819   4.013  0.4045  0.1447  0.0166
  457W        W 1754   2.265   3.757   1.014  0.1446 -0.2464  0.0616
  458W        W 1755   5.005   5.201   2.138  0.2259 -0.1432 -0.0630
  459W        W 1756   1.813   3.238   7.578  0.3154 -0.0495  0.0931
  460W        W 1757   6.920   4.046   3.513  0.2339 -0.0981 -0.2667
  461W        W 1758   5.980   7.095   2.995  0.2973  0.0368  0.0126
  462W        W 1759   6.257   0.625   1.548 -0.1427  0.1326 -0.1077
  463W        W 1760   5.759   5.406   3.671  0.0926  0.0408  0.1583
  464W        W 1761   6.905   3.471   1.494 -0.5526  0.3513  0.0623
  465W        W 1762   5.070   1.102   5.744  0.0185  0.1269  0.2219
  466W        W 1763   7.019   2.174   6.086  0.2907  0.0422 -0.0418
  467W        W 1764   2.976   2.695   4.177  0.1104 -0.2109  0.1387
  468W        W 1765   6.203   5.566   1.577  0.0528  0.2272  0.0847
  469W        W 1766   5.621   4.595   2.278  0.0902 -0.0946 -0.1056
  470W        W 1767   3.016   3.427   4.911  0.3312 -0.0954  0.0352
  471W        W 1768   3.098   0.650   4.960  0.0754 -0.0497 -0.0806
  472W        W 1769   1.708   4.543   2.413  0.1340 -0.1954  0.1005
  473W        W 1770   0.093   4.559   1.403  0.0264  0.0614 -0.1249
  474W        W 1771   7.265   5.338   5.673 -0.2047  0.4557 -0.2248
  475W        W 1772   6.278   3.684   5.484 -0.3398 -0.1830 -0.0532
  476W        W 1773   3.750   6.415   3.026 -0.0448  0.2083 -0.2000
  477W        W 1774   4.105   6.740   5.944 -0.2254 -0.3061 -0.4051
  478W        W 1775   0.116   5.774   4.995  0.4142  0.6480  0.0647
  479W        W 1776   2.384   4.321   1.859  0.3046  0.1822  0.0607
  480W        W 1777   3.116   7.143   0.509 -0.2677 -0.0344 -0.1534
  481W        W 1778   5.870   1.539   6.829  0.2719 -0.0005  0.0496
  482W        W 1779   5.084   4.422   1.197 -0.1549  0.0782  0.0350
  483W        W 1780   4.634   6.294   3.704  0.0219 -0.1271 -0.0917
  484W        W 1781   7.383   6.170   5.103 -0.2883  0.0620  0.1234
  485W        W 1782   3.602   4.165   5.080  0.0843  0.3268 -0.1831
  486W        W 1783   2.193   4.317   4.992 -0.1685 -0.0864 -0.3259
  487W        W 1784   2.929   7.103   4.224  0.4378  0.0315 -0.0005
  488W        W 1785   4.254   1.401   5.160 -0.0779  0.0453  0.0966
  489W        W 1786   1.962   2.363   0.185 -0.1262  0.0470 -0.0466
  490W        W 1787   3.082   7.057   3.710 -0.2572 -0.0222  0.2506
  491W        W 1788   0.401   0.755   0.937 -0.1614 -0.0616 -0.0737
  492W        W 1789   0.089   4.436   2.520 -0.0412 -0.2186 -0.5485
  493W        W 1790   5.518   5.315   2.367  0.1434  0.1848  0.0281
  494W        W 1791   2.495   6.526   6.059 -0.0718  0.0452 -0.2945
  495W        W 1792   4.017   7.408   0.262 -0.2199  0.0543 -0.0218
  496W        W 1793   1.696   5.806   5.808  0.2703 -0.1059 -0.3733
  497W        W 1794   5.573   4.214   2.571 -0.0074  0.1351 -0.0857
  498W        W 1795   3.694   1.014   3.340  0.0038  0.0523 -0.2104
  499W        W 1796   4.643   4.202   0.860 -0.3493 -0.0033 -0.2504
  500W        W 1797   1.730   4.147   5.192 -0.0548  0.2899  0.2283
  501W        W 1798   1.999   2.884   2.806 -0.0598 -0.2507  0.0159
  502W        W 1799   6.868   6.717   7.080  0.0590  0.2587  0.0680
  503W        W 1800   2.174   4.614   1.359 -0.2924  0.0503 -0.0613
  504W        W 1801   3.075   6.235   3.690 -0.1586 -0.0513 -0.0443
  505W        W 1802   1.766   0.842   0.436  0.0378  0.0986 -0.0625
  506W        W 1803   1.975   2.161   0.632  0.0053 -0.0814 -0.1298
  507W        W 1804   0.695   2.523   6.007  0.2325 -0.4004  0.1940
  508W        W 1805   2.690   7.410   6.000 -0.1793  0.4518 -0.0125
  509W        W 1806   5.881   5.727   1.223  0.1128  0.2991  0.0418
  510W        W 1807   4.095   3.431   5.402  0.2204 -0.0098  0.0092
  511W        W 1808   1.263   3.761   7.079  0.2879 -0.2560 -0.0983
  512W        W 1809   2.197   0.038   5.980 -0.2070 -0.0389 -0.1349
  513W        W 1810   3.441   7.300   5.542  0.0897 -0.1201  0.0788
  514W        W 1811   4.042   3.401   0.683 -0.1603 -0.0662  0.1472
  515W        W 1812   5.908   2.190   5.078 -0.2983  0.0030  0.4669
  516W        W 1813   3.006   0.299   5.263  0.0552  0.0378 -0.1842
  517W        W 1814   3.807   2.412   4.660 -0.0406 -0.1837  0.2897
  518W        W 1815   7.278   4.212   2.320 -0.1476 -0.1890 -0.3125
  519W        W 1816   5.798   3.230   4.449  0.2674 -0.0723 -0.2484
  520W        W 1817   7.443   6.656   1.651 -0.0127  0.1510 -0.2222
  521W        W 1818   1.804   1.995   3.522 -0.0809 -0.0829  0.0457
  522W        W 1819   7.381   1.226   1.431  0.2096 -0.3489  0.0849
  523W        W 1820   7.196   1.892   5.160 -0.1037  0.1256 -0.1224
  524W        W 1821   1.179   2.974   2.082  0.0265 -0.0121 -0.0734
  525W        W 1822   1.720   3.513   0.829 -0.0236  0.0430 -0.1763
  526W        W 1823   5.125   6.160   3.785  0.1809  0.0193 -0.1558
  527W        W 1824   6.896   1.356   1.264 -0.0928 -0.0266 -0.0152
  528W        W 1825   3.821   5.773   3.107 -0.3114  0.0410 -0.0135
  529W        W 1826   4.945   3.954   1.163 -0.0676 -0.2492  0.0377
  530W        W 1827   6.491   3.642   4.196 -0.0692  0.0646  0.0125
  531W        W 1828   1.589   6.535   2.606  0.0148  0.0108 -0.0267
  532W        W 1829   6.895   6.309   2.644  0.1062  0.1501 -0.1964
  533W        W 1830   5.858   0.595   6.649  0.4016  0.3922 -0.3935
  534W        W 1831   1.042   4.369   6.009 -0.2823 -0.0212 -0.1932
  535W        W 1832   2.937   7.524   0.840 -0.2703 -0.0993  0.1680
  536W        W 1833   6.631   5.048   5.482 -0.1302  0.0613 -0.1338
  537W        W 1834   1.448   4.612   1.618  0.1422  0.1746  0.1309
  538W        W 1835   3.928   2.555   4.212 -0.2018  0.1732 -0.0555
  539W        W 1836   3.212   3.200   0.244 -0.1035  0.4719  0.1733
  540W        W 1837   7.387   5.212   4.223 -0.0998 -0.1632  0.0659
  541W        W 1838   2.277   2.074   3.750  0.2716  0.0695  0.0193
  542W        W 1839   3.935   3.876   6.990  0.0072 -0.1256 -0.1249
  543W        W 1840   7.184   2.531   1.337  0.0173  0.1008 -0.1266
  544W        W 1841   4.664   6.520   1.657  0.1616  0.1961  0.1245
  545W        W 1842   3.606   3.317   5.638  0.1055 -0.1482 -0.0134
  546W        W 1843   7.088   7.374   3.690  0.0568 -0.1077  0.3627
  547W        W 1844   7.276   2.836   0.826 -0.2196 -0.1662  0.0105
  548W        W 1845   6.968   2.834   2.385 -0.1532  0.1133 -0.1196
  549W        W 1846   3.489   2.229   5.370  0.0388 -0.1303  0.0903
  550W        W 1847   0.625   5.301   0.917 -0.1465 -0.0553  0.1550
  551W        W 1848   0.625   1.954   2.804 -0.1081  0.2022 -0.0125
  552W        W 1849   6.322   4.240   4.361 -0.0039 -0.0265  0.0073
  553W        W 1850   6.809   4.693   6.773 -0.4132  0.2049 -0.0042
  554W        W 1851   2.149   3.306   0.641 -0.0138 -0.0142  0.0120
  555W        W 1852   0.942   3.095   3.513  0.0307 -0.2841 -0.0894
  556W        W 1853   2.130   0.291   6.462  0.0060  0.1435 -0.0811
  557W        W 1854   6.762   2.581   0.351  0.0543  0.2764  0.2711
  558W        W 1855   5.866   0.006   5.825 -0.2393 -0.1454 -0.0448
  559W        W 1856   2.268   4.042   6.001 -0.1053 -0.0878 -0.0349
  560W        W 1857   7.610   3.076   5.180  0.1967  0.0503 -0.3092
  561W        W 1858   4.154   5.862   2.235  0.2144  0.2789  0.0284
  562W        W 1859   7.374   4.629   3.261 -0.2004  0.0378 -0.3030
  563W        W 1860   5.302   3.970   1.498  0.2285 -0.0027  0.5760
  564W        W 1861   1.531   2.403   0.531 -0.1930  0.2104 -0.2060
  565W        W 1862   0.508   6.013   3.259 -0.0781  0.2137 -0.1589
  566W        W 1863   5.967   5.628   0.169 -0.0007  0.0970 -0.0954
  567W        W 1864   6.634   4.004   5.241 -0.2154 -0.1082  0.0033
  568W        W 1865   0.996   5.941   2.463 -0.0843 -0.2824 -0.0847
  569W        W 1866   2.830   4.181   4.341  0.0824  0.0009  0.0139
  570W        W 1867   6.210   1.163   0.173 -0.2028  0.1572 -0.1730
  571W        W 1868   3.637   4.445   0.461  0.1575  0.1172 -0.2385
  572W        W 1869   5.033   6.263   1.896 -0.0354  0.1377  0.0221
  573W        W 1870   5.544   7.555   1.398 -0.1615 -0.1500 -0.0571
  574W        W 1871   6.209   4.664   3.381  0.2128 -0.1195 -0.3039
  575W        W 1872   0.530   3.196   4.505  0.1562 -0.3242 -0.0502
  576W        W 1873   1.432   5.447   2.848  0.2080  0.0105 -0.0548
  577W        W 1874   2.708   0.411   7.551 -0.1702  0.0194  0.5028
  578W        W 1875   3.041   4.651   1.168 -0.0807  0.0475  0.2952
  579W        W 1876   2.474   7.511   4.226 -0.1376  0.1049  0.0663
  580W        W 1877   5.185   2.720   3.695  0.0466 -0.0191  0.1428
  581W        W 1878   0.178   6.867   4.870  0.0339  0.0533 -0.0579
  582W        W 1879   6.579   6.609   0.309  0.0739 -0.0911  0.2688
  583W        W 1880   3.727   2.150   2.993 -0.3033  0.0746  0.0324
  584W        W 1881   5.332   0.029   0.675  0.1754  0.0808  0.1074
  585W        W 1882   4.001   4.286   0.146 -0.1686  0.0636 -0.2335
  586W        W 1883   5.584   1.030   5.599 -0.1296 -0.0118 -0.2541
  587W        W 1884   6.257   3.144   5.613 -0.4532 -0.0710  0.1312
  588W        W 1885   6.212   1.033   0.859  0.2175 -0.3317  0.1960
  589W        W 1886   5.592   2.097   4.320  0.0096  0.0648  0.0095
  590W        W 1887   5.898   5.266   6.081 -0.1657 -0.2612 -0.3733
  591W        W 1888   4.856   6.220   7.374 -0.0506 -0.1624 -0.1206
  592W        W 1889   1.355   4.926   4.004 -0.1389 -0.0720 -0.2496
  593W        W 1890   2.425   3.016   7.041  0.0142  0.0396  0.2929
  594W        W 1891   5.742   0.553   1.737  0.1206  0.0574  0.2851
  595W        W 1892   3.252   5.935   6.616  0.1467 -0.2279  0.2340
  596W        W 1893   6.207   6.168   1.344 -0.0714  0.4512 -0.2280
  597W        W 1894   2.506   0.333   5.125 -0.1588 -0.2957 -0.1953
  598W        W 1895   5.219   0.531   0.315  0.0830 -0.0077  0.1774
  599W        W 1896   2.952   5.592   1.385  0.2114 -0.1443  0.4139
  600W        W 1897   1.988   3.310   1.741  0.2975  0.2344 -0.1353
  601W        W 1898   0.642   1.718   0.862 -0.1151 -0.0759  0.0397
  602W        W 1899   7.370   2.631   6.371  0.1480 -0.2337  0.0784
  603W        W 1900   3.955   2.008   3.497  0.1337  0.1187 -0.0061
  604W        W 1901   1.591   2.451   1.941 -0.0737  0.0267  0.0582
  605W        W 1902   0.957   4.034   3.657  0.0108 -0.2633 -0.2181
  606W        W 1903   4.967   2.644   7.017  0.0044  0.0771  0.3297
  607W        W 1904   5.238   0.054   6.784  0.1276 -0.3047  0.1673
  608W        W 1905   3.569   3.823   6.506  0.0868  0.0192 -0.2507
  609W        W 1906   6.747   0.444   1.501  0.2775 -0.1359 -0.2928
  610W        W 1907   7.524   3.526   1.289  0.0465 -0.0103 -0.0687
  611W        W 1908   5.009   5.242   7.156  0.0281  0.4530 -0.3104
  612W        W 1909   6.580   5.200   7.027 -0.0031 -0.1217  0.1181
  613W        W 1910   1.574   1.979   0.161  0.0044 -0.3140 -0.0600
  614W        W 1911   0.543   3.966   0.129 -0.1851  0.0740  0.2391
  615W        W 1912   6.550   3.562   2.736  0.1551 -0.2545  0.2178
  616W        W 1913   4.745   1.893   6.109  0.1972  0.1990 -0.3662
  617W        W 1914   2.789   6.801   3.118  0.2507 -0.1103  0.1093
  618W        W 1915   4.117   6.398   3.911  0.0399 -0.1506  0.1366
  619W        W 1916   4.469   5.877   7.410 -0.3574 -0.0287  0.0836
  620W        W 1917   2.356   6.494   1.375 -0.0620 -0.1271 -0.2670
  621W        W 1918   6.691   1.817   2.274 -0.1389  0.3713  0.1650
  622W        W 1919   4.342   4.921   0.637 -0.2547  0.0763  0.0326
  623W        W 1920   0.505   2.394   0.151  0.1028 -0.0511  0.0054
  624W        W 1921   2.034   7.158   5.909  0.0506  0.2502  0.3683
  625W        W 1922   4.513   0.587   3.328  0.1180 -0.0816 -0.0379
  626W        W 1923   4.101   6.297   0.779  0.0131 -0.1310  0.1383
  627W        W 1924   5.001   1.603   5.529 -0.2427 -0.0646  0.2427
  628W        W 1925   6.699   7.029   7.508  0.1072  0.0998 -0.1807
  629W        W 1926   6.073   3.301   1.250 -0.2494 -0.0767 -0.1176
  630W        W 1927   3.255   2.104   3.917 -0.0858 -0.0772  0.1195
  631W        W 1928   3.320   6.815   6.239  0.1164 -0.1703 -0.0425
  632W        W 1929   4.858   6.633   4.645  0.0634 -0.0106  0.1052
  633W        W 1930   6.637   3.847   0.347  0.0310  0.1166 -0.1202
  634W        W 1931   0.111   3.432   0.700  0.0263 -0.1462  0.1051
  635W        W 1932   0.304   3.860   4.369  0.0279 -0.3866  0.0123
  636W        W 1933   7.334   0.533   2.798 -0.6156 -0.0589  0.0686
  637W        W 1934   7.100   4.966   2.992 -0.0580 -0.2224 -0.0138
  638W        W 1935   4.229   5.487   3.180  0.1089 -0.0782 -0.2931
  639W        W 1936   6.870   7.608   2.147 -0.1566  0.0316  0.3068
  640W        W 1937   0.696   3.031   4.060  0.0225 -0.1190 -0.2055
  641W        W 1938   4.083   5.776   0.734  0.1329 -0.1823 -0.2552
  642W        W 1939   6.727   0.230   2.566  0.0897 -0.1268 -0.0546
  643W        W 1940   4.500   2.751   2.952 -0.2014 -0.1819  0.1823
  644W        W 1941   2.761   5.177   1.781  0.1476 -0.0960  0.2918
  645W        W 1942   4.517   2.421   6.038  0.0334  0.0040 -0.0010
  646W        W 1943   6.065   7.507   6.237 -0.1211 -0.0950 -0.1287
  647W        W 1944   3.683   6.666   3.490 -0.2730  0.0692 -0.0482
  648W        W 1945   4.675   5.338   2.759 -0.1750  0.1063 -0.0332
  649W        W 1946   1.370   4.029   5.976 -0.0185  0.1682 -0.3792
  650W        W 1947   4.491   2.918   2.009  0.1456  0.2984 -0.2757
  651W        W 1948   1.367   6.321   1.163 -0.2272 -0.0987  0.0947
  652W        W 1949   0.735   2.160   1.117 -0.0159 -0.2546  0.4283
  653W        W 1950   6.436   0.554   2.924 -0.0509 -0.1590  0.2669
  654W        W 1951   3.296   7.215   6.021  0.0398  0.1121  0.4386
  655W        W 1952   2.056   6.945   6.660 -0.1391  0.0200  0.2818
  656W        W 1953   5.026   3.405   0.774 -0.1052 -0.1071 -0.1137
  657W        W 1954   0.003   3.530   4.550 -0.0069 -0.0897  0.0211
  658W        W 1955   4.034   4.143   4.358 -0.2164  0.0409  0.3810
  659W        W 1956   0.228   1.388   2.645  0.0223 -0.1451 -0.1266
  660W        W 1957   5.198   6.240   5.542  0.2086 -0.1128 -0.2332
  661W        W 1958   2.771   5.783   5.551  0.0379 -0.2447 -0.0853
  662W        W 1959   3.867   4.574   3.086  0.0790 -0.0590 -0.0692
  663W        W 1960   5.365   6.470   4.683  0.0251 -0.0859  0.0367
  664W        W 1961   0.491   3.087   0.755 -0.0897  0.0163  0.0038
  665W        W 1962   5.523   3.238   0.824  0.0423 -0.2683  0.2761
  666W        W 1963   1.405   4.206   3.694  0.1475  0.3017 -0.0772
  667W        W 1964   0.629   4.313   3.265 -0.0484  0.0252 -0.0438
  668W        W 1965   2.531   5.148   0.731 -0.1475 -0.0157  0.1368
  669W        W 1966   1.993   4.207   2.665 -0.0107 -0.0050 -0.1150
  670W        W 1967   1.308   6.944   1.674  0.1733  0.2838 -0.0195
  671W        W 1968   4.872   3.059   4.608  0.3504  0.2782  0.1911
  672W        W 1969   2.232   2.957   4.709  0.0619  0.0410  0.0426
  673W        W 1970   6.347   3.663   1.674  0.2769  0.1855  0.0738
  674W        W 1971   2.968   1.187   5.649  0.0102  0.0087 -0.0393
  675W        W 1972   4.058   3.143   1.833  0.0630  0.0094 -0.0429
  676W        W 1973   0.308   6.121   1.204  0.0305  0.1189 -0.0778
  677W        W 1974   0.106   0.272   2.544  0.1322  0.0010  0.2367
  678W        W 1975   4.565   3.827   4.311 -0.1389 -0.0968 -0.0880
  679W        W 1976   6.856   2.537   0.897 -0.0704 -0.0035  0.3350
  680W        W 1977   4.942   2.334   3.350 -0.2154  0.2373 -0.1610
  681W        W 1978   7.369   3.992   5.323 -0.0598 -0.2502  0.1233
  682W        W 1979   1.065   6.307   1.800  0.0868 -0.1259  0.0008
  683W        W 1980   7.383   2.525   2.430 -0.4602 -0.2594  0.3118
  684W        W 1981   5.397   1.235   6.089  0.2655  0.1716  0.0473
  685W        W 1982   0.420   2.571   1.489  0.1137 -0.2908 -0.0124
  686W        W 1983   0.965   5.130   5.782  0.2110 -0.1365  0.1631
  687W        W 1984   3.128   5.384   6.697 -0.0421 -0.0441 -0.2913
  688W        W 1985   0.400   0.744   2.039  0.1834 -0.0585 -0.2927
  689W        W 1986   4.681   1.438   5.947  0.1367  0.2738  0.0977
  690W        W 1987   4.389   5.103   7.286  0.2134 -0.2848  0.0698
  691W        W 1988   1.557   6.231   6.205  0.0777 -0.1088 -0.1926
  692W        W 1989   1.649   3.658   4.283  0.2522 -0.0636 -0.1367
  693W        W 1990   1.888   3.913   3.857 -0.0083 -0.1783 -0.2226
  694W        W 1991   5.598   1.071   6.961  0.2296  0.1416 -0.0637
  695W        W 1992   6.098   1.202   7.248 -0.0774  0.0079  0.2598
  696W        W 1993   0.975   5.805   4.518  0.0445  0.1332  0.3006
  697W        W 1994   2.917   7.381   6.994 -0.1265  0.0985 -0.0028
  698W        W 1995   3.154   6.377   0.205  0.1405  0.0662  0.3127
  699W        W 1996   2.754   1.166   4.702  0.1390  0.2819  0.0905
  700W        W 1997   4.972   2.110   6.922 -0.3407 -0.0509 -0.2021
  701W        W 1998   6.661   2.970   5.875 -0.1087 -0.2475 -0.0706
  702W        W 1999   6.039   5.355   5.589  0.0337 -0.1271 -0.0920
  703W        W 2000   5.212   5.884   4.321 -0.3246  0.0103 -0.0452
  704W        W 2001   6.018   5.904   2.794 -0.2495  0.2662  0.0189
  705W        W 2002   6.867   3.065   0.536 -0.0394 -0.0368 -0.0549
  706W        W 2003   5.368   2.565   7.499 -0.0033 -0.1950 -0.1718
  707W        W 2004   5.865   2.636   4.390  0.1146  0.0867  0.2632
  708W        W 2005   0.940   1.715   3.212 -0.2517  0.0281 -0.0117
  709W        W 2006   5.318   0.629   5.489  0.0052  0.1013  0.3447
  710W        W 2007   4.903   2.480   1.347  0.0622 -0.2889 -0.0179
  711W        W 2008   4.871   2.116   5.180  0.0247 -0.0812 -0.1158
  712W        W 2009   5.647   5.784   2.286  0.1683 -0.2399  0.1244
  713W        W 2010   0.925   6.986   0.349 -0.0272  0.2496 -0.0809
  714W        W 2011   7.328   1.171   4.062  0.0894 -0.0303 -0.2160
  715W        W 2012   3.781   4.272   6.645  0.0780 -0.0078 -0.3208
  716W        W 2013   2.212   3.008   0.203  0.1467  0.2522 -0.0792
  717W        W 2014   4.439   1.359   4.178  0.0189 -0.1792 -0.0829
  718W        W 2015   2.277   3.744   5.586  0.0757 -0.0185  0.0882
  719W        W 2016   1.244   5.178   4.418  0.4246  0.0140 -0.0041
  720W        W 2017   5.826   1.438   0.366 -0.0691  0.2466 -0.0532
  721W        W 2018   7.197   0.968   2.095 -0.1670 -0.2114 -0.0751
  722W        W 2019   5.765   6.970   6.969 -0.1454  0.4921 -0.0935
  723W        W 2020   6.250   7.040   6.118  0.0590 -0.1558 -0.1129
  724W        W 2021   6.127   6.293   0.498 -0.0360 -0.1986 -0.1068
  725W        W 2022   5.301   6.969   6.077 -0.1310 -0.2412 -0.0151
  726W        W 2023   3.509   3.093   6.076 -0.1393 -0.0099 -0.2439
  727W        W 2024   6.913   1.431   6.555  0.1188 -0.0980 -0.1683
  728W        W 2025   5.462   5.493   6.938 -0.2051  0.1717  0.1897
  729W        W 2026   3.035   6.214   7.020 -0.0665 -0.3031 -0.0687
  730W        W 2027   6.813   7.035   5.492  0.0687  0.2700 -0.3089
  731W        W 2028   0.804   3.723   6.776 -0.1681  0.1870  0.2456
  732W        W 2029   2.704   2.067   5.337 -0.1879 -0.1526  0.2450
  733W        W 2030   4.919   2.609   0.183 -0.0445  0.0869 -0.1107
  734W        W 2031   3.368   5.274   2.204  0.0875  0.2316 -0.0452
  735W        W 2032   6.999   5.309   3.715 -0.0273 -0.1716  0.1346
  736W        W 2033   1.517   1.963   3.138  0.1329 -0.3221  0.0412
  737W        W 2034   1.433   6.458   5.738  0.1752 -0.2238 -0.2280
  738W        W 2035   4.159   4.193   7.297  0.2108  0.2203 -0.3265
  739W        W 2036   5.719   5.749   1.731 -0.5728  0.1995  0.2779
  740W        W 2037   0.656   2.985   6.176  0.2975 -0.1107 -0.2966
  741W        W 2038   0.109   2.434   3.622 -0.1505  0.0629 -0.1209
  742W        W 2039   3.604   4.676   7.570 -0.2955 -0.2037 -0.0649
  743W        W 2040   6.003   4.001   7.190  0.2934  0.1857 -0.0429
  744W        W 2041   6.070   1.305   6.352  0.1759  0.0642 -0.0439
  745W        W 2042   1.289   3.160   0.080 -0.0061 -0.2763  0.1270
  746W        W 2043   2.633   4.464   6.013  0.0422 -0.1348  0.0242
  747W        W 2044   3.923   0.164   4.533  0.1164  0.2495  0.0394
  748W        W 2045   1.674   7.573   5.694  0.1244 -0.0728 -0.0168
  749W        W 2046   6.063   6.145   5.991  0.1536  0.1072  0.1218
  750W        W 2047   3.074   3.045   0.693  0.1001  0.1811 -0.1196
  751W        W 2048   6.342   4.217   4.870  0.1281  0.1430 -0.3429
  752W        W 2049   6.303   2.439   5.300 -0.1665 -0.1582  0.0105
  753W        W 2050   0.054   6.419   7.456  0.0991 -0.0279 -0.3640
  754W        W 2051   6.418   6.462   6.714 -0.0062  0.1828  0.0425
  755W        W 2052   4.626   4.477   5.092  0.1629  0.1540  0.0523
  756W        W 2053   3.417   6.856   2.426 -0.0545 -0.1036  0.2045
  757W        W 2054   4.116   4.919   3.393  0.0459 -0.1872  0.2969
  758W        W 2055   4.759   0.068   6.561  0.4149  0.0704  0.2544
  759W        W 2056   0.045   3.113   1.110 -0.1578  0.0804  0.1902
  760W        W 2057   3.388   4.279   5.602 -0.0380  0.3991 -0.0652
  761W        W 2058   7.599   3.948   2.616 -0.1685 -0.0466  0.0778
  762W        W 2059   2.473   2.691   5.311  0.1214  0.2162 -0.1657
  763W        W 2060   0.820   5.029   7.612  0.0643  0.0428 -0.1649
  764W        W 2061   3.049   0.598   6.416 -0.1795  0.1925  0.2928
  765W        W 2062   6.367   6.210   2.690 -0.2835 -0.4258 -0.1780
  766W        W 2063   3.555   4.107   2.231 -0.1037  0.2767  0.1950
  767W        W 2064   3.165   4.386   3.642 -0.2369 -0.0616 -0.4737
  768W        W 2065   5.151   5.324   0.830 -0.1527 -0.2207 -0.1192
  769W        W 2066   5.766   4.607   4.377  0.1293  0.1010  0.0653
  770W        W 2067   4.607   7.029   0.173  0.2543  0.0981 -0.1881
  771W        W 2068   0.652   4.647   5.940 -0.0272 -0.1651 -0.1116
  772W        W 2069   4.291   2.014   5.024 -0.1116  0.1274  0.2041
  773W        W 2070   0.554   6.222   1.718  0.1246  0.3231  0.0112
  774W        W 2071   0.901   5.386   1.886 -0.0866 -0.0975 -0.0118
  775W        W 2072   5.285   5.088   4.952 -0.0549  0.1420 -0.0337
  776W        W 2073   5.405   6.312   1.003  0.3118 -0.1412 -0.0454
  777W        W 2074   6.219   3.547   2.201  0.2064 -0.1681 -0.1882
  778W        W 2075   2.776   6.768   7.035  0.1273  0.1219  0.0484
  779W        W 2076   0.781   5.728   3.616  0.2205  0.0161  0.0702
  780W        W 2077   6.939   4.216   7.080  0.2670 -0.2203 -0.0612
  781W        W 2078   6.412   1.900   1.551  0.0204 -0.0211  0.0233
  782W        W 2079   5.009   6.811   0.431  0.2296  0.1343  0.1203
  783W        W 2080   4.130   5.712   6.575  0.2289 -0.2115 -0.1840
  784W        W 2081   0.296   5.475   2.541 -0.1134 -0.2266  0.1654
  785W        W 2082   0.950   5.958   6.399  0.1824 -0.0922 -0.1822
  786W        W 2083   5.020   3.157   6.837 -0.1660  0.2476 -0.0165
  787W        W 2084   4.157   7.060   0.947 -0.0860  0.2140 -0.1607
  788W        W 2085   0.261   4.297   5.153 -0.3579 -0.0465 -0.1189
  789W        W 2086   6.599   5.846   1.686 -0.4516  0.0404  0.3311
  790W        W 2087   3.084   5.251   0.608 -0.0346  0.0414  0.1243
  791W        W 2088   4.472   6.969   6.234 -0.1704  0.0314  0.4292
  792W        W 2089   4.382   5.918   6.093 -0.0623  0.1353  0.3864
  793W        W 2090   6.269   2.471   6.596 -0.2840  0.0491  0.2081
  794W        W 2091   5.873   1.005   1.873  0.3146 -0.2375  0.0734
  795W        W 2092   6.959   4.201   5.554 -0.0311  0.1906  0.2883
  796W        W 2093   6.718   3.373   6.886 -0.0227  0.3644  0.2114
  797W        W 2094   6.437   0.752   0.357  0.0048 -0.1524  0.0902
  798W        W 2095   3.881   5.335   2.095 -0.0220  0.0892  0.0472
  799W        W 2096   4.143   3.472   6.874  0.3433 -0.0825  0.0676
  800W        W 2097   2.146   3.764   5.066 -0.3291  0.1253 -0.2915
  801W        W 2098   7.438   0.487   7.286  0.3124  0.2122  0.0984
  802W        W 2099   2.749   4.422   3.818  0.1206 -0.1498  0.0264
  803W        W 2100   6.439   6.350   4.866  0.0561  0.0024  0.3456
  804W        W 2101   5.307   2.000   0.130 -0.1850  0.0338 -0.1055
  805W        W 2102   4.188   1.772   3.922 -0.1623 -0.0155  0.0629
  806W        W 2103   6.567   2.581   2.969  0.0603 -0.3109 -0.2747
  807W        W 2104   2.115   4.917   0.839 -0.1476 -0.2946 -0.1701
  808W        W 2105   3.392   5.059   0.216  0.0642  0.3015  0.0242
  809W        W 2106   0.358   2.322   3.101  0.1155 -0.0448 -0.0085
  810W        W 2107   6.972   5.933   0.927  0.4904  0.1494 -0.1225
  811W        W 2108   1.925   7.254   5.396 -0.1927 -0.1427 -0.0300
  812W        W 2109   1.432   7.237   5.116 -0.0876 -0.1449 -0.0259
  813W        W 2110   1.804   3.772   2.900  0.0165 -0.1255  0.2450
  814W        W 2111   5.626   3.166   4.954 -0.0621  0.2505  0.2127
  815W        W 2112   6.505   6.012   6.376 -0.1026  0.0493 -0.0097
  816W        W 2113   5.129   0.157   6.236  0.1243 -0.2032 -0.0602
  817W        W 2114   6.386   2.919   7.222 -0.2095 -0.0693  0.2948
  818W        W 2115   1.001   6.737   5.680  0.0537  0.0585  0.1268
  819W        W 2116   1.228   3.801   4.446 -0.0591 -0.0525 -0.0831
  820W        W 2117   1.848   3.644   5.994  0.2355 -0.2503 -0.1176
  821W        W 2118   6.661   7.133   2.286 -0.2324 -0.0453 -0.0410
  822W        W 2119   5.897   2.739   2.368  0.2269  0.0074 -0.1386
  823W        W 2120   1.033   3.581   5.360 -0.0454 -0.2874 -0.0002
  824W        W 2121   5.280   1.333   6.594  0.0109  0.0786  0.0496
  825W        W 2122   0.270   3.102   0.295 -0.0477 -0.1164  0.0388
  826W        W 2123   4.748   3.507   6.348 -0.1339 -0.0963  0.3422
  827W        W 2124   3.141   5.422   4.666  0.0516 -0.1069 -0.2616
  828W        W 2125   0.260   3.026   1.934  0.0064 -0.0035  0.0542
  829W        W 2126   4.711   3.111   2.431 -0.3606 -0.1408 -0.0848
  830W        W 2127   7.024   6.630   5.149 -0.0236  0.2310  0.0120
  831W        W 2128   6.418   7.542   2.225 -0.0056  0.1078 -0.0082
  832W        W 2129   5.134   2.448   5.546  0.2576  0.0618  0.1347
  833W        W 2130   3.120   5.748   0.415  0.1048  0.1125 -0.1629
  834W        W 2131   1.259   2.938   0.597  0.0495  0.3395 -0.0073
  835W        W 2132   1.937   6.780   2.904 -0.0776  0.2961  0.0798
  836W        W 2133   5.649   0.356   0.528 -0.1703  0.1017 -0.1524
  837W        W 2134   7.430   3.519   5.009 -0.1565  0.0208 -0.1745
  838W        W 2135   0.923   3.456   7.364 -0.1436 -0.1249  0.1524
  839W        W 2136   6.739   1.876   6.723 -0.0801  0.0144 -0.2517
  840W        W 2137   3.192   5.681   2.507  0.0042  0.3117 -0.0467
  841W        W 2138   5.921   3.234   6.573 -0.1540 -0.0081  0.3355
  842W        W 2139   1.063   1.114   0.050  0.0928  0.2083 -0.1230
  843W        W 2140   6.810   3.946   7.558 -0.1870 -0.4046 -0.0887
  844W        W 2141   0.967   3.522   0.991 -0.0896 -0.2659 -0.0037
  845W        W 2142   2.835   1.538   3.203 -0.0449 -0.2660  0.3592
  846W        W 2143   4.219   7.358   6.547  0.0539  0.1430  0.0609
  847W        W 2144   4.259   3.403   1.175 -0.0865  0.1575 -0.3185
  848W        W 2145   3.967   1.408   4.275 -0.4508  0.0333 -0.1990
  849W        W 2146   6.442   2.899   5.144  0.1279 -0.4147 -0.0075
  850W        W 2147   4.127   6.460   2.294 -0.2049 -0.2343 -0.0848
  851W        W 2148   5.447   4.108   0.983 -0.0293  0.3529  0.2289
  852W        W 2149   0.579   2.163   3.525 -0.0704 -0.0524  0.1609
  853W        W 2150   0.171   4.079   5.817  0.0815 -0.1552 -0.0501
  854W        W 2151   3.416   0.424   6.056 -0.0408 -0.2455  0.0174
  855W        W 2152   7.279   3.909   5.852  0.2701  0.1417 -0.0383
  856W        W 2153   5.847   0.535   0.034  0.0537  0.0554 -0.3547
  857W        W 2154   5.019   4.287   1.779 -0.2894 -0.1648 -0.1081
  858W        W 2155   6.688   6.553   5.722 -0.0267 -0.2206 -0.0439
  859W        W 2156   2.872   4.748   7.411  0.0709  0.2358 -0.1414
  860W        W 2157   4.946   3.407   1.963  0.1095  0.0801 -0.1455
  861W        W 2158   0.208   4.844   6.130  0.3689  0.0861  0.0722
  862W        W 2159   3.652   7.552   5.997 -0.0682  0.1188 -0.1084
  863W        W 2160   0.566   3.523   2.505  0.3437  0.0054 -0.0910
  864W        W 2161   7.396   5.188   1.177 -0.1451  0.0765  0.2146
  865W        W 2162   0.638   4.629   5.050  0.0300 -0.1923 -0.1757
  866W        W 2163   3.454   3.997   0.363  0.3195  0.1687 -0.1118
  867W        W 2164   6.904   2.289   2.545  0.0100 -0.2470  0.0680
  868W        W 2165   6.434   4.584   5.212 -0.0546 -0.2240 -0.1961
  869W        W 2166   3.764   6.556   5.396  0.1580 -0.1596 -0.0665
  870W        W 2167   4.946   3.167   0.236 -0.0540  0.2068 -0.0547
  871W        W 2168   2.468   4.165   0.479 -0.2178 -0.2350  0.2012
  872W        W 2169   5.743   4.452   5.602  0.0517 -0.2133 -0.0181
  873W        W 2170   4.528   7.093   6.765  0.0108 -0.0414  0.1115
  874W        W 2171   4.411   5.762   2.753 -0.0344 -0.4255  0.1135
  875W        W 2172   5.313   1.742   5.181 -0.0684 -0.1717  0.2279
  876W        W 2173   5.507   3.414   6.794 -0.0355 -0.0561  0.4116
  877W        W 2174   4.935   5.610   1.129  0.0365  0.2420  0.1252
  878W        W 2175   3.278   6.341   1.043 -0.1392  0.0920  0.2989
  879W        W 2176   6.274   2.899   4.305  0.3703 -0.0840  0.1110
  880W        W 2177   6.032   1.997   2.857  0.0815  0.2510 -0.0977
  881W        W 2178   6.654   6.093   5.938  0.1740  0.1760 -0.1192
  882W        W 2179   4.995   2.880   0.691 -0.1210 -0.0357  0.0592
  883W        W 2180   2.551   3.954   2.243 -0.1821  0.0908 -0.2543
  884W        W 2181   0.282   1.727   0.547  0.2361  0.1248  0.4264
  885W        W 2182   4.661   4.359   1.377  0.1134  0.0853 -0.0845
  886W        W 2183   6.269   3.161   3.096  0.1677  0.1435  0.0521
  887W        W 2184   7.102   7.022   0.228  0.0059  0.1379  0.0360
  888W        W 2185   6.535   2.626   1.790  0.0505 -0.0444 -0.0986
  889W        W 2186   6.543   7.389   6.348 -0.1634 -0.2798  0.1098
  890W        W 2187   6.373   2.861   0.552  0.1779  0.0917  0.1686
  891W        W 2188   0.637   3.194   7.042  0.1209  0.3666 -0.2383
  892W        W 2189   1.999   5.492   1.423  0.3760  0.0451 -0.0974
  893W        W 2190   3.299   2.387   6.237  0.0888 -0.2701  0.2016
  894W        W 2191   1.497   0.737   0.031  0.1061  0.0726 -0.1950
  895W        W 2192   1.924   2.251   4.058  0.1825 -0.2183 -0.0026
  896W        W 2193   1.304   5.146   1.709  0.0791 -0.0746 -0.1872
  897W        W 2194   2.163   3.962   3.129 -0.1751  0.2604 -0.2923
  898W        W 2195   3.664   4.642   5.891  0.4455  0.0335 -0.4939
  899W        W 2196   0.506   5.873   0.623  0.2210  0.0856 -0.2762
  900W        W 2197   3.671   0.830   6.260  0.1698  0.0068  0.0558
  901W        W 2198   7.518   7.508   3.494  0.0107  0.1443  0.1235
  902W        W 2199   3.807   0.174   6.398  0.1134  0.4389  0.0026
  903W        W 2200   7.476   3.817   0.912 -0.1566 -0.1772 -0.1874
  904W        W 2201   4.496   0.645   5.107  0.1491  0.0994 -0.3225
  905W        W 2202   7.023   3.406   6.023 -0.0499  0.1631  0.5634
  906W        W 2203   1.014   5.704   0.604  0.2276 -0.2003 -0.0468
  907W        W 2204   7.144   4.133   0.369  0.2976 -0.0413  0.0762
  908W        W 2205   6.436   5.517   6.603  0.3426  0.0855  0.0448
  909W        W 2206   4.507   1.981   3.645  0.1946  0.2662  0.2092
  910W        W 2207   6.904   2.087   0.709  0.3086  0.1033  0.0368
  911W        W 2208   2.709   5.970   2.447 -0.0802  0.3653 -0.0479
  912W        W 2209   4.444   5.746   5.575  0.3153 -0.0249  0.2282
  913W        W 2210   2.397   5.094   5.198 -0.1668 -0.2546  0.0635
  914W        W 2211   6.106   3.097   4.832  0.0871  0.3119 -0.0846
  915W        W 2212   5.701   7.043   2.553  0.0681  0.0272  0.4022
  916W        W 2213   5.000   5.598   2.485  0.3199 -0.0915  0.0874
  917W        W 2214   0.105   4.872   0.731  0.2133 -0.0508  0.1621
  918W        W 2215   6.092   3.703   0.456  0.1061 -0.4796  0.0403
  919W        W 2216   0.096   3.777   1.713 -0.0635  0.0719 -0.0439
  920W        W 2217   7.340   6.860   7.342 -0.1012 -0.2839  0.3254
  921W        W 2218   5.609   5.641   5.832 -0.2498 -0.1109 -0.1043
  922W        W 2219   5.323   4.791   3.499 -0.1715  0.0484  0.2155
  923W        W 2220   5.795   2.132   0.265  0.4270 -0.2123  0.1692
  924W        W 2221   3.878   1.488   3.695  0.0712 -0.1316  0.0432
  925W        W 2222   6.288   0.687   6.385  0.1310  0.1998  0.3996
  926W        W 2223   1.844   5.680   0.450  0.2449  0.1669  0.0993
  927W        W 2224   3.154   1.335   4.346  0.1506 -0.1661  0.1065
  928W        W 2225   2.469   7.431   5.545  0.2634  0.1773  0.0270
  929W        W 2226   3.417   3.999   6.941  0.0362  0.2363  0.1058
  930W        W 2227   2.899   6.354   4.764 -0.0254 -0.0083  0.1888
  931W        W 2228   2.829   6.306   3.273  0.1581  0.0840  0.1635
  932W        W 2229   2.829   3.327   7.325 -0.1104 -0.1266  0.1842
  933W        W 2230   0.071   6.707   5.746 -0.1323 -0.0892  0.0739
  934W        W 2231   1.926   2.862   6.835 -0.2093 -0.0334 -0.0210
  935W        W 2232   3.159   1.901   5.269 -0.0858 -0.0302 -0.0349
  936W        W 2233   2.406   2.459   4.791  0.0779  0.2505  0.0244
  937W        W 2234   5.448   3.159   1.894 -0.0430 -0.1098  0.1434
  938W        W 2235   6.370   5.945   6.848  0.0792  0.0815 -0.0476
  939W        W 2236   0.016   6.077   4.233  0.1139 -0.2791  0.3126
  940W        W 2237   4.210   4.158   6.331 -0.1101 -0.1724 -0.3193
  941W        W 2238   3.279   6.398   5.668 -0.2238  0.0003 -0.2188
  942W        W 2239   5.369   1.048   0.445  0.0404 -0.0052 -0.1080
  943W        W 2240   1.913   3.714   1.424  0.2844  0.4183 -0.1695
  944W        W 2241   5.261   3.835   7.533  0.0854  0.0736 -0.1633
  945W        W 2242   7.600   1.090   0.895 -0.1244 -0.2134 -0.1458
  946W        W 2243   0.381   4.724   6.593  0.0791 -0.0732  0.0303
  947W        W 2244   1.376   5.734   6.302 -0.3050 -0.1222  0.1928
  948W        W 2245   6.782   4.344   4.604  0.5331 -0.3159 -0.1326
  949W        W 2246   2.525   2.282   7.155 -0.2604  0.0262 -0.0030
  950W        W 2247   3.190   2.831   7.395  0.0366 -0.1525 -0.2268
  951W        W 2248   2.998   3.074   1.910  0.2871  0.3027  0.3628
  952W        W 2249   7.283   1.036   3.595  0.0969 -0.0887 -0.2948
  953W        W 2250   7.279   5.933   4.518  0.3047  0.2869 -0.0542
  954W        W 2251   6.678   4.843   4.903 -0.2606  0.0174  0.0338
  955W        W 2252   6.632   0.828   2.513 -0.4666 -0.2194  0.1506
  956W        W 2253   1.010   3.245   2.474 -0.1420 -0.1258  0.2392
  957W        W 2254   1.546   6.170   0.200 -0.2213 -0.0480 -0.0386
  958W        W 2255   3.190   3.379   2.536 -0.1714 -0.1939 -0.3620
  959W        W 2256   4.326   2.998   3.862  0.1830  0.0915  0.0225
  960W        W 2257   5.461   1.312   4.685 -0.0644  0.0096  0.0465
  961W        W 2258   4.927   4.932   5.304  0.0612  0.1220  0.1897
  962W        W 2259   1.186   5.860   5.862  0.0119 -0.0272  0.2415
  963W        W 2260   4.048   5.473   2.623 -0.2657  0.0110 -0.0228
  964W        W 2261   5.043   6.781   1.851  0.1391 -0.3393  0.1482
  965W        W 2262   4.731   3.969   6.400 -0.0822 -0.0827  0.0820
  966W        W 2263   1.566   7.288   6.670  0.1805 -0.0062  0.2045
  967W        W 2264   0.702   3.885   7.286 -0.0782 -0.1469 -0.1613
  968W        W 2265   6.501   6.000   5.364 -0.0415  0.0342 -0.0810
  969W        W 2266   5.560   3.678   2.779 -0.1612 -0.0667  0.2062
  970W        W 2267   5.896   6.445   4.595  0.1174 -0.0722 -0.2590
  971W        W 2268   2.196   5.014   6.193 -0.0732 -0.0985  0.1661
  972W        W 2269   2.782   2.937   6.554 -0.2176 -0.0353  0.2492
  973W        W 2270   0.859   6.188   1.338 -0.0847 -0.1335  0.0002
  974W        W 2271   3.435   3.242   4.654  0.1950 -0.0391  0.2277
  975W        W 2272   6.187   1.276   2.313 -0.0709 -0.2907  0.1074
  976W        W 2273   0.774   2.183   6.867  0.3895 -0.2749 -0.2625
  977W        W 2274   6.092   2.474   2.002 -0.1300  0.1632  0.1037
  978W        W 2275   7.567   5.162   0.227  0.0316  0.1321 -0.0634
  979W        W 2276   4.705   4.583   6.601  0.0834  0.1065 -0.1367
  980W        W 2277   7.106   2.644   5.856  0.2330  0.0374 -0.0236
  981W        W 2278   7.196   5.827   5.965 -0.0050 -0.1821 -0.2719
  982W        W 2279   5.150   1.957   4.179  0.4435 -0.0317  0.1121
  983W        W 2280   6.393   4.081   2.315  0.2961 -0.1258  0.3900
  984W        W 2281   4.620   2.901   1.260  0.0697  0.2873  0.1327
  985W        W 2282   7.509   6.356   6.012  0.0774 -0.1252  0.1857
  986W        W 2283   2.820   6.421   7.448 -0.1985 -0.1223  0.1217
  987W        W 2284   3.362   4.576   6.585  0.1997 -0.0217 -0.0264
  988W        W 2285   4.589   4.551   1.925  0.0263  0.3053  0.0631
  989W        W 2286   4.366   5.920   3.517  0.4691  0.0446 -0.1616
  990W        W 2287   1.116   6.384   7.403  0.3609 -0.0151  0.1251
  991W        W 2288   7.142   6.363   3.327  0.3004  0.1626 -0.0996
  992W        W 2289   2.510   5.665   7.321 -0.1456  0.1163 -0.1262
  993W        W 2290   3.104   3.963   5.223 -0.4160  0.2929 -0.0861
  994W        W 2291   1.135   2.000   2.016  0.1036 -0.3722 -0.2571
  995W        W 2292   0.733   5.786   1.634 -0.1464  0.1707 -0.3393
  996W        W 2293   0.447   2.813   6.658  0.1872  0.2027 -0.2158
  997W        W 2294   0.609   7.178   2.778  0.0021 -0.3168 -0.0149
  998W        W 2295   6.432   4.539   1.104  0.1534 -0.0730  0.3027
  999W        W 2296   2.720   4.212   0.888  0.1049 -0.1171 -0.0796
 1000W        W 2297   0.414   3.452   7.407  0.1964 -0.0296 -0.1240
 1001W        W 2298   7.066   0.531   2.399  0.1427 -0.0349 -0.0943
 1002W        W 2299   5.136   5.106   0.187 -0.0228 -0.0032  0.0874
 1003W        W 2300   0.061   5.360   0.686  0.1968  0.2462  0.0920
 1004W        W 2301   2.800   3.082   5.352 -0.0921 -0.1506 -0.1787
 1005W        W 2302   5.117   4.744   1.992 -0.0238 -0.1318 -0.1139
 1006W        W 2303   3.620   5.336   1.634 -0.1196  0.1120 -0.1209
 1007W        W 2304   0.199   1.894   1.906  0.2432 -0.1222 -0.1017
 1008W        W 2305   5.467   4.175   2.039  0.0003 -0.1165 -0.1026
 1009W        W 2306   4.315   1.534   3.474  0.1517 -0.2369 -0.0814
 1010W        W 2307   5.037   6.376   6.935 -0.1407  0.2651 -0.2052
 1011W        W 2308   0.545   4.719   1.567 -0.2944 -0.1078  0.2056
 1012W        W 2309   5.785   7.099   5.924  0.0400  0.3428 -0.2577
 1013W        W 2310   6.485   3.188   3.901 -0.1796 -0.0605 -0.2086
 1014W        W 2311   2.735   1.073   4.171 -0.2520  0.0082  0.3457
 1015W        W 2312   6.136   4.974   6.881 -0.1624 -0.1954  0.3126
 1016W        W 2313   1.199   6.569   0.516  0.2130 -0.3036  0.0584
 1017W        W 2314   6.568   2.949   6.732  0.0304  0.0375  0.0449
 1018W        W 2315   5.664   2.754   3.525 -0.1056 -0.0794  0.0080
 1019W        W 2316   2.856   2.627   7.071 -0.2007 -0.0304  0.4096
 1020W        W 2317   5.227   7.017   2.541  0.2936  0.0612  0.0263
 1021W        W 2318   6.281   0.745   2.112 -0.2740  0.1602 -0.3126
 1022W        W 2319   2.081   0.174   5.511  0.2778 -0.1569 -0.1738
 1023W        W 2320   4.869   5.754   6.210  0.0111 -0.1076  0.2393
 1024W        W 2321   5.410   2.829   0.284  0.2249  0.0764 -0.1220
 1025W        W 2322   4.639   2.585   3.675 -0.0473  0.0425  0.0229
 1026W        W 2323   0.471   3.427   6.014  0.1070  0.0040 -0.4753
 1027W        W 2324   3.875   4.666   1.548  0.0386  0.0721 -0.1654
 1028W        W 2325   2.609   2.816   7.465  0.0300 -0.2165 -0.4163
 1029W        W 2326   4.140   4.373   0.678 -0.1444  0.0953 -0.0761
 1030W        W 2327   7.375   3.995   4.397  0.1309 -0.1791  0.1053
 1031W        W 2328   5.123   1.215   5.270 -0.0560 -0.0401 -0.1215
 1032W        W 2329   3.631   3.893   4.120 -0.2100  0.1570  0.0689
 1033W        W 2330   3.701   7.235   2.331  0.0056  0.3494 -0.1977
 1034W        W 2331   2.176   2.253   5.266 -0.0433 -0.0283  0.0967
 1035W        W 2332   6.167   4.979   2.872  0.1284  0.3504 -0.0287
 1036W        W 2333   5.102   5.698   3.607  0.0827 -0.3514 -0.1697
 1037W        W 2334   7.357   4.665   1.059  0.3365  0.0974  0.0154
 1038W        W 2335   4.034   6.389   1.306  0.3395  0.0442 -0.1737
 1039W        W 2336   5.728   2.287   0.858 -0.1553 -0.0259  0.0680
 1040W        W 2337   3.710   7.390   3.357 -0.2942  0.2856  0.2499
 1041W        W 2338   3.543   3.650   3.271  0.1355  0.4445  0.0112
 1042W        W 2339   3.230   2.977   5.650  0.0739  0.2924 -0.2309
 1043W        W 2340   3.213   0.858   3.435  0.1761 -0.1079  0.0091
 1044W        W 2341   0.306   3.035   2.691 -0.1761 -0.1156  0.0210
 1045W        W 2342   5.808   5.750   0.693 -0.1827  0.3169  0.3042
 1046W        W 2343   2.764   3.637   4.062 -0.1250  0.0560  0.2308
 1047W        W 2344   0.921   6.277   0.854  0.2544  0.4879 -0.0014
 1048W        W 2345   2.145   6.095   6.694 -0.0378 -0.1387 -0.0333
 1049W        W 2346   1.235   5.925   1.534 -0.1951 -0.3806 -0.0007
 1050W        W 2347   6.652   5.320   1.705 -0.2727 -0.1970  0.1490
 1051W        W 2348   5.952   7.459   2.271 -0.0597  0.2100 -0.0855
 1052W        W 2349   0.883   2.630   1.308  0.2945 -0.1545 -0.2491
 1053W        W 2350   7.399   6.732   6.377  0.0329  0.1059 -0.1897
 1054W        W 2351   0.588   3.826   5.617  0.2254  0.1374  0.2785
 1055W        W 2352   6.594   3.319   4.596  0.0684  0.3605 -0.1478
 1056W        W 2353   1.984   5.696   5.465 -0.0786  0.2373 -0.0266
 1057W        W 2354   5.530   0.863   5.128  0.1771 -0.2591  0.0452
 1058W        W 2355   6.191   7.290   1.857  0.0567  0.0610 -0.1657
 1059W        W 2356   6.533   6.668   5.221 -0.1043  0.1030 -0.0785
 1060W        W 2357   2.778   6.672   3.657  0.1896 -0.0109  0.1579
 1061W        W 2358   7.099   3.634   4.508 -0.1022  0.2014 -0.2624
 1062W        W 2359   7.294   3.057   1.385 -0.0089  0.4358 -0.1011
 1063W        W 2360   4.692   4.701   4.408  0.0159 -0.1583  0.0536
 1064W        W 2361   5.776   0.839   6.079 -0.0537 -0.2066  0.1319
 1065W        W 2362   0.337   7.081   0.518 -0.2935 -0.1936  0.0850
 1066W        W 2363   6.880   4.009   4.223  0.1251 -0.1544  0.1688
 1067W        W 2364   7.198   2.324   0.124  0.1819  0.1594  0.1295
 1068W        W 2365   4.831   3.206   5.929 -0.0419 -0.0691 -0.1197
 1069W        W 2366   5.206   0.140   1.121 -0.0166  0.0159 -0.0728
 1070W        W 2367   6.869   6.469   1.035 -0.4878 -0.2257  0.1428
 1071W        W 2368   0.912   3.007   0.952 -0.1557  0.1647  0.1880
 1072W        W 2369   5.336   2.379   0.508 -0.1142  0.1147  0.2263
 1073W        W 2370   7.457   0.521   0.818  0.1862 -0.0031  0.1049
 1074W        W 2371   3.595   4.026   0.891 -0.2571 -0.1590 -0.1024
 1075W        W 2372   1.266   1.607   2.865  0.1528 -0.1052  0.0870
 1076W        W 2373   5.859   2.934   3.950 -0.1372  0.0084 -0.1415
 1077W        W 2374   3.031   0.796   4.479  0.2670  0.1667  0.0128
 1078W        W 2375   0.193   3.943   7.407 -0.1725  0.1864 -0.2828
 1079W        W 2376   7.311   1.766   3.191 -0.3611 -0.1305 -0.0242
 1080W        W 2377   7.114   2.251   7.110 -0.0948 -0.1354 -0.1046
 1081W        W 2378   7.452   5.763   2.014  0.1397  0.2321  0.4952
 1082W        W 2379   5.136   2.222   6.062 -0.0090  0.0654  0.2262
 1083W        W 2380   6.554   5.813   4.896 -0.2953 -0.1474  0.0222
 1084W        W 2381   6.009   6.697   6.605 -0.3941 -0.1859  0.0748
 1085W        W 2382   0.400   5.280   7.557  0.1921 -0.0092 -0.0372
 1086W        W 2383   1.447   4.197   4.693 -0.0758 -0.1830  0.0876
 1087W        W 2384   4.071   2.621   5.732  0.3855  0.0048  0.1822
 1088W        W 2385   6.615   2.325   1.352  0.3690  0.1519  0.1035
 1089W        W 2386   7.429   4.932   3.774 -0.0257 -0.1237 -0.4304
 1090W        W 2387   3.195   6.709   3.377  0.0642  0.1038  0.0145
 1091W        W 2388   0.088   6.311   6.504  0.1424 -0.0561  0.2384
 1092W        W 2389   0.336   6.374   0.774 -0.1801 -0.1990  0.0268
 1093W        W 2390   4.718   5.711   2.046  0.2515  0.1305  0.1469
 1094W        W 2391   2.011   3.310   1.167 -0.2142 -0.0901  0.0143
 1095W        W 2392   0.192   1.897   5.652  0.1173 -0.0064  0.2916
 1096W        W 2393   3.822   5.506   7.065  0.0037 -0.1766 -0.1171
 1097W        W 2394   1.707   2.128   4.463 -0.0913 -0.1259  0.0047
 1098W        W 2395   4.145   2.009   4.324 -0.1884  0.0823  0.1233
 1099W        W 2396   5.157   3.505   3.844 -0.4054  0.4739  0.0726
 1100W        W 2397   6.479   0.043   0.716  0.2350 -0.0621  0.3042
 1101W        W 2398   7.508   3.987   6.335  0.0024  0.2466 -0.1293
 1102W        W 2399   1.591   4.592   4.270 -0.0635 -0.0949  0.0660
 1103W        W 2400   4.576   2.932   6.929  0.1987 -0.0592  0.0463
 1104W        W 2401   5.552   1.924   2.663  0.1045 -0.0537  0.1679
 1105W        W 2402   1.236   2.642   0.180 -0.0130  0.1154 -0.1157
 1106W        W 2403   2.601   3.366   4.461 -0.1226  0.0989  0.0708
 1107W        W 2404   3.381   0.342   4.470 -0.1432  0.3578  0.0834
 1108W        W 2405   2.619   1.792   3.541 -0.0029  0.1591 -0.0955
 1109W        W 2406   6.647   2.451   6.941 -0.1655  0.1383 -0.0236
 1110W        W 2407   2.118   6.101   5.210  0.0387  0.1060  0.3393
 1111W        W 2408   2.855   4.490   2.364 -0.0109 -0.2863  0.2553
 1112W        W 2409   2.896   6.790   0.789 -0.1967  0.2318 -0.2385
 1113W        W 2410   5.302   5.601   4.997 -0.1348 -0.4688  0.3415
 1114W        W 2411   6.501   2.654   2.319 -0.1905  0.0330  0.1084
 1115W        W 2412   6.929   5.365   0.378 -0.0363  0.3151  0.0139
 1116W        W 2413   4.806   2.119   5.672  0.1189  0.1641 -0.0238
 1117W        W 2414   5.990   4.333   3.928 -0.1400 -0.1719  0.1713
 1118W        W 2415   1.744   2.373   1.428  0.2339 -0.0119  0.0052
 1119W        W 2416   6.122   4.832   3.996 -0.1564  0.1134  0.2867
 1120W        W 2417   4.729   5.429   3.319  0.0747 -0.0994  0.1264
 1121W        W 2418   5.550   4.173   5.177  0.2967  0.0747 -0.1831
 1122W        W 2419   5.493   1.492   5.592 -0.3248  0.1440 -0.1358
 1123W        W 2420   4.047   2.691   0.060 -0.1355  0.3566  0.0218
 1124W        W 2421   6.142   7.453   1.142  0.0755  0.0718  0.2991
 1125W        W 2422   0.934   6.301   4.348 -0.1927  0.0010  0.1078
 1126W        W 2423   4.556   4.050   3.770  0.0986 -0.1244  0.0779
 1127W        W 2424   1.609   5.040   6.804  0.1469 -0.0216  0.6851
 1128W        W 2425   7.063   2.653   2.856 -0.0395 -0.0288  0.3788
 1129W        W 2426   4.488   7.486   0.149  0.0515 -0.0999 -0.1699
 1130W        W 2427   4.377   4.790   1.549  0.1651 -0.0020 -0.1936
 1131W        W 2428   6.246   5.025   1.809  0.1865  0.4110 -0.2303
 1132W        W 2429   4.487   3.846   6.814 -0.1973 -0.0301  0.2339
 1133W        W 2430   1.941   7.070   4.918 -0.1015 -0.0999  0.1289
 1134W        W 2431   1.408   1.486   3.291 -0.0237 -0.0638 -0.3109
 1135W        W 2432   7.576   0.707   3.932 -0.0840  0.1907  0.0952
 1136W        W 2433   0.581   4.457   0.046 -0.2415  0.2214  0.1218
 1137W        W 2434   1.087   4.904   4.941 -0.1139  0.0793  0.2147
 1138W        W 2435   4.707   4.019   2.742 -0.0427  0.0441  0.3413
 1139W        W 2436   5.271   2.289   1.070 -0.1657 -0.0609 -0.1507
 1140W        W 2437   3.086   2.250   5.769  0.1464 -0.1880 -0.1129
 1141W        W 2438   3.872   6.676   2.668  0.2240  0.1878  0.0464
 1142W        W 2439   0.029   4.372   4.491 -0.3349 -0.0110  0.2119
 1143W        W 2440   6.526   7.561   1.627 -0.0543 -0.1774 -0.1099
 1144W        W 2441   4.248   4.027   3.005  0.1336  0.1161 -0.1334
 1145W        W 2442   3.241   4.264   7.495 -0.1885 -0.1414  0.0751
 1146W        W 2443   1.721   3.797   4.799 -0.2393 -0.0401 -0.0495
 1147W        W 2444   3.955   3.795   4.954 -0.1616  0.1095  0.2077
 1148W        W 2445   5.898   4.635   7.361  0.2188 -0.0470 -0.0482
 1149W        W 2446   1.960   6.438   3.881 -0.2859 -0.0328  0.2219
 1150W        W 2447   1.037   3.345   3.078  0.1495 -0.2612  0.1260
 1151W        W 2448   2.136   5.105   6.680 -0.1210 -0.2110  0.1403
 1152W        W 2449   6.774   2.177   5.237 -0.0375  0.0659 -0.1288
 1153W        W 2450   0.942   3.661   2.206  0.0536 -0.0913 -0.0520
 1154W        W 2451   6.836   5.383   5.197 -0.0764 -0.1427 -0.0572
 1155W        W 2452   7.037   6.368   6.085  0.0739  0.2140 -0.0511
 1156W        W 2453   0.234   5.042   3.377  0.2660  0.2519 -0.0176
 1157W        W 2454   2.087   3.180   6.115  0.1271  0.4143  0.0413
 1158W        W 2455   6.665   5.336   4.154  0.4328  0.2187 -0.2694
 1159W        W 2456   4.945   7.182   4.581  0.0296  0.2012 -0.1582
 1160W        W 2457   5.141   3.238   5.073  0.0086 -0.0525  0.1609
 1161W        W 2458   5.970   4.887   1.159  0.2419  0.2608 -0.0734
 1162W        W 2459   0.939   7.107   5.356 -0.1597 -0.0382  0.0756
 1163W        W 2460   6.690   2.549   3.449 -0.0532  0.1939 -0.1986
 1164W        W 2461   0.546   5.166   6.095 -0.3351  0.1635  0.1805
 1165W        W 2462   0.083   3.023   4.638  0.3737 -0.0034  0.2249
 1166W        W 2463   5.876   6.132   0.968 -0.0187 -0.1066  0.0809
 1167W        W 2464   4.016   3.269   5.975  0.0204 -0.0373 -0.3177
 1168W        W 2465   7.424   5.474   6.840 -0.5131 -0.2461  0.3131
 1169W        W 2466   5.298   2.678   1.642  0.2299  0.2358  0.1133
 1170W        W 2467   4.528   3.137   5.528 -0.1803 -0.1987  0.3449
 1171W        W 2468   1.841   4.860   3.859  0.3014 -0.2698 -0.0394
 1172W        W 2469   1.149   5.827   1.992  0.2369 -0.1069 -0.0936
 1173W        W 2470   2.460   2.949   1.927  0.1228  0.1016 -0.2102
 1174W        W 2471   5.631   4.975   5.776  0.0114  0.1674 -0.0051
 1175W        W 2472   6.177   3.259   0.802 -0.0508  0.0464  0.1521
 1176W        W 2473   3.172   3.319   1.147 -0.0080 -0.0063 -0.0532
 1177W        W 2474   2.823   7.056   7.414  0.1434  0.3377 -0.5735
 1178W        W 2475   2.093   3.028   4.230  0.3018  0.0026 -0.0572
 1179W        W 2476   6.799   3.513   3.255  0.0312  0.2166  0.2514
 1180W        W 2477   0.347   3.908   3.400 -0.7265  0.0574  0.0784
 1181W        W 2478   2.321   4.619   7.443  0.2168  0.1562  0.2350
 1182W        W 2479   3.452   3.216   3.530  0.2331  0.0784  0.1880
 1183W        W 2480   2.165   3.841   1.859  0.0667 -0.1042  0.1061
 1184W        W 2481   4.407   7.071   4.760  0.0805 -0.0136 -0.0802
 1185W        W 2482   3.393   7.491   6.449 -0.0566  0.2460 -0.3197
 1186W        W 2483   1.754   2.975   0.817  0.2587 -0.0390 -0.4038
 1187W        W 2484   5.969   2.844   5.232 -0.0612 -0.1914  0.0983
 1188W        W 2485   4.369   6.803   2.607  0.1395 -0.0813  0.2775
 1189W        W 2486   7.102   0.783   1.529 -0.3720 -0.0347  0.1858
 1190W        W 2487   5.166   4.430   0.601 -0.0389  0.2615  0.2057
 1191W        W 2488   7.257   6.347   1.275 -0.4013  0.3291 -0.2682
 1192W        W 2489   5.866   0.660   7.220 -0.0924  0.1507 -0.0554
 1193W        W 2490   1.808   6.880   4.218 -0.2861  0.0711 -0.0928
 1194W        W 2491   2.689   3.217   0.171 -0.1853  0.3201  0.1082
 1195W        W 2492   3.416   4.720   7.103  0.3011 -0.0774 -0.1359
 1196W        W 2493   2.067   4.214   7.206  0.1086 -0.3764 -0.1070
 1197W        W 2494   6.623   0.062   3.038 -0.1225 -0.0972 -0.0314
 1198W        W 2495   3.083   3.846   6.322 -0.2130 -0.1480  0.1660
 1199W        W 2496   7.503   1.414   0.527 -0.2007  0.2157  0.0409
 1200W        W 2497   7.462   4.010   6.953  0.2119  0.1654  0.0230
 1201W        W 2498   7.294   4.015   3.932 -0.1494  0.2463  0.0927
 1202W        W 2499   4.192   7.615   6.118 -0.2416  0.1432 -0.2139
 1203W        W 2500   0.263   2.853   4.239 -0.1260  0.4626  0.2510
 1204W        W 2501   4.365   0.295   6.652  0.0111 -0.2796  0.0372
 1205W        W 2502   5.460   1.508   0.686  0.0929  0.2337  0.1530
 1206W        W 2503   5.246   5.092   6.731 -0.1188  0.1219 -0.1293
 1207W        W 2504   5.164   6.971   4.990 -0.0392 -0.0103  0.2812
 1208W        W 2505   7.472   2.290   3.239  0.1666  0.1519  0.0045
 1209W        W 2506   0.500   6.804   0.957 -0.0576 -0.1564  0.0121
 1210W        W 2507   3.719   0.741   5.585  0.0562  0.1929  0.1270
 1211W        W 2508   3.496   3.125   2.126 -0.3088  0.1889 -0.0929
 1212W        W 2509   5.425   4.525   3.974 -0.2189  0.1540  0.2906
 1213W        W 2510   0.279   6.815   6.207 -0.0145 -0.0183 -0.0580
 1214W        W 2511   0.766   1.373   2.846 -0.2571  0.2117 -0.0674
 1215W        W 2512   5.220   1.259   7.294  0.2261 -0.1929 -0.2273
 1216W        W 2513   2.012   3.438   4.520 -0.1064 -0.2021 -0.0175
 1217W        W 2514   5.526   0.488   1.330  0.3110  0.2173 -0.0402
 1218W        W 2515   4.071   2.951   1.079  0.2589  0.3614 -0.1039
 1219W        W 2516   3.626   4.909   4.346 -0.0041  0.0635 -0.3334
 1220W        W 2517   6.075   3.834   5.041  0.2865  0.2798  0.0225
 1221W        W 2518   1.457   6.918   2.973 -0.2513  0.0429  0.1834
 1222W        W 2519   4.902   6.803   3.424  0.1577 -0.2011 -0.0709
 1223W        W 2520   1.475   4.613   7.022 -0.0266 -0.0511 -0.0511
 1224W        W 2521   7.420   4.986   6.603  0.0077 -0.0445 -0.2284
 1225W        W 2522   5.599   7.620   5.217 -0.1714 -0.2525  0.1724
 1226W        W 2523   7.244   5.558   0.746 -0.0203  0.1259  0.0428
 1227W        W 2524   6.046   5.722   6.320  0.4845 -0.0615  0.1235
 1228W        W 2525   2.773   5.486   3.883 -0.1190 -0.1791  0.3034
 1229W        W 2526   5.829   2.857   5.752 -0.0874 -0.3466  0.2376
 1230W        W 2527   4.289   3.625   0.251 -0.0103  0.1621  0.1907
 1231W        W 2528   3.169   1.871   4.317  0.2870 -0.0167  0.1626
 1232W        W 2529   5.641   1.623   6.402 -0.4237  0.0157 -0.1348
 1233W        W 2530   5.152   0.640   6.008 -0.0150 -0.0126  0.2253
 1234W        W 2531   5.709   4.329   3.548  0.1962 -0.2062  0.0502
 1235W        W 2532   7.067   0.762   1.010  0.0838 -0.4072  0.1432
 1236W        W 2533   2.402   7.034   0.600 -0.1464 -0.2490 -0.1316
 1237W        W 2534   2.794   4.561   4.703  0.0265 -0.0514  0.3055
 1238W        W 2535   6.361   3.917   0.786 -0.0666 -0.3161 -0.2682
 1239W        W 2536   2.328   2.609   6.741 -0.1348  0.1194  0.3878
 1240W        W 2537   4.581   1.095   4.918  0.1428 -0.1269 -0.0230
 1241W        W 2538   1.946   4.171   2.152  0.0094 -0.2609 -0.1413
 1242W        W 2539   0.935   4.141   4.645 -0.0827 -0.1289  0.1949
 1243W        W 2540   3.704   4.343   7.220  0.1433 -0.1000 -0.1917
 1244W        W 2541   7.533   4.482   6.503 -0.1717  0.0201 -0.0094
 1245W        W 2542   0.803   2.087   6.287 -0.0551  0.0324 -0.1519
 1246W        W 2543   5.418   5.806   0.972  0.1220 -0.0259 -0.1054
 1247W        W 2544   7.330   5.406   5.064 -0.1405  0.0713 -0.1256
 1248W        W 2545   6.439   6.878   3.104 -0.2976 -0.2016  0.1742
 1249W        W 2546   0.081   1.480   3.828 -0.1285 -0.3658  0.0010
 1250W        W 2547   5.265   3.342   6.361 -0.0243 -0.1332  0.2690
 1251W        W 2548   5.385   2.316   3.499  0.0208 -0.1070 -0.2714
 1252W        W 2549   0.245   5.093   4.321 -0.0253 -0.1349  0.0974
 1253W        W 2550   5.565   2.450   2.012 -0.0179 -0.2714 -0.2673
 1254W        W 2551   6.178   2.836   1.414  0.0224  0.0223 -0.1729
 1255W        W 2552   5.798   1.804   5.372  0.1889 -0.1172  0.1248
 1256W        W 2553   5.016   6.614   3.839  0.3012  0.0424 -0.0018
 1257W        W 2554   3.877   0.638   4.262  0.0018  0.4031  0.2600
 1258W        W 2555   6.269   3.982   2.740  0.1504 -0.0199  0.0408
 1259W        W 2556   5.092   3.875   4.220 -0.3638  0.0537 -0.0289
 1260W        W 2557   4.609   5.240   1.387  0.0614 -0.1382  0.0869
 1261W        W 2558   7.275   0.263   3.731 -0.2023  0.0749  0.1076
 1262W        W 2559   5.893   6.571   1.307 -0.4123 -0.3401  0.0521
 1263W        W 2560   5.330   4.619   2.914  0.0286 -0.3728  0.0331
 1264W        W 2561   6.787   7.239   6.842 -0.3341 -0.2094 -0.3717
 1265W        W 2562   1.030   3.223   1.438  0.1508 -0.2986  0.2057
 1266W        W 2563   0.522   4.100   2.527 -0.1916  0.3986  0.0737
 1267W        W 2564   1.372   3.230   1.011 -0.0970 -0.2329 -0.1074
 1268W        W 2565   5.761   2.577   1.320 -0.1342  0.0892 -0.0316
 1269W        W 2566   2.865   2.423   3.755 -0.2497 -0.5216  0.1565
 1270W        W 2567   4.802   0.662   5.478  0.1824 -0.0961 -0.1474
 1271W        W 2568   1.619   5.970   2.547 -0.1075 -0.1094  0.1295
 1272W        W 2569   0.093   5.372   5.864  0.1955 -0.2405 -0.1739
 1273W        W 2570   4.349   2.844   4.747 -0.1271  0.1721 -0.1243
 1274W        W 2571   7.565   7.238   7.045  0.1375 -0.2178  0.2126
 1275W        W 2572   2.026   3.017   2.253  0.0481  0.0998  0.1354
 1276W        W 2573   1.531   6.274   7.116  0.1492 -0.4273  0.1996
 1277W        W 2574   3.008   6.204   4.305 -0.2099 -0.1393  0.1504
 1278W        W 2575   3.141   3.969   3.978 -0.0079 -0.4566 -0.0698
 1279W        W 2576   0.327   4.676   3.010 -0.0672 -0.0035  0.1273
 1280W        W 2577   0.648   2.138   1.846 -0.1833 -0.0600 -0.1271
 1281W        W 2578   2.309   5.344   2.036  0.1721  0.0761  0.2483
 1282W        W 2579   4.168   3.681   7.362  0.0210 -0.3089 -0.0930
 1283W        W 2580   1.530   3.314   3.099  0.1385 -0.1261  0.0614
 1284W        W 2581   3.650   1.172   5.869  0.1716 -0.1380  0.2411
 1285W        W 2582   2.409   3.300   5.129  0.1022 -0.1778 -0.2011
 1286W        W 2583   3.741   6.048   6.572 -0.0960  0.0955  0.0608
 1287W        W 2584   4.027   3.897   5.947 -0.0360  0.0157  0.3688
 1288W        W 2585   4.424   4.360   4.640  0.2456  0.4588 -0.0600
 1289W        W 2586   3.055   4.832   1.997 -0.1089  0.0207 -0.2357
 1290W        W 2587   6.856   0.318   1.000 -0.1499  0.1258  0.1968
 1291W        W 2588   3.613   5.396   0.685  0.1334 -0.1173  0.1485
 1292W        W 2589   1.664   2.922   1.874  0.4285 -0.0837  0.2068
 1293W        W 2590   2.503   5.945   3.115 -0.0280 -0.1166 -0.0321
 1294W        W 2591   5.548   3.251   7.598 -0.0990 -0.3039  0.1668
 1295W        W 2592   4.636   3.580   5.233 -0.0818 -0.0050 -0.1469
 1296W        W 2593   0.293   6.403   4.939 -0.1991  0.3421  0.0059
 1297W        W 2594   1.677   3.197   0.432  0.2164 -0.5308 -0.1540
 1298W        W 2595   4.999   6.144   4.752 -0.2333  0.0935 -0.2885
 1299W        W 2596   6.538   1.161   6.332 -0.0214 -0.4690  0.1701
 1300W        W 2597   6.478   6.585   1.430 -0.1579  0.0607  0.2802
 1301W        W 2598   4.531   1.617   4.658 -0.0291  0.4045 -0.1121
 1302W        W 2599   7.155   0.449   1.908  0.1320  0.0638  0.3459
 1303W        W 2600   3.658   3.471   0.208 -0.3142 -0.1830 -0.2428
 1304W        W 2601   0.317   0.946   2.483 -0.0912 -0.0673  0.0430
 1305W        W 2602   7.228   3.640   3.549  0.3348 -0.2543 -0.2892
 1306W        W 2603   6.976   4.879   4.030 -0.2611  0.2642  0.3018
 1307W        W 2604   6.274   5.861   3.745 -0.0717 -0.2012  0.1434
 1308W        W 2605   6.498   4.468   0.601  0.3412 -0.3908 -0.1486
 1309W        W 2606   0.516   2.484   2.137 -0.0069 -0.0539 -0.1928
 1310W        W 2607   5.986   2.165   4.608  0.2727 -0.3603 -0.1191
 1311W        W 2608   3.856   5.289   4.848  0.0880  0.1379  0.0011
 1312W        W 2609   3.416   1.940   5.925  0.2313  0.1283 -0.1368
 1313W        W 2610   7.293   0.331   1.305 -0.3940 -0.0210 -0.0758
 1314W        W 2611   6.828   5.658   6.277 -0.0613 -0.0315  0.1550
 1315W        W 2612   2.397   3.791   7.213 -0.0363 -0.1324 -0.2674
 1316W        W 2613   7.152   1.418   2.331 -0.1065 -0.0464  0.2130
 1317W        W 2614   2.830   4.992   5.461 -0.3298  0.2316  0.2495
 1318W        W 2615   2.615   4.117   5.169 -0.0472  0.0094 -0.0762
 1319W        W 2616   6.890   5.624   6.793 -0.2923  0.0044 -0.2454
 1320W        W 2617   3.251   1.896   3.007 -0.0350  0.0686  0.0516
 1321W        W 2618   2.998   4.592   2.877 -0.0607 -0.1223 -0.4100
 1322W        W 2619   1.599   5.070   7.303 -0.0182 -0.1129 -0.1599
 1323W        W 2620   2.813   7.327   3.341  0.1633 -0.1338  0.1247
 1324W        W 2621   6.130   3.371   7.566  0.2795  0.1431  0.1443
 1325W        W 2622   6.059   3.179   3.567 -0.4506 -0.0213 -0.0920
 1326W        W 2623   3.048   4.459   6.942  0.1679  0.0211 -0.1532
 1327W        W 2624   0.982   3.485   5.848 -0.1857 -0.0975 -0.1004
 1328W        W 2625   5.758   3.712   0.031 -0.0291  0.0757  0.0002
 1329W        W 2626   3.215   5.113   1.529 -0.2125  0.3387  0.0816
 1330W        W 2627   1.083   5.353   3.849 -0.2425  0.1429  0.0677
 1331W        W 2628   1.869   6.375   1.213 -0.0238  0.2228 -0.1905
 1332W        W 2629   2.022   5.884   3.297  0.0122 -0.0124 -0.0712
 1333W        W 2630   5.421   5.314   7.455  0.3279 -0.0702 -0.1814
 1334W        W 2631   3.781   6.719   4.661  0.2687 -0.3374  0.0792
 1335W        W 2632   2.890   7.269   6.431 -0.2187  0.1817  0.0959
 1336W        W 2633   7.546   1.816   2.379 -0.0021  0.5467  0.1250
 1337W        W 2634   5.488   4.421   7.012 -0.2321 -0.1432 -0.1452
 1338W        W 2635   0.778   0.857   2.805  0.2202  0.1227  0.1987
 1339W        W 2636   2.000   5.444   5.925 -0.1526 -0.1537  0.0824
 1340W        W 2637   6.012   4.418   2.514  0.1238 -0.2194 -0.1494
 1341W        W 2638   2.740   1.451   6.177  0.0870 -0.2352 -0.3136
 1342W        W 2639   4.477   1.038   6.339 -0.0209 -0.1770  0.0261
 1343W        W 2640   7.617   2.580   4.983 -0.2208  0.0667 -0.1947
 1344W        W 2641   1.457   2.437   3.302  0.0676 -0.0387 -0.1925
 1345W        W 2642   5.457   5.628   6.320 -0.2687 -0.1208  0.1710
 1346W        W 2643   5.192   5.761   7.273 -0.2305 -0.0189 -0.0215
 1347W        W 2644   2.197   3.898   4.524 -0.1462  0.1578 -0.0819
 1348W        W 2645   3.273   3.797   5.810 -0.0182  0.0662  0.2745
 1349W        W 2646   7.361   7.389   6.610  0.1085 -0.1459 -0.0949
 1350W        W 2647   5.830   4.053   3.054  0.3088 -0.2782  0.0289
 1351W        W 2648   5.259   2.365   2.406  0.1724 -0.0596 -0.0647
 1352W        W 2649   7.112   3.653   6.610  0.0083 -0.0297  0.1543
 1353W        W 2650   4.222   4.743   5.470 -0.4107  0.1738  0.1842
 1354W        W 2651   6.644   7.440   0.261  0.0149  0.2074  0.1005
 1355W        W 2652   6.073   7.215   0.123  0.0459  0.2914 -0.0250
 1356W        W 2653   1.664   4.602   1.012 -0.0426 -0.0162 -0.2943
 1357W        W 2654   0.583   6.715   1.519 -0.1892 -0.1162  0.2131
 1358W        W 2655   3.737   6.312   0.088  0.1166 -0.2323 -0.2221
 1359W        W 2656   7.593   0.874   1.746 -0.2654 -0.1444  0.2870
 1360W        W 2657   5.308   6.027   5.967  0.1867 -0.0239 -0.1191
 1361W        W 2658   2.699   6.731   4.509 -0.0701 -0.0441  0.0556
 1362W        W 2659   0.862   5.434   2.451  0.0347  0.1329  0.0410
 1363W        W 2660   5.481   5.499   0.404 -0.1762 -0.2067 -0.3050
 1364W        W 2661   2.686   7.360   0.413  0.2146 -0.0406 -0.0766
 1365W        W 2662   6.945   4.721   2.221  0.0135 -0.3629  0.0657
 1366W        W 2663   2.937   4.812   3.406 -0.4969 -0.4066 -0.2816
 1367W        W 2664   1.429   4.264   1.262  0.1349  0.1168  0.0758
 1368W        W 2665   3.773   7.565   5.125 -0.1049 -0.0806  0.2497
 1369W        W 2666   6.814   0.225   0.372  0.1511  0.0013 -0.1306
 1370W        W 2667   7.402   5.770   5.451  0.0562 -0.1078 -0.1423
 1371W        W 2668   2.415   4.959   3.090  0.3388 -0.2376  0.0681
 1372W        W 2669   5.373   2.729   3.090  0.0665 -0.1886 -0.2382
 1373W        W 2670   6.922   5.433   2.190 -0.0345 -0.0152 -0.1114
 1374W        W 2671   4.914   0.711   4.057 -0.0555 -0.3080  0.5049
 1375W        W 2672   1.049   1.945   0.700  0.0052  0.2017  0.0879
 1376W        W 2673   4.534   0.393   6.189  0.0332 -0.0399  0.3024
 1377W        W 2674   4.635   7.107   0.987 -0.1745  0.1229 -0.3366
 1378W        W 2675   6.487   3.903   7.186 -0.3189 -0.0240 -0.3546
 1379W        W 2676   0.208   6.435   2.449 -0.1780 -0.0064  0.1150
 1380W        W 2677   3.815   4.859   0.727  0.1474 -0.2183  0.0849
 1381W        W 2678   7.170   2.972   3.202 -0.0984 -0.0047  0.1072
 1382W        W 2679   4.826   4.867   7.435 -0.0937  0.0856 -0.2559
 1383W        W 2680   5.803   5.532   4.854  0.3326  0.1184  0.0746
 1384W        W 2681   1.261   4.603   6.562  0.1529 -0.2174  0.1468
 1385W        W 2682   6.832   0.630   0.082 -0.0199 -0.3981 -0.0326
 1386W        W 2683   3.632   2.377   2.018  0.0083  0.3639  0.2257
 1387W        W 2684   6.603   6.942   1.063  0.1320 -0.0981 -0.0595
 1388W        W 2685   7.357   6.029   3.772 -0.1699  0.0372 -0.1121
 1389W        W 2686   4.231   5.348   3.829 -0.3030  0.0612 -0.1985
 1390W        W 2687   0.264   6.725   0.157 -0.3151 -0.1791  0.2178
 1391W        W 2688   7.099   6.985   1.884  0.0183  0.0171  0.2704
 1392W        W 2689   4.255   2.170   0.754 -0.1076  0.0090 -0.0482
 1393W        W 2690   0.194   6.192   2.890 -0.1321  0.0599 -0.0461
 1394W        W 2691   5.296   3.334   2.329 -0.1342  0.2081 -0.2931
 1395W        W 2692   4.839   5.110   6.253  0.0086  0.0056 -0.1765
 1396W        W 2693   2.669   5.979   3.875 -0.0335  0.1985 -0.0247
 1397W        W 2694   4.849   0.176   5.323  0.1654 -0.1801 -0.0669
 1398W        W 2695   4.687   2.459   2.287 -0.6301 -0.3114  0.0671
 1399W        W 2696   7.405   5.993   7.556 -0.0243  0.0473 -0.1017
 1400W        W 2697   2.216   3.567   3.450  0.2825  0.0435 -0.1265
 1401W        W 2698   7.547   2.930   6.695 -0.0214  0.0920  0.1934
 1402W        W 2699   5.430   1.550   4.242 -0.2051  0.0386 -0.1956
 1403W        W 2700   6.684   2.180   1.893  0.1066 -0.0027  0.2452
 1404W        W 2701   3.503   2.910   4.257 -0.2782  0.2266 -0.1081
 1405W        W 2702   2.950   6.248   0.696 -0.0377  0.1790 -0.0940
 1406W        W 2703   3.294   3.034   5.116  0.1507 -0.2341 -0.0650
 1407W        W 2704   1.857   5.193   1.854  0.0307 -0.0973 -0.3143
 1408W        W 2705   3.525   5.389   2.736  0.1423 -0.2921 -0.0408
 1409W        W 2706   4.848   5.647   4.647 -0.2403 -0.0946 -0.0689
 1410W        W 2707   7.609   5.730   0.322 -0.1788  0.0860 -0.3237
 1411W        W 2708   5.813   2.387   5.519 -0.0072  0.6206  0.3298
 1412W        W 2709   0.316   4.690   3.991 -0.0426  0.3977  0.0846
 1413W        W 2710   4.866   5.403   0.430  0.2376  0.1443 -0.1493
 1414W        W 2711   0.645   4.585   2.536 -0.0113  0.0365  0.1263
 1415W        W 2712   2.761   6.188   6.577 -0.0722  0.1508 -0.0469
 1416W        W 2713   6.094   4.546   1.539  0.0614 -0.0229 -0.0862
 1417W        W 2714   6.574   1.083   7.013 -0.1565  0.0807  0.0840
 1418W        W 2715   3.983   2.774   6.220 -0.0084 -0.1137  0.0724
 1419W        W 2716   7.386   6.934   2.724  0.0512 -0.2310  0.1971
 1420W        W 2717   2.276   4.573   3.948 -0.1743  0.2974  0.1718
 1421W        W 2718   7.417   3.031   2.658 -0.1492  0.0009  0.2101
 1422W        W 2719   0.034   3.471   2.682 -0.3267 -0.0539  0.1886
 1423W        W 2720   3.118   6.260   5.228 -0.0378 -0.0548  0.0343
 1424W        W 2721   3.996   1.774   5.329 -0.2977 -0.2209  0.1869
 1425W        W 2722   2.593   4.150   2.699  0.0449 -0.0098  0.0288
 1426W        W 2723   4.060   2.785   6.780  0.1723 -0.0779  0.0233
 1427W        W 2724   4.847   0.619   6.612  0.0857 -0.1660 -0.2117
 1428W        W 2725   0.378   1.350   7.448 -0.1290  0.2377 -0.0507
 1429W        W 2726   7.480   0.998   2.601 -0.0122  0.1592 -0.0857
 1430W        W 2727   6.617   3.790   4.714 -0.0258 -0.1595 -0.0050
 1431W        W 2728   0.508   6.255   0.192 -0.0948 -0.4693  0.1055
 1432W        W 2729   1.635   6.666   4.727 -0.1590  0.1147  0.2075
 1433W        W 2730   6.123   1.652   7.387 -0.2939 -0.3182 -0.0526
 1434W        W 2731   4.999   4.722   7.012  0.1472  0.3488 -0.2068
 1435W        W 2732   4.225   0.895   5.490 -0.0721 -0.5321  0.0411
 1436W        W 2733   3.225   6.802   1.493 -0.1010 -0.1068  0.0617
 1437W        W 2734   2.084   5.805   4.750 -0.1467  0.0942 -0.3322
 1438W        W 2735   1.782   5.469   3.240  0.0714  0.2793  0.2675
 1439W        W 2736   0.931   2.503   3.093 -0.1434  0.0100 -0.1079
 1440W        W 2737   4.285   6.765   5.433 -0.0289 -0.0602  0.0761
 1441W        W 2738   3.257   5.932   5.683 -0.1478 -0.0320 -0.1153
 1442W        W 2739   0.558   3.871   1.862 -0.2245  0.0633 -0.1847
 1443W        W 2740   0.703   1.890   0.319 -0.1197 -0.2318 -0.3621
 1444W        W 2741   4.466   5.516   4.381 -0.0340  0.0659 -0.1947
 1445W        W 2742   0.643   1.440   1.301 -0.1982  0.0732 -0.2763
 1446W        W 2743   4.549   6.702   2.137 -0.2267 -0.1163 -0.2243
 1447W        W 2744   2.170   7.519   4.971  0.0134  0.1793  0.0804
 1448W        W 2745   2.365   7.062   5.223  0.2765 -0.0612  0.1098
 1449W        W 2746   2.273   5.963   5.785 -0.1692 -0.1380 -0.1563
 1450W        W 2747   3.093   7.171   3.003 -0.2082  0.1570  0.0481
 1451W        W 2748   2.143   5.982   7.153  0.0089  0.1539 -0.2444
 1452W        W 2749   5.291   3.412   4.618 -0.2197 -0.1837 -0.0987
 1453W        W 2750   6.382   5.910   0.982  0.2755 -0.1297  0.0071
 1454W        W 2751   5.371   5.226   5.486 -0.0052  0.0497  0.0275
 1455W        W 2752   5.975   4.269   1.054 -0.1705  0.0935 -0.0903
 1456W        W 2753   2.823   3.971   6.843 -0.3922  0.1134 -0.0220
 1457W        W 2754   2.325   1.429   4.901 -0.2000  0.1276 -0.0192
 1458W        W 2755   7.371   3.007   5.934 -0.1351 -0.1031  0.3628
 1459W        W 2756   1.232   2.862   3.218  0.1305  0.0962  0.0220
 1460W        W 2757   2.373   5.695   5.213 -0.0593 -0.3241  0.1038
 1461W        W 2758   5.275   2.185   3.033  0.0728 -0.2707 -0.0317
 1462W        W 2759   0.249   4.043   1.199  0.0457  0.3193  0.1164
 1463W        W 2760   3.538   5.080   6.837  0.0739 -0.0029  0.0028
 1464W        W 2761   4.239   4.426   5.924  0.1796 -0.0342 -0.0501
 1465W        W 2762   6.324   5.081   5.895 -0.1677 -0.3058  0.1823
 1466W        W 2763   6.988   6.102   4.144 -0.0117 -0.0897  0.0429
 1467W        W 2764   6.602   2.208   6.381  0.1237  0.1327 -0.1692
 1468W        W 2765   0.125   3.177   6.256  0.3131 -0.0372 -0.0095
 1469W        W 2766   4.086   5.263   0.851  0.3073  0.1274 -0.0513
 1470W        W 2767   1.626   2.561   2.786  0.1629 -0.4891 -0.1588
 1471W        W 2768   1.645   4.291   0.628  0.4949 -0.3776  0.0436
 1472W        W 2769   4.654   3.148   5.027  0.2120 -0.1772  0.1717
 1473W        W 2770   1.505   4.612   5.030 -0.0465  0.3179  0.0383
 1474W        W 2771   4.542   2.329   6.882 -0.0768  0.0268 -0.1201
 1475W        W 2772   5.809   5.128   7.189  0.0872  0.0325 -0.0375
 1476W        W 2773   4.295   1.648   6.308  0.1365  0.0151 -0.0414
 1477W        W 2774   5.177   3.460   1.525  0.1108  0.1344 -0.0187
 1478W        W 2775   4.746   7.598   0.952  0.3277  0.4305  0.0031
 1479W        W 2776   1.158   3.802   4.940 -0.0097  0.1695 -0.2163
 1480W        W 2777   1.517   3.660   5.222 -0.3401 -0.4054 -0.1148
 1481W        W 2778   0.293   3.339   1.547 -0.4110 -0.1032 -0.3582
 1482W        W 2779   4.270   3.665   6.367  0.5089  0.0174  0.0418
 1483W        W 2780   0.145   2.228   2.526  0.0138  0.1715 -0.3489
 1484W        W 2781   1.210   4.615   2.455  0.0044 -0.2138  0.1360
 1485W        W 2782   4.964   1.512   6.988 -0.1223 -0.0252  0.0321
 1486W        W 2783   4.763   2.297   2.805 -0.1191 -0.0394  0.1076
 1487W        W 2784   2.897   2.426   7.498  0.0790 -0.0331 -0.0539
 1488W        W 2785   6.388   4.288   7.525 -0.0398 -0.1234 -0.1210
 1489W        W 2786   7.437   1.001   3.097  0.1044 -0.0389 -0.1358
 1490W        W 2787   2.574   4.666   5.141 -0.3927  0.5527  0.0678
 1491W        W 2788   2.498   5.618   1.596  0.0497 -0.0662 -0.2823
 1492W        W 2789   3.520   3.512   0.764  0.2345  0.0048  0.0576
 1493W        W 2790   3.727   6.516   0.983  0.2950  0.0688  0.1980
 1494W        W 2791   4.626   7.467   4.986 -0.1584  0.0702  0.1449
 1495W        W 2792   6.878   5.440   3.156 -0.1448 -0.3006 -0.1574
 1496W        W 2793   5.682   3.721   4.673  0.1872 -0.3021  0.1801
 1497W        W 2794   4.192   6.115   3.090 -0.0642  0.1221  0.1877
 1498W        W 2795   7.560   3.737   3.137 -0.0094  0.0482  0.0155
 1499W        W 2796   4.792   2.546   4.562 -0.0521  0.0712  0.0624
 1500W        W 2797   4.947   0.890   3.561 -0.1178 -0.0082  0.0365
 1501W        W 2798   6.952   0.120   6.507  0.2093  0.1055  0.0270
 1502W        W 2799   7.429   6.574   4.697 -0.1610 -0.0427  0.2254
 1503W        W 2800   5.854   2.159   7.381  0.1258 -0.1831  0.0805
 1504W        W 2801   4.586   6.462   6.168  0.1420 -0.2494 -0.2272
 1505W        W 2802   0.024   3.529   6.578  0.1878 -0.0939 -0.0900
 1506W        W 2803   4.637   3.566   3.827 -0.1095  0.0100  0.0498
 1507W        W 2804   7.390   7.438   1.860 -0.3522  0.2554 -0.2123
 1508W        W 2805   2.338   3.272   2.602 -0.1988  0.2413 -0.0770
 1509W        W 2806   6.536   6.289   1.815  0.3816 -0.1447 -0.2523
 1510W        W 2807   6.076   5.501   2.447 -0.0558  0.0613  0.1679
 1511W        W 2808   2.276   3.108   6.553  0.0029 -0.1679 -0.3828
 1512W        W 2809   2.274   0.110   7.401  0.3910  0.1283 -0.0211
 1513W        W 2810   7.392   6.459   2.636  0.0199  0.1150  0.1211
 1514W        W 2811   3.427   1.736   3.570  0.0157 -0.1666 -0.3249
 1515W        W 2812   7.392   5.457   2.417  0.0997  0.2887 -0.0797
 1516W        W 2813   3.549   2.932   6.582  0.0426  0.0044  0.2306
 1517W        W 2814   7.237   3.144   4.546 -0.1999  0.0952 -0.0601
 1518W        W 2815   7.620   5.436   4.626 -0.0313 -0.0712 -0.0224
 1519W        W 2816   1.557   7.204   6.050  0.0598 -0.0888 -0.0353
 1520W        W 2817   3.837   6.660   7.379  0.1314 -0.0005 -0.3292
 1521W        W 2818   7.469   0.835   0.487  0.2107  0.1179 -0.1536
 1522W        W 2819   3.153   3.044   6.903  0.1141  0.1279  0.0738
 1523W        W 2820   1.371   3.617   7.575  0.2344  0.2363 -0.0640
 1524W        W 2821   3.863   1.240   5.430  0.1142  0.0982  0.3661
 1525W        W 2822   1.755   6.246   4.864  0.2421  0.0408  0.1179
 1526W        W 2823   0.259   7.082   1.408 -0.0511 -0.0535  0.1670
 1527W        W 2824   7.062   0.082   3.279  0.0810  0.2303  0.1357
 1528W        W 2825   7.569   5.442   3.702  0.1098  0.1598 -0.0167
 1529W        W 2826   2.882   1.026   6.541  0.4530  0.1729 -0.0989
 1530W        W 2827   2.588   5.620   6.013 -0.1320  0.0432  0.1222
 1531W        W 2828   5.764   3.840   5.536  0.0689  0.1231 -0.1240
 1532W        W 2829   2.402   3.531   1.440  0.1504  0.0299 -0.1690
 1533W        W 2830   0.875   2.550   7.510 -0.0272  0.1451 -0.0042
 1534W        W 2831   5.052   6.337   0.583  0.1194 -0.0971 -0.0667
 1535W        W 2832   6.667   5.620   1.241  0.0510 -0.1372  0.3406
 1536W        W 2833   5.034   6.584   5.866 -0.2056  0.0617 -0.0143
 1537W        W 2834   2.950   4.513   5.580 -0.1252  0.2357 -0.0608
 1538W        W 2835   3.585   6.101   5.297 -0.1355  0.3309  0.0074
 1539W        W 2836   7.470   4.458   5.990  0.2969 -0.1219  0.2982
 1540W        W 2837   0.377   4.471   2.038  0.0247  0.0668  0.1903
 1541W        W 2838   2.401   4.247   6.836 -0.3636  0.0927 -0.2662
 1542W        W 2839   0.283   6.513   3.413 -0.2811  0.0115 -0.2442
 1543W        W 2840   2.239   3.614   6.265 -0.0882 -0.0582  0.0636
 1544W        W 2841   3.168   6.726   4.546  0.2949  0.3138  0.0229
 1545W        W 2842   3.218   4.215   1.341  0.2875  0.4940  0.0357
 1546W        W 2843   7.120   1.120   0.645 -0.0196 -0.1574  0.0872
 1547W        W 2844   6.654   0.503   6.660 -0.0796 -0.1261  0.2221
 1548W        W 2845   7.458   7.594   7.401  0.3025  0.2723 -0.0168
 1549W        W 2846   7.375   7.044   3.952  0.1013  0.0923 -0.1262
 1550W        W 2847   5.146   1.904   6.487 -0.0640 -0.1884  0.0402
 1551W        W 2848   3.782   4.021   1.446  0.0247  0.1122  0.1077
 1552W        W 2849   2.422   4.092   4.069  0.0109 -0.2563 -0.0093
 1553W        W 2850   0.188   1.551   1.054  0.1928 -0.0601 -0.1547
 1554W        W 2851   7.271   5.704   3.360  0.4674  0.1847 -0.0001
 1555W        W 2852   0.024   2.654   0.114  0.2086 -0.1099  0.1037
 1556W        W 2853   1.888   5.184   5.457 -0.0968 -0.2013 -0.2430
 1557W        W 2854   3.184   0.905   4.018  0.0089  0.2681  0.1648
 1558W        W 2855   1.126   4.390   0.881 -0.2316  0.1191 -0.1321
 1559W        W 2856   1.621   2.804   7.283 -0.3164 -0.0605 -0.0537
 1560W        W 2857   4.575   4.069   5.925 -0.0236 -0.3039  0.1333
 1561W        W 2858   2.182   3.092   3.662 -0.2367 -0.1664  0.0255
 1562W        W 2859   1.132   2.292   1.601 -0.0472 -0.1861  0.2104
 1563W        W 2860   3.829   6.788   2.137  0.0652  0.0602 -0.3496
 1564W        W 2861   2.893   6.935   4.973  0.1544  0.4644  0.0930
 1565W        W 2862   5.961   3.426   2.628  0.1195  0.2277 -0.0622
 1566W        W 2863   7.336   1.515   1.009  0.0581  0.2997  0.3576
 1567W        W 2864   4.995   2.309   3.874  0.0005  0.0134  0.2885
 1568W        W 2865   3.356   4.698   2.342 -0.0124  0.7166  0.1314
 1569W        W 2866   1.385   5.420   2.202  0.2667 -0.0569 -0.2454
 1570W        W 2867   6.125   5.507   6.996  0.2065 -0.1058  0.3870
 1571W        W 2868   6.614   5.633   0.094 -0.2043 -0.1641  0.3024
 1572W        W 2869   0.874   4.046   1.162  0.2400  0.2141 -0.2176
 1573W        W 2870   3.850   6.969   5.126 -0.2442  0.0560 -0.3355
 1574W        W 2871   2.101   4.668   2.725  0.4422  0.1653  0.3528
 1575W        W 2872   2.468   1.841   6.141  0.2250 -0.3287 -0.2741
 1576W        W 2873   6.498   6.268   3.962  0.1677  0.1758 -0.1688
 1577W        W 2874   6.791   3.604   3.780 -0.3148  0.0669  0.0472
 1578W        W 2875   3.612   0.710   3.775  0.1441  0.1192 -0.0703
 1579W        W 2876   4.371   0.420   5.632  0.0419  0.1816 -0.1960
 1580W        W 2877   6.892   6.442   2.081  0.1268  0.2102  0.0161
 1581W        W 2878   2.347   2.966   1.418  0.2224  0.0382 -0.0023
 1582W        W 2879   2.713   2.899   2.846 -0.0195  0.2454  0.0950
 1583W        W 2880   2.658   5.286   4.366  0.2568  0.1098 -0.1157
 1584W        W 2881   7.111   6.064   1.708  0.2629 -0.2525  0.0866
 1585W        W 2882   5.052   0.316   7.534  0.0362 -0.3262  0.2972
 1586W        W 2883   3.925   5.692   3.646 -0.1673  0.1395  0.0157
 1587W        W 2884   4.276   4.275   6.835 -0.6331  0.1571  0.1503
 1588W        W 2885   2.096   4.553   5.977 -0.1556  0.2991  0.0252
 1589W        W 2886   7.348   0.546   3.357 -0.0744  0.0190 -0.2104
 1590W        W 2887   5.181   1.938   0.655  0.0046 -0.0487 -0.2427
 1591W        W 2888   0.423   7.125   4.479 -0.0712 -0.1028 -0.1011
 1592W        W 2889   7.237   6.999   5.884  0.0426 -0.0747 -0.0670
 1593W        W 2890   5.908   6.457   7.014 -0.1283  0.1191 -0.1847
 1594W        W 2891   5.095   5.187   3.632  0.0338  0.2655  0.2126
 1595W        W 2892   3.073   2.898   6.180  0.0788  0.1163  0.2148
 1596W        W 2893   5.430   4.730   5.260 -0.0467 -0.1862 -0.0669
 1597W        W 2894   3.249   7.494   5.129  0.1843  0.1826 -0.1448
 1598W        W 2895   7.396   3.654   2.256  0.0030  0.3186 -0.2812
 1599W        W 2896   6.681   3.421   7.384  0.0824 -0.2560 -0.0535
 1600W        W 2897   0.019   4.385   7.304 -0.0496 -0.2402 -0.1556
 1601W        W 2898   6.653   4.728   6.091  0.1801 -0.1192  0.0430
 1602W        W 2899   2.806   2.738   5.749 -0.1814  0.2081 -0.2361
 1603W        W 2900   7.165   4.138   3.083  0.1172 -0.0374  0.1780
 1604W        W 2901   0.756   6.566   6.317 -0.2512  0.3385 -0.1829
 1605W        W 2902   5.497   1.892   1.107  0.2557  0.0634 -0.0447
 1606W        W 2903   5.117   7.465   7.408 -0.0887  0.2046 -0.0727
 1607W        W 2904   4.833   7.597   4.045  0.0943  0.1987 -0.0820
 1608W        W 2905   7.239   1.708   4.726  0.1030 -0.0836 -0.0650
 1609W        W 2906   1.473   4.213   2.739  0.0808 -0.1318  0.1410
 1610W        W 2907   7.591   7.388   2.664  0.1734 -0.1175  0.0569
 1611W        W 2908   6.377   5.461   2.850 -0.3417 -0.2364  0.0402
 1612W        W 2909   2.367   7.004   6.236 -0.0472 -0.1380 -0.0169
 1613W        W 2910   1.078   4.046   1.659  0.0069 -0.3960 -0.3196
 1614W        W 2911   7.016   3.422   2.449  0.2671  0.0595 -0.2514
 1615W        W 2912   6.982   0.975   6.700 -0.2484  0.0442 -0.0059
 1616W        W 2913   0.404   3.802   2.892 -0.2640  0.1397 -0.0891
 1617W        W 2914   2.395   5.125   3.943  0.0084  0.1698  0.1614
 1618W        W 2915   6.779   6.588   4.251  0.0750 -0.2520 -0.0091
 1619W        W 2916   4.474   3.865   1.286 -0.0766  0.1936  0.1629
 1620W        W 2917   0.065   6.262   5.558 -0.1717  0.0439  0.0038
 1621W        W 2918   6.551   6.253   7.210  0.2776 -0.2590  0.1000
 1622W        W 2919   0.127   5.579   4.184 -0.0585  0.1955 -0.0602
 1623W        W 2920   5.313   0.194   1.726 -0.2023  0.0531  0.0729
 1624W        W 2921   4.362   5.355   4.877 -0.3763 -0.1184  0.0900
 1625W        W 2922   6.005   3.864   4.270 -0.0432 -0.0691  0.1544
 1626W        W 2923   6.427   4.402   6.982 -0.1114  0.0253 -0.1012
 1627W        W 2924   1.464   6.081   0.695 -0.0294 -0.1832 -0.1734
 1628W        W 2925   2.481   5.453   4.784 -0.0601  0.1789  0.0049
 1629W        W 2926   6.195   2.692   3.306 -0.3031 -0.4166  0.0352
 1630W        W 2927   0.840   3.962   6.121 -0.4941  0.0914 -0.2765
 1631W        W 2928   5.659   5.051   4.184 -0.0283 -0.0562  0.0225
 1632W        W 2929   4.773   3.446   1.209 -0.2145  0.0163 -0.1460
 1633W        W 2930   5.957   0.649   1.108  0.0997 -0.3811 -0.1447
 1634W        W 2931   4.264   3.707   2.509 -0.1827  0.4987 -0.0844
 1635W        W 2932   0.363   2.373   5.606 -0.1458  0.1154  0.0216
 1636W        W 2933   5.263   3.973   7.045 -0.2642 -0.0475  0.0066
 1637W        W 2934   0.862   4.764   6.367 -0.0871  0.3720 -0.2638
 1638W        W 2935   4.298   2.201   6.458 -0.0256  0.0662 -0.0856
 1639W        W 2936   7.218   7.374   1.087 -0.2180  0.0608  0.1372
 1640W        W 2937   0.303   5.774   1.772  0.4148  0.4958 -0.2065
 1641W        W 2938   1.099   4.335   5.114  0.4194  0.1008  0.1794
 1642W        W 2939   5.579   3.075   1.434  0.0151 -0.1091  0.1379
 1643W        W 2940   7.390   3.399   1.757 -0.1311 -0.1655 -0.1138
 1644W        W 2941   2.648   3.770   3.201  0.2034  0.1797  0.1395
 1645W        W 2942   4.950   6.324   4.256  0.1194 -0.1097 -0.1840
 1646W        W 2943   7.619   7.210   0.029 -0.1414 -0.0844  0.0423
 1647W        W 2944   4.727   5.374   7.613 -0.0222  0.0238 -0.1638
 1648W        W 2945   3.293   1.462   6.082  0.2737 -0.3455  0.2425
 1649W        W 2946   1.636   4.388   6.155  0.0370  0.0482  0.1107
 1650W        W 2947   7.572   2.175   6.324 -0.0452  0.0993 -0.2251
 1651W        W 2948   0.094   7.038   3.472 -0.0499 -0.0578  0.1946
 1652W        W 2949   3.087   3.908   3.438  0.2550  0.2346  0.0603
 1653W        W 2950   6.814   5.880   2.989 -0.0010  0.0188 -0.2160
 1654W        W 2951   0.720   3.651   4.675 -0.2021 -0.0565 -0.3084
 1655W        W 2952   4.636   6.544   6.657 -0.1910 -0.0765 -0.1397
 1656W        W 2953   5.416   2.214   1.595 -0.0993  0.0977 -0.2247
 1657W        W 2954   0.475   0.638   3.883  0.1413 -0.0371 -0.2625
 1658W        W 2955   5.059   6.489   5.118 -0.2886 -0.2136  0.2828
 1659W        W 2956   2.704   2.110   2.929 -0.1564  0.1203  0.0221
 1660W        W 2957   7.251   3.575   4.068 -0.2164  0.0898  0.0116
 1661W        W 2958   4.685   6.852   5.123 -0.1644  0.0880  0.0145
 1662W        W 2959   6.343   0.251   0.213 -0.0890 -0.1719  0.2521
 1663W        W 2960   0.926   1.069   3.259  0.1087  0.1145  0.2544
 1664W        W 2961   3.001   6.843   5.841 -0.2685 -0.0852 -0.1365
 1665W        W 2962   6.739   4.927   0.493 -0.1831  0.1817 -0.1363
 1666W        W 2963   4.445   5.355   2.294  0.1834 -0.0185 -0.0250
 1667W        W 2964   1.807   3.977   1.034 -0.0132 -0.1083 -0.3742
 1668W        W 2965   0.647   5.945   5.798  0.0796 -0.1832  0.0058
 1669W        W 2966   5.346   1.995   5.602  0.0802  0.1570  0.0265
 1670W        W 2967   2.941   3.518   0.662 -0.3767 -0.0350 -0.0339
 1671W        W 2968   6.440   6.969   6.575 -0.3095  0.1777  0.0313
 1672W        W 2969   7.258   3.327   0.898  0.4118  0.1009  0.0360
 1673W        W 2970   3.539   3.261   2.921 -0.0874  0.5100  0.1198
 1674W        W 2971   2.411   3.087   5.642  0.1336  0.2241  0.0630
 1675W        W 2972   7.263   5.028   0.598  0.0583  0.1690  0.0273
 1676W        W 2973   4.445   2.371   0.244  0.0779 -0.3203 -0.0033
 1677W        W 2974   3.564   1.490   4.564 -0.1080 -0.0586 -0.1146
 1678W        W 2975   2.378   5.451   6.895 -0.1547  0.1539 -0.1577
 1679W        W 2976   5.485   5.054   0.585  0.1579  0.1610  0.0447
 1680W        W 2977   5.194   5.712   5.577 -0.3419 -0.2751 -0.0488
 1681W        W 2978   5.816   1.878   5.943  0.1895  0.0995  0.0923
 1682W        W 2979   4.610   3.440   7.059 -0.2466 -0.0080 -0.1253
 1683W        W 2980   3.518   1.535   5.078 -0.2865 -0.4810 -0.0416
 1684W        W 2981   6.356   4.433   2.941 -0.1108 -0.0323  0.0930
 1685W        W 2982   1.682   5.903   1.101 -0.2433  0.1049 -0.0547
 1686W        W 2983   1.757   3.395   3.610 -0.0029  0.1244  0.0122
 1687W        W 2984   6.383   4.527   5.745  0.0926 -0.0931  0.0555
 1688W        W 2985   2.809   0.679   3.717 -0.1272  0.1607  0.4595
 1689W        W 2986   0.289   3.566   0.259 -0.3880  0.0498 -0.0328
 1690W        W 2987   5.499   6.149   0.532 -0.0620 -0.1542 -0.2482
 1691W        W 2988   5.432   2.266   5.196 -0.1346 -0.1092 -0.0017
 1692W        W 2989   4.486   3.293   1.642  0.3001  0.0522 -0.1429
 1693W        W 2990   7.243   3.465   5.560 -0.1102  0.2713  0.3083
 1694W        W 2991   0.070   0.366   1.658 -0.0150 -0.0037 -0.2838
 1695W        W 2992   1.884   6.296   5.759 -0.0972  0.1540  0.0432
 1696W        W 2993   5.305   1.467   0.162  0.0315 -0.0307  0.0519
 1697W        W 2994   3.366   2.389   4.384  0.3414 -0.2129  0.3039
 1698W        W 2995   1.109   2.613   2.596 -0.1803 -0.5000  0.0099
 1699W        W 2996   2.615   5.133   6.489  0.2390 -0.0965 -0.1325
 1700W        W 2997   6.321   3.831   7.619 -0.0332  0.2999  0.0666
 1701W        W 2998   6.616   1.446   2.630 -0.2400  0.5796 -0.2015
 1702W        W 2999   0.373   5.845   7.609 -0.1064 -0.1173 -0.2713
 1703W        W 3000   1.073   4.588   7.366  0.0134 -0.0655  0.1554
 1704W        W 3001   6.487   3.201   1.551 -0.0489  0.0567  0.1602
 1705W        W 3002   6.215   3.806   6.190 -0.0465  0.1854 -0.1313
 1706W        W 3003   3.203   3.890   1.803  0.0101  0.1181 -0.1764
 1707W        W 3004   5.842   2.671   0.501  0.0745  0.0551  0.0221
 1708W        W 3005   3.606   5.583   5.421 -0.0308 -0.3484  0.3935
 1709W        W 3006   3.305   2.714   3.535 -0.0510  0.1172  0.3822
 1710W        W 3007   3.472   5.878   4.377  0.1094  0.1155  0.0580
 1711W        W 3008   4.927   0.405   0.677  0.2990 -0.1779 -0.1433
 1712W        W 3009   7.424   7.541   4.052  0.0186  0.1450  0.0973
 1713W        W 3010   4.664   5.208   0.874 -0.1936 -0.1096  0.0979
 1714W        W 3011   0.023   6.188   1.613  0.2111  0.0846  0.1723
 1715W        W 3012   3.414   6.035   2.767  0.1684  0.1572  0.1070
 1716W        W 3013   1.998   6.525   3.398  0.0511  0.5076 -0.0883
 1717W        W 3014   0.894   6.916   7.166 -0.0749  0.0046  0.1478
 1718W        W 3015   3.317   3.758   1.353  0.0952 -0.1915 -0.0503
 1719W        W 3016   4.440   5.856   4.956 -0.3842  0.0872  0.2339
 1720W        W 3017   7.334   7.276   3.075  0.3998 -0.0577  0.3094
 1721W        W 3018   3.078   5.422   0.015  0.1483 -0.0540  0.0893
 1722W        W 3019   3.706   0.271   4.024  0.1679  0.1209 -0.0234
 1723W        W 3020   3.518   4.275   1.804 -0.0511  0.3036  0.2377
 1724W        W 3021   4.036   3.095   4.320 -0.0195 -0.0921 -0.0121
 1725W        W 3022   2.585   3.594   5.904  0.0331 -0.0592 -0.2381
 1726W        W 3023   5.750   5.859   6.715  0.1148 -0.0182  0.1250
 1727W        W 3024   4.641   6.197   2.229  0.0919  0.3988  0.0059
 1728W        W 3025   6.870   3.967   2.207  0.0880 -0.1910 -0.1226
 1729W        W 3026   0.861   6.450   6.956  0.1354  0.1308  0.2268
 1730W        W 3027   0.637   4.714   3.562  0.2172  0.1039  0.2664
 1731W        W 3028   5.361   4.107   4.708  0.1216  0.0913  0.1818
 1732W        W 3029   3.076   3.515   6.866  0.1425 -0.0837  0.0878
 1733W        W 3030   3.855   3.357   6.448 -0.0320  0.3453 -0.0624
 1734W        W 3031   3.627   3.371   4.204 -0.3720  0.1240  0.0580
 1735W        W 3032   5.719   7.431   6.752  0.1444 -0.0119 -0.0937
 1736W        W 3033   3.583   7.118   3.761  0.1774 -0.3994 -0.1437
 1737W        W 3034   7.136   0.028   2.781 -0.0521 -0.1572  0.3648
 1738W        W 3035   4.828   3.056   3.836  0.2945  0.3945 -0.1738
 1739W        W 3036   0.614   6.915   3.254 -0.3953 -0.0542 -0.0481
 1740W        W 3037   7.104   6.054   0.362  0.0365 -0.2441  0.1865
 1741W        W 3038   4.866   2.448   6.473  0.1516 -0.2922  0.0352
 1742W        W 3039   2.947   2.715   0.261  0.0858 -0.2999 -0.1684
 1743W        W 3040   7.131   4.451   3.753  0.0318 -0.4881 -0.2927
 1744W        W 3041   5.793   2.947   2.942 -0.2142  0.4039 -0.1994
 1745W        W 3042   3.677   5.817   2.362  0.1950 -0.1106 -0.0934
 1746W        W 3043   3.527   5.990   7.064 -0.1421 -0.1053  0.0774
 1747W        W 3044   0.074   1.842   2.950  0.0225  0.1568 -0.0285
 1748W        W 3045   0.987   2.630   3.607  0.3950 -0.0243  0.2089
 1749W        W 3046   5.270   3.825   6.416  0.1157  0.0796 -0.2999
 1750W        W 3047   6.623   6.853   1.867  0.2038  0.2082  0.2352
 1751W        W 3048   2.884   4.689   0.643 -0.0402 -0.0280  0.1040
 1752W        W 3049   5.835   1.477   1.044 -0.2659 -0.3004  0.0105
 1753W        W 3050   2.909   6.015   1.189  0.1188 -0.2388 -0.0516
 1754W        W 3051   5.605   0.992   1.390 -0.1217  0.1797  0.1938
 1755W        W 3052   2.690   2.415   6.289  0.2709 -0.1060 -0.2809
 1756W        W 3053   6.372   7.417   5.802  0.3698 -0.2667  0.0068
 1757W        W 3054   6.520   4.091   3.872  0.0327 -0.0093 -0.2132
 1758W        W 3055   0.258   4.817   7.474  0.1377  0.1644  0.2043
 1759W        W 3056   5.628   6.139   3.210  0.1368 -0.1283  0.0443
 1760W        W 3057   2.340   2.090   6.595 -0.1339 -0.3252 -0.0860
 1761W        W 3058   0.477   2.843   7.489  0.0790 -0.1836  0.1366
 1762W        W 3059   5.437   2.739   0.869 -0.1773 -0.1049 -0.0745
 1763W        W 3060   0.148   3.700   5.373  0.2444  0.4228  0.2811
 1764W        W 3061   3.862   1.170   4.836  0.0368  0.2357  0.2782
 1765W        W 3062   3.623   4.170   6.152  0.0131 -0.2209  0.2253
 1766W        W 3063   4.850   0.280   5.802  0.0261 -0.1273 -0.1096
 1767W        W 3064   3.105   0.246   7.175 -0.0218  0.0878 -0.3172
 1768W        W 3065   3.497   0.215   5.537  0.0309  0.0360  0.5505
 1769W        W 3066   5.367   1.417   1.271  0.1592  0.0883  0.2548
 1770W        W 3067   4.110   7.183   7.000  0.3000  0.0473  0.0129
 1771W        W 3068   7.617   1.114   7.239  0.2270  0.1005  0.1584
 1772W        W 3069   2.827   7.516   7.524  0.0530  0.1713 -0.3719
 1773W        W 3070   2.163   6.061   0.344  0.0505 -0.1744 -0.0977
 1774W        W 3071   2.371   2.118   4.292  0.0789 -0.0018  0.0560
 1775W        W 3072   5.191   5.436   5.975  0.2820  0.1788 -0.1353
 1776W        W 3073   1.832   6.777   5.606 -0.2632 -0.2101 -0.2728
 1777W        W 3074   1.568   6.117   3.974  0.0220 -0.1891  0.0833
 1778W        W 3075   5.448   5.081   6.282 -0.2324 -0.0689  0.1413
 1779W        W 3076   3.092   4.066   4.756 -0.0169  0.1138  0.1738
 1780W        W 3077   0.427   5.843   7.124 -0.1998  0.1543  0.0594
 1781W        W 3078   5.697   3.638   1.498 -0.1031  0.1338 -0.0815
 1782W        W 3079   5.800   4.869   3.638  0.3743  0.4288  0.0235
 1783W        W 3080   3.523   1.594   4.069 -0.2156 -0.2435  0.1255
 1784W        W 3081   6.199   4.676   0.229 -0.0539 -0.0578  0.0611
 1785W        W 3082   4.216   6.576   0.191  0.2441  0.1589 -0.0685
 1786W        W 3083   1.654   3.264   6.550 -0.1182 -0.0390 -0.3171
 1787W        W 3084   6.447   3.509   5.048 -0.1660 -0.0665 -0.2854
 1788W        W 3085   6.109   4.195   5.356 -0.0157 -0.0715  0.0523
 1789W        W 3086   4.384   4.078   1.787  0.1854 -0.1151  0.1691
 1790W        W 3087   5.115   4.954   5.814 -0.3469 -0.1970  0.1557
 1791W        W 3088   6.728   3.016   0.000 -0.2988  0.1440 -0.0115
 1792W        W 3089   6.834   2.826   6.303 -0.1237 -0.1366 -0.0375
 1793W        W 3090   3.615   1.044   4.267  0.0529  0.0118  0.1850
 1794W        W 3091   5.475   2.591   4.034 -0.0748 -0.2051 -0.0372
 1795W        W 3092   0.345   3.405   5.009  0.1380 -0.1068  0.0003
 1796W        W 3093   0.756   4.935   4.536 -0.1741  0.3772  0.2314
 1797W        W 3094   0.493   5.360   0.421 -0.0462 -0.0593  0.2095
 1798W        W 3095   0.638   7.022   4.948 -0.0926 -0.2983 -0.1039
 1799W        W 3096   0.827   3.834   3.230  0.2085  0.1120 -0.0997
 1800W        W 3097   4.790   2.035   4.685  0.0338 -0.0448 -0.1590
 1801W        W 3098   4.990   1.044   6.315  0.1713  0.1497 -0.1200
 1802W        W 3099   5.080   4.610   0.189 -0.0171 -0.1838 -0.4489
 1803W        W 3100   0.181   2.674   0.598  0.0024  0.1899 -0.4819
 1804W        W 3101   1.592   3.711   0.396 -0.1363 -0.0464 -0.0104
 1805W        W 3102   4.090   0.952   5.958  0.1435 -0.0292 -0.0894
 1806W        W 3103   1.879   3.727   7.297 -0.0304  0.0131 -0.3844
 1807W        W 3104   1.819   4.137   4.324 -0.0402  0.0491  0.0036
 1808W        W 3105   4.398   2.894   5.969 -0.2037  0.1169  0.0654
 1809W        W 3106   6.155   0.247   2.457 -0.1340  0.2065 -0.2254
 1810W        W 3107   0.040   2.222   1.478  0.2554 -0.0728 -0.1544
 1811W        W 3108   7.413   3.046   2.170  0.0538 -0.0280  0.1016
 1812W        W 3109   2.532   7.179   4.731  0.2225  0.0352 -0.2519
 1813W        W 3110   5.669   7.312   0.951 -0.2087  0.0322  0.1178
 1814W        W 3111   3.721   2.064   3.905  0.1232  0.4119 -0.2188
 1815W        W 3112   3.721   2.023   4.954 -0.2842  0.0972 -0.0085
 1816W        W 3113   0.810   4.268   6.506 -0.3879 -0.4175 -0.0643
 1817W        W 3114   7.592   2.745   5.612  0.0824  0.1033 -0.0978
 1818W        W 3115   3.440   3.705   4.905 -0.1534 -0.0325  0.0968
 1819W        W 3116   6.393   2.118   4.843  0.0141 -0.2485 -0.1931
 1820W        W 3117   0.887   4.959   2.299  0.2017  0.2315  0.0061
 1821W        W 3118   5.222   1.665   6.091  0.1450  0.0644  0.3223
 1822W        W 3119   3.653   0.296   3.488  0.5356  0.1634 -0.2450
 1823W        W 3120   5.099   4.917   2.518  0.1266  0.3384 -0.0284
 1824W        W 3121   7.182   6.350   7.260  0.0224 -0.1428  0.1833
 1825W        W 3122   1.963   6.271   7.525 -0.0542 -0.2669 -0.0469
 1826W        W 3123   4.100   2.491   7.195  0.1935 -0.2808  0.1759
 1827W        W 3124   3.793   7.128   1.339 -0.1423 -0.0760  0.1168
 1828W        W 3125   4.705   5.975   3.206 -0.0499 -0.0179 -0.0243
 1829W        W 3126   0.545   0.544   2.498 -0.1155 -0.2164  0.0818
 1830W        W 3127   7.194   2.834   0.207 -0.1760  0.1808  0.0332
 1831W        W 3128   7.247   5.657   4.096  0.0901 -0.1451 -0.2653
 1832W        W 3129   2.908   0.063   4.328  0.1250  0.3932  0.1855
 1833W        W 3130   1.916   2.537   3.592  0.1007 -0.0384  0.1652
 1834W        W 3131   5.690   6.177   5.569 -0.1242  0.3357 -0.1740
 1835W        W 3132   5.790   2.169   6.763 -0.1108 -0.0377 -0.1630
 1836W        W 3133   3.586   6.272   0.538  0.4645 -0.0520 -0.0786
 1837W        W 3134   0.973   4.576   0.316 -0.2186 -0.0350  0.0463
 1838W        W 3135   2.432   6.356   2.269 -0.6504  0.0076 -0.0437
 1839W        W 3136   7.454   6.659   2.192  0.1235  0.0081 -0.0286
 1840W        W 3137   6.314   6.601   4.398 -0.1110  0.1238 -0.2794
 1841W        W 3138   7.175   3.399   2.938  0.2582 -0.2155 -0.1369
 1842W        W 3139   4.343   3.176   6.436  0.2122  0.0015 -0.1346
 1843W        W 3140   1.365   3.501   6.223 -0.2440 -0.1314 -0.0278
 1844W        W 3141   1.941   6.741   7.557  0.1290 -0.4425  0.0224
 1845W        W 3142   2.323   6.872   7.205 -0.1465  0.1975 -0.0338
 1846W        W 3143   0.809   2.948   2.846  0.0613 -0.2880 -0.2799
 1847W        W 3144   6.470   3.364   0.349  0.1908  0.0653  0.0399
 1848W        W 3145   4.560   7.527   4.475  0.2732 -0.0031 -0.0036
 1849W        W 3146   3.425   2.549   4.942 -0.2428 -0.3645 -0.2525
 1850W        W 3147   1.407   7.240   7.238 -0.3323 -0.0227  0.3092
 1851W        W 3148   0.127   0.268   3.637  0.2000  0.2076 -0.1567
 1852W        W 3149   0.748   2.668   7.029  0.1913 -0.0060 -0.4752
 1853W        W 3150   6.071   2.293   6.127 -0.1495 -0.2930  0.0002
 1854W        W 3151   4.142   6.580   3.377  0.0763  0.0306  0.1441
 1855W        W 3152   0.515   2.537   2.710  0.0333  0.4077 -0.1667
 1856W        W 3153   4.911   7.387   6.914  0.1430  0.2794  0.2765
 1857W        W 3154   0.436   7.297   3.679  0.1320  0.1689  0.0185
 1858W        W 3155   5.973   2.114   3.553  0.0467 -0.1400  0.1751
 1859W        W 3156   5.900   4.256   4.686 -0.0046  0.0719 -0.2217
 1860W        W 3157   3.624   6.364   2.331  0.2064 -0.3967  0.3222
 1861W        W 3158   6.171   2.494   7.137  0.1840 -0.2845  0.1001
 1862W        W 3159   3.750   5.950   1.072 -0.2801 -0.1442 -0.3826
 1863W        W 3160   4.860   3.655   0.221 -0.0571 -0.1368  0.2482
 1864W        W 3161   7.098   4.682   6.337 -0.2359  0.3769 -0.1887
 1865W        W 3162   1.971   2.491   2.362  0.0647  0.2060 -0.0258
 1866W        W 3163   7.070   2.254   6.607  0.0440  0.1030  0.1627
 1867W        W 3164   1.091   3.026   7.210 -0.4828  0.0100  0.1530
 1868W        W 3165   6.615   1.857   5.663 -0.0620 -0.1366 -0.2061
 1869W        W 3166   3.391   6.746   0.542 -0.0796  0.1075 -0.1032
 1870W        W 3167   0.261   4.551   5.656  0.1743  0.0584  0.1382
 1871W        W 3168   5.527   4.453   1.386 -0.1314  0.1989 -0.0854
 1872W        W 3169   0.021   0.798   0.017 -0.0308  0.0032  0.0629
 1873W        W 3170   2.849   4.936   3.885  0.3684 -0.1328  0.1544
 1874W        W 3171   4.733   7.404   6.141 -0.2677  0.0439  0.0154
 1875W        W 3172   0.237   0.310   1.156 -0.4342 -0.0008 -0.1267
 1876W        W 3173   4.004   7.187   5.759 -0.3437  0.2627  0.1428
 1877W        W 3174   0.501   4.352   7.136 -0.0516 -0.0764  0.0207
 1878W        W 3175   4.408   0.808   7.438 -0.1448  0.2939  0.0895
 1879W        W 3176   5.917   3.891   2.423  0.0289  0.1296  0.2650
 1880W        W 3177   3.436   4.843   3.905 -0.1101  0.0337 -0.2682
 1881W        W 3178   7.306   5.947   6.604  0.0994 -0.0804  0.1801
 1882W        W 3179   3.995   6.027   2.642  0.1332 -0.0614  0.3690
 1883W        W 3180   2.837   3.407   3.587  0.1400 -0.0648  0.0481
 1884W        W 3181   4.550   5.010   3.616 -0.0079 -0.1681  0.1533
 1885W        W 3182   6.312   4.697   2.217 -0.1898  0.2378 -0.1028
 1886W        W 3183   1.396   4.328   2.067  0.0392  0.0382  0.1127
 1887W        W 3184   1.978   2.637   0.580 -0.1167 -0.0916  0.3160
 1888W        W 3185   3.630   3.011   0.070  0.0122  0.0576  0.2133
 1889W        W 3186   5.185   1.116   0.959 -0.1663  0.2388  0.1050
 1890W        W 3187   4.185   2.454   3.819  0.0317  0.0248 -0.0249
 1891W        W 3188   4.997   1.578   0.981  0.0166 -0.1804  0.2785
 1892W        W 3189   2.307   4.083   7.621 -0.1466 -0.0361 -0.0189
 1893W        W 3190   2.616   2.914   0.583  0.0525  0.1216  0.2460
 1894W        W 3191   6.046   4.191   5.897 -0.0581 -0.2794 -0.1079
 1895W        W 3192   6.841   7.175   1.542 -0.1329 -0.0210 -0.1643
 1896W        W 3193   6.370   6.959   5.603  0.0667  0.1143  0.2132
 1897W        W 3194   6.916   1.738   1.859  0.1962  0.0642  0.2813
 1898W        W 3195   4.059   3.912   2.117  0.0818  0.1099  0.2295
 1899W        W 3196   3.503   0.347   5.016 -0.3175  0.1577  0.2362
 1900W        W 3197   4.550   1.808   6.695 -0.3180 -0.0461 -0.1877
 1901W        W 3198   1.042   5.253   5.308 -0.1204 -0.5251 -0.0233
 1902W        W 3199   1.061   4.741   1.908 -0.1469  0.1647  0.2177
 1903W        W 3200   2.721   4.360   0.116 -0.2994 -0.4586 -0.0928
 1904W        W 3201   1.936   7.556   0.176  0.0405  0.3474  0.2925
 1905W        W 3202   5.994   6.190   1.832 -0.0922 -0.0809  0.0780
 1906W        W 3203   4.148   3.266   4.918  0.2165 -0.1092  0.3234
 1907W        W 3204   4.328   5.952   3.995 -0.0139 -0.2258 -0.3158
 1908W        W 3205   1.393   2.260   2.401 -0.1990 -0.3350  0.2271
 1909W        W 3206   6.679   4.798   2.696 -0.3311  0.0761 -0.3582
 1910W        W 3207   5.823   4.560   2.992  0.1518 -0.0237  0.1176
 1911W        W 3208   3.232   2.881   2.631 -0.0428  0.0003  0.0597
 1912W        W 3209   2.134   5.222   0.434  0.0672  0.0213 -0.0534
 1913W        W 3210   6.697   1.169   0.366 -0.0368 -0.4023  0.0254
 1914W        W 3211   1.799   4.100   5.721 -0.1124 -0.1308 -0.2377
 1915W        W 3212   1.948   4.982   0.033 -0.1818 -0.0495 -0.0266
 1916W        W 3213   6.265   0.588   6.946 -0.0979 -0.0831 -0.0530
 1917W        W 3214   7.082   3.868   2.615 -0.1129  0.1763  0.2471
 1918W        W 3215   1.680   6.575   0.768  0.1060 -0.1179 -0.0544
 1919W        W 3216   7.537   7.031   4.468 -0.1506 -0.0441 -0.3472
 1920W        W 3217   0.535   6.175   6.649 -0.0261  0.3267  0.0013
 1921W        W 3218   5.063   2.864   2.155 -0.0478 -0.2707 -0.1169
 1922W        W 3219   5.415   6.588   2.445 -0.0261 -0.0216 -0.1430
 1923W        W 3220   3.436   4.902   2.793 -0.1055  0.0985 -0.0689
 1924W        W 3221   4.122   4.806   1.106 -0.2178  0.1835 -0.1716
 1925W        W 3222   3.960   7.579   3.735 -0.4421 -0.3103 -0.1379
 1926W        W 3223   6.313   5.170   0.259 -0.2257  0.0945  0.1038
 1927W        W 3224   0.716   5.366   4.264  0.2960 -0.0065  0.3140
 1928W        W 3225   6.772   3.953   1.592  0.0318 -0.2332 -0.0700
 1929W        W 3226   2.737   4.282   1.391  0.0350 -0.1559  0.0957
 1930W        W 3227   4.792   6.075   5.846  0.0326  0.2964  0.0325
 1931W        W 3228   1.699   2.787   0.164  0.0975 -0.1078  0.2140
 1932W        W 3229   1.967   7.410   6.357  0.1575 -0.1120 -0.2620
 1933W        W 3230   1.451   5.582   0.792 -0.0787 -0.0477 -0.1840
 1934W        W 3231   0.010   4.022   4.864 -0.2440  0.0657  0.0563
 1935W        W 3232   5.776   6.401   7.590  0.2587  0.1875  0.0788
 1936W        W 3233   1.153   4.625   4.555  0.1496  0.0386 -0.4473
 1937W        W 3234   6.776   1.770   6.158 -0.2793  0.0162 -0.1274
 1938W        W 3235   4.167   7.046   7.464 -0.0766  0.4461 -0.0292
 1939W        W 3236   5.080   6.470   6.394  0.0425  0.2359  0.0108
 1940W        W 3237   2.799   5.798   6.933  0.0637 -0.2464 -0.0579
 1941W        W 3238   7.073   5.188   7.052  0.2148  0.2299 -0.0492
 1942W        W 3239   1.906   5.876   6.265  0.0984  0.1665  0.3193
 1943W        W 3240   2.339   3.329   7.390  0.3804 -0.3353 -0.0242
 1944W        W 3241   6.871   1.861   1.264 -0.1521  0.3236 -0.3009
 1945W        W 3242   2.433   7.001   4.234  0.2620  0.1019  0.0433
 1946W        W 3243   4.764   3.240   2.921  0.0607  0.0767 -0.2093
 1947W        W 3244   2.571   4.737   2.661  0.1725  0.2013 -0.0404
 1948W        W 3245   7.391   2.081   4.401  0.3688 -0.0842 -0.3510
 1949W        W 3246   3.738   6.591   6.378  0.2141  0.3362  0.1189
 1950W        W 3247   5.786   6.638   0.739 -0.0655 -0.3414 -0.2817
 1951W        W 3248   4.795   5.825   4.027  0.2475 -0.2833  0.0974
 1952W        W 3249   1.064   4.505   3.813 -0.1080  0.2396 -0.0232
 1953W        W 3250   3.996   7.177   2.770 -0.1457 -0.1565  0.2819
 1954W        W 3251   1.374   2.932   6.777  0.0952  0.4197 -0.1004
 1955W        W 3252   7.336   6.311   0.784  0.0709 -0.2073 -0.2480
 1956W        W 3253   0.974   6.778   2.777  0.3037 -0.0887  0.2131
 1957W        W 3254   1.168   4.378   3.243 -0.0789 -0.1551  0.2605
 1958W        W 3255   1.514   5.223   5.056  0.1924 -0.1520  0.2020
 1959W        W 3256   4.842   5.932   5.265  0.1219 -0.0072 -0.1586
 1960W        W 3257   6.817   6.527   7.531  0.0223 -0.2148 -0.0363
 1961W        W 3258   4.991   2.790   2.746  0.1055 -0.1583  0.1624
 1962W        W 3259   0.140   5.317   5.342 -0.0604 -0.2002 -0.0824
 1963W        W 3260   5.275   3.912   5.608 -0.1171  0.2936 -0.1476
 1964W        W 3261   5.455   4.289   6.429  0.0036 -0.3996 -0.1772
 1965W        W 3262   6.853   4.144   0.932  0.2275 -0.1953 -0.2127
 1966W        W 3263   1.439   5.967   6.734  0.1020  0.1266 -0.0993
 1967W        W 3264   0.214   3.473   2.108  0.2474  0.1369 -0.1582
 1968W        W 3265   6.357   5.919   3.173  0.2640 -0.2544  0.0202
 1969W        W 3266   5.712   5.250   1.009  0.1611  0.0253  0.0598
 1970W        W 3267   7.591   3.215   4.157 -0.2488 -0.2349  0.0614
 1971W        W 3268   4.503   3.636   3.169 -0.2708 -0.2083 -0.1818
 1972W        W 3269   5.729   7.032   2.008 -0.0009 -0.1139  0.1499
 1973W        W 3270   6.931   0.455   2.983 -0.0756  0.1487 -0.1704
 1974W        W 3271   1.948   2.313   3.098 -0.2351  0.0301 -0.2541
 1975W        W 3272   0.766   3.207   0.151  0.2011 -0.0370  0.0310
 1976W        W 3273   4.641   1.143   6.800 -0.1659 -0.0247  0.1487
 1977W        W 3274   7.113   7.586   6.981 -0.0994  0.1817  0.0641
 1978W        W 3275   1.162   6.273   4.818 -0.0601  0.0694 -0.2088
 1979W        W 3276   1.077   2.431   0.661  0.1217  0.2187 -0.0355
 1980W        W 3277   6.448   1.889   0.910  0.2619 -0.2449 -0.2081
 1981W        W 3278   7.178   2.821   4.154 -0.2668 -0.1227  0.1277
 1982W        W 3279   5.296   0.114   5.610  0.1018 -0.2751  0.3244
 1983W        W 3280   5.417   0.718   6.429  0.0909 -0.0901  0.0997
 1984W        W 3281   6.748   3.528   1.996 -0.2036 -0.2713  0.0010
 1985W        W 3282   0.932   4.256   2.818 -0.3650  0.2413 -0.4827
 1986W        W 3283   2.834   2.277   4.436 -0.1130  0.2719  0.0999
 1987W        W 3284   4.096   4.991   5.910  0.1722 -0.0579 -0.0603
 1988W        W 3285   4.573   2.597   7.408  0.0130  0.0490 -0.3968
 1989W        W 3286   3.614   6.821   5.813 -0.3706  0.1899  0.2186
 1990W        W 3287   7.017   1.782   7.454  0.1069 -0.0674 -0.1332
 1991W        W 3288   0.054   4.773   6.981 -0.0900  0.0007 -0.1935
 1992W        W 3289   7.071   7.279   7.350 -0.3176  0.1479  0.0392
 1993W        W 3290   5.392   2.087   7.243  0.0354  0.1230  0.4661
 1994W        W 3291   5.620   2.168   6.260 -0.5002  0.1928  0.0335
 1995W        W 3292   1.637   5.095   0.897  0.2118 -0.0738 -0.3066
 1996W        W 3293   0.128   6.984   1.916 -0.0429  0.0497 -0.3000
 1997W        W 3294   6.280   5.083   6.378  0.1041 -0.0940 -0.0038
 1998W        W 3295   5.618   4.544   6.046 -0.0350  0.0807 -0.0926
 1999W        W 3296   3.639   5.527   6.598  0.0227  0.0985  0.4429
 2000W        W 3297   6.347   4.081   1.342 -0.1796 -0.1410 -0.1004
 2001W        W 3298   6.119   2.474   2.766  0.0083 -0.4065  0.1851
 2002W        W 3299   6.567   6.742   2.649  0.1936 -0.3279 -0.1136
 2003W        W 3300   1.173   5.802   1.084 -0.0317  0.2085  0.1283
 2004W        W 3301   6.615   1.574   7.620 -0.2915  0.0403  0.2601
 2005W        W 3302   3.912   4.041   2.619  0.1267  0.0364 -0.2282
 2006W        W 3303   7.520   6.767   0.574  0.0290 -0.0845 -0.0101
 2007W        W 3304   3.679   5.829   0.359 -0.0210  0.0186  0.0274
 2008W        W 3305   0.557   5.633   5.162  0.2070 -0.0112  0.0282
 2009W        W 3306   4.900   2.998   7.370 -0.2258  0.0702 -0.2070
 2010W        W 3307   1.652   6.796   3.694 -0.3724  0.0936 -0.1602
 2011W        W 3308   3.335   5.837   0.864 -0.1154  0.2305 -0.1225
 2012W        W 3309   6.169   2.622   4.834 -0.1893  0.0574 -0.0032
 2013W        W 3310   3.446   4.879   3.333 -0.0267  0.1637  0.0991
 2014W        W 3311   2.264   0.685   5.418 -0.3238 -0.1450 -0.1070
 2015W        W 3312   4.034   1.671   4.786  0.0267 -0.2154  0.0681
 2016W        W 3313   2.788   5.415   5.185  0.1115  0.1378 -0.0200
 2017W        W 3314   6.500   4.043   5.796 -0.1325  0.0833  0.3668
 2018W        W 3315   3.260   7.023   6.686 -0.0178 -0.2041  0.1416
 2019W        W 3316   6.652   1.558   3.940  0.0232 -0.2956  0.0817
 2020W        W 3317   1.121   2.164   0.209 -0.0930 -0.1300 -0.0917
 2021W        W 3318   4.832   5.417   5.083  0.1663 -0.2026  0.0717
 2022W        W 3319   2.340   5.638   3.592 -0.3720  0.1997  0.2014
 2023W        W 3320   5.858   4.127   1.534 -0.0801  0.1829  0.1471
 2024W        W 3321   5.127   3.439   7.243  0.2234 -0.3811 -0.2890
 2025W        W 3322   2.887   0.110   6.644  0.3535  0.4635 -0.2116
 2026W        W 3323   0.066   4.909   1.790  0.0323 -0.0282 -0.5133
 2027W        W 3324   4.528   2.901   4.285 -0.1860  0.2939 -0.1468
 2028W        W 3325   1.992   5.965   3.793 -0.2640 -0.0959 -0.1819
 2029W        W 3326   3.858   5.191   0.238 -0.0365 -0.0680  0.0027
 2030W        W 3327   1.197   4.199   4.207  0.1743 -0.2148  0.1094
 2031W        W 3328   4.614   5.813   0.286 -0.0483 -0.1774 -0.0812
 2032W        W 3329   4.075   6.547   5.021 -0.0771 -0.2323  0.2728
 2033W        W 3330   0.001   6.196   7.015 -0.0256 -0.2099  0.0968
 2034W        W 3331   0.032   1.286   2.183  0.0681 -0.1872  0.0353
 2035W        W 3332   6.953   6.328   4.709  0.0310  0.2880  0.4375
 2036W        W 3333   7.336   3.219   0.428 -0.0081 -0.0200  0.0048
 2037W        W 3334   0.635   6.265   2.279  0.0252 -0.0805  0.0505
 2038W        W 3335   3.479   4.957   4.936 -0.1680  0.0252 -0.0841
 2039W        W 3336   4.604   2.625   5.578 -0.0650  0.1371 -0.0089
 2040W        W 3337   5.814   5.552   4.221 -0.0664 -0.1120  0.0767
 2041W        W 3338   3.538   4.084   4.538 -0.0314  0.1408  0.0222
 2042W        W 3339   2.834   1.165   3.515 -0.1076  0.1460  0.0203
 2043W        W 3340   0.417   4.434   0.564  0.3188 -0.1790  0.0538
 2044W        W 3341   0.351   7.508   3.242 -0.0736 -0.0639 -0.0207
 2045W        W 3342   4.784   7.277   5.391  0.1341  0.0586  0.0754
 2046W        W 3343   5.682   3.954   6.742  0.1152  0.2436  0.1418
 2047W        W 3344   5.419   5.440   3.320 -0.1842 -0.0736 -0.0367
 2048W        W 3345   7.030   3.749   7.175  0.4624  0.0778 -0.1103
 2049W        W 3346   3.599   5.532   7.555  0.0652  0.3255  0.0930
 2050W        W 3347   3.866   5.073   7.297  0.0079  0.1377  0.0049
 2051W        W 3348   5.425   3.539   5.913  0.0132  0.0830  0.0252
 2052W        W 3349   0.481   6.662   6.717 -0.0349 -0.1110 -0.3559
 2053W        W 3350   4.438   6.886   3.146  0.0390  0.0211  0.0886
 2054W        W 3351   4.615   0.813   5.913  0.1756 -0.0393 -0.1418
 2055W        W 3352   4.081   5.914   7.024 -0.0533 -0.0726  0.2566
 2056W        W 3353   5.741   4.796   1.748 -0.2216  0.0944  0.2650
 2057W        W 3354   3.748   4.650   5.177  0.0566  0.0428 -0.0487
 2058W        W 3355   1.760   2.498   0.952 -0.1232 -0.1242  0.0677
 2059W        W 3356   2.826   5.036   4.892 -0.0041 -0.0606 -0.1269
 2060W        W 3357   0.816   3.902   4.107  0.0819  0.0458  0.0082
 2061W        W 3358   1.681   2.715   4.156 -0.0403  0.0386 -0.1073
 2062W        W 3359   6.684   3.869   6.757 -0.1246 -0.1992 -0.1101
 2063W        W 3360   5.562   3.611   4.176 -0.0006  0.2856 -0.0312
 2064W        W 3361   6.443   4.245   6.238  0.1456 -0.2842  0.1109
 2065W        W 3362   0.525   1.242   0.753  0.0142  0.0779 -0.1411
 2066W        W 3363   7.222   3.136   6.410 -0.3079  0.1119 -0.1380
 2067W        W 3364   4.891   0.286   7.029  0.1096 -0.1229  0.0352
 2068W        W 3365   2.851   6.770   6.398 -0.2250 -0.4421  0.0796
 2069W        W 3366   5.418   6.731   1.214 -0.2115  0.1415  0.1313
 2070W        W 3367   6.905   7.236   0.685  0.0494 -0.1204  0.3642
 2071W        W 3368   2.722   5.537   2.826 -0.1971  0.2285  0.4749
 2072W        W 3369   6.857   1.943   4.531 -0.0588 -0.2361  0.2986
 2073W        W 3370   4.040   5.710   4.647 -0.2626  0.1655 -0.3482
 2074W        W 3371   5.570   6.627   1.780  0.1592 -0.2919  0.2730
 2075W        W 3372   5.020   4.236   6.728  0.1156  0.1961 -0.1449
 2076W        W 3373   0.492   5.627   4.620  0.1798  0.2072  0.1240
 2077W        W 3374   6.852   5.165   5.948  0.1898 -0.2476 -0.3006
 2078W        W 3375   3.449   6.528   4.953  0.0877  0.3276 -0.0713
 2079W        W 3376   6.451   2.432   4.396 -0.0032 -0.2340 -0.0272
 2080W        W 3377   6.771   3.865   6.196 -0.2738 -0.0866  0.1642
 2081W        W 3378   5.806   2.790   1.772 -0.2948  0.1874  0.0220
 2082W        W 3379   2.222   2.899   0.910  0.1366  0.2391 -0.0418
 2083W        W 3380   1.823   2.859   1.308 -0.1876  0.0986  0.0985
 2084W        W 3381   6.563   6.154   4.427 -0.2604  0.0800  0.2296
 2085W        W 3382   4.866   3.011   6.401  0.0787 -0.0218  0.0385
 2086W        W 3383   3.839   2.100   5.656  0.2129 -0.2645 -0.0693
 2087W        W 3384   6.874   2.938   7.153 -0.2171  0.1299  0.4512
 2088W        W 3385   6.093   7.297   7.239 -0.0728 -0.1039 -0.1980
 2089W        W 3386   4.232   3.238   2.346 -0.2055 -0.1181  0.0024
 2090W        W 3387   3.875   3.276   7.254 -0.2443  0.2054 -0.4123
 2091W        W 3388   5.350   2.403   6.682 -0.0003  0.1896  0.3401
 2092W        W 3389   4.364   5.243   5.446 -0.1408  0.2010  0.0228
 2093W        W 3390   2.285   6.471   5.529  0.3417  0.2735 -0.0560
 2094W        W 3391   4.054   5.145   1.457  0.0093 -0.2102  0.1890
 2095W        W 3392   6.850   4.456   1.432 -0.2455 -0.0285 -0.2215
 2096W        W 3393   1.930   5.153   2.841  0.1428 -0.0967 -0.1630
 2097W        W 3394   0.317   6.878   7.322  0.0868 -0.2643 -0.1319
 2098W        W 3395   1.318   4.896   1.231  0.1109  0.0031 -0.1877
 2099W        W 3396   6.420   1.444   1.180 -0.0196 -0.0981  0.0502
 2100W        W 3397   5.967   6.579   3.964 -0.0419 -0.0111  0.2102
 2101W        W 3398   0.806   6.629   5.230  0.2824  0.0152  0.2038
 2102W        W 3399   0.353   1.029   1.389 -0.2218  0.0127 -0.1894
 2103W        W 3400   2.569   7.170   3.786 -0.0591  0.0751  0.0502
 2104W        W 3401   5.770   2.347   3.169 -0.3856  0.1365 -0.4295
 2105W        W 3402   7.538   1.674   7.267  0.0793 -0.1675  0.1864
 2106W        W 3403   3.518   7.542   4.702 -0.0707 -0.4496  0.0069
 2107W        W 3404   5.257   4.890   4.443  0.2846  0.2714  0.0388
 2108W        W 3405   7.551   2.423   6.827 -0.3645  0.1604  0.1202
 2109W        W 3406   7.272   6.031   2.947  0.0108  0.1791 -0.1025
 2110W        W 3407   6.052   7.532   0.520 -0.2853  0.0142  0.3823
 2111W        W 3408   0.683   5.632   6.737 -0.0586  0.3401  0.5483
 2112W        W 3409   2.113   2.528   5.620 -0.0517 -0.0469 -0.2500
 2113W        W 3410   0.784   5.529   7.231 -0.1382  0.0219 -0.0603
 2114W        W 3411   4.624   4.723   1.030 -0.2866  0.1711 -0.0870
 2115W        W 3412   0.171   6.920   2.443 -0.0073  0.0972  0.0561
 2116W        W 3413   4.936   4.151   0.180 -0.0017 -0.0781  0.0187
 2117W        W 3414   2.588   4.907   2.202 -0.0652 -0.0739 -0.3088
 2118W        W 3415   6.787   3.068   2.871 -0.0380  0.1129  0.1836
 2119W        W 3416   5.706   7.505   1.852 -0.1389  0.0624  0.4887
 2120W        W 3417   7.012   4.219   6.598  0.1455  0.2141  0.0644
 2121W        W 3418   3.771   2.524   3.494 -0.0075 -0.1082 -0.0807
 2122W        W 3419   6.228   7.461   6.805  0.1208  0.1921 -0.1658
 2123W        W 3420   2.298   4.094   1.415 -0.0026 -0.0710 -0.1081
 2124W        W 3421   4.629   1.192   5.486 -0.1939 -0.1919 -0.2616
 2125W        W 3422   5.630   4.998   2.709 -0.1595  0.0792 -0.2560
 2126W        W 3423   2.941   3.938   0.383  0.0228 -0.1469  0.1431
 2127W        W 3424   6.459   5.185   2.424  0.2554  0.1754 -0.1361
 2128W        W 3425   5.511   2.748   5.321  0.0486  0.2931 -0.0178
 2129W        W 3426   4.753   6.510   5.469  0.4534 -0.5192 -0.2256
 2130W        W 3427   5.959   3.288   1.717 -0.3351 -0.1438  0.3218
 2131W        W 3428   6.592   1.706   3.423 -0.0247 -0.1371  0.0959
 2132W        W 3429   4.181   2.009   6.920 -0.4435  0.1569 -0.1424
 2133W        W 3430   0.973   5.814   2.972 -0.0527  0.2183 -0.2760
 2134W        W 3431   5.195   6.387   0.075 -0.2046  0.1409 -0.0239
 2135W        W 3432   0.546   5.886   2.698  0.0393  0.0262 -0.2363
 2136W        W 3433   2.263   0.923   5.001  0.1325 -0.1789 -0.2546
 2137W        W 3434   2.610   0.170   7.040  0.1574 -0.2060  0.2210
 2138W        W 3435   1.408   4.997   5.521 -0.3897 -0.1774 -0.1948
 2139W        W 3436   5.436   0.504   6.913 -0.1484 -0.1376  0.1114
 2140W        W 3437   0.404   2.352   7.205 -0.2212  0.2798  0.0947
 2141W        W 3438   5.191   4.400   4.370 -0.2325 -0.1237  0.3581
 2142W        W 3439   1.276   4.078   0.384 -0.1577 -0.2720  0.0361
 2143W        W 3440   2.413   5.199   2.561  0.0759  0.1286  0.0456
 2144W        W 3441   5.064   1.887   3.551 -0.1496  0.0679 -0.0599
 2145W        W 3442   1.643   3.837   3.424  0.1958  0.1656  0.0405
 2146W        W 3443   3.852   4.527   4.680 -0.1741  0.0217 -0.0786
 2147W        W 3444   6.217   5.310   7.439  0.0825 -0.1960 -0.1700
 2148W        W 3445   2.127   5.387   4.490 -0.1900  0.1560 -0.0665
 2149W        W 3446   5.507   6.342   4.170  0.0679 -0.3780  0.0965
 2150W        W 3447   3.969   3.547   3.019 -0.0408 -0.1533 -0.0803
 2151W        W 3448   4.148   4.882   5.027 -0.0131  0.1328 -0.1607
 2152W        W 3449   2.630   3.893   3.660 -0.0127 -0.2963 -0.3897
 2153W        W 3450   5.268   5.697   1.990  0.3565 -0.1428  0.2042
 2154W        W 3451   4.414   4.570   3.837 -0.2397  0.0665  0.1673
 2155W        W 3452   3.550   6.231   1.460  0.1137 -0.0427  0.0388
 2156W        W 3453   4.210   6.578   1.789  0.0907 -0.2175 -0.3004
 2157W        W 3454   3.596   3.920   3.649  0.0390 -0.5119  0.2571
 2158W        W 3455   2.295   5.446   3.015 -0.1602  0.0820 -0.0937
 2159W        W 3456   5.320   0.316   4.923  0.0355  0.1592 -0.0997
 2160W        W 3457   5.078   2.724   4.983  0.2072 -0.2684  0.0463
 2161W        W 3458   2.947   1.716   5.712 -0.0726 -0.1777  0.1301
 2162W        W 3459   3.330   1.137   4.765  0.0589  0.2336 -0.1451
 2163W        W 3460   0.811   4.889   0.683  0.0804  0.1127  0.2229
 2164W        W 3461   1.017   5.152   2.878  0.1892 -0.0133  0.2122
 2165W        W 3462   1.121   6.974   2.370  0.1760 -0.1415  0.1590
 2166W        W 3463   1.537   5.239   0.457 -0.2676  0.1144  0.1230
 2167W        W 3464   1.390   3.751   3.904 -0.1006 -0.1883  0.0416
 2168W        W 3465   7.289   7.020   4.914 -0.2149  0.0396 -0.0731
 2169W        W 3466   3.400   6.429   1.873 -0.1727 -0.2913 -0.4047
 2170W        W 3467   6.379   2.223   2.328  0.2395 -0.0328 -0.1725
 2171W        W 3468   0.516   1.842   7.142 -0.0981  0.1729  0.1270
 2172W        W 3469   4.821   1.477   6.419 -0.0248  0.0653 -0.2501
 2173W        W 3470   7.195   6.946   3.466  0.1478  0.0738 -0.0084
 2174W        W 3471   3.394   3.643   2.171  0.3093 -0.2039 -0.2019
 2175W        W 3472   2.910   4.358   6.450  0.1298  0.0255 -0.0713
 2176W        W 3473   0.706   4.426   4.193 -0.1303 -0.1749 -0.3291
 2177W        W 3474   6.103   6.005   2.273 -0.1651  0.0516  0.0367
 2178W        W 3475   1.771   4.773   6.419  0.2642 -0.2067  0.1304
 2179W        W 3476   6.520   1.853   2.946 -0.1038 -0.1582 -0.1113
 2180W        W 3477   4.075   3.880   0.944  0.3858  0.1402 -0.4556
 2181W        W 3478   3.451   7.079   1.929  0.3575 -0.1414  0.2141
 2182W        W 3479   4.866   6.016   2.707  0.0420 -0.1489 -0.3140
 2183W        W 3480   5.285   3.237   2.938 -0.0528  0.1176 -0.3061
 2184W        W 3481   6.987   5.825   5.180 -0.0466 -0.0858  0.0440
 2185W        W 3482   2.533   3.249   3.110 -0.1659  0.0751 -0.0914
 2186W        W 3483   3.481   3.342   1.649  0.3810  0.0696  0.0273
 2187W        W 3484   7.455   4.483   4.933  0.1075  0.2690 -0.1827
 2188W        W 3485   0.807   2.773   0.431 -0.0454  0.1721 -0.0190
 2189W        W 3486   4.087   0.371   3.220  0.1271  0.2877 -0.0236
 2190W        W 3487   6.948   3.600   5.153 -0.0141 -0.2615  0.0774
 2191W        W 3488   2.401   4.784   3.543 -0.2801  0.0450  0.0171
 2192W        W 3489   4.075   3.190   0.175  0.2840  0.3831  0.0075
 2193W        W 3490   3.877   2.804   2.206  0.0946  0.3941  0.2093
 2194W        W 3491   0.738   3.379   1.822  0.1313  0.3346 -0.0383
 2195W        W 3492   7.029   3.467   0.088 -0.0365  0.2596  0.0450
 2196W        W 3493   2.734   2.987   4.846 -0.0191  0.0711  0.3800
 2197W        W 3494   5.698   5.029   3.190  0.1238  0.3401  0.1210
 2198W        W 3495   0.376   1.940   7.587 -0.0407  0.1037 -0.0084
 2199W        W 3496   4.489   2.893   0.238 -0.1293 -0.2254  0.2258
 2200W        W 3497   6.005   2.222   4.087 -0.3729 -0.2467  0.1814
 2201W        W 3498   1.660   3.726   6.820  0.3612 -0.0096  0.4463
 2202W        W 3499   1.934   6.320   2.272 -0.0672  0.1376 -0.0217
 2203W        W 3500   0.731   1.629   1.833 -0.0942  0.0881  0.4238
 2204W        W 3501   2.607   3.756   4.814  0.4676 -0.1146 -0.1148
 2205W        W 3502   2.732   3.583   2.702 -0.0562 -0.0494  0.3175
 2206W        W 3503   3.050   1.575   4.820 -0.0165 -0.2114  0.2585
 2207W        W 3504   5.142   7.137   3.710 -0.0563 -0.1381 -0.2004
 2208W        W 3505   5.010   0.740   4.997 -0.1236  0.1575  0.1636
 2209W        W 3506   5.049   4.296   5.248  0.2807 -0.1069 -0.1494
 2210W        W 3507   6.910   6.882   3.884 -0.0341 -0.0627  0.0601
 2211W        W 3508   5.229   6.813   4.359  0.2656  0.1086 -0.0713
 2212W        W 3509   7.220   6.957   6.834 -0.0964 -0.0729  0.0770
 2213W        W 3510   2.073   2.668   1.770  0.1066  0.0572 -0.0834
 2214W        W 3511   7.076   0.461   6.917 -0.1241  0.2298 -0.3874
 2215W        W 3512   2.058   6.415   6.239 -0.0107 -0.2341 -0.1408
 2216W        W 3513   1.910   2.326   6.863  0.2314 -0.2365  0.4150
 2217W        W 3514   6.975   1.393   3.157  0.2631 -0.1226 -0.1641
 2218W        W 3515   2.667   5.226   3.453  0.0975  0.3030  0.0955
 2219W        W 3516   2.987   3.334   5.841 -0.4247  0.3294 -0.2029
 2220W        W 3517   6.997   4.314   1.887 -0.2499 -0.2063 -0.1363
 2221W        W 3518   6.811   5.138   6.524 -0.4515 -0.1125  0.0067
 2222W        W 3519   1.476   5.388   1.251  0.0807  0.0385 -0.2254
 2223W        W 3520   3.664   0.692   4.648  0.0020 -0.0914 -0.1572
 2224W        W 3521   4.529   3.278   0.553 -0.0656  0.3815  0.0315
 2225W        W 3522   7.161   1.787   6.962  0.0242  0.0387  0.0308
 2226W        W 3523   6.328   0.278   7.328 -0.0044  0.1118 -0.5629
 2227W        W 3524   6.915   3.058   1.815  0.1205  0.1102 -0.0654
 2228W        W 3525   3.027   7.327   4.700  0.0357 -0.1384 -0.0311
 2229W        W 3526   2.495   2.342   3.346 -0.2034  0.0759  0.2079
 2230W        W 3527   4.009   5.669   5.197  0.2477  0.0192  0.1431
 2231W        W 3528   3.846   5.158   5.345 -0.0905 -0.1584 -0.0134
 2232W        W 3529   1.540   5.603   1.718 -0.3180 -0.1093 -0.2395
 2233W        W 3530   6.548   0.675   0.926 -0.2186 -0.1205  0.0848
 2234W        W 3531   5.320   3.106   3.460  0.2029 -0.2827 -0.0938
 2235W        W 3532   6.140   6.288   3.564  0.3661  0.2035 -0.0474
 2236W        W 3533   5.110   6.860   5.483 -0.1545  0.3465 -0.2086
 2237W        W 3534   7.618   2.203   5.346  0.1009 -0.0350  0.1235
 2238W        W 3535   3.402   7.433   6.996  0.0796  0.0122  0.0859
 2239W        W 3536   2.876   7.135   5.464  0.3822  0.2678  0.1385
 2240W        W 3537   0.179   2.658   6.133 -0.1815  0.0335  0.0787
 2241W        W 3538   0.821   2.214   2.378  0.1018  0.1119  0.0505
 2242W        W 3539   7.583   7.202   6.160  0.0826 -0.2430  0.1922
 2243W        W 3540   2.947   2.434   4.892 -0.2600 -0.1623  0.1763
 2244W        W 3541   1.580   3.200   4.145  0.3152 -0.0975  0.0022
 2245W        W 3542   6.377   1.527   6.663 -0.1696 -0.2435  0.3710
 2246W        W 3543   1.097   3.998   5.594  0.1279 -0.0558 -0.1076
 2247W        W 3544   1.239   3.422   0.569 -0.0662 -0.1652  0.1384
 2248W        W 3545   1.514   4.915   2.144  0.0583  0.0859  0.1836
 2249W        W 3546   5.422   5.426   4.548  0.1926 -0.0618  0.1157
 2250W        W 3547   6.537   3.623   1.203  0.0719 -0.3249  0.0750
 2251W        W 3548   5.694   5.744   5.316  0.1091  0.1063  0.2754
 2252W        W 3549   5.169   7.472   5.100  0.0099  0.0374  0.0809
 2253W        W 3550   3.072   0.086   6.176  0.0971  0.1403 -0.1966
 2254W        W 3551   5.662   6.617   2.954  0.0484  0.0599  0.0411
 2255W        W 3552   3.216   3.305   6.439 -0.0855 -0.2511  0.0760
 2256W        W 3553   1.414   5.026   2.616 -0.5284  0.0366 -0.0833
 2257W        W 3554   0.565   5.737   2.199 -0.2178 -0.1056  0.0576
 2258W        W 3555   1.187   5.810   7.441  0.1349 -0.1865 -0.0760
 2259W        W 3556   4.406   6.316   2.689 -0.0842 -0.0729 -0.1888
 2260W        W 3557   3.066   3.923   2.442  0.2923  0.0895 -0.2094
 2261W        W 3558   1.613   4.259   6.697  0.0107 -0.1913  0.1992
 2262W        W 3559   0.345   2.314   6.590  0.1896  0.1248  0.1907
 2263W        W 3560   3.004   1.965   6.249  0.0866  0.0105  0.0860
 2264W        W 3561   5.393   0.755   7.375 -0.1759 -0.2114  0.0340
 2265W        W 3562   6.285   0.747   7.504  0.2937  0.1308  0.0603
 2266W        W 3563   7.456   0.812   6.826 -0.1234 -0.2495  0.1164
 2267W        W 3564   0.864   6.760   1.963  0.1432  0.1319  0.1851
 2268W        W 3565   7.026   6.782   2.446  0.1701 -0.0775 -0.0189
 2269W        W 3566   2.273   5.655   2.394 -0.2384 -0.2822 -0.0862
 2270W        W 3567   3.246   6.545   2.841  0.2497  0.1024 -0.3643
 2271W        W 3568   2.448   6.656   4.990  0.1187  0.4830  0.0494
 2272W        W 3569   3.708   7.211   7.315 -0.2948 -0.0101  0.3889
 2273W        W 3570   1.385   2.766   1.114 -0.0460  0.2072  0.2301
 2274W        W 3571   1.389   3.906   2.321  0.2008 -0.1451 -0.2220
 2275W        W 3572   3.527   2.963   1.008 -0.1918 -0.1712  0.0408
 2276W        W 3573   3.876   2.361   6.622  0.2273 -0.2130 -0.3057
 2277W        W 3574   6.100   1.916   6.478  0.4089 -0.2551  0.1581
 2278W        W 3575   2.713   3.599   5.363  0.0806 -0.2148 -0.1791
 2279W        W 3576   4.480   4.678   7.065  0.3949 -0.1375 -0.0281
 2280W        W 3577   5.593   1.933   3.859  0.1032 -0.1178  0.0014
 2281W        W 3578   0.466   1.877   2.312  0.1777 -0.0039  0.1023
 2282W        W 3579   1.741   2.948   4.658 -0.0944  0.0282  0.0370
 2283W        W 3580   1.547   6.302   3.515  0.2129  0.1218  0.1537
 2284W        W 3581   6.437   6.140   0.060  0.1103  0.1672 -0.1824
 2285W        W 3582   2.735   7.496   5.114 -0.1153 -0.1887  0.1297
 2286W        W 3583   5.618   5.952   4.620 -0.2289  0.1157  0.4389
 2287W        W 3584   0.519   5.681   6.241 -0.0980  0.0616 -0.0758
 2288W        W 3585   5.302   3.000   5.863 -0.1127  0.0162  0.1914
 2289W        W 3586   5.681   2.540   4.810  0.3120 -0.0703  0.0556
 2290W        W 3587   1.863   4.513   4.679 -0.2795 -0.1046 -0.1642
 2291W        W 3588   2.278   4.911   1.796 -0.3287 -0.1071  0.0945
 2292W        W 3589   7.072   1.563   0.313 -0.2683  0.1893  0.1319
 2293W        W 3590   1.600   6.391   1.650  0.1485  0.0567 -0.1954
 2294W        W 3591   0.524   2.994   1.294  0.1146  0.0001 -0.0667
 2295W        W 3592   0.110   4.050   2.138 -0.0758 -0.0587  0.0645
 2296W        W 3593   6.512   5.518   0.628 -0.0331 -0.0600  0.1602
 2297W        W 3594   2.404   4.880   4.714 -0.1936 -0.5111  0.0178
 2298W        W 3595   0.182   2.778   7.112  0.0433 -0.3054 -0.0678
 2299W        W 3596   5.030   6.983   7.516 -0.1121 -0.2000  0.2037
 2300W        W 3597   2.482   6.911   5.718  0.2556  0.1230 -0.0529
 2301W        W 3598   4.712   4.471   5.588 -0.1629 -0.1760  0.1659
 2302W        W 3599   4.953   3.730   5.983 -0.1267  0.0224  0.1251
 2303W        W 3600   6.944   1.209   1.693  0.2324  0.0371  0.0397
 2304W        W 3601   2.048   3.369   6.988 -0.1648 -0.1112 -0.0723
 2305W        W 3602   1.945   7.266   7.401 -0.2441 -0.1766  0.2356
 2306W        W 3603   2.506   6.280   7.053 -0.1209 -0.1767  0.2382
 2307W        W 3604   5.148   1.033   4.363 -0.2346 -0.1481  0.0916
 2308W        W 3605   6.694   7.455   1.151  0.2111 -0.1635 -0.0737
 2309W        W 3606   3.027   5.891   6.121  0.1394 -0.0923 -0.1721
 2310W        W 3607   3.004   0.218   4.785  0.1729 -0.1194 -0.1470
 2311W        W 3608   0.940   3.674   0.203  0.0176  0.0060 -0.2960
 2312W        W 3609   1.788   4.981   1.397  0.0893  0.5036  0.0922
 2313W        W 3610   0.456   1.641   3.178  0.0933  0.0665 -0.0808
 2314W        W 3611   4.550   4.408   0.001 -0.2894  0.2295  0.1236
 2315W        W 3612   0.063   3.239   5.619 -0.1976  0.0794  0.0119
 2316W        W 3613   5.889   3.090   7.065  0.0723 -0.1600 -0.4398
 2317W        W 3614   4.590   0.178   7.431  0.1330  0.0645  0.3503
 2318W        W 3615   2.370   6.239   4.742 -0.1659 -0.0127 -0.4454
 2319W        W 3616   2.500   6.119   0.846  0.1155  0.0946 -0.1079
 2320W        W 3617   2.737   5.653   6.502 -0.0019 -0.1508 -0.3326
 2321W        W 3618   1.765   3.906   6.380 -0.2431 -0.3574  0.3580
 2322W        W 3619   6.192   2.358   0.469 -0.1614 -0.0120 -0.3569
 2323W        W 3620   1.501   2.367   7.480 -0.1500 -0.0430 -0.1597
 2324W        W 3621   1.055   6.284   6.072 -0.4382  0.1030 -0.0966
 2325W        W 3622   5.390   6.845   3.340  0.1482  0.2238 -0.0226
 2326W        W 3623   6.721   5.190   7.528 -0.0638  0.0269 -0.1789
 2327W        W 3624   1.478   2.490   6.601  0.0812  0.0482 -0.0300
 2328W        W 3625   0.951   6.246   5.557 -0.1518 -0.1581  0.0839
 2329W        W 3626   3.868   6.208   1.927  0.3349 -0.0901  0.2391
 2330W        W 3627   2.150   6.451   1.862  0.2570  0.2778  0.4130
 2331W        W 3628   4.735   0.800   4.552  0.0275  0.3007 -0.2775
 2332W        W 3629   0.104   0.899   3.497 -0.0359 -0.0044  0.1882
 2333W        W 3630   3.957   7.266   4.753  0.1711 -0.1167  0.0254
 2334W        W 3631   5.378   3.955   3.766 -0.0790  0.0780  0.0742
 2335W        W 3632   0.735   6.671   7.553 -0.1810  0.0328 -0.3662
 2336W        W 3633   4.919   6.935   1.387 -0.2676 -0.0448 -0.0178
 2337W        W 3634   3.261   0.946   6.012  0.1991  0.2430  0.2215
 2338W        W 3635   3.613   2.860   7.108 -0.1095 -0.2404 -0.4383
 2339W        W 3636   5.449   1.799   6.879  0.3101 -0.1165 -0.0521
 2340W        W 3637   4.587   5.705   0.769  0.1153 -0.0102  0.1958
 2341W        W 3638   3.720   3.812   5.549  0.1829 -0.0211  0.1720
 2342W        W 3639   0.633   5.137   6.583 -0.0217  0.0129 -0.0967
 2343W        W 3640   7.575   2.142   7.371  0.1062 -0.1785 -0.1299
 2344W        W 3641   6.331   6.619   7.495 -0.2907  0.2258  0.4799
 2345W        W 3642   6.717   2.270   3.981  0.2167  0.0021 -0.2211
 2346W        W 3643   4.620   2.522   5.017 -0.3584 -0.1507 -0.0273
 2347W        W 3644   0.979   5.467   6.150  0.1869 -0.1701 -0.1769
 2348W        W 3645   5.968   3.785   1.117  0.2073 -0.0366  0.0090
 2349W        W 3646   7.537   2.325   5.858  0.0375 -0.1383  0.4602
 2350W        W 3647   2.441   7.461   6.466 -0.2195  0.1047 -0.3161
 2351W        W 3648   6.646   3.981   3.074  0.0152  0.3390  0.1867
 2352W        W 3649   4.076   4.617   4.248 -0.1684 -0.1553  0.2079
 2353W        W 3650   5.570   4.593   0.871  0.1178  0.0235 -0.0440
 2354W        W 3651   6.155   3.540   7.060  0.1129 -0.1106 -0.0232
 2355W        W 3652   0.744   3.538   3.713  0.1766 -0.1596  0.2215
 2356W        W 3653   2.780   2.004   3.965 -0.2479 -0.0019  0.0746
 2357W        W 3654   7.096   1.859   4.102  0.1722 -0.1116  0.0596
 2358W        W 3655   1.184   2.666   5.981 -0.2894 -0.3285  0.0050
 2359W        W 3656   5.922   0.221   6.981 -0.0143 -0.0296 -0.4582
 2360W        W 3657   6.679   4.536   4.105 -0.3629 -0.0077  0.0537
 2361W        W 3658   3.012   4.372   1.880  0.0326  0.3324 -0.0247
 2362W        W 3659   4.474   3.557   5.879  0.0541 -0.1642  0.1676
 2363W        W 3660   2.315   6.155   4.232  0.1078  0.3859 -0.1009
 2364W        W 3661   4.181   4.402   3.412 -0.0836 -0.0527  0.2578
 2365W        W 3662   4.352   5.511   6.976 -0.1889  0.1238 -0.2358
 2366W        W 3663   6.723   6.920   6.047  0.0539  0.1775  0.3318
 2367W        W 3664   6.051   6.141   4.181  0.0503  0.1839 -0.1164
 2368W        W 3665   5.497   0.818   4.621 -0.1944  0.0138 -0.0234
 2369W        W 3666   5.502   6.604   5.735 -0.0921  0.2003  0.2637
 2370W        W 3667   7.517   4.718   4.229  0.1052  0.0200 -0.0182
 2371W        W 3668   6.698   4.773   1.792 -0.0576  0.1265  0.0143
 2372W        W 3669   6.964   6.125   5.591  0.1784  0.0530  0.0445
 2373W        W 3670   4.131   6.088   0.310 -0.0890 -0.2391  0.0940
 2374W        W 3671   1.182   6.430   3.855 -0.0430  0.2250  0.3141
 2375W        W 3672   3.365   5.578   6.209 -0.1301  0.2203  0.1300
 2376W        W 3673   5.366   4.876   7.313 -0.0954  0.1595  0.1830
 2377W        W 3674   3.435   1.235   3.711 -0.0199 -0.2452 -0.2078
 2378W        W 3675   4.885   2.707   5.936 -0.0515  0.0859 -0.1551
 2379W        W 3676   3.986   1.275   6.261  0.1099 -0.1386 -0.0997
 2380W        W 3677   4.395   0.100   3.545  0.2121  0.0105  0.3607
 2381W        W 3678   4.265   2.705   2.498 -0.1661  0.0586 -0.3754
 2382W        W 3679   0.018   3.383   3.616  0.1476 -0.1570 -0.0705
 2383W        W 3680   1.358   6.801   7.469  0.1723 -0.0598 -0.1315
 2384W        W 3681   0.332   6.564   1.967  0.1328 -0.0988  0.0329
 2385W        W 3682   0.350   2.138   6.056  0.0087 -0.2659  0.1874
 2386W        W 3683   0.528   5.972   4.146 -0.3253 -0.1618  0.0305
 2387W        W 3684   5.190   5.912   1.431 -0.0264 -0.0436 -0.1547
 2388W        W 3685   4.857   3.358   3.387  0.1450  0.2415 -0.4605
 2389W        W 3686   5.553   0.384   5.930  0.2395 -0.0691 -0.0015
 2390W        W 3687   4.044   6.290   4.381 -0.1290  0.0028 -0.0067
 2391W        W 3688   1.419   2.951   3.729  0.0469 -0.0050  0.2092
 2392W        W 3689   4.856   2.944   1.706  0.0454  0.1546 -0.1743
 2393W        W 3690   3.035   5.212   3.062  0.0326 -0.2789  0.0601
 2394W        W 3691   3.225   5.610   7.142  0.0574 -0.0147  0.2521
 2395W        W 3692   3.158   2.809   4.645  0.1343  0.1478 -0.2360
 2396W        W 3693   6.082   3.398   4.063  0.1156  0.0824 -0.0198
 2397W        W 3694   0.430   6.135   4.547  0.2690  0.0997 -0.2691
 2398W        W 3695   0.501   1.780   6.575  0.2690  0.2168  0.0612
 2399W        W 3696   2.385   5.344   5.610  0.0507 -0.1573  0.2650
 2400W        W 3697   4.372   6.715   7.075 -0.1478 -0.1318 -0.1049
 2401W        W 3698   2.587   6.093   1.604  0.0288 -0.2481  0.1124
 2402W        W 3699   0.910   1.681   2.436 -0.1953  0.0617 -0.2413
 2403W        W 3700   7.022   6.411   3.798  0.0328  0.0436 -0.4514
 2404W        W 3701   6.958   6.715   2.981  0.2187  0.0942 -0.1319
 2405W        W 3702   2.034   6.489   7.091  0.1360 -0.0838  0.1348
 2406W        W 3703   4.920   1.774   7.460 -0.0984  0.0331 -0.0405
 2407W        W 3704   1.430   5.585   5.447 -0.0206  0.0556  0.1075
 2408W        W 3705   0.178   6.619   4.391  0.1101  0.0024  0.0167
 2409W        W 3706   5.454   0.016   0.139  0.1702  0.1082 -0.0405
 2410W        W 3707   6.825   5.681   4.481  0.2997 -0.0092 -0.1336
 2411W        W 3708   4.305   0.783   6.883  0.1611  0.0485 -0.2242
 2412W        W 3709   3.243   6.985   7.183 -0.2375 -0.0804  0.3417
 2413W        W 3710   4.445   3.366   4.517  0.0293  0.3030  0.0593
 2414W        W 3711   5.039   6.375   3.293 -0.0094 -0.0062  0.0583
 2415W        W 3712   3.199   4.464   6.075 -0.1903 -0.1836  0.1306
 2416W        W 3713   4.708   4.268   4.208  0.0169 -0.1742 -0.1091
 2417W        W 3714   7.325   1.335   6.843  0.1191 -0.0080 -0.0561
 2418W        W 3715   0.218   1.448   6.903  0.0820 -0.2160 -0.2839
 2419W        W 3716   3.360   4.819   5.441  0.1285  0.0461 -0.0813
 2420W        W 3717   5.902   5.692   3.273 -0.2233 -0.0987 -0.1455
 2421W        W 3718   1.115   4.100   7.515  0.1602  0.0220 -0.0306
 2422W        W 3719   7.227   4.596   7.019  0.2516  0.0307  0.1248
 2423W        W 3720   5.843   2.244   2.369 -0.1332 -0.1914 -0.4825
 2424W        W 3721   0.063   7.071   0.946  0.0694 -0.0731  0.2727
 2425W        W 3722   4.436   6.044   1.162 -0.2217  0.0515 -0.1946
 2426W        W 3723   0.262   3.895   0.668 -0.1628 -0.3074 -0.0697
 2427W        W 3724   5.954   3.867   1.916  0.2607  0.2430  0.0604
 2428W        W 3725   6.084   5.845   5.572 -0.1801  0.1047  0.1460
 2429W        W 3726   3.745   4.991   2.445 -0.1710 -0.3108  0.1145
 2430W        W 3727   3.877   7.412   4.220 -0.2390  0.1942 -0.0573
 2431W        W 3728   1.901   5.591   6.741  0.3630  0.1594 -0.1472
 2432W        W 3729   2.714   2.923   3.510 -0.0649  0.0175 -0.0112
 2433W        W 3730   5.725   3.344   3.216  0.1172  0.1233  0.1541
 2434W        W 3731   0.244   5.798   5.523 -0.2404 -0.2160 -0.0421
 2435W        W 3732   7.025   0.018   1.549 -0.0589  0.2052 -0.0436
 2436W        W 3733   4.909   2.388   0.753  0.0119 -0.0251  0.1200
 2437W        W 3734   4.837   3.589   4.698 -0.0003  0.3544 -0.0287
 2438W        W 3735   3.609   4.900   1.947 -0.2009  0.2976 -0.0466
 2439W        W 3736   5.075   2.300   1.967 -0.2568 -0.0837 -0.0073
 2440W        W 3737   0.976   4.507   1.480 -0.0802  0.0709  0.0683
 2441W        W 3738   2.604   0.308   6.162 -0.0916  0.1188  0.0845
 2442W        W 3739   4.750   3.610   2.501  0.1398 -0.0217 -0.2378
 2443W        W 3740   1.730   5.301   6.392 -0.0716 -0.2417  0.2279
 2444W        W 3741   1.248   3.912   3.033  0.1343 -0.0295 -0.0717
 2445W        W 3742   1.286   2.997   4.509 -0.0760  0.5150  0.3043
 2446W        W 3743   4.961   1.430   0.484  0.0623 -0.3739  0.1441
 2447W        W 3744   6.953   6.610   1.551  0.1266 -0.0753  0.0316
 2448W        W 3745   0.931   4.341   2.204  0.2896  0.0321 -0.0757
 2449W        W 3746   1.249   6.261   2.891 -0.0406 -0.0022 -0.0262
 2450W        W 3747   5.007   4.305   3.828 -0.1007 -0.1620  0.0579
 2451W        W 3748   5.400   3.122   4.052  0.2957  0.0118  0.0208
 2452W        W 3749   4.782   3.810   7.348  0.0813  0.1656  0.1484
 2453W        W 3750   2.540   3.312   1.024  0.0127  0.2142  0.1617
 2454W        W 3751   3.222   3.488   5.353 -0.0647  0.2450 -0.2065
 2455W        W 3752   1.247   3.997   6.464  0.1766  0.0021 -0.0813
 2456W        W 3753   3.988   6.226   6.041  0.0239 -0.1628  0.0305
 2457W        W 3754   4.630   7.135   1.748 -0.1914 -0.2611  0.1605
 2458W        W 3755   6.361   2.387   7.584 -0.2435  0.1105 -0.0272
 2459W        W 3756   3.821   7.090   6.211 -0.0589  0.2447  0.0271
 2460W        W 3757   2.735   3.435   6.441  0.0333  0.0171  0.1903
 2461W        W 3758   2.733   5.458   2.289  0.1761 -0.2811  0.0720
 2462W        W 3759   4.702   4.267   7.100 -0.0704 -0.1130  0.2104
 2463W        W 3760   0.598   2.617   0.952  0.1044  0.0932  0.3115
 2464W        W 3761   4.325   2.370   4.583 -0.4320  0.3311  0.1128
 2465W        W 3762   3.298   6.962   1.001 -0.0795  0.0441  0.3315
 2466W        W 3763   4.955   7.613   0.258 -0.2603  0.0544  0.1600
 2467W        W 3764   2.850   5.270   7.188 -0.0548 -0.3416 -0.0896
 2468W        W 3765   3.926   4.687   6.322  0.2327 -0.1918  0.1937
 2469W        W 3766   0.686   5.205   3.444  0.0229 -0.0858  0.1223
 2470W        W 3767   4.380   6.325   5.737  0.0828  0.0507  0.1969
 2471W        W 3768   2.400   3.415   2.044  0.1712  0.2043  0.0060
 2472W        W 3769   0.152   5.786   6.613 -0.0728 -0.0205 -0.0917
 2473W        W 3770   1.423   5.978   4.420  0.1348 -0.3288  0.0429
 2474W        W 3771   5.485   7.209   2.928 -0.0122 -0.1546 -0.1034
 2475W        W 3772   1.402   6.638   5.275  0.3478 -0.2158 -0.0972
 2476W        W 3773   7.189   4.565   2.699  0.0410 -0.1932  0.1895
 2477W        W 3774   2.658   5.389   0.341  0.2263  0.0197 -0.0389
 2478W        W 3775   3.274   6.475   6.576  0.2238 -0.3520  0.0973
 2479W        W 3776   3.664   5.159   5.777 -0.0547  0.1119 -0.0696
 2480W        W 3777   3.946   3.910   0.468  0.1928  0.0366  0.1066
 2481W        W 3778   3.994   4.222   3.849 -0.1847 -0.0606  0.0062
 2482W        W 3779   6.290   1.897   0.266  0.2444 -0.0304 -0.2901
 2483W        W 3780   2.575   3.099   4.007 -0.0660 -0.0899  0.0126
 2484W        W 3781   0.542   4.430   1.069  0.1460  0.1011 -0.0251
 2485W        W 3782   3.219   4.476   5.098 -0.3026 -0.0699 -0.0502
 2486W        W 3783   6.672   0.142   6.969 -0.1157  0.0908  0.0882
 2487W        W 3784   6.105   6.930   1.019  0.5005  0.0304 -0.0146
 2488W        W 3785   0.446   6.412   7.190  0.1606 -0.0082 -0.0199
 2489W        W 3786   7.434   4.475   5.446  0.0352 -0.0609  0.0577
 2490W        W 3787   2.295   5.923   1.962 -0.2227 -0.0250 -0.0473
 2491W        W 3788   3.366   4.378   3.158 -0.2281 -0.1511 -0.2394
 2492W        W 3789   0.034   6.069   3.420  0.1726 -0.0771  0.0253
 2493W        W 3790   1.127   5.222   0.869 -0.1899  0.0739 -0.0000
 2494W        W 3791   0.944   6.938   4.415  0.2414  0.1198 -0.2082
 2495W        W 3792   4.010   5.482   5.688 -0.0567  0.3994  0.0882
 2496W        W 3793   6.062   0.377   6.069 -0.0696 -0.0284 -0.3184
 2497W        W 3794   6.701   6.123   1.304 -0.2614 -0.0907 -0.1286
 2498W        W 3795   6.434   4.298   1.822 -0.1897 -0.1406 -0.0590
 2499W        W 3796   4.540   4.999   3.090  0.4674  0.2581 -0.1011
 2500W        W 3797   5.893   5.414   2.882  0.3241 -0.0130  0.1490
 2501W        W 3798   2.939   2.058   3.391  0.1731 -0.0143 -0.0511
 2502W        W 3799   4.532   4.974   0.186  0.0941  0.1990 -0.3268
 2503W        W 3800   5.677   3.721   0.725  0.0501  0.3249 -0.2840
 2504W        W 3801   6.631   0.383   2.037 -0.0638 -0.3014  0.0661
 2505W        W 3802   4.849   4.085   4.651  0.1036  0.0077 -0.0628
 2506W        W 3803   5.454   5.154   1.875  0.1710  0.1915 -0.0005
 2507W        W 3804   0.771   4.072   0.684  0.0255 -0.0943  0.3191
 2508W        W 3805   1.895   5.974   1.657 -0.0151 -0.2017  0.0991
 2509W        W 3806   0.007   3.261   3.148 -0.1555  0.2039  0.0199
 2510W        W 3807   6.711   0.623   7.190 -0.0366 -0.1318  0.1576
 2511W        W 3808   5.844   7.072   1.456 -0.2491 -0.3988 -0.0370
 2512W        W 3809   6.956   0.190   7.412 -0.2961  0.1089 -0.3246
 2513W        W 3810   3.062   1.176   5.165 -0.0438 -0.1527 -0.0551
 2514W        W 3811   0.720   6.205   3.734 -0.0549 -0.0758 -0.0283
 2515W        W 3812   1.963   6.599   5.153  0.1107 -0.1547  0.1137
 2516W        W 3813   2.759   3.091   2.395  0.0804  0.0976 -0.0221
 2517W        W 3814   2.788   5.873   4.906 -0.0666 -0.0694  0.4099
 2518W        W 3815   6.175   5.225   3.338 -0.4897 -0.0167 -0.2279
 2519W        W 3816   3.129   2.579   5.327  0.2410 -0.5714 -0.1223
 2520W        W 3817   4.477   6.530   1.068 -0.1644  0.0542 -0.0487
 2521W        W 3818   7.094   2.770   6.770 -0.0706 -0.1587  0.1045
 2522W        W 3819   2.350   4.830   5.617 -0.2700  0.1623 -0.0118
 2523W        W 3820   6.994   7.112   6.393  0.4390  0.1147 -0.2388
 2524W        W 3821   2.732   0.785   5.300 -0.0684 -0.2071  0.4313
 2525W        W 3822   2.166   2.228   6.136 -0.0005 -0.0744 -0.2760
 2526W        W 3823   2.052   5.004   7.142 -0.0583 -0.1387 -0.0302
 2527W        W 3824   2.411   6.809   2.686  0.0009 -0.0875  0.2584
 2528W        W 3825   2.909   4.969   0.217  0.0922 -0.2002  0.3906
 2529W        W 3826   2.693   1.926   4.827 -0.4765  0.3038 -0.1096
 2530W        W 3827   4.345   0.391   4.684  0.3100 -0.1255  0.0843
 2531W        W 3828   6.126   1.633   3.190  0.0158 -0.0685 -0.1445
 2532W        W 3829   3.831   2.310   1.019 -0.0515  0.3210 -0.1655
 2533W        W 3830   5.073   7.307   5.798 -0.2187 -0.0177 -0.0953
 2534W        W 3831   1.833   2.871   5.836 -0.2527 -0.3084  0.0220
 2535W        W 3832   4.742   5.324   3.931  0.3000  0.0954 -0.1215
 2536W        W 3833   7.562   0.744   1.267  0.1779 -0.0671  0.0585
 2537W        W 3834   0.023   2.779   3.309 -0.1857 -0.1983 -0.0162
 2538W        W 3835   5.981   2.841   0.938 -0.1078 -0.0940 -0.0073
 2539W        W 3836   5.551   6.884   3.848  0.2117  0.0226 -0.1301
 2540W        W 3837   3.901   5.826   4.136 -0.1370  0.1186  0.2176
 2541W        W 3838   4.470   6.240   7.019  0.2619  0.2867  0.3749
 2542W        W 3839   1.951   4.760   3.245  0.1305 -0.0807  0.0577
 2543W        W 3840   0.181   5.570   1.120 -0.2369  0.0856 -0.2980
 2544W        W 3841   0.541   1.306   2.198  0.1802  0.1576  0.1990
 2545W        W 3842   3.091   4.577   4.156 -0.0250  0.2816  0.1345
 2546W        W 3843   4.279   0.215   4.101  0.1080  0.2973 -0.0146
 2547W        W 3844   3.870   3.473   3.716  0.2346  0.0117 -0.2955
 2548W        W 3845   5.279   2.437   4.515  0.0066 -0.0809  0.1378
 2549W        W 3846   6.375   7.271   2.725  0.0483  0.5423 -0.0323
 2550W        W 3847   3.522   2.540   5.801  0.0240  0.1606 -0.1497
 2551W        W 3848   1.125   4.940   3.546 -0.1981 -0.0273  0.1649
 2552W        W 3849   0.957   2.519   6.458  0.1966 -0.1401  0.1154
 2553W        W 3850   0.977   6.863   6.612  0.2396 -0.0730  0.1026
 2554W        W 3851   4.702   0.616   0.175  0.2168 -0.0256  0.1777
 2555W        W 3852   4.631   7.206   7.279  0.0456  0.2250  0.0429
 2556W        W 3853   5.072   0.963   0.063 -0.1254  0.1297  0.1234
 2557W        W 3854   6.976   2.384   4.371  0.0697  0.0815  0.2043
 2558W        W 3855   7.229   3.273   6.927 -0.1639 -0.4035 -0.0430
 2559W        W 3856   7.520   6.680   5.209 -0.1446 -0.1963 -0.0575
 2560W        W 3857   1.733   5.205   4.256  0.0282 -0.0182  0.0946
 2561W        W 3858   1.950   5.809   4.266 -0.0480  0.1646 -0.1196
 2562W        W 3859   5.879   4.584   5.039 -0.1906  0.0674 -0.1836
 2563W        W 3860   6.199   5.345   3.838 -0.1872 -0.3215  0.2823
 2564W        W 3861   0.998   6.787   0.942  0.1426  0.0838  0.0615
 2565W        W 3862   5.408   2.879   2.547 -0.0149 -0.0518  0.1011
 2566W        W 3863   7.128   2.148   1.609  0.2465  0.0101 -0.1517
 2567W        W 3864   4.172   6.310   7.400 -0.4422 -0.1408  0.1457
 2568W        W 3865   3.051   3.168   4.310 -0.3239 -0.2381 -0.0293
 2569W        W 3866   3.788   3.033   3.262 -0.0440 -0.1917 -0.0432
 2570W        W 3867   3.899   1.711   5.979 -0.3827 -0.3308  0.0162
 2571W        W 3868   4.932   7.253   0.618 -0.0544 -0.1745  0.2999
 2572W        W 3869   6.734   2.572   4.908  0.3607 -0.0801  0.0915
 2573W        W 3870   1.307   7.010   4.032 -0.0750 -0.3879 -0.1784
 2574W        W 3871   5.552   6.712   5.145  0.1221 -0.2138  0.1958
 2575W        W 3872   0.029   5.603   7.343 -0.0074 -0.0172 -0.1311
 2576W        W 3873   5.240   7.270   6.532  0.0519 -0.2081  0.0829
 2577W        W 3874   0.331   3.734   6.897 -0.0651 -0.0525 -0.2290
 2578W        W 3875   0.700   4.294   5.452 -0.2471  0.0153  0.0334
 2579W        W 3876   4.304   1.986   5.902  0.1185 -0.0076 -0.0892
 2580W        W 3877   6.772   4.220   2.593 -0.0295  0.0188 -0.1139
 2581W        W 3878   2.023   7.347   4.456  0.1840 -0.1666  0.0231
 2582W        W 3879   3.925   5.897   7.507  0.1486  0.2147 -0.2485
 2583W        W 3880   6.906   3.256   4.169  0.3267 -0.0249  0.2139
 2584W        W 3881   6.879   6.122   6.832  0.3277  0.1182  0.1990
 2585W        W 3882   2.862   5.897   7.580  0.0008 -0.3644  0.2917
 2586W        W 3883   2.756   6.847   0.288 -0.0369 -0.1620  0.2038
 2587W        W 3884   4.637   5.060   6.795 -0.1330 -0.3186 -0.1019
 2588W        W 3885   5.750   5.722   7.321  0.0650  0.3611 -0.0115
 2589W        W 3886   3.728   6.715   1.598  0.2390  0.2704 -0.2627
 2590W        W 3887   4.447   7.561   6.984  0.0321 -0.2470 -0.3765
 2591W        W 3888   4.900   0.417   1.500 -0.0202 -0.0566 -0.1293
 2592W        W 3889   6.983   3.124   4.964 -0.1285  0.1554 -0.1774
 2593W        W 3890   0.434   5.344   3.837 -0.0499 -0.1685  0.1184
 2594W        W 3891   4.646   5.744   1.521 -0.2881  0.2399 -0.2489
 2595W        W 3892   3.583   4.494   1.051  0.3439  0.1266  0.1459
 2596W        W 3893   4.819   4.018   2.193 -0.2464 -0.0071  0.2766
 2597W        W 3894   3.634   2.792   5.375  0.4750  0.0747  0.2785
 2598W        W 3895   0.996   1.344   0.805 -0.1049 -0.2024  0.1824
 2599W        W 3896   0.681   5.763   1.133  0.2311 -0.1385 -0.1310
 2600W        W 3897   5.619   3.662   7.170  0.0136 -0.0662 -0.5512
 2601W        W 3898   0.796   4.648   6.863 -0.1413  0.2331 -0.2906
 2602W        W 3899   7.460   1.866   5.981 -0.0333 -0.0638  0.0311
 2603W        W 3900   1.448   3.144   5.766  0.0833 -0.1638 -0.4537
 2604W        W 3901   7.413   4.965   2.504  0.3348 -0.1742  0.2579
 2605W        W 3902   5.276   4.335   3.371  0.0013 -0.1472 -0.1325
 2606W        W 3903   2.528   4.755   6.976  0.0061  0.1339  0.1992
 2607W        W 3904   2.029   3.333   3.044 -0.1081  0.0619  0.0204
 2608W        W 3905   5.508   0.145   7.249  0.0413  0.0213 -0.3381
 2609W        W 3906   7.229   7.267   2.337  0.0693 -0.0400  0.1627
 2610W        W 3907   5.037   5.923   0.105 -0.1279 -0.1326  0.1070
 2611W        W 3908   5.851   1.341   5.895  0.0043 -0.1653 -0.2541
 2612W        W 3909   7.342   3.810   7.530 -0.0521  0.1178 -0.0766
 2613W        W 3910   0.025   2.854   3.807 -0.0608 -0.1778  0.1999
 2614W        W 3911   0.360   3.785   6.367  0.0038  0.1964 -0.0784
 2615W        W 3912   5.912   6.820   5.484  0.2547 -0.2366 -0.3860
 2616W        W 3913   2.433   0.903   6.379 -0.3433  0.0056  0.0422
 2617W        W 3914   3.100   3.054   3.848  0.0726  0.0972  0.1593
 2618W        W 3915   0.762   3.646   1.435  0.4984 -0.0835 -0.2781
 2619W        W 3916   2.403   6.039   6.256  0.0020  0.0474  0.0530
 2620W        W 3917   3.921   4.890   3.852 -0.1570 -0.0848  0.1366
 2621W        W 3918   5.929   3.427   5.868 -0.2173 -0.0183  0.0049
 2622W        W 3919   6.228   5.074   5.064  0.0736  0.0537 -0.1853
 2623W        W 3920   4.879   0.712   7.267  0.1570  0.2809  0.0536
 2624W        W 3921   4.642   6.916   5.765 -0.3084 -0.2532  0.0868
 2625W        W 3922   5.897   3.826   3.749  0.2006  0.0380  0.2607
 2626W        W 3923   6.554   5.321   4.725 -0.1260  0.0764  0.0707
 2627W        W 3924   5.008   3.660   6.795  0.1389  0.2546 -0.0071
 2628W        W 3925   6.151   3.542   4.620 -0.0722  0.1131  0.2396
 2629W        W 3926   3.505   1.565   5.579  0.1767  0.0567  0.1127
 2630W        W 3927   4.757   5.813   6.973 -0.0951 -0.1847 -0.0413
 2631W        W 3928   7.150   6.871   1.096  0.0319 -0.3423 -0.1609
 2632W        W 3929   0.988   4.709   5.558 -0.1315  0.0832  0.2320
 2633W        W 3930   6.958   1.812   2.712 -0.0984 -0.1321 -0.1222
 2634W        W 3931   6.256   1.714   2.507  0.4639 -0.0641  0.2423
 2635W        W 3932   2.085   4.875   2.258 -0.1196  0.1481  0.0794
 2636W        W 3933   4.227   1.421   6.741  0.3280 -0.3408 -0.1517
 2637W        W 3934   0.906   3.076   6.608 -0.0883  0.1742  0.0701
 2638W        W 3935   3.512   0.844   5.159  0.2963 -0.0969 -0.0983
 2639W        W 3936   1.826   4.747   0.491  0.0070 -0.3769  0.2736
 2640W        W 3937   6.297   6.864   7.026 -0.2025  0.2456 -0.1495
 2641W        W 3938   4.068   4.411   1.946  0.0794  0.0792  0.1049
 2642W        W 3939   0.139   5.382   2.101 -0.1022  0.0694  0.1147
 2643W        W 3940   7.121   3.679   0.547  0.1859  0.2219 -0.0167
 2644W        W 3941   4.833   5.341   5.607 -0.1599 -0.0065 -0.0958
 2645W        W 3942   6.595   2.052   7.292  0.1211 -0.1271 -0.0139
 2646W        W 3943   2.407   2.646   3.853 -0.3054  0.1178 -0.3700
 2647W        W 3944   0.172   7.038   2.951  0.1055 -0.1098 -0.0796
 2648W        W 3945   5.717   6.265   2.583  0.1443  0.1566  0.0566
 2649W        W 3946   1.536   4.182   7.248  0.1456  0.3867  0.2806
 2650W        W 3947   4.994   2.721   4.152  0.1286 -0.1933 -0.0544
 2651W        W 3948   0.009   2.583   2.858  0.1034 -0.1097  0.2961
 2652W        W 3949   1.527   3.295   1.505 -0.1055 -0.0390  0.1013
 2653W        W 3950   2.402   6.647   0.022  0.2456  0.2395 -0.1109
 2654W        W 3951   6.574   3.211   2.330  0.0724  0.3559  0.0739
 2655W        W 3952   4.860   2.109   0.277 -0.1673  0.0326 -0.1583
 2656W        W 3953   2.546   2.299   5.783  0.0373  0.0649 -0.1609
 2657W        W 3954   5.300   7.216   1.692 -0.1245 -0.0373 -0.1976
 2658W        W 3955   5.237   6.078   2.346  0.1793 -0.3147 -0.1144
 2659W        W 3956   5.062   5.826   0.602  0.1767 -0.0428 -0.0315
 2660W        W 3957   4.162   4.293   1.313 -0.3478  0.1206  0.1730
 2661W        W 3958   0.527   5.418   5.650  0.1582 -0.0265  0.1523
 2662W        W 3959   7.390   1.888   0.643 -0.0993  0.2473 -0.3774
 2663W        W 3960   0.287   7.495   4.111  0.1107  0.0797 -0.0824
 2664W        W 3961   5.037   5.097   3.138 -0.3505  0.0520 -0.1086
 2665W        W 3962   0.403   6.659   2.882 -0.2345 -0.1145 -0.1129
 2666W        W 3963   1.268   3.509   3.472 -0.2795 -0.2661 -0.2141
 2667W        W 3964   6.616   6.211   0.555  0.0472 -0.1190  0.0289
 2668W        W 3965   1.998   2.268   7.330  0.2142  0.0788  0.4063
 2669W        W 3966   1.131   5.996   3.445  0.2149 -0.2051  0.2700
 2670W        W 3967   3.522   6.370   4.402 -0.1854 -0.1245  0.1367
 2671W        W 3968   1.756   4.274   3.225 -0.0094 -0.0987  0.0095
 2672W        W 3969   6.368   6.501   2.207 -0.0857  0.1513  0.0378
 2673W        W 3970   3.790   5.473   1.175  0.1151 -0.0490 -0.0604
 2674W        W 3971   0.512   3.365   3.187 -0.2433  0.0152  0.0723
 2675W        W 3972   7.220   4.956   5.297 -0.4777  0.0955  0.4366
 2676W        W 3973   3.734   2.441   2.504  0.2314 -0.0610 -0.0085
 2677W        W 3974   4.796   3.946   5.521 -0.2886  0.1512 -0.0113
 2678W        W 3975   0.208   4.854   2.264 -0.1055 -0.0997  0.4226
 2679W        W 3976   5.331   7.161   7.057  0.1869 -0.1734  0.0377
 2680W        W 3977   2.068   6.608   0.383  0.1826 -0.0914 -0.3745
 2681W        W 3978   4.143   3.686   4.047 -0.1220  0.1041  0.0489
 2682W        W 3979   2.712   4.024   5.697  0.1637  0.1948  0.1700
 2683W        W 3980   5.481   1.302   1.776 -0.0074  0.3289 -0.0755
 2684W        W 3981   3.889   4.486   2.439  0.1647 -0.1736 -0.1154
 2685W        W 3982   1.444   6.697   2.094  0.0126 -0.2156  0.0330
 2686W        W 3983   4.251   4.931   2.629 -0.0148  0.1033  0.0880
 2687W        W 3984   7.263   5.480   6.364 -0.0305  0.1784  0.1008
 2688W        W 3985   7.087   3.996   4.828 -0.0641  0.0553  0.1392
 2689W        W 3986   5.199   4.111   2.907  0.0317 -0.0277 -0.0684
 2690W        W 3987   0.706   6.570   4.714  0.1547 -0.0462 -0.2764
 2691W        W 3988   0.514   4.938   5.536  0.1452 -0.0050  0.3691
 2692W        W 3989   6.355   6.508   0.893 -0.5941 -0.0868  0.0945
 2693W        W 3990   5.761   1.357   5.081  0.1929  0.0346  0.0224
 2694W        W 3991   3.308   6.069   4.782  0.3371 -0.1188 -0.0425
 2695W        W 3992   2.456   2.697   2.370  0.2236 -0.0164 -0.1137
 2696W        W 3993   3.097   6.631   4.038  0.0572  0.1923 -0.0453
 2697W        W 3994   3.348   4.511   4.598  0.1732 -0.1501 -0.2351
 2698W        W 3995   5.096   4.220   6.103  0.2044  0.3206 -0.2466
 2699W        W 3996   5.760   5.922   3.729  0.2325 -0.3659 -0.2330
 2700W        W 3997   6.982   6.728   0.613 -0.3059  0.0075  0.1189
 2701W        W 3998   1.300   6.716   6.958 -0.2548 -0.3337 -0.0648
 2702W        W 3999   3.674   4.970   1.225  0.1182 -0.3834 -0.1335
 2703W        W 4000   1.868   2.564   4.994 -0.1479  0.1492 -0.0081
 2704W        W 4001   3.343   6.822   5.357  0.1744 -0.1326 -0.0451
 2705W        W 4002   4.570   4.916   5.863 -0.0219 -0.0591 -0.0335
 2706W        W 4003   5.223   5.828   3.100  0.2264 -0.1041  0.2633
 2707W        W 4004   5.795   5.280   6.601 -0.3115 -0.0310  0.2591
 2708W        W 4005   6.564   6.591   3.552 -0.1470 -0.0491  0.1002
 2709W        W 4006   1.380   3.538   2.689 -0.0075 -0.1312 -0.1278
 2710W        W 4007   7.137   1.061   0.119  0.1052 -0.2768 -0.0065
 2711W        W 4008   1.209   6.418   6.502  0.0961  0.0134 -0.4367
 2712W        W 4009   5.681   1.151   7.534 -0.0052 -0.1860  0.0553
 2713W        W 4010   7.330   2.140   2.794  0.0340 -0.0599 -0.1572
 2714W        W 4011   4.588   2.402   1.742  0.1183  0.1557 -0.2551
 2715W        W 4012   2.881   5.733   3.435  0.0023 -0.1732  0.0065
 2716W        W 4013   6.287   3.037   1.980 -0.0009 -0.1826 -0.2325
 2717W        W 4014   0.203   1.859   3.500 -0.1309  0.0175 -0.1607
 2718W        W 4015   5.512   6.337   6.657 -0.3413  0.0383  0.0125
 2719W        W 4016   6.859   5.202   0.946 -0.3173  0.0232  0.0600
 2720W        W 4017   3.770   2.236   6.136 -0.1418  0.0201  0.1990
 2721W        W 4018   7.214   4.267   7.490 -0.1404 -0.1627 -0.4972
 2722W        W 4019   3.567   6.170   3.901 -0.0756 -0.1600  0.5306
 2723W        W 4020   0.251   0.531   0.466  0.0430 -0.0339 -0.0883
 2724W        W 4021   0.191   4.515   3.483  0.2096  0.2105 -0.1846
 2725W        W 4022   4.946   3.384   4.255 -0.1154  0.1262  0.2282
 2726W        W 4023   4.543   6.389   5.008  0.0883 -0.0966  0.0134
 2727W        W 4024   1.037   5.913   4.014  0.1492  0.0239  0.1003
 2728W        W 4025   4.456   5.398   6.022  0.0557  0.0596  0.1911
 2729W        W 4026   3.197   5.453   5.757  0.3524  0.2508 -0.0380
 2730W        W 4027   0.522   2.656   3.829  0.3317 -0.0017 -0.0855
 2731W        W 4028   4.740   1.663   5.079 -0.1833 -0.1650 -0.0343
 2732W        W 4029   5.026   5.290   1.653  0.3708  0.1126  0.0341
 2733W        W 4030   3.770   0.595   6.759 -0.1761  0.0742  0.0072
 2734W        W 4031   5.413   5.003   1.426 -0.0941  0.1070  0.0887
 2735W        W 4032   5.535   1.645   7.363 -0.1514 -0.4310  0.0560
 2736W        W 4033   2.316   2.682   6.021  0.2573 -0.2039 -0.1486
 2737W        W 4034   1.994   3.929   0.539 -0.0381  0.1630 -0.1151
 2738W        W 4035   5.951   6.173   5.149  0.3882 -0.0545 -0.1303
 2739W        W 4036   0.627   6.616   4.182 -0.1709 -0.0677 -0.1903
 2740W        W 4037   3.599   3.570   6.080 -0.0137  0.1895  0.2426
 2741W        W 4038   5.523   6.174   1.974 -0.1427 -0.0610  0.0786
 2742W        W 4039   4.990   6.715   0.971  0.0481 -0.0459  0.1236
 2743W        W 4040   5.349   3.630   1.089  0.1125 -0.3769 -0.0711
 2744W        W 4041   6.377   5.598   2.064  0.0813  0.1889 -0.1079
 2745W        W 4042   6.089   6.740   0.295 -0.2732  0.1364 -0.0717
 2746W        W 4043   1.464   2.054   7.079 -0.0062  0.0209 -0.0306
 2747W        W 4044   5.394   6.072   5.066 -0.2194 -0.1369 -0.1020
 2748W        W 4045   6.555   3.020   1.039 -0.0911 -0.2669 -0.1122
 2749W        W 4046   2.706   1.558   5.226 -0.3020 -0.2643  0.0509
 2750W        W 4047   6.398   6.850   3.942 -0.0734  0.1906 -0.0262
 2751W        W 4048   5.615   4.553   0.325  0.2336  0.0246 -0.1154
 2752W        W 4049   5.055   6.795   2.952 -0.1898  0.1976  0.0138
 2753W        W 4050   3.279   1.311   3.259 -0.0900  0.1520  0.2453
 2754W        W 4051   3.563   3.334   6.888 -0.1248  0.2263 -0.0842
 2755W        W 4052   4.566   5.453   6.494 -0.0415 -0.0660 -0.1123
 2756W        W 4053   2.539   0.326   5.647 -0.0281  0.0582  0.2333
 2757W        W 4054   7.274   6.445   6.774 -0.0355 -0.3856  0.4392
 2758W        W 4055   3.335   5.124   7.360 -0.3553 -0.2097  0.0587
 2759W        W 4056   5.358   2.904   4.581  0.2743  0.1942 -0.2916
 2760W        W 4057   0.411   3.118   3.648 -0.3230  0.4237 -0.4082
 2761W        W 4058   2.836   5.635   0.839 -0.0247 -0.1404 -0.0842
 2762W        W 4059   1.148   6.898   4.891  0.0035 -0.3938  0.0880
 2763W        W 4060   1.682   6.747   6.230  0.1409 -0.2891  0.0643
 2764W        W 4061   1.198   3.399   6.781 -0.2986  0.1925  0.2432
 2765W        W 4062   6.672   1.266   2.190  0.1062  0.1218  0.1338
 2766W        W 4063   4.312   6.881   1.421  0.0649 -0.0003 -0.0015
 2767W        W 4064   3.819   3.006   3.845 -0.0130  0.1674  0.0495
 2768W        W 4065   3.330   5.641   3.097  0.1069  0.0143  0.2021
 2769W        W 4066   0.030   1.389   3.337  0.1046 -0.3140 -0.2611
 2770W        W 4067   4.969   4.542   4.773  0.0413  0.1725  0.0398
 2771W        W 4068   4.160   7.100   3.624  0.2123 -0.2950  0.0443
 2772W        W 4069   5.729   1.770   4.887  0.2585 -0.0479 -0.0418
 2773W        W 4070   3.051   4.951   4.441 -0.1950  0.3088 -0.3031
 2774W        W 4071   6.331   2.222   3.225 -0.0802 -0.0463  0.0689
 2775W        W 4072   6.785   4.438   0.209 -0.1309 -0.1437 -0.2295
 2776W        W 4073   7.529   4.283   0.752 -0.2186  0.2738  0.1778
 2777W        W 4074   3.707   3.765   1.857 -0.0822  0.0937  0.0181
 2778W        W 4075   5.138   4.366   7.379  0.0272 -0.2864  0.0396
 2779W        W 4076   6.136   6.021   4.726 -0.1993 -0.0021 -0.2093
 2780W        W 4077   1.973   5.470   3.876 -0.3431  0.2792 -0.1374
 2781W        W 4078   5.477   1.973   2.110 -0.1497 -0.3868  0.0772
 2782W        W 4079   2.637   3.913   1.756 -0.1302 -0.4372  0.2688
 2783W        W 4080   1.396   5.503   7.054 -0.0396 -0.1452  0.2169
 2784W        W 4081   0.064   5.142   2.950  0.0042  0.2261 -0.1445
 2785W        W 4082   6.193   5.157   4.365 -0.1246 -0.0734  0.0144
 2786W        W 4083   4.926   7.480   1.436  0.0670  0.2581  0.0883
 2787W        W 4084   2.012   5.233   4.946  0.5553 -0.2632  0.1181
 2788W        W 4085   3.823   5.934   5.683  0.0176  0.2308  0.2271
 2789W        W 4086   5.041   0.018   4.492 -0.1138 -0.2267 -0.0167
 2790W        W 4087   3.275   7.474   3.446  0.4427 -0.2072 -0.1965
 2791W        W 4088   4.331   4.491   2.840  0.0914 -0.1848  0.1449
 2792W        W 4089   1.041   2.110   7.349 -0.1458 -0.0128 -0.0333
 2793W        W 4090   3.573   6.950   2.988 -0.1224 -0.1362 -0.2152
 2794W        W 4091   3.887   6.153   3.519 -0.0927 -0.1568 -0.1223
 2795W        W 4092   7.481   4.994   4.775  0.0061 -0.0664 -0.2367
 2796W        W 4093   6.863   7.229   2.772  0.1793 -0.1404 -0.1971
 2797W        W 4094   2.253   3.803   6.738  0.2342 -0.0738 -0.0085
 2798W        W 4095   4.915   6.554   2.568 -0.2485  0.0232 -0.1865
 2799W        W 4096   0.475   4.297   4.660  0.2841  0.3189  0.0408
 2800W        W 4097   2.180   6.614   4.498 -0.0789  0.1961  0.0620
 2801W        W 4098   4.145   0.937   3.211 -0.2783  0.1730 -0.0715
 2802W        W 4099   6.117   6.036   7.271  0.1930 -0.0601  0.0044
 2803W        W 4100   1.555   3.365   7.144  0.4669 -0.1329 -0.1885
 2804W        W 4101   7.044   1.571   3.654 -0.1175  0.2484  0.0269
 2805W        W 4102   3.793   4.091   3.114 -0.0280 -0.0254  0.1049
 2806W        W 4103   3.383   7.513   4.001 -0.1126  0.2219 -0.2978
 2807W        W 4104   2.370   5.619   4.113 -0.0597 -0.1116 -0.1150
 2808W        W 4105   4.007   7.128   1.803 -0.0702  0.1354  0.1482
 2809W        W 4106   5.321   6.797   6.675 -0.0227  0.2775 -0.1874
 2810W        W 4107   1.920   3.444   5.429  0.1381  0.0391 -0.1081
 2811W        W 4108   4.977   3.699   2.958 -0.0169  0.1900 -0.1226
 2812W        W 4109   1.691   2.481   6.033 -0.0369 -0.0793  0.0880
 2813W        W 4110   0.642   3.926   5.095 -0.0798 -0.1521  0.0140
 2814W        W 4111   0.139   7.087   6.587  0.0690 -0.0054 -0.2629
 2815W        W 4112   5.793   7.082   0.531  0.3133  0.0857 -0.1766
 2816W        W 4113   4.580   6.448   3.099 -0.2948  0.3769  0.1977
 2817W        W 4114   1.491   4.433   0.159 -0.0036 -0.0198  0.0271
 2818W        W 4115   3.693   3.030   0.536  0.2244 -0.1195 -0.0767
 2819W        W 4116   4.757   1.587   3.863 -0.1839 -0.1293  0.0027
 2820W        W 4117   3.209   0.399   4.010  0.0634  0.3189  0.0193
 2821W        W 4118   7.277   2.324   3.986 -0.2873 -0.4068 -0.1358
 2822W        W 4119   7.590   5.380   1.613 -0.0029  0.3528  0.1864
 2823W        W 4120   2.397   5.490   1.089  0.0543  0.0353  0.1408
 2824W        W 4121   6.250   2.604   5.739  0.2782  0.3511  0.0615
 2825W        W 4122   7.117   2.243   4.846  0.1277  0.1731  0.3328
 2826W        W 4123   1.768   5.440   0.032 -0.2745 -0.0700  0.0758
 2827W        W 4124   5.834   1.500   2.713 -0.3148 -0.2888  0.2667
 2828W        W 4125   6.985   0.646   0.559 -0.3992  0.5024  0.0194
 2829W        W 4126   0.644   6.735   2.417  0.0676 -0.0367  0.3334
 2830W        W 4127   5.937   0.835   0.492 -0.1593  0.1260 -0.0436
 2831W        W 4128   4.132   4.308   5.030  0.2843 -0.0226 -0.0370
 2832W        W 4129   2.381   6.257   3.550  0.1622  0.0567  0.2401
 2833W        W 4130   3.155   5.300   4.134 -0.2014 -0.0367  0.0672
 2834W        W 4131   6.968   2.059   3.525  0.1534  0.2105 -0.1699
 2835W        W 4132   0.416   4.836   0.301 -0.1099  0.2702 -0.2835
 2836W        W 4133   1.806   6.314   4.351 -0.1222  0.0068 -0.0009
 2837W        W 4134   4.803   7.008   4.171 -0.3671 -0.0203  0.2089
 2838W        W 4135   7.496   7.270   0.524 -0.2134 -0.1764 -0.0327
 2839W        W 4136   0.660   6.620   0.511 -0.0861 -0.1030 -0.0061
 2840W        W 4137   0.992   2.520   1.988 -0.0299 -0.0169 -0.0502
 2841W        W 4138   2.360   2.491   2.839 -0.0190 -0.0597  0.1157
 2842W        W 4139   2.712   4.679   1.654 -0.0074 -0.3215  0.3381
 2843W        W 4140   0.161   2.771   2.326 -0.4377 -0.1281 -0.0189
 2844W        W 4141   4.324   2.223   5.479 -0.0072 -0.0559 -0.3380
 2845W        W 4142   1.950   2.747   6.368  0.0264  0.0168 -0.0920
 2846W        W 4143   6.202   5.569   5.134 -0.0775 -0.1817 -0.0322
 2847W        W 4144   6.503   5.006   1.309 -0.2450 -0.1139  0.1728
 2848W        W 4145   0.465   3.473   4.083 -0.1310 -0.1682  0.1591
 2849W        W 4146   6.162   4.117   3.427 -0.0066 -0.2419  0.1996
 2850W        W 4147   0.136   5.696   2.966  0.2506  0.0157  0.1678
 2851W        W 4148   1.778   4.017   0.078 -0.1954  0.0931  0.0370
 2852W        W 4149   6.090   3.652   3.090 -0.1725 -0.1217  0.0768
 2853W        W 4150   7.411   1.948   3.729  0.0442 -0.0025  0.1513
 2854W        W 4151   7.590   7.148   5.326  0.2300 -0.1374 -0.2993
 2855W        W 4152   3.934   0.563   5.091 -0.1825  0.3648  0.2529
 2856W        W 4153   3.073   4.065   2.954  0.2330  0.1431 -0.2070
 2857W        W 4154   4.509   1.722   5.504 -0.0847 -0.0630 -0.3673
 2858W        W 4155   3.992   2.445   5.115 -0.1705 -0.3082  0.2558
 2859W        W 4156   7.226   3.849   1.833  0.0125 -0.0618  0.0489
 2860W        W 4157   5.925   2.040   1.891  0.0470  0.3308  0.0768
 2861W        W 4158   3.953   0.431   5.969 -0.1297  0.0429 -0.1839
 2862W        W 4159   1.369   5.679   0.307 -0.1443  0.0252  0.3201
 2863W        W 4160   4.383   4.900   6.392  0.0152  0.0855 -0.0726
 2864W        W 4161   1.769   1.999   6.271  0.0356 -0.4330  0.2073
 2865W        W 4162   3.708   3.301   5.156  0.3006 -0.2710 -0.1921
 2866W        W 4163   4.859   7.068   2.218  0.1628 -0.1977  0.2404
 2867W        W 4164   4.204   3.307   3.436 -0.1433  0.0922  0.0495
 2868W        W 4165   3.000   5.123   2.521  0.1445  0.1788  0.0535
 2869W        W 4166   0.207   4.844   5.157  0.1440 -0.1354 -0.1999
 2870W        W 4167   7.106   4.720   4.671 -0.2430 -0.0862  0.2440
 2871W        W 4168   4.038   5.163   6.723 -0.0576  0.1941 -0.2390
 2872W        W 4169   2.560   6.525   4.076  0.0852 -0.0448  0.4412
 2873W        W 4170   2.518   2.722   4.343  0.1734  0.2972 -0.0654
 2874W        W 4171   5.747   5.027   4.744 -0.1432 -0.1620  0.2339
 2875W        W 4172   2.244   5.534   6.390 -0.2180 -0.0883  0.0636
 2876W        W 4173   2.035   4.768   5.067 -0.2249  0.2235  0.0122
 2877W        W 4174   1.552   4.668   2.926  0.4015 -0.1097 -0.0157
 2878W        W 4175   4.429   1.637   7.219 -0.0368  0.0753 -0.0181
 2879W        W 4176   0.228   6.956   3.954 -0.1078 -0.0591  0.2898
 2880W        W 4177   1.453   3.354   2.244  0.1041  0.2244  0.1860
 2881W        W 4178   0.493   5.040   2.704 -0.0784  0.0506  0.1329
 2882W        W 4179   7.596   5.930   2.526  0.0184 -0.1914  0.0368
 2883W        W 4180   6.059   6.706   2.654 -0.1590  0.3127  0.1855
 2884W        W 4181   1.206   3.515   1.804 -0.0671  0.3692 -0.0712
 2885W        W 4182   2.474   3.638   0.541 -0.1357  0.1251 -0.0295
 2886W        W 4183   6.171   1.007   6.757 -0.1321  0.0218  0.0605
 2887W        W 4184   5.871   6.544   2.212 -0.1622  0.0629 -0.2023
 2888W        W 4185   5.382   6.905   0.765 -0.2242 -0.0971  0.0822
 2889W        W 4186   5.418   6.157   7.159 -0.0676 -0.1974  0.0753
 2890W        W 4187   2.391   0.120   0.280 -0.1694  0.0339  0.0554
 2891W        W 4188   4.512   4.035   0.358  0.3684 -0.3087 -0.3436
 2892W        W 4189   3.593   2.805   1.778 -0.0640  0.3164 -0.3556
 2893W        W 4190   3.197   2.897   1.438  0.0339 -0.2182 -0.4738
 2894W        W 4191   5.349   0.658   0.856 -0.3249  0.2263  0.1136
 2895W        W 4192   6.896   6.646   6.509 -0.0524 -0.0833  0.0137
 2896W        W 4193   5.394   7.352   4.646 -0.4414 -0.0186 -0.0417
 2897W        W 4194   1.858   2.101   2.611 -0.2305  0.0861  0.0254
 2898W        W 4195   5.001   4.830   3.999  0.1327  0.1366  0.2746
 2899W        W 4196   1.845   3.265   4.985  0.1283 -0.3316  0.1648
 2900W        W 4197   4.269   5.470   1.775  0.1279  0.1114  0.1152
 2901W        W 4198   7.327   5.226   3.371  0.3306 -0.1644  0.0150
 2902W        W 4199   4.126   3.628   1.580  0.2875  0.0867  0.0938
 2903W        W 4200   1.890   5.333   2.376 -0.4839 -0.1709 -0.1525
 2904W        W 4201   1.269   5.361   7.505 -0.0063 -0.3016 -0.1579
 2905W        W 4202   7.270   6.565   4.247 -0.1278 -0.0640 -0.1344
 2906W        W 4203   6.340   1.170   1.808 -0.1832  0.1300 -0.1529
 2907W        W 4204   5.261   2.718   6.313  0.1515  0.1544 -0.4011
 2908W        W 4205   3.372   6.252   3.287 -0.0017  0.1783  0.0401
 2909W        W 4206   2.131   5.176   3.478 -0.0430  0.2655  0.2393
 2910W        W 4207   6.525   5.818   2.486 -0.0394  0.0980  0.0839
 2911W        W 4208   5.743   7.187   5.034 -0.0058 -0.0113 -0.0641
 2912W        W 4209   5.299   5.404   4.065  0.1142 -0.0797 -0.0590
 2913W        W 4210   1.461   2.433   3.782  0.1861 -0.0899  0.2518
 2914W        W 4211   0.745   5.990   4.868 -0.1375  0.0184 -0.1455
 2915W        W 4212   1.063   4.207   6.948  0.0556  0.1399 -0.0805
 2916W        W 4213   0.086   6.571   1.191 -0.0124  0.0969  0.2464
 2917W        W 4214   6.011   6.666   5.954 -0.1849  0.1392 -0.1315
 2918W        W 4215   4.543   1.708   0.174 -0.0806  0.3016 -0.1134
 2919W        W 4216   6.020   7.345   5.455 -0.0932  0.0954  0.0110
 2920W        W 4217   2.426   1.182   5.414  0.0290  0.0119 -0.0944
 2921W        W 4218   3.618   4.439   4.097 -0.1076  0.3309  0.2280
 2922W        W 4219   1.421   6.096   5.283 -0.0854 -0.4255  0.1564
 2923W        W 4220   6.349   4.814   7.306  0.1478  0.3246  0.0439
 2924W        W 4221   3.192   4.311   0.711  0.1156 -0.1240  0.1623
 2925W        W 4222   1.461   5.616   4.101  0.1058 -0.0890  0.0089
 2926W        W 4223   6.692   4.893   4.421 -0.1238  0.1502 -0.2506
 2927W        W 4224   1.222   6.771   3.468  0.0201 -0.1111  0.2844
 2928W        W 4225   3.959   6.767   0.586 -0.0163  0.1528 -0.0677
 2929W        W 4226   0.391   6.227   6.103 -0.1923 -0.3171  0.1707
 2930W        W 4227   5.525   3.631   5.113  0.0921  0.1154 -0.0069
 2931W        W 4228   3.593   5.095   6.293 -0.0137  0.0007  0.0018
 2932W        W 4229   6.711   3.255   5.397 -0.0576 -0.1401 -0.3309
 2933W        W 4230   0.304   4.767   4.668 -0.0268 -0.1097  0.0586
 2934W        W 4231   5.493   3.311   5.479  0.0837 -0.1318  0.0778
 2935W        W 4232   6.052   1.556   1.610 -0.2351  0.3744 -0.3596
 2936W        W 4233   1.549   5.232   3.659  0.0395 -0.0967  0.3333
 2937W        W 4234   0.291   1.038   0.349 -0.1040  0.2027  0.1702
 2938W        W 4235   6.965   4.698   5.678 -0.1477 -0.0305  0.2393
 2939W        W 4236   3.331   4.862   0.841  0.1060  0.1138  0.2354
 2940W        W 4237   4.835   5.160   4.378 -0.3122 -0.2941  0.1042
 2941W        W 4238   5.570   3.996   6.044 -0.0923  0.0322 -0.2534
 2942W        W 4239   7.072   4.537   0.613  0.2013 -0.1382  0.1351
 2943W        W 4240   0.210   0.660   2.922  0.1323 -0.0484 -0.1618
 2944W        W 4241   0.052   4.281   4.001 -0.0983 -0.0802  0.1650
 2945W        W 4242   5.927   6.832   7.406  0.1828 -0.0980  0.1811
 2946W        W 4243   2.034   2.504   4.468  0.0742  0.0354 -0.3311
 2947W        W 4244   0.730   1.366   0.292 -0.0762 -0.2266  0.1532
 2948W        W 4245   1.286   2.737   1.609  0.1283 -0.1634  0.1837
 2949W        W 4246   5.133   4.340   2.442  0.0704 -0.0130  0.5568
 2950W        W 4247   5.629   4.178   7.432  0.1275 -0.2295  0.2206
 2951W        W 4248   7.243   6.169   2.240 -0.2320 -0.0459  0.1610
 2952W        W 4249   4.993   2.953   5.458  0.2136 -0.0720  0.0128
 2953W        W 4250   4.300   3.150   2.861  0.3108 -0.1546  0.1556
 2954W        W 4251   7.137   4.415   4.288  0.1720  0.3224  0.0435
 2955W        W 4252   2.822   3.710   1.290  0.1936 -0.0292  0.1516
 2956W        W 4253   7.406   1.870   0.096  0.0909 -0.2437  0.2773
 2957W        W 4254   5.740   3.615   6.350  0.3025 -0.0216  0.2369
 2958W        W 4255   4.474   6.544   4.285 -0.0988 -0.0547 -0.1748
 2959W        W 4256   3.412   2.246   3.423 -0.0397 -0.1127  0.3507
 2960W        W 4257   3.035   6.778   2.091 -0.0699  0.1074  0.1919
 2961W        W 4258   4.486   2.759   0.783  0.1468  0.0423 -0.0532
 2962W        W 4259   7.526   2.667   1.693  0.1714 -0.0317  0.2210
 2963W        W 4260   3.623   5.318   3.870  0.2141 -0.0690 -0.1079
 2964W        W 4261   2.084   4.315   6.404  0.2073 -0.3096  0.0380
 2965W        W 4262   0.444   4.219   1.578 -0.1467 -0.1660 -0.0591
 2966W        W 4263   1.352   1.681   7.426 -0.1814 -0.0929 -0.2407
 2967W        W 4264   5.922   0.010   7.546 -0.1878  0.0924  0.0965
 2968W        W 4265   4.889   6.858   7.025 -0.1595  0.0660 -0.1641
 2969W        W 4266   1.817   4.936   5.880  0.1377  0.1223 -0.1406
 2970W        W 4267   4.508   6.707   0.593  0.2795 -0.0315  0.1870
 2971W        W 4268   5.598   2.441   2.745 -0.0476 -0.0487 -0.0182
 2972W        W 4269   6.512   6.519   6.245 -0.1735 -0.1994 -0.0539
 2973W        W 4270   2.273   6.587   0.869  0.1928 -0.0223 -0.2237
 2974W        W 4271   5.894   4.961   2.324 -0.1074 -0.1102  0.0374
 2975W        W 4272   7.324   5.035   6.086  0.2713 -0.0209 -0.0982
 2976W        W 4273   2.296   4.312   5.509 -0.0425  0.0754  0.1136
 2977W        W 4274   4.687   6.067   6.546 -0.0157  0.0803  0.2975
 2978W        W 4275   4.115   4.647   7.415 -0.0537 -0.0092 -0.1571
 2979W        W 4276   6.561   5.486   3.524 -0.4341  0.2309 -0.1150
 2980W        W 4277   3.195   2.670   2.202  0.1686  0.1197  0.1806
 2981W        W 4278   5.002   1.304   4.813  0.0706 -0.1393  0.2498
 2982W        W 4279   3.250   2.068   4.771 -0.3729  0.1816  0.0668
 2983W        W 4280   0.531   5.104   1.961  0.2910  0.2455 -0.0725
 2984W        W 4281   4.216   1.868   3.097  0.0344 -0.2356  0.1593
 2985W        W 4282   1.477   6.191   2.138 -0.0301  0.2840 -0.1387
 2986W        W 4283   3.479   2.639   3.025  0.2985  0.1920 -0.0354
 2987W        W 4284   2.979   3.819   7.271 -0.0312  0.0606  0.0472
 2988W        W 4285   5.227   1.824   4.643  0.3090 -0.1478 -0.3001
 2989W        W 4286   0.053   5.961   0.848  0.0827  0.1079  0.0007
 2990W        W 4287   2.519   4.699   0.960 -0.1965 -0.2036  0.1614
 2991W        W 4288   2.267   2.813   3.238 -0.0748 -0.0138 -0.3126
 2992W        W 4289   4.960   3.877   3.449  0.3027 -0.0798 -0.0306
 2993W        W 4290   6.161   1.141   1.376  0.1296 -0.0278 -0.1272
 2994W        W 4291   1.663   5.894   7.385  0.5130  0.1685 -0.0145
 2995W        W 4292   1.315   4.760   0.566 -0.1297  0.0263  0.1934
 2996W        W 4293   4.453   6.750   3.838 -0.2472 -0.2208  0.0787
 2997W        W 4294   4.599   4.522   0.509 -0.2865 -0.2545 -0.1596
 2998W        W 4295   4.457   2.346   3.276  0.0734 -0.1733 -0.0914
 2999W        W 4296   4.876   0.928   0.586 -0.1896  0.0479  0.1634
 3000W        W 4297   3.014   4.959   6.874 -0.1463 -0.3840  0.0389
 3001W        W 4298   0.899   3.478   6.341  0.2083  0.0488 -0.0568
 3002W        W 4299   2.726   1.563   4.423 -0.0925  0.1180  0.1732
 3003W        W 4300   2.500   1.508   3.946 -0.1281  0.0989  0.2265
 3004W        W 4301   1.460   5.314   5.933 -0.1046 -0.0305 -0.0589
 3005W        W 4302   3.441   7.053   4.875 -0.2829  0.2001 -0.2305
 3006W        W 4303   4.154   0.544   3.750  0.0617 -0.1566 -0.1890
 3007W        W 4304   3.392   4.326   2.678  0.1248  0.0713  0.0064
 3008W        W 4305   4.887   6.157   1.017 -0.2328  0.2825  0.0016
 3009W        W 4306   4.924   4.888   0.583 -0.1384 -0.2904 -0.1547
 3010W        W 4307   6.239   2.022   6.964  0.2447  0.0093  0.0689
 3011W        W 4308   0.133   7.467   2.157 -0.2703 -0.0652 -0.0698
 3012W        W 4309   7.522   4.257   1.747  0.1918  0.4261  0.0642
 3013W        W 4310   5.970   1.628   4.160 -0.2600 -0.0665 -0.1745
 3014W        W 4311   4.825   3.857   1.687 -0.0312 -0.1930  0.0569
 3015W        W 4312   1.387   4.875   0.084 -0.0081  0.0315  0.2969
 3016W        W 4313   1.892   4.574   1.889  0.1843  0.1090 -0.0669
 3017W        W 4314   7.233   4.695   1.645  0.0347 -0.2018  0.3222
 3018W        W 4315   4.172   6.140   5.277 -0.0964 -0.3594 -0.0502
 3019W        W 4316   6.205   2.984   6.097  0.1658 -0.0837  0.0159
 3020W        W 4317   4.287   0.145   5.169 -0.2703  0.0965  0.0139
 3021W        W 4318   2.079   4.874   4.309  0.1150 -0.1073 -0.1052
 3022W        W 4319   1.031   1.702   6.999  0.3316  0.2884 -0.1031
 3023W        W 4320   3.585   3.747   7.374 -0.0308 -0.1442 -0.4337
 3024W        W 4321   6.590   6.379   3.071  0.0082  0.0014  0.1296
 3025W        W 4322   4.619   1.907   4.229  0.0393 -0.0787  0.2783
 3026W        W 4323   6.861   7.247   3.245 -0.0877  0.1619  0.0018
 3027W        W 4324   6.752   3.457   0.761 -0.5090 -0.5105  0.2478
 3028W        W 4325   4.625   5.058   1.906  0.0653 -0.1986 -0.1912
 3029W        W 4326   5.486   7.214   5.550 -0.1233 -0.0803 -0.3198
 3030W        W 4327   3.983   5.774   1.525  0.1724 -0.2204 -0.1421
 3031W        W 4328   1.087   2.109   2.767 -0.0055 -0.1390 -0.0792
 3032W        W 4329   1.194   5.482   3.300 -0.0066 -0.2041  0.0798
 3033W        W 4330   3.993   0.081   5.616 -0.2082  0.0900  0.1592
 3034W        W 4331   1.946   4.626   6.841  0.1431 -0.0513  0.0247
 3035W        W 4332   3.870   5.115   2.977 -0.0575  0.5115  0.0733
 3036W        W 4333   1.503   2.801   2.341 -0.0700  0.0824  0.2431
 3037W        W 4334   4.405   7.346   4.024  0.0939  0.4345  0.0735
 3038W        W 4335   1.140   1.653   0.261  0.0982  0.1369  0.0062
 3039W        W 4336   6.890   1.591   0.840 -0.0197  0.5521  0.4170
 3040W        W 4337   3.502   6.205   6.113 -0.0802 -0.1043 -0.2549
 3041W        W 4338   0.081   1.950   6.874  0.1740  0.1275 -0.0042
 3042W        W 4339   3.542   6.707   6.948  0.1762 -0.0371 -0.1126
 3043W        W 4340   0.439   2.861   5.711 -0.1956 -0.0981  0.2088
 3044W        W 4341   6.195   3.912   6.721  0.3867 -0.1095  0.2430
 3045W        W 4342   1.583   6.752   0.276 -0.3036 -0.0715  0.2812
 3046W        W 4343   4.505   6.073   4.479 -0.0697 -0.1457  0.0057
 3047W        W 4344   4.694   0.366   4.292  0.1220 -0.2387 -0.1124
 3048W        W 4345   0.615   7.190   2.046  0.0684  0.3121  0.1826
 3049W        W 4346   4.717   1.263   7.341  0.1299 -0.2088  0.1185
 3050W        W 4347   4.651   4.552   6.132  0.1288  0.2600 -0.0921
 3051W        W 4348   0.838   1.687   7.493  0.1781  0.0445  0.0809
 3052W        W 4349   1.527   5.738   3.566 -0.1212 -0.2546 -0.1912
 3053W        W 4350   7.446   4.630   2.106  0.2350 -0.4835  0.1518
 3054W        W 4351   6.388   5.537   5.997  0.1869 -0.0439  0.1708
 3055W        W 4352   3.027   4.853   6.342  0.2212 -0.3525 -0.1200
 3056W        W 4353   4.824   0.330   4.812  0.3606 -0.3818  0.2251
 3057W        W 4354   5.358   3.554   0.338  0.3608 -0.0809 -0.1336
 3058W        W 4355   5.596   1.742   1.572 -0.2689  0.1453  0.1026
 3059W        W 4356   5.649   2.519   7.065  0.0706 -0.1116  0.1936
 3060W        W 4357   0.544   6.488   5.718  0.2408  0.0173 -0.1114
 3061W        W 4358   7.590   4.918   5.667 -0.0646 -0.2201  0.3161
 3062W        W 4359   1.325   3.028   2.772  0.2558  0.2123  0.1979
 3063W        W 4360   6.269   0.235   6.552  0.2484  0.0694  0.0162
 3064W        W 4361   7.148   5.414   7.509 -0.2172 -0.1679  0.1813
 3065W        W 4362   4.457   2.695   6.496  0.1651  0.3531 -0.3476
 3066W        W 4363   2.607   3.075   6.131  0.2402  0.2276  0.0035
 3067W        W 4364   2.028   2.919   5.297 -0.0431 -0.0711  0.1277
 3068W        W 4365   0.458   1.897   1.410 -0.0934  0.0623  0.1421
 3069W        W 4366   6.089   0.297   1.962  0.2660  0.1855 -0.1876
 3070W        W 4367   7.598   4.610   0.228 -0.2308 -0.2012  0.3363
 3071W        W 4368   2.340   5.625   0.634 -0.1474 -0.2071 -0.2268
 3072W        W 4369   2.432   5.084   0.010 -0.0824 -0.1073 -0.4582
 3073W        W 4370   4.189   2.896   5.248  0.0723 -0.1167  0.1585
 3074W        W 4371   3.041   6.375   6.133 -0.0150  0.0748 -0.1789
 3075W        W 4372   1.506   5.067   3.180  0.1101  0.0759 -0.0936
 3076W        W 4373   6.912   6.012   7.537 -0.2091  0.0627 -0.0786
 3077W        W 4374   2.310   4.449   2.331  0.0252 -0.2054 -0.1249
 3078W        W 4375   2.702   4.224   7.251  0.1459 -0.3264 -0.1454
 3079W        W 4376   0.279   4.982   1.258 -0.0426 -0.0618  0.1981
 3080W        W 4377   3.693   5.322   3.364  0.0318 -0.0088  0.2167
 3081W        W 4378   5.981   0.213   1.489  0.1369  0.0640 -0.5191
 3082W        W 4379   6.774   2.823   4.439 -0.2625 -0.0486  0.2632
 3083W        W 4380   1.568   5.491   4.582  0.0401 -0.1947 -0.0473
   7.62593   7.62593   7.62593
