Martini system from ../2_Creating_coordinates/TYR-ASN-TYR_aa.pdb
 4195
    1TYR     BB    1   0.508   4.335   2.358 -0.0946  0.2148 -0.3108
    1TYR    SC1    2   0.404   4.120   2.447  0.0020  0.0249  0.0714
    1TYR    SC2    3   0.373   3.917   2.623  0.0381  0.4111  0.5496
    1TYR    SC3    4   0.157   4.053   2.533 -0.0164  0.0049  0.0036
    2ASN     BB    5   0.281   4.484   2.176  0.1647  0.3110  0.0503
    2ASN    SC1    6   0.064   4.541   2.406  0.0504 -0.1781  0.0297
    3TYR     BB    7   0.394   4.653   1.927  0.0828 -0.0550  0.0799
    3TYR    SC1    8   0.711   4.635   1.990  0.2872  0.1352 -0.1943
    3TYR    SC2    9   0.934   4.482   1.982  0.2709  0.0705  0.2591
    3TYR    SC3   10   0.954   4.748   2.025  0.2636  0.0762  0.2274
    1TYR     BB   11   0.283   1.149   2.536 -0.0641  0.2568 -0.0861
    1TYR    SC1   12   0.226   1.108   2.797  0.1674  0.1051  0.1648
    1TYR    SC2   13   0.200   0.996   3.041  0.2303  0.0269  0.1363
    1TYR    SC3   14   0.215   1.264   3.016  0.0226  0.0469  0.2006
    2ASN     BB   15   0.227   1.071   2.263  0.1528 -0.0912  0.3162
    2ASN    SC1   16   0.520   1.134   2.075 -0.0160 -0.2302  0.1737
    3TYR     BB   17   0.074   0.872   2.074  0.2044 -0.2208 -0.2977
    3TYR    SC1   18   0.129   0.714   1.834  0.2115 -0.1986  0.0528
    3TYR    SC2   19   0.025   0.570   1.631  0.0748 -0.2890  0.1838
    3TYR    SC3   20   0.256   0.706   1.596 -0.0022 -0.2142 -0.0640
    1TYR     BB   21   3.197   4.585   6.734 -0.0156 -0.1142 -0.1712
    1TYR    SC1   22   3.419   4.626   6.954 -0.2028 -0.0992 -0.3460
    1TYR    SC2   23   3.518   4.770   7.160 -0.0322 -0.1363 -0.3996
    1TYR    SC3   24   3.392   4.536   7.208 -0.0070 -0.1373 -0.3369
    2ASN     BB   25   2.990   4.784   6.855 -0.1745 -0.0505 -0.2585
    2ASN    SC1   26   2.701   4.721   6.906  0.0926  0.1453 -0.1751
    3TYR     BB   27   3.100   5.022   7.077  0.2645  0.0003  0.2888
    3TYR    SC1   28   2.812   5.122   7.175  0.1903 -0.0930  0.1141
    3TYR    SC2   29   2.564   5.155   7.074  0.3036 -0.0716 -0.1681
    3TYR    SC3   30   2.597   5.044   7.318  0.0089  0.1155 -0.0367
    1TYR     BB   31   6.385   4.855   0.170  0.0701  0.0079  0.2660
    1TYR    SC1   32   6.379   4.583   0.016  0.2000  0.1751  0.0548
    1TYR    SC2   33   6.578   4.407  -0.031  0.2064  0.2165 -0.0763
    1TYR    SC3   34   6.366   4.418  -0.197 -0.0037  0.0356  0.1709
    2ASN     BB   35   6.647   4.933   0.336  0.2194  0.1806 -0.3479
    2ASN    SC1   36   6.739   5.210   0.206  0.1008  0.3942  0.1351
    3TYR     BB   37   6.934   4.765   0.338 -0.2730  0.0706  0.2433
    3TYR    SC1   38   6.946   4.458   0.252  0.2539  0.1157  0.1846
    3TYR    SC2   39   6.881   4.201   0.200  0.0581  0.1506  0.2493
    3TYR    SC3   40   7.131   4.290   0.149  0.0189  0.0541 -0.1596
    1TYR     BB   41   7.520   2.149   3.371  0.1126 -0.1581  0.0338
    1TYR    SC1   42   7.442   2.363   3.526  0.0513 -0.1142 -0.1647
    1TYR    SC2   43   7.230   2.504   3.617  0.0849 -0.0333 -0.2094
    1TYR    SC3   44   7.480   2.606   3.638  0.1191 -0.1238 -0.1660
    2ASN     BB   45   7.807   2.094   3.299  0.3961  0.1645 -0.1866
    2ASN    SC1   46   7.902   1.806   3.425 -0.0505 -0.0078  0.2026
    3TYR     BB   47   7.998   2.176   3.086  0.3459 -0.0488  0.1113
    3TYR    SC1   48   8.081   1.894   2.965 -0.0460 -0.0504  0.0955
    3TYR    SC2   49   7.979   1.649   2.914 -0.2200 -0.0346  0.3497
    3TYR    SC3   50   8.244   1.691   2.892 -0.1759 -0.2724  0.3970
    1TYR     BB   51   6.428   2.641   0.941 -0.0089 -0.0730  0.1175
    1TYR    SC1   52   6.173   2.822   1.016 -0.1563 -0.3146 -0.0858
    1TYR    SC2   53   6.010   2.972   1.170  0.0927 -0.1910  0.0647
    1TYR    SC3   54   5.931   2.897   0.923 -0.1012  0.0544  0.0475
    2ASN     BB   55   6.666   2.773   1.181 -0.0979  0.0177  0.0668
    2ASN    SC1   56   6.525   2.856   1.377 -0.0350 -0.0109  0.0606
    3TYR     BB   57   6.915   2.875   1.117 -0.1516 -0.3828 -0.1002
    3TYR    SC1   58   6.972   3.039   0.839 -0.1649  0.0002  0.1528
    3TYR    SC2   59   6.968   3.029   0.569 -0.0300 -0.1762  0.1548
    3TYR    SC3   60   7.137   3.197   0.696  0.0050 -0.1921  0.1296
    1TYR     BB   61   6.482   1.875   3.397  0.0962  0.0269  0.1943
    1TYR    SC1   62   6.616   1.764   3.147 -0.0157 -0.0628 -0.1483
    1TYR    SC2   63   6.729   1.819   2.908  0.0293 -0.1289 -0.1422
    1TYR    SC3   64   6.689   1.562   2.984 -0.0858 -0.1068 -0.1260
    2ASN     BB   65   6.439   1.594   3.575 -0.0907  0.2030  0.0487
    2ASN    SC1   66   6.111   1.611   3.661  0.2506  0.3144 -0.1309
    3TYR     BB   67   6.633   1.352   3.473 -0.1381 -0.0436 -0.0661
    3TYR    SC1   68   6.877   1.279   3.627 -0.0794 -0.3580  0.1791
    3TYR    SC2   69   7.126   1.187   3.581  0.0140  0.0255 -0.1535
    3TYR    SC3   70   7.090   1.411   3.727 -0.1525 -0.1098  0.0195
    1TYR     BB   71   1.295   2.378   2.975  0.4292  0.1900  0.2044
    1TYR    SC1   72   1.293   2.267   2.709  0.1372  0.1419  0.0401
    1TYR    SC2   73   1.123   2.233   2.502  0.3163  0.0919 -0.1018
    1TYR    SC3   74   1.389   2.233   2.459  0.3529  0.2287  0.1090
    2ASN     BB   75   1.157   2.637   3.170  0.0025 -0.0596 -0.2875
    2ASN    SC1   76   1.422   2.798   3.294 -0.1699 -0.3246  0.0279
    3TYR     BB   77   0.848   2.627   3.197 -0.2650  0.1861 -0.1744
    3TYR    SC1   78   0.706   2.856   3.317  0.1302  0.1225 -0.1675
    3TYR    SC2   79   0.584   3.096   3.332 -0.2932 -0.0826 -0.1525
    3TYR    SC3   80   0.603   2.941   3.552 -0.0864 -0.0971 -0.1781
    1TYR     BB   81   7.053   4.166   7.064  0.0435 -0.4272 -0.4067
    1TYR    SC1   82   6.909   4.237   6.816  0.0199  0.1319  0.0733
    1TYR    SC2   83   6.733   4.126   6.644  0.1370 -0.2479  0.1855
    1TYR    SC3   84   6.995   4.143   6.578  0.1898 -0.4338  0.3344
    2ASN     BB   85   6.934   4.063   7.347 -0.2245 -0.0513  0.1761
    2ASN    SC1   86   7.216   3.938   7.466  0.0621 -0.1393 -0.0390
    3TYR     BB   87   6.704   3.952   7.333  0.0607 -0.0511 -0.0376
    3TYR    SC1   88   6.587   3.899   7.601 -0.1432 -0.0442 -0.0880
    3TYR    SC2   89   6.382   3.889   7.777  0.0051  0.4610  0.1381
    3TYR    SC3   90   6.631   3.820   7.855 -0.0083  0.2072 -0.0288
    1TYR     BB   91   0.571   2.099   2.047  0.0328  0.4251 -0.1246
    1TYR    SC1   92   0.724   1.969   2.288  0.1647 -0.1899  0.0111
    1TYR    SC2   93   0.680   1.944   2.553  0.1031  0.3649  0.0683
    1TYR    SC3   94   0.904   1.841   2.443  0.0078 -0.0985  0.2767
    2ASN     BB   95   0.400   1.839   1.866  0.1587  0.0757 -0.0452
    2ASN    SC1   96   0.137   1.931   1.757 -0.0105  0.0518 -0.0509
    3TYR     BB   97   0.435   1.533   1.836  0.1009 -0.3940  0.5070
    3TYR    SC1   98   0.592   1.403   1.627 -0.2336 -0.2221 -0.0487
    3TYR    SC2   99   0.733   1.341   1.405  0.1638  0.0257  0.1208
    3TYR    SC3  100   0.806   1.239   1.644 -0.1901 -0.1476  0.1623
    1TYR     BB  101   4.144   4.250   0.354  0.1721  0.2578  0.0615
    1TYR    SC1  102   4.033   3.994   0.413  0.3798 -0.4676 -0.1520
    1TYR    SC2  103   4.016   3.800   0.600  0.1452 -0.3171 -0.0111
    1TYR    SC3  104   3.866   3.786   0.376 -0.0796 -0.1710  0.1247
    2ASN     BB  105   4.133   4.200  -0.015 -0.0434 -0.0022 -0.0147
    2ASN    SC1  106   3.938   4.000  -0.130 -0.1779  0.1977 -0.0058
    3TYR     BB  107   4.289   4.328  -0.254 -0.3499 -0.2648  0.1938
    3TYR    SC1  108   4.132   4.318  -0.530  0.0821  0.0000 -0.2186
    3TYR    SC2  109   4.028   4.291  -0.778  0.0330 -0.1706 -0.1809
    3TYR    SC3  110   3.867   4.273  -0.562  0.0676  0.0248 -0.1366
    1TYR     BB  111   4.325   5.473   6.131 -0.2527 -0.0648  0.1433
    1TYR    SC1  112   4.372   5.213   5.964 -0.2152 -0.1474 -0.0371
    1TYR    SC2  113   4.609   5.103   5.894 -0.2489 -0.1066 -0.2200
    1TYR    SC3  114   4.397   4.944   5.949 -0.1608 -0.1461  0.0221
    2ASN     BB  115   4.414   5.432   6.412 -0.0525  0.0325 -0.0244
    2ASN    SC1  116   4.550   5.679   6.521  0.0332  0.0379 -0.0665
    3TYR     BB  117   4.366   5.093   6.519 -0.0470 -0.2046  0.3014
    3TYR    SC1  118   4.573   4.929   6.341 -0.2757 -0.3874 -0.1485
    3TYR    SC2  119   4.638   4.684   6.249  0.3114 -0.3545  0.1231
    3TYR    SC3  120   4.777   4.792   6.453 -0.2536  0.0122  0.3417
    1TYR     BB  121   7.371   3.859   1.390 -0.1843 -0.0090  0.2370
    1TYR    SC1  122   7.264   3.768   1.636 -0.0841 -0.1325 -0.0367
    1TYR    SC2  123   7.028   3.733   1.763 -0.0527 -0.1416  0.0193
    1TYR    SC3  124   7.240   3.833   1.897 -0.1114  0.1716 -0.1104
    2ASN     BB  125   7.341   4.190   1.318 -0.2725  0.2698 -0.6062
    2ASN    SC1  126   7.231   4.302   1.630 -0.0258 -0.2106  0.3118
    3TYR     BB  127   7.326   4.349   1.035 -0.1655 -0.2106 -0.0801
    3TYR    SC1  128   7.618   4.487   0.940 -0.1925  0.1564  0.0306
    3TYR    SC2  129   7.816   4.475   0.757 -0.1177 -0.0556  0.1209
    3TYR    SC3  130   7.876   4.508   1.019 -0.2304  0.3997  0.1001
    1TYR     BB  131   0.759   2.990   0.854 -0.1612 -0.2460 -0.0991
    1TYR    SC1  132   0.819   3.007   0.553 -0.1426 -0.0311 -0.0538
    1TYR    SC2  133   1.012   3.067   0.373  0.1575 -0.2021  0.1991
    1TYR    SC3  134   0.753   3.118   0.316  0.2652 -0.0459 -0.1838
    2ASN     BB  135   0.721   3.276   0.960 -0.1108  0.5313  0.1894
    2ASN    SC1  136   0.591   3.478   0.733  0.4214 -0.0070  0.2991
    3TYR     BB  137   0.735   3.461   1.262 -0.0891  0.2353  0.3654
    3TYR    SC1  138   0.694   3.743   1.186 -0.2118  0.0272 -0.1634
    3TYR    SC2  139   0.678   3.900   0.967 -0.3516  0.3220  0.0513
    3TYR    SC3  140   0.776   4.000   1.199 -0.0581 -0.0301  0.0895
    1TYR     BB  141   1.220   3.328   1.310  0.0531  0.3165 -0.0617
    1TYR    SC1  142   1.519   3.348   1.188  0.4284 -0.2099  0.0148
    1TYR    SC2  143   1.714   3.237   1.038  0.1813 -0.0231 -0.4749
    1TYR    SC3  144   1.633   3.490   0.988  0.1323  0.0756  0.0376
    2ASN     BB  145   1.292   3.306   1.610  0.1119 -0.1205  0.0397
    2ASN    SC1  146   1.334   3.032   1.738  0.1704  0.2052  0.0079
    3TYR     BB  147   1.139   3.511   1.790  0.3861 -0.0308 -0.1938
    3TYR    SC1  148   0.828   3.588   1.745 -0.0152 -0.1070  0.1148
    3TYR    SC2  149   0.568   3.529   1.786 -0.1045 -0.0247 -0.2811
    3TYR    SC3  150   0.636   3.729   1.618  0.2180 -0.0583 -0.1986
    1TYR     BB  151   4.067   5.869   6.572  0.3192  0.0458 -0.4046
    1TYR    SC1  152   4.144   5.955   6.337 -0.1633 -0.0361  0.1341
    1TYR    SC2  153   4.120   5.885   6.077 -0.1966 -0.1701  0.1723
    1TYR    SC3  154   4.116   6.146   6.148  0.2165 -0.1064 -0.0050
    2ASN     BB  155   3.748   5.649   6.609  0.0406 -0.2408 -0.1002
    2ASN    SC1  156   3.910   5.415   6.547 -0.3543  0.5534 -0.3621
    3TYR     BB  157   3.546   5.841   6.758  0.2129  0.3337  0.3004
    3TYR    SC1  158   3.364   5.652   6.905  0.2258 -0.2768 -0.0960
    3TYR    SC2  159   3.181   5.709   7.095  0.3320 -0.1617 -0.0255
    3TYR    SC3  160   3.175   5.470   6.968  0.2947 -0.2633  0.1630
    1TYR     BB  161   6.580   3.260   1.093  0.0282 -0.2060  0.1520
    1TYR    SC1  162   6.868   3.397   1.158  0.2640 -0.3625  0.2224
    1TYR    SC2  163   7.002   3.589   1.293 -0.0198  0.2555 -0.3092
    1TYR    SC3  164   7.027   3.570   1.025 -0.3859 -0.1339 -0.3287
    2ASN     BB  165   6.580   3.310   0.683  0.2560  0.1190  0.1492
    2ASN    SC1  166   6.426   3.023   0.648  0.0343 -0.0137  0.1467
    3TYR     BB  167   6.692   3.498   0.575  0.1994  0.2193 -0.0008
    3TYR    SC1  168   6.947   3.614   0.473  0.1114  0.0184 -0.1380
    3TYR    SC2  169   7.207   3.684   0.493  0.0804  0.0672  0.1421
    3TYR    SC3  170   7.047   3.807   0.314  0.2563  0.0117 -0.0573
    1TYR     BB  171   5.502   4.426   6.750 -0.1833  0.1257 -0.0946
    1TYR    SC1  172   5.368   4.458   6.458 -0.2511 -0.1029 -0.1850
    1TYR    SC2  173   5.130   4.530   6.351 -0.2129 -0.0032 -0.2043
    1TYR    SC3  174   5.306   4.384   6.206 -0.0940  0.2676 -0.3404
    2ASN     BB  175   5.350   4.291   6.997  0.0310  0.1822  0.4006
    2ASN    SC1  176   5.137   4.125   6.827  0.2645  0.1297  0.2683
    3TYR     BB  177   5.652   4.213   7.220  0.2202  0.1086  0.2681
    3TYR    SC1  178   5.498   4.209   7.491 -0.0082  0.1398 -0.1048
    3TYR    SC2  179   5.593   4.149   7.737  0.0950  0.2003 -0.1291
    3TYR    SC3  180   5.327   4.174   7.698  0.0758  0.1567 -0.0315
    1TYR     BB  181   5.566   3.465   1.494 -0.0145 -0.3591 -0.4566
    1TYR    SC1  182   5.435   3.713   1.418  0.1784 -0.3883  0.2367
    1TYR    SC2  183   5.296   3.795   1.201  0.1441 -0.4408  0.2387
    1TYR    SC3  184   5.286   3.938   1.429  0.2770 -0.3185  0.1697
    2ASN     BB  185   5.813   3.425   1.284  0.0430  0.1960  0.0880
    2ASN    SC1  186   5.658   3.362   1.039  0.0152 -0.1686 -0.1722
    3TYR     BB  187   6.035   3.490   1.352  0.2024  0.2983 -0.2418
    3TYR    SC1  188   6.048   3.581   1.661  0.1191 -0.1432 -0.0583
    3TYR    SC2  189   6.134   3.657   1.905  0.2409 -0.1636 -0.0938
    3TYR    SC3  190   5.880   3.571   1.872  0.1460  0.0777 -0.0233
    1TYR     BB  191   4.641   4.525   1.108 -0.1458  0.2991  0.2679
    1TYR    SC1  192   4.393   4.594   0.951  0.0366 -0.0493 -0.2296
    1TYR    SC2  193   4.215   4.566   0.750 -0.0800  0.1181 -0.1519
    1TYR    SC3  194   4.137   4.672   0.987  0.0138 -0.2326  0.0442
    2ASN     BB  195   4.903   4.587   0.909  0.0512 -0.1128  0.0540
    2ASN    SC1  196   5.018   4.841   1.022 -0.1152  0.0522  0.2651
    3TYR     BB  197   4.737   4.557   0.571 -0.0688  0.0351 -0.0869
    3TYR    SC1  198   4.582   4.298   0.645  0.0018 -0.1459 -0.0488
    3TYR    SC2  199   4.409   4.096   0.691 -0.2509  0.0305 -0.1941
    3TYR    SC3  200   4.602   4.068   0.504 -0.1432 -0.1530 -0.0598
    1TYR     BB  201   3.470   5.086   6.733 -0.0277  0.1509  0.0818
    1TYR    SC1  202   3.564   5.222   6.967 -0.0311 -0.3001  0.2222
    1TYR    SC2  203   3.575   5.354   7.202 -0.0473  0.1378 -0.0096
    1TYR    SC3  204   3.800   5.319   7.056 -0.0357 -0.1400  0.0673
    2ASN     BB  205   3.656   4.927   6.435 -0.2063  0.0613  0.0710
    2ASN    SC1  206   3.414   4.852   6.299 -0.0750 -0.0265 -0.0372
    3TYR     BB  207   3.963   5.028   6.230  0.0042  0.0009 -0.0974
    3TYR    SC1  208   4.121   4.748   6.265 -0.2298 -0.1601  0.0074
    3TYR    SC2  209   4.204   4.512   6.366 -0.0342 -0.0406  0.1356
    3TYR    SC3  210   4.241   4.567   6.104 -0.1810 -0.1932  0.0804
    1TYR     BB  211   0.073   4.185   1.621 -0.0143  0.0243 -0.1318
    1TYR    SC1  212   0.070   4.463   1.507  0.3097 -0.0576 -0.3526
    1TYR    SC2  213   0.146   4.720   1.477 -0.0902  0.1175  0.0075
    1TYR    SC3  214  -0.075   4.629   1.352  0.0513 -0.0593 -0.1213
    2ASN     BB  215   0.174   4.126   1.873 -0.1855  0.0418  0.0924
    2ASN    SC1  216  -0.030   4.156   2.096  0.3008  0.2272  0.0495
    3TYR     BB  217   0.391   3.942   1.988 -0.0386  0.2002 -0.1824
    3TYR    SC1  218   0.671   3.995   2.003  0.0568  0.0429  0.2061
    3TYR    SC2  219   0.938   3.967   2.022  0.0584 -0.1764 -0.0601
    3TYR    SC3  220   0.831   4.113   1.821 -0.0236 -0.0302  0.0860
    1TYR     BB  221   4.219   4.148   1.119 -0.2253  0.2099  0.0903
    1TYR    SC1  222   4.008   4.208   0.933 -0.0137  0.1878  0.0771
    1TYR    SC2  223   3.802   4.207   0.757  0.1291  0.4549 -0.1011
    1TYR    SC3  224   3.799   4.376   0.968 -0.1783 -0.0603  0.3413
    2ASN     BB  225   4.101   4.418   1.410 -0.0259 -0.0177  0.2539
    2ASN    SC1  226   3.858   4.279   1.446 -0.0401 -0.1089  0.0151
    3TYR     BB  227   4.256   4.627   1.476 -0.1001  0.0164 -0.2335
    3TYR    SC1  228   4.465   4.843   1.422 -0.0450  0.1518 -0.2242
    3TYR    SC2  229   4.534   5.001   1.214  0.0794  0.0217 -0.2836
    3TYR    SC3  230   4.685   4.998   1.438  0.0235  0.0576 -0.2450
    1TYR     BB  231   4.393   6.523   6.979 -0.1237  0.4439  0.1748
    1TYR    SC1  232   4.144   6.427   6.845 -0.2924 -0.1160  0.3192
    1TYR    SC2  233   3.987   6.384   6.630 -0.1125  0.0544  0.1483
    1TYR    SC3  234   3.936   6.256   6.862 -0.3196 -0.1209  0.0113
    2ASN     BB  235   4.432   6.860   6.983 -0.0551 -0.0312  0.1392
    2ASN    SC1  236   4.748   7.003   7.049 -0.1763  0.4722 -0.0383
    3TYR     BB  237   4.085   6.926   6.926  0.0600 -0.2933 -0.0228
    3TYR    SC1  238   3.947   6.758   7.116 -0.1584 -0.1925  0.0337
    3TYR    SC2  239   3.765   6.561   7.144 -0.3945  0.0156  0.0096
    3TYR    SC3  240   3.813   6.731   7.348 -0.1469 -0.0988  0.0519
    1TYR     BB  241   1.059   2.225   2.031  0.3389  0.2114 -0.1737
    1TYR    SC1  242   1.214   1.956   2.083 -0.2013 -0.1093 -0.4075
    1TYR    SC2  243   1.372   1.832   2.263 -0.3284 -0.0829 -0.2760
    1TYR    SC3  244   1.390   1.768   2.002 -0.0373 -0.0165 -0.2767
    2ASN     BB  245   0.889   2.274   1.757 -0.1474  0.2949  0.3411
    2ASN    SC1  246   0.919   2.615   1.712  0.2883  0.4264  0.3063
    3TYR     BB  247   0.852   2.013   1.636 -0.0222  0.2521 -0.2094
    3TYR    SC1  248   0.915   1.766   1.811  0.3938  0.1277 -0.1072
    3TYR    SC2  249   0.862   1.608   2.023 -0.1534  0.2258 -0.1522
    3TYR    SC3  250   1.047   1.532   1.842  0.2591  0.0945  0.2950
    1TYR     BB  251   3.796   4.654   0.478  0.1038  0.1753 -0.1622
    1TYR    SC1  252   3.538   4.587   0.640 -0.1004  0.0748  0.0446
    1TYR    SC2  253   3.271   4.631   0.638 -0.0934  0.1870  0.4463
    1TYR    SC3  254   3.385   4.501   0.845  0.1169 -0.2560  0.0777
    2ASN     BB  255   3.756   4.441   0.182 -0.2522 -0.2370 -0.0990
    2ASN    SC1  256   3.562   4.243   0.324  0.3693  0.0141 -0.1028
    3TYR     BB  257   3.786   4.495  -0.116  0.1505 -0.0925  0.0656
    3TYR    SC1  258   3.953   4.694  -0.277 -0.1473 -0.0691 -0.0210
    3TYR    SC2  259   3.929   4.958  -0.328 -0.0264 -0.0365  0.0851
    3TYR    SC3  260   4.169   4.837  -0.353 -0.0296 -0.0839  0.2712
    1TYR     BB  261   0.868   4.031   2.544 -0.3898 -0.0752  0.1411
    1TYR    SC1  262   0.723   3.784   2.432 -0.3589 -0.1199  0.0814
    1TYR    SC2  263   0.620   3.598   2.266 -0.2351 -0.2331  0.1293
    1TYR    SC3  264   0.794   3.525   2.459 -0.0183 -0.0395  0.0128
    2ASN     BB  265   1.067   4.265   2.472  0.0068  0.0694 -0.0282
    2ASN    SC1  266   0.985   4.571   2.521 -0.0952  0.0663  0.2947
    3TYR     BB  267   1.307   4.216   2.383  0.1292 -0.0258  0.1466
    3TYR    SC1  268   1.346   4.320   2.095 -0.2533  0.0706 -0.1050
    3TYR    SC2  269   1.325   4.350   1.828 -0.1794  0.1053 -0.1074
    3TYR    SC3  270   1.441   4.543   1.977  0.0626 -0.0481 -0.0900
    1TYR     BB  271   5.497   3.006   7.632  0.1164  0.3706 -0.0413
    1TYR    SC1  272   5.796   2.878   7.748 -0.0665  0.1440 -0.0191
    1TYR    SC2  273   5.971   2.978   7.927 -0.0243  0.2011 -0.0916
    1TYR    SC3  274   6.042   2.768   7.773 -0.0617  0.1501 -0.0397
    2ASN     BB  275   5.390   3.199   7.877 -0.3464 -0.0525  0.0770
    2ASN    SC1  276   5.106   3.243   7.847 -0.0214 -0.1945 -0.2732
    3TYR     BB  277   5.680   3.332   8.083 -0.0185 -0.3558 -0.0286
    3TYR    SC1  278   5.568   3.617   8.208  0.0757 -0.0128  0.0606
    3TYR    SC2  279   5.356   3.738   8.093  0.1947  0.1108 -0.0319
    3TYR    SC3  280   5.371   3.720   8.362 -0.0686 -0.1497 -0.0281
    1TYR     BB  281   7.120   2.038   3.092  0.0988 -0.1989 -0.3259
    1TYR    SC1  282   7.064   1.801   3.224  0.0133 -0.0053  0.0409
    1TYR    SC2  283   6.962   1.716   3.459 -0.0192 -0.2873 -0.0699
    1TYR    SC3  284   7.157   1.574   3.337  0.0891 -0.0737 -0.1520
    2ASN     BB  285   6.869   2.247   3.148  0.0347 -0.0238 -0.1262
    2ASN    SC1  286   6.838   2.201   3.453  0.3516  0.1049  0.1477
    3TYR     BB  287   6.739   2.513   3.033 -0.0141 -0.0635  0.1467
    3TYR    SC1  288   6.696   2.711   3.312 -0.4603  0.1174 -0.1143
    3TYR    SC2  289   6.582   2.818   3.532 -0.1841  0.0954  0.0448
    3TYR    SC3  290   6.850   2.828   3.500 -0.2324  0.2757 -0.3890
    1TYR     BB  291   2.643   5.646   6.835 -0.0859 -0.0997  0.0564
    1TYR    SC1  292   2.778   5.394   6.775  0.0267 -0.1614  0.1970
    1TYR    SC2  293   2.710   5.164   6.651 -0.1729 -0.0095  0.0147
    1TYR    SC3  294   2.964   5.256   6.637 -0.1387 -0.1162 -0.0790
    2ASN     BB  295   2.623   5.774   7.127  0.0236  0.3730 -0.0963
    2ASN    SC1  296   2.424   6.007   7.108  0.0021 -0.1534 -0.0585
    3TYR     BB  297   2.596   5.543   7.444 -0.1665  0.2068  0.0453
    3TYR    SC1  298   2.350   5.662   7.557 -0.0964 -0.4525  0.1630
    3TYR    SC2  299   2.156   5.801   7.432  0.0410 -0.2164  0.2041
    3TYR    SC3  300   2.203   5.842   7.695  0.3063 -0.0844  0.1398
    1TYR     BB  301   3.906   5.868   0.196  0.0922  0.0505 -0.0359
    1TYR    SC1  302   3.927   5.940   0.476  0.1924  0.0055 -0.0381
    1TYR    SC2  303   3.882   6.118   0.673  0.1005  0.0590 -0.1065
    1TYR    SC3  304   3.976   5.872   0.732 -0.0541  0.0276  0.0181
    2ASN     BB  305   4.242   5.848   0.051  0.1098  0.0094  0.3314
    2ASN    SC1  306   4.378   6.073   0.196 -0.0595 -0.0802 -0.1128
    3TYR     BB  307   4.354   5.691  -0.245 -0.2616 -0.0503 -0.1593
    3TYR    SC1  308   4.373   5.458  -0.434 -0.2392  0.2762 -0.1080
    3TYR    SC2  309   4.269   5.473  -0.683  0.0528 -0.1126 -0.2674
    3TYR    SC3  310   4.217   5.258  -0.528 -0.2566  0.1969  0.0832
    1TYR     BB  311   6.022   3.927   7.358  0.0188 -0.0038  0.0184
    1TYR    SC1  312   5.980   4.181   7.536  0.0133  0.0345  0.0536
    1TYR    SC2  313   5.910   4.441   7.555  0.0165  0.0398 -0.0054
    1TYR    SC3  314   6.010   4.313   7.770  0.0403  0.0948  0.0166
    2ASN     BB  315   5.648   3.736   7.374  0.0240  0.0889  0.0184
    2ASN    SC1  316   5.581   3.722   7.070  0.1830 -0.1597  0.1165
    3TYR     BB  317   5.444   3.624   7.538 -0.0582  0.1537  0.0967
    3TYR    SC1  318   5.278   3.446   7.355 -0.0421 -0.1147 -0.1177
    3TYR    SC2  319   5.031   3.341   7.389 -0.1224  0.1362  0.1245
    3TYR    SC3  320   5.093   3.471   7.160 -0.1447 -0.0999 -0.0196
    1TYR     BB  321   5.349   5.538   6.410 -0.0615 -0.2097 -0.1402
    1TYR    SC1  322   5.154   5.311   6.499  0.0831 -0.0785 -0.4295
    1TYR    SC2  323   5.062   5.108   6.653 -0.0030  0.1197 -0.2107
    1TYR    SC3  324   4.888   5.266   6.520  0.0290  0.3345 -0.0061
    2ASN     BB  325   5.315   5.905   6.391  0.0405 -0.2100  0.0411
    2ASN    SC1  326   4.979   5.852   6.442  0.0691 -0.1932  0.0326
    3TYR     BB  327   5.528   6.132   6.141 -0.0308  0.3113  0.0890
    3TYR    SC1  328   5.466   6.371   5.909  0.1962  0.1783  0.1445
    3TYR    SC2  329   5.324   6.573   5.800  0.0917  0.0866  0.1093
    3TYR    SC3  330   5.319   6.327   5.687  0.1131  0.0312  0.2268
    1TYR     BB  331   7.325   1.896   2.639  0.0349 -0.0679  0.3188
    1TYR    SC1  332   7.137   2.120   2.617 -0.1610  0.0284 -0.1974
    1TYR    SC2  333   7.042   2.367   2.670  0.1779  0.0483  0.4460
    1TYR    SC3  334   6.872   2.158   2.650 -0.0931  0.2855  0.1168
    2ASN     BB  335   7.575   1.975   2.861 -0.0668  0.2048  0.0073
    2ASN    SC1  336   7.537   1.754   3.054  0.0104 -0.2391  0.1947
    3TYR     BB  337   7.576   2.300   2.875 -0.3774 -0.0043  0.3642
    3TYR    SC1  338   7.513   2.369   2.597  0.1646  0.4647 -0.0991
    3TYR    SC2  339   7.359   2.545   2.462 -0.1081 -0.0219 -0.4609
    3TYR    SC3  340   7.426   2.309   2.349  0.1143 -0.2289  0.0618
    1TYR     BB  341   5.729   5.261   6.312  0.0256  0.0504 -0.1295
    1TYR    SC1  342   5.585   5.019   6.259 -0.2697  0.1947 -0.1161
    1TYR    SC2  343   5.450   4.806   6.161 -0.2124 -0.0369  0.2838
    1TYR    SC3  344   5.377   4.916   6.397  0.0035  0.1401  0.2724
    2ASN     BB  345   6.030   5.288   6.255  0.1974 -0.0373 -0.0929
    2ASN    SC1  346   6.125   5.346   5.942  0.1998 -0.0420 -0.0268
    3TYR     BB  347   6.312   5.098   6.372 -0.0102 -0.0337 -0.0720
    3TYR    SC1  348   6.480   4.995   6.179  0.1135  0.0007 -0.0246
    3TYR    SC2  349   6.707   4.880   6.088  0.0113 -0.2548  0.0311
    3TYR    SC3  350   6.504   4.932   5.917  0.0930 -0.0633 -0.0113
    1TYR     BB  351   7.007   1.948   0.685 -0.0282  0.0707 -0.0829
    1TYR    SC1  352   7.112   2.083   0.434 -0.2096  0.0336 -0.4925
    1TYR    SC2  353   7.318   2.225   0.332  0.1873  0.0281  0.2196
    1TYR    SC3  354   7.069   2.329   0.331  0.2456  0.2009 -0.3156
    2ASN     BB  355   7.108   1.870   0.920  0.3525 -0.0212  0.0940
    2ASN    SC1  356   6.955   1.977   1.169 -0.4048  0.2113 -0.0174
    3TYR     BB  357   7.439   1.783   0.882  0.1204 -0.1005  0.3034
    3TYR    SC1  358   7.454   1.822   0.592 -0.0372  0.0042  0.0462
    3TYR    SC2  359   7.360   1.699   0.370 -0.1541  0.0127  0.0901
    3TYR    SC3  360   7.578   1.859   0.355 -0.2521  0.1357 -0.0490
    1TYR     BB  361   0.536   2.779   1.276 -0.1130 -0.0675 -0.1781
    1TYR    SC1  362   0.566   2.479   1.331 -0.0673  0.0953 -0.1995
    1TYR    SC2  363   0.555   2.211   1.300  0.4210  0.0644 -0.1999
    1TYR    SC3  364   0.468   2.325   1.529  0.2501 -0.0955 -0.1826
    2ASN     BB  365   0.776   2.947   1.372 -0.0125  0.0397  0.0030
    2ASN    SC1  366   0.828   3.096   1.594  0.0044 -0.0032 -0.5109
    3TYR     BB  367   1.057   2.871   1.212 -0.0803  0.0615  0.1977
    3TYR    SC1  368   1.137   2.546   1.236 -0.0099  0.0894  0.1613
    3TYR    SC2  369   1.020   2.303   1.242  0.0437  0.0662  0.3437
    3TYR    SC3  370   1.272   2.329   1.149 -0.0957  0.1155 -0.0451
    1TYR     BB  371   3.411   5.962   5.706 -0.1088  0.1780  0.1227
    1TYR    SC1  372   3.337   6.179   5.920  0.5466  0.3143 -0.0945
    1TYR    SC2  373   3.158   6.242   6.112  0.3764  0.1456 -0.1933
    1TYR    SC3  374   3.365   6.408   6.062  0.5314  0.1071  0.2574
    2ASN     BB  375   3.740   5.997   5.738 -0.2827  0.1968  0.1011
    2ASN    SC1  376   3.815   6.270   5.796  0.1524 -0.1476 -0.2389
    3TYR     BB  377   3.959   5.798   5.604  0.2761  0.1987 -0.1420
    3TYR    SC1  378   4.068   5.535   5.681  0.2012  0.1764  0.0095
    3TYR    SC2  379   4.219   5.325   5.604 -0.0753  0.1029 -0.3697
    3TYR    SC3  380   4.012   5.288   5.774  0.1773  0.1653 -0.0342
    1TYR     BB  381   3.403   5.197   0.481 -0.4890 -0.0088 -0.0142
    1TYR    SC1  382   3.212   5.017   0.316 -0.0972 -0.2121  0.1618
    1TYR    SC2  383   2.999   5.010   0.151 -0.1780 -0.0170  0.2546
    1TYR    SC3  384   2.997   4.866   0.379 -0.1140 -0.1953  0.1448
    2ASN     BB  385   3.453   5.077   0.795 -0.1742  0.0203 -0.0901
    2ASN    SC1  386   3.711   5.012   0.900 -0.0593  0.1685 -0.2191
    3TYR     BB  387   3.151   5.053   0.914  0.0290  0.0304 -0.1614
    3TYR    SC1  388   2.956   5.152   0.723  0.0627  0.0030 -0.2069
    3TYR    SC2  389   2.883   5.272   0.493 -0.3219 -0.2452 -0.2250
    3TYR    SC3  390   2.764   5.341   0.725 -0.0449 -0.1051 -0.1192
    1TYR     BB  391   2.002   3.674   2.339  0.0584  0.1536  0.1039
    1TYR    SC1  392   2.065   3.755   2.027 -0.1872  0.2903 -0.0010
    1TYR    SC2  393   2.213   3.898   1.853  0.0357 -0.0188 -0.0760
    1TYR    SC3  394   2.168   3.636   1.808 -0.0424 -0.0661  0.2486
    2ASN     BB  395   1.606   3.575   2.286  0.3096  0.1143 -0.4406
    2ASN    SC1  396   1.643   3.402   2.070 -0.1882 -0.0306  0.1939
    3TYR     BB  397   1.276   3.694   2.280 -0.0160 -0.2134 -0.0827
    3TYR    SC1  398   1.238   3.689   2.578 -0.0048  0.3355  0.0188
    3TYR    SC2  399   1.152   3.575   2.807  0.1984  0.0076 -0.0597
    3TYR    SC3  400   1.244   3.829   2.809  0.0004  0.0833  0.1761
    1TYR     BB  401   7.372   2.783   1.021 -0.0959 -0.1571  0.0556
    1TYR    SC1  402   7.392   2.772   0.727  0.0957 -0.0902 -0.1502
    1TYR    SC2  403   7.362   2.672   0.478 -0.2637  0.3729 -0.3112
    1TYR    SC3  404   7.490   2.907   0.515  0.0359  0.1742 -0.0149
    2ASN     BB  405   7.415   2.776   1.382  0.1516 -0.0446 -0.0330
    2ASN    SC1  406   7.707   2.653   1.483  0.0499 -0.1185 -0.0427
    3TYR     BB  407   7.244   2.878   1.558 -0.0358  0.2308 -0.1379
    3TYR    SC1  408   7.038   2.787   1.722  0.1788 -0.2227 -0.3900
    3TYR    SC2  409   6.779   2.785   1.795  0.2365  0.3967 -0.0796
    3TYR    SC3  410   6.933   2.567   1.836 -0.0948  0.2136  0.2765
    1TYR     BB  411   3.939   5.460   0.483  0.1946  0.2527 -0.0669
    1TYR    SC1  412   3.796   5.487   0.740 -0.2489  0.0936  0.0415
    1TYR    SC2  413   3.611   5.615   0.890 -0.0878 -0.0123  0.3433
    1TYR    SC3  414   3.806   5.473   1.010 -0.0060 -0.1816  0.0241
    2ASN     BB  415   4.287   5.568   0.461  0.2465 -0.1153  0.2033
    2ASN    SC1  416   4.478   5.804   0.613 -0.0207 -0.0891 -0.1915
    3TYR     BB  417   4.560   5.411   0.336 -0.1488 -0.0073 -0.1383
    3TYR    SC1  418   4.801   5.599   0.182  0.3257  0.0035 -0.0184
    3TYR    SC2  419   5.016   5.706   0.057  0.2204  0.0479 -0.1653
    3TYR    SC3  420   4.770   5.810   0.015  0.1876  0.0932  0.1174
    1TYR     BB  421   5.652   5.212   7.422  0.1274 -0.3682 -0.2393
    1TYR    SC1  422   5.609   4.929   7.312  0.0789  0.0693  0.4071
    1TYR    SC2  423   5.513   4.692   7.398  0.0787  0.0728  0.4167
    1TYR    SC3  424   5.629   4.711   7.154 -0.0267  0.0878  0.3669
    2ASN     BB  425   5.850   5.189   7.630  0.0475  0.4689  0.0543
    2ASN    SC1  426   5.940   5.461   7.739  0.0109  0.0436  0.0869
    3TYR     BB  427   5.916   4.935   7.724 -0.2009  0.0887 -0.0833
    3TYR    SC1  428   5.667   4.753   7.809 -0.2322  0.1572 -0.0666
    3TYR    SC2  429   5.453   4.588   7.807 -0.0750 -0.0518 -0.1713
    3TYR    SC3  430   5.663   4.535   7.968 -0.0358  0.0654 -0.1824
    1TYR     BB  431   6.223   3.768   0.590 -0.0457 -0.0452  0.1344
    1TYR    SC1  432   6.285   4.009   0.777 -0.1003  0.1676 -0.1254
    1TYR    SC2  433   6.195   4.132   0.999 -0.0967 -0.1036  0.0322
    1TYR    SC3  434   6.413   4.227   0.871  0.0602 -0.0933  0.2968
    2ASN     BB  435   6.035   3.631   0.834  0.3047 -0.2175 -0.3580
    2ASN    SC1  436   6.124   3.373   0.894 -0.0022 -0.2329  0.0285
    3TYR     BB  437   5.824   3.828   0.963 -0.1965 -0.0545  0.1125
    3TYR    SC1  438   5.859   3.980   1.204 -0.4991 -0.0438 -0.1257
    3TYR    SC2  439   5.847   4.211   1.343 -0.0488  0.0042 -0.1464
    3TYR    SC3  440   5.787   3.977   1.464  0.1761  0.0620  0.0861
    1TYR     BB  441   3.359   5.468   6.388  0.1380 -0.1300 -0.2901
    1TYR    SC1  442   3.180   5.674   6.167 -0.2759  0.1986 -0.2824
    1TYR    SC2  443   3.023   5.861   6.051  0.0416  0.2966 -0.5756
    1TYR    SC3  444   3.088   5.636   5.915  0.0454  0.1923 -0.4045
    2ASN     BB  445   3.607   5.406   6.124 -0.0799 -0.1787 -0.2086
    2ASN    SC1  446   3.550   5.152   5.961  0.3574  0.2495  0.0262
    3TYR     BB  447   3.765   5.620   6.075  0.1850  0.1754  0.4026
    3TYR    SC1  448   3.630   5.884   6.185 -0.1972  0.2453 -0.3185
    3TYR    SC2  449   3.418   6.000   6.306 -0.1435  0.2405 -0.2191
    3TYR    SC3  450   3.662   6.115   6.321 -0.1118  0.1733 -0.2149
    1TYR     BB  451   7.383   4.133   0.529  0.0454 -0.0187  0.1072
    1TYR    SC1  452   7.423   4.406   0.436  0.1117  0.0725  0.1277
    1TYR    SC2  453   7.562   4.632   0.384  0.2925 -0.0189  0.2024
    1TYR    SC3  454   7.379   4.629   0.582  0.2149  0.0893  0.1343
    2ASN     BB  455   7.566   4.003   0.767  0.0192  0.0181 -0.0256
    2ASN    SC1  456   7.859   3.941   0.663  0.0405 -0.0237 -0.0714
    3TYR     BB  457   7.450   3.828   0.927  0.4067  0.2509 -0.1261
    3TYR    SC1  458   7.501   3.539   0.830  0.2059  0.0985 -0.1653
    3TYR    SC2  459   7.577   3.288   0.765  0.0689  0.0038  0.0283
    3TYR    SC3  460   7.633   3.493   0.599  0.0447 -0.1761 -0.2092
    1TYR     BB  461   6.434   3.469   7.465  0.2546 -0.1212 -0.3816
    1TYR    SC1  462   6.721   3.486   7.525  0.0908  0.1431  0.5631
    1TYR    SC2  463   6.939   3.352   7.440 -0.0127  0.2054  0.1736
    1TYR    SC3  464   6.963   3.541   7.632  0.3013  0.3046  0.0466
    2ASN     BB  465   6.359   3.524   7.139 -0.0677  0.0777  0.1270
    2ASN    SC1  466   6.025   3.501   7.099  0.0336 -0.0921  0.3081
    3TYR     BB  467   6.484   3.750   6.941  0.0491  0.3530 -0.0045
    3TYR    SC1  468   6.839   3.738   6.900 -0.0634  0.3567 -0.2367
    3TYR    SC2  469   7.074   3.648   6.999 -0.1741  0.0431 -0.2466
    3TYR    SC3  470   7.060   3.736   6.744 -0.0735  0.0403 -0.2537
    1TYR     BB  471   5.933   4.755   6.567 -0.1586  0.1709 -0.0467
    1TYR    SC1  472   5.763   4.887   6.765  0.0425  0.0746  0.1104
    1TYR    SC2  473   5.766   5.094   6.939 -0.3648  0.0350  0.1773
    1TYR    SC3  474   5.546   5.047   6.789 -0.1938 -0.2167 -0.0053
    2ASN     BB  475   5.926   4.674   6.265  0.2910  0.0581 -0.0731
    2ASN    SC1  476   5.841   4.376   6.263  0.2883  0.0549 -0.0074
    3TYR     BB  477   6.013   4.837   6.024 -0.1001  0.5388 -0.0271
    3TYR    SC1  478   5.805   4.960   5.828 -0.2445 -0.3551  0.3060
    3TYR    SC2  479   5.548   4.941   5.749 -0.2345 -0.4160  0.2879
    3TYR    SC3  480   5.640   5.173   5.851 -0.1754 -0.2422 -0.1337
    1TYR     BB  481   1.278   2.654   2.140  0.5256  0.0796  0.0259
    1TYR    SC1  482   1.436   2.674   2.389  0.0268  0.1527 -0.0875
    1TYR    SC2  483   1.382   2.698   2.652  0.0575  0.0466 -0.0707
    1TYR    SC3  484   1.627   2.762   2.558 -0.0385  0.3634 -0.1204
    2ASN     BB  485   1.443   2.553   1.904  0.1022  0.1235  0.0826
    2ASN    SC1  486   1.748   2.437   2.032  0.0329  0.1385  0.2534
    3TYR     BB  487   1.398   2.516   1.619 -0.3154  0.1040 -0.1357
    3TYR    SC1  488   1.531   2.688   1.412  0.0288  0.0031  0.1285
    3TYR    SC2  489   1.592   2.711   1.150 -0.1601 -0.0449  0.0785
    3TYR    SC3  490   1.571   2.932   1.303 -0.0712 -0.0153  0.0489
    1TYR     BB  491   7.409   2.279   0.871 -0.0808 -0.1409 -0.0616
    1TYR    SC1  492   7.133   2.401   0.789 -0.0315 -0.0508 -0.0336
    1TYR    SC2  493   6.969   2.590   0.688  0.1200  0.0067 -0.1785
    1TYR    SC3  494   6.888   2.439   0.897 -0.0481  0.1504 -0.1359
    2ASN     BB  495   7.337   2.340   1.255  0.1673  0.0622  0.0594
    2ASN    SC1  496   7.617   2.174   1.321  0.3412  0.0331  0.0233
    3TYR     BB  497   7.058   2.466   1.344  0.1606  0.1420  0.3330
    3TYR    SC1  498   6.778   2.381   1.445 -0.0508  0.3256 -0.1412
    3TYR    SC2  499   6.573   2.383   1.621  0.0864  0.0041  0.0315
    3TYR    SC3  500   6.527   2.327   1.361 -0.0464 -0.0588  0.0677
    1TYR     BB  501   4.972   4.095   1.013  0.0015 -0.1395 -0.4457
    1TYR    SC1  502   4.952   3.833   0.852  0.0329 -0.0824 -0.1034
    1TYR    SC2  503   4.919   3.702   0.618 -0.1192 -0.1496 -0.0457
    1TYR    SC3  504   4.923   3.565   0.851  0.2560 -0.1094 -0.0215
    2ASN     BB  505   4.709   4.043   1.291 -0.0407 -0.1302 -0.0095
    2ASN    SC1  506   4.717   3.745   1.348 -0.0753 -0.0436 -0.1653
    3TYR     BB  507   4.564   4.225   1.525 -0.2277  0.3171 -0.1333
    3TYR    SC1  508   4.336   4.063   1.636 -0.0290  0.3284 -0.1297
    3TYR    SC2  509   4.209   3.902   1.811  0.0325  0.3252 -0.0877
    3TYR    SC3  510   4.154   3.884   1.547 -0.0651  0.3346 -0.0684
    1TYR     BB  511   5.047   4.625   6.877  0.1550 -0.1161  0.3184
    1TYR    SC1  512   5.154   4.846   7.025 -0.5258  0.0791  0.2730
    1TYR    SC2  513   5.157   5.111   7.080 -0.0127  0.1580 -0.0547
    1TYR    SC3  514   5.113   4.933   7.278 -0.2483  0.4770  0.1935
    2ASN     BB  515   4.670   4.546   6.946  0.1380 -0.2023  0.2355
    2ASN    SC1  516   4.639   4.216   6.980 -0.0263  0.0864 -0.1285
    3TYR     BB  517   4.422   4.632   6.762  0.0172 -0.0473 -0.1303
    3TYR    SC1  518   4.153   4.760   6.816 -0.0288  0.1459  0.2660
    3TYR    SC2  519   4.022   4.996   6.829  0.0233  0.2062 -0.1299
    3TYR    SC3  520   3.900   4.769   6.911 -0.1369  0.3290 -0.0212
    1TYR     BB  521   0.262   3.228   2.146  0.0803  0.0391  0.0342
    1TYR    SC1  522   0.136   3.496   2.122 -0.2297  0.0062  0.2605
    1TYR    SC2  523  -0.056   3.657   2.021  0.1899  0.5343  0.2500
    1TYR    SC3  524   0.010   3.674   2.282  0.1402  0.2607  0.2840
    2ASN     BB  525   0.395   3.226   2.485  0.1083  0.0448 -0.0853
    2ASN    SC1  526   0.263   3.446   2.619  0.0605  0.3368 -0.2498
    3TYR     BB  527   0.561   3.060   2.511  0.0727  0.0478  0.1106
    3TYR    SC1  528   0.735   3.038   2.238  0.1607  0.0112  0.0951
    3TYR    SC2  529   0.853   3.246   2.111  0.0678  0.1532  0.2366
    3TYR    SC3  530   0.932   2.993   2.058  0.0229  0.2062 -0.1117
    1TYR     BB  531   3.898   5.039   0.153  0.1618 -0.1490 -0.0812
    1TYR    SC1  532   3.639   5.012   0.032 -0.2376  0.1392 -0.0847
    1TYR    SC2  533   3.445   4.824   0.025 -0.1704  0.0571  0.1513
    1TYR    SC3  534   3.427   5.041  -0.133 -0.2416 -0.1518 -0.1376
    2ASN     BB  535   4.104   5.327   0.010 -0.0065  0.1703  0.2457
    2ASN    SC1  536   3.900   5.498  -0.136 -0.1101  0.0118  0.2996
    3TYR     BB  537   4.350   5.194  -0.005  0.1384 -0.2845  0.2199
    3TYR    SC1  538   4.360   4.934   0.166 -0.0284  0.0860 -0.1829
    3TYR    SC2  539   4.363   4.731   0.343  0.1680  0.2716  0.0359
    3TYR    SC3  540   4.216   4.711   0.117 -0.2838  0.1228  0.3256
    1TYR     BB  541   6.292   4.090   6.512 -0.3319 -0.1051  0.1078
    1TYR    SC1  542   6.463   4.270   6.328  0.0884  0.2859  0.2143
    1TYR    SC2  543   6.691   4.382   6.236  0.1604 -0.2456 -0.3369
    1TYR    SC3  544   6.452   4.491   6.173  0.2327  0.2691  0.1784
    2ASN     BB  545   6.012   4.165   6.715 -0.1712  0.0862  0.0199
    2ASN    SC1  546   5.984   3.888   6.855  0.0583 -0.1585  0.1182
    3TYR     BB  547   5.971   4.379   6.918 -0.0172 -0.2321  0.0486
    3TYR    SC1  548   6.111   4.649   7.064 -0.3144  0.1511  0.0118
    3TYR    SC2  549   6.298   4.842   7.087 -0.3029  0.1483 -0.0567
    3TYR    SC3  550   6.106   4.818   7.274 -0.0312 -0.0692  0.2065
    1TYR     BB  551   4.639   4.747   7.464  0.1053 -0.3851 -0.2220
    1TYR    SC1  552   4.879   4.580   7.414 -0.0392  0.0046 -0.0853
    1TYR    SC2  553   4.929   4.337   7.307 -0.3069 -0.0351 -0.1304
    1TYR    SC3  554   5.134   4.502   7.370 -0.1125 -0.3347  0.0528
    2ASN     BB  555   4.633   5.038   7.281  0.4371 -0.0657  0.0132
    2ASN    SC1  556   4.793   5.259   7.423 -0.0832  0.1287 -0.0695
    3TYR     BB  557   4.674   5.055   6.946  0.0850 -0.0601 -0.0182
    3TYR    SC1  558   4.738   5.352   6.936 -0.0820  0.0354 -0.0855
    3TYR    SC2  559   4.712   5.612   7.001  0.1168  0.0156  0.0904
    3TYR    SC3  560   4.930   5.529   6.865 -0.1188 -0.0052 -0.2951
    1TYR     BB  561   6.402   2.010   2.316  0.0509 -0.0915  0.3270
    1TYR    SC1  562   6.371   1.971   2.610  0.2899  0.0583 -0.0803
    1TYR    SC2  563   6.446   2.152   2.795  0.0014  0.1166 -0.0132
    1TYR    SC3  564   6.224   2.004   2.835  0.1517 -0.1496 -0.1363
    2ASN     BB  565   6.525   2.332   2.286 -0.0462  0.0713 -0.5986
    2ASN    SC1  566   6.573   2.534   2.533 -0.0099 -0.0594 -0.1823
    3TYR     BB  567   6.439   2.591   2.069 -0.2400 -0.2194 -0.0430
    3TYR    SC1  568   6.528   2.853   2.187 -0.2820  0.1204 -0.0970
    3TYR    SC2  569   6.626   3.094   2.257 -0.0478  0.0996 -0.3333
    3TYR    SC3  570   6.377   3.022   2.334  0.0572  0.2154  0.1569
    1TYR     BB  571   7.308   3.258   1.869 -0.0704 -0.0724  0.0221
    1TYR    SC1  572   7.065   3.294   1.731 -0.1243  0.1052  0.0652
    1TYR    SC2  573   6.828   3.226   1.842 -0.3317  0.3244 -0.2240
    1TYR    SC3  574   6.870   3.187   1.578  0.1497 -0.1848 -0.0967
    2ASN     BB  575   7.290   3.305   2.185  0.0845  0.1308 -0.0476
    2ASN    SC1  576   7.030   3.520   2.228  0.0162  0.2171 -0.4530
    3TYR     BB  577   7.387   3.189   2.430 -0.4084 -0.0614 -0.0941
    3TYR    SC1  578   7.314   3.322   2.656 -0.2917 -0.0711  0.0591
    3TYR    SC2  579   7.351   3.408   2.909 -0.0396  0.0218 -0.0060
    3TYR    SC3  580   7.284   3.584   2.715 -0.0114 -0.0108 -0.0456
    1TYR     BB  581   7.006   2.887   2.719  0.1562  0.3772  0.2468
    1TYR    SC1  582   7.044   2.877   2.401 -0.1391  0.3983  0.0024
    1TYR    SC2  583   6.991   2.919   2.140 -0.0665 -0.0658 -0.0984
    1TYR    SC3  584   6.971   2.671   2.243 -0.0055  0.0939  0.3217
    2ASN     BB  585   7.266   2.861   2.871  0.1391 -0.0289  0.0301
    2ASN    SC1  586   7.215   2.605   3.100  0.3267  0.1557 -0.1490
    3TYR     BB  587   7.528   2.866   2.799 -0.0032  0.0096 -0.1345
    3TYR    SC1  588   7.693   3.049   2.927  0.2248  0.0364 -0.4421
    3TYR    SC2  589   7.952   3.106   2.978  0.0980  0.0274  0.3719
    3TYR    SC3  590   7.758   3.269   3.069 -0.2030  0.0167 -0.1959
    1TYR     BB  591   4.023   6.246   7.404  0.2272  0.0717  0.0332
    1TYR    SC1  592   3.995   6.321   7.695 -0.1032 -0.2675  0.0092
    1TYR    SC2  593   3.974   6.581   7.766 -0.1334 -0.2242 -0.1527
    1TYR    SC3  594   3.909   6.387   7.942 -0.0178 -0.1248  0.0022
    2ASN     BB  595   3.845   5.995   7.310  0.0636 -0.0644 -0.2659
    2ASN    SC1  596   3.925   5.819   7.081 -0.1058  0.0751 -0.0597
    3TYR     BB  597   3.558   5.835   7.424  0.2594  0.2236  0.0097
    3TYR    SC1  598   3.252   5.895   7.527  0.0974 -0.2182  0.2169
    3TYR    SC2  599   3.058   5.876   7.714 -0.0954  0.1164  0.0634
    3TYR    SC3  600   2.992   5.890   7.452  0.1638 -0.1946 -0.0262
    1TYR     BB  601   1.152   3.640   0.968  0.0212 -0.1687 -0.0828
    1TYR    SC1  602   1.205   3.425   0.830 -0.0841  0.3353  0.2188
    1TYR    SC2  603   1.369   3.292   0.661  0.0226  0.4281  0.2482
    1TYR    SC3  604   1.245   3.160   0.861 -0.1229  0.3128  0.0854
    2ASN     BB  605   1.194   3.950   0.856 -0.1652 -0.1872  0.2545
    2ASN    SC1  606   1.518   3.877   0.681  0.0059 -0.0181 -0.0639
    3TYR     BB  607   1.190   4.199   0.901  0.3637  0.0766 -0.1027
    3TYR    SC1  608   0.936   4.317   0.981  0.1434 -0.2300  0.1206
    3TYR    SC2  609   0.788   4.518   1.083  0.2878 -0.0766  0.0330
    3TYR    SC3  610   0.699   4.380   0.869  0.0863 -0.2548  0.2253
    1TYR     BB  611   4.958   3.721   0.077 -0.2099 -0.0350 -0.0495
    1TYR    SC1  612   5.014   3.870  -0.173  0.2584  0.4185 -0.0490
    1TYR    SC2  613   5.177   3.906  -0.385  0.1202 -0.0601 -0.2540
    1TYR    SC3  614   4.911   3.877  -0.422  0.1033 -0.2351 -0.0268
    2ASN     BB  615   4.690   3.545   0.179  0.0666 -0.2874 -0.2208
    2ASN    SC1  616   4.614   3.249   0.098  0.2958 -0.0155 -0.0678
    3TYR     BB  617   4.462   3.667   0.305  0.0675  0.0994  0.1185
    3TYR    SC1  618   4.455   3.668   0.597  0.0117  0.0624  0.0207
    3TYR    SC2  619   4.332   3.475   0.740 -0.4498  0.2409 -0.1106
    3TYR    SC3  620   4.489   3.657   0.865 -0.1090 -0.1294  0.0300
    1TYR     BB  621   0.308   0.906   1.148  0.1340  0.2482  0.1102
    1TYR    SC1  622   0.288   1.123   1.384  0.0034 -0.0706  0.0604
    1TYR    SC2  623   0.254   1.156   1.650  0.1870  0.1705  0.0582
    1TYR    SC3  624   0.129   1.321   1.476 -0.0776 -0.0981 -0.0181
    2ASN     BB  625   0.070   0.768   1.100  0.0802 -0.0270  0.0968
    2ASN    SC1  626   0.167   0.482   0.836  0.4048  0.1176 -0.0966
    3TYR     BB  627  -0.203   0.637   1.179 -0.2057 -0.0257  0.3810
    3TYR    SC1  628  -0.425   0.878   1.160  0.3360  0.0284 -0.0325
    3TYR    SC2  629  -0.586   1.020   1.324  0.1368 -0.3048  0.0742
    3TYR    SC3  630  -0.630   1.020   1.058  0.0961 -0.2233  0.0808
    1TYR     BB  631   6.069   4.720   0.500  0.1688  0.0430  0.0222
    1TYR    SC1  632   6.291   4.496   0.474  0.1876  0.3270 -0.1717
    1TYR    SC2  633   6.403   4.275   0.368 -0.0160  0.2976 -0.3327
    1TYR    SC3  634   6.558   4.485   0.436  0.2325 -0.0187  0.1564
    2ASN     BB  635   5.954   4.770   0.777 -0.0150  0.0410 -0.1033
    2ASN    SC1  636   5.919   4.498   0.959 -0.1344 -0.3548  0.5600
    3TYR     BB  637   5.984   5.138   0.886  0.0495 -0.2040 -0.1989
    3TYR    SC1  638   6.201   5.166   0.698  0.3883 -0.1522  0.1771
    3TYR    SC2  639   6.398   5.291   0.562  0.0388  0.2878  0.0452
    3TYR    SC3  640   6.186   5.190   0.430  0.0912 -0.0412  0.1991
    1TYR     BB  641   6.819   5.085   0.820 -0.0951  0.1133 -0.4777
    1TYR    SC1  642   7.051   5.113   0.598 -0.0146 -0.0246  0.1403
    1TYR    SC2  643   7.179   5.319   0.480 -0.3663  0.0867 -0.0674
    1TYR    SC3  644   7.282   5.069   0.466  0.0386  0.2290  0.1431
    2ASN     BB  645   6.698   4.758   0.847  0.2161 -0.0495 -0.1208
    2ASN    SC1  646   6.426   4.784   0.868 -0.1149 -0.2720 -0.2077
    3TYR     BB  647   6.918   4.521   0.784 -0.0230 -0.1468  0.1178
    3TYR    SC1  648   6.907   4.230   0.714 -0.5132  0.3376  0.0086
    3TYR    SC2  649   6.768   4.018   0.622 -0.1731  0.1637 -0.1271
    3TYR    SC3  650   6.977   3.980   0.787 -0.1020  0.3942 -0.1596
    1TYR     BB  651   0.454   1.570   2.323  0.1058 -0.2604 -0.3353
    1TYR    SC1  652   0.679   1.476   2.487 -0.0739  0.2767 -0.2423
    1TYR    SC2  653   0.896   1.447   2.646 -0.2100 -0.1187 -0.1129
    1TYR    SC3  654   0.815   1.242   2.489 -0.4671  0.0365 -0.1909
    2ASN     BB  655   0.162   1.720   2.478 -0.2484 -0.0671 -0.0607
    2ASN    SC1  656   0.094   1.949   2.242 -0.0155  0.4127  0.0506
    3TYR     BB  657  -0.078   1.476   2.497 -0.1124 -0.0189 -0.0339
    3TYR    SC1  658  -0.348   1.395   2.645 -0.1540  0.0505  0.2512
    3TYR    SC2  659  -0.603   1.309   2.636 -0.1468  0.0169  0.3483
    3TYR    SC3  660  -0.533   1.506   2.807 -0.0468 -0.1890  0.5507
    1TYR     BB  661   3.428   6.028   0.402 -0.0582  0.0440 -0.2454
    1TYR    SC1  662   3.459   6.244   0.177  0.4133 -0.1544 -0.0872
    1TYR    SC2  663   3.560   6.316  -0.063  0.1080 -0.1136 -0.2086
    1TYR    SC3  664   3.472   6.505   0.109 -0.1818 -0.1613 -0.2976
    2ASN     BB  665   3.438   5.730   0.425  0.1131  0.1081 -0.2303
    2ASN    SC1  666   3.192   5.647   0.570  0.0024  0.4165 -0.1863
    3TYR     BB  667   3.566   5.538   0.169 -0.0132 -0.1050 -0.4171
    3TYR    SC1  668   3.321   5.446  -0.004  0.0797 -0.0373 -0.4390
    3TYR    SC2  669   3.138   5.468  -0.202 -0.0672 -0.0818 -0.3107
    3TYR    SC3  670   3.057   5.444   0.054  0.1217  0.0065 -0.2405
    1TYR     BB  671   6.176   2.710   1.705 -0.0911 -0.1018  0.3419
    1TYR    SC1  672   6.149   2.562   1.447 -0.0118  0.3621  0.0308
    1TYR    SC2  673   6.093   2.393   1.245 -0.0331  0.0283  0.3040
    1TYR    SC3  674   5.911   2.577   1.322  0.1076  0.4071 -0.1982
    2ASN     BB  675   6.162   3.018   1.648  0.0684 -0.1899  0.1703
    2ASN    SC1  676   5.858   3.093   1.631 -0.1952 -0.2645  0.0310
    3TYR     BB  677   6.348   3.188   1.822 -0.1117 -0.1327  0.1519
    3TYR    SC1  678   6.435   3.449   1.678 -0.1110  0.1372 -0.1528
    3TYR    SC2  679   6.588   3.565   1.488  0.1960  0.0590  0.0377
    3TYR    SC3  680   6.609   3.645   1.745  0.1244 -0.1479  0.1103
    1TYR     BB  681   7.221   1.457   1.758  0.1669  0.2426 -0.2084
    1TYR    SC1  682   7.333   1.165   1.728 -0.3814  0.0075  0.2071
    1TYR    SC2  683   7.285   0.902   1.761  0.0736 -0.0978  0.1056
    1TYR    SC3  684   7.451   0.985   1.565  0.0249  0.2583  0.2072
    2ASN     BB  685   7.369   1.605   1.961  0.0618 -0.1301  0.0449
    2ASN    SC1  686   7.644   1.498   2.032 -0.2937 -0.2270 -0.0826
    3TYR     BB  687   7.223   1.724   2.211 -0.2058 -0.3566  0.1340
    3TYR    SC1  688   7.116   1.973   2.132  0.1910  0.1266 -0.1388
    3TYR    SC2  689   6.852   2.021   2.102  0.0968 -0.3052 -0.0856
    3TYR    SC3  690   7.023   2.225   2.148 -0.1892  0.0102 -0.3631
    1TYR     BB  691   6.706   4.972   6.826  0.1130  0.2189 -0.1271
    1TYR    SC1  692   6.520   5.227   6.802  0.1041  0.0862  0.2832
    1TYR    SC2  693   6.375   5.441   6.877  0.0704  0.0862  0.2191
    1TYR    SC3  694   6.260   5.197   6.866  0.0555  0.0978  0.1007
    2ASN     BB  695   6.660   4.751   6.537 -0.3384  0.0215 -0.0850
    2ASN    SC1  696   6.944   4.651   6.564 -0.2823  0.1424 -0.4198
    3TYR     BB  697   6.373   4.668   6.629  0.2370 -0.1374  0.0718
    3TYR    SC1  698   6.462   4.484   6.851  0.0571 -0.2602 -0.0830
    3TYR    SC2  699   6.590   4.480   7.089 -0.1786  0.0221  0.0571
    3TYR    SC3  700   6.465   4.258   6.999  0.0562 -0.1364  0.1104
    1TYR     BB  701   4.890   5.532   6.093  0.2547  0.0006  0.0079
    1TYR    SC1  702   4.980   5.248   6.110  0.4665  0.0467  0.3547
    1TYR    SC2  703   5.033   4.984   6.133  0.1359 -0.0629 -0.0030
    1TYR    SC3  704   5.176   5.136   5.962  0.1207 -0.0796 -0.0306
    2ASN     BB  705   4.826   5.570   5.798  0.3739  0.2417  0.1328
    2ASN    SC1  706   4.982   5.442   5.605  0.1479 -0.0614 -0.3428
    3TYR     BB  707   4.529   5.654   5.717 -0.0109 -0.1911 -0.1603
    3TYR    SC1  708   4.427   5.958   5.662 -0.3612  0.0196 -0.3098
    3TYR    SC2  709   4.512   6.169   5.517 -0.0251  0.0795 -0.0406
    3TYR    SC3  710   4.294   6.193   5.675  0.1254  0.2967  0.1425
    1TYR     BB  711   2.926   6.159   6.998 -0.2147  0.0129 -0.0310
    1TYR    SC1  712   2.995   6.046   6.731 -0.2669 -0.1244 -0.1147
    1TYR    SC2  713   2.918   6.052   6.472 -0.0764  0.1029 -0.1705
    1TYR    SC3  714   3.099   5.870   6.555  0.0546  0.1909 -0.2573
    2ASN     BB  715   3.162   6.292   7.161  0.1038  0.0276 -0.1757
    2ASN    SC1  716   3.040   6.388   7.410 -0.3083 -0.0232 -0.1259
    3TYR     BB  717   3.453   6.186   7.086 -0.3030 -0.0288 -0.1753
    3TYR    SC1  718   3.438   6.319   6.777 -0.0489  0.0492  0.1970
    3TYR    SC2  719   3.288   6.366   6.558  0.3177 -0.1585 -0.1138
    3TYR    SC3  720   3.541   6.459   6.570  0.2408  0.0227  0.3170
    1TYR     BB  721   5.981   5.453   7.195  0.0311  0.0446 -0.1332
    1TYR    SC1  722   6.266   5.418   7.338 -0.1162 -0.0468  0.1516
    1TYR    SC2  723   6.285   5.182   7.468  0.1314 -0.0085  0.1915
    1TYR    SC3  724   6.403   5.402   7.571  0.0412  0.0979  0.0718
    2ASN     BB  725   5.829   5.671   7.308 -0.0883  0.1796 -0.2875
    2ASN    SC1  726   5.933   5.898   7.082 -0.4809  0.1014  0.1249
    3TYR     BB  727   5.619   5.757   7.497  0.0153 -0.1579 -0.0783
    3TYR    SC1  728   5.339   5.685   7.375 -0.1912  0.2611  0.4192
    3TYR    SC2  729   5.183   5.465   7.368  0.1112  0.0446  0.1795
    3TYR    SC3  730   5.101   5.692   7.247  0.0827 -0.1417 -0.1690
    1TYR     BB  731   1.346   3.153   2.925 -0.1335  0.0315  0.3072
    1TYR    SC1  732   1.324   3.209   2.627 -0.0777 -0.4060  0.0663
    1TYR    SC2  733   1.142   3.250   2.432 -0.0682 -0.1290  0.1110
    1TYR    SC3  734   1.376   3.126   2.375 -0.1662 -0.2673  0.0011
    2ASN     BB  735   1.131   3.125   3.064  0.1092  0.0701 -0.0954
    2ASN    SC1  736   1.103   3.133   3.384 -0.0650  0.0072 -0.1370
    3TYR     BB  737   0.849   3.109   2.885 -0.0624 -0.0640 -0.1907
    3TYR    SC1  738   0.728   3.366   2.879 -0.1164 -0.2812  0.2196
    3TYR    SC2  739   0.529   3.461   3.034  0.0939 -0.0185  0.3405
    3TYR    SC3  740   0.681   3.632   2.890 -0.2526 -0.2632 -0.3793
    1TYR     BB  741   4.591   6.283   6.547  0.1697 -0.3014  0.0560
    1TYR    SC1  742   4.547   6.133   6.327  0.0259  0.1281 -0.0054
    1TYR    SC2  743   4.524   6.185   6.063 -0.4426 -0.2595 -0.0597
    1TYR    SC3  744   4.549   5.931   6.149 -0.3907 -0.1471  0.2785
    2ASN     BB  745   4.697   6.081   6.856 -0.0968 -0.1946  0.0380
    2ASN    SC1  746   4.378   5.999   6.922  0.0505 -0.3128 -0.2697
    3TYR     BB  747   4.981   6.047   6.880 -0.1421  0.3540  0.1783
    3TYR    SC1  748   5.218   6.194   7.060 -0.1772 -0.1816  0.1930
    3TYR    SC2  749   5.422   6.360   7.121 -0.1860 -0.1716  0.1956
    3TYR    SC3  750   5.470   6.099   7.072 -0.1236 -0.1019 -0.1509
    1TYR     BB  751   7.004   5.700   6.295 -0.1919 -0.3049 -0.0942
    1TYR    SC1  752   6.855   5.919   6.150  0.0884 -0.2436 -0.3175
    1TYR    SC2  753   6.771   6.084   5.953  0.0272  0.0455 -0.0582
    1TYR    SC3  754   6.634   6.069   6.185 -0.1493 -0.6098 -0.1794
    2ASN     BB  755   7.057   5.533   5.935  0.0704  0.2872 -0.1142
    2ASN    SC1  756   7.216   5.763   5.788  0.0156  0.0022  0.3241
    3TYR     BB  757   6.727   5.436   5.895 -0.3026 -0.2143 -0.2939
    3TYR    SC1  758   6.561   5.540   6.149  0.2419 -0.3239  0.2717
    3TYR    SC2  759   6.503   5.555   6.412 -0.1376  0.0844  0.1799
    3TYR    SC3  760   6.363   5.703   6.235  0.1558 -0.1293 -0.2506
    1TYR     BB  761   5.681   5.141   0.488  0.3540 -0.1711 -0.0196
    1TYR    SC1  762   5.536   4.865   0.573 -0.0906 -0.3500 -0.1373
    1TYR    SC2  763   5.275   4.804   0.537 -0.2942  0.1738  0.2780
    1TYR    SC3  764   5.416   4.683   0.733 -0.1865 -0.1705  0.0006
    2ASN     BB  765   5.483   5.313   0.255  0.2511  0.0091 -0.0844
    2ASN    SC1  766   5.454   5.646   0.346 -0.1117  0.2040  0.2141
    3TYR     BB  767   5.263   5.164   0.098 -0.1126 -0.0946  0.1140
    3TYR    SC1  768   5.094   4.950   0.171  0.2268 -0.3067  0.0711
    3TYR    SC2  769   4.961   4.714   0.176 -0.0716 -0.1481 -0.0647
    3TYR    SC3  770   4.827   4.946   0.212  0.2207  0.0050  0.0873
    1TYR     BB  771   3.843   4.817   1.708 -0.2445 -0.0014  0.0761
    1TYR    SC1  772   3.596   4.541   1.730 -0.1536  0.2562 -0.0605
    1TYR    SC2  773   3.423   4.506   1.934 -0.0962  0.2336 -0.0151
    1TYR    SC3  774   3.439   4.321   1.738  0.0126  0.1385  0.0816
    2ASN     BB  775   3.855   4.877   1.381  0.1688  0.0405 -0.1238
    2ASN    SC1  776   3.597   4.700   1.281 -0.3330 -0.0236  0.3655
    3TYR     BB  777   4.047   5.097   1.324 -0.2239  0.1163  0.1424
    3TYR    SC1  778   3.917   5.332   1.467 -0.2822 -0.0939 -0.1463
    3TYR    SC2  779   3.806   5.474   1.668 -0.1470 -0.1252 -0.0475
    3TYR    SC3  780   3.973   5.594   1.494  0.0476 -0.1801  0.0964
    1TYR     BB  781   0.912   2.184   3.430 -0.0505  0.0582 -0.2087
    1TYR    SC1  782   0.899   2.140   3.116  0.0361 -0.0541  0.2230
    1TYR    SC2  783   0.786   2.239   2.892 -0.0680 -0.0673  0.2685
    1TYR    SC3  784   0.946   2.022   2.878 -0.0022 -0.0148  0.1956
    2ASN     BB  785   0.594   2.268   3.554  0.0073 -0.0386  0.0539
    2ASN    SC1  786   0.603   2.068   3.826  0.2810 -0.1301  0.1120
    3TYR     BB  787   0.403   2.487   3.584 -0.3607  0.2876 -0.0299
    3TYR    SC1  788   0.211   2.359   3.792 -0.1432 -0.0306 -0.0332
    3TYR    SC2  789   0.150   2.299   4.049 -0.0251 -0.0308 -0.0047
    3TYR    SC3  790   0.070   2.136   3.849 -0.1185 -0.0300  0.0314
    1TYR     BB  791   0.708   2.533   2.198  0.0412 -0.1125 -0.0283
    1TYR    SC1  792   0.823   2.646   2.457 -0.3179 -0.0128 -0.0254
    1TYR    SC2  793   0.996   2.837   2.540 -0.3619 -0.0356  0.1230
    1TYR    SC3  794   0.927   2.636   2.706 -0.2582 -0.2249 -0.0564
    2ASN     BB  795   0.477   2.585   2.030  0.0781 -0.1508 -0.1437
    2ASN    SC1  796   0.448   2.845   1.883 -0.0903  0.1134  0.1436
    3TYR     BB  797   0.212   2.398   2.033 -0.2437  0.1264 -0.1361
    3TYR    SC1  798  -0.030   2.405   1.892  0.2713  0.0754 -0.1081
    3TYR    SC2  799  -0.211   2.206   1.908  0.3770 -0.0347 -0.2443
    3TYR    SC3  800  -0.271   2.432   1.773  0.2995 -0.0218 -0.1895
    1TYR     BB  801   0.258   0.482   2.300 -0.0104  0.0328  0.1909
    1TYR    SC1  802   0.264   0.645   2.581  0.6680 -0.2703 -0.0046
    1TYR    SC2  803   0.153   0.602   2.823  0.0393  0.2215 -0.1700
    1TYR    SC3  804   0.411   0.679   2.805  0.0952  0.1986  0.3369
    2ASN     BB  805   0.608   0.611   2.176 -0.4644  0.0829  0.0938
    2ASN    SC1  806   0.672   0.792   2.407 -0.0236 -0.2253 -0.1498
    3TYR     BB  807   0.662   0.559   1.857  0.0846  0.0662  0.2961
    3TYR    SC1  808   0.702   0.714   1.622  0.0579 -0.5504 -0.1094
    3TYR    SC2  809   0.735   0.861   1.398  0.0398 -0.0330  0.2055
    3TYR    SC3  810   0.939   0.712   1.494  0.1602  0.0186  0.0348
    1TYR     BB  811   4.997   6.406   6.188  0.1201 -0.3825 -0.3113
    1TYR    SC1  812   4.975   6.149   6.026  0.0657  0.0125  0.0075
    1TYR    SC2  813   5.099   5.935   5.917  0.0113 -0.0925  0.1478
    1TYR    SC3  814   4.885   6.044   5.793  0.0018 -0.1573  0.1060
    2ASN     BB  815   5.104   6.437   6.527  0.1972  0.1170 -0.0449
    2ASN    SC1  816   5.405   6.346   6.606 -0.1860 -0.1249  0.0123
    3TYR     BB  817   4.950   6.580   6.839 -0.0761  0.0546  0.0987
    3TYR    SC1  818   5.202   6.770   6.891 -0.0939  0.2617 -0.1739
    3TYR    SC2  819   5.466   6.722   6.862 -0.1209  0.0226 -0.0537
    3TYR    SC3  820   5.382   6.957   6.966  0.0672 -0.0744  0.3432
    1TYR     BB  821   5.882   3.363   7.541 -0.0272 -0.0691 -0.0762
    1TYR    SC1  822   6.089   3.146   7.463  0.2585  0.2044 -0.2267
    1TYR    SC2  823   6.014   2.922   7.332 -0.0176  0.1873 -0.0496
    1TYR    SC3  824   6.259   3.029   7.289  0.0179  0.0036 -0.3329
    2ASN     BB  825   5.962   3.507   7.774 -0.1600 -0.0281  0.0147
    2ASN    SC1  826   5.936   3.783   7.814 -0.3982 -0.1971  0.2248
    3TYR     BB  827   6.219   3.373   7.941 -0.2738 -0.0818 -0.3274
    3TYR    SC1  828   6.441   3.185   7.841  0.1351  0.2328 -0.1976
    3TYR    SC2  829   6.534   3.034   7.637  0.2583 -0.1233  0.1080
    3TYR    SC3  830   6.706   3.144   7.813  0.1375 -0.3769  0.3964
    1TYR     BB  831   1.705   3.641   1.520 -0.3573 -0.0072 -0.0471
    1TYR    SC1  832   1.682   3.794   1.800 -0.2264  0.0244  0.1209
    1TYR    SC2  833   1.452   3.883   1.908 -0.1093  0.0884  0.3245
    1TYR    SC3  834   1.687   3.997   1.977 -0.0404  0.2470 -0.1288
    2ASN     BB  835   1.402   3.781   1.424  0.0413  0.0523 -0.0638
    2ASN    SC1  836   1.591   3.974   1.190  0.1331  0.2056  0.2127
    3TYR     BB  837   1.176   3.908   1.456  0.0287  0.1405 -0.2025
    3TYR    SC1  838   1.128   4.204   1.428 -0.0095 -0.0375  0.1058
    3TYR    SC2  839   1.232   4.443   1.355  0.0805 -0.1156 -0.0292
    3TYR    SC3  840   1.005   4.432   1.502 -0.0841  0.0503 -0.2616
    1TYR     BB  841   4.868   6.613   7.329  0.0461 -0.0768  0.1355
    1TYR    SC1  842   4.772   6.325   7.297 -0.3128 -0.1726 -0.0294
    1TYR    SC2  843   4.798   6.056   7.304 -0.0258 -0.1485 -0.0325
    1TYR    SC3  844   4.579   6.173   7.408 -0.0775 -0.3735  0.1194
    2ASN     BB  845   5.175   6.669   7.429  0.1453  0.1764 -0.0705
    2ASN    SC1  846   5.173   6.992   7.438 -0.1011  0.0095  0.1203
    3TYR     BB  847   5.487   6.567   7.590  0.0084 -0.0531  0.0005
    3TYR    SC1  848   5.387   6.484   7.903  0.0347 -0.0246 -0.0264
    3TYR    SC2  849   5.512   6.348   8.100  0.0734 -0.0656 -0.0788
    3TYR    SC3  850   5.244   6.380   8.107  0.0945  0.0972  0.0790
    1TYR     BB  851   4.343   6.745   6.501 -0.0831  0.2288  0.3765
    1TYR    SC1  852   4.347   6.626   6.235 -0.0613  0.1458 -0.1644
    1TYR    SC2  853   4.529   6.599   6.037  0.1175 -0.1830  0.0334
    1TYR    SC3  854   4.265   6.587   5.980  0.1572  0.0335 -0.2208
    2ASN     BB  855   4.548   6.966   6.519 -0.0466 -0.0160 -0.0094
    2ASN    SC1  856   4.444   7.213   6.634 -0.0773 -0.1085 -0.0931
    3TYR     BB  857   4.844   6.861   6.445 -0.2100  0.0287  0.0347
    3TYR    SC1  858   5.159   6.953   6.455  0.0330 -0.1674 -0.2619
    3TYR    SC2  859   5.413   7.003   6.534  0.0055 -0.1284 -0.1969
    3TYR    SC3  860   5.366   6.873   6.302  0.0869 -0.2049 -0.1708
    1TYR     BB  861   5.840   5.760   6.178 -0.0476  0.1634 -0.0305
    1TYR    SC1  862   5.664   5.632   5.965  0.1201 -0.4690  0.2148
    1TYR    SC2  863   5.429   5.557   5.856 -0.0407  0.3174 -0.0604
    1TYR    SC3  864   5.637   5.624   5.697  0.1643  0.2345  0.1656
    2ASN     BB  865   5.807   5.778   6.436  0.0156  0.0896  0.1863
    2ASN    SC1  866   5.782   6.022   6.587 -0.1515  0.4064 -0.1267
    3TYR     BB  867   5.888   5.566   6.698 -0.3076  0.1280  0.0670
    3TYR    SC1  868   5.602   5.573   6.853 -0.1319 -0.3872 -0.3775
    3TYR    SC2  869   5.378   5.456   6.947 -0.1809 -0.0765 -0.0824
    3TYR    SC3  870   5.370   5.710   6.854  0.0698 -0.0140  0.0553
    1TYR     BB  871   4.702   6.987   0.053  0.1935 -0.3330  0.0766
    1TYR    SC1  872   4.488   6.851  -0.106 -0.0985  0.3395 -0.3276
    1TYR    SC2  873   4.357   6.622  -0.164 -0.0489  0.1655  0.1878
    1TYR    SC3  874   4.224   6.857  -0.163 -0.1896  0.0892  0.0287
    2ASN     BB  875   4.912   6.770   0.203 -0.1495  0.2307 -0.1862
    2ASN    SC1  876   5.159   6.891   0.298  0.0745 -0.3254  0.1570
    3TYR     BB  877   4.870   6.375   0.184 -0.1594  0.0226  0.1324
    3TYR    SC1  878   5.089   6.163   0.089  0.2821 -0.1883 -0.0023
    3TYR    SC2  879   5.233   6.107  -0.133  0.1372  0.0671 -0.1674
    3TYR    SC3  880   5.338   6.061   0.112  0.2662 -0.3025 -0.2837
    1TYR     BB  881   0.155   3.720   1.569  0.1869  0.1080  0.3975
    1TYR    SC1  882   0.184   3.408   1.603 -0.0213  0.0340  0.2741
    1TYR    SC2  883   0.352   3.207   1.538  0.1152  0.2340 -0.0156
    1TYR    SC3  884   0.119   3.152   1.663 -0.1686 -0.1955 -0.6627
    2ASN     BB  885   0.214   3.810   1.284  0.1673 -0.0724 -0.0530
    2ASN    SC1  886   0.259   3.569   1.078  0.3991 -0.0161  0.3019
    3TYR     BB  887   0.201   4.049   1.174  0.0748  0.0790 -0.1819
    3TYR    SC1  888   0.421   4.248   1.279 -0.3938  0.3206  0.0876
    3TYR    SC2  889   0.480   4.455   1.442 -0.2949  0.0916  0.3519
    3TYR    SC3  890   0.536   4.202   1.519 -0.1226 -0.0181 -0.0954
    1TYR     BB  891   6.848   4.039   1.374 -0.1994 -0.2916  0.1473
    1TYR    SC1  892   6.632   3.858   1.205 -0.0377 -0.0901  0.0049
    1TYR    SC2  893   6.404   3.744   1.116 -0.1187 -0.0366  0.1414
    1TYR    SC3  894   6.614   3.773   0.949 -0.1842 -0.1572  0.0365
    2ASN     BB  895   6.804   4.313   1.238 -0.0148 -0.0836  0.0885
    2ASN    SC1  896   6.953   4.591   1.285  0.1412  0.2353  0.1625
    3TYR     BB  897   6.493   4.428   1.303 -0.0694  0.1698  0.1821
    3TYR    SC1  898   6.366   4.160   1.431 -0.0651 -0.0185  0.0667
    3TYR    SC2  899   6.422   4.112   1.691  0.4155 -0.0247 -0.0266
    3TYR    SC3  900   6.303   3.921   1.542  0.2417 -0.0643  0.1574
    1TYR     BB  901   0.203   1.527   0.692 -0.2669 -0.2667  0.1473
    1TYR    SC1  902   0.378   1.727   0.483 -0.3860 -0.3936 -0.2140
    1TYR    SC2  903   0.366   1.861   0.249  0.0254 -0.1088 -0.0862
    1TYR    SC3  904   0.519   1.640   0.270  0.0406 -0.0968 -0.0703
    2ASN     BB  905   0.316   1.303   0.742  0.1450 -0.0431 -0.2619
    2ASN    SC1  906   0.146   1.028   0.680 -0.0607  0.1862 -0.0708
    3TYR     BB  907   0.543   1.332   0.960 -0.0002  0.1565  0.1013
    3TYR    SC1  908   0.428   1.531   1.176 -0.3918 -0.2279  0.1955
    3TYR    SC2  909   0.213   1.684   1.229 -0.2472 -0.0089  0.1671
    3TYR    SC3  910   0.449   1.737   1.349 -0.0400  0.1837 -0.2975
    1TYR     BB  911   6.825   1.499   2.079 -0.1647 -0.1987  0.0394
    1TYR    SC1  912   6.809   1.557   2.335 -0.0059 -0.2072  0.0959
    1TYR    SC2  913   6.774   1.793   2.463  0.3373 -0.0074 -0.1566
    1TYR    SC3  914   6.655   1.569   2.557  0.3467  0.1799  0.3388
    2ASN     BB  915   6.971   1.112   2.127 -0.1896  0.0218 -0.0216
    2ASN    SC1  916   6.705   1.051   2.228  0.1878 -0.0025  0.0133
    3TYR     BB  917   7.306   1.168   2.217  0.1065  0.1301  0.4175
    3TYR    SC1  918   7.371   0.991   2.432  0.1546 -0.0187 -0.0320
    3TYR    SC2  919   7.498   0.785   2.551  0.0361 -0.1104 -0.0629
    3TYR    SC3  920   7.400   0.987   2.701  0.0621 -0.1271 -0.0231
    1TYR     BB  921   7.230   4.834   7.626  0.2211 -0.1675  0.1050
    1TYR    SC1  922   7.403   4.596   7.587 -0.0489  0.2570 -0.4842
    1TYR    SC2  923   7.627   4.452   7.544 -0.1390  0.0673 -0.3413
    1TYR    SC3  924   7.415   4.425   7.379 -0.2341 -0.1333 -0.1906
    2ASN     BB  925   6.975   4.693   7.416 -0.0485  0.0120  0.0854
    2ASN    SC1  926   7.019   4.677   7.084 -0.1159  0.2505 -0.2922
    3TYR     BB  927   6.701   4.879   7.425 -0.0122 -0.0797 -0.1336
    3TYR    SC1  928   6.704   5.151   7.336  0.1210 -0.1033  0.0500
    3TYR    SC2  929   6.902   5.226   7.169 -0.0810 -0.3749 -0.3301
    3TYR    SC3  930   6.757   5.413   7.298  0.4891 -0.1697  0.0627
    1TYR     BB  931   4.303   3.813   6.978 -0.2251  0.1312 -0.2045
    1TYR    SC1  932   4.005   3.783   7.047  0.2141  0.0175 -0.1271
    1TYR    SC2  933   3.766   3.851   6.942  0.2578  0.1499 -0.1441
    1TYR    SC3  934   3.786   3.637   7.106  0.0062  0.4775  0.3469
    2ASN     BB  935   4.453   3.720   7.329  0.1437  0.1315 -0.1442
    2ASN    SC1  936   4.474   3.392   7.225  0.0954 -0.1289  0.0485
    3TYR     BB  937   4.517   3.883   7.536 -0.0998 -0.0153 -0.0960
    3TYR    SC1  938   4.655   4.153   7.611 -0.1107 -0.1205  0.3302
    3TYR    SC2  939   4.609   4.359   7.780  0.2215 -0.0569  0.3498
    3TYR    SC3  940   4.856   4.250   7.763  0.1404 -0.2093  0.0655
    1TYR     BB  941   7.466   1.296   1.073 -0.0246  0.1715  0.1628
    1TYR    SC1  942   7.337   1.306   0.802 -0.3353 -0.0088  0.1368
    1TYR    SC2  943   7.113   1.386   0.676 -0.1106  0.0512 -0.2461
    1TYR    SC3  944   7.322   1.293   0.533  0.1030 -0.0307  0.1031
    2ASN     BB  945   7.275   1.486   1.271  0.2022  0.1992  0.1709
    2ASN    SC1  946   6.978   1.482   1.231 -0.0217 -0.1077  0.3491
    3TYR     BB  947   7.399   1.729   1.427  0.0994  0.1344 -0.1661
    3TYR    SC1  948   7.214   1.915   1.596  0.0999  0.3017  0.2138
    3TYR    SC2  949   7.060   2.101   1.717 -0.2613  0.0854  0.1060
    3TYR    SC3  950   6.954   1.863   1.647  0.0854 -0.0100 -0.1275
    1TYR     BB  951   0.182   2.543   0.984  0.0559  0.3327 -0.2489
    1TYR    SC1  952   0.492   2.509   0.867  0.1869 -0.0155  0.0190
    1TYR    SC2  953   0.754   2.452   0.900  0.1176 -0.5555 -0.2242
    1TYR    SC3  954   0.667   2.557   0.667  0.1380 -0.1344 -0.0536
    2ASN     BB  955   0.214   2.878   0.891 -0.2091 -0.3402 -0.1438
    2ASN    SC1  956   0.342   3.036   0.616  0.0751 -0.0702  0.1878
    3TYR     BB  957   0.188   3.084   1.136 -0.0477  0.1155  0.3394
    3TYR    SC1  958  -0.056   3.228   1.222  0.1876  0.0694 -0.2665
    3TYR    SC2  959  -0.325   3.249   1.217  0.1505 -0.2072  0.0734
    3TYR    SC3  960  -0.182   3.381   1.405  0.2379 -0.1918 -0.0030
    1TYR     BB  961   0.177   2.733   2.458  0.1700 -0.1284 -0.0394
    1TYR    SC1  962  -0.017   2.843   2.221 -0.2921  0.1499 -0.0526
    1TYR    SC2  963  -0.235   2.760   2.085 -0.0248 -0.1307 -0.3341
    1TYR    SC3  964  -0.021   2.856   1.951  0.1301 -0.1157 -0.0851
    2ASN     BB  965   0.361   2.572   2.543 -0.0119 -0.0390 -0.1402
    2ASN    SC1  966   0.341   2.280   2.528  0.0789  0.1924 -0.2945
    3TYR     BB  967   0.494   2.645   2.889  0.0571  0.0444 -0.0615
    3TYR    SC1  968   0.275   2.678   3.146 -0.0131  0.5109  0.2606
    3TYR    SC2  969   0.154   2.809   3.348 -0.5909  0.0165  0.2710
    3TYR    SC3  970   0.041   2.586   3.245  0.0481 -0.1538 -0.1318
    1TYR     BB  971   0.189   2.449   0.499  0.0205  0.2247  0.2427
    1TYR    SC1  972   0.345   2.581   0.284  0.0376 -0.3080  0.2230
    1TYR    SC2  973   0.556   2.531   0.124  0.0829 -0.2950  0.2786
    1TYR    SC3  974   0.471   2.785   0.161 -0.5432 -0.3407 -0.5163
    2ASN     BB  975   0.314   2.193   0.574 -0.2838  0.2373 -0.0839
    2ASN    SC1  976   0.645   2.101   0.534  0.2068  0.2589  0.1474
    3TYR     BB  977   0.269   2.022   0.883  0.4095  0.1866 -0.2866
    3TYR    SC1  978   0.526   1.882   0.930 -0.0667 -0.4548  0.1902
    3TYR    SC2  979   0.751   1.737   0.889 -0.0516 -0.4775  0.3482
    3TYR    SC3  980   0.738   1.913   1.094  0.0454 -0.0181 -0.0187
    1TYR     BB  981   4.614   5.028   0.660 -0.1288  0.2029 -0.0145
    1TYR    SC1  982   4.886   5.167   0.595  0.1676 -0.2241  0.1114
    1TYR    SC2  983   5.038   5.358   0.478  0.0484 -0.3028 -0.1851
    1TYR    SC3  984   5.144   5.198   0.669  0.2144 -0.0926 -0.0961
    2ASN     BB  985   4.381   5.094   0.775 -0.1856  0.1064  0.2099
    2ASN    SC1  986   4.091   5.052   0.625  0.1815  0.0749 -0.0064
    3TYR     BB  987   4.291   5.358   0.938 -0.2378  0.1265 -0.2181
    3TYR    SC1  988   4.638   5.416   0.990  0.1540 -0.2292  0.4800
    3TYR    SC2  989   4.878   5.322   1.070  0.2869 -0.1772  0.1611
    3TYR    SC3  990   4.864   5.515   0.882 -0.0072 -0.5082 -0.1775
    1TYR     BB  991   5.462   4.195   0.940  0.0707  0.0606 -0.4033
    1TYR    SC1  992   5.324   4.233   0.647  0.3922 -0.0550 -0.1668
    1TYR    SC2  993   5.178   4.385   0.479  0.3373  0.1709  0.0758
    1TYR    SC3  994   5.130   4.120   0.497  0.1796  0.1860 -0.0832
    2ASN     BB  995   5.352   4.450   1.127  0.5682 -0.2149 -0.3218
    2ASN    SC1  996   5.130   4.432   1.364  0.2647 -0.1270  0.0748
    3TYR     BB  997   5.583   4.611   1.276 -0.0372 -0.0421  0.2157
    3TYR    SC1  998   5.653   4.865   1.142  0.0483  0.3465 -0.1594
    3TYR    SC2  999   5.621   5.123   1.213  0.0846  0.3468 -0.1439
    3TYR    SC3 1000   5.494   5.026   0.995 -0.2416  0.2785  0.0675
    4W        W 1001   1.789   5.429   2.276 -0.0073 -0.0719  0.0057
    5W        W 1002   5.458   5.521   0.795 -0.0294 -0.2050  0.0481
    6W        W 1003   0.029   5.207   0.131  0.0230 -0.1046 -0.0371
    7W        W 1004   1.478   3.546   3.226 -0.2692  0.1563 -0.0733
    8W        W 1005   2.909   0.761   4.494 -0.2261 -0.0992  0.0529
    9W        W 1006   7.313   3.107   5.618  0.0892  0.2272  0.0239
   10W        W 1007   2.652   5.057   4.693  0.1602 -0.2782 -0.1393
   11W        W 1008   6.943   2.694   6.235 -0.1842  0.0870 -0.2141
   12W        W 1009   2.329   1.131   3.576 -0.0813  0.1807 -0.1292
   13W        W 1010   5.207   5.411   2.150  0.1711 -0.0449  0.1156
   14W        W 1011   1.935   7.150   5.353 -0.1936 -0.0562  0.2842
   15W        W 1012   5.948   0.586   2.884  0.2611  0.0575  0.1925
   16W        W 1013   2.442   3.456   2.303 -0.2710 -0.1041  0.1257
   17W        W 1014   4.325   5.829   1.121  0.0432 -0.1625 -0.0260
   18W        W 1015   4.477   2.393   6.250  0.0123  0.0787  0.0206
   19W        W 1016   3.648   5.747   4.006 -0.1005 -0.3857 -0.3749
   20W        W 1017   4.279   3.032   1.617  0.0712  0.2357  0.1257
   21W        W 1018   2.453   4.317   5.686 -0.1794 -0.2366 -0.1909
   22W        W 1019   0.135   4.439   2.885 -0.0539  0.2754 -0.2752
   23W        W 1020   1.742   2.968   5.210  0.0263  0.0768  0.1741
   24W        W 1021   5.683   6.627   2.662  0.1239  0.2760  0.0946
   25W        W 1022   1.387   6.008   0.516  0.4468 -0.0728  0.1605
   26W        W 1023   7.555   7.510   6.064  0.1413  0.0368 -0.0417
   27W        W 1024   6.515   2.855   5.315  0.0470 -0.1200 -0.1028
   28W        W 1025   0.264   3.309   0.197  0.2392  0.0069 -0.0985
   29W        W 1026   0.187   4.416   6.572 -0.1964 -0.0329  0.0911
   30W        W 1027   0.598   0.448   1.121  0.0632 -0.1832  0.6389
   31W        W 1028   1.274   5.593   5.400  0.0336  0.0143  0.2457
   32W        W 1029   4.387   2.015   4.508  0.0169  0.2471 -0.0878
   33W        W 1030   6.486   0.269   5.259 -0.2057  0.1117  0.0389
   34W        W 1031   1.569   7.515   7.221 -0.1734  0.0595  0.1093
   35W        W 1032   1.354   7.277   5.581  0.1672 -0.0934  0.2353
   36W        W 1033   7.061   3.534   5.381  0.1353 -0.1777 -0.0181
   37W        W 1034   5.686   7.302   1.419  0.1109  0.1100  0.0060
   38W        W 1035   7.562   0.377   5.202 -0.2314 -0.1689  0.1228
   39W        W 1036   0.098   1.331   5.030 -0.0223  0.0699  0.0369
   40W        W 1037   4.964   2.839   1.961 -0.1101  0.0231 -0.0686
   41W        W 1038   2.234   1.958   1.414  0.2346  0.2743  0.1073
   42W        W 1039   2.953   1.942   4.872 -0.0649 -0.2325  0.3643
   43W        W 1040   5.201   5.888   1.086 -0.0072  0.1908  0.1919
   44W        W 1041   0.744   5.723   5.165 -0.0361 -0.1786  0.4870
   45W        W 1042   5.339   1.797   1.372 -0.1836 -0.0841 -0.2769
   46W        W 1043   6.940   3.199   3.116  0.0258  0.3098 -0.0102
   47W        W 1044   6.922   0.327   6.423 -0.4208 -0.2140  0.0494
   48W        W 1045   6.143   4.031   3.286  0.2860 -0.1850 -0.0853
   49W        W 1046   0.890   6.993   4.176  0.1147  0.0714 -0.0510
   50W        W 1047   0.643   4.389   6.795 -0.1622 -0.2886 -0.0398
   51W        W 1048   6.331   6.797   5.347  0.1772  0.0138 -0.1543
   52W        W 1049   2.342   0.168   3.425  0.2429 -0.0423  0.2367
   53W        W 1050   4.002   6.825   4.584  0.1943 -0.3064 -0.1284
   54W        W 1051   6.265   6.078   5.180  0.0660  0.0721 -0.2603
   55W        W 1052   1.538   4.862   3.145 -0.1449  0.3030  0.0971
   56W        W 1053   2.606   1.937   6.820  0.1854 -0.0814 -0.2875
   57W        W 1054   7.361   6.821   1.060  0.0235 -0.4475 -0.0204
   58W        W 1055   3.661   2.471   1.444 -0.2760  0.0689  0.1185
   59W        W 1056   2.860   1.021   2.603  0.0175 -0.2873 -0.2023
   60W        W 1057   2.411   5.618   2.892  0.0899 -0.2362  0.0199
   61W        W 1058   1.535   5.617   4.156 -0.0478 -0.0470 -0.1944
   62W        W 1059   5.159   6.561   3.147  0.0278 -0.0675  0.2196
   63W        W 1060   4.456   5.412   1.495  0.1833 -0.0506 -0.0063
   64W        W 1061   3.587   6.077   3.578 -0.1829 -0.0251 -0.2202
   65W        W 1062   3.082   4.117   4.806  0.1828 -0.0317  0.0217
   66W        W 1063   5.922   5.531   2.929 -0.0267  0.0590  0.2125
   67W        W 1064   3.457   4.089   6.452  0.2748 -0.1976  0.0192
   68W        W 1065   4.171   5.636   4.005 -0.2416 -0.1919 -0.2415
   69W        W 1066   0.094   1.355   3.465  0.0686 -0.0266  0.1681
   70W        W 1067   4.104   4.224   2.815 -0.2088  0.3961  0.1420
   71W        W 1068   1.798   6.667   1.642  0.1934 -0.1517 -0.0671
   72W        W 1069   6.375   1.026   3.252  0.0099  0.0925  0.0384
   73W        W 1070   4.545   2.441   7.015 -0.2269  0.0445  0.1287
   74W        W 1071   7.635   5.821   0.990  0.3589 -0.0235 -0.0700
   75W        W 1072   2.131   0.340   1.019  0.0100 -0.0059  0.0106
   76W        W 1073   4.602   4.232   2.045 -0.1740  0.0364  0.3070
   77W        W 1074   7.053   0.761   6.041  0.1123  0.0221  0.0472
   78W        W 1075   4.222   2.379   4.195  0.2318 -0.0310  0.0600
   79W        W 1076   5.967   3.533   3.480 -0.1525 -0.0363 -0.1897
   80W        W 1077   6.774   7.470   6.555  0.1142 -0.2383 -0.0588
   81W        W 1078   0.464   3.544   6.424 -0.2681  0.4884  0.0475
   82W        W 1079   3.661   1.102   0.309  0.1859  0.1390 -0.5149
   83W        W 1080   1.368   2.600   5.298 -0.2626 -0.1700 -0.2937
   84W        W 1081   6.251   0.284   1.048  0.1475  0.2495  0.0690
   85W        W 1082   1.478   5.288   2.608  0.3986 -0.0971  0.1306
   86W        W 1083   4.376   3.273   2.164 -0.3354 -0.3377  0.0484
   87W        W 1084   1.671   3.308   5.727  0.1407  0.1762 -0.1999
   88W        W 1085   3.198   6.852   6.419  0.0267  0.1083  0.1874
   89W        W 1086   4.098   2.362   4.679  0.0876 -0.3640  0.0718
   90W        W 1087   2.944   1.402   1.170  0.0315  0.1760  0.2283
   91W        W 1088   4.223   3.918   5.114 -0.0464 -0.1367  0.0118
   92W        W 1089   3.050   2.429   4.601 -0.0249 -0.0433 -0.1103
   93W        W 1090   2.581   2.485   2.703 -0.0951  0.1631 -0.3278
   94W        W 1091   1.836   2.523   0.027 -0.0915 -0.3215  0.0122
   95W        W 1092   5.618   1.876   2.447  0.1137  0.0038  0.0155
   96W        W 1093   6.664   0.146   0.773  0.1562  0.1068  0.1343
   97W        W 1094   1.414   3.641   6.850  0.1632 -0.1484 -0.5346
   98W        W 1095   0.373   2.784   5.744 -0.0716  0.1814  0.0281
   99W        W 1096   5.099   7.273   2.125 -0.2033  0.2070  0.0465
  100W        W 1097   5.011   6.088   3.182 -0.2155  0.0635 -0.2644
  101W        W 1098   4.297   0.401   4.139 -0.2020  0.1887  0.2020
  102W        W 1099   7.237   5.789   0.326 -0.1539 -0.0790  0.4259
  103W        W 1100   5.735   2.811   5.694 -0.4327  0.1178 -0.1351
  104W        W 1101   0.129   4.483   6.095  0.1658 -0.1915  0.0133
  105W        W 1102   2.771   2.483   0.937  0.0847 -0.0203 -0.2467
  106W        W 1103   2.171   1.399   2.297  0.1377  0.0406  0.0483
  107W        W 1104   0.076   3.855   4.875 -0.0306  0.0217 -0.1002
  108W        W 1105   0.101   5.663   4.014 -0.1631 -0.0048 -0.1946
  109W        W 1106   2.086   1.010   4.908  0.1657  0.0235 -0.1379
  110W        W 1107   6.062   6.713   2.945 -0.1971 -0.3198 -0.2267
  111W        W 1108   2.200   2.290   1.949  0.0340  0.0559  0.2081
  112W        W 1109   3.490   1.799   5.706 -0.0381  0.3979 -0.0144
  113W        W 1110   2.732   0.203   4.699  0.1505 -0.2433  0.3313
  114W        W 1111   5.891   7.521   6.565 -0.3001  0.3970  0.0260
  115W        W 1112   5.941   3.944   4.670  0.1424  0.1481  0.0132
  116W        W 1113   2.197   0.693   6.568  0.0197 -0.1662  0.1802
  117W        W 1114   5.198   2.335   1.816 -0.0690  0.3047  0.4270
  118W        W 1115   6.712   0.887   5.719  0.0208 -0.0662 -0.1510
  119W        W 1116   2.182   2.800   7.474 -0.0864  0.1695 -0.0300
  120W        W 1117   5.890   6.871   0.038 -0.0742  0.2582 -0.0621
  121W        W 1118   1.525   2.824   6.224  0.0059 -0.2349  0.1040
  122W        W 1119   7.112   6.942   6.458  0.1210 -0.3029 -0.0608
  123W        W 1120   3.797   5.855   2.604 -0.0339 -0.1816  0.2160
  124W        W 1121   0.661   6.989   0.169  0.0613  0.0095  0.0753
  125W        W 1122   5.073   1.888   7.276 -0.0173  0.0146 -0.1279
  126W        W 1123   0.694   3.989   4.096 -0.3485  0.0234 -0.1513
  127W        W 1124   4.718   0.743   4.288 -0.4174 -0.1681 -0.0899
  128W        W 1125   5.871   6.379   1.907  0.1848  0.0121  0.2756
  129W        W 1126   4.094   6.880   1.717  0.1383  0.3487  0.2647
  130W        W 1127   0.942   5.174   0.430 -0.0634 -0.0767  0.0518
  131W        W 1128   1.169   4.864   1.127  0.2097  0.1920 -0.1090
  132W        W 1129   2.322   2.493   5.624 -0.1281 -0.3666 -0.1347
  133W        W 1130   2.133   5.347   0.585 -0.3604 -0.0518 -0.1019
  134W        W 1131   1.425   3.275   6.342 -0.4247 -0.1554  0.0613
  135W        W 1132   4.706   4.766   2.367  0.2810  0.3794  0.1557
  136W        W 1133   3.291   4.097   2.137  0.1909 -0.2133 -0.1327
  137W        W 1134   1.812   6.211   0.211  0.0551 -0.1102  0.0921
  138W        W 1135   1.608   1.177   7.106 -0.0574 -0.1265 -0.0541
  139W        W 1136   5.280   0.913   5.639 -0.0813  0.0092 -0.3487
  140W        W 1137   6.113   1.997   0.600  0.0988 -0.4843 -0.0760
  141W        W 1138   7.564   3.758   0.152  0.2399 -0.0051 -0.1354
  142W        W 1139   6.113   1.899   4.406 -0.1699 -0.1488 -0.1188
  143W        W 1140   4.528   6.914   1.474  0.3126 -0.2638  0.0267
  144W        W 1141   6.048   5.920   4.692  0.0769  0.0569  0.0125
  145W        W 1142   5.552   3.962   6.580  0.1002  0.0334  0.1166
  146W        W 1143   1.682   6.944   2.100 -0.1435 -0.0178  0.0094
  147W        W 1144   2.936   3.281   1.303 -0.2111 -0.3494 -0.1928
  148W        W 1145   6.579   7.509   1.186 -0.0473  0.2343 -0.2573
  149W        W 1146   5.801   5.902   2.582 -0.1812 -0.2092  0.3166
  150W        W 1147   1.248   2.327   6.350 -0.2914 -0.1479  0.1803
  151W        W 1148   3.283   3.143   2.559 -0.1353 -0.0213 -0.2294
  152W        W 1149   4.120   3.197   1.135  0.0534  0.0173  0.1804
  153W        W 1150   0.606   5.730   3.649  0.0411  0.0706  0.2508
  154W        W 1151   2.076   7.467   0.805 -0.1930  0.0146  0.0386
  155W        W 1152   5.083   4.648   5.805  0.2418  0.0817 -0.4436
  156W        W 1153   6.785   2.456   3.897  0.3042  0.1921  0.0272
  157W        W 1154   6.347   0.122   6.463  0.2816 -0.3083 -0.0566
  158W        W 1155   3.191   2.473   0.683  0.2149  0.1860  0.0072
  159W        W 1156   4.776   6.150   1.855 -0.0851 -0.2935  0.1646
  160W        W 1157   2.205   4.819   6.964 -0.0588  0.0586 -0.1855
  161W        W 1158   6.331   2.425   3.388  0.3404 -0.0908 -0.2889
  162W        W 1159   1.222   0.609   0.073 -0.4506  0.0417  0.0463
  163W        W 1160   2.765   1.108   1.630 -0.1661 -0.2315 -0.1667
  164W        W 1161   0.622   4.521   2.822  0.1024 -0.0309  0.0515
  165W        W 1162   4.214   0.861   1.951 -0.1125 -0.0178 -0.1598
  166W        W 1163   2.508   1.299   4.774  0.3389  0.0571 -0.1359
  167W        W 1164   4.608   7.477   0.496  0.0685 -0.0381  0.2574
  168W        W 1165   3.716   2.795   0.101 -0.0292 -0.1316  0.1152
  169W        W 1166   0.948   4.843   6.595  0.0421  0.3518  0.0385
  170W        W 1167   5.004   0.305   1.835  0.0456 -0.2953  0.0289
  171W        W 1168   4.724   3.457   2.509  0.2946 -0.0263  0.1291
  172W        W 1169   1.446   5.167   4.059  0.1833 -0.0875 -0.0661
  173W        W 1170   1.925   5.279   5.964  0.0270 -0.1704 -0.1493
  174W        W 1171   1.200   2.596   5.884  0.3030  0.1426  0.1455
  175W        W 1172   6.438   2.215   4.152 -0.0097  0.0590 -0.1849
  176W        W 1173   1.198   1.167   6.343  0.2227 -0.1165 -0.3136
  177W        W 1174   7.015   1.893   6.424  0.0808  0.0515  0.0710
  178W        W 1175   2.758   4.653   0.810 -0.0695  0.0941 -0.3922
  179W        W 1176   3.632   6.282   4.935  0.0363  0.0026 -0.0978
  180W        W 1177   4.246   7.612   6.436  0.0610  0.0164 -0.1057
  181W        W 1178   6.802   2.589   4.855 -0.1274 -0.0457  0.3085
  182W        W 1179   1.782   1.159   5.675 -0.0910  0.0562 -0.0712
  183W        W 1180   1.032   5.682   3.984 -0.0111  0.1007  0.0772
  184W        W 1181   2.475   5.782   0.775 -0.2797 -0.1068 -0.3229
  185W        W 1182   5.717   0.034   6.058  0.0781  0.0100 -0.0569
  186W        W 1183   4.704   1.521   4.564  0.1082 -0.1791  0.0964
  187W        W 1184   5.313   6.315   1.899  0.0397  0.1227  0.4548
  188W        W 1185   4.590   0.031   6.813  0.0070  0.1231 -0.2006
  189W        W 1186   0.553   0.740   4.299 -0.2834  0.1330 -0.1039
  190W        W 1187   2.081   4.200   3.343 -0.4217  0.0247  0.0143
  191W        W 1188   2.719   4.979   4.171 -0.2722  0.2343  0.1548
  192W        W 1189   0.458   3.450   6.889  0.0525  0.1593  0.0717
  193W        W 1190   2.540   4.331   6.176  0.2950 -0.3110  0.2132
  194W        W 1191   1.939   0.302   3.759 -0.0453  0.0780 -0.0525
  195W        W 1192   4.666   2.223   4.008  0.0035 -0.1156 -0.3052
  196W        W 1193   1.158   4.085   3.938  0.1650 -0.1027  0.2156
  197W        W 1194   4.839   1.804   1.104 -0.4008 -0.2522 -0.0709
  198W        W 1195   4.134   4.066   2.301 -0.0690 -0.2707 -0.0640
  199W        W 1196   2.543   3.363   6.797  0.0041  0.0008  0.2128
  200W        W 1197   5.904   2.182   6.946 -0.2275 -0.0995  0.0783
  201W        W 1198   2.856   3.364   2.637  0.0192  0.0748  0.2566
  202W        W 1199   2.669   2.854   7.145  0.0911  0.0244  0.0522
  203W        W 1200   6.981   5.113   1.298 -0.1122 -0.1611 -0.0770
  204W        W 1201   0.239   4.591   4.136  0.0103  0.1429 -0.0664
  205W        W 1202   4.558   0.552   6.503  0.0037 -0.0051  0.1409
  206W        W 1203   2.911   4.314   7.109 -0.0906 -0.0824  0.4042
  207W        W 1204   5.958   3.967   5.573  0.2065 -0.0191 -0.1494
  208W        W 1205   6.279   4.030   2.461  0.1241 -0.2991  0.2710
  209W        W 1206   6.685   0.829   3.652 -0.0446 -0.3190 -0.1949
  210W        W 1207   1.206   1.126   1.349  0.0641 -0.0192 -0.1700
  211W        W 1208   0.408   1.207   5.961  0.1588 -0.2210  0.2188
  212W        W 1209   6.871   0.618   5.328  0.0241  0.0765  0.1529
  213W        W 1210   1.860   4.849   5.599 -0.2345 -0.0166 -0.1379
  214W        W 1211   2.118   6.262   4.064 -0.0335  0.2647 -0.2053
  215W        W 1212   7.013   4.193   4.562  0.0137 -0.5786  0.0430
  216W        W 1213   4.833   7.589   1.507 -0.0432  0.0053 -0.2181
  217W        W 1214   1.695   5.518   7.190  0.2866 -0.0482 -0.0912
  218W        W 1215   0.869   0.213   1.493 -0.0128  0.2440 -0.1062
  219W        W 1216   0.034   1.155   4.353  0.2151 -0.0782 -0.0028
  220W        W 1217   0.861   7.169   6.305 -0.0382 -0.0001 -0.1049
  221W        W 1218   3.038   1.959   6.973 -0.2309  0.0302 -0.3458
  222W        W 1219   0.423   4.155   5.810  0.4396  0.0778 -0.2425
  223W        W 1220   1.986   0.708   2.551  0.0249 -0.2267 -0.0699
  224W        W 1221   7.412   6.952   4.846  0.0127 -0.0310 -0.1557
  225W        W 1222   5.262   1.295   1.251  0.0601 -0.0681 -0.1077
  226W        W 1223   4.729   4.614   4.502  0.0494 -0.0574 -0.1855
  227W        W 1224   2.227   2.206   2.948 -0.1469  0.1879 -0.2733
  228W        W 1225   1.113   0.674   6.194  0.1149  0.1472  0.2722
  229W        W 1226   4.393   2.486   7.495 -0.0045  0.1128  0.2109
  230W        W 1227   0.838   4.020   3.564  0.2320  0.1177 -0.2869
  231W        W 1228   4.461   5.656   3.399 -0.1361 -0.0453  0.1623
  232W        W 1229   2.981   0.501   1.938 -0.0733 -0.0999 -0.0238
  233W        W 1230   2.060   2.848   1.135  0.1224  0.2837  0.0827
  234W        W 1231   3.907   5.647   4.418  0.3920 -0.0245  0.1690
  235W        W 1232   7.310   5.931   5.004  0.1008 -0.3218 -0.1306
  236W        W 1233   2.543   4.355   2.010  0.0448  0.0883  0.0488
  237W        W 1234   6.905   4.925   5.070 -0.1142 -0.0773  0.1012
  238W        W 1235   0.412   5.656   6.799  0.1543  0.0376  0.1549
  239W        W 1236   1.649   6.395   2.107 -0.1656 -0.0579 -0.1113
  240W        W 1237   4.500   4.907   2.790  0.0263  0.0793  0.0982
  241W        W 1238   6.143   2.680   6.074  0.1189 -0.0626  0.0036
  242W        W 1239   6.537   5.318   5.423  0.0064  0.2079 -0.0217
  243W        W 1240   0.841   0.067   6.162 -0.2270 -0.0943  0.2419
  244W        W 1241   5.665   7.179   2.007 -0.3082  0.2100 -0.3833
  245W        W 1242   0.141   7.180   0.941  0.1803  0.0235  0.0274
  246W        W 1243   2.833   3.448   6.382 -0.0056 -0.4092  0.1820
  247W        W 1244   6.209   1.734   6.792  0.1484  0.0617  0.2288
  248W        W 1245   4.557   2.858   6.477  0.2195 -0.0203  0.2231
  249W        W 1246   3.270   2.555   0.133  0.0708 -0.0611 -0.3312
  250W        W 1247   6.056   3.542   4.065 -0.2459 -0.2098 -0.0466
  251W        W 1248   2.924   3.692   0.578 -0.0156 -0.2107  0.0007
  252W        W 1249   0.399   3.582   7.444  0.2384 -0.0791 -0.0905
  253W        W 1250   0.442   6.282   4.613 -0.0918 -0.1340  0.0925
  254W        W 1251   2.010   4.397   1.950  0.0975 -0.0394  0.2020
  255W        W 1252   0.030   3.007   6.600  0.2269 -0.2883 -0.2086
  256W        W 1253   6.690   7.508   1.776  0.0811  0.0188 -0.0272
  257W        W 1254   0.424   1.194   6.984 -0.0023  0.0679 -0.2933
  258W        W 1255   7.341   1.629   6.100  0.0142  0.1785  0.1728
  259W        W 1256   0.623   3.880   4.867 -0.0152  0.1392  0.0059
  260W        W 1257   6.156   5.897   2.266 -0.4335  0.0512  0.0477
  261W        W 1258   5.349   7.492   6.472 -0.0640  0.1845 -0.0801
  262W        W 1259   0.005   6.999   6.391  0.3882  0.0962  0.1186
  263W        W 1260   5.515   3.071   5.323 -0.2914 -0.1199 -0.1987
  264W        W 1261   0.680   5.979   4.182  0.0369 -0.0837 -0.3147
  265W        W 1262   6.304   5.644   3.638  0.0587  0.0848  0.1656
  266W        W 1263   6.609   1.317   0.009 -0.2972  0.0087 -0.1166
  267W        W 1264   0.546   5.714   2.792  0.1632  0.3329 -0.0588
  268W        W 1265   0.495   0.120   3.655  0.0261  0.0610  0.0348
  269W        W 1266   2.244   4.925   4.343 -0.0383 -0.2556  0.0764
  270W        W 1267   4.669   2.501   5.380 -0.1511 -0.1455  0.1946
  271W        W 1268   0.428   7.342   4.443  0.0754 -0.1733 -0.2222
  272W        W 1269   4.261   4.530   2.432  0.0455 -0.0421 -0.3268
  273W        W 1270   4.619   1.167   2.905  0.1688  0.4616  0.0618
  274W        W 1271   4.271   5.203   3.787  0.3636  0.1961 -0.2977
  275W        W 1272   3.751   4.648   5.961  0.1190 -0.2865  0.2657
  276W        W 1273   4.727   1.533   6.601  0.0059  0.2850  0.0054
  277W        W 1274   5.640   1.563   3.493  0.0985  0.1698 -0.2337
  278W        W 1275   3.651   2.748   3.068 -0.1361  0.0556 -0.1701
  279W        W 1276   6.887   7.026   5.729 -0.2567  0.0103 -0.2624
  280W        W 1277   6.907   1.096   3.089  0.0310  0.0722 -0.0881
  281W        W 1278   3.116   3.277   3.651 -0.0142 -0.1593 -0.0482
  282W        W 1279   4.335   0.937   4.001  0.1814  0.2073  0.0154
  283W        W 1280   3.310   1.315   3.739  0.1127  0.0891  0.0682
  284W        W 1281   6.095   0.463   2.372 -0.2036  0.0727  0.2254
  285W        W 1282   0.447   1.330   7.451  0.1653 -0.3317 -0.2340
  286W        W 1283   7.190   2.443   5.113 -0.0743  0.0603  0.1063
  287W        W 1284   6.735   2.313   7.631 -0.1131  0.3001 -0.1577
  288W        W 1285   5.823   4.059   3.761  0.1632 -0.1405  0.0281
  289W        W 1286   6.234   0.040   5.922  0.2374 -0.3665  0.1340
  290W        W 1287   4.968   1.831   5.794  0.1204  0.1284 -0.2361
  291W        W 1288   4.992   4.240   2.577  0.0884 -0.2102 -0.2851
  292W        W 1289   3.862   7.314   4.888  0.1412  0.0098 -0.1010
  293W        W 1290   5.126   5.869   3.704 -0.3561  0.1701 -0.0449
  294W        W 1291   6.109   5.123   5.376  0.0151  0.1245  0.2335
  295W        W 1292   3.302   0.061   7.055  0.0416 -0.2323  0.0511
  296W        W 1293   6.518   3.113   6.126  0.1509  0.1555  0.3378
  297W        W 1294   1.620   4.091   6.738  0.0764  0.0086  0.0962
  298W        W 1295   3.119   7.600   3.891  0.1091  0.2425  0.0988
  299W        W 1296   5.181   0.673   3.558 -0.3023  0.2460  0.3462
  300W        W 1297   6.695   0.925   6.563  0.0569 -0.5286 -0.0057
  301W        W 1298   3.818   7.124   3.360 -0.0051 -0.0874 -0.0271
  302W        W 1299   1.765   2.471   3.037  0.1426  0.0598  0.0230
  303W        W 1300   1.189   4.641   5.330  0.2018 -0.0533  0.2280
  304W        W 1301   2.105   5.803   2.064 -0.0997  0.1743 -0.3353
  305W        W 1302   5.405   0.146   3.261  0.0788 -0.0401  0.0654
  306W        W 1303   7.207   2.034   3.743  0.1264 -0.0213 -0.0534
  307W        W 1304   1.539   4.636   6.259  0.0611 -0.0424  0.3115
  308W        W 1305   3.882   6.625   4.160  0.0658 -0.2278  0.3541
  309W        W 1306   0.898   6.531   2.703 -0.0620  0.0532  0.0090
  310W        W 1307   1.282   5.572   0.381 -0.1027 -0.0151  0.1003
  311W        W 1308   3.917   3.878   4.667 -0.0223  0.2272 -0.1011
  312W        W 1309   0.327   6.052   1.980 -0.1647  0.3357  0.1938
  313W        W 1310   2.473   6.169   2.328  0.0100 -0.0775  0.0227
  314W        W 1311   2.533   6.078   3.826  0.1484 -0.0155  0.0611
  315W        W 1312   6.936   0.424   4.023 -0.0097 -0.1893 -0.0641
  316W        W 1313   3.095   0.917   3.038  0.4492  0.1288  0.2415
  317W        W 1314   5.170   2.910   7.196  0.0312  0.1059 -0.1803
  318W        W 1315   2.673   1.983   6.176 -0.3719  0.1278 -0.0382
  319W        W 1316   1.023   0.132   0.135 -0.1589 -0.0634 -0.0086
  320W        W 1317   6.756   6.541   6.313  0.0101 -0.0753  0.0046
  321W        W 1318   3.727   2.630   4.229 -0.0613 -0.3348 -0.4184
  322W        W 1319   7.531   2.869   5.996 -0.0925 -0.0324 -0.1379
  323W        W 1320   4.920   1.269   0.286 -0.0320  0.1597  0.0946
  324W        W 1321   6.463   2.290   6.248  0.0205 -0.3402 -0.0166
  325W        W 1322   2.276   4.729   2.573 -0.2108 -0.1594  0.1781
  326W        W 1323   6.832   0.807   1.755  0.3045 -0.0565 -0.1344
  327W        W 1324   4.453   1.496   7.548 -0.1161 -0.0601 -0.0378
  328W        W 1325   0.712   0.875   0.874 -0.2966  0.1486  0.1265
  329W        W 1326   6.175   6.218   4.323  0.0314  0.1038 -0.0042
  330W        W 1327   5.261   3.372   4.149 -0.0696  0.2239 -0.1979
  331W        W 1328   7.382   4.893   4.044  0.1179  0.0422  0.0793
  332W        W 1329   5.942   1.079   4.510  0.0600  0.0153  0.0006
  333W        W 1330   3.846   0.237   0.573  0.0746 -0.0629  0.3907
  334W        W 1331   3.677   3.190   6.085  0.1073 -0.1867  0.2439
  335W        W 1332   1.742   2.015   2.943 -0.4695  0.0441 -0.0073
  336W        W 1333   6.177   1.992   5.459  0.1812  0.1832  0.0310
  337W        W 1334   4.939   6.663   4.815 -0.2916  0.0194  0.2051
  338W        W 1335   6.530   4.682   3.866  0.0065  0.1546  0.1523
  339W        W 1336   2.878   7.357   5.809  0.3927  0.0470 -0.3659
  340W        W 1337   3.514   0.259   4.238 -0.1233  0.1380  0.2832
  341W        W 1338   6.584   0.357   3.607  0.1172  0.0435 -0.0403
  342W        W 1339   6.468   0.577   2.778  0.4547 -0.1267 -0.2860
  343W        W 1340   5.390   4.610   5.341 -0.0083  0.1696 -0.1412
  344W        W 1341   1.061   6.714   1.268  0.2394  0.3744  0.1013
  345W        W 1342   1.145   6.342   0.837 -0.3149  0.1805  0.0492
  346W        W 1343   5.095   2.790   3.351  0.3589 -0.0167 -0.0189
  347W        W 1344   7.291   0.239   3.484 -0.1125  0.1145 -0.4998
  348W        W 1345   4.184   0.652   7.293 -0.2197  0.1685 -0.0315
  349W        W 1346   2.787   7.463   1.327 -0.0749  0.4115  0.1303
  350W        W 1347   1.695   5.315   6.733  0.0927 -0.2907  0.0922
  351W        W 1348   0.672   7.281   2.839 -0.0709 -0.2606 -0.2314
  352W        W 1349   0.783   7.469   2.363 -0.0961 -0.3807 -0.0024
  353W        W 1350   2.443   0.253   3.915 -0.0506 -0.2743 -0.0779
  354W        W 1351   4.724   5.769   5.319  0.0437 -0.2035  0.0291
  355W        W 1352   0.559   6.164   5.649 -0.0148  0.1518 -0.0759
  356W        W 1353   7.292   6.542   5.102  0.0568 -0.1197  0.0579
  357W        W 1354   4.080   6.824   1.204  0.1413  0.1208  0.2374
  358W        W 1355   0.211   4.392   7.081  0.1211 -0.1226 -0.1565
  359W        W 1356   1.317   3.648   7.369 -0.1444  0.1521  0.1788
  360W        W 1357   3.554   5.497   5.581 -0.2636 -0.2762 -0.2591
  361W        W 1358   7.146   1.450   0.035 -0.0138 -0.2028  0.4540
  362W        W 1359   1.139   6.094   4.910  0.1327  0.1527  0.1319
  363W        W 1360   2.457   3.013   2.607  0.0202  0.2269 -0.1618
  364W        W 1361   3.010   3.013   5.432  0.1519  0.2903 -0.0628
  365W        W 1362   0.917   2.847   7.519 -0.2114 -0.0825 -0.0609
  366W        W 1363   5.233   1.589   6.944 -0.0592 -0.0839 -0.0950
  367W        W 1364   3.333   3.056   2.069 -0.2708  0.0150  0.1697
  368W        W 1365   5.330   1.135   3.594 -0.2296 -0.0147  0.2757
  369W        W 1366   5.889   2.889   4.768  0.0920  0.1438 -0.2107
  370W        W 1367   5.199   1.229   2.715  0.2441  0.0778 -0.1715
  371W        W 1368   3.017   0.545   1.474  0.0667 -0.1153  0.1080
  372W        W 1369   1.228   6.713   2.279 -0.1132 -0.1322 -0.1904
  373W        W 1370   2.767   4.725   1.621  0.1617 -0.0147  0.3424
  374W        W 1371   1.460   1.834   4.119 -0.0007  0.0057  0.0354
  375W        W 1372   3.665   0.855   5.689  0.2237  0.1505 -0.3829
  376W        W 1373   0.122   4.099   4.174 -0.0169  0.1810 -0.1614
  377W        W 1374   4.870   7.165   1.110  0.1582 -0.2421 -0.1799
  378W        W 1375   0.894   4.570   4.370 -0.2560  0.2155 -0.0346
  379W        W 1376   1.489   1.508   1.540  0.1435  0.0565 -0.3280
  380W        W 1377   2.599   3.779   1.521 -0.1805 -0.0183  0.1555
  381W        W 1378   4.075   6.037   2.199  0.1015 -0.0289  0.1166
  382W        W 1379   4.207   6.969   5.114 -0.3924  0.0772 -0.1192
  383W        W 1380   6.453   3.268   3.223 -0.3959  0.0683 -0.0290
  384W        W 1381   2.890   4.753   6.341  0.1320 -0.3843  0.2590
  385W        W 1382   5.017   7.376   3.555 -0.4087 -0.1933 -0.0591
  386W        W 1383   5.537   7.429   5.244 -0.2304 -0.4063 -0.1199
  387W        W 1384   6.122   7.253   0.052 -0.0085  0.1787 -0.1489
  388W        W 1385   1.999   0.446   5.686 -0.3007  0.0302 -0.1427
  389W        W 1386   3.047   7.266   6.876  0.2751 -0.1191  0.0545
  390W        W 1387   1.848   5.648   6.366  0.0888  0.3231 -0.0506
  391W        W 1388   1.307   7.102   1.845  0.1324 -0.2803  0.2352
  392W        W 1389   4.926   4.211   3.110 -0.2090 -0.2440  0.0821
  393W        W 1390   2.574   6.164   6.146  0.3104 -0.0095  0.1279
  394W        W 1391   5.564   3.495   3.196 -0.1317 -0.0166 -0.2241
  395W        W 1392   6.677   1.743   5.419  0.0325  0.0393 -0.1635
  396W        W 1393   3.272   4.748   5.746 -0.3696 -0.3363 -0.2013
  397W        W 1394   4.127   3.013   7.603 -0.0686  0.4115 -0.1411
  398W        W 1395   3.661   7.501   2.997 -0.0258  0.3634 -0.2607
  399W        W 1396   1.022   7.119   3.654 -0.0851 -0.1259 -0.1389
  400W        W 1397   3.105   3.794   1.736 -0.1254  0.3947  0.1082
  401W        W 1398   5.905   5.969   3.570 -0.0610  0.1443  0.2237
  402W        W 1399   6.058   2.773   2.635  0.0670 -0.0195  0.1243
  403W        W 1400   1.927   3.839   5.151 -0.1744  0.1080 -0.0578
  404W        W 1401   5.304   3.979   3.790  0.0245 -0.1804 -0.2159
  405W        W 1402   0.598   5.436   3.248  0.0650 -0.2579 -0.2712
  406W        W 1403   0.744   0.502   5.844 -0.1007 -0.3548 -0.2614
  407W        W 1404   7.109   1.199   5.794 -0.1209 -0.2226 -0.1087
  408W        W 1405   6.465   6.237   4.767  0.4494 -0.0684 -0.2244
  409W        W 1406   2.317   6.274   1.884  0.0047  0.0940  0.3441
  410W        W 1407   2.954   1.972   0.807 -0.1105  0.2770 -0.1003
  411W        W 1408   3.569   2.315   6.585 -0.4358  0.0921  0.0497
  412W        W 1409   4.212   5.131   1.868  0.3035  0.3242 -0.1683
  413W        W 1410   0.794   6.596   5.565  0.0184 -0.1787 -0.1325
  414W        W 1411   4.239   3.027   3.412  0.2296  0.0453 -0.1587
  415W        W 1412   1.649   5.512   5.073  0.3344  0.1129 -0.2644
  416W        W 1413   1.808   0.773   1.048 -0.2514  0.0535 -0.0297
  417W        W 1414   5.905   3.195   4.406  0.1739  0.3408 -0.0057
  418W        W 1415   1.364   6.383   5.928 -0.1450 -0.2694  0.2032
  419W        W 1416   3.293   7.034   5.032 -0.1616 -0.0241 -0.0667
  420W        W 1417   6.361   6.911   0.352 -0.1101 -0.2197  0.0072
  421W        W 1418   2.349   0.134   1.419 -0.4138  0.1765  0.1887
  422W        W 1419   2.503   7.078   0.624 -0.0904  0.7055 -0.1239
  423W        W 1420   2.706   0.778   0.582 -0.0686  0.1247  0.2137
  424W        W 1421   2.897   0.388   3.615 -0.0019 -0.3584 -0.2000
  425W        W 1422   0.498   1.599   3.823  0.0297  0.0760  0.0528
  426W        W 1423   2.999   1.578   5.636 -0.0092 -0.0316  0.1490
  427W        W 1424   0.742   4.857   1.510 -0.4469 -0.0446 -0.0558
  428W        W 1425   5.212   2.561   0.931 -0.1715  0.0080 -0.1538
  429W        W 1426   3.445   3.168   4.023 -0.0075  0.1490  0.1552
  430W        W 1427   1.306   1.725   2.732  0.0583 -0.1781 -0.0049
  431W        W 1428   1.383   3.147   4.340  0.0220 -0.0587  0.1721
  432W        W 1429   2.203   5.281   2.568 -0.1279 -0.1558  0.0508
  433W        W 1430   6.626   5.956   7.137 -0.0680  0.0968 -0.0116
  434W        W 1431   1.218   7.390   6.538 -0.0452  0.0578  0.1492
  435W        W 1432   3.897   2.157   1.782 -0.1652  0.1903  0.3834
  436W        W 1433   6.437   3.611   5.438  0.0302 -0.1304 -0.1840
  437W        W 1434   2.414   0.374   0.577  0.1383 -0.0639  0.4302
  438W        W 1435   3.002   3.259   0.371  0.0327 -0.1219 -0.1340
  439W        W 1436   1.084   6.996   2.688  0.2772  0.1386 -0.0518
  440W        W 1437   6.543   2.950   2.824  0.2275 -0.0946 -0.0587
  441W        W 1438   3.023   1.498   4.581  0.0669 -0.0473 -0.0132
  442W        W 1439   1.975   7.202   7.131 -0.1096  0.1485 -0.0497
  443W        W 1440   5.320   7.300   4.478  0.1461 -0.0449 -0.1435
  444W        W 1441   5.446   5.330   1.733  0.1684 -0.1607 -0.3410
  445W        W 1442   3.053   5.304   4.468  0.2249  0.1918  0.2172
  446W        W 1443   6.261   1.138   3.817 -0.1035 -0.0027 -0.2300
  447W        W 1444   0.580   6.848   5.193  0.0018  0.4657  0.1290
  448W        W 1445   2.087   3.919   2.790 -0.0454  0.0522  0.1003
  449W        W 1446   3.738   0.310   2.439 -0.0051 -0.4881 -0.0584
  450W        W 1447   1.485   7.254   2.489  0.1841 -0.2112 -0.1089
  451W        W 1448   5.843   6.854   7.214 -0.1688 -0.0121  0.1230
  452W        W 1449   2.170   7.394   6.203 -0.2236 -0.0414 -0.1020
  453W        W 1450   5.672   1.730   6.783 -0.2280  0.1791  0.0553
  454W        W 1451   4.440   0.218   7.308  0.0445 -0.1645  0.0093
  455W        W 1452   4.442   1.960   6.835  0.1970 -0.1140 -0.2937
  456W        W 1453   2.572   3.434   5.448  0.4488 -0.2017  0.4011
  457W        W 1454   5.820   2.927   6.645 -0.0905  0.1420 -0.3680
  458W        W 1455   2.476   6.288   6.697 -0.0675 -0.2969 -0.0677
  459W        W 1456   0.785   6.849   3.088  0.2786 -0.3118 -0.3793
  460W        W 1457   3.492   4.284   4.607 -0.1585  0.1588 -0.0103
  461W        W 1458   6.041   2.160   5.950  0.2099  0.1129  0.2267
  462W        W 1459   1.693   0.083   2.710  0.1814 -0.0727  0.0282
  463W        W 1460   1.043   6.975   5.379 -0.1677  0.0410  0.1515
  464W        W 1461   6.785   3.960   5.470  0.0503 -0.2023 -0.0767
  465W        W 1462   7.126   1.605   5.557  0.3812  0.1761  0.1366
  466W        W 1463   1.364   7.634   2.168  0.0584 -0.1620 -0.0558
  467W        W 1464   3.031   0.587   0.236 -0.0499 -0.0941  0.1212
  468W        W 1465   3.633   5.039   5.472 -0.0152  0.1839 -0.0483
  469W        W 1466   4.391   4.045   6.059 -0.0043  0.0195 -0.2608
  470W        W 1467   2.956   0.635   5.563  0.1877  0.0803 -0.0805
  471W        W 1468   4.605   4.863   3.288 -0.0464  0.2239  0.2109
  472W        W 1469   3.742   3.974   1.847 -0.0003 -0.1449  0.0241
  473W        W 1470   3.515   6.400   5.442 -0.2047  0.0616  0.0155
  474W        W 1471   2.663   3.145   3.943 -0.0269  0.1193  0.1022
  475W        W 1472   5.545   0.313   1.642 -0.0936 -0.0962  0.0366
  476W        W 1473   1.233   2.614   7.241 -0.2574 -0.3593 -0.0079
  477W        W 1474   5.455   2.529   3.356 -0.2294  0.1066  0.0571
  478W        W 1475   1.574   2.082   4.594  0.1328  0.0741 -0.0573
  479W        W 1476   7.506   0.146   1.169 -0.2246  0.1368  0.0914
  480W        W 1477   1.372   3.622   4.180 -0.0314  0.1195 -0.1118
  481W        W 1478   5.352   7.496   7.091  0.3803 -0.2303  0.1753
  482W        W 1479   1.864   3.631   6.054 -0.3412 -0.1484  0.1885
  483W        W 1480   6.201   6.081   0.625 -0.2495 -0.1286  0.0555
  484W        W 1481   3.581   5.868   5.213 -0.1133  0.1772 -0.0392
  485W        W 1482   4.592   6.774   2.855 -0.0666  0.1278  0.0917
  486W        W 1483   6.078   6.919   1.350 -0.0460 -0.0989  0.1480
  487W        W 1484   6.273   5.919   6.694 -0.1602 -0.1064 -0.0656
  488W        W 1485   4.144   1.882   6.410  0.0803 -0.2611 -0.1102
  489W        W 1486   2.351   6.506   2.668 -0.2938 -0.1006 -0.0755
  490W        W 1487   4.062   7.426   2.645 -0.3228  0.1554  0.1039
  491W        W 1488   5.349   2.019   3.234 -0.0615  0.1545 -0.0676
  492W        W 1489   4.448   1.484   1.962 -0.1052  0.0252  0.3013
  493W        W 1490   0.759   1.373   5.581 -0.1657  0.1533  0.3395
  494W        W 1491   3.321   3.458   7.083 -0.0838 -0.4355 -0.0361
  495W        W 1492   1.051   4.982   7.486  0.1570 -0.1211 -0.0526
  496W        W 1493   3.395   2.659   2.456 -0.0317  0.1623 -0.0543
  497W        W 1494   2.283   5.505   5.567  0.1647  0.2158  0.2951
  498W        W 1495   5.927   1.564   5.484 -0.2524  0.2509  0.1357
  499W        W 1496   2.335   2.095   2.406  0.0998 -0.1932  0.0317
  500W        W 1497   3.116   6.570   1.652 -0.2962 -0.0823 -0.0808
  501W        W 1498   1.646   6.717   7.246 -0.1291 -0.1296  0.1120
  502W        W 1499   1.220   0.242   5.857  0.3012  0.0644  0.2083
  503W        W 1500   5.845   0.551   0.699  0.1168 -0.1481 -0.0269
  504W        W 1501   3.703   4.355   2.309 -0.1201 -0.0790 -0.0728
  505W        W 1502   2.411   2.505   1.312  0.0741 -0.2467 -0.1105
  506W        W 1503   3.356   6.095   2.788  0.1403  0.1793  0.0017
  507W        W 1504   5.025   4.175   1.765  0.2583  0.1708  0.1420
  508W        W 1505   0.670   5.357   1.373 -0.1237 -0.0346  0.0475
  509W        W 1506   2.495   7.433   2.250  0.0555 -0.1622  0.3818
  510W        W 1507   2.348   0.477   5.201 -0.0719  0.0867  0.4295
  511W        W 1508   3.972   6.175   5.290  0.1450  0.1933 -0.0240
  512W        W 1509   3.387   2.720   5.351 -0.0344  0.0520  0.1109
  513W        W 1510   4.045   0.542   1.479  0.2209  0.1324  0.0340
  514W        W 1511   1.802   1.063   1.509 -0.0214 -0.0941  0.0438
  515W        W 1512   5.652   2.243   5.555 -0.1308  0.3151 -0.1885
  516W        W 1513   6.197   1.375   6.424 -0.0950  0.2053 -0.0521
  517W        W 1514   7.194   4.942   2.179  0.1354 -0.2399  0.1490
  518W        W 1515   5.478   5.137   4.878  0.1446 -0.1501 -0.0712
  519W        W 1516   6.272   6.344   7.110 -0.0167  0.2656  0.2849
  520W        W 1517   6.468   6.638   1.214  0.0675  0.0086  0.2813
  521W        W 1518   3.985   0.511   0.972  0.4554  0.2050 -0.0845
  522W        W 1519   7.425   3.588   5.770  0.3369 -0.1116  0.3274
  523W        W 1520   4.811   0.620   3.163  0.3165 -0.0396  0.1044
  524W        W 1521   6.622   4.919   2.106  0.0483 -0.1528 -0.2656
  525W        W 1522   2.513   4.318   3.889 -0.0202 -0.2058  0.3426
  526W        W 1523   4.312   0.243   5.636 -0.2679 -0.1130  0.0612
  527W        W 1524   3.197   4.406   0.024 -0.0139 -0.0665  0.0173
  528W        W 1525   4.674   1.054   1.900 -0.2065  0.1185  0.3711
  529W        W 1526   1.894   5.779   3.246  0.0700 -0.1047  0.0940
  530W        W 1527   2.288   7.337   1.245 -0.2919  0.1471 -0.0593
  531W        W 1528   2.424   3.546   0.568 -0.3204  0.1167  0.2587
  532W        W 1529   4.977   5.585   3.111 -0.0509  0.0946  0.1605
  533W        W 1530   2.163   2.614   5.152 -0.2254  0.2868 -0.0565
  534W        W 1531   0.069   4.983   0.803 -0.0689  0.0750  0.4004
  535W        W 1532   3.762   2.895   2.626  0.1331 -0.0970 -0.0843
  536W        W 1533   1.800   6.388   5.119 -0.1065  0.1898 -0.2116
  537W        W 1534   4.023   0.663   4.439 -0.1058  0.3338 -0.4660
  538W        W 1535   6.644   5.034   3.507  0.0536  0.4139 -0.0688
  539W        W 1536   2.186   1.043   0.229 -0.3605  0.1580  0.3356
  540W        W 1537   6.187   3.767   5.078 -0.0318 -0.1003  0.0244
  541W        W 1538   3.592   7.009   1.930  0.2802 -0.4814 -0.0687
  542W        W 1539   2.527   2.177   3.367 -0.1168  0.0585  0.2196
  543W        W 1540   4.285   6.997   4.140  0.1878  0.0943 -0.1163
  544W        W 1541   3.904   2.068   0.495 -0.1669 -0.1402  0.0103
  545W        W 1542   5.881   4.477   2.807 -0.2443 -0.2740  0.1389
  546W        W 1543   2.054   6.651   3.668  0.1391  0.1352 -0.3575
  547W        W 1544   6.477   1.819   6.336 -0.2979 -0.0035  0.2815
  548W        W 1545   4.400   1.915   5.917 -0.2881  0.3959  0.0749
  549W        W 1546   5.155   5.888   4.364 -0.0085  0.0047  0.0683
  550W        W 1547   1.857   3.518   0.453 -0.1594 -0.1457  0.3454
  551W        W 1548   5.970   3.869   6.206  0.1075 -0.0050  0.2545
  552W        W 1549   5.951   5.262   4.875 -0.1903 -0.1483  0.3817
  553W        W 1550   4.445   4.291   4.061  0.3921 -0.0004  0.0790
  554W        W 1551   4.542   1.627   0.454  0.4576  0.0936  0.1320
  555W        W 1552   0.258   0.831   7.631 -0.2058 -0.1473 -0.1956
  556W        W 1553   0.245   1.780   4.212 -0.1997  0.0607 -0.2451
  557W        W 1554   3.763   0.480   4.833  0.2380 -0.2697  0.1327
  558W        W 1555   5.834   0.969   5.032  0.2089 -0.0202  0.0604
  559W        W 1556   5.868   7.019   5.291 -0.1256 -0.1893  0.2172
  560W        W 1557   1.753   4.418   1.505 -0.1690 -0.1587  0.1005
  561W        W 1558   2.315   3.893   7.562  0.3120 -0.4095  0.1965
  562W        W 1559   0.659   2.992   4.147  0.1595  0.0048 -0.0697
  563W        W 1560   4.821   4.839   3.832  0.0544  0.0801 -0.1551
  564W        W 1561   3.603   7.418   0.696  0.1769  0.1296 -0.5785
  565W        W 1562   3.813   3.668   6.456 -0.1657  0.2200 -0.1535
  566W        W 1563   2.018   2.106   6.919  0.0507  0.2012  0.1017
  567W        W 1564   4.471   6.728   4.602 -0.2031  0.0734 -0.0737
  568W        W 1565   7.472   0.402   6.119 -0.0871 -0.0626 -0.1688
  569W        W 1566   2.608   1.960   4.138  0.1731 -0.0442 -0.0892
  570W        W 1567   3.360   1.844   6.611 -0.2144 -0.0056 -0.1410
  571W        W 1568   3.123   2.007   2.012 -0.2382 -0.1852  0.1510
  572W        W 1569   0.561   5.470   4.082 -0.1568 -0.2697  0.2820
  573W        W 1570   4.583   0.674   1.560 -0.1340 -0.0034  0.0984
  574W        W 1571   1.900   5.490   3.755  0.1898 -0.0247 -0.0778
  575W        W 1572   2.809   1.399   5.180 -0.1252 -0.0370 -0.0728
  576W        W 1573   6.159   7.417   1.575 -0.0857  0.1250 -0.0601
  577W        W 1574   5.705   2.205   2.870 -0.0095 -0.0435 -0.1638
  578W        W 1575   2.597   0.830   0.076  0.0066 -0.0841  0.0179
  579W        W 1576   6.589   0.449   5.730 -0.3896  0.5363 -0.0996
  580W        W 1577   1.455   0.564   0.488 -0.3131  0.1609 -0.1121
  581W        W 1578   2.322   0.771   1.247 -0.1289 -0.2132 -0.2065
  582W        W 1579   3.982   1.614   5.802 -0.1639 -0.0145 -0.1213
  583W        W 1580   5.027   2.765   2.836 -0.1914 -0.0701  0.1852
  584W        W 1581   1.635   2.840   5.673  0.0392  0.0068 -0.1303
  585W        W 1582   1.475   0.597   1.389  0.0794 -0.0066  0.2389
  586W        W 1583   7.510   5.387   3.254 -0.1221 -0.1604 -0.0303
  587W        W 1584   6.763   7.291   7.085 -0.0372 -0.1682 -0.1814
  588W        W 1585   1.734   1.040   6.575  0.1677 -0.2683  0.1267
  589W        W 1586   2.866   4.073   4.287  0.1049 -0.2433 -0.1473
  590W        W 1587   5.982   5.529   1.884  0.1002  0.0334  0.0695
  591W        W 1588   4.882   1.385   0.907  0.2721 -0.2010  0.0056
  592W        W 1589   3.263   2.275   1.150  0.2351 -0.0058 -0.0949
  593W        W 1590   2.660   6.791   2.945  0.2391  0.1120 -0.0375
  594W        W 1591   2.996   6.064   1.244  0.1292 -0.1400 -0.0265
  595W        W 1592   6.803   4.407   5.218 -0.0581  0.1649 -0.1729
  596W        W 1593   2.668   1.860   2.063 -0.2600  0.1814  0.0494
  597W        W 1594   6.595   2.722   6.927  0.3096 -0.0125  0.0186
  598W        W 1595   0.309   5.464   1.992  0.1193 -0.1180  0.1790
  599W        W 1596   6.138   0.768   1.043 -0.3252 -0.0683  0.0686
  600W        W 1597   5.429   3.877   4.735 -0.1550 -0.0318  0.0079
  601W        W 1598   2.733   4.201   7.549 -0.0320 -0.1608 -0.1806
  602W        W 1599   2.410   1.470   6.883  0.0440  0.0379 -0.0241
  603W        W 1600   4.025   1.246   2.150 -0.0935  0.0849 -0.1498
  604W        W 1601   1.933   4.975   6.462  0.0072  0.1978 -0.0272
  605W        W 1602   0.708   0.924   3.765  0.2339  0.2547  0.0429
  606W        W 1603   1.918   1.017   4.418 -0.2160  0.0853 -0.1206
  607W        W 1604   4.674   5.260   4.075  0.0396  0.0510 -0.1214
  608W        W 1605   2.797   6.751   5.099  0.2978  0.0737  0.2595
  609W        W 1606   0.251   6.471   3.362 -0.0443 -0.2020  0.0105
  610W        W 1607   2.685   5.422   3.251 -0.1519 -0.5571 -0.3931
  611W        W 1608   4.477   6.092   4.994 -0.1928 -0.0203 -0.2380
  612W        W 1609   0.712   2.425   5.982  0.0954 -0.1688  0.4247
  613W        W 1610   5.296   7.307   5.904 -0.1972  0.0328  0.0695
  614W        W 1611   1.941   6.931   0.689  0.0697 -0.0668 -0.0928
  615W        W 1612   0.201   1.620   7.073  0.1174 -0.2868  0.3110
  616W        W 1613   1.980   4.654   5.189  0.1902 -0.1125  0.0352
  617W        W 1614   2.538   2.906   5.254  0.0411  0.1758  0.1513
  618W        W 1615   1.892   5.657   4.623  0.1440 -0.0375 -0.0855
  619W        W 1616   2.827   4.283   6.572 -0.0457  0.1814 -0.0095
  620W        W 1617   6.639   1.420   6.613 -0.0097 -0.0043 -0.0910
  621W        W 1618   6.328   0.249   3.172 -0.2533 -0.0097  0.3811
  622W        W 1619   7.524   4.843   7.031  0.0602  0.1464 -0.0936
  623W        W 1620   5.147   5.028   2.460  0.0868 -0.1818  0.0338
  624W        W 1621   7.468   3.514   7.347 -0.3739  0.1736 -0.0518
  625W        W 1622   0.649   6.191   5.140 -0.0006  0.0587 -0.1889
  626W        W 1623   0.142   5.032   2.109 -0.2269 -0.0568 -0.0149
  627W        W 1624   2.845   2.591   5.610  0.0452 -0.0117 -0.0336
  628W        W 1625   7.193   6.124   1.442  0.1810 -0.0519  0.0801
  629W        W 1626   3.010   1.974   3.224 -0.0893  0.0568  0.2455
  630W        W 1627   5.967   1.073   1.498 -0.2554  0.0517 -0.0708
  631W        W 1628   5.784   0.085   0.197 -0.1918 -0.1862  0.0957
  632W        W 1629   0.045   6.666   4.347 -0.1374  0.1298  0.0306
  633W        W 1630   2.739   6.267   1.612 -0.1992  0.2121 -0.1031
  634W        W 1631   5.112   3.254   1.189 -0.3236  0.1966  0.2469
  635W        W 1632   3.808   3.376   2.617 -0.2666  0.1897  0.1010
  636W        W 1633   7.623   7.615   2.189 -0.1403 -0.2074  0.2205
  637W        W 1634   0.898   3.410   7.585  0.2532  0.1467 -0.1751
  638W        W 1635   7.430   5.409   7.154 -0.0781  0.1437  0.0083
  639W        W 1636   0.026   2.897   0.008 -0.5317  0.0342 -0.2188
  640W        W 1637   2.046   4.877   1.327 -0.1633  0.1134 -0.0837
  641W        W 1638   0.665   3.982   7.258  0.1809 -0.1377 -0.2545
  642W        W 1639   0.508   6.428   1.366  0.1074 -0.2088 -0.1435
  643W        W 1640   0.099   5.751   3.505 -0.2124  0.0293 -0.5042
  644W        W 1641   1.465   6.410   7.568 -0.0235 -0.1479  0.0525
  645W        W 1642   4.738   0.067   5.407  0.0107  0.3660 -0.1139
  646W        W 1643   6.470   1.247   1.149  0.4282 -0.1024 -0.0224
  647W        W 1644   7.303   1.444   4.154  0.1747 -0.0597  0.2468
  648W        W 1645   3.844   7.152   5.386  0.0641  0.0180 -0.1282
  649W        W 1646   0.802   2.510   4.578  0.4164 -0.2075 -0.4301
  650W        W 1647   6.047   6.550   4.954  0.0743  0.1369  0.1169
  651W        W 1648   5.930   1.444   4.926 -0.0614 -0.2190  0.3146
  652W        W 1649   2.688   5.666   0.306  0.1111 -0.1453 -0.1794
  653W        W 1650   4.662   2.386   2.231  0.3425  0.2793  0.0908
  654W        W 1651   3.692   1.805   6.250 -0.0453 -0.1638 -0.0348
  655W        W 1652   3.669   6.965   6.631 -0.2333 -0.0444  0.2588
  656W        W 1653   4.716   7.052   4.992  0.0460 -0.1892 -0.2631
  657W        W 1654   5.026   0.759   0.454  0.3215 -0.1384  0.1592
  658W        W 1655   5.421   3.812   1.943 -0.0185 -0.1975 -0.0997
  659W        W 1656   6.410   0.927   4.771 -0.0372 -0.1412  0.2018
  660W        W 1657   3.087   1.053   2.101 -0.0083  0.1285  0.0602
  661W        W 1658   4.619   1.368   5.226  0.0865 -0.1849 -0.1307
  662W        W 1659   1.939   4.968   2.253 -0.1323 -0.0772 -0.3305
  663W        W 1660   5.225   6.932   0.830 -0.0874  0.0231 -0.0992
  664W        W 1661   6.006   0.816   4.072 -0.0541  0.1924  0.1028
  665W        W 1662   6.907   7.226   2.223 -0.0652  0.0867 -0.1538
  666W        W 1663   3.887   3.740   3.826 -0.1738  0.1586  0.0491
  667W        W 1664   6.550   6.601   2.601 -0.3783 -0.1079 -0.0789
  668W        W 1665   0.124   6.084   1.521  0.0797 -0.0924 -0.2416
  669W        W 1666   2.042   3.986   0.379 -0.1101 -0.3384 -0.3623
  670W        W 1667   5.503   4.335   1.691  0.0031 -0.1805  0.0225
  671W        W 1668   3.839   4.300   4.990 -0.1529  0.1724 -0.2534
  672W        W 1669   0.039   1.717   7.516  0.1470  0.1473  0.1216
  673W        W 1670   5.093   4.581   4.951 -0.2317 -0.1118 -0.1040
  674W        W 1671   5.476   0.594   2.123  0.2037 -0.0926  0.0638
  675W        W 1672   2.671   2.297   1.744 -0.2094 -0.2885  0.1240
  676W        W 1673   3.614   1.617   0.263  0.0425 -0.0490 -0.2799
  677W        W 1674   0.264   1.618   6.213 -0.1760  0.1783  0.2706
  678W        W 1675   0.287   6.005   7.364 -0.0033 -0.0741 -0.3969
  679W        W 1676   4.582   2.976   5.189 -0.1042 -0.1422  0.2499
  680W        W 1677   0.774   5.752   7.317 -0.0481  0.2773 -0.1882
  681W        W 1678   7.286   5.361   4.215 -0.0524 -0.0358  0.1469
  682W        W 1679   5.596   7.343   7.503  0.2065  0.0607  0.0804
  683W        W 1680   1.092   4.969   5.666 -0.0266  0.1121 -0.1383
  684W        W 1681   7.378   6.520   6.474 -0.2070 -0.2538 -0.0911
  685W        W 1682   5.093   2.092   6.784  0.3472 -0.4271  0.1099
  686W        W 1683   5.360   0.221   4.478  0.0223  0.0555 -0.2452
  687W        W 1684   1.919   1.933   6.435 -0.1110  0.0119 -0.1383
  688W        W 1685   0.073   6.255   2.560  0.2916  0.2458 -0.1424
  689W        W 1686   6.589   1.812   4.435 -0.1625  0.1399 -0.2413
  690W        W 1687   5.915   6.476   6.787 -0.1605  0.2312  0.2136
  691W        W 1688   6.571   4.873   1.564  0.0453 -0.1093 -0.0123
  692W        W 1689   0.946   6.842   0.582 -0.2105 -0.2987 -0.3176
  693W        W 1690   1.358   0.215   4.306 -0.0347 -0.5663 -0.1587
  694W        W 1691   6.809   1.270   7.057 -0.2278  0.3918 -0.3891
  695W        W 1692   2.131   6.551   0.378 -0.3285  0.1440 -0.0722
  696W        W 1693   1.613   6.233   6.932 -0.0640 -0.5044 -0.1794
  697W        W 1694   0.855   6.116   0.509  0.0083  0.4492  0.1406
  698W        W 1695   2.931   3.433   2.060  0.1432  0.3867 -0.1887
  699W        W 1696   5.986   0.462   1.431 -0.2333  0.2602 -0.2176
  700W        W 1697   2.899   7.200   5.292  0.1650  0.3216 -0.1764
  701W        W 1698   1.742   5.646   5.590 -0.2367  0.0437 -0.0378
  702W        W 1699   2.501   6.406   5.454  0.0643  0.1588  0.0812
  703W        W 1700   7.167   2.320   5.629  0.0933  0.1839  0.0854
  704W        W 1701   2.366   2.770   0.728 -0.1608 -0.1428 -0.0334
  705W        W 1702   7.633   3.275   4.719 -0.0706  0.3186  0.1723
  706W        W 1703   0.285   6.482   1.798 -0.1259 -0.3725 -0.1908
  707W        W 1704   5.143   7.590   4.012 -0.1048 -0.1288 -0.1776
  708W        W 1705   5.885   1.965   5.090  0.3625 -0.1559  0.1976
  709W        W 1706   2.565   2.543   2.224 -0.0873 -0.1848  0.1179
  710W        W 1707   2.164   2.069   4.759 -0.4209  0.2946  0.1451
  711W        W 1708   1.628   5.843   2.504 -0.1078 -0.0433 -0.2037
  712W        W 1709   7.631   7.371   7.455 -0.1909  0.1228  0.1917
  713W        W 1710   2.661   0.426   6.601  0.2335 -0.0202  0.0126
  714W        W 1711   6.797   2.660   4.363 -0.1133  0.0900  0.3113
  715W        W 1712   5.254   6.884   3.557 -0.2201  0.2763  0.0681
  716W        W 1713   4.091   3.234   6.928  0.0976 -0.3138 -0.0790
  717W        W 1714   0.997   1.349   3.837 -0.2454  0.2520 -0.0443
  718W        W 1715   2.160   6.668   2.139 -0.2174  0.0651  0.3370
  719W        W 1716   3.451   6.096   0.945 -0.1686 -0.0098 -0.0954
  720W        W 1717   1.140   1.405   4.309 -0.3002  0.2916 -0.2965
  721W        W 1718   2.164   0.741   4.016 -0.2138  0.0193 -0.2816
  722W        W 1719   4.298   5.579   4.731  0.0429  0.2132 -0.0848
  723W        W 1720   4.870   1.473   3.675 -0.1109  0.2327  0.0920
  724W        W 1721   6.685   3.204   7.062  0.3065 -0.3601  0.1172
  725W        W 1722   6.768   2.020   4.829 -0.2491 -0.0205  0.0595
  726W        W 1723   3.124   1.068   6.861 -0.0589 -0.3762  0.0850
  727W        W 1724   5.222   6.374   4.492  0.0908  0.0931  0.1174
  728W        W 1725   1.835   0.784   3.619  0.2861 -0.0641 -0.1726
  729W        W 1726   0.218   6.979   3.550 -0.3587 -0.2864 -0.1847
  730W        W 1727   3.368   1.133   4.600 -0.1736 -0.1265 -0.1843
  731W        W 1728   2.812   2.759   0.500  0.0444 -0.2148  0.2273
  732W        W 1729   3.218   2.887   3.273 -0.2875 -0.0105 -0.2310
  733W        W 1730   6.058   2.944   3.454 -0.0758  0.2756 -0.1822
  734W        W 1731   1.836   6.789   6.696  0.0061  0.0982 -0.1785
  735W        W 1732   3.705   4.464   6.537  0.0169  0.1875 -0.0227
  736W        W 1733   5.068   2.049   2.299 -0.0088  0.2344  0.0619
  737W        W 1734   3.043   1.603   2.294  0.0685 -0.1159  0.3153
  738W        W 1735   3.748   3.860   2.488  0.0826  0.2078 -0.2251
  739W        W 1736   5.999   1.066   2.890 -0.0008  0.0438 -0.0686
  740W        W 1737   1.817   1.454   1.914 -0.0447  0.2713  0.1207
  741W        W 1738   2.477   5.029   1.124  0.0499  0.0473  0.0988
  742W        W 1739   2.691   3.856   2.012  0.1675 -0.3653  0.0351
  743W        W 1740   6.305   7.613   4.849  0.2780  0.3185 -0.1248
  744W        W 1741   0.680   7.306   1.774 -0.1336 -0.0083 -0.0814
  745W        W 1742   6.381   1.371   4.622 -0.2656  0.1893 -0.1072
  746W        W 1743   1.166   5.433   7.449 -0.2223 -0.1993 -0.0633
  747W        W 1744   2.089   0.204   2.440 -0.2405  0.2564 -0.0489
  748W        W 1745   6.558   1.222   6.135  0.2280  0.2846 -0.0066
  749W        W 1746   2.745   3.942   5.417  0.2019 -0.1261 -0.1950
  750W        W 1747   7.073   2.981   4.684 -0.1621 -0.1203 -0.3288
  751W        W 1748   7.229   7.509   2.442 -0.0896  0.1286 -0.2338
  752W        W 1749   7.485   5.659   5.357  0.2261  0.1093  0.4571
  753W        W 1750   7.166   5.399   7.612  0.0361 -0.0816  0.2363
  754W        W 1751   3.247   0.795   5.962 -0.2768  0.2241  0.4268
  755W        W 1752   2.784   4.300   2.433 -0.1266  0.4093  0.0039
  756W        W 1753   2.390   0.636   3.571 -0.0601  0.2294  0.0320
  757W        W 1754   2.890   5.283   3.668  0.2064 -0.1797 -0.1321
  758W        W 1755   0.833   2.187   5.352 -0.0407  0.1457 -0.0800
  759W        W 1756   7.047   5.959   4.552 -0.1666  0.0863 -0.0526
  760W        W 1757   1.589   7.224   2.973  0.1538  0.1307  0.2001
  761W        W 1758   0.457   3.673   3.446 -0.2420  0.1640 -0.0239
  762W        W 1759   1.319   0.933   3.783  0.1380  0.1285  0.0714
  763W        W 1760   1.675   3.964   3.091 -0.0808 -0.3116  0.0234
  764W        W 1761   2.958   4.679   7.382  0.3204 -0.1375 -0.1579
  765W        W 1762   6.452   4.728   5.367 -0.0802 -0.0212 -0.0286
  766W        W 1763   5.465   1.204   7.151  0.1842  0.1094 -0.2809
  767W        W 1764   4.177   7.591   2.188 -0.1226 -0.1057 -0.3482
  768W        W 1765   4.356   6.681   2.403  0.1736  0.0216  0.1201
  769W        W 1766   4.405   6.618   0.319 -0.1429  0.0189 -0.1784
  770W        W 1767   3.241   6.624   1.102  0.3368 -0.1800  0.2860
  771W        W 1768   1.047   4.480   3.407 -0.1447 -0.1385 -0.0619
  772W        W 1769   4.999   5.389   4.515 -0.1287 -0.3380 -0.1447
  773W        W 1770   6.144   6.237   6.210 -0.0135  0.0600 -0.1857
  774W        W 1771   0.168   7.313   1.785 -0.2633  0.1200 -0.0245
  775W        W 1772   0.339   4.899   7.274 -0.1935 -0.0188 -0.2168
  776W        W 1773   4.840   6.512   0.674 -0.0602  0.0037  0.1081
  777W        W 1774   1.824   6.731   0.055 -0.0707 -0.0683  0.0039
  778W        W 1775   4.952   1.753   5.168 -0.3146 -0.2674  0.1435
  779W        W 1776   4.717   7.023   0.652 -0.1045  0.1478  0.0187
  780W        W 1777   1.397   1.856   6.256 -0.0773  0.0992 -0.1608
  781W        W 1778   2.142   0.850   6.076  0.3365 -0.2766 -0.3914
  782W        W 1779   6.407   4.030   4.687  0.1672 -0.1263 -0.0527
  783W        W 1780   1.285   6.021   1.630  0.4303 -0.1636  0.3631
  784W        W 1781   5.839   4.875   4.588 -0.2915 -0.0927 -0.3677
  785W        W 1782   3.335   6.738   6.937  0.1530 -0.1587 -0.0473
  786W        W 1783   2.246   5.377   6.649 -0.0490  0.1732  0.2249
  787W        W 1784   0.704   1.679   5.174  0.1193 -0.1502  0.0940
  788W        W 1785   3.559   4.135   3.672  0.0030  0.2396 -0.0646
  789W        W 1786   4.517   1.870   2.224 -0.0672  0.0651  0.1186
  790W        W 1787   2.692   3.576   0.082  0.1276  0.0748 -0.4257
  791W        W 1788   6.369   5.298   4.495 -0.0734 -0.0139  0.0390
  792W        W 1789   1.603   1.794   3.628 -0.1362 -0.2071 -0.0664
  793W        W 1790   0.571   5.337   2.430  0.1085 -0.0795  0.3393
  794W        W 1791   3.974   5.907   4.866  0.0608 -0.0070 -0.2526
  795W        W 1792   3.332   6.608   2.772  0.2413  0.1493  0.1728
  796W        W 1793   2.930   0.886   3.525  0.4283  0.0346  0.0629
  797W        W 1794   2.813   5.250   1.886  0.0803  0.1349 -0.1082
  798W        W 1795   0.484   1.680   6.646 -0.1996  0.2691 -0.0784
  799W        W 1796   5.905   5.221   3.931  0.0676  0.2056  0.1463
  800W        W 1797   0.142   2.149   7.116 -0.0140  0.0620  0.2514
  801W        W 1798   5.032   1.306   4.980 -0.3305  0.2125  0.3274
  802W        W 1799   6.100   4.920   2.140 -0.2379 -0.1906  0.0141
  803W        W 1800   5.045   0.569   7.560 -0.2645  0.2873 -0.1506
  804W        W 1801   6.037   1.623   2.544 -0.0399 -0.1734  0.1331
  805W        W 1802   4.811   6.440   2.254 -0.1659 -0.0686  0.2169
  806W        W 1803   7.635   5.171   1.287 -0.1741  0.0188  0.0941
  807W        W 1804   1.241   6.896   0.004  0.1122  0.1669  0.2090
  808W        W 1805   4.605   2.884   3.096  0.2057 -0.0463  0.0901
  809W        W 1806   4.097   2.665   1.244 -0.1733  0.1105  0.0083
  810W        W 1807   4.252   2.714   4.959  0.1503 -0.5265  0.2127
  811W        W 1808   4.658   1.011   7.506  0.0646  0.2110  0.0679
  812W        W 1809   4.415   7.454   1.298 -0.1644 -0.0671  0.1043
  813W        W 1810   0.044   6.498   6.992 -0.0036  0.2649  0.2870
  814W        W 1811   3.749   6.007   1.805  0.1334 -0.1456 -0.0490
  815W        W 1812   2.619   0.625   3.106 -0.1209  0.0499  0.3112
  816W        W 1813   1.240   0.033   0.669  0.0709 -0.0198  0.0761
  817W        W 1814   7.562   1.158   6.255  0.1476 -0.0447  0.1605
  818W        W 1815   5.578   2.812   0.545  0.1438  0.0994  0.2731
  819W        W 1816   5.539   1.678   7.354 -0.1789 -0.0052  0.0537
  820W        W 1817   3.287   3.613   6.620  0.1418 -0.0780  0.0792
  821W        W 1818   3.319   4.187   1.294  0.0113  0.0418 -0.5547
  822W        W 1819   0.887   5.727   0.934 -0.0705 -0.2133  0.1961
  823W        W 1820   7.622   7.161   4.445  0.2269  0.0308  0.1800
  824W        W 1821   6.090   4.488   3.862 -0.1226  0.0017  0.1078
  825W        W 1822   6.127   1.931   1.441 -0.0468 -0.0649 -0.0685
  826W        W 1823   2.979   4.885   5.252 -0.1203  0.2288 -0.0749
  827W        W 1824   4.795   5.847   1.399 -0.1431 -0.1466 -0.2391
  828W        W 1825   2.852   0.147   0.128 -0.5629  0.2628 -0.1664
  829W        W 1826   1.293   7.112   7.143  0.0972 -0.2037 -0.0179
  830W        W 1827   5.617   7.004   4.042 -0.0168  0.1034  0.1180
  831W        W 1828   2.785   4.273   1.120  0.1811 -0.3364 -0.0966
  832W        W 1829   6.806   5.473   3.717  0.0021  0.1225  0.1081
  833W        W 1830   6.679   0.736   7.015 -0.0079  0.1630 -0.1233
  834W        W 1831   2.705   2.971   6.390  0.1265  0.2355  0.0998
  835W        W 1832   5.771   1.235   6.673 -0.0800  0.2391  0.1691
  836W        W 1833   1.615   4.411   3.377 -0.1665 -0.0115  0.0891
  837W        W 1834   5.216   1.531   3.229 -0.1810  0.0340 -0.0129
  838W        W 1835   1.577   6.818   5.250 -0.1213  0.0295  0.0776
  839W        W 1836   0.124   3.976   7.419  0.1764  0.3312  0.1511
  840W        W 1837   2.763   2.476   6.588  0.1034 -0.0763 -0.0413
  841W        W 1838   4.885   6.223   4.055 -0.2346  0.0790  0.4968
  842W        W 1839   0.844   5.365   5.511 -0.0637  0.0074  0.0541
  843W        W 1840   5.467   2.376   1.299 -0.0141  0.1522  0.0616
  844W        W 1841   5.856   1.181   6.111 -0.0271 -0.4619 -0.1845
  845W        W 1842   0.557   3.084   7.365 -0.0062  0.2298  0.1840
  846W        W 1843   6.733   5.887   5.462  0.4057  0.1578  0.0510
  847W        W 1844   0.871   5.261   3.663  0.1455 -0.0464 -0.3636
  848W        W 1845   6.318   1.335   5.162  0.0780 -0.2504 -0.1090
  849W        W 1846   0.305   2.688   4.403 -0.2245  0.2806  0.0619
  850W        W 1847   0.725   2.909   6.091  0.2462  0.1351  0.2302
  851W        W 1848   0.772   1.546   6.172 -0.2740  0.3743  0.0395
  852W        W 1849   6.342   0.588   6.721  0.4124 -0.0741  0.0265
  853W        W 1850   0.933   0.666   7.246 -0.2170 -0.1983 -0.4053
  854W        W 1851   2.910   2.850   2.417  0.0074 -0.2798 -0.1839
  855W        W 1852   3.542   5.336   4.326  0.2229  0.0408 -0.0870
  856W        W 1853   7.483   5.919   6.176 -0.2209  0.1621  0.2248
  857W        W 1854   6.419   5.189   3.923 -0.2012  0.0868  0.0487
  858W        W 1855   3.948   2.169   7.362  0.1552  0.1616 -0.0737
  859W        W 1856   5.507   6.198   3.935  0.0979  0.0501  0.0163
  860W        W 1857   5.429   4.132   2.345  0.2077 -0.1254  0.4262
  861W        W 1858   1.087   2.106   0.630 -0.0222  0.0362  0.0997
  862W        W 1859   1.255   3.514   4.743 -0.3324  0.1059 -0.2203
  863W        W 1860   2.213   4.541   0.946 -0.0316  0.1664 -0.0330
  864W        W 1861   3.556   0.042   4.728  0.0874 -0.0838 -0.4733
  865W        W 1862   1.192   3.116   5.942  0.0135 -0.0326 -0.2244
  866W        W 1863   1.332   2.118   5.572  0.4750 -0.0068 -0.0232
  867W        W 1864   1.006   1.761   6.664 -0.1165 -0.0358  0.0505
  868W        W 1865   2.250   3.413   5.806  0.0969 -0.1361 -0.4748
  869W        W 1866   3.264   0.589   2.348 -0.3069  0.2874  0.1790
  870W        W 1867   6.511   7.231   2.539 -0.1379  0.0699  0.1796
  871W        W 1868   5.218   3.155   2.525  0.1641  0.3336 -0.2026
  872W        W 1869   5.488   1.218   5.259  0.0204 -0.0917  0.2323
  873W        W 1870   7.561   2.702   4.788  0.2864  0.0737  0.1909
  874W        W 1871   6.336   1.448   2.135 -0.0355  0.1514 -0.1024
  875W        W 1872   5.271   5.860   5.450 -0.0144 -0.3336  0.1084
  876W        W 1873   2.553   0.211   5.661  0.1245 -0.0853 -0.1206
  877W        W 1874   1.459   4.498   5.743 -0.1407 -0.2412 -0.1054
  878W        W 1875   6.113   0.572   4.461  0.0597 -0.1640  0.1553
  879W        W 1876   5.243   4.949   1.452  0.1332  0.1145  0.1943
  880W        W 1877   1.702   7.547   6.402 -0.0206  0.2201 -0.2757
  881W        W 1878   0.991   0.989   2.017  0.1592  0.0014 -0.0075
  882W        W 1879   3.066   3.608   5.233  0.0102 -0.1917 -0.0279
  883W        W 1880   3.516   6.447   1.856  0.1933 -0.1911 -0.0324
  884W        W 1881   3.779   0.000   6.212  0.2173 -0.1136 -0.2116
  885W        W 1882   5.921   6.305   7.406  0.1041 -0.2470  0.0472
  886W        W 1883   4.388   3.933   3.743 -0.1193  0.2533 -0.1315
  887W        W 1884   1.456   5.702   2.956 -0.0705  0.2324 -0.1653
  888W        W 1885   2.141   3.118   7.021 -0.1895  0.0569  0.1599
  889W        W 1886   6.516   5.805   4.491 -0.1978  0.0179 -0.1037
  890W        W 1887   1.268   1.100   7.519 -0.2867  0.0105  0.0029
  891W        W 1888   7.286   5.511   4.764 -0.2177  0.0081  0.0013
  892W        W 1889   0.955   3.634   3.282 -0.0313 -0.0141 -0.0112
  893W        W 1890   3.265   3.301   4.675 -0.1690 -0.1584 -0.0436
  894W        W 1891   6.254   0.024   2.640  0.0783 -0.0427  0.1589
  895W        W 1892   5.982   3.247   3.066  0.1910  0.1119  0.2993
  896W        W 1893   4.826   4.204   3.639 -0.0839  0.1821  0.0835
  897W        W 1894   5.602   6.780   3.160  0.3211 -0.3162  0.0789
  898W        W 1895   4.413   7.304   7.131  0.0952 -0.3010  0.1680
  899W        W 1896   6.144   6.510   2.325  0.2043  0.0880 -0.0022
  900W        W 1897   0.604   1.232   3.409  0.0944 -0.4741 -0.1309
  901W        W 1898   4.988   2.260   1.314  0.0846  0.0544 -0.0156
  902W        W 1899   1.495   2.269   3.447 -0.0367 -0.1595  0.0147
  903W        W 1900   2.226   3.867   5.577  0.3028  0.1931 -0.0205
  904W        W 1901   4.014   1.809   2.155 -0.0765  0.1313 -0.0519
  905W        W 1902   6.601   6.131   1.038 -0.1567 -0.2079  0.1444
  906W        W 1903   4.420   3.690   4.711  0.1863  0.1070 -0.1553
  907W        W 1904   6.438   5.384   2.210  0.1404  0.0363 -0.2880
  908W        W 1905   5.268   3.169   5.836 -0.3162 -0.5054  0.1228
  909W        W 1906   1.026   7.580   3.613 -0.1388 -0.0242 -0.4971
  910W        W 1907   0.159   0.774   6.738  0.1127  0.0726  0.1385
  911W        W 1908   2.515   2.606   3.701  0.0652  0.0056  0.1840
  912W        W 1909   1.898   4.950   2.798 -0.3604 -0.2571 -0.0588
  913W        W 1910   5.033   1.407   7.432  0.1857  0.1343 -0.0331
  914W        W 1911   7.496   4.053   5.938 -0.2615  0.0388  0.1562
  915W        W 1912   5.211   1.014   2.178  0.0882  0.1187 -0.3842
  916W        W 1913   1.937   3.097   6.113 -0.2313  0.2967  0.0921
  917W        W 1914   5.482   4.158   2.886 -0.3048 -0.2003  0.3855
  918W        W 1915   0.521   5.356   5.868 -0.1073 -0.1545 -0.1598
  919W        W 1916   7.413   1.912   4.233 -0.0483 -0.0565  0.2452
  920W        W 1917   7.052   5.763   2.926  0.1683 -0.2148 -0.0341
  921W        W 1918   4.942   4.300   4.145 -0.1271 -0.2197  0.2352
  922W        W 1919   1.821   6.784   2.555  0.0159 -0.2486  0.1452
  923W        W 1920   5.420   2.660   3.915  0.0273  0.0146  0.2161
  924W        W 1921   7.403   5.653   6.646  0.1239  0.0015  0.0900
  925W        W 1922   6.458   0.441   4.809 -0.1673  0.1120 -0.1770
  926W        W 1923   2.672   7.472   3.601  0.1341  0.1444 -0.0073
  927W        W 1924   3.567   4.548   3.436  0.0225 -0.2090 -0.1554
  928W        W 1925   3.205   4.115   5.314  0.0669 -0.0447  0.3432
  929W        W 1926   6.467   5.171   1.146 -0.0864 -0.4373  0.1896
  930W        W 1927   6.576   7.496   0.338  0.4507  0.1958 -0.3068
  931W        W 1928   3.613   3.639   7.623 -0.0238 -0.1511  0.0638
  932W        W 1929   5.094   0.266   2.874  0.1645 -0.0416 -0.1793
  933W        W 1930   6.280   6.381   5.563  0.0736  0.1859  0.1182
  934W        W 1931   5.879   1.034   5.520  0.2621  0.1443  0.1541
  935W        W 1932   5.621   1.465   4.364  0.1799 -0.1013  0.0617
  936W        W 1933   7.338   0.576   5.633  0.1618 -0.3232 -0.0250
  937W        W 1934   2.094   1.226   3.999 -0.0281  0.1492  0.2656
  938W        W 1935   7.175   0.363   2.584  0.1456  0.0536 -0.1956
  939W        W 1936   1.214   3.032   4.952  0.0266 -0.0671  0.0039
  940W        W 1937   5.905   3.880   2.825 -0.3865 -0.2515  0.1378
  941W        W 1938   0.135   5.188   4.079 -0.2661  0.0457  0.2643
  942W        W 1939   2.195   6.013   5.603 -0.0116 -0.1811  0.0661
  943W        W 1940   3.514   2.260   6.042 -0.2464  0.1018  0.1053
  944W        W 1941   4.522   7.287   2.845 -0.0521  0.2002  0.7358
  945W        W 1942   5.513   5.226   3.056 -0.4437 -0.2175  0.0529
  946W        W 1943   0.326   4.785   0.151  0.0727  0.1448 -0.2371
  947W        W 1944   0.600   7.038   5.660  0.0284  0.3157  0.2764
  948W        W 1945   2.132   3.180   3.625 -0.3492  0.2319 -0.0089
  949W        W 1946   4.866   2.323   0.134 -0.0429 -0.0694  0.2581
  950W        W 1947   4.923   1.874   2.977 -0.0138  0.3107 -0.0766
  951W        W 1948   7.351   0.832   0.652 -0.1983  0.0869 -0.2706
  952W        W 1949   4.089   4.368   1.939  0.0003 -0.0325  0.3026
  953W        W 1950   0.820   6.795   1.662  0.1547  0.1141  0.0002
  954W        W 1951   5.931   2.358   4.716 -0.1383 -0.1427  0.1297
  955W        W 1952   5.161   5.488   4.024  0.0151  0.0928 -0.2422
  956W        W 1953   1.238   1.146   0.372 -0.3961 -0.2889 -0.2491
  957W        W 1954   6.810   3.564   5.821  0.4163 -0.0156 -0.1135
  958W        W 1955   4.366   3.413   6.559 -0.0569 -0.1501  0.0728
  959W        W 1956   3.559   2.022   7.055  0.0705 -0.1072  0.1420
  960W        W 1957   0.360   7.430   7.056 -0.0370 -0.1186 -0.0841
  961W        W 1958   5.935   0.376   6.619 -0.0634  0.0632 -0.2181
  962W        W 1959   2.530   2.362   4.482  0.1318  0.3365 -0.2488
  963W        W 1960   5.847   7.465   2.437 -0.2846 -0.0991 -0.0303
  964W        W 1961   4.148   6.931   2.770  0.2180 -0.2180 -0.0222
  965W        W 1962   4.839   1.793   0.075 -0.0516  0.0987 -0.2768
  966W        W 1963   2.116   2.703   2.743  0.0773  0.3392 -0.2420
  967W        W 1964   2.196   1.051   0.821  0.0395  0.0044  0.1124
  968W        W 1965   4.960   5.951   0.534 -0.0093  0.1476 -0.1560
  969W        W 1966   7.472   1.054   7.623  0.2575 -0.1599  0.0848
  970W        W 1967   2.133   2.633   4.591 -0.2021  0.0253 -0.2325
  971W        W 1968   2.328   6.857   1.139  0.5136  0.0765 -0.0831
  972W        W 1969   5.710   6.304   4.666  0.1525  0.2011  0.1565
  973W        W 1970   1.058   4.842   2.942 -0.0473  0.1629  0.5157
  974W        W 1971   6.166   5.946   3.141 -0.0193 -0.1052 -0.0540
  975W        W 1972   0.905   5.757   5.857 -0.0953 -0.1775 -0.0034
  976W        W 1973   0.125   6.587   4.841 -0.0237 -0.1209 -0.0983
  977W        W 1974   0.754   3.360   3.765  0.1885  0.0944 -0.0511
  978W        W 1975   5.120   5.997   2.238  0.1049 -0.0571 -0.0364
  979W        W 1976   4.631   1.097   2.380 -0.1469 -0.1428 -0.0041
  980W        W 1977   2.314   3.444   4.675 -0.1754  0.1721  0.3122
  981W        W 1978   5.164   4.492   2.116 -0.4046  0.1216 -0.0986
  982W        W 1979   4.566   3.940   2.459  0.0760 -0.0094 -0.1663
  983W        W 1980   2.948   5.716   2.037  0.2207 -0.0509 -0.1523
  984W        W 1981   1.460   0.637   6.665 -0.0365  0.2347 -0.2205
  985W        W 1982   2.594   3.778   2.655 -0.1211 -0.1259  0.0246
  986W        W 1983   7.322   4.386   6.281 -0.1752  0.2701 -0.0979
  987W        W 1984   7.120   5.860   4.077 -0.0653 -0.1688  0.0220
  988W        W 1985   4.713   0.986   6.378  0.1458 -0.0575 -0.1872
  989W        W 1986   4.263   0.104   0.789  0.1185  0.0906 -0.1328
  990W        W 1987   6.455   7.386   3.003  0.0471  0.1295 -0.1371
  991W        W 1988   1.895   4.395   2.942 -0.1577  0.0344 -0.0082
  992W        W 1989   5.893   0.701   1.845  0.2335  0.2746 -0.1730
  993W        W 1990   3.159   7.075   1.396  0.0022 -0.1430 -0.2215
  994W        W 1991   6.748   4.432   1.771  0.1434  0.1466 -0.0776
  995W        W 1992   1.618   5.866   2.029  0.0625  0.0683 -0.0771
  996W        W 1993   0.474   6.122   6.927  0.0718 -0.1413 -0.0866
  997W        W 1994   5.004   4.927   4.317  0.1195  0.1470 -0.4547
  998W        W 1995   3.043   3.752   2.423 -0.2079 -0.0621 -0.2789
  999W        W 1996   5.068   6.766   5.291 -0.0765  0.1809  0.1069
 1000W        W 1997   1.853   6.144   6.490  0.1516  0.1832  0.1504
 1001W        W 1998   4.346   1.839   4.060 -0.0998  0.0130 -0.1766
 1002W        W 1999   1.435   2.640   6.797  0.2409  0.1574  0.1775
 1003W        W 2000   5.432   1.649   5.039 -0.0129 -0.2247 -0.1263
 1004W        W 2001   0.559   4.674   6.277 -0.1005 -0.2267  0.1321
 1005W        W 2002   6.543   7.263   5.214 -0.1470  0.1332 -0.0087
 1006W        W 2003   5.249   2.195   2.736 -0.1135  0.0921  0.3240
 1007W        W 2004   2.465   7.522   6.601  0.4893 -0.1313  0.3133
 1008W        W 2005   3.066   7.054   2.666  0.1429  0.2847  0.2213
 1009W        W 2006   5.763   6.573   4.240 -0.4963 -0.2497 -0.1168
 1010W        W 2007   7.030   5.550   5.228  0.4457  0.1625  0.0681
 1011W        W 2008   3.486   6.818   5.790 -0.0911 -0.0213 -0.0375
 1012W        W 2009   4.987   1.557   2.168  0.0816 -0.1001 -0.0427
 1013W        W 2010   3.738   2.260   0.961  0.0331 -0.2080  0.4104
 1014W        W 2011   6.687   7.061   6.215  0.0521  0.1583 -0.1489
 1015W        W 2012   1.379   5.492   3.673  0.0352 -0.4832  0.1060
 1016W        W 2013   4.665   2.133   2.699  0.5377 -0.1978 -0.4959
 1017W        W 2014   4.089   0.312   2.879  0.0140  0.1072  0.1357
 1018W        W 2015   2.124   6.391   7.474 -0.0677  0.1299  0.2252
 1019W        W 2016   2.377   1.682   6.459  0.0218 -0.0978  0.0328
 1020W        W 2017   6.235   1.531   4.115  0.1901 -0.0093  0.0275
 1021W        W 2018   5.865   1.970   0.134 -0.3819 -0.1842  0.2573
 1022W        W 2019   2.759   1.572   7.260 -0.2406  0.1311  0.1375
 1023W        W 2020   2.397   7.377   5.633 -0.3099  0.1805  0.1152
 1024W        W 2021   6.754   1.499   4.922  0.1785  0.0222 -0.0231
 1025W        W 2022   5.750   2.403   0.323 -0.2776 -0.0423 -0.1307
 1026W        W 2023   7.572   6.798   7.394  0.1529  0.0793  0.0358
 1027W        W 2024   0.367   2.371   4.821  0.1294 -0.0361  0.1193
 1028W        W 2025   0.928   6.492   0.158 -0.0004  0.0130 -0.1724
 1029W        W 2026   6.557   3.588   4.051  0.1874 -0.1495  0.0035
 1030W        W 2027   5.672   1.640   2.962 -0.0595 -0.1308 -0.1484
 1031W        W 2028   4.757   0.296   4.059 -0.1911  0.0971 -0.3161
 1032W        W 2029   3.298   4.150   2.643  0.4107  0.0076  0.4014
 1033W        W 2030   0.836   2.561   6.445 -0.1693 -0.1528  0.1076
 1034W        W 2031   6.434   5.646   0.899  0.0838 -0.2300 -0.0058
 1035W        W 2032   7.442   6.317   1.066 -0.1581  0.2375  0.0505
 1036W        W 2033   3.164   7.596   4.447  0.2564  0.1412 -0.0254
 1037W        W 2034   6.951   6.490   1.212 -0.0979 -0.2020 -0.1108
 1038W        W 2035   0.395   2.678   5.209  0.1886  0.0958  0.2654
 1039W        W 2036   3.822   5.316   2.386  0.0219 -0.2035  0.0664
 1040W        W 2037   3.959   6.569   2.091 -0.0675 -0.1197  0.1078
 1041W        W 2038   7.511   4.242   4.605 -0.0575  0.2111 -0.1891
 1042W        W 2039   0.688   6.213   6.429  0.1910  0.1936 -0.0565
 1043W        W 2040   3.852   3.016   5.096  0.1199  0.3248 -0.0575
 1044W        W 2041   1.226   7.453   4.047 -0.0459 -0.2546 -0.2044
 1045W        W 2042   3.611   6.762   2.384 -0.1383  0.1709 -0.1573
 1046W        W 2043   2.357   5.419   4.457  0.0420  0.0052  0.0284
 1047W        W 2044   3.272   3.800   4.451  0.3775  0.0429 -0.0090
 1048W        W 2045   5.436   7.025   5.545 -0.1853 -0.1927 -0.1018
 1049W        W 2046   6.029   7.360   3.888 -0.1259 -0.1779  0.2324
 1050W        W 2047   0.866   3.054   4.598 -0.1572  0.1915 -0.0730
 1051W        W 2048   5.885   7.023   6.697 -0.3377 -0.1698 -0.0640
 1052W        W 2049   2.916   2.556   1.397 -0.6103 -0.1975 -0.1532
 1053W        W 2050   2.088   6.720   4.235  0.1065  0.1395 -0.0180
 1054W        W 2051   6.418   4.484   3.396 -0.1961  0.1275 -0.0207
 1055W        W 2052   2.534   5.848   5.220 -0.0961 -0.0700 -0.2192
 1056W        W 2053   1.374   7.339   5.065  0.0118 -0.0064 -0.0899
 1057W        W 2054   3.974   4.816   3.701 -0.1773 -0.0034  0.0293
 1058W        W 2055   5.846   7.353   7.071  0.1676 -0.0011  0.1838
 1059W        W 2056   4.019   0.758   0.204  0.0113 -0.1654 -0.1446
 1060W        W 2057   1.237   4.419   6.537  0.0192  0.0425  0.0596
 1061W        W 2058   2.941   0.445   5.074  0.3106  0.0466 -0.3976
 1062W        W 2059   0.866   1.280   6.680  0.2341 -0.1537  0.1494
 1063W        W 2060   0.959   0.199   1.985 -0.0794 -0.2923  0.3810
 1064W        W 2061   2.255   3.353   7.512  0.1643 -0.0431 -0.2913
 1065W        W 2062   4.698   3.674   6.309  0.2792 -0.0568  0.0691
 1066W        W 2063   1.537   5.203   6.286 -0.2662  0.2018  0.0442
 1067W        W 2064   4.723   0.634   0.961 -0.0268 -0.1370 -0.1280
 1068W        W 2065   3.402   2.265   3.110  0.2298 -0.3507  0.1022
 1069W        W 2066   1.734   4.359   0.356 -0.0899 -0.1161 -0.0566
 1070W        W 2067   2.896   1.548   6.686 -0.0875  0.2471  0.0688
 1071W        W 2068   0.613   1.108   5.180 -0.4185  0.2535  0.0408
 1072W        W 2069   0.433   7.004   6.673 -0.0234  0.2787 -0.1662
 1073W        W 2070   5.631   3.206   7.065 -0.4631  0.1865  0.0009
 1074W        W 2071   5.713   1.489   1.489 -0.2651  0.1785  0.1014
 1075W        W 2072   2.913   6.466   5.765 -0.0411  0.0284 -0.0366
 1076W        W 2073   6.500   6.441   3.055 -0.0569 -0.0209  0.1183
 1077W        W 2074   0.375   5.134   1.664 -0.1830  0.1479  0.1626
 1078W        W 2075   4.985   5.017   4.812 -0.0948 -0.3043  0.1180
 1079W        W 2076   4.936   3.771   5.312  0.1871 -0.1390  0.0381
 1080W        W 2077   5.344   1.165   0.600  0.2665 -0.1291 -0.0131
 1081W        W 2078   3.306   7.278   5.569 -0.0286  0.3350 -0.2699
 1082W        W 2079   4.367   6.411   1.851  0.0740 -0.2218  0.1073
 1083W        W 2080   2.445   7.559   0.329  0.3817  0.1222  0.1122
 1084W        W 2081   7.194   6.760   6.944  0.2239  0.2725 -0.2236
 1085W        W 2082   6.725   6.784   4.341  0.0159 -0.1737  0.1101
 1086W        W 2083   2.587   3.046   2.150  0.0195  0.2075 -0.1745
 1087W        W 2084   1.271   2.602   4.700  0.0906 -0.0486  0.1942
 1088W        W 2085   3.024   6.892   5.950 -0.0954 -0.1498 -0.1226
 1089W        W 2086   6.818   1.720   0.292  0.0641  0.0303 -0.2247
 1090W        W 2087   7.361   3.091   3.832  0.0548  0.0288  0.1569
 1091W        W 2088   7.598   1.242   6.768 -0.1089  0.0785 -0.1143
 1092W        W 2089   1.389   3.144   6.838 -0.2716  0.3192  0.1189
 1093W        W 2090   1.751   0.561   0.079  0.4940  0.0106 -0.3682
 1094W        W 2091   3.936   6.399   1.582  0.1181 -0.3017  0.2202
 1095W        W 2092   7.111   0.465   0.316 -0.1805  0.1061  0.0650
 1096W        W 2093   4.573   3.588   5.810 -0.1359 -0.0100  0.1937
 1097W        W 2094   2.392   6.999   3.574  0.0655  0.3675  0.2155
 1098W        W 2095   2.208   1.513   4.394  0.1498  0.1821  0.2167
 1099W        W 2096   1.903   1.502   6.725 -0.1398  0.1765  0.0445
 1100W        W 2097   7.104   3.367   4.331  0.0581  0.3622 -0.2463
 1101W        W 2098   2.501   5.204   0.191 -0.4909  0.0606 -0.0022
 1102W        W 2099   0.895   3.568   7.081 -0.3759  0.1670 -0.1457
 1103W        W 2100   1.876   0.441   5.127  0.1404 -0.3414  0.2621
 1104W        W 2101   4.435   0.308   1.215 -0.0220 -0.4750 -0.1419
 1105W        W 2102   3.648   2.751   6.852  0.0107 -0.2845 -0.0794
 1106W        W 2103   0.263   3.961   6.796  0.1264 -0.1748  0.2181
 1107W        W 2104   4.385   7.571   4.298  0.0393 -0.0951  0.5840
 1108W        W 2105   5.076   4.248   4.628  0.0523 -0.0633 -0.2891
 1109W        W 2106   2.528   6.644   3.954  0.2860 -0.3303  0.0202
 1110W        W 2107   1.192   3.111   3.894  0.1358 -0.0323  0.0832
 1111W        W 2108   3.850   2.510   5.192  0.1215  0.2719  0.0931
 1112W        W 2109   4.431   2.288   1.335 -0.3255  0.0151  0.0214
 1113W        W 2110   1.740   1.573   2.442 -0.1584 -0.3812 -0.0584
 1114W        W 2111   4.641   0.167   6.202 -0.0369  0.0904 -0.2033
 1115W        W 2112   0.015   7.075   6.947  0.2366 -0.0287  0.0486
 1116W        W 2113   3.571   1.320   5.907  0.1233 -0.1098 -0.1461
 1117W        W 2114   1.913   1.373   3.531  0.1797 -0.1320  0.0607
 1118W        W 2115   1.330   4.815   0.254  0.2768 -0.3244 -0.1016
 1119W        W 2116   6.872   5.546   1.093 -0.1039  0.3632 -0.0093
 1120W        W 2117   3.360   2.899   1.498  0.0549 -0.0799  0.0387
 1121W        W 2118   5.838   5.371   3.427 -0.1313 -0.3144 -0.1841
 1122W        W 2119   5.526   0.269   2.581 -0.0152  0.3064 -0.2871
 1123W        W 2120   5.690   0.722   5.853  0.1396 -0.1165 -0.0161
 1124W        W 2121   0.084   4.617   5.551 -0.3097  0.0095  0.1361
 1125W        W 2122   1.182   2.683   0.745  0.1868 -0.2720 -0.2748
 1126W        W 2123   4.044   7.007   5.839  0.3056 -0.0284  0.0068
 1127W        W 2124   3.101   7.465   0.951  0.0016  0.0625  0.1948
 1128W        W 2125   4.262   0.189   0.298  0.1621 -0.3947 -0.0507
 1129W        W 2126   7.585   4.832   4.506  0.0771  0.3405  0.2865
 1130W        W 2127   3.875   7.322   1.649 -0.1822  0.2382 -0.1981
 1131W        W 2128   3.723   1.898   5.144  0.5891  0.0189 -0.0295
 1132W        W 2129   5.688   1.787   5.944  0.0814 -0.0285  0.1852
 1133W        W 2130   5.753   4.847   1.661  0.2457 -0.1138  0.0754
 1134W        W 2131   2.689   5.355   5.820 -0.1375 -0.1731  0.4307
 1135W        W 2132   6.560   0.592   6.238  0.3631  0.0589  0.0926
 1136W        W 2133   6.148   2.095   3.796  0.2478  0.2304 -0.1593
 1137W        W 2134   3.504   2.220   2.310 -0.0661  0.2274  0.0639
 1138W        W 2135   3.206   1.842   5.294 -0.3065 -0.0103  0.0360
 1139W        W 2136   3.287   7.614   5.969 -0.1738 -0.0206  0.2917
 1140W        W 2137   0.854   3.446   6.077  0.0693  0.2240  0.0693
 1141W        W 2138   6.028   3.164   6.255  0.2656  0.0978 -0.0072
 1142W        W 2139   5.628   2.668   7.099 -0.2888 -0.2163 -0.2086
 1143W        W 2140   3.120   4.161   3.863  0.3445  0.1611 -0.0924
 1144W        W 2141   0.742   4.929   3.307  0.0313 -0.1962 -0.1086
 1145W        W 2142   0.604   2.650   6.947 -0.1474 -0.0570  0.3598
 1146W        W 2143   0.246   3.719   4.442 -0.1554  0.2528  0.1122
 1147W        W 2144   1.823   6.009   6.010  0.2422  0.2668 -0.2847
 1148W        W 2145   4.569   3.411   2.974 -0.3459 -0.2618 -0.1751
 1149W        W 2146   2.140   1.667   2.744  0.2401 -0.2845  0.2296
 1150W        W 2147   3.367   3.159   7.579  0.0911 -0.0793  0.1577
 1151W        W 2148   3.959   1.498   1.740 -0.0661  0.0644  0.1168
 1152W        W 2149   5.632   0.073   0.674 -0.0834  0.0048  0.0197
 1153W        W 2150   1.730   2.504   4.935  0.1054  0.0372  0.1477
 1154W        W 2151   7.523   5.830   4.404 -0.0174  0.2332  0.2593
 1155W        W 2152   4.363   7.302   1.813  0.0536  0.0930 -0.0935
 1156W        W 2153   7.500   6.067   3.846 -0.4156  0.1600 -0.0268
 1157W        W 2154   1.714   3.565   2.805 -0.1860  0.1856  0.2940
 1158W        W 2155   4.416   4.621   3.669  0.0782  0.2875 -0.1022
 1159W        W 2156   2.703   7.150   0.040 -0.3451 -0.3849  0.1671
 1160W        W 2157   6.515   6.154   3.562  0.0580  0.0751 -0.0651
 1161W        W 2158   2.060   3.870   4.712  0.0146 -0.0323  0.0933
 1162W        W 2159   4.711   5.353   5.070  0.2473 -0.2594 -0.0233
 1163W        W 2160   5.677   2.131   1.658  0.0977  0.1036  0.2623
 1164W        W 2161   0.991   7.230   1.387 -0.1764  0.1135  0.1678
 1165W        W 2162   5.303   6.617   4.025 -0.0848  0.1406 -0.2945
 1166W        W 2163   0.476   0.662   7.196  0.1124 -0.2231 -0.0593
 1167W        W 2164   6.714   6.152   2.732  0.1842 -0.2201 -0.4735
 1168W        W 2165   5.239   0.342   0.834 -0.0350  0.1479 -0.2393
 1169W        W 2166   1.117   2.009   7.208  0.3024 -0.0185  0.0537
 1170W        W 2167   5.957   6.449   0.916  0.0247 -0.0816  0.2285
 1171W        W 2168   5.021   2.987   3.857 -0.3122 -0.5231  0.0989
 1172W        W 2169   6.807   7.606   4.945 -0.5014  0.0188 -0.1119
 1173W        W 2170   0.265   7.399   5.468  0.0760 -0.2530  0.0127
 1174W        W 2171   6.901   5.036   3.986  0.0453 -0.0291  0.0700
 1175W        W 2172   1.098   7.511   2.728  0.0767  0.2406  0.0323
 1176W        W 2173   1.644   5.775   1.402  0.4376  0.0268  0.1289
 1177W        W 2174   1.299   5.218   0.773  0.1653 -0.3973 -0.1760
 1178W        W 2175   3.063   0.689   6.467 -0.0898  0.1798 -0.1707
 1179W        W 2176   5.288   4.088   5.589  0.0774  0.1498 -0.2580
 1180W        W 2177   5.850   0.028   2.926 -0.3130  0.0908 -0.0256
 1181W        W 2178   1.035   5.968   2.633 -0.0809  0.1759 -0.0597
 1182W        W 2179   6.132   6.968   1.961 -0.1609 -0.0478 -0.1523
 1183W        W 2180   3.533   0.645   6.672  0.3155 -0.1243  0.1692
 1184W        W 2181   5.796   0.970   0.354  0.0826 -0.2100 -0.2084
 1185W        W 2182   4.029   1.145   5.379 -0.1722  0.1007 -0.0052
 1186W        W 2183   2.487   4.538   3.389 -0.2637  0.1962 -0.0937
 1187W        W 2184   6.071   2.683   6.967  0.1791 -0.0524  0.2776
 1188W        W 2185   7.275   2.025   4.735  0.5631  0.1068 -0.0081
 1189W        W 2186   3.253   3.301   5.736  0.1790  0.1203 -0.0306
 1190W        W 2187   0.266   1.144   3.880  0.0101  0.4179  0.1499
 1191W        W 2188   0.370   1.194   6.469 -0.0221  0.0024 -0.1203
 1192W        W 2189   2.616   0.441   1.061  0.2297  0.0131  0.3365
 1193W        W 2190   2.033   1.583   5.417 -0.1560  0.0686  0.0358
 1194W        W 2191   5.498   1.473   6.326  0.0749  0.1204 -0.2060
 1195W        W 2192   1.274   6.442   5.388  0.3251 -0.0775 -0.1525
 1196W        W 2193   4.387   2.932   3.858  0.2562  0.0494 -0.0454
 1197W        W 2194   1.846   3.559   3.771  0.0370  0.2697  0.2502
 1198W        W 2195   5.130   1.787   6.373 -0.1806  0.1330 -0.0496
 1199W        W 2196   1.653   5.553   0.765 -0.3272 -0.1776  0.0236
 1200W        W 2197   2.682   6.636   1.952 -0.2463 -0.2186  0.1487
 1201W        W 2198   1.016   4.703   0.651 -0.1591 -0.2904 -0.0485
 1202W        W 2199   5.841   0.937   7.491  0.0205 -0.1942 -0.0278
 1203W        W 2200   3.175   5.919   4.933 -0.0523  0.1348  0.1605
 1204W        W 2201   1.598   2.657   3.804  0.0974 -0.1258  0.2568
 1205W        W 2202   5.694   4.751   3.982 -0.1409 -0.0145 -0.0097
 1206W        W 2203   3.020   6.606   4.099  0.1582  0.0124 -0.3575
 1207W        W 2204   1.252   7.337   0.294  0.0410  0.2231  0.0811
 1208W        W 2205   3.556   1.670   2.436 -0.2396 -0.0412 -0.2922
 1209W        W 2206   4.698   4.262   6.478  0.3234 -0.0425  0.0306
 1210W        W 2207   3.301   1.404   5.008 -0.1529  0.0549 -0.1368
 1211W        W 2208   0.046   0.975   7.201  0.0276  0.0922 -0.0409
 1212W        W 2209   6.164   6.202   2.750  0.1131  0.0011  0.2156
 1213W        W 2210   0.932   7.067   2.167 -0.0634 -0.1313 -0.3427
 1214W        W 2211   3.795   2.221   3.854 -0.0908 -0.0212 -0.2970
 1215W        W 2212   5.531   6.247   2.337  0.4049  0.1440  0.0137
 1216W        W 2213   7.122   7.366   6.160 -0.2389 -0.1411  0.0094
 1217W        W 2214   0.167   7.443   4.040 -0.3298 -0.1079 -0.0589
 1218W        W 2215   0.589   4.105   5.324  0.1993 -0.0064 -0.0727
 1219W        W 2216   6.694   2.701   0.340 -0.1830 -0.1258 -0.2016
 1220W        W 2217   1.938   1.739   4.017  0.0673 -0.1560  0.1239
 1221W        W 2218   1.310   5.944   3.486  0.0020 -0.3361 -0.1300
 1222W        W 2219   3.367   1.683   1.068  0.2224  0.1137  0.1182
 1223W        W 2220   4.908   2.829   6.132  0.2515  0.0208  0.0772
 1224W        W 2221   4.204   6.319   1.144 -0.2432 -0.1938 -0.1844
 1225W        W 2222   5.700   0.628   4.698  0.0196 -0.3284 -0.0910
 1226W        W 2223   0.428   3.624   5.295 -0.0678  0.1700 -0.1848
 1227W        W 2224   7.158   0.730   3.536  0.1912  0.3119 -0.2663
 1228W        W 2225   0.964   3.607   0.417 -0.1209  0.0411 -0.0953
 1229W        W 2226   5.627   1.920   4.630 -0.0643  0.1572  0.0014
 1230W        W 2227   4.892   7.426   7.254 -0.1771  0.0760 -0.0609
 1231W        W 2228   0.605   0.432   6.459 -0.1590  0.3571 -0.1548
 1232W        W 2229   3.509   7.529   7.505 -0.0942 -0.0302  0.2736
 1233W        W 2230   4.970   2.397   7.272  0.0748  0.1371 -0.2142
 1234W        W 2231   3.192   6.788   2.167  0.0856 -0.1533  0.0482
 1235W        W 2232   4.170   0.255   6.855  0.0172 -0.1466 -0.1808
 1236W        W 2233   2.302   3.474   6.305  0.0416 -0.0539  0.0189
 1237W        W 2234   4.053   6.657   0.721 -0.3584 -0.1050 -0.2274
 1238W        W 2235   1.085   0.393   1.051 -0.0154 -0.1230 -0.0122
 1239W        W 2236   1.139   5.166   5.174 -0.0816  0.0360  0.2212
 1240W        W 2237   2.538   3.006   1.217  0.4683  0.3228  0.0609
 1241W        W 2238   2.270   6.447   1.370  0.1357  0.0166 -0.3139
 1242W        W 2239   0.851   4.374   5.645 -0.0600  0.1448 -0.1713
 1243W        W 2240   6.711   4.384   2.368  0.2999 -0.2283 -0.2068
 1244W        W 2241   3.113   5.683   5.413 -0.1785 -0.1114 -0.0822
 1245W        W 2242   3.051   3.844   7.295  0.3175 -0.1273 -0.0729
 1246W        W 2243   7.344   5.592   1.383  0.2475 -0.0439  0.0534
 1247W        W 2244   6.109   7.348   1.083  0.6673 -0.1222  0.0696
 1248W        W 2245   6.108   6.060   1.103 -0.1458  0.0408 -0.0958
 1249W        W 2246   3.016   3.793   3.438 -0.0312  0.0862 -0.0371
 1250W        W 2247   1.712   6.049   7.377  0.4586  0.0442 -0.2169
 1251W        W 2248   4.465   1.806   4.954 -0.1859  0.5855  0.1025
 1252W        W 2249   7.256   7.421   4.617  0.5501  0.2751 -0.1397
 1253W        W 2250   2.133   5.262   7.153  0.0227 -0.1126  0.0978
 1254W        W 2251   5.044   1.400   5.545 -0.1303 -0.0096  0.1966
 1255W        W 2252   6.771   4.011   2.042 -0.3037  0.2463 -0.2493
 1256W        W 2253   0.833   5.701   1.616  0.0183 -0.1720 -0.4013
 1257W        W 2254   7.175   7.481   0.963 -0.0841 -0.0999  0.0370
 1258W        W 2255   5.354   2.114   5.949  0.1830 -0.0846  0.0745
 1259W        W 2256   0.205   5.167   5.479 -0.0184  0.1391  0.2558
 1260W        W 2257   3.867   3.384   0.795  0.3330  0.1375  0.2686
 1261W        W 2258   1.937   4.429   3.796 -0.0380 -0.4550 -0.2256
 1262W        W 2259   0.065   4.934   3.046  0.1321 -0.1770  0.0337
 1263W        W 2260   5.101   2.343   3.684  0.2894 -0.1305  0.0161
 1264W        W 2261   5.919   2.699   2.152 -0.0598  0.0138  0.1410
 1265W        W 2262   3.939   1.866   4.711 -0.2469 -0.1096 -0.3579
 1266W        W 2263   0.386   6.015   3.187 -0.1115 -0.0150  0.0818
 1267W        W 2264   7.281   4.209   4.104  0.1579 -0.1208 -0.0663
 1268W        W 2265   2.013   2.346   3.441 -0.0513 -0.0291 -0.2107
 1269W        W 2266   2.369   3.998   4.311  0.1127 -0.1533  0.2015
 1270W        W 2267   7.315   0.063   7.324 -0.0418 -0.0841  0.0517
 1271W        W 2268   5.887   4.157   0.581 -0.0126 -0.0853 -0.0767
 1272W        W 2269   1.647   2.239   7.258 -0.0826  0.1272  0.3909
 1273W        W 2270   7.190   4.982   3.573 -0.0711  0.3251  0.1459
 1274W        W 2271   4.955   5.426   1.631 -0.1284  0.1571 -0.1092
 1275W        W 2272   2.654   0.772   3.986 -0.0015  0.2974  0.0492
 1276W        W 2273   2.782   4.667   2.752  0.2293  0.0085  0.0165
 1277W        W 2274   7.275   6.342   4.201 -0.3320  0.0398 -0.0253
 1278W        W 2275   3.670   4.005   4.171 -0.1334 -0.0805  0.0746
 1279W        W 2276   0.745   6.332   3.203  0.0192  0.0833 -0.2357
 1280W        W 2277   0.757   0.164   7.353 -0.0614  0.0950  0.1637
 1281W        W 2278   4.205   0.768   4.928 -0.0132 -0.2053 -0.0615
 1282W        W 2279   5.495   3.345   2.135  0.0570 -0.1437  0.0376
 1283W        W 2280   2.271   6.477   5.887  0.0208 -0.0033  0.2979
 1284W        W 2281   5.205   0.509   4.052  0.1686 -0.2440 -0.1130
 1285W        W 2282   4.146   3.931   4.192 -0.2569 -0.2555 -0.1605
 1286W        W 2283   6.240   3.561   4.527 -0.0345 -0.1171  0.1379
 1287W        W 2284   1.101   1.657   1.273  0.0708  0.1064  0.5207
 1288W        W 2285   3.919   0.459   5.871  0.0794  0.0801  0.0769
 1289W        W 2286   7.608   0.972   5.790 -0.0018 -0.1695  0.0297
 1290W        W 2287   5.407   5.182   4.328 -0.4021 -0.0972 -0.0558
 1291W        W 2288   6.886   5.654   1.601 -0.0640  0.0881  0.0909
 1292W        W 2289   7.457   2.102   6.272  0.0490 -0.1680 -0.2150
 1293W        W 2290   1.078   7.280   3.166  0.0624 -0.0345  0.1650
 1294W        W 2291   0.715   0.496   0.066  0.2495 -0.0926  0.0206
 1295W        W 2292   4.409   2.201   3.141 -0.0523 -0.2953  0.1814
 1296W        W 2293   7.107   4.566   3.824  0.1384  0.2447 -0.1127
 1297W        W 2294   1.277   5.564   1.807  0.0120  0.1452 -0.1483
 1298W        W 2295   0.858   6.403   6.007 -0.3920  0.0543 -0.0911
 1299W        W 2296   7.174   4.032   5.046  0.3424 -0.2873 -0.0730
 1300W        W 2297   2.685   3.829   3.911 -0.1412  0.3378  0.1109
 1301W        W 2298   0.912   6.585   4.964  0.0224 -0.0458 -0.1276
 1302W        W 2299   0.190   5.775   2.353 -0.3487 -0.0268 -0.3343
 1303W        W 2300   0.512   6.756   6.160  0.0333  0.0508  0.0077
 1304W        W 2301   3.158   1.849   1.467 -0.2012  0.1297  0.3044
 1305W        W 2302   0.416   4.943   1.153 -0.1569 -0.1012 -0.0570
 1306W        W 2303   0.482   4.618   4.737  0.2580 -0.0111 -0.0461
 1307W        W 2304   1.216   6.172   3.035 -0.3685 -0.0616  0.0512
 1308W        W 2305   5.028   1.167   4.376  0.0304 -0.0899  0.2635
 1309W        W 2306   4.545   7.231   2.313  0.3242 -0.1493 -0.1193
 1310W        W 2307   4.942   7.431   3.081  0.2895  0.0983 -0.1477
 1311W        W 2308   3.169   3.121   6.185  0.1910 -0.0108 -0.0374
 1312W        W 2309   5.082   2.779   5.343  0.1801 -0.2821  0.2261
 1313W        W 2310   2.298   1.669   1.871  0.0231  0.0961 -0.3166
 1314W        W 2311   2.015   0.565   1.578  0.0059  0.1733 -0.0245
 1315W        W 2312   3.041   2.804   3.916 -0.3324  0.0115 -0.3384
 1316W        W 2313   1.913   4.282   4.874  0.2983  0.2952  0.4034
 1317W        W 2314   7.409   0.565   3.080  0.4586  0.1182  0.2636
 1318W        W 2315   1.399   1.077   1.784  0.1201 -0.1883 -0.1856
 1319W        W 2316   3.270   4.993   3.605 -0.0373  0.1234  0.1647
 1320W        W 2317   3.009   0.244   0.621  0.2181  0.2232 -0.1362
 1321W        W 2318   0.527   0.483   5.317 -0.2378 -0.1427  0.0914
 1322W        W 2319   4.581   4.736   4.977  0.3848 -0.0360 -0.1516
 1323W        W 2320   3.680   7.524   3.634  0.2810  0.0275 -0.1957
 1324W        W 2321   5.868   0.177   4.642  0.1033 -0.0416  0.1755
 1325W        W 2322   2.143   3.193   1.973 -0.0993  0.1876 -0.1859
 1326W        W 2323   2.230   0.148   4.875  0.3009  0.0271 -0.0890
 1327W        W 2324   7.133   6.787   2.057  0.1610  0.2295  0.1415
 1328W        W 2325   2.109   6.714   5.410 -0.0706  0.1385 -0.1235
 1329W        W 2326   5.346   3.364   4.627  0.0572  0.2007  0.1744
 1330W        W 2327   6.517   5.783   1.892 -0.0053  0.2550  0.1461
 1331W        W 2328   2.953   1.589   2.891  0.3372  0.1075  0.1442
 1332W        W 2329   4.700   2.881   4.233 -0.1835 -0.2078  0.2487
 1333W        W 2330   0.712   1.166   0.471  0.1820 -0.0155 -0.2356
 1334W        W 2331   7.544   7.410   5.104  0.0137 -0.0044 -0.0349
 1335W        W 2332   0.922   7.380   5.783  0.1530  0.0406  0.0884
 1336W        W 2333   2.056   1.052   6.968 -0.1634 -0.2614  0.2773
 1337W        W 2334   5.891   1.037   3.401  0.0146 -0.2014  0.3426
 1338W        W 2335   6.962   6.438   4.758 -0.0790 -0.0789 -0.2173
 1339W        W 2336   1.544   4.557   0.820  0.1970 -0.3177 -0.2050
 1340W        W 2337   5.760   6.860   4.769  0.0878 -0.1477  0.1649
 1341W        W 2338   6.211   3.412   2.627 -0.1494 -0.2930 -0.3211
 1342W        W 2339   3.566   4.469   4.116 -0.0619 -0.0640  0.0918
 1343W        W 2340   1.650   2.527   4.295 -0.0933 -0.1688 -0.2390
 1344W        W 2341   3.239   0.307   7.445 -0.1474 -0.2014 -0.0583
 1345W        W 2342   1.919   4.396   7.132 -0.1678  0.1986  0.1254
 1346W        W 2343   4.435   3.503   1.701  0.1883  0.2460 -0.0909
 1347W        W 2344   4.587   2.792   1.320 -0.0993  0.4238  0.1093
 1348W        W 2345   7.526   1.691   3.771  0.1061 -0.2177 -0.1810
 1349W        W 2346   0.986   2.485   0.308  0.1765 -0.0793  0.1939
 1350W        W 2347   3.521   2.312   4.549 -0.0542  0.1220  0.0371
 1351W        W 2348   7.045   7.277   5.221 -0.0607 -0.1854 -0.0271
 1352W        W 2349   7.163   5.778   3.508  0.2472 -0.1138  0.1060
 1353W        W 2350   4.417   4.820   4.170  0.0848  0.0673  0.0637
 1354W        W 2351   4.593   4.603   5.748 -0.1511 -0.0942 -0.0527
 1355W        W 2352   4.275   2.220   3.680 -0.0236  0.1698  0.3348
 1356W        W 2353   5.850   4.456   3.310 -0.0718 -0.3079  0.0329
 1357W        W 2354   5.068   3.739   5.912 -0.1529  0.1218  0.0240
 1358W        W 2355   5.628   0.751   3.748 -0.2686 -0.0701 -0.3291
 1359W        W 2356   0.941   7.341   7.524  0.0645 -0.2967 -0.0195
 1360W        W 2357   1.467   6.324   1.288 -0.0894  0.1760  0.1327
 1361W        W 2358   4.653   6.561   3.328 -0.4336  0.0017  0.0509
 1362W        W 2359   4.488   7.109   6.048 -0.1849 -0.0416 -0.1731
 1363W        W 2360   4.302   1.923   0.856  0.1678 -0.0718  0.0895
 1364W        W 2361   6.696   6.109   0.493 -0.0052 -0.0361 -0.1170
 1365W        W 2362   1.445   1.474   6.609  0.1037  0.0133 -0.0900
 1366W        W 2363   1.679   3.981   2.535 -0.0600  0.0852  0.1256
 1367W        W 2364   1.840   3.452   4.439 -0.1567 -0.3069 -0.2713
 1368W        W 2365   0.821   5.761   2.091 -0.1000 -0.1160 -0.0395
 1369W        W 2366   7.601   5.491   0.557 -0.0206  0.1908 -0.0159
 1370W        W 2367   3.150   0.568   0.939  0.0100  0.2343  0.1055
 1371W        W 2368   1.423   5.110   2.104 -0.1801 -0.0842  0.2226
 1372W        W 2369   5.466   3.533   6.186  0.4040  0.1814 -0.1083
 1373W        W 2370   6.237   5.908   7.473  0.1465  0.0491 -0.1733
 1374W        W 2371   1.367   0.460   5.135 -0.2898  0.1075  0.0462
 1375W        W 2372   2.068   1.581   4.861 -0.0658 -0.2445  0.1285
 1376W        W 2373   3.423   4.953   4.587 -0.2258 -0.1200  0.0345
 1377W        W 2374   0.458   7.473   7.547 -0.0141 -0.2911 -0.3122
 1378W        W 2375   3.355   7.386   1.738 -0.0549  0.0769 -0.1563
 1379W        W 2376   1.596   0.920   5.082  0.1587 -0.1285  0.5033
 1380W        W 2377   6.014   2.862   5.311 -0.1430  0.2239  0.1054
 1381W        W 2378   6.991   3.338   3.541 -0.1815  0.1943  0.0254
 1382W        W 2379   6.483   2.924   4.713 -0.0068 -0.2044  0.1924
 1383W        W 2380   4.165   2.797   5.461  0.2164  0.0894 -0.0755
 1384W        W 2381   6.169   4.480   4.997  0.1919  0.0808 -0.0027
 1385W        W 2382   4.891   7.598   4.452  0.1917 -0.0008  0.3491
 1386W        W 2383   5.124   3.915   6.380  0.0004 -0.1115 -0.0930
 1387W        W 2384   0.607   6.214   2.431 -0.1129  0.2228 -0.1127
 1388W        W 2385   1.281   1.353   2.238  0.1993 -0.0247 -0.1409
 1389W        W 2386   3.722   3.133   7.220 -0.0939  0.0823 -0.1034
 1390W        W 2387   0.002   1.609   4.627 -0.2478  0.0968  0.1623
 1391W        W 2388   7.628   6.046   0.365 -0.0667 -0.4312 -0.2639
 1392W        W 2389   5.695   5.975   1.686  0.2148  0.0912  0.1048
 1393W        W 2390   5.527   0.258   3.719  0.3542 -0.0182 -0.1474
 1394W        W 2391   0.167   4.996   6.030  0.2281 -0.0515  0.0830
 1395W        W 2392   5.632   4.864   3.460  0.0250 -0.3369  0.2385
 1396W        W 2393   3.263   1.967   2.712 -0.1339 -0.1544 -0.1172
 1397W        W 2394   4.281   0.466   2.384 -0.3172 -0.0394  0.0977
 1398W        W 2395   0.243   6.876   1.482  0.0353 -0.0217 -0.0404
 1399W        W 2396   2.509   3.784   7.136 -0.0966 -0.1469 -0.0695
 1400W        W 2397   4.584   4.067   5.540 -0.1973  0.5251  0.1480
 1401W        W 2398   3.655   6.916   0.864  0.0004  0.1938  0.0322
 1402W        W 2399   1.884   2.327   2.532  0.0858  0.1979 -0.0902
 1403W        W 2400   6.024   0.438   6.172 -0.3940  0.1090 -0.0503
 1404W        W 2401   0.521   4.810   3.760  0.2945  0.0540  0.1221
 1405W        W 2402   6.845   0.658   0.683 -0.1160 -0.0163 -0.0767
 1406W        W 2403   2.566   1.791   4.628 -0.1247 -0.0215 -0.0342
 1407W        W 2404   4.491   0.460   4.612 -0.4740  0.1278 -0.0563
 1408W        W 2405   2.927   6.045   0.667  0.1151  0.0615  0.2261
 1409W        W 2406   0.081   2.611   6.861 -0.2971  0.0802  0.0023
 1410W        W 2407   1.447   3.644   5.181 -0.0736 -0.1067  0.2264
 1411W        W 2408   4.018   3.145   6.387 -0.0001 -0.3540  0.0327
 1412W        W 2409   7.335   3.124   5.125 -0.0549  0.1972 -0.0764
 1413W        W 2410   1.852   1.181   2.683 -0.1873  0.1316 -0.2158
 1414W        W 2411   1.255   5.014   1.606 -0.1302  0.0961  0.2519
 1415W        W 2412   2.244   2.134   3.831  0.0069 -0.0921 -0.0750
 1416W        W 2413   4.826   6.998   3.358 -0.0145 -0.3164 -0.1151
 1417W        W 2414   3.832   1.744   0.892  0.0140  0.0511 -0.1944
 1418W        W 2415   2.055   4.703   3.283  0.3733 -0.1176  0.0532
 1419W        W 2416   1.607   6.053   4.788 -0.0818  0.0036 -0.2193
 1420W        W 2417   7.377   5.392   6.227  0.2362 -0.1254 -0.5013
 1421W        W 2418   6.446   0.975   4.234 -0.1539  0.1898  0.0948
 1422W        W 2419   2.258   1.999   0.261  0.1391 -0.0269 -0.1549
 1423W        W 2420   6.388   4.443   4.342 -0.2545  0.0528 -0.0922
 1424W        W 2421   1.453   5.779   6.682 -0.1753 -0.0485 -0.0435
 1425W        W 2422   3.871   4.131   6.142  0.0123 -0.3016 -0.0908
 1426W        W 2423   7.163   0.367   4.930  0.0437 -0.3140 -0.0736
 1427W        W 2424   7.452   2.937   4.363 -0.0707 -0.1855 -0.0943
 1428W        W 2425   6.659   0.056   2.246  0.0274 -0.0012 -0.0916
 1429W        W 2426   0.285   5.690   0.134  0.1145 -0.1615 -0.1735
 1430W        W 2427   7.413   3.600   3.376  0.0038 -0.1230 -0.3012
 1431W        W 2428   2.961   7.145   4.690  0.2978 -0.0787  0.2260
 1432W        W 2429   5.284   6.008   4.844  0.0349 -0.1021 -0.0679
 1433W        W 2430   2.699   5.342   5.351  0.2620  0.0780  0.0484
 1434W        W 2431   5.589   2.158   3.701 -0.1164  0.2643 -0.1983
 1435W        W 2432   1.316   5.145   7.051  0.1551 -0.1396  0.5380
 1436W        W 2433   4.095   1.210   7.130 -0.0781 -0.2590 -0.1956
 1437W        W 2434   3.858   4.187   3.268 -0.2380  0.1117 -0.0207
 1438W        W 2435   3.676   3.088   5.555 -0.1150  0.3139  0.0792
 1439W        W 2436   6.905   0.828   4.900 -0.4812  0.0730 -0.2140
 1440W        W 2437   1.879   2.862   3.409  0.0993  0.1414 -0.1653
 1441W        W 2438   7.157   3.683   6.200  0.2310 -0.0132  0.1616
 1442W        W 2439   1.213   2.217   5.013 -0.0697  0.3212 -0.1535
 1443W        W 2440   4.107   4.774   5.521 -0.2567 -0.0808  0.2176
 1444W        W 2441   2.283   2.784   6.478  0.5186 -0.0666 -0.0987
 1445W        W 2442   0.013   6.357   7.631 -0.2420  0.0321  0.0025
 1446W        W 2443   4.716   7.123   4.396  0.2036 -0.1280  0.0881
 1447W        W 2444   5.291   5.014   3.800  0.0958 -0.0493 -0.1689
 1448W        W 2445   5.608   3.533   3.812  0.1823  0.0255  0.0775
 1449W        W 2446   1.241   3.149   5.397 -0.3235  0.1991 -0.0494
 1450W        W 2447   6.783   4.237   4.011  0.1835 -0.0427 -0.3568
 1451W        W 2448   5.080   2.527   4.196 -0.2462 -0.1048 -0.2202
 1452W        W 2449   1.446   6.412   6.497 -0.2252  0.1975  0.0111
 1453W        W 2450   4.511   6.707   0.972 -0.1003 -0.1166  0.3586
 1454W        W 2451   3.078   0.111   6.531 -0.1483 -0.3368 -0.1036
 1455W        W 2452   1.874   7.328   4.874 -0.1595 -0.1075  0.0132
 1456W        W 2453   3.217   7.359   2.300  0.0127 -0.0894 -0.2745
 1457W        W 2454   4.777   0.400   5.746 -0.0390  0.0130 -0.1255
 1458W        W 2455   2.477   0.626   2.561  0.1596  0.1683 -0.4033
 1459W        W 2456   3.063   7.520   2.818 -0.1795  0.0276 -0.0823
 1460W        W 2457   5.371   2.915   4.857 -0.2660  0.0633 -0.1627
 1461W        W 2458   5.616   5.621   3.860 -0.2304 -0.0692 -0.2802
 1462W        W 2459   1.638   0.466   2.328  0.1162  0.1066  0.3499
 1463W        W 2460   5.451   4.223   4.232  0.0630  0.0171  0.1525
 1464W        W 2461   7.622   6.094   5.658 -0.2904 -0.1602 -0.1125
 1465W        W 2462   4.524   1.381   5.708 -0.2457 -0.0038 -0.1507
 1466W        W 2463   4.405   0.830   5.558  0.1981 -0.1350  0.1195
 1467W        W 2464   0.361   4.499   3.411 -0.0809  0.2304  0.1149
 1468W        W 2465   0.948   5.749   6.821  0.0379 -0.3145 -0.1652
 1469W        W 2466   5.141   1.174   6.526 -0.0351  0.1865 -0.2068
 1470W        W 2467   1.914   4.165   0.835  0.0366 -0.3417  0.1711
 1471W        W 2468   6.754   3.962   2.667 -0.2176  0.0305 -0.1174
 1472W        W 2469   1.141   6.569   3.875 -0.1313 -0.0266 -0.0688
 1473W        W 2470   5.390   0.139   7.552  0.1413 -0.0542  0.0140
 1474W        W 2471   5.500   7.280   0.318 -0.0571  0.0819  0.2352
 1475W        W 2472   5.924   1.970   3.291 -0.1016 -0.2012 -0.0846
 1476W        W 2473   5.106   6.250   1.403 -0.1330 -0.2713  0.1171
 1477W        W 2474   1.989   6.085   1.172  0.3979 -0.1406 -0.4576
 1478W        W 2475   7.203   4.609   4.765  0.0131  0.2940  0.1824
 1479W        W 2476   2.336   0.384   7.017  0.2024 -0.2295  0.4244
 1480W        W 2477   0.883   1.937   5.819  0.1223  0.0486  0.4147
 1481W        W 2478   1.757   4.185   6.137 -0.1965  0.0844 -0.0651
 1482W        W 2479   2.356   4.940   5.640  0.3218  0.0807  0.2542
 1483W        W 2480   6.983   6.286   3.740  0.0265  0.0539 -0.0147
 1484W        W 2481   3.646   0.295   3.216 -0.1353  0.0968  0.1089
 1485W        W 2482   3.623   3.245   6.736 -0.0541 -0.0902 -0.2439
 1486W        W 2483   0.178   5.982   4.933 -0.4548 -0.3560 -0.0073
 1487W        W 2484   6.798   6.045   6.616  0.2096  0.2868  0.1073
 1488W        W 2485   4.759   0.337   0.516  0.1546  0.0972  0.1018
 1489W        W 2486   1.422   4.440   2.836  0.0875  0.0500 -0.0333
 1490W        W 2487   3.738   3.478   5.250  0.2492  0.1407 -0.3868
 1491W        W 2488   3.946   4.798   2.155  0.0578  0.2724  0.1025
 1492W        W 2489   2.918   7.182   3.238 -0.0898 -0.1459  0.0030
 1493W        W 2490   0.905   1.543   7.614 -0.2237  0.1069  0.0136
 1494W        W 2491   4.975   0.235   3.555  0.4351  0.2239  0.1414
 1495W        W 2492   1.331   0.213   6.325 -0.3553  0.0721  0.1006
 1496W        W 2493   2.785   0.482   7.362  0.0614  0.2213 -0.3499
 1497W        W 2494   5.820   2.235   4.152  0.2331 -0.3786  0.0497
 1498W        W 2495   1.247   0.796   2.880 -0.0296 -0.1731 -0.0993
 1499W        W 2496   2.160   1.557   6.059 -0.0672  0.0930 -0.1730
 1500W        W 2497   2.252   4.204   5.218 -0.0584  0.1414 -0.1696
 1501W        W 2498   6.889   4.958   5.640 -0.0024 -0.2462  0.1523
 1502W        W 2499   4.032   0.142   5.117 -0.1313  0.2938  0.1636
 1503W        W 2500   0.127   3.076   7.105  0.0030  0.0783  0.2018
 1504W        W 2501   4.409   7.397   7.634 -0.2951 -0.1160  0.1342
 1505W        W 2502   3.080   0.500   6.893 -0.0889 -0.3061  0.0236
 1506W        W 2503   1.070   1.857   3.725  0.0199 -0.0726  0.0425
 1507W        W 2504   3.357   0.158   0.296  0.2559  0.1880  0.1522
 1508W        W 2505   1.603   7.242   6.762 -0.2221 -0.1081 -0.2795
 1509W        W 2506   4.191   1.265   3.116  0.2159 -0.2282 -0.1157
 1510W        W 2507   4.692   0.647   7.159  0.0237  0.0832 -0.0022
 1511W        W 2508   4.032   2.659   7.178  0.0930 -0.2185  0.3685
 1512W        W 2509   6.743   5.848   0.048 -0.1431 -0.3090 -0.0651
 1513W        W 2510   0.745   0.264   0.569  0.3578  0.1629 -0.0380
 1514W        W 2511   5.430   0.254   6.760  0.1786 -0.0977  0.1206
 1515W        W 2512   5.252   2.667   5.836 -0.0050  0.3175  0.1432
 1516W        W 2513   2.646   6.018   3.282  0.0596  0.1169 -0.1769
 1517W        W 2514   4.383   2.901   0.820  0.2039 -0.3104  0.1423
 1518W        W 2515   2.499   6.207   0.438 -0.1398  0.1826  0.1758
 1519W        W 2516   2.118   5.742   1.508  0.1050 -0.0950  0.1417
 1520W        W 2517   2.493   5.120   6.203 -0.1014 -0.0836 -0.1019
 1521W        W 2518   0.110   0.359   3.441 -0.1729 -0.0809 -0.0840
 1522W        W 2519   0.036   6.454   6.099 -0.1175  0.3804  0.1565
 1523W        W 2520   5.309   7.028   1.368  0.2875  0.1379 -0.0063
 1524W        W 2521   2.050   3.674   0.869  0.0364  0.1826  0.3665
 1525W        W 2522   4.883   4.203   5.979 -0.1089  0.0129 -0.0749
 1526W        W 2523   0.983   1.638   0.451  0.0887 -0.2020  0.2652
 1527W        W 2524   0.150   0.857   5.249 -0.0415  0.0112  0.1304
 1528W        W 2525   1.112   5.351   6.576  0.0722  0.1180  0.1749
 1529W        W 2526   4.712   1.586   7.101 -0.0022  0.2465 -0.0134
 1530W        W 2527   6.252   1.497   1.624  0.0490 -0.2730 -0.3789
 1531W        W 2528   5.757   7.033   3.561  0.2026  0.1573 -0.1586
 1532W        W 2529   5.136   0.109   6.074 -0.0024 -0.3550  0.2038
 1533W        W 2530   4.855   2.799   7.578 -0.1041 -0.0461 -0.1103
 1534W        W 2531   0.105   4.407   5.025  0.0039  0.1887 -0.2513
 1535W        W 2532   7.445   6.069   3.199 -0.0263  0.1476  0.3538
 1536W        W 2533   6.844   6.475   5.739  0.2375 -0.0637  0.0684
 1537W        W 2534   6.957   2.231   6.069  0.2490 -0.0359 -0.3080
 1538W        W 2535   0.505   0.763   3.346  0.0207  0.2233 -0.0380
 1539W        W 2536   1.353   1.235   2.707 -0.2809 -0.0943  0.1128
 1540W        W 2537   6.908   5.245   1.820 -0.0879 -0.1505  0.1238
 1541W        W 2538   5.468   7.360   3.698 -0.0252 -0.2222  0.2435
 1542W        W 2539   4.540   6.203   3.710 -0.2044  0.0509 -0.0114
 1543W        W 2540   2.686   1.747   0.434 -0.0468  0.2482  0.0938
 1544W        W 2541   4.343   1.505   3.656 -0.3072  0.2183  0.0609
 1545W        W 2542   0.909   6.144   3.666  0.0358  0.1206  0.0714
 1546W        W 2543   3.397   3.680   3.919  0.0838 -0.1405  0.2905
 1547W        W 2544   0.166   2.205   0.001  0.3153  0.1748 -0.0377
 1548W        W 2545   3.187   0.461   3.193 -0.2678  0.2745 -0.2601
 1549W        W 2546   4.324   5.124   2.351 -0.2737 -0.1457  0.2794
 1550W        W 2547   0.900   0.228   4.008 -0.0224 -0.0821  0.1294
 1551W        W 2548   3.823   0.790   2.268  0.0892 -0.0074  0.2040
 1552W        W 2549   2.013   7.501   7.559 -0.1269  0.0369 -0.0068
 1553W        W 2550   3.392   6.456   3.291  0.2311 -0.2092 -0.2725
 1554W        W 2551   7.445   5.132   1.760  0.0061 -0.0123 -0.1582
 1555W        W 2552   1.734   4.717   4.659 -0.1979 -0.1119  0.1327
 1556W        W 2553   7.590   4.380   3.741  0.2246 -0.3562  0.2170
 1557W        W 2554   0.206   5.546   6.326 -0.0261 -0.2651 -0.0147
 1558W        W 2555   6.124   0.518   5.603 -0.1977  0.0286 -0.0221
 1559W        W 2556   6.427   5.108   4.957  0.2236 -0.0502  0.2217
 1560W        W 2557   3.169   4.383   6.191 -0.1683 -0.2096 -0.1488
 1561W        W 2558   3.858   4.842   5.043  0.1485 -0.1215  0.2178
 1562W        W 2559   3.856   1.115   4.515 -0.0410  0.1675 -0.0617
 1563W        W 2560   3.677   3.154   3.576 -0.0043 -0.2031 -0.0882
 1564W        W 2561   2.577   4.537   4.298 -0.0217 -0.0323 -0.1757
 1565W        W 2562   3.782   1.447   4.864 -0.1117  0.1606  0.0483
 1566W        W 2563   5.997   0.566   0.214  0.0460  0.1394 -0.2888
 1567W        W 2564   0.259   3.981   6.268 -0.1566  0.0749 -0.2367
 1568W        W 2565   5.341   6.808   4.520 -0.2338 -0.1352  0.0370
 1569W        W 2566   0.878   6.310   7.247  0.0947  0.2630  0.2919
 1570W        W 2567   5.691   2.473   5.144 -0.2640 -0.0531  0.2805
 1571W        W 2568   4.262   5.630   2.545  0.0008  0.0060 -0.0454
 1572W        W 2569   1.974   4.851   0.338  0.0704  0.1477  0.1114
 1573W        W 2570   4.912   2.922   0.929 -0.4457  0.3399 -0.0541
 1574W        W 2571   2.275   2.226   6.456 -0.0930  0.1642  0.0418
 1575W        W 2572   1.468   4.842   6.676 -0.1870  0.1415  0.0710
 1576W        W 2573   1.420   0.631   3.339  0.0099  0.0098  0.0235
 1577W        W 2574   2.541   3.562   1.047  0.0204 -0.3116  0.0201
 1578W        W 2575   4.782   6.342   2.793 -0.1533 -0.2084  0.1641
 1579W        W 2576   5.103   4.874   3.308  0.2212  0.2665  0.2401
 1580W        W 2577   0.798   7.588   0.960 -0.1687  0.0774 -0.2263
 1581W        W 2578   1.618   6.883   4.640 -0.0398  0.0357  0.3073
 1582W        W 2579   5.368   0.999   6.114  0.1282  0.2060 -0.0497
 1583W        W 2580   3.612   6.793   1.381 -0.1528 -0.0987  0.0058
 1584W        W 2581   5.303   2.043   0.085 -0.1781  0.1418  0.0653
 1585W        W 2582   4.452   3.896   3.025  0.1629 -0.0875  0.2513
 1586W        W 2583   3.992   4.300   3.841  0.2157  0.2624 -0.3127
 1587W        W 2584   3.085   1.218   6.246 -0.1745  0.1958  0.1143
 1588W        W 2585   6.009   5.237   1.466 -0.1091 -0.1204 -0.1775
 1589W        W 2586   6.248   3.150   6.809 -0.3510 -0.1339  0.1189
 1590W        W 2587   1.712   1.551   0.341 -0.1533  0.2510  0.3311
 1591W        W 2588   6.225   3.048   5.737 -0.1175 -0.0257 -0.1906
 1592W        W 2589   6.703   6.358   5.238 -0.0374  0.3127  0.0680
 1593W        W 2590   2.132   7.018   5.858  0.2992 -0.0205 -0.0720
 1594W        W 2591   5.214   7.629   5.534  0.1759  0.1032  0.1929
 1595W        W 2592   4.432   0.095   3.682  0.2590  0.3029 -0.2743
 1596W        W 2593   7.422   2.626   6.449 -0.1995  0.2074  0.0847
 1597W        W 2594   0.956   3.918   0.040  0.1738 -0.3100 -0.1799
 1598W        W 2595   1.694   1.084   3.171  0.2985 -0.0264 -0.0545
 1599W        W 2596   2.383   2.653   3.204 -0.0918  0.2180  0.3940
 1600W        W 2597   5.577   2.336   2.167  0.1395  0.1170  0.0251
 1601W        W 2598   5.452   5.327   5.365  0.3288 -0.2454 -0.1174
 1602W        W 2599   5.819   0.103   1.148 -0.3052  0.2242 -0.0191
 1603W        W 2600   7.372   1.175   3.159 -0.0325 -0.0563 -0.0866
 1604W        W 2601   3.927   2.845   0.727  0.3613  0.2813 -0.1801
 1605W        W 2602   6.405   6.774   5.910  0.2643 -0.0941 -0.2541
 1606W        W 2603   4.233   2.171   5.177  0.1871  0.3010  0.0929
 1607W        W 2604   0.997   4.163   3.035  0.2692 -0.2312  0.1238
 1608W        W 2605   6.899   1.686   7.321  0.1144 -0.0073  0.2541
 1609W        W 2606   1.831   7.383   5.772  0.0115 -0.0067 -0.2470
 1610W        W 2607   0.161   3.267   3.633  0.1362  0.1145 -0.2760
 1611W        W 2608   4.449   6.438   4.180  0.0921 -0.0035 -0.1042
 1612W        W 2609   2.836   5.475   2.766  0.0292  0.1852  0.2090
 1613W        W 2610   3.172   2.431   6.896  0.1837 -0.1063 -0.1320
 1614W        W 2611   7.454   6.291   1.974 -0.0140 -0.0680 -0.0375
 1615W        W 2612   3.756   4.911   4.203 -0.1226  0.1847 -0.1718
 1616W        W 2613   3.427   0.715   4.349 -0.2081  0.1170  0.0195
 1617W        W 2614   3.432   6.276   1.416 -0.3235  0.2235 -0.0928
 1618W        W 2615   5.841   1.217   1.973 -0.1758 -0.0737  0.2630
 1619W        W 2616   2.490   4.174   4.748  0.0872  0.4072  0.0531
 1620W        W 2617   5.461   0.991   4.279  0.1350  0.2057  0.1636
 1621W        W 2618   1.932   6.284   2.473  0.0267 -0.0994  0.1188
 1622W        W 2619   3.234   0.736   3.912  0.0676 -0.2264  0.0004
 1623W        W 2620   5.939   6.879   5.795  0.2404 -0.1418  0.0016
 1624W        W 2621   5.642   0.996   2.457 -0.0295 -0.2215 -0.0640
 1625W        W 2622   3.239   4.620   3.003  0.2896  0.2797  0.1039
 1626W        W 2623   4.041   4.265   5.672  0.0458 -0.2486  0.0331
 1627W        W 2624   5.769   4.935   2.550  0.1756  0.1549  0.2886
 1628W        W 2625   2.294   6.854   7.450 -0.0830  0.0051 -0.3168
 1629W        W 2626   7.332   0.403   4.433  0.3283  0.0241  0.2261
 1630W        W 2627   7.353   2.470   7.389 -0.1726 -0.1729  0.1171
 1631W        W 2628   2.510   5.792   1.777 -0.4140  0.3300 -0.0778
 1632W        W 2629   4.234   3.588   2.602  0.1626  0.1284 -0.1626
 1633W        W 2630   1.956   7.127   1.490  0.0281 -0.3611  0.0602
 1634W        W 2631   5.389   4.681   4.580  0.1207 -0.3630 -0.0811
 1635W        W 2632   3.919   0.053   4.050 -0.0069 -0.2282  0.0174
 1636W        W 2633   1.470   1.045   4.319  0.1781 -0.0949 -0.3323
 1637W        W 2634   4.124   2.563   6.678 -0.2054  0.2781 -0.0429
 1638W        W 2635   4.581   5.103   4.567  0.1096 -0.1090 -0.2030
 1639W        W 2636   7.133   5.960   0.837  0.2268 -0.0870  0.2595
 1640W        W 2637   0.393   6.993   4.032 -0.4132  0.2116 -0.2648
 1641W        W 2638   1.812   3.669   7.575  0.1466 -0.2417 -0.0644
 1642W        W 2639   3.233   2.080   3.668  0.2111 -0.1672  0.1092
 1643W        W 2640   3.412   7.345   6.523  0.0839 -0.2718 -0.2672
 1644W        W 2641   0.243   0.781   6.210 -0.4028 -0.1246 -0.0104
 1645W        W 2642   3.813   2.925   1.639 -0.0218 -0.2489 -0.1963
 1646W        W 2643   2.043   6.655   3.121 -0.1354 -0.2571 -0.2057
 1647W        W 2644   3.791   1.659   6.816 -0.1837  0.1551  0.0352
 1648W        W 2645   2.023   1.473   1.439 -0.0509 -0.2277 -0.0530
 1649W        W 2646   7.036   6.769   3.915  0.3150 -0.1717 -0.3203
 1650W        W 2647   3.376   7.074   3.677  0.3068  0.2902  0.1573
 1651W        W 2648   6.283   7.064   3.375 -0.0678 -0.0895 -0.1184
 1652W        W 2649   4.648   0.015   2.002  0.1287  0.3064  0.2196
 1653W        W 2650   1.920   3.194   2.441 -0.0066  0.1631 -0.3350
 1654W        W 2651   4.776   5.759   4.705 -0.0261 -0.2311  0.0722
 1655W        W 2652   1.469   4.739   2.447 -0.0073  0.3907 -0.0494
 1656W        W 2653   4.689   2.477   1.725 -0.1382  0.2209 -0.2773
 1657W        W 2654   1.324   3.125   7.360  0.0937  0.2483  0.2118
 1658W        W 2655   6.160   2.596   0.567  0.0580  0.0533 -0.1785
 1659W        W 2656   1.078   1.391   3.096 -0.1408  0.0356  0.0340
 1660W        W 2657   6.332   4.275   2.924  0.0092 -0.1423  0.2274
 1661W        W 2658   1.354   6.555   0.434 -0.1279  0.0533  0.0502
 1662W        W 2659   0.442   4.182   4.513 -0.0854 -0.1881 -0.1514
 1663W        W 2660   3.044   7.456   7.373 -0.0967 -0.1406 -0.0050
 1664W        W 2661   1.370   7.435   6.051  0.2013  0.2362  0.2645
 1665W        W 2662   5.248   0.773   5.016 -0.3155 -0.0520  0.2097
 1666W        W 2663   4.056   2.477   0.232 -0.1466  0.2932  0.1045
 1667W        W 2664   4.927   3.321   2.074  0.1989  0.3017 -0.1222
 1668W        W 2665   7.244   6.379   0.584 -0.2175 -0.1013  0.3683
 1669W        W 2666   2.867   4.831   3.255 -0.1941 -0.1229 -0.0418
 1670W        W 2667   5.446   2.181   7.238  0.2348  0.0411  0.3270
 1671W        W 2668   5.803   1.459   0.529  0.1723 -0.0589 -0.1844
 1672W        W 2669   6.394   3.114   4.221  0.0940 -0.2601 -0.2378
 1673W        W 2670   0.511   3.398   4.839  0.3918 -0.0139 -0.5390
 1674W        W 2671   6.817   5.594   0.532  0.1175  0.1298 -0.2047
 1675W        W 2672   0.995   5.344   4.362  0.1750  0.2379 -0.3277
 1676W        W 2673   0.592   1.215   4.248  0.0702 -0.1538 -0.2691
 1677W        W 2674   2.557   4.665   0.058 -0.1622  0.0523  0.1160
 1678W        W 2675   5.938   5.604   0.600  0.0704  0.0559  0.0335
 1679W        W 2676   3.313   0.762   7.265  0.0025 -0.0714 -0.2305
 1680W        W 2677   6.282   3.304   5.036  0.2157  0.2151  0.0816
 1681W        W 2678   5.299   3.100   1.676  0.0258 -0.2425  0.6797
 1682W        W 2679   0.992   0.671   5.445 -0.1316 -0.1901  0.2102
 1683W        W 2680   0.912   1.012   4.594 -0.0658 -0.0529 -0.2094
 1684W        W 2681   0.543   0.900   5.585 -0.0735  0.1760  0.0525
 1685W        W 2682   6.802   4.510   2.845  0.2563  0.0608 -0.1502
 1686W        W 2683   3.520   0.787   2.730  0.1762  0.2293 -0.2984
 1687W        W 2684   1.049   5.324   6.095  0.0064  0.2946 -0.0094
 1688W        W 2685   6.326   1.584   0.540  0.1235  0.0611  0.0690
 1689W        W 2686   7.608   5.779   2.870 -0.2051 -0.1636 -0.1119
 1690W        W 2687   0.138   5.370   2.670 -0.1309  0.0226  0.0901
 1691W        W 2688   1.825   2.933   6.653 -0.2051 -0.1133 -0.1111
 1692W        W 2689   0.094   0.659   4.479  0.1983 -0.0426 -0.3314
 1693W        W 2690   0.620   5.098   5.186  0.1588  0.0084  0.1316
 1694W        W 2691   0.782   4.644   0.220 -0.1904  0.2906  0.1005
 1695W        W 2692   5.544   2.072   6.389  0.2039  0.1353  0.2202
 1696W        W 2693   1.312   2.294   7.591 -0.0196 -0.0182 -0.0977
 1697W        W 2694   2.633   2.001   7.611  0.1904  0.4089 -0.0349
 1698W        W 2695   4.864   2.090   4.446  0.0501  0.1510  0.1674
 1699W        W 2696   1.314   2.013   1.560 -0.1109  0.3863 -0.0841
 1700W        W 2697   0.230   2.600   7.331 -0.1049 -0.1521 -0.0367
 1701W        W 2698   1.744   2.356   5.554 -0.0049  0.1210  0.0967
 1702W        W 2699   5.484   1.168   4.717 -0.2535 -0.2154 -0.2525
 1703W        W 2700   5.470   7.406   2.765  0.1133 -0.1251 -0.1616
 1704W        W 2701   3.407   3.607   0.526 -0.1061 -0.3965  0.0831
 1705W        W 2702   6.614   7.118   3.878  0.2007 -0.0913  0.0599
 1706W        W 2703   4.213   7.490   5.878  0.1724 -0.0819  0.0922
 1707W        W 2704   5.950   0.832   7.012  0.1455  0.0489  0.1142
 1708W        W 2705   1.685   4.597   7.549 -0.0329 -0.0107  0.4738
 1709W        W 2706   3.880   0.823   3.073 -0.0121 -0.1012 -0.0355
 1710W        W 2707   6.212   6.773   6.373  0.2292  0.1359 -0.3229
 1711W        W 2708   7.243   4.144   3.002 -0.2908  0.0576  0.0454
 1712W        W 2709   5.164   1.666   4.553 -0.1426  0.1325  0.2835
 1713W        W 2710   1.272   6.640   6.919 -0.3491 -0.1354  0.0402
 1714W        W 2711   4.958   2.346   3.159 -0.1885 -0.0057 -0.2614
 1715W        W 2712   3.403   5.541   2.664  0.2414 -0.0738  0.2121
 1716W        W 2713   7.092   1.941   5.238  0.1057  0.0222 -0.1523
 1717W        W 2714   6.732   7.572   3.987 -0.0511 -0.1484  0.0380
 1718W        W 2715   6.306   5.736   2.706  0.1118  0.0872 -0.0029
 1719W        W 2716   1.565   1.326   1.082  0.0972  0.0774  0.1938
 1720W        W 2717   2.645   3.720   5.877 -0.0777  0.1184  0.2313
 1721W        W 2718   4.505   5.417   2.901 -0.0772  0.2423 -0.0832
 1722W        W 2719   3.428   5.721   2.176 -0.1259  0.1632 -0.0915
 1723W        W 2720   7.522   0.508   7.055 -0.0685 -0.1684 -0.0407
 1724W        W 2721   0.405   2.946   4.799  0.2492 -0.0164  0.3543
 1725W        W 2722   4.490   1.956   7.393 -0.0757  0.1765 -0.0734
 1726W        W 2723   1.829   2.432   6.504  0.0496 -0.1279  0.0723
 1727W        W 2724   6.952   6.350   2.232  0.1617  0.1675  0.0058
 1728W        W 2725   7.101   4.759   1.708  0.0212 -0.2239 -0.1201
 1729W        W 2726   5.496   2.965   4.304  0.1492 -0.0219 -0.0030
 1730W        W 2727   4.184   6.495   4.999 -0.2178  0.2177  0.2065
 1731W        W 2728   6.564   2.084   5.793 -0.2931  0.1468 -0.3395
 1732W        W 2729   3.421   1.850   4.760  0.4032 -0.0870  0.0382
 1733W        W 2730   7.552   0.151   5.616  0.0353 -0.0300  0.1154
 1734W        W 2731   1.027   0.742   4.137 -0.1884  0.0006  0.1651
 1735W        W 2732   0.904   2.037   0.119 -0.0480  0.0597 -0.0028
 1736W        W 2733   3.810   2.603   5.748 -0.0715  0.1611  0.0353
 1737W        W 2734   2.797   0.100   6.997  0.0724 -0.1004  0.3703
 1738W        W 2735   4.520   0.011   4.850  0.0099  0.1572  0.1331
 1739W        W 2736   7.267   2.235   6.704 -0.1817 -0.1764 -0.0005
 1740W        W 2737   2.755   0.101   3.143 -0.0952 -0.0033 -0.0396
 1741W        W 2738   3.607   1.054   5.104 -0.2599  0.1289 -0.1690
 1742W        W 2739   2.004   0.675   0.561  0.1782  0.1997 -0.0821
 1743W        W 2740   4.740   3.387   4.349 -0.0503 -0.1651 -0.0401
 1744W        W 2741   1.520   0.879   5.969  0.0027 -0.1983  0.0136
 1745W        W 2742   5.001   2.625   4.835  0.1384 -0.0364  0.0770
 1746W        W 2743   0.857   0.613   3.051  0.2381  0.0412  0.2713
 1747W        W 2744   4.770   2.949   2.436 -0.2808  0.2043 -0.1087
 1748W        W 2745   0.999   0.418   6.733 -0.0539  0.0227 -0.0924
 1749W        W 2746   0.469   0.700   0.455  0.1529 -0.0765  0.0770
 1750W        W 2747   5.531   1.185   3.108 -0.1843  0.2519 -0.0581
 1751W        W 2748   5.811   3.083   3.896 -0.1417  0.0344  0.1422
 1752W        W 2749   6.677   0.319   0.193 -0.2733 -0.1017  0.0724
 1753W        W 2750   2.483   6.020   1.205  0.0819  0.0045  0.0744
 1754W        W 2751   5.462   0.530   0.214 -0.3181  0.0885 -0.2037
 1755W        W 2752   5.046   0.510   1.326  0.5000  0.0337  0.1493
 1756W        W 2753   1.001   0.327   2.492 -0.1037 -0.0838 -0.0150
 1757W        W 2754   2.671   3.073   0.010  0.1959  0.0587  0.3350
 1758W        W 2755   4.168   3.580   6.120  0.0828 -0.0545  0.1612
 1759W        W 2756   1.286   3.600   5.903  0.3730 -0.6482 -0.3304
 1760W        W 2757   7.365   4.421   6.792  0.0196 -0.0424  0.1789
 1761W        W 2758   6.136   1.148   0.746 -0.0020  0.0690  0.2164
 1762W        W 2759   6.172   4.865   4.199  0.1899  0.3647 -0.2001
 1763W        W 2760   2.841   2.343   4.047  0.4569  0.1931 -0.1458
 1764W        W 2761   7.178   2.527   4.589  0.0633  0.1028 -0.2975
 1765W        W 2762   1.336   7.595   1.260 -0.2312  0.0062 -0.0826
 1766W        W 2763   5.912   5.418   4.382 -0.2267 -0.2003 -0.0068
 1767W        W 2764   6.508   3.595   2.248  0.2004 -0.0079 -0.2239
 1768W        W 2765   3.025   6.318   0.250  0.1986  0.2979  0.0194
 1769W        W 2766   1.392   0.248   3.736  0.3618  0.0369 -0.0123
 1770W        W 2767   3.427   3.512   2.245  0.0687 -0.1391 -0.1789
 1771W        W 2768   1.549   0.128   5.529  0.1623 -0.0792  0.0150
 1772W        W 2769   0.869   0.399   4.502 -0.2573  0.1531 -0.0987
 1773W        W 2770   0.420   0.220   4.304 -0.0622 -0.1328  0.0717
 1774W        W 2771   4.869   6.887   2.473 -0.1490  0.0805  0.0119
 1775W        W 2772   6.786   2.375   6.598 -0.2356 -0.0378 -0.0195
 1776W        W 2773   6.065   5.640   5.433 -0.2620 -0.1185  0.0698
 1777W        W 2774   3.392   5.643   3.509  0.3106 -0.4201 -0.1731
 1778W        W 2775   1.548   6.014   5.357 -0.2447  0.1654  0.1247
 1779W        W 2776   1.188   4.425   7.584  0.1689  0.1499  0.2107
 1780W        W 2777   2.717   3.291   4.960  0.3052 -0.0113  0.0536
 1781W        W 2778   2.581   3.325   1.731  0.0159 -0.1999  0.0908
 1782W        W 2779   4.400   2.116   0.210 -0.1006  0.1700 -0.1089
 1783W        W 2780   6.372   0.857   5.308 -0.1252  0.5250  0.1937
 1784W        W 2781   3.707   3.992   5.380  0.1470 -0.0913  0.0620
 1785W        W 2782   1.987   3.890   6.487 -0.3106  0.0533  0.1398
 1786W        W 2783   5.328   4.351   3.400  0.2660  0.2302  0.1294
 1787W        W 2784   7.264   6.321   7.227  0.1873  0.0458  0.2321
 1788W        W 2785   6.633   4.976   2.968 -0.2058 -0.2207  0.1574
 1789W        W 2786   1.093   6.206   6.757  0.0331  0.2004  0.2397
 1790W        W 2787   2.149   0.854   3.102 -0.0686 -0.0351 -0.1425
 1791W        W 2788   2.066   1.852   3.342  0.0042 -0.1393  0.0073
 1792W        W 2789   3.926   5.711   3.490  0.0610  0.2252 -0.4838
 1793W        W 2790   5.678   5.996   0.814 -0.0513  0.2573 -0.0790
 1794W        W 2791   4.134   3.535   3.343 -0.3932 -0.1120  0.1101
 1795W        W 2792   4.857   2.345   5.867 -0.0104  0.0084 -0.1043
 1796W        W 2793   4.457   2.805   2.085 -0.1819 -0.1083 -0.0927
 1797W        W 2794   5.754   4.566   2.124 -0.0000  0.0900  0.0667
 1798W        W 2795   6.924   5.384   2.311  0.3149 -0.2117 -0.1718
 1799W        W 2796   3.159   1.092   5.549 -0.1041 -0.4077  0.0908
 1800W        W 2797   3.932   0.609   5.310  0.1983 -0.1289 -0.1561
 1801W        W 2798   1.277   1.443   5.940 -0.0596 -0.0913 -0.0001
 1802W        W 2799   0.708   2.060   6.342  0.2640 -0.1759  0.0801
 1803W        W 2800   6.791   0.555   2.162  0.0680 -0.1983 -0.1744
 1804W        W 2801   6.726   4.502   5.755 -0.1056  0.2627  0.1792
 1805W        W 2802   4.558   4.991   5.448 -0.0615 -0.2081 -0.0959
 1806W        W 2803   3.510   0.551   1.295 -0.2345  0.0753  0.2112
 1807W        W 2804   6.571   5.907   3.994 -0.1111  0.1878 -0.2135
 1808W        W 2805   5.512   5.565   4.603  0.2907 -0.0132 -0.1967
 1809W        W 2806   6.250   5.220   2.699  0.2765  0.0177  0.5465
 1810W        W 2807   3.778   0.314   0.103 -0.0289  0.3202  0.1461
 1811W        W 2808   6.250   2.508   5.555  0.0812  0.1153 -0.0438
 1812W        W 2809   7.079   0.215   5.885 -0.0400 -0.0952  0.3121
 1813W        W 2810   0.925   6.643   6.537  0.0714 -0.1537  0.0042
 1814W        W 2811   1.651   1.971   5.151 -0.5636  0.0698  0.1481
 1815W        W 2812   4.195   7.285   3.631 -0.2083 -0.4045 -0.1690
 1816W        W 2813   7.139   4.407   2.135  0.0773 -0.1842  0.0419
 1817W        W 2814   7.612   2.413   5.830 -0.2951 -0.1839  0.1201
 1818W        W 2815   5.890   6.055   5.735 -0.1745  0.0732 -0.1148
 1819W        W 2816   0.431   5.283   0.418  0.4234 -0.2475  0.0867
 1820W        W 2817   4.715   2.245   4.983 -0.2188  0.1028 -0.0801
 1821W        W 2818   3.045   1.443   3.336  0.0141  0.1185 -0.3985
 1822W        W 2819   6.721   6.679   3.456  0.1470  0.0342  0.0759
 1823W        W 2820   6.768   3.832   4.397 -0.2014  0.2443 -0.2741
 1824W        W 2821   6.642   4.908   4.340 -0.0882 -0.0070 -0.1328
 1825W        W 2822   5.719   3.241   2.646 -0.0753 -0.0190 -0.0433
 1826W        W 2823   1.170   0.094   4.847 -0.0827 -0.0098  0.0001
 1827W        W 2824   1.628   2.252   6.039  0.1065 -0.1814  0.0849
 1828W        W 2825   6.376   3.231   3.757  0.3219 -0.1164 -0.1323
 1829W        W 2826   6.991   2.151   7.139  0.0293 -0.0065 -0.1904
 1830W        W 2827   0.495   5.909   1.268 -0.1988 -0.0143  0.0944
 1831W        W 2828   1.802   7.041   6.239  0.3892  0.0843  0.0599
 1832W        W 2829   5.639   4.323   4.811  0.3220 -0.2025 -0.0275
 1833W        W 2830   3.273   2.811   4.405 -0.1631 -0.1913 -0.0511
 1834W        W 2831   6.808   1.676   5.934 -0.0198  0.3700 -0.0712
 1835W        W 2832   4.951   7.214   5.450  0.0397  0.1195  0.3235
 1836W        W 2833   0.987   1.004   5.843 -0.1185 -0.0497 -0.3564
 1837W        W 2834   4.345   0.635   6.023  0.2902  0.2305 -0.1628
 1838W        W 2835   2.969   7.144   4.141 -0.2726 -0.0411  0.1445
 1839W        W 2836   5.762   3.452   6.642 -0.1895  0.0437 -0.2746
 1840W        W 2837   1.312   1.176   5.532  0.2822 -0.0386  0.1080
 1841W        W 2838   1.914   7.097   3.322 -0.1074  0.3819  0.0151
 1842W        W 2839   4.054   2.225   6.062  0.3038  0.2460  0.0833
 1843W        W 2840   1.677   1.023   2.214  0.0753 -0.1741 -0.1060
 1844W        W 2841   3.474   4.092   7.406 -0.0419  0.1426 -0.2070
 1845W        W 2842   5.385   6.404   0.981  0.0914 -0.1231 -0.2338
 1846W        W 2843   2.485   1.701   5.594 -0.2001 -0.2606 -0.1360
 1847W        W 2844   3.335   2.367   4.056  0.0810  0.0287 -0.0766
 1848W        W 2845   3.709   3.558   4.348  0.1094  0.0158  0.0773
 1849W        W 2846   1.245   5.979   7.168  0.0937  0.1386 -0.0871
 1850W        W 2847   2.156   5.870   2.571 -0.1306 -0.1908  0.2991
 1851W        W 2848   5.068   6.409   3.618 -0.1194  0.1524 -0.1169
 1852W        W 2849   5.099   0.425   5.317 -0.2272  0.0724  0.0381
 1853W        W 2850   4.706   3.166   3.534 -0.3414  0.0196  0.2042
 1854W        W 2851   2.255   1.477   0.507  0.0109 -0.1859  0.3006
 1855W        W 2852   3.680   1.692   3.894 -0.2414  0.0831  0.0639
 1856W        W 2853   7.392   0.502   7.578 -0.0750  0.2059 -0.1428
 1857W        W 2854   0.902   6.839   7.280 -0.1124  0.0760  0.0968
 1858W        W 2855   2.411   7.092   5.169  0.0404 -0.3564  0.0187
 1859W        W 2856   2.094   6.333   6.966 -0.0482  0.0530 -0.1089
 1860W        W 2857   3.367   3.619   6.108  0.0240 -0.1816  0.2562
 1861W        W 2858   1.934   7.333   4.379 -0.0859  0.3938  0.1260
 1862W        W 2859   2.024   5.193   5.296  0.1678  0.0538  0.2898
 1863W        W 2860   0.359   3.638   3.943  0.0359  0.1346 -0.4020
 1864W        W 2861   3.125   2.236   7.437  0.0803 -0.0443 -0.2548
 1865W        W 2862   6.233   0.871   5.964  0.0086  0.1999  0.0801
 1866W        W 2863   5.435   2.871   2.155 -0.1298  0.0617  0.3095
 1867W        W 2864   3.516   3.650   3.372 -0.0656 -0.4747  0.0940
 1868W        W 2865   7.261   6.832   6.034 -0.3176  0.4740  0.1924
 1869W        W 2866   1.163   6.848   6.017  0.1260  0.0276  0.0066
 1870W        W 2867   3.657   4.540   5.405 -0.0542  0.0946  0.3218
 1871W        W 2868   6.843   7.101   1.132 -0.0538 -0.0072  0.0371
 1872W        W 2869   2.008   4.348   4.404  0.0426  0.0944  0.1886
 1873W        W 2870   5.076   3.327   2.979  0.2443  0.2318  0.0090
 1874W        W 2871   0.724   1.989   4.745  0.1688 -0.0693 -0.0075
 1875W        W 2872   5.517   2.960   6.175 -0.1214  0.0257  0.2379
 1876W        W 2873   3.924   3.424   1.573 -0.0151 -0.0688 -0.0566
 1877W        W 2874   4.618   0.604   2.702  0.0831 -0.2437 -0.0102
 1878W        W 2875   5.589   0.604   1.148 -0.1211 -0.2096  0.2003
 1879W        W 2876   3.392   2.919   0.531 -0.1427 -0.1489  0.0458
 1880W        W 2877   1.724   2.737   7.187  0.0135 -0.1523  0.0561
 1881W        W 2878   2.657   7.047   6.662 -0.0711 -0.1471  0.0939
 1882W        W 2879   2.693   2.991   3.480 -0.0984 -0.0716  0.6253
 1883W        W 2880   6.740   5.889   2.304 -0.0950  0.0576  0.0343
 1884W        W 2881   1.422   6.376   2.591  0.0366  0.2074  0.3085
 1885W        W 2882   7.090   0.111   5.403 -0.0145  0.1813 -0.2361
 1886W        W 2883   5.754   6.746   2.208 -0.0131 -0.1522 -0.1038
 1887W        W 2884   6.844   3.115   3.966  0.1541 -0.0796 -0.3604
 1888W        W 2885   0.105   6.532   3.840  0.1881  0.0745  0.2315
 1889W        W 2886   1.933   7.077   3.909 -0.1936  0.1277  0.0732
 1890W        W 2887   7.479   7.111   2.260 -0.0108  0.1612 -0.1957
 1891W        W 2888   4.929   5.158   2.936  0.0001 -0.3205 -0.0256
 1892W        W 2889   2.421   4.033   0.852  0.1624  0.3073  0.0674
 1893W        W 2890   2.445   5.001   3.480  0.1542 -0.1254  0.1407
 1894W        W 2891   4.557   1.059   0.691 -0.1212  0.4274 -0.0722
 1895W        W 2892   5.648   5.930   4.306 -0.1583 -0.4503 -0.3280
 1896W        W 2893   4.952   2.640   6.782 -0.2452  0.0817  0.0589
 1897W        W 2894   1.616   6.847   5.755  0.1695 -0.0659 -0.1849
 1898W        W 2895   4.218   0.942   6.430 -0.1485 -0.0181  0.0534
 1899W        W 2896   3.909   7.483   0.201 -0.1171 -0.0061 -0.6949
 1900W        W 2897   6.739   2.568   5.771 -0.3044 -0.3223  0.0033
 1901W        W 2898   6.821   5.914   4.989  0.0255 -0.0912 -0.1033
 1902W        W 2899   4.761   0.041   0.956 -0.0632 -0.0158  0.1026
 1903W        W 2900   2.672   1.971   2.743 -0.0881  0.2179 -0.0477
 1904W        W 2901   3.476   0.714   0.057 -0.3331 -0.0847 -0.3388
 1905W        W 2902   5.780   7.176   6.210  0.0605 -0.0925  0.0272
 1906W        W 2903   1.879   1.987   0.611 -0.0846 -0.2178 -0.2185
 1907W        W 2904   0.896   1.815   4.240  0.2803  0.0186 -0.4224
 1908W        W 2905   2.233   7.042   2.858  0.2886  0.0195 -0.0631
 1909W        W 2906   5.894   4.429   4.369 -0.0614  0.1945  0.1561
 1910W        W 2907   5.517   5.466   2.615 -0.0829 -0.2457  0.0750
 1911W        W 2908   2.692   5.553   4.093 -0.0904  0.2386 -0.0705
 1912W        W 2909   7.064   3.157   6.117  0.2164  0.0408  0.1258
 1913W        W 2910   2.835   6.646   0.680  0.0469 -0.0630  0.1425
 1914W        W 2911   4.689   7.340   3.921  0.1506  0.1078  0.3883
 1915W        W 2912   4.885   6.674   4.294  0.3389 -0.0549 -0.0528
 1916W        W 2913   3.742   6.715   3.041  0.0309 -0.1341  0.1040
 1917W        W 2914   6.646   1.106   0.663  0.1316 -0.3062 -0.0303
 1918W        W 2915   4.598   0.074   2.536  0.0769  0.1929  0.2332
 1919W        W 2916   6.143   4.413   5.791  0.1707 -0.0208  0.0894
 1920W        W 2917   2.340   3.133   3.091 -0.0453  0.2693  0.1047
 1921W        W 2918   0.652   0.124   3.094 -0.1307 -0.1592 -0.2705
 1922W        W 2919   6.831   2.775   7.349 -0.2684  0.0405  0.1615
 1923W        W 2920   6.877   6.476   1.725 -0.1590 -0.0917 -0.1806
 1924W        W 2921   5.011   2.773   0.484  0.0004 -0.1229 -0.1272
 1925W        W 2922   2.114   4.858   7.466  0.2272 -0.2062  0.1047
 1926W        W 2923   5.316   2.555   0.031  0.0678 -0.0388 -0.1022
 1927W        W 2924   2.481   1.115   7.269 -0.1523  0.0194 -0.1673
 1928W        W 2925   4.890   3.802   2.841  0.1994  0.2230  0.0007
 1929W        W 2926   2.911   6.246   2.127 -0.2298  0.0686  0.1652
 1930W        W 2927   3.682   5.270   3.349 -0.1777 -0.2101  0.0383
 1931W        W 2928   1.805   1.765   7.166  0.1708  0.6079 -0.0230
 1932W        W 2929   1.997   3.737   6.981  0.3025 -0.0486 -0.0277
 1933W        W 2930   0.577   0.068   5.650 -0.1191 -0.3871  0.0218
 1934W        W 2931   0.756   4.668   7.208 -0.1976  0.3757  0.2286
 1935W        W 2932   4.382   3.466   3.811  0.0214  0.1634 -0.2025
 1936W        W 2933   1.782   5.050   0.865 -0.2443  0.3815  0.0360
 1937W        W 2934   5.512   2.700   2.656 -0.0852 -0.1473  0.2132
 1938W        W 2935   4.528   7.400   3.332 -0.4699  0.1967 -0.1958
 1939W        W 2936   5.929   3.430   5.391  0.0073  0.0913 -0.0591
 1940W        W 2937   4.258   3.162   0.420 -0.0263 -0.0952 -0.0108
 1941W        W 2938   5.258   3.571   6.706  0.1327  0.0834  0.2737
 1942W        W 2939   1.542   5.187   5.536 -0.0039 -0.1544 -0.0437
 1943W        W 2940   2.149   7.491   1.812  0.1265  0.0951  0.1233
 1944W        W 2941   7.267   5.850   2.398 -0.1614 -0.0091 -0.0492
 1945W        W 2942   4.720   5.120   1.983  0.3281  0.0529 -0.2969
 1946W        W 2943   4.366   1.134   0.257 -0.1865 -0.0092  0.1001
 1947W        W 2944   0.526   1.891   7.424  0.0891  0.0550 -0.1128
 1948W        W 2945   1.275   3.605   3.702  0.0297 -0.0289 -0.0884
 1949W        W 2946   2.786   2.910   2.954 -0.0246 -0.0551 -0.1990
 1950W        W 2947   0.618   6.978   1.122 -0.2145  0.0715 -0.0335
 1951W        W 2948   1.144   6.032   6.238  0.1563  0.0735 -0.2737
 1952W        W 2949   1.243   5.649   2.286 -0.1964  0.4329 -0.2315
 1953W        W 2950   5.219   1.696   2.626  0.1178 -0.0989 -0.1847
 1954W        W 2951   1.812   4.754   4.175  0.0314  0.1694 -0.0540
 1955W        W 2952   1.859   3.094   4.029 -0.0034  0.1164 -0.0136
 1956W        W 2953   6.138   1.006   2.313  0.3410 -0.0331 -0.1198
 1957W        W 2954   1.496   0.175   6.820 -0.2200  0.1235  0.0804
 1958W        W 2955   1.760   0.300   1.916 -0.1746 -0.1499  0.0235
 1959W        W 2956   3.732   2.367   2.728  0.0358 -0.1270  0.0797
 1960W        W 2957   0.370   0.222   1.513 -0.1492  0.0376  0.2223
 1961W        W 2958   4.973   0.253   6.565 -0.1989  0.0580 -0.1301
 1962W        W 2959   2.469   6.451   4.447  0.0161 -0.2543  0.0316
 1963W        W 2960   3.362   4.136   6.913  0.1357 -0.3602  0.1987
 1964W        W 2961   6.088   0.249   7.046  0.1988 -0.0688 -0.3716
 1965W        W 2962   2.011   0.802   2.024 -0.2165  0.2095 -0.0632
 1966W        W 2963   3.495   1.433   1.460  0.0206 -0.2233  0.3313
 1967W        W 2964   5.062   2.324   6.347  0.0655  0.0686  0.1222
 1968W        W 2965   7.270   4.587   5.859  0.1506 -0.3820 -0.1365
 1969W        W 2966   5.341   0.955   7.588  0.1201 -0.0315 -0.0898
 1970W        W 2967   6.550   1.741   1.347  0.2154  0.1314  0.0507
 1971W        W 2968   4.296   0.875   1.088 -0.1667 -0.1167 -0.1051
 1972W        W 2969   6.959   4.078   5.912 -0.2140 -0.3867  0.1702
 1973W        W 2970   0.736   7.331   5.272  0.0711  0.2437  0.0530
 1974W        W 2971   7.492   5.841   7.550 -0.0153 -0.0479  0.0394
 1975W        W 2972   4.888   7.363   6.320 -0.0079 -0.1654 -0.0028
 1976W        W 2973   6.359   5.642   5.003  0.2700  0.4223 -0.1474
 1977W        W 2974   3.749   6.463   1.037  0.0911  0.0191  0.0489
 1978W        W 2975   3.513   0.298   5.686  0.0125  0.0585  0.2419
 1979W        W 2976   6.671   1.284   1.611 -0.1350 -0.1042 -0.0987
 1980W        W 2977   4.981   0.319   4.805  0.2011 -0.3434 -0.0379
 1981W        W 2978   3.443   0.363   3.672  0.1126  0.2084  0.0326
 1982W        W 2979   6.728   1.871   3.903  0.0473 -0.2150 -0.1687
 1983W        W 2980   7.321   0.612   2.159  0.1394 -0.1411  0.0201
 1984W        W 2981   1.859   2.497   0.772 -0.0059  0.2046 -0.2292
 1985W        W 2982   1.832   6.612   1.171  0.1200 -0.0879  0.2719
 1986W        W 2983   2.444   6.457   3.436 -0.0258  0.3417  0.0511
 1987W        W 2984   0.929   5.811   3.203  0.0828  0.2159 -0.0134
 1988W        W 2985   0.880   3.074   7.001  0.0873  0.1612  0.3255
 1989W        W 2986   1.045   7.569   6.988 -0.2112  0.2036 -0.0989
 1990W        W 2987   0.279   0.226   0.304 -0.3769  0.1185 -0.1148
 1991W        W 2988   7.089   3.740   3.893 -0.1449 -0.2085  0.1248
 1992W        W 2989   4.379   6.282   0.667  0.0706 -0.0491  0.1158
 1993W        W 2990   7.229   7.194   7.273 -0.1009 -0.1294  0.0892
 1994W        W 2991   1.759   6.149   2.909 -0.0834  0.0609 -0.0984
 1995W        W 2992   2.885   5.679   1.517  0.4503  0.0105  0.1268
 1996W        W 2993   3.344   5.779   4.425 -0.5240  0.0198  0.3865
 1997W        W 2994   2.578   2.307   0.470  0.1876  0.2177  0.1786
 1998W        W 2995   5.607   1.969   0.520 -0.2969 -0.0661 -0.1752
 1999W        W 2996   0.427   0.543   4.859 -0.3763 -0.0303  0.0542
 2000W        W 2997   6.716   7.567   5.668 -0.0835  0.1115  0.2376
 2001W        W 2998   2.795   1.861   3.657 -0.3185  0.2197  0.0593
 2002W        W 2999   1.529   0.655   5.525 -0.2627 -0.0024 -0.1594
 2003W        W 3000   3.870   6.001   1.210  0.1000  0.1930 -0.2755
 2004W        W 3001   5.368   4.593   2.573  0.1013 -0.0468  0.0033
 2005W        W 3002   2.587   1.390   0.039  0.0896  0.2142  0.1050
 2006W        W 3003   3.638   1.450   5.404  0.0253 -0.0693  0.0383
 2007W        W 3004   2.129   4.347   0.004 -0.1299  0.0925  0.2483
 2008W        W 3005   5.097   3.592   1.700  0.0047 -0.0542 -0.3274
 2009W        W 3006   1.686   5.322   3.325  0.1579 -0.2942  0.2915
 2010W        W 3007   1.119   7.186   0.868 -0.0987  0.0573 -0.0786
 2011W        W 3008   2.172   2.267   7.400 -0.1137 -0.0726 -0.0317
 2012W        W 3009   5.538   4.001   6.032 -0.1864  0.0377 -0.0106
 2013W        W 3010   2.077   4.605   6.056  0.1518  0.1985  0.3322
 2014W        W 3011   5.661   7.609   4.122 -0.0830 -0.0704 -0.2148
 2015W        W 3012   0.354   5.777   4.519 -0.3353  0.1269 -0.1128
 2016W        W 3013   1.602   4.103   7.367  0.3462  0.2066 -0.1384
 2017W        W 3014   3.508   1.701   3.348  0.1260  0.1370 -0.1497
 2018W        W 3015   1.877   5.503   2.840  0.1060  0.2246 -0.0730
 2019W        W 3016   3.554   7.158   2.625 -0.0629 -0.0645  0.2580
 2020W        W 3017   0.043   6.724   0.623  0.1782 -0.1516  0.3600
 2021W        W 3018   7.198   4.938   3.007 -0.0784  0.0041 -0.0776
 2022W        W 3019   3.355   4.136   3.137 -0.1353 -0.0360 -0.1710
 2023W        W 3020   6.140   6.887   4.003 -0.2683  0.0933 -0.1760
 2024W        W 3021   4.294   3.078   2.701  0.1039 -0.2898  0.1071
 2025W        W 3022   0.317   3.191   6.099  0.1091 -0.1183 -0.1050
 2026W        W 3023   3.938   5.216   4.694 -0.1143 -0.1277  0.0149
 2027W        W 3024   6.942   3.713   3.054 -0.1310 -0.0472 -0.2933
 2028W        W 3025   3.654   4.459   2.787  0.1999  0.0226  0.0205
 2029W        W 3026   2.973   6.351   3.028  0.3325 -0.1419  0.0366
 2030W        W 3027   1.481   6.934   1.353 -0.0647 -0.2739 -0.0340
 2031W        W 3028   1.209   1.550   7.047 -0.0898  0.2939  0.0361
 2032W        W 3029   6.921   6.190   3.239  0.0471  0.3694 -0.1978
 2033W        W 3030   2.205   0.384   2.976 -0.0063 -0.0480  0.2345
 2034W        W 3031   4.652   5.738   3.844 -0.4285 -0.0547  0.0689
 2035W        W 3032   6.705   4.519   4.761 -0.0274  0.0239 -0.0615
 2036W        W 3033   7.617   6.957   5.377  0.0556 -0.3710  0.1891
 2037W        W 3034   5.916   7.187   3.003 -0.3459  0.2712  0.0011
 2038W        W 3035   2.519   1.816   5.128  0.0199  0.0815 -0.0090
 2039W        W 3036   7.606   0.593   0.375  0.2929 -0.1217  0.0293
 2040W        W 3037   2.125   2.645   4.105 -0.0545  0.0225  0.2371
 2041W        W 3038   2.137   2.719   2.255 -0.3645 -0.0455 -0.0741
 2042W        W 3039   6.173   6.871   0.856  0.3179 -0.1418  0.2248
 2043W        W 3040   0.525   2.195   4.308  0.0978  0.2540 -0.0774
 2044W        W 3041   4.703   2.618   3.634  0.0741  0.1427  0.2474
 2045W        W 3042   2.938   0.365   4.090  0.1695 -0.0326 -0.1671
 2046W        W 3043   7.242   6.823   4.392  0.1362  0.0507 -0.2117
 2047W        W 3044   6.262   0.017   4.218  0.1808 -0.0563 -0.1955
 2048W        W 3045   6.927   2.175   4.334  0.0442  0.2864 -0.0590
 2049W        W 3046   0.545   4.839   0.650  0.2253  0.0518 -0.2991
 2050W        W 3047   5.757   6.553   3.706  0.3204  0.1488  0.0316
 2051W        W 3048   4.559   2.731   0.327 -0.0717  0.1841  0.1355
 2052W        W 3049   7.100   7.448   3.640  0.0833  0.1462 -0.3335
 2053W        W 3050   6.709   1.570   0.852  0.0410 -0.1480  0.2579
 2054W        W 3051   2.339   5.412   4.962  0.0439 -0.1900 -0.3821
 2055W        W 3052   0.885   4.356   4.979  0.3287 -0.3024 -0.2327
 2056W        W 3053   2.744   6.508   1.194  0.1126 -0.2135  0.0804
 2057W        W 3054   3.889   2.064   5.597  0.2727 -0.4306  0.1475
 2058W        W 3055   3.132   5.194   5.612 -0.5462 -0.0887  0.0244
 2059W        W 3056   6.060   1.481   7.565  0.0711  0.2952  0.0200
 2060W        W 3057   0.221   2.158   6.614  0.1206  0.2607  0.1240
 2061W        W 3058   7.038   7.630   0.494  0.0186  0.0682 -0.1028
 2062W        W 3059   3.723   6.747   5.149 -0.0494 -0.0243  0.2349
 2063W        W 3060   5.526   1.342   5.764  0.0899  0.0404  0.1441
 2064W        W 3061   6.194   4.561   1.802  0.1294  0.2547 -0.0850
 2065W        W 3062   7.519   5.783   1.825  0.0004  0.0911 -0.2288
 2066W        W 3063   1.992   5.156   4.734  0.0284  0.1985  0.2198
 2067W        W 3064   4.754   3.701   6.769 -0.0463 -0.1106 -0.2768
 2068W        W 3065   6.418   1.832   0.047 -0.1189  0.1571 -0.0674
 2069W        W 3066   6.331   7.296   6.757 -0.0776 -0.0401 -0.1195
 2070W        W 3067   5.086   3.789   4.317 -0.1683  0.0694  0.1731
 2071W        W 3068   1.988   2.684   1.628 -0.0035 -0.1926 -0.0313
 2072W        W 3069   6.733   0.137   4.451 -0.2088 -0.0102 -0.1625
 2073W        W 3070   6.799   5.433   4.802  0.2635 -0.1267  0.3149
 2074W        W 3071   5.918   2.546   3.651  0.3312  0.0401 -0.1417
 2075W        W 3072   6.596   6.887   3.000 -0.2566  0.0162  0.2690
 2076W        W 3073   4.152   7.133   0.814  0.2052 -0.3091 -0.1557
 2077W        W 3074   1.396   2.790   0.107  0.1447 -0.2674  0.1883
 2078W        W 3075   3.339   0.094   2.058 -0.2830 -0.0446  0.3785
 2079W        W 3076   6.990   0.952   7.434  0.3536 -0.2265  0.1383
 2080W        W 3077   2.208   0.442   0.098 -0.0867  0.1999  0.0181
 2081W        W 3078   4.063   6.139   3.430 -0.2188  0.1547 -0.0853
 2082W        W 3079   1.856   2.306   1.291 -0.0507 -0.0347  0.0085
 2083W        W 3080   1.038   0.968   3.374 -0.0961 -0.2382 -0.2704
 2084W        W 3081   4.041   3.395   4.809  0.1326 -0.3128  0.0243
 2085W        W 3082   2.623   5.080   2.319 -0.2888  0.1525  0.3978
 2086W        W 3083   2.551   5.090   2.948  0.1042  0.3247 -0.0449
 2087W        W 3084   1.814   3.427   6.619 -0.0259  0.0551 -0.0912
 2088W        W 3085   4.535   2.564   4.575  0.0003  0.0576 -0.1361
 2089W        W 3086   6.414   4.091   3.722 -0.0544 -0.1041 -0.1135
 2090W        W 3087   6.466   2.085   7.242  0.2070  0.3959 -0.1120
 2091W        W 3088   3.535   7.375   4.084  0.1417  0.1885  0.1279
 2092W        W 3089   4.460   1.606   1.430 -0.4098  0.2549  0.0940
 2093W        W 3090   0.394   7.279   6.175  0.1813 -0.1624  0.2046
 2094W        W 3091   5.885   2.629   3.113 -0.3177  0.1020 -0.0081
 2095W        W 3092   2.380   1.623   3.733 -0.0256  0.1329 -0.0185
 2096W        W 3093   7.130   3.541   4.869 -0.2395 -0.2369 -0.1080
 2097W        W 3094   5.294   3.202   0.711  0.2259  0.2512 -0.2238
 2098W        W 3095   3.817   5.442   5.170 -0.0848  0.0470  0.1710
 2099W        W 3096   6.296   0.402   1.913 -0.1127  0.3555 -0.0005
 2100W        W 3097   1.198   5.502   1.290  0.0244 -0.2152  0.0592
 2101W        W 3098   3.119   1.618   0.068 -0.0554 -0.2664 -0.0953
 2102W        W 3099   0.473   6.955   0.637 -0.1150  0.0706  0.4078
 2103W        W 3100   3.297   1.484   7.093 -0.1118 -0.0356 -0.0331
 2104W        W 3101   1.455   6.514   4.301  0.0487  0.1421 -0.0118
 2105W        W 3102   3.366   6.499   3.760  0.0622 -0.0674 -0.0291
 2106W        W 3103   0.362   2.594   6.323  0.1378  0.0608 -0.2951
 2107W        W 3104   3.425   6.522   0.628  0.0835  0.2980  0.1038
 2108W        W 3105   5.852   7.525   3.463 -0.0608 -0.0336  0.0994
 2109W        W 3106   0.202   5.573   1.469 -0.0114 -0.2029  0.0217
 2110W        W 3107   7.490   1.674   5.272  0.1112  0.0659 -0.3967
 2111W        W 3108   4.073   1.934   1.269 -0.1227  0.0072  0.0834
 2112W        W 3109   7.516   0.297   3.898 -0.1038 -0.0488 -0.1393
 2113W        W 3110   6.755   3.376   2.691  0.2174  0.0700  0.2001
 2114W        W 3111   4.269   4.010   6.554  0.0153  0.1709 -0.3261
 2115W        W 3112   3.280   4.898   1.623  0.0364  0.0224  0.2241
 2116W        W 3113   3.146   1.749   6.118  0.1844  0.3277  0.0233
 2117W        W 3114   6.806   1.152   4.536  0.1192 -0.0899  0.1406
 2118W        W 3115   4.465   0.991   6.872 -0.1036 -0.1696  0.1860
 2119W        W 3116   5.779   3.274   5.884  0.2196 -0.2561  0.1171
 2120W        W 3117   1.014   6.032   5.429 -0.0942 -0.0006 -0.5045
 2121W        W 3118   5.639   3.693   4.332 -0.0433 -0.1949 -0.1494
 2122W        W 3119   2.555   0.833   2.099 -0.0255  0.2034 -0.4208
 2123W        W 3120   4.571   6.021   2.297 -0.1110 -0.0065 -0.1901
 2124W        W 3121   7.379   1.857   7.062 -0.1275 -0.3150 -0.0535
 2125W        W 3122   7.211   5.157   6.761  0.0436 -0.2472 -0.1193
 2126W        W 3123   1.894   0.181   4.355  0.1901  0.1407  0.4423
 2127W        W 3124   2.458   4.964   0.627  0.0987  0.2580  0.4989
 2128W        W 3125   5.734   2.411   0.800  0.0145 -0.0829 -0.2226
 2129W        W 3126   3.410   6.266   2.344 -0.0780 -0.2593  0.0048
 2130W        W 3127   4.115   5.776   3.027  0.2436  0.0175  0.0103
 2131W        W 3128   3.564   5.597   4.783  0.0159 -0.2159  0.0643
 2132W        W 3129   2.684   4.491   5.331 -0.1576  0.0656  0.0600
 2133W        W 3130   5.287   0.695   2.663  0.2949  0.2288 -0.0944
 2134W        W 3131   4.058   7.046   2.207 -0.1835 -0.2308 -0.3923
 2135W        W 3132   3.521   5.059   2.030 -0.1415  0.0924  0.1216
 2136W        W 3133   2.612   6.862   2.407  0.1254 -0.1926  0.1250
 2137W        W 3134   2.364   5.736   6.000 -0.0473  0.1569 -0.0643
 2138W        W 3135   7.026   7.603   1.428  0.0287  0.1544  0.4044
 2139W        W 3136   1.695   7.353   0.543  0.1556  0.0562 -0.3987
 2140W        W 3137   2.652   1.687   1.502  0.4856 -0.0280 -0.0900
 2141W        W 3138   0.460   7.031   7.300  0.2452 -0.0758 -0.0003
 2142W        W 3139   3.552   2.118   0.121  0.1751 -0.0983  0.0168
 2143W        W 3140   0.738   5.694   6.362 -0.0950  0.0278 -0.0540
 2144W        W 3141   6.805   0.083   3.257  0.0346  0.2710 -0.0179
 2145W        W 3142   0.705   7.440   3.965  0.3591 -0.0810 -0.1714
 2146W        W 3143   5.197   6.777   2.040  0.0004  0.1141 -0.0153
 2147W        W 3144   5.192   0.153   0.354 -0.1241  0.1445 -0.2718
 2148W        W 3145   6.945   5.330   3.183 -0.0773  0.0746 -0.2540
 2149W        W 3146   4.569   0.224   3.033  0.1746  0.0435  0.2381
 2150W        W 3147   1.034   2.659   3.691  0.1328  0.1581  0.4744
 2151W        W 3148   2.452   3.735   5.038  0.1574 -0.2115 -0.1292
 2152W        W 3149   4.170   2.744   6.132 -0.0801  0.0993  0.0528
 2153W        W 3150   7.458   6.567   5.644  0.0154 -0.0512 -0.0009
 2154W        W 3151   3.254   7.595   3.269 -0.1619 -0.1030 -0.1749
 2155W        W 3152   2.402   5.627   3.641  0.0021 -0.3358 -0.4726
 2156W        W 3153   0.678   1.591   7.068  0.0601 -0.2656  0.1520
 2157W        W 3154   4.757   7.470   5.843 -0.1240 -0.2320 -0.2461
 2158W        W 3155   2.885   4.361   0.416  0.1097 -0.3064 -0.1842
 2159W        W 3156   5.094   2.732   1.419 -0.2046 -0.0945 -0.0879
 2160W        W 3157   0.394   6.164   3.712 -0.0552 -0.1065 -0.0221
 2161W        W 3158   0.021   2.228   5.318  0.1718  0.2695 -0.0009
 2162W        W 3159   7.024   0.966   0.261 -0.0220  0.3933  0.0830
 2163W        W 3160   5.845   6.368   3.228  0.1170  0.1855  0.2682
 2164W        W 3161   0.362   3.644   5.877  0.3008  0.1166 -0.0327
 2165W        W 3162   3.426   2.581   3.618 -0.3224 -0.2965  0.0793
 2166W        W 3163   1.096   2.681   4.209 -0.0868  0.0775  0.0416
 2167W        W 3164   7.138   1.531   6.780 -0.0088  0.0122 -0.1613
 2168W        W 3165   1.012   6.309   4.490 -0.0440 -0.0601  0.2984
 2169W        W 3166   2.019   1.484   0.950  0.0029 -0.1299 -0.1989
 2170W        W 3167   7.097   0.299   6.893  0.0041  0.1097  0.0536
 2171W        W 3168   3.433   5.782   1.399 -0.1285  0.2599 -0.1399
 2172W        W 3169   4.027   2.472   2.276 -0.3316 -0.2366 -0.3227
 2173W        W 3170   3.714   1.803   2.883  0.1755  0.1453  0.1256
 2174W        W 3171   0.926   0.436   3.521 -0.3095 -0.0479  0.0148
 2175W        W 3172   6.682   5.439   2.722 -0.0358  0.3436 -0.3827
 2176W        W 3173   7.174   2.001   7.579 -0.0775 -0.1549  0.3007
 2177W        W 3174   0.800   4.424   3.855  0.4727 -0.3286 -0.0492
 2178W        W 3175   7.324   6.511   3.443 -0.1987 -0.1616  0.1786
 2179W        W 3176   3.115   5.518   1.091  0.2278 -0.0204 -0.1402
 2180W        W 3177   4.011   0.046   7.400  0.1683 -0.2031 -0.1437
 2181W        W 3178   7.170   4.099   3.493 -0.1506  0.3145 -0.0585
 2182W        W 3179   1.548   4.955   5.101  0.1284  0.1592  0.1695
 2183W        W 3180   7.509   4.969   2.558  0.1944 -0.0778  0.1182
 2184W        W 3181   5.363   1.277   1.737 -0.0778 -0.1232 -0.2034
 2185W        W 3182   5.158   7.406   0.739  0.2099 -0.1116  0.3129
 2186W        W 3183   7.443   0.777   4.864 -0.0758  0.0497  0.0212
 2187W        W 3184   6.289   6.784   6.914 -0.0083  0.3231 -0.1326
 2188W        W 3185   4.475   6.099   3.158 -0.1611 -0.0135  0.0162
 2189W        W 3186   1.972   0.279   6.558  0.3726 -0.0342  0.1449
 2190W        W 3187   1.131   6.591   3.323 -0.1383 -0.2597  0.2416
 2191W        W 3188   6.928   0.954   4.044  0.3642  0.1781 -0.0727
 2192W        W 3189   2.326   1.121   2.712  0.0582 -0.2706 -0.1004
 2193W        W 3190   2.123   2.967   5.563  0.1063  0.2372 -0.1165
 2194W        W 3191   4.973   7.372   0.187 -0.2776  0.1513  0.0970
 2195W        W 3192   1.624   2.911   0.532 -0.2752  0.1631 -0.1123
 2196W        W 3193   4.569   6.889   1.972  0.0127  0.0021  0.0458
 2197W        W 3194   4.248   1.157   1.574  0.0285 -0.1131  0.0569
 2198W        W 3195   1.722   3.883   5.641 -0.0065 -0.0625 -0.2129
 2199W        W 3196   1.197   0.953   6.923  0.0864  0.0642  0.0963
 2200W        W 3197   2.314   4.752   3.888 -0.2367  0.1461  0.2479
 2201W        W 3198   3.439   3.780   4.933 -0.1118 -0.1695 -0.1132
 2202W        W 3199   1.444   7.390   4.525 -0.0908  0.0582 -0.1951
 2203W        W 3200   7.138   6.886   1.565  0.5167 -0.0758  0.1669
 2204W        W 3201   2.406   2.908   5.983 -0.1000  0.2214 -0.0561
 2205W        W 3202   3.001   3.179   6.764  0.0512  0.1824 -0.2676
 2206W        W 3203   4.734   4.124   4.941  0.2290  0.0027  0.1221
 2207W        W 3204   3.538   7.306   1.263  0.0766 -0.0612 -0.0006
 2208W        W 3205   6.298   6.661   7.523 -0.0587 -0.2167 -0.1093
 2209W        W 3206   3.808   1.228   2.697 -0.3037 -0.0047  0.2233
 2210W        W 3207   7.354   0.077   6.508 -0.1473  0.3086 -0.0678
 2211W        W 3208   6.712   1.394   4.093  0.0948 -0.0559  0.0823
 2212W        W 3209   4.172   5.224   4.276  0.1752 -0.0069 -0.0725
 2213W        W 3210   0.006   7.480   3.540 -0.1509  0.0841  0.0388
 2214W        W 3211   5.701   0.474   7.279  0.3416  0.0994  0.1953
 2215W        W 3212   5.642   2.454   6.101  0.3117 -0.1104 -0.0517
 2216W        W 3213   6.575   0.777   0.065  0.3045  0.2105  0.3132
 2217W        W 3214   4.999   3.251   6.331  0.2852  0.0703 -0.2605
 2218W        W 3215   0.929   7.538   4.464  0.0634 -0.0024 -0.0283
 2219W        W 3216   4.477   5.938   4.297  0.1121  0.4320  0.1108
 2220W        W 3217   2.767   1.295   3.746  0.0470  0.1051 -0.0327
 2221W        W 3218   1.695   0.125   4.776 -0.1108 -0.2196 -0.2125
 2222W        W 3219   7.308   2.997   7.262 -0.0359 -0.1139 -0.1241
 2223W        W 3220   5.434   1.491   0.211  0.1068  0.1281  0.2863
 2224W        W 3221   0.293   5.383   0.929  0.1728 -0.0442  0.0099
 2225W        W 3222   7.622   6.979   2.675  0.0922  0.2348 -0.0321
 2226W        W 3223   5.699   6.601   5.437  0.0637  0.3966  0.0305
 2227W        W 3224   4.084   0.104   4.630 -0.1735  0.1568  0.0406
 2228W        W 3225   3.152   1.000   0.676 -0.2418 -0.4087 -0.1810
 2229W        W 3226   6.045   1.600   0.985  0.0645  0.3268  0.1942
 2230W        W 3227   4.308   7.217   4.685 -0.0791 -0.0735  0.1638
 2231W        W 3228   2.551   3.955   0.338  0.1995 -0.0719 -0.0205
 2232W        W 3229   4.333   4.279   4.717  0.1402  0.1741  0.4792
 2233W        W 3230   2.957   5.481   4.964 -0.1820  0.1911  0.3138
 2234W        W 3231   5.270   5.440   3.484  0.1807  0.1244  0.0074
 2235W        W 3232   6.311   5.372   3.176 -0.2577  0.2078  0.2165
 2236W        W 3233   1.149   6.809   4.536 -0.2236  0.2324  0.0611
 2237W        W 3234   4.371   1.956   1.782 -0.0129 -0.0460 -0.0711
 2238W        W 3235   7.101   5.084   4.573  0.2084 -0.1920  0.0928
 2239W        W 3236   5.766   2.014   1.142  0.0272  0.2962  0.0827
 2240W        W 3237   1.727   1.107   0.110  0.0197 -0.1143  0.2199
 2241W        W 3238   5.530   3.007   3.517 -0.1798  0.3044  0.2249
 2242W        W 3239   2.179   5.737   4.099  0.3627  0.2990 -0.1426
 2243W        W 3240   2.602   7.574   0.910 -0.1306  0.1046 -0.0225
 2244W        W 3241   5.804   4.353   5.308 -0.1929  0.0512  0.0700
 2245W        W 3242   0.503   4.841   2.434  0.0018 -0.0751 -0.4368
 2246W        W 3243   3.076   2.509   2.831 -0.2309 -0.0882 -0.0957
 2247W        W 3244   6.727   0.111   2.717 -0.1298 -0.1038 -0.3638
 2248W        W 3245   4.821   3.168   6.838 -0.0088  0.0068 -0.1610
 2249W        W 3246   1.619   7.468   1.676 -0.2729  0.1063 -0.0645
 2250W        W 3247   1.708   7.514   3.966  0.2672  0.0645 -0.1381
 2251W        W 3248   0.304   1.886   4.963  0.1189 -0.0584  0.0497
 2252W        W 3249   5.486   6.232   2.930  0.0324  0.0254 -0.2122
 2253W        W 3250   7.103   2.851   0.125 -0.1969  0.1160  0.0237
 2254W        W 3251   1.752   3.130   0.042 -0.1465 -0.1619 -0.1199
 2255W        W 3252   3.238   3.347   0.869  0.3711  0.0253  0.0067
 2256W        W 3253   0.868   2.729   5.530 -0.2594 -0.2322 -0.0783
 2257W        W 3254   4.254   5.654   5.223 -0.1469  0.1623 -0.5152
 2258W        W 3255   7.497   7.016   3.983 -0.0081 -0.1405 -0.2888
 2259W        W 3256   7.038   4.620   4.331  0.1470 -0.2179 -0.2826
 2260W        W 3257   3.105   5.040   2.787 -0.0477  0.0984  0.1595
 2261W        W 3258   3.085   4.494   4.279 -0.0355  0.0655  0.0142
 2262W        W 3259   6.106   4.944   3.570 -0.0430 -0.1550 -0.0103
 2263W        W 3260   0.280   7.358   0.474 -0.1696  0.1032  0.2300
 2264W        W 3261   4.203   5.630   2.006 -0.1933  0.0456  0.0092
 2265W        W 3262   0.146   0.292   6.541 -0.2914 -0.1600 -0.0244
 2266W        W 3263   3.132   1.540   1.818 -0.0700 -0.0304 -0.0583
 2267W        W 3264   5.111   7.466   4.996  0.2022 -0.2027  0.0869
 2268W        W 3265   2.284   5.889   6.509  0.0463 -0.1331  0.1286
 2269W        W 3266   2.977   0.543   2.723  0.0459  0.0315 -0.2641
 2270W        W 3267   4.690   2.863   5.708  0.2135  0.3468 -0.1147
 2271W        W 3268   6.922   0.428   7.387 -0.1365 -0.1180  0.0503
 2272W        W 3269   4.718   3.203   0.569 -0.0401  0.2593 -0.1571
 2273W        W 3270   2.976   6.271   3.556 -0.0681  0.1157 -0.0592
 2274W        W 3271   2.446   0.990   4.418  0.0459  0.4156  0.0921
 2275W        W 3272   7.590   3.473   6.299 -0.0581 -0.0839  0.0950
 2276W        W 3273   2.808   4.751   3.748 -0.0353  0.1415 -0.2517
 2277W        W 3274   6.404   7.506   3.555 -0.0961 -0.4193  0.2320
 2278W        W 3275   2.421   4.420   7.215 -0.1255 -0.3831  0.1280
 2279W        W 3276   2.222   1.189   6.493  0.0587 -0.2131  0.2291
 2280W        W 3277   7.155   7.304   6.817  0.0079 -0.1893 -0.2223
 2281W        W 3278   0.295   0.562   3.903 -0.1260 -0.0855 -0.1028
 2282W        W 3279   7.244   2.488   4.108 -0.0476 -0.1570  0.0621
 2283W        W 3280   4.883   1.723   4.124  0.1815 -0.0280  0.0041
 2284W        W 3281   3.463   0.539   1.822  0.0878  0.0609  0.0597
 2285W        W 3282   5.949   1.757   2.004 -0.2434 -0.2662 -0.1358
 2286W        W 3283   7.492   7.159   3.123  0.0032 -0.3875  0.2726
 2287W        W 3284   6.740   6.287   4.331 -0.3691 -0.0912 -0.0595
 2288W        W 3285   4.910   1.128   6.992 -0.0640  0.2053 -0.1193
 2289W        W 3286   1.025   5.084   2.485 -0.0430 -0.0546  0.0011
 2290W        W 3287   2.649   7.612   5.154  0.2189  0.2086  0.0079
 2291W        W 3288   0.698   1.070   2.908  0.1067  0.1858  0.0717
 2292W        W 3289   6.221   2.302   0.114 -0.1668  0.0259  0.0814
 2293W        W 3290   3.516   2.725   4.851 -0.1744 -0.1171  0.1793
 2294W        W 3291   4.723   1.113   1.284  0.1813 -0.0961 -0.3840
 2295W        W 3292   3.049   4.415   3.461 -0.0406 -0.1995 -0.0012
 2296W        W 3293   0.228   4.230   0.254 -0.1277 -0.1324  0.1229
 2297W        W 3294   1.233   4.648   7.089 -0.0876  0.1781  0.1120
 2298W        W 3295   0.746   0.987   6.251 -0.1128  0.1472  0.0806
 2299W        W 3296   3.155   5.303   2.274 -0.1143  0.3777 -0.3290
 2300W        W 3297   5.192   1.817   3.676  0.0163 -0.3105 -0.0482
 2301W        W 3298   2.780   3.200   4.475  0.0667  0.0697  0.3088
 2302W        W 3299   0.293   7.345   2.472  0.1509  0.4689  0.1442
 2303W        W 3300   6.709   3.358   4.610 -0.2544 -0.2149  0.0735
 2304W        W 3301   4.638   1.548   3.225  0.0594  0.0300  0.1473
 2305W        W 3302   6.951   0.810   2.648  0.1798 -0.2078 -0.1254
 2306W        W 3303   3.846   3.040   2.139 -0.0221 -0.0849 -0.1200
 2307W        W 3304   1.782   5.447   1.802  0.0954 -0.1116 -0.0397
 2308W        W 3305   3.737   7.512   5.743  0.0387  0.0304 -0.1642
 2309W        W 3306   0.913   4.896   4.775  0.0082  0.2548 -0.4196
 2310W        W 3307   1.479   5.681   6.010  0.1300 -0.0455  0.2462
 2311W        W 3308   3.418   1.233   7.559  0.2158 -0.1531  0.0093
 2312W        W 3309   1.847   6.560   6.211 -0.4927 -0.2718  0.0393
 2313W        W 3310   7.300   3.988   2.447 -0.0167 -0.1440  0.0615
 2314W        W 3311   4.076   0.854   3.544  0.2203 -0.1437 -0.0881
 2315W        W 3312   3.199   5.422   3.979 -0.0337 -0.2300  0.0745
 2316W        W 3313   0.533   5.086   2.883 -0.0907  0.2442  0.1954
 2317W        W 3314   0.425   2.230   5.613 -0.0168  0.0418  0.1192
 2318W        W 3315   5.475   2.439   4.552  0.2211 -0.1502  0.1890
 2319W        W 3316   3.431   0.505   5.233  0.0255  0.3534  0.0269
 2320W        W 3317   3.332   2.280   5.013 -0.0589 -0.1616 -0.1933
 2321W        W 3318   3.231   4.067   0.692 -0.0262  0.0597 -0.0204
 2322W        W 3319   1.753   1.831   1.167 -0.0266  0.0734  0.3783
 2323W        W 3320   2.939   4.254   1.702  0.3761  0.0135 -0.0638
 2324W        W 3321   3.221   2.939   7.165 -0.0550  0.0268  0.5390
 2325W        W 3322   6.530   7.240   0.752 -0.1767  0.1780 -0.2341
 2326W        W 3323   5.989   0.225   3.843  0.0925 -0.1681  0.0058
 2327W        W 3324   0.623   2.074   6.878  0.1650  0.1410 -0.1364
 2328W        W 3325   3.098   5.779   3.114 -0.3444  0.1246  0.0526
 2329W        W 3326   4.268   6.686   3.658 -0.2134  0.0592 -0.0017
 2330W        W 3327   6.342   1.009   1.851  0.3640 -0.0681  0.0363
 2331W        W 3328   5.100   7.101   3.986 -0.0764  0.2541  0.0760
 2332W        W 3329   6.387   6.301   0.177 -0.0462 -0.2836  0.1212
 2333W        W 3330   7.403   5.413   3.747  0.4171 -0.2607  0.0179
 2334W        W 3331   2.803   4.573   4.728  0.0349 -0.0438  0.0487
 2335W        W 3332   3.508   7.236   7.055  0.1190  0.0323  0.1612
 2336W        W 3333   1.240   2.244   3.925  0.0813 -0.2054 -0.0316
 2337W        W 3334   0.420   6.484   0.304  0.3284  0.1604  0.0414
 2338W        W 3335   4.820   0.136   7.629  0.1292  0.0954  0.0237
 2339W        W 3336   0.565   6.789   4.557 -0.1541  0.1349  0.0846
 2340W        W 3337   4.767   2.087   0.569 -0.0114  0.2054 -0.0108
 2341W        W 3338   5.985   2.672   4.297 -0.0435 -0.1238 -0.0802
 2342W        W 3339   2.143   3.166   0.727  0.2499  0.2560  0.0430
 2343W        W 3340   3.420   7.252   0.299 -0.2568  0.1244  0.1859
 2344W        W 3341   6.682   4.068   3.244 -0.1389 -0.1266  0.1590
 2345W        W 3342   6.373   5.887   5.778  0.0730  0.0428 -0.1352
 2346W        W 3343   4.600   6.331   1.406 -0.0126  0.3892  0.0105
 2347W        W 3344   1.865   7.472   2.200 -0.0239 -0.2307 -0.0073
 2348W        W 3345   4.891   1.402   6.086 -0.2421 -0.1001 -0.1429
 2349W        W 3346   0.459   4.389   7.502 -0.0135 -0.4009  0.3501
 2350W        W 3347   5.451   0.447   6.275  0.0167  0.3552 -0.0424
 2351W        W 3348   0.269   2.097   6.091 -0.2883 -0.1691  0.0875
 2352W        W 3349   5.180   3.405   3.555 -0.2739  0.1274 -0.0565
 2353W        W 3350   7.535   3.595   5.245 -0.1489  0.2730 -0.2020
 2354W        W 3351   5.188   3.814   3.298 -0.2626  0.0264 -0.0007
 2355W        W 3352   3.290   1.288   2.668 -0.0925 -0.1199  0.1254
 2356W        W 3353   2.045   5.893   5.090  0.0367 -0.0574  0.0048
 2357W        W 3354   3.582   1.300   0.797  0.1811  0.2471  0.3507
 2358W        W 3355   0.068   5.587   5.802  0.1130 -0.0454 -0.1493
 2359W        W 3356   2.111   0.008   5.331  0.1713 -0.0464  0.0603
 2360W        W 3357   1.371   0.656   4.630 -0.0272 -0.0051  0.1460
 2361W        W 3358   2.469   0.703   5.624  0.1468  0.2538  0.0767
 2362W        W 3359   1.640   5.201   1.307  0.2167 -0.0129  0.3205
 2363W        W 3360   7.369   7.134   0.598 -0.0534 -0.0328  0.1040
 2364W        W 3361   0.103   5.358   4.596 -0.2355 -0.1567  0.0557
 2365W        W 3362   6.291   1.822   4.907 -0.2097 -0.0527  0.0237
 2366W        W 3363   5.654   4.437   5.830 -0.2526 -0.0261  0.1895
 2367W        W 3364   6.779   3.106   5.642 -0.0664 -0.1781 -0.0662
 2368W        W 3365   6.489   1.888   1.827 -0.0918 -0.0517  0.3995
 2369W        W 3366   4.185   5.147   3.303 -0.1092 -0.2824  0.4321
 2370W        W 3367   4.925   3.146   4.866  0.3792 -0.1562 -0.2692
 2371W        W 3368   4.855   6.509   5.662  0.0854 -0.0987  0.2659
 2372W        W 3369   2.819   6.128   4.262 -0.0655  0.1432 -0.0237
 2373W        W 3370   1.944   6.393   4.562  0.1716  0.0193  0.0218
 2374W        W 3371   5.370   7.060   4.994 -0.0345 -0.0744  0.2400
 2375W        W 3372   2.812   7.079   1.008 -0.1288 -0.3230 -0.0945
 2376W        W 3373   3.213   7.025   0.709 -0.2253  0.2064 -0.1493
 2377W        W 3374   4.211   1.542   4.472 -0.0514  0.2604 -0.1532
 2378W        W 3375   1.510   1.959   6.755 -0.0226 -0.1082  0.2038
 2379W        W 3376   4.230   0.914   2.684 -0.1376 -0.1975  0.2598
 2380W        W 3377   5.816   0.455   3.329 -0.0872 -0.0682 -0.1909
 2381W        W 3378   7.183   0.455   1.620 -0.0582 -0.0575 -0.0790
 2382W        W 3379   3.976   2.114   6.848 -0.2398 -0.0457 -0.1341
 2383W        W 3380   5.498   2.913   1.161 -0.1163 -0.0492 -0.0388
 2384W        W 3381   5.510   1.448   2.238  0.2410 -0.0660 -0.1894
 2385W        W 3382   6.450   5.317   1.704  0.2525 -0.1432  0.0370
 2386W        W 3383   0.372   7.573   5.007 -0.2176 -0.2055  0.0136
 2387W        W 3384   5.840   6.056   0.248  0.0944  0.1266  0.0800
 2388W        W 3385   5.197   5.826   1.734  0.1532 -0.3254  0.1419
 2389W        W 3386   4.098   3.480   7.564 -0.0230 -0.2962 -0.2380
 2390W        W 3387   2.381   7.337   3.237  0.0552 -0.0746 -0.0937
 2391W        W 3388   4.874   3.689   3.878  0.0701  0.3478  0.2839
 2392W        W 3389   6.397   5.686   1.372 -0.4094 -0.2370 -0.2672
 2393W        W 3390   2.984   2.444   3.436  0.1494  0.0561 -0.2614
 2394W        W 3391   3.027   1.147   4.166 -0.0516  0.0027 -0.2057
 2395W        W 3392   1.365   4.951   3.621  0.4099 -0.4441 -0.3041
 2396W        W 3393   1.802   3.365   4.948 -0.2640 -0.1444  0.1105
 2397W        W 3394   3.214   0.374   4.675 -0.1611  0.1010  0.0651
 2398W        W 3395   2.309   1.223   5.757  0.1357 -0.1202 -0.1562
 2399W        W 3396   1.699   0.180   6.009 -0.3938  0.2201 -0.0060
 2400W        W 3397   4.841   0.943   5.307  0.1013 -0.1092  0.1469
 2401W        W 3398   3.466   7.197   4.600  0.0999  0.3902 -0.2302
 2402W        W 3399   6.226   6.652   4.456 -0.2316 -0.0960  0.1335
 2403W        W 3400   6.791   0.571   3.192  0.2273  0.2337 -0.0749
 2404W        W 3401   6.241   6.590   1.665 -0.1020  0.3173 -0.3372
 2405W        W 3402   5.284   1.444   3.998 -0.1420  0.2960 -0.2758
 2406W        W 3403   1.424   4.494   3.888  0.1716  0.0230  0.0161
 2407W        W 3404   2.631   1.540   2.539  0.2093  0.2582  0.0277
 2408W        W 3405   3.968   1.825   3.521 -0.3497 -0.0762  0.0890
 2409W        W 3406   3.949   1.302   7.615 -0.2308  0.0924  0.1981
 2410W        W 3407   1.653   7.272   1.034  0.2365 -0.2648  0.4099
 2411W        W 3408   1.230   6.003   0.042 -0.0526  0.0244 -0.0224
 2412W        W 3409   0.369   6.487   2.883  0.1757 -0.1339  0.0488
 2413W        W 3410   1.407   3.826   6.386  0.0065  0.0492  0.0443
 2414W        W 3411   3.139   6.801   5.481 -0.2294  0.0872  0.2491
 2415W        W 3412   3.537   1.514   4.348 -0.1996 -0.0310  0.0086
 2416W        W 3413   2.258   6.393   0.864 -0.0457 -0.2738 -0.0162
 2417W        W 3414   0.365   1.014   4.707  0.3545 -0.1472 -0.0814
 2418W        W 3415   6.842   5.243   6.409  0.1831 -0.0715 -0.0526
 2419W        W 3416   5.987   0.341   5.121 -0.0892 -0.2313 -0.1987
 2420W        W 3417   3.639   1.166   6.891  0.0929  0.2059 -0.1999
 2421W        W 3418   3.025   2.157   5.864  0.3680 -0.3683 -0.0360
 2422W        W 3419   5.301   3.559   5.094 -0.1442  0.0807 -0.3424
 2423W        W 3420   3.093   2.169   6.349 -0.1373 -0.1364 -0.4644
 2424W        W 3421   0.640   6.599   6.905 -0.1011  0.0572  0.0220
 2425W        W 3422   1.651   4.024   3.737  0.1432  0.1099  0.1801
 2426W        W 3423   4.186   1.546   2.563  0.1068 -0.0481 -0.0333
 2427W        W 3424   6.408   1.531   7.194  0.0937 -0.1890 -0.1723
 2428W        W 3425   2.626   6.176   7.579  0.1286 -0.2436 -0.1976
 2429W        W 3426   2.019   3.403   5.383  0.1931 -0.1764 -0.0876
 2430W        W 3427   5.647   6.843   0.558 -0.0425  0.2006  0.0334
 2431W        W 3428   0.209   3.156   5.379  0.2072  0.3543  0.0561
 2432W        W 3429   2.557   7.516   4.325 -0.2605  0.1556  0.1240
 2433W        W 3430   6.519   3.649   3.515  0.1043 -0.4545  0.1161
 2434W        W 3431   3.268   5.414   1.710 -0.5103  0.1610  0.4370
 2435W        W 3432   4.926   6.203   5.191 -0.1024  0.1343 -0.1343
 2436W        W 3433   3.270   6.063   4.025 -0.2628 -0.0163  0.2855
 2437W        W 3434   2.642   1.313   2.061 -0.2935  0.1368 -0.2731
 2438W        W 3435   2.876   6.468   2.535 -0.2213 -0.2781 -0.0470
 2439W        W 3436   5.388   6.494   4.998  0.0922  0.3399  0.0065
 2440W        W 3437   5.165   1.721   0.561 -0.0340 -0.2028  0.2105
 2441W        W 3438   5.220   4.536   3.847 -0.0655 -0.1573  0.3949
 2442W        W 3439   7.578   5.880   7.055 -0.0959 -0.1375 -0.0824
 2443W        W 3440   6.333   2.669   3.975 -0.0001 -0.3081  0.2912
 2444W        W 3441   0.501   4.882   6.743  0.2157  0.2959 -0.3234
 2445W        W 3442   0.090   7.017   5.892 -0.1259 -0.0822  0.0506
 2446W        W 3443   7.016   1.638   4.517 -0.0147  0.0652 -0.0402
 2447W        W 3444   4.022   1.384   4.032  0.1613  0.1335 -0.0477
 2448W        W 3445   3.909   7.334   4.385  0.0416 -0.0060  0.1206
 2449W        W 3446   5.650   5.767   2.116  0.1910  0.0187 -0.2667
 2450W        W 3447   7.028   6.580   2.959  0.2016 -0.0362  0.1386
 2451W        W 3448   2.679   1.466   6.075  0.0460 -0.0328 -0.0266
 2452W        W 3449   7.081   5.995   1.922  0.3746 -0.0718 -0.0220
 2453W        W 3450   4.536   1.362   4.133  0.4028 -0.3197 -0.1110
 2454W        W 3451   3.572   7.166   6.098  0.3506  0.1141  0.0412
 2455W        W 3452   1.628   6.383   3.848  0.1063 -0.0585  0.2883
 2456W        W 3453   0.359   6.024   6.045  0.0838  0.0366 -0.3417
 2457W        W 3454   4.421   4.706   1.975  0.0571 -0.0480 -0.3363
 2458W        W 3455   5.107   0.336   2.376  0.0154 -0.0500  0.1542
 2459W        W 3456   7.339   3.044   3.327 -0.0584  0.1220  0.0021
 2460W        W 3457   4.922   1.450   1.626  0.2262 -0.2531  0.3371
 2461W        W 3458   0.995   4.729   6.141  0.0159 -0.2224  0.0409
 2462W        W 3459   5.085   2.175   5.462  0.0489  0.2459  0.1253
 2463W        W 3460   4.677   1.939   3.554 -0.1811  0.1006 -0.1325
 2464W        W 3461   0.305   3.208   4.335  0.1622 -0.5094 -0.3728
 2465W        W 3462   0.974   0.697   4.936  0.0606 -0.2067  0.0976
 2466W        W 3463   0.628   6.538   4.004  0.1703 -0.3009  0.1226
 2467W        W 3464   4.395   1.447   6.199 -0.1796  0.2093 -0.0183
 2468W        W 3465   3.793   6.178   3.050 -0.0743 -0.1821  0.5067
 2469W        W 3466   2.600   2.431   6.081  0.2444 -0.1832  0.0485
 2470W        W 3467   2.424   7.177   4.023 -0.1402 -0.1303 -0.0841
 2471W        W 3468   7.475   3.947   6.537  0.1724 -0.0768 -0.2140
 2472W        W 3469   1.201   0.794   2.385 -0.2776 -0.1809 -0.1272
 2473W        W 3470   6.613   0.133   6.956 -0.0608 -0.1474  0.1921
 2474W        W 3471   5.001   7.284   6.785 -0.1154  0.0801 -0.0626
 2475W        W 3472   1.368   6.898   6.493 -0.0780  0.1468 -0.0763
 2476W        W 3473   0.549   3.017   6.608 -0.1393 -0.0452 -0.0764
 2477W        W 3474   1.638   5.227   0.339  0.2578 -0.0173 -0.3050
 2478W        W 3475   7.330   4.621   5.270 -0.0591 -0.1466  0.0600
 2479W        W 3476   7.465   3.959   7.020  0.1609  0.0499  0.0819
 2480W        W 3477   3.957   4.364   4.413  0.3103 -0.3116  0.5009
 2481W        W 3478   2.229   5.294   2.054  0.0414 -0.0236  0.0567
 2482W        W 3479   2.758   4.809   5.880 -0.1372 -0.0482 -0.0338
 2483W        W 3480   1.164   6.155   2.185  0.1014 -0.2164  0.1014
 2484W        W 3481   3.187   5.302   3.248 -0.2377  0.2140  0.3458
 2485W        W 3482   2.341   0.295   1.965  0.1950 -0.1212  0.3460
 2486W        W 3483   1.573   4.306   5.328 -0.2198 -0.0867  0.0317
 2487W        W 3484   3.331   3.354   1.662 -0.0309  0.2828  0.4598
 2488W        W 3485   2.200   3.998   6.022 -0.0903 -0.0781 -0.1390
 2489W        W 3486   3.433   0.404   6.248  0.3347  0.2612  0.0254
 2490W        W 3487   6.332   1.129   6.853 -0.0506 -0.2061  0.0041
 2491W        W 3488   1.685   1.771   5.843 -0.0461  0.2572 -0.2761
 2492W        W 3489   2.445   4.952   5.116  0.0956 -0.2313  0.0232
 2493W        W 3490   3.080   4.646   1.241 -0.0010  0.1824  0.1174
 2494W        W 3491   2.652   1.426   4.264 -0.1120 -0.2360  0.0871
 2495W        W 3492   7.567   1.417   5.680 -0.1453 -0.0698 -0.3540
 2496W        W 3493   0.162   6.398   5.271  0.0313  0.0848 -0.2675
 2497W        W 3494   6.936   7.299   2.857 -0.0947  0.0912  0.0809
 2498W        W 3495   1.585   6.789   3.550  0.0232  0.1911 -0.1444
 2499W        W 3496   0.272   5.510   5.020  0.3318  0.1737 -0.1306
 2500W        W 3497   1.670   6.326   0.767  0.0164 -0.0333 -0.0446
 2501W        W 3498   4.550   0.598   0.082  0.0412  0.0573 -0.0649
 2502W        W 3499   5.312   3.018   6.690  0.0118  0.3013  0.1200
 2503W        W 3500   0.792   5.265   6.978 -0.3729  0.1577 -0.0842
 2504W        W 3501   4.106   4.657   3.231 -0.1324  0.2899  0.0467
 2505W        W 3502   0.524   4.971   4.315 -0.2718  0.0663  0.2949
 2506W        W 3503   5.853   5.591   1.098  0.0212  0.0453 -0.1287
 2507W        W 3504   0.135   0.216   7.436  0.0570  0.1325 -0.1140
 2508W        W 3505   2.340   6.459   4.922  0.1493 -0.0873 -0.1821
 2509W        W 3506   4.130   1.712   7.184 -0.2777 -0.0915  0.0634
 2510W        W 3507   7.354   3.285   0.178  0.1438  0.0906  0.0506
 2511W        W 3508   7.082   1.173   6.313 -0.0439  0.3896 -0.1103
 2512W        W 3509   0.467   6.570   7.444  0.2102  0.1325 -0.1517
 2513W        W 3510   1.139   4.080   7.059 -0.0091 -0.1820  0.0135
 2514W        W 3511   6.895   7.131   0.421  0.1887  0.1285  0.1232
 2515W        W 3512   2.900   4.234   2.959  0.1881 -0.0296 -0.0318
 2516W        W 3513   3.385   2.818   5.824 -0.0434 -0.1180  0.0855
 2517W        W 3514   2.156   2.073   5.851  0.2637  0.1330 -0.0754
 2518W        W 3515   6.706   6.824   7.188  0.1159  0.0203 -0.2423
 2519W        W 3516   0.092   3.958   5.494 -0.1403 -0.2950 -0.1609
 2520W        W 3517   4.137   3.673   5.593  0.1399 -0.0004 -0.1007
 2521W        W 3518   3.792   6.679   6.141 -0.0423 -0.2536 -0.0495
 2522W        W 3519   2.938   6.851   3.638 -0.1747  0.0301 -0.1724
 2523W        W 3520   7.346   7.300   5.647 -0.0985  0.2698  0.0567
 2524W        W 3521   4.701   6.288   4.600  0.2620  0.3730  0.0676
 2525W        W 3522   3.572   5.719   3.067  0.0897 -0.1813  0.0304
 2526W        W 3523   4.125   6.292   4.547 -0.1292 -0.0258  0.1304
 2527W        W 3524   0.775   0.986   0.016  0.0435 -0.3164 -0.0994
 2528W        W 3525   5.077   7.000   2.935 -0.0057 -0.1972 -0.0147
 2529W        W 3526   3.978   7.396   6.845 -0.2646 -0.0435  0.1067
 2530W        W 3527   3.562   3.819   1.457 -0.1109 -0.0593 -0.0701
 2531W        W 3528   2.923   6.628   4.617 -0.1673  0.1013 -0.2141
 2532W        W 3529   2.235   0.355   6.133 -0.0605  0.2768 -0.1798
 2533W        W 3530   1.753   4.956   1.745 -0.2987  0.1127  0.1122
 2534W        W 3531   7.276   4.841   0.991  0.2010 -0.2761  0.1972
 2535W        W 3532   0.520   6.892   2.590  0.1408  0.0462  0.0128
 2536W        W 3533   5.503   3.043   3.028  0.4958 -0.2538  0.0162
 2537W        W 3534   1.544   6.757   3.036 -0.0337  0.0151 -0.0760
 2538W        W 3535   0.188   6.642   2.266  0.0191  0.0517 -0.0704
 2539W        W 3536   2.703   1.250   0.745 -0.1447  0.1298 -0.2531
 2540W        W 3537   7.297   3.804   4.489 -0.0706  0.1020 -0.0245
 2541W        W 3538   2.094   7.528   2.895 -0.2045 -0.2108  0.2648
 2542W        W 3539   6.356   0.715   0.556  0.3697  0.0668  0.0784
 2543W        W 3540   3.747   3.226   0.336  0.1341  0.0006 -0.2655
 2544W        W 3541   0.211   2.829   3.919 -0.0473  0.0232  0.3120
 2545W        W 3542   3.231   2.791   6.540  0.0937 -0.1358 -0.0282
 2546W        W 3543   1.732   6.087   4.258  0.1885 -0.5319 -0.0851
 2547W        W 3544   4.600   1.051   3.423 -0.0048 -0.0245  0.2027
 2548W        W 3545   3.903   7.210   7.318  0.2510  0.0372  0.2654
 2549W        W 3546   5.990   1.873   6.366 -0.1626 -0.1281 -0.0389
 2550W        W 3547   0.266   6.539   6.553  0.1660 -0.0771  0.4005
 2551W        W 3548   5.839   7.346   5.665 -0.0790  0.2077  0.1068
 2552W        W 3549   3.635   2.573   1.918 -0.3143  0.2098  0.0922
 2553W        W 3550   3.603   0.171   6.710 -0.0324 -0.1334  0.1488
 2554W        W 3551   0.036   0.864   3.550 -0.1331  0.2009  0.2893
 2555W        W 3552   2.573   3.480   3.584  0.2696 -0.1214 -0.2011
 2556W        W 3553   3.229   4.559   2.432  0.1368 -0.0138  0.4604
 2557W        W 3554   1.364   1.863   0.254 -0.1657 -0.2184 -0.1525
 2558W        W 3555   3.099   1.694   3.985  0.3697 -0.0740  0.0652
 2559W        W 3556   0.494   0.250   6.908 -0.0764  0.0131 -0.1000
 2560W        W 3557   1.889   5.278   4.282 -0.2308  0.1090  0.0474
 2561W        W 3558   6.003   1.895   7.297 -0.0158 -0.2897 -0.2057
 2562W        W 3559   7.541   0.089   1.686 -0.1156 -0.0133  0.1278
 2563W        W 3560   4.845   4.656   1.709 -0.0790 -0.2571 -0.0725
 2564W        W 3561   0.287   5.511   7.294  0.0692  0.0441 -0.2280
 2565W        W 3562   7.131   0.162   2.045  0.2747 -0.2218 -0.1123
 2566W        W 3563   6.242   1.126   0.265  0.0474  0.1181  0.1080
 2567W        W 3564   6.249   7.300   6.248  0.3583  0.1192 -0.0917
 2568W        W 3565   5.750   7.380   4.800 -0.0387 -0.0692  0.1058
 2569W        W 3566   6.485   0.824   1.379  0.1858  0.1468  0.1533
 2570W        W 3567   0.468   3.737   0.295  0.0273 -0.0038  0.0934
 2571W        W 3568   7.527   4.652   1.912  0.4611  0.0859  0.2263
 2572W        W 3569   0.930   7.149   4.826 -0.1222 -0.3193 -0.0606
 2573W        W 3570   5.700   5.666   5.080 -0.0065 -0.0955  0.1149
 2574W        W 3571   5.485   3.641   5.593 -0.2619 -0.2671  0.1741
 2575W        W 3572   2.643   2.488   7.622  0.0577 -0.0792 -0.3516
 2576W        W 3573   3.619   1.995   1.360 -0.5443  0.0380  0.5245
 2577W        W 3574   1.430   1.767   0.832  0.2364  0.0903  0.4734
 2578W        W 3575   2.134   7.461   3.660  0.2265  0.0019 -0.1012
 2579W        W 3576   4.289   6.931   3.263 -0.0360 -0.1368  0.2446
 2580W        W 3577   3.762   6.886   0.399 -0.0312  0.3500  0.2449
 2581W        W 3578   3.756   0.638   3.940 -0.0376 -0.0710 -0.1516
 2582W        W 3579   0.601   5.251   7.563 -0.0955  0.0132 -0.1055
 2583W        W 3580   0.319   6.631   5.677 -0.3386 -0.0584 -0.1445
 2584W        W 3581   6.692   1.886   6.841  0.3794  0.2826  0.2622
 2585W        W 3582   5.659   3.959   3.294  0.2425 -0.3998  0.2818
 2586W        W 3583   6.446   3.979   5.956  0.3137 -0.1323 -0.2456
 2587W        W 3584   3.915   3.523   2.058 -0.1567 -0.2578 -0.2954
 2588W        W 3585   1.555   3.896   4.728 -0.1428 -0.1688  0.2237
 2589W        W 3586   2.529   5.512   1.171 -0.0925 -0.1862 -0.0719
 2590W        W 3587   5.219   6.549   2.616 -0.2088 -0.1230 -0.0996
 2591W        W 3588   3.432   1.970   0.671  0.1527  0.1454  0.4544
 2592W        W 3589   4.066   7.609   3.248 -0.1008 -0.2283  0.0232
 2593W        W 3590   1.123   3.998   4.459  0.0260 -0.1757  0.1052
 2594W        W 3591   0.783   1.704   3.377  0.0427 -0.0463  0.1156
 2595W        W 3592   0.516   0.186   2.550 -0.2362 -0.0388  0.1530
 2596W        W 3593   3.443   1.360   6.506  0.0030  0.0514  0.2531
 2597W        W 3594   7.437   4.572   3.241 -0.0682  0.0421  0.0813
 2598W        W 3595   4.022   1.765   0.041 -0.2262 -0.2493 -0.1195
 2599W        W 3596   5.851   3.627   2.369 -0.2500  0.0118  0.1892
 2600W        W 3597   6.687   7.632   6.134  0.2318 -0.1917 -0.0454
 2601W        W 3598   5.288   2.065   0.918 -0.1250 -0.0117 -0.2200
 2602W        W 3599   1.284   4.036   3.384 -0.0038 -0.0744  0.1229
 2603W        W 3600   0.581   7.310   3.372 -0.2213 -0.0777  0.2901
 2604W        W 3601   7.542   0.016   0.649 -0.0780  0.0982  0.0334
 2605W        W 3602   2.151   3.878   1.308 -0.0842 -0.2352 -0.2807
 2606W        W 3603   7.438   6.281   4.657 -0.3614 -0.0269  0.1674
 2607W        W 3604   2.025   5.342   0.049  0.4071  0.2282  0.2097
 2608W        W 3605   7.107   2.664   6.914  0.0562 -0.2367 -0.0691
 2609W        W 3606   2.495   2.784   1.700  0.2027  0.0183 -0.0048
 2610W        W 3607   5.301   2.043   4.086 -0.2974 -0.3691 -0.2304
 2611W        W 3608   3.976   0.731   6.833  0.2757  0.1713 -0.0010
 2612W        W 3609   4.754   0.870   4.811  0.4040 -0.1173 -0.0945
 2613W        W 3610   2.961   4.333   5.737 -0.2390  0.0150 -0.0963
 2614W        W 3611   2.580   6.525   7.149 -0.0926 -0.0010 -0.0862
 2615W        W 3612   6.404   4.708   2.547 -0.2593 -0.0067 -0.2207
 2616W        W 3613   1.156   5.567   4.883  0.0057  0.0962  0.3092
 2617W        W 3614   3.240   6.255   4.547  0.0664  0.0406 -0.1359
 2618W        W 3615   0.239   7.084   4.848 -0.0756  0.0092 -0.1831
 2619W        W 3616   1.484   1.552   7.510 -0.0609  0.2791 -0.1112
 2620W        W 3617   6.027   0.839   6.435 -0.3326  0.0884  0.0591
 2621W        W 3618   2.155   7.093   2.361 -0.1109 -0.1373 -0.2277
 2622W        W 3619   6.116   6.293   3.851  0.3042  0.0285 -0.0042
 2623W        W 3620   3.349   3.617   2.773 -0.2974 -0.0405 -0.0084
 2624W        W 3621   4.774   5.303   3.567  0.2317  0.1774  0.1516
 2625W        W 3622   3.371   7.037   3.096  0.1205 -0.2177 -0.1462
 2626W        W 3623   1.820   1.967   7.623 -0.0012 -0.0213 -0.1019
 2627W        W 3624   3.216   6.064   1.793 -0.1008  0.2895 -0.1756
 2628W        W 3625   1.863   0.582   4.657 -0.0290 -0.2310 -0.1887
 2629W        W 3626   0.585   5.181   6.314  0.0987  0.1342 -0.0393
 2630W        W 3627   1.882   0.173   0.431 -0.1581 -0.1908 -0.2595
 2631W        W 3628   5.644   5.072   2.083 -0.0328 -0.0977 -0.0116
 2632W        W 3629   3.607   1.096   4.054  0.1365  0.1519 -0.0121
 2633W        W 3630   6.539   0.294   1.434  0.2242 -0.0916  0.1462
 2634W        W 3631   2.257   6.020   4.523  0.0423  0.2458  0.0166
 2635W        W 3632   6.681   2.297   5.293 -0.0482 -0.3236 -0.0353
 2636W        W 3633   1.048   0.083   5.388 -0.0691  0.1529 -0.2051
 2637W        W 3634   1.850   3.158   1.585  0.0681  0.0830  0.1311
 2638W        W 3635   0.123   7.419   6.572 -0.3746 -0.1556  0.0137
 2639W        W 3636   6.111   7.539   5.287 -0.1542  0.1646  0.0102
 2640W        W 3637   7.327   1.396   7.198 -0.0031  0.1672  0.0523
 2641W        W 3638   6.862   1.209   5.301  0.0202  0.3208 -0.2244
 2642W        W 3639   5.072   5.001   5.422  0.0694  0.1412 -0.1306
 2643W        W 3640   1.783   3.922   4.169  0.0780 -0.0837  0.0689
 2644W        W 3641   3.932   0.368   1.918  0.2974 -0.1311 -0.3482
 2645W        W 3642   0.751   4.111   0.464  0.1924  0.0801 -0.2721
 2646W        W 3643   5.524   0.219   4.996 -0.1276 -0.0664  0.1528
 2647W        W 3644   6.890   6.704   0.252  0.1275  0.0714 -0.1832
 2648W        W 3645   6.136   2.238   1.836  0.0529 -0.1580 -0.1433
 2649W        W 3646   4.987   0.730   6.672 -0.1338 -0.0663 -0.2637
 2650W        W 3647   0.794   5.643   0.301  0.2389 -0.1935  0.2743
 2651W        W 3648   2.908   5.164   1.367  0.0880  0.0229  0.4275
 2652W        W 3649   1.207   5.308   3.123 -0.2975  0.0608  0.0062
 2653W        W 3650   2.682   1.032   6.471 -0.1290 -0.0406  0.5929
 2654W        W 3651   0.054   4.918   3.535 -0.2617  0.1080 -0.1332
 2655W        W 3652   5.992   2.367   6.470  0.1997 -0.0257  0.1944
 2656W        W 3653   1.363   3.381   0.157  0.0844  0.4280 -0.0577
 2657W        W 3654   7.003   2.803   5.380 -0.1984  0.1095 -0.0053
 2658W        W 3655   2.558   7.117   6.116  0.2240 -0.1222  0.0566
 2659W        W 3656   4.530   0.615   3.678 -0.3063  0.1011  0.0569
 2660W        W 3657   1.618   0.591   4.059 -0.1177 -0.1410 -0.1811
 2661W        W 3658   7.096   6.696   7.413  0.0102 -0.0801  0.0559
 2662W        W 3659   5.179   0.885   0.969 -0.1907 -0.0355 -0.3771
 2663W        W 3660   6.624   6.150   1.528  0.0534 -0.2295  0.0888
 2664W        W 3661   2.526   0.970   5.222  0.1784 -0.2311  0.3169
 2665W        W 3662   2.253   1.175   1.764 -0.0021 -0.1124  0.0168
 2666W        W 3663   5.937   3.168   2.140  0.0216 -0.1163  0.0132
 2667W        W 3664   3.774   0.919   1.674  0.1231  0.3085 -0.1701
 2668W        W 3665   6.519   7.289   4.453 -0.0981 -0.0290  0.0623
 2669W        W 3666   4.203   1.776   3.062  0.0030  0.2937 -0.2453
 2670W        W 3667   6.135   4.035   4.163  0.1805  0.0242  0.0516
 2671W        W 3668   7.179   0.941   6.977 -0.1177  0.1987  0.3195
 2672W        W 3669   7.254   7.003   3.546  0.1250 -0.1286  0.0275
 2673W        W 3670   6.080   7.302   0.573  0.0365 -0.0747 -0.0199
 2674W        W 3671   7.550   3.870   3.825  0.2859  0.1418  0.1192
 2675W        W 3672   3.873   3.742   3.008 -0.0582 -0.2368 -0.0980
 2676W        W 3673   4.708   3.688   3.414  0.1192  0.1563 -0.0543
 2677W        W 3674   2.318   6.965   1.798 -0.1068 -0.3578 -0.1031
 2678W        W 3675   3.503   4.991   2.538  0.0402  0.3000  0.0993
 2679W        W 3676   2.246   4.852   1.861  0.0727  0.1162 -0.3536
 2680W        W 3677   0.803   5.157   0.915  0.1033  0.0772  0.0818
 2681W        W 3678   5.468   0.790   1.587 -0.0382 -0.1085  0.1513
 2682W        W 3679   3.086   3.731   1.173  0.0164  0.2518  0.0512
 2683W        W 3680   2.047   5.465   1.094  0.1161 -0.2660 -0.1885
 2684W        W 3681   2.762   3.243   0.807 -0.0958 -0.0789 -0.0018
 2685W        W 3682   4.895   6.628   1.690  0.0687  0.2149 -0.0231
 2686W        W 3683   5.331   5.492   1.283 -0.2676  0.1974 -0.3798
 2687W        W 3684   2.562   7.188   7.127 -0.0185 -0.4214 -0.1907
 2688W        W 3685   0.446   6.944   1.979 -0.1910 -0.0190  0.2559
 2689W        W 3686   5.070   0.307   7.068 -0.1281 -0.0246 -0.1474
 2690W        W 3687   6.804   7.168   3.345  0.0762  0.1669 -0.0880
 2691W        W 3688   2.598   6.861   5.691  0.1429  0.2739  0.0247
 2692W        W 3689   2.556   6.916   4.455  0.0888 -0.0347  0.0753
 2693W        W 3690   3.933   2.284   3.257 -0.0250 -0.0302  0.0119
 2694W        W 3691   6.018   2.276   2.410  0.0856  0.0847 -0.1397
 2695W        W 3692   4.284   6.121   2.698 -0.1326  0.2071 -0.0406
 2696W        W 3693   4.468   6.955   5.544  0.3634  0.2379 -0.4870
 2697W        W 3694   0.361   5.265   3.614  0.1398  0.1893 -0.0532
 2698W        W 3695   1.472   7.360   3.559  0.2542 -0.2392  0.0614
 2699W        W 3696   4.108   1.666   5.318 -0.0408  0.1898  0.0716
 2700W        W 3697   2.415   3.781   3.162 -0.0002  0.1115  0.2016
 2701W        W 3698   6.317   1.031   7.339 -0.0971  0.0258  0.2656
 2702W        W 3699   5.770   4.834   5.072 -0.0249  0.0899 -0.1032
 2703W        W 3700   3.014   2.895   1.034 -0.4866  0.0459 -0.0523
 2704W        W 3701   0.022   2.250   4.507 -0.0376 -0.3234 -0.1168
 2705W        W 3702   1.720   2.921   2.081 -0.2517 -0.0566  0.0476
 2706W        W 3703   0.602   4.617   5.293  0.1044 -0.0128  0.1314
 2707W        W 3704   4.759   5.429   2.410 -0.1189  0.0590 -0.1890
 2708W        W 3705   3.205   4.973   4.099  0.1348 -0.1779  0.1018
 2709W        W 3706   5.694   3.835   5.179  0.1243 -0.1893  0.0846
 2710W        W 3707   2.948   2.554   5.129 -0.1542  0.0284 -0.2759
 2711W        W 3708   6.319   7.200   7.246 -0.2920 -0.1419 -0.1096
 2712W        W 3709   0.420   7.376   1.363  0.0202  0.1368 -0.1028
 2713W        W 3710   5.301   0.767   7.110  0.2795 -0.2596 -0.0453
 2714W        W 3711   2.560   0.700   4.827 -0.0745 -0.1487  0.0005
 2715W        W 3712   6.920   5.580   6.807  0.2075 -0.3134 -0.0513
 2716W        W 3713   0.367   5.741   5.484 -0.0564 -0.2476 -0.0608
 2717W        W 3714   1.130   2.155   4.440 -0.1130  0.1444  0.0756
 2718W        W 3715   0.649   7.483   6.624 -0.0892 -0.1565  0.2279
 2719W        W 3716   3.191   0.087   1.399 -0.0055 -0.0892 -0.0122
 2720W        W 3717   2.533   3.891   6.447 -0.0490 -0.0917 -0.0523
 2721W        W 3718   3.617   1.698   7.368 -0.1489  0.3068 -0.0939
 2722W        W 3719   6.686   3.748   6.326  0.2190  0.0064  0.3990
 2723W        W 3720   4.561   2.887   7.172 -0.1899 -0.1162 -0.0785
 2724W        W 3721   4.081   3.683   1.118 -0.0300  0.0108 -0.0879
 2725W        W 3722   6.502   6.550   0.658  0.0071 -0.0816 -0.1351
 2726W        W 3723   3.510   1.264   2.036 -0.1344  0.2164  0.1082
 2727W        W 3724   3.290   0.981   1.672  0.1956  0.3920 -0.5794
 2728W        W 3725   2.917   7.172   1.927 -0.0356 -0.0323  0.2774
 2729W        W 3726   2.985   7.433   0.428  0.2376  0.2524 -0.0747
 2730W        W 3727   2.762   6.152   4.864  0.1324  0.0382  0.2071
 2731W        W 3728   7.208   0.366   0.812  0.0471  0.2626  0.4701
 2732W        W 3729   3.142   3.869   0.149  0.1362 -0.1286  0.1058
 2733W        W 3730   6.443   1.136   2.698  0.1786  0.1320 -0.0637
 2734W        W 3731   1.762   2.228   3.902  0.3600  0.0563 -0.0681
 2735W        W 3732   0.970   0.729   0.490 -0.1569 -0.1887 -0.0208
 2736W        W 3733   2.097   0.834   7.454 -0.0677 -0.0517  0.2783
 2737W        W 3734   3.731   0.925   6.309 -0.2157  0.0767  0.3149
 2738W        W 3735   7.177   3.151   6.781 -0.0251  0.7026  0.1192
 2739W        W 3736   3.963   5.342   2.891 -0.0329  0.0026  0.3379
 2740W        W 3737   4.554   0.490   5.166  0.2290  0.2006  0.0368
 2741W        W 3738   6.579   6.975   1.600  0.1541  0.0584 -0.1500
 2742W        W 3739   0.747   3.985   6.166  0.4993 -0.0144  0.1703
 2743W        W 3740   2.144   2.589   6.950 -0.1334  0.0576 -0.3867
 2744W        W 3741   2.711   5.984   5.690  0.2318 -0.0826  0.1042
 2745W        W 3742   1.064   2.313   6.816  0.1480 -0.0205 -0.0232
 2746W        W 3743   2.374   0.368   4.428  0.0305  0.0479  0.3458
 2747W        W 3744   2.324   5.257   3.955 -0.0773  0.0713 -0.0517
 2748W        W 3745   5.450   1.758   5.502 -0.1233  0.2332  0.1793
 2749W        W 3746   7.455   7.277   1.390 -0.0577  0.0763  0.0211
 2750W        W 3747   4.222   3.306   5.217 -0.0034 -0.3317  0.0823
 2751W        W 3748   7.169   6.118   5.448  0.1517 -0.0348 -0.1055
 2752W        W 3749   3.360   3.195   5.168 -0.0065 -0.0811  0.1731
 2753W        W 3750   4.160   4.762   4.672  0.0266  0.1428 -0.2154
 2754W        W 3751   2.729   3.223   5.848 -0.2141  0.1187 -0.0553
 2755W        W 3752   3.910   3.240   3.996 -0.0504  0.1432  0.1157
 2756W        W 3753   3.973   0.459   6.393  0.1845 -0.0718  0.4403
 2757W        W 3754   3.026   4.811   2.055  0.1553 -0.3063  0.2820
 2758W        W 3755   0.786   7.425   0.466  0.4250  0.0375 -0.1409
 2759W        W 3756   7.445   5.392   2.280 -0.4170 -0.2050  0.3852
 2760W        W 3757   1.285   0.876   0.905 -0.1621 -0.1926  0.3347
 2761W        W 3758   1.296   6.539   1.735  0.1626 -0.2989  0.0449
 2762W        W 3759   6.343   4.177   5.345  0.2505 -0.0168 -0.0986
 2763W        W 3760   4.957   6.687   1.197  0.0187 -0.1610 -0.0319
 2764W        W 3761   7.286   7.633   2.968  0.0408  0.2082 -0.2428
 2765W        W 3762   0.007   0.138   2.640 -0.0763 -0.0587 -0.3582
 2766W        W 3763   1.601   1.392   3.971 -0.1856 -0.0499  0.1976
 2767W        W 3764   7.224   7.619   4.132 -0.0610 -0.0647 -0.3125
 2768W        W 3765   3.571   3.829   0.970  0.1508 -0.0301 -0.2970
 2769W        W 3766   2.935   3.963   6.196  0.1778 -0.2938 -0.1779
 2770W        W 3767   1.414   6.945   4.025 -0.1597  0.2461  0.1722
 2771W        W 3768   2.430   1.258   1.287 -0.2192  0.2096 -0.0461
 2772W        W 3769   0.390   4.087   3.727 -0.1992 -0.0202 -0.0350
 2773W        W 3770   2.572   2.746   4.250  0.1819 -0.0129  0.0659
 2774W        W 3771   0.645   2.520   3.998 -0.0425  0.1631 -0.0982
 2775W        W 3772   4.019   6.608   5.513 -0.2916 -0.0002  0.0967
 2776W        W 3773   0.393   1.708   5.731  0.1728 -0.0195  0.3726
 2777W        W 3774   6.206   0.649   3.511 -0.0060 -0.3516 -0.1169
 2778W        W 3775   4.860   1.983   1.784  0.1792  0.1043  0.0772
 2779W        W 3776   5.855   2.389   7.450 -0.0056  0.0395  0.0115
 2780W        W 3777   3.761   0.906   7.345  0.0331 -0.0025  0.0573
 2781W        W 3778   1.401   1.328   3.503 -0.1857 -0.2812  0.0707
 2782W        W 3779   0.010   4.048   3.329  0.0599  0.1043 -0.0443
 2783W        W 3780   1.752   0.598   6.300  0.4275 -0.0008 -0.0429
 2784W        W 3781   5.194   4.929   1.945 -0.0493 -0.1767 -0.0026
 2785W        W 3782   3.543   7.612   5.263 -0.1152  0.1905 -0.1291
 2786W        W 3783   6.912   4.540   3.401  0.1908  0.0964  0.1632
 2787W        W 3784   4.362   1.423   0.912  0.0145 -0.0114 -0.0215
 2788W        W 3785   0.116   5.268   6.790  0.1406  0.1970  0.1472
 2789W        W 3786   3.481   0.166   0.966 -0.1892 -0.0827 -0.0006
 2790W        W 3787   2.042   0.882   5.388  0.3061 -0.0249  0.0795
 2791W        W 3788   0.642   1.408   4.776  0.0455 -0.1223 -0.4049
 2792W        W 3789   3.964   0.959   0.704 -0.3908  0.0332 -0.0731
 2793W        W 3790   6.712   7.130   7.609 -0.0629  0.2599 -0.0963
 2794W        W 3791   6.255   2.496   5.078 -0.1569 -0.1901 -0.1199
 2795W        W 3792   2.027   6.003   0.673  0.0695 -0.0389  0.0247
 2796W        W 3793   1.288   6.082   4.057 -0.2714 -0.0843  0.2002
 2797W        W 3794   3.826   1.983   4.276 -0.1877 -0.2640  0.2134
 2798W        W 3795   2.291   6.779   6.374  0.1803 -0.0420 -0.1881
 2799W        W 3796   2.306   1.827   7.257  0.2091  0.1180  0.0435
 2800W        W 3797   3.691   0.374   7.192 -0.1290 -0.1446 -0.0443
 2801W        W 3798   5.258   0.017   1.251  0.0753 -0.2826 -0.1345
 2802W        W 3799   0.165   6.036   6.581  0.0486  0.1475 -0.0500
 2803W        W 3800   2.171   3.353   1.266 -0.5567 -0.0073 -0.1572
 2804W        W 3801   6.701   6.997   6.701  0.2852 -0.0863 -0.1279
 2805W        W 3802   0.634   3.249   5.644 -0.0325  0.0041 -0.2211
 2806W        W 3803   2.225   3.435   2.732  0.1828  0.1881 -0.2037
 2807W        W 3804   2.110   6.875   4.762 -0.1376 -0.0534  0.1536
 2808W        W 3805   2.794   3.688   4.602  0.1567  0.1638 -0.2285
 2809W        W 3806   3.472   5.241   1.272  0.0627  0.1291 -0.1608
 2810W        W 3807   5.375   6.994   2.487 -0.2669  0.3735  0.0842
 2811W        W 3808   5.867   6.457   1.412  0.1729 -0.2640  0.0109
 2812W        W 3809   3.755   0.995   1.180  0.0128  0.3975  0.0301
 2813W        W 3810   4.090   1.134   5.906  0.0077  0.1336 -0.2806
 2814W        W 3811   2.950   5.780   3.721 -0.0264 -0.0409  0.0890
 2815W        W 3812   6.478   0.014   7.504 -0.2866  0.0034 -0.4618
 2816W        W 3813   4.935   0.582   6.197 -0.1153 -0.0347  0.2190
 2817W        W 3814   0.174   6.159   4.229  0.1224 -0.2670  0.3803
 2818W        W 3815   2.123   7.185   6.663  0.0342  0.3451 -0.0443
 2819W        W 3816   3.977   0.367   3.591 -0.1912  0.1147 -0.1244
 2820W        W 3817   2.961   2.948   1.762  0.0978 -0.0135  0.1719
 2821W        W 3818   6.036   6.548   0.439  0.6348 -0.1805  0.0639
 2822W        W 3819   2.705   0.815   6.934  0.2813 -0.1108 -0.0611
 2823W        W 3820   1.223   0.289   3.050 -0.0915 -0.0412  0.0564
 2824W        W 3821   0.309   0.019   0.917  0.0954 -0.1479  0.2357
 2825W        W 3822   2.391   4.703   6.497  0.2135 -0.0650 -0.2999
 2826W        W 3823   5.273   2.355   0.504  0.0126 -0.1056  0.3129
 2827W        W 3824   0.209   7.499   3.059  0.1336  0.2883  0.0136
 2828W        W 3825   0.985   6.151   1.252  0.0475 -0.1451 -0.1204
 2829W        W 3826   2.549   2.338   5.024 -0.0567 -0.2209 -0.1281
 2830W        W 3827   3.998   1.413   1.232  0.1975  0.0045  0.1827
 2831W        W 3828   7.343   5.341   0.946 -0.4761 -0.1092  0.1266
 2832W        W 3829   7.508   6.570   2.986 -0.1295  0.0053  0.0150
 2833W        W 3830   1.842   6.403   5.651  0.2219 -0.0375  0.1427
 2834W        W 3831   1.367   4.388   4.856  0.1948 -0.1853  0.1331
 2835W        W 3832   2.189   3.916   3.807 -0.0540 -0.2537 -0.2291
 2836W        W 3833   5.949   1.390   7.100 -0.2073 -0.2453  0.1009
 2837W        W 3834   6.617   5.819   3.123  0.3122  0.1239  0.2387
 2838W        W 3835   3.015   1.139   0.233 -0.0383 -0.0169 -0.1817
 2839W        W 3836   2.664   0.034   6.154 -0.1922 -0.1868  0.0931
 2840W        W 3837   2.226   3.081   4.394 -0.0325  0.1589 -0.0654
 2841W        W 3838   0.311   6.963   3.044 -0.0187 -0.0539 -0.0991
 2842W        W 3839   6.703   6.382   7.432 -0.1488 -0.0517 -0.1303
 2843W        W 3840   6.160   1.508   3.086  0.3210  0.2935 -0.0799
 2844W        W 3841   0.328   6.176   0.859  0.2417  0.0150  0.2131
 2845W        W 3842   4.716   6.805   3.830  0.0739  0.2658 -0.2084
 2846W        W 3843   5.951   4.996   3.061  0.1161 -0.0304  0.1655
 2847W        W 3844   5.717   1.746   3.991 -0.1698  0.1762  0.0526
 2848W        W 3845   0.996   4.948   4.020  0.2249 -0.0345 -0.2245
 2849W        W 3846   5.448   2.557   6.548 -0.1037 -0.2535  0.2404
 2850W        W 3847   3.894   3.155   3.057  0.1458 -0.3499 -0.2884
 2851W        W 3848   1.753   1.306   6.181  0.1372  0.0488  0.2467
 2852W        W 3849   1.115   3.982   5.006 -0.0728  0.3322 -0.3587
 2853W        W 3850   6.391   6.383   6.615  0.0075 -0.1572 -0.0105
 2854W        W 3851   4.708   1.567   2.601 -0.2407  0.0865  0.3157
 2855W        W 3852   3.930   2.676   3.587  0.0845  0.0127 -0.3826
 2856W        W 3853   7.272   7.157   0.105 -0.1620 -0.1909 -0.3858
 2857W        W 3854   4.317   7.090   0.338  0.1761  0.1217  0.1312
 2858W        W 3855   3.145   3.832   5.692 -0.2903  0.1135 -0.0018
 2859W        W 3856   7.209   6.297   6.044  0.1747  0.0224  0.1270
 2860W        W 3857   6.393   2.412   4.594  0.0031 -0.1851  0.1290
 2861W        W 3858   2.559   0.652   1.633 -0.3073  0.1499 -0.2037
 2862W        W 3859   6.028   7.002   2.512  0.1626  0.0890  0.2131
 2863W        W 3860   4.368   1.028   4.557 -0.1463 -0.0135  0.3144
 2864W        W 3861   6.453   6.244   2.023 -0.3119  0.1737 -0.0539
 2865W        W 3862   5.216   4.144   5.108  0.0548 -0.2214  0.0388
 2866W        W 3863   0.892   7.093   6.835  0.0185 -0.1089  0.0640
 2867W        W 3864   1.050   3.455   6.562 -0.2139  0.0658  0.0755
 2868W        W 3865   6.992   7.193   4.192  0.1026 -0.1564  0.2096
 2869W        W 3866   5.399   1.766   1.878  0.4582 -0.3075  0.0126
 2870W        W 3867   7.281   4.513   2.641  0.2885 -0.4328  0.0743
 2871W        W 3868   2.701   5.583   6.313  0.3132 -0.1194 -0.4225
 2872W        W 3869   5.344   0.420   5.774 -0.0113  0.1605  0.0238
 2873W        W 3870   4.434   3.134   4.671  0.1577  0.0085  0.1882
 2874W        W 3871   1.451   3.916   0.190  0.1021  0.2644  0.2220
 2875W        W 3872   3.270   2.284   1.664  0.1823  0.0562 -0.0458
 2876W        W 3873   0.679   6.767   3.567  0.1088  0.1928  0.2063
 2877W        W 3874   1.739   5.714   0.287  0.1610  0.0342 -0.0736
 2878W        W 3875   2.478   0.074   7.442 -0.3092 -0.0106 -0.0921
 2879W        W 3876   5.386   3.598   2.683  0.0249 -0.0899 -0.0724
 2880W        W 3877   0.795   3.812   5.688 -0.1880 -0.0213  0.1907
 2881W        W 3878   4.238   1.298   4.947  0.1529 -0.3805 -0.0837
 2882W        W 3879   3.460   4.188   5.796 -0.2642 -0.0589  0.2788
 2883W        W 3880   0.632   5.375   4.708 -0.0190  0.1027 -0.1501
 2884W        W 3881   1.746   4.842   7.086 -0.2653 -0.4429  0.1367
 2885W        W 3882   2.614   1.127   3.110 -0.1023 -0.0577  0.0132
 2886W        W 3883   2.454   1.704   0.927 -0.1164 -0.1151  0.0305
 2887W        W 3884   3.927   1.415   6.311 -0.0299  0.2759 -0.2311
 2888W        W 3885   2.726   0.539   6.079  0.0651  0.0987 -0.0130
 2889W        W 3886   2.024   3.554   3.221  0.0684  0.0839  0.1322
 2890W        W 3887   3.881   1.322   3.527 -0.2697  0.2926 -0.2431
 2891W        W 3888   0.674   6.522   0.802 -0.0381 -0.2550 -0.0721
 2892W        W 3889   6.232   3.552   5.930  0.0866 -0.0253  0.3800
 2893W        W 3890   7.242   6.197   2.748 -0.0513 -0.1454 -0.0015
 2894W        W 3891   1.187   1.757   4.732 -0.3274 -0.0309 -0.0852
 2895W        W 3892   3.866   6.399   2.610 -0.0545 -0.0546 -0.4359
 2896W        W 3893   3.698   6.206   4.317  0.3464 -0.0424 -0.0688
 2897W        W 3894   1.463   4.346   4.383  0.0816  0.1838 -0.0361
 2898W        W 3895   1.530   0.730   7.306  0.0108 -0.1779 -0.2055
 2899W        W 3896   6.559   6.551   3.945  0.1658 -0.0972  0.0678
 2900W        W 3897   5.712   6.568   6.279  0.3530  0.1231 -0.3301
 2901W        W 3898   6.428   3.735   2.958  0.2999 -0.1974  0.0656
 2902W        W 3899   2.018   5.760   6.874  0.0292  0.0602 -0.0693
 2903W        W 3900   1.320   0.195   1.693 -0.0334 -0.2876 -0.1087
 2904W        W 3901   7.134   6.225   0.126  0.1026 -0.2895  0.0885
 2905W        W 3902   6.931   6.745   0.724 -0.0843  0.1339 -0.0616
 2906W        W 3903   1.248   1.825   3.209 -0.1864 -0.0054 -0.1770
 2907W        W 3904   6.977   7.524   7.607 -0.2268 -0.3593 -0.0868
 2908W        W 3905   2.883   6.568   6.747 -0.0067  0.1070  0.0502
 2909W        W 3906   4.697   5.660   1.969 -0.1700 -0.0521 -0.2355
 2910W        W 3907   3.098   1.977   4.398  0.0180 -0.0279  0.0532
 2911W        W 3908   6.786   5.466   4.222  0.0677  0.1449  0.2581
 2912W        W 3909   1.837   3.061   2.944 -0.2199  0.1636  0.1055
 2913W        W 3910   6.226   7.461   2.085  0.1002  0.3903  0.2954
 2914W        W 3911   0.039   0.106   4.601 -0.1487  0.0290 -0.0423
 2915W        W 3912   3.164   1.542   0.546 -0.2290  0.1588  0.0480
 2916W        W 3913   4.232   5.974   1.618 -0.0679  0.1899  0.1477
 2917W        W 3914   6.364   2.266   6.807 -0.1200  0.1006 -0.3138
 2918W        W 3915   2.133   7.146   0.256 -0.0392 -0.0610  0.0405
 2919W        W 3916   5.250   2.179   4.933 -0.2235  0.1356  0.0073
 2920W        W 3917   5.529   1.599   0.939 -0.3047  0.1393  0.1069
 2921W        W 3918   6.791   0.637   4.468 -0.2694 -0.0885 -0.0888
 2922W        W 3919   0.153   1.277   0.278  0.2664 -0.2836 -0.2997
 2923W        W 3920   6.614   6.837   2.112  0.1409 -0.2347 -0.4289
 2924W        W 3921   4.729   2.453   0.862 -0.2744 -0.3316  0.1291
 2925W        W 3922   1.617   6.307   3.356 -0.2910 -0.0038  0.0665
 2926W        W 3923   3.069   5.174   6.120 -0.0691  0.0214 -0.1083
 2927W        W 3924   6.842   3.170   5.056  0.2682 -0.0624  0.2046
 2928W        W 3925   7.589   1.730   6.618  0.0161 -0.0771  0.2828
 2929W        W 3926   1.309   4.797   4.417 -0.1034 -0.0585  0.3035
 2930W        W 3927   3.086   2.606   6.122  0.1003 -0.0123  0.0717
 2931W        W 3928   1.170   1.194   4.974  0.0090 -0.0236 -0.1719
 2932W        W 3929   3.911   0.012   1.159 -0.2917  0.1963 -0.4024
 2933W        W 3930   4.263   1.479   6.735  0.1153  0.0695 -0.3533
 2934W        W 3931   0.615   4.773   5.755  0.1970 -0.0005  0.1787
 2935W        W 3932   5.866   0.157   1.995 -0.1826  0.0626  0.2219
 2936W        W 3933   4.306   0.157   1.664 -0.3145  0.2080 -0.2715
 2937W        W 3934   6.436   0.518   4.058 -0.2402 -0.0211  0.0994
 2938W        W 3935   1.646   7.216   0.011 -0.0718 -0.1140 -0.0558
 2939W        W 3936   5.509   0.803   6.689  0.0419  0.0526 -0.0883
 2940W        W 3937   6.589   2.163   0.467 -0.2886 -0.0426  0.1441
 2941W        W 3938   1.869   4.967   3.636 -0.0454 -0.0180 -0.2241
 2942W        W 3939   2.668   6.084   2.760  0.1497  0.1414 -0.1377
 2943W        W 3940   3.662   3.590   5.729  0.2695  0.0040 -0.0176
 2944W        W 3941   2.894   3.853   6.843  0.2524  0.0113  0.3321
 2945W        W 3942   6.832   6.403   6.935  0.1892 -0.4385  0.0984
 2946W        W 3943   6.052   5.792   4.069 -0.2443  0.2747 -0.2793
 2947W        W 3944   5.222   5.866   2.716 -0.0337 -0.0296  0.2914
 2948W        W 3945   3.293   1.060   1.224  0.2488 -0.2449  0.2760
 2949W        W 3946   4.970   4.689   2.853 -0.0337 -0.1115 -0.0533
 2950W        W 3947   2.163   3.042   4.934  0.1065  0.0488  0.1688
 2951W        W 3948   1.849   0.152   3.268  0.1405 -0.0873 -0.1257
 2952W        W 3949   6.920   7.057   4.775 -0.0872 -0.0202 -0.1999
 2953W        W 3950   3.661   0.101   1.612 -0.0928 -0.0492 -0.1084
 2954W        W 3951   3.473   1.209   3.167  0.1879 -0.0665  0.1560
 2955W        W 3952   5.055   1.078   3.174  0.2595 -0.0517 -0.0590
 2956W        W 3953   2.404   5.249   1.552 -0.2873 -0.4676  0.0622
 2957W        W 3954   5.303   7.480   1.719  0.1604 -0.1121 -0.0910
 2958W        W 3955   1.704   0.516   2.913  0.1904 -0.0196 -0.1138
 2959W        W 3956   0.489   4.099   3.056 -0.0234  0.1248 -0.0024
 2960W        W 3957   5.763   1.281   3.893  0.1758 -0.2714 -0.0652
 2961W        W 3958   0.109   7.012   0.151 -0.3926  0.2200  0.0271
 2962W        W 3959   1.111   2.957   6.490  0.1016 -0.0223  0.2566
 2963W        W 3960   5.708   1.135   1.058  0.0389  0.2379  0.0527
 2964W        W 3961   4.617   6.559   5.244  0.0673 -0.0628  0.3285
 2965W        W 3962   2.577   2.788   4.742  0.3820 -0.2518  0.1695
 2966W        W 3963   3.391   0.260   2.784  0.2664  0.1866  0.0383
 2967W        W 3964   4.076   1.484   0.495 -0.0632  0.1098 -0.0032
 2968W        W 3965   5.462   4.727   3.007  0.0298  0.0143 -0.1244
 2969W        W 3966   1.228   5.809   4.487  0.1424 -0.0609  0.3141
 2970W        W 3967   1.834   6.123   1.677  0.3188 -0.2652  0.1654
 2971W        W 3968   7.329   5.153   5.261  0.1015  0.0748 -0.0744
 2972W        W 3969   4.089   7.117   6.335 -0.1206 -0.1215  0.0414
 2973W        W 3970   4.327   0.650   3.121 -0.1679  0.0065 -0.1686
 2974W        W 3971   3.131   2.589   2.030  0.2841  0.0346  0.1328
 2975W        W 3972   0.923   2.622   5.055  0.0830  0.0017 -0.0569
 2976W        W 3973   1.567   5.090   7.506  0.1542  0.0664  0.0077
 2977W        W 3974   5.422   0.703   3.119  0.1221 -0.0250  0.0554
 2978W        W 3975   0.907   3.510   5.250  0.0435 -0.3127 -0.0385
 2979W        W 3976   2.645   4.089   3.480  0.2913  0.0570  0.0109
 2980W        W 3977   2.575   1.670   3.202  0.1702 -0.0594  0.2203
 2981W        W 3978   4.433   4.282   3.327 -0.0196  0.0600 -0.1438
 2982W        W 3979   3.713   3.073   4.522  0.0446 -0.0619 -0.2371
 2983W        W 3980   3.419   7.002   7.498 -0.2286 -0.2044  0.3852
 2984W        W 3981   3.342   4.678   4.998 -0.1890  0.0033  0.0703
 2985W        W 3982   0.759   3.077   5.141  0.0996 -0.1045 -0.1679
 2986W        W 3983   2.365   3.538   4.142 -0.1898  0.0072  0.2627
 2987W        W 3984   3.195   6.496   5.030 -0.2528 -0.2559 -0.0922
 2988W        W 3985   1.868   0.016   1.322 -0.3157  0.0492 -0.0647
 2989W        W 3986   1.408   6.769   0.903 -0.3722  0.0592  0.1620
 2990W        W 3987   5.605   2.684   1.714 -0.3538 -0.0722 -0.3780
 2991W        W 3988   0.722   6.621   2.162  0.0256 -0.1735  0.1829
 2992W        W 3989   4.319   0.610   0.625 -0.4326 -0.1703  0.3391
 2993W        W 3990   5.457   0.004   2.136 -0.1797 -0.0067  0.0217
 2994W        W 3991   7.256   7.296   1.857 -0.2118 -0.2284  0.0489
 2995W        W 3992   3.408   0.808   3.475  0.1356 -0.0616  0.2713
 2996W        W 3993   0.712   0.811   6.759 -0.0883 -0.2354  0.2027
 2997W        W 3994   1.995   0.021   6.951  0.1553 -0.1431 -0.2446
 2998W        W 3995   1.883   0.591   6.952 -0.0672 -0.0859 -0.1391
 2999W        W 3996   3.496   2.771   1.006  0.0138 -0.1002  0.1649
 3000W        W 3997   3.024   3.349   3.124 -0.1163  0.0352 -0.2582
 3001W        W 3998   0.475   0.067   1.999  0.1516  0.0318  0.3538
 3002W        W 3999   1.355   0.612   1.943  0.2034 -0.0624  0.0860
 3003W        W 4000   0.731   3.464   4.362  0.0009  0.2027  0.1881
 3004W        W 4001   4.699   1.971   6.315 -0.1963  0.1407  0.1465
 3005W        W 4002   4.772   3.170   1.605  0.0267 -0.0159 -0.2075
 3006W        W 4003   5.095   3.776   2.297 -0.3573  0.2204  0.0181
 3007W        W 4004   4.014   4.874   2.694 -0.2237  0.0743  0.0560
 3008W        W 4005   4.380   2.575   2.638  0.0507  0.0532 -0.0279
 3009W        W 4006   1.646   1.525   4.564 -0.0822 -0.0029  0.0825
 3010W        W 4007   4.946   0.964   3.931  0.0270  0.1301  0.1702
 3011W        W 4008   3.847   7.065   3.882 -0.4765 -0.4283  0.0045
 3012W        W 4009   2.147   2.475   0.392 -0.0054  0.0005 -0.0801
 3013W        W 4010   5.701   0.144   5.495  0.0320  0.1076 -0.1455
 3014W        W 4011   2.780   0.918   1.103 -0.0569 -0.3554 -0.0170
 3015W        W 4012   3.436   6.907   4.216 -0.0860  0.0497  0.3016
 3016W        W 4013   2.282   2.191   0.899  0.1123 -0.1440 -0.1611
 3017W        W 4014   0.835   1.167   7.199 -0.1220 -0.0368  0.1013
 3018W        W 4015   2.605   2.344   7.123  0.0815  0.2033 -0.0142
 3019W        W 4016   3.060   6.180   5.362 -0.0404  0.2030  0.4537
 3020W        W 4017   1.543   0.056   0.100 -0.0710 -0.1126  0.0517
 3021W        W 4018   4.207   5.170   5.096  0.2703  0.1327 -0.2339
 3022W        W 4019   5.150   5.524   4.965 -0.0954 -0.2064  0.1175
 3023W        W 4020   6.873   6.821   5.255  0.2126 -0.0059 -0.1149
 3024W        W 4021   4.938   3.625   4.803 -0.0476 -0.1982  0.1830
 3025W        W 4022   4.967   7.143   1.690  0.1220 -0.1236  0.0188
 3026W        W 4023   5.585   6.781   1.728 -0.2791  0.0480  0.1231
 3027W        W 4024   1.941   4.314   5.624  0.0645 -0.2397  0.2679
 3028W        W 4025   2.953   1.082   7.360  0.1005  0.4361 -0.3060
 3029W        W 4026   1.396   5.939   0.991 -0.1127  0.0460 -0.6240
 3030W        W 4027   2.170   5.342   3.248  0.0291 -0.0136 -0.0701
 3031W        W 4028   5.452   6.163   3.424 -0.0514 -0.0764 -0.2369
 3032W        W 4029   1.529   2.374   0.428  0.3574  0.3087  0.0892
 3033W        W 4030   1.740   2.944   4.680  0.2334  0.1738  0.0659
 3034W        W 4031   3.049   0.051   5.445  0.1211  0.0199 -0.3011
 3035W        W 4032   1.734   3.364   7.217 -0.1248  0.1738  0.0388
 3036W        W 4033   1.838   1.916   1.674  0.0957 -0.5141 -0.0470
 3037W        W 4034   6.273   0.540   7.370  0.2151 -0.3903 -0.0851
 3038W        W 4035   2.953   0.139   2.368 -0.1007  0.1148 -0.1483
 3039W        W 4036   1.704   1.127   0.647 -0.2709 -0.0217  0.0377
 3040W        W 4037   2.756   6.618   6.254  0.0569 -0.0026 -0.0377
 3041W        W 4038   0.931   5.463   2.758 -0.0390 -0.3516 -0.2379
 3042W        W 4039   2.098   1.385   7.402  0.0094  0.0862  0.2242
 3043W        W 4040   7.522   3.475   6.835  0.2283  0.2953 -0.0790
 3044W        W 4041   2.793   1.026   5.845 -0.0153  0.1755  0.0364
 3045W        W 4042   6.473   1.341   5.654  0.0786 -0.1148  0.1637
 3046W        W 4043   2.976   7.339   6.305 -0.1156  0.2182  0.2523
 3047W        W 4044   3.098   0.905   5.044 -0.0027 -0.1183  0.1750
 3048W        W 4045   7.360   6.618   2.489 -0.0516  0.1035 -0.1052
 3049W        W 4046   4.623   3.255   1.158  0.1123 -0.0465  0.0655
 3050W        W 4047   1.177   1.697   5.400 -0.0110 -0.0227  0.3584
 3051W        W 4048   6.512   2.046   0.917 -0.2860 -0.0042 -0.1792
 3052W        W 4049   6.147   6.081   1.639  0.0085 -0.0368  0.1789
 3053W        W 4050   0.795   6.286   1.816  0.2598  0.1524  0.2185
 3054W        W 4051   2.722   5.741   4.566 -0.0440  0.3406  0.0979
 3055W        W 4052   5.954   5.476   2.387 -0.1053 -0.0597  0.1498
 3056W        W 4053   6.672   3.747   5.023  0.1123 -0.0333  0.1944
 3057W        W 4054   1.221   4.269   0.418  0.1310 -0.1243  0.0521
 3058W        W 4055   0.209   6.598   1.020  0.2822 -0.0103 -0.0441
 3059W        W 4056   6.369   2.813   6.482 -0.0046  0.0780  0.2752
 3060W        W 4057   3.047   2.087   0.333 -0.0156 -0.1995  0.0707
 3061W        W 4058   0.068   3.748   2.963  0.0799  0.2903 -0.1172
 3062W        W 4059   1.220   4.026   5.541  0.2177 -0.0394 -0.1092
 3063W        W 4060   5.676   6.822   1.104  0.0119 -0.1295  0.3585
 3064W        W 4061   5.127   2.527   2.413 -0.2244  0.1075  0.3504
 3065W        W 4062   6.214   7.060   4.895 -0.2296 -0.3156 -0.0229
 3066W        W 4063   2.160   1.386   3.146 -0.3136 -0.0068  0.2188
 3067W        W 4064   7.561   6.856   1.866  0.2668  0.1013 -0.3387
 3068W        W 4065   4.362   2.402   5.710 -0.1587 -0.1227 -0.2569
 3069W        W 4066   2.523   5.608   2.354 -0.0596  0.2273 -0.1931
 3070W        W 4067   4.752   6.142   0.978 -0.2555 -0.0570  0.0171
 3071W        W 4068   0.728   2.377   7.337 -0.0096 -0.1196  0.0934
 3072W        W 4069   4.298   4.395   5.247 -0.1714  0.1866  0.2695
 3073W        W 4070   3.817   5.294   3.886 -0.1402  0.0395 -0.2597
 3074W        W 4071   2.975   6.918   7.218  0.1648 -0.0476 -0.0173
 3075W        W 4072   3.839   6.580   3.503 -0.0199  0.0983 -0.0966
 3076W        W 4073   1.731   1.574   3.125 -0.0057  0.2852 -0.1116
 3077W        W 4074   3.078   6.831   0.123 -0.1020  0.0742 -0.1553
 3078W        W 4075   3.418   2.271   5.518 -0.0312 -0.2225  0.0058
 3079W        W 4076   4.155   2.090   2.662 -0.0186 -0.2792 -0.2990
 3080W        W 4077   5.724   0.462   4.197  0.0213 -0.1191  0.0665
 3081W        W 4078   3.523   6.644   4.625  0.0268 -0.1299  0.1198
 3082W        W 4079   2.022   2.592   6.024  0.0226  0.1289 -0.3449
 3083W        W 4080   1.960   1.913   2.159  0.0801  0.1579  0.0550
 3084W        W 4081   6.197   6.600   3.478  0.2953  0.0846 -0.1453
 3085W        W 4082   4.307   7.361   5.350  0.1867 -0.3028 -0.4149
 3086W        W 4083   2.783   7.620   1.851 -0.0642  0.0336  0.1200
 3087W        W 4084   3.027   3.485   4.147 -0.1895 -0.0257  0.0397
 3088W        W 4085   1.509   5.286   4.627 -0.0825 -0.1441  0.0679
 3089W        W 4086   4.042   6.143   3.958  0.1493 -0.1205  0.0878
 3090W        W 4087   0.638   6.086   0.083  0.0123 -0.2042  0.2047
 3091W        W 4088   1.074   1.357   0.843  0.1644 -0.0923 -0.0086
 3092W        W 4089   1.633   1.459   5.111 -0.0745 -0.1495  0.2733
 3093W        W 4090   2.549   0.132   2.672  0.1027 -0.0737 -0.2665
 3094W        W 4091   2.977   2.228   2.394  0.0620  0.1224 -0.1397
 3095W        W 4092   5.651   7.267   0.855  0.1538  0.0143  0.1466
 3096W        W 4093   0.813   3.898   6.691 -0.1574 -0.1606  0.0095
 3097W        W 4094   3.497   0.634   0.546 -0.2044  0.3594 -0.0228
 3098W        W 4095   3.719   7.433   2.208  0.1018  0.1067  0.3183
 3099W        W 4096   6.875   0.520   1.173 -0.1260 -0.0184 -0.0833
 3100W        W 4097   4.227   2.438   0.817  0.0811 -0.1641 -0.3300
 3101W        W 4098   6.701   3.311   6.582  0.1436  0.2635  0.0135
 3102W        W 4099   5.994   7.204   4.391 -0.1835 -0.2054 -0.3696
 3103W        W 4100   2.430   7.296   4.750 -0.2397  0.0424  0.1888
 3104W        W 4101   2.358   4.368   1.531  0.0325 -0.1634  0.1822
 3105W        W 4102   4.187   6.487   3.007  0.1895 -0.1210  0.0318
 3106W        W 4103   5.175   0.706   4.522 -0.1629  0.1681 -0.3469
 3107W        W 4104   7.187   5.321   2.753  0.1251  0.1056  0.1421
 3108W        W 4105   1.586   0.284   0.940 -0.2345  0.0326  0.1485
 3109W        W 4106   7.481   6.547   1.500 -0.0465  0.0159 -0.1663
 3110W        W 4107   6.355   5.712   0.351 -0.0091  0.0986 -0.2938
 3111W        W 4108   2.302   4.191   6.812  0.0717  0.3023  0.3683
 3112W        W 4109   4.972   6.927   5.922  0.0544  0.0800 -0.0414
 3113W        W 4110   4.167   2.866   4.334 -0.0670 -0.2883 -0.2521
 3114W        W 4111   2.780   2.148   5.382 -0.1851  0.1340 -0.1304
 3115W        W 4112   2.339   4.428   0.449  0.2081  0.0765 -0.2874
 3116W        W 4113   7.451   4.830   6.479 -0.0834  0.0649  0.1454
 3117W        W 4114   6.345   7.257   5.670  0.1418 -0.0364 -0.3146
 3118W        W 4115   2.679   6.907   1.515 -0.1709 -0.2157 -0.4116
 3119W        W 4116   6.370   2.605   7.365 -0.0371  0.2115  0.0499
 3120W        W 4117   7.002   6.909   2.569  0.4548 -0.4318 -0.2479
 3121W        W 4118   6.915   4.891   2.563 -0.0488 -0.1748  0.0724
 3122W        W 4119   5.559   5.755   3.149  0.0123  0.1422 -0.1217
 3123W        W 4120   3.557   1.816   1.951 -0.1238 -0.3629  0.2155
 3124W        W 4121   7.229   0.993   4.442 -0.5442 -0.0504 -0.1815
 3125W        W 4122   4.202   3.451   4.307 -0.1292  0.0222  0.0501
 3126W        W 4123   7.515   3.455   4.118 -0.1786 -0.0374 -0.2772
 3127W        W 4124   0.203   0.572   5.711 -0.3382 -0.2287  0.1975
 3128W        W 4125   2.253   6.176   3.039  0.3342  0.1184 -0.0682
 3129W        W 4126   2.029   2.135   4.301  0.0920  0.4295  0.0803
 3130W        W 4127   6.217   0.206   0.491 -0.0819 -0.2255 -0.2610
 3131W        W 4128   4.868   4.462   5.397  0.1219  0.2739  0.0415
 3132W        W 4129   1.824   0.271   7.347  0.1124 -0.0530  0.2942
 3133W        W 4130   1.729   5.938   3.833  0.2384  0.3414 -0.0196
 3134W        W 4131   2.314   4.146   2.388  0.0486  0.1791  0.0672
 3135W        W 4132   5.905   4.100   1.974 -0.1129  0.0017 -0.0130
 3136W        W 4133   3.634   2.506   0.505 -0.1566  0.1303 -0.2761
 3137W        W 4134   1.583   3.160   3.590  0.4042 -0.1409  0.0748
 3138W        W 4135   7.387   5.125   5.757 -0.1128 -0.1634 -0.0236
 3139W        W 4136   2.646   7.282   2.717 -0.0994 -0.1687  0.0411
 3140W        W 4137   0.447   5.736   0.612  0.0089  0.0857  0.1673
 3141W        W 4138   2.558   6.702   0.196 -0.1250  0.1638  0.0973
 3142W        W 4139   3.688   2.691   6.289  0.0388 -0.1141  0.1887
 3143W        W 4140   3.544   2.502   7.376  0.1050 -0.2311  0.1637
 3144W        W 4141   7.333   0.786   6.506 -0.1370 -0.2389  0.2057
 3145W        W 4142   2.259   4.640   4.781  0.0074  0.1166  0.0625
 3146W        W 4143   2.820   3.389   7.230 -0.2078  0.2871 -0.1021
 3147W        W 4144   4.158   3.162   5.779  0.2338  0.2766 -0.2260
 3148W        W 4145   7.275   6.124   6.711  0.1246  0.2549 -0.0455
 3149W        W 4146   4.216   2.536   1.746 -0.0030  0.1297  0.4459
 3150W        W 4147   7.586   0.056   6.940  0.0844  0.5146  0.1168
 3151W        W 4148   4.578   4.371   2.816 -0.3903  0.4054 -0.1988
 3152W        W 4149   7.227   1.262   4.854 -0.0075  0.2080 -0.2641
 3153W        W 4150   1.252   0.237   7.305 -0.2278  0.0846 -0.1868
 3154W        W 4151   0.293   0.169   6.097 -0.0726 -0.1129 -0.1909
 3155W        W 4152   6.197   1.678   5.923 -0.0998  0.2138 -0.0843
 3156W        W 4153   6.565   6.700   4.869  0.0040  0.0012  0.1254
 3157W        W 4154   5.579   0.612   5.341  0.1703  0.1108 -0.0325
 3158W        W 4155   5.690   6.110   5.267  0.1917  0.4356  0.0713
 3159W        W 4156   3.677   4.835   3.067 -0.0947 -0.2865  0.2393
 3160W        W 4157   3.349   5.174   5.110 -0.0905  0.3951 -0.1940
 3161W        W 4158   3.589   3.243   1.195  0.1406  0.2872  0.0521
 3162W        W 4159   6.193   3.604   6.503  0.0750  0.3754 -0.0755
 3163W        W 4160   4.699   5.836   2.733  0.0399 -0.0865  0.1381
 3164W        W 4161   3.085   2.913   4.864 -0.3101  0.0656 -0.0152
 3165W        W 4162   4.801   0.950   5.817  0.0686  0.2320  0.0019
 3166W        W 4163   4.539   3.190   6.098 -0.0910  0.1693 -0.2893
 3167W        W 4164   5.792   3.406   4.885  0.2243 -0.4582  0.3307
 3168W        W 4165   4.972   7.399   2.570  0.1287 -0.3171  0.1595
 3169W        W 4166   0.121   4.913   5.004  0.1185 -0.0711  0.0220
 3170W        W 4167   2.131   2.069   5.281 -0.1241  0.0801  0.1348
 3171W        W 4168   7.359   1.161   5.318  0.0316  0.1534 -0.2542
 3172W        W 4169   4.646   0.575   2.068 -0.4774 -0.0411 -0.1108
 3173W        W 4170   1.403   6.533   4.852  0.0210 -0.0886 -0.3162
 3174W        W 4171   0.837   5.234   1.930 -0.0711 -0.0367  0.2105
 3175W        W 4172   4.716   3.752   1.981 -0.0810 -0.2544  0.0784
 3176W        W 4173   4.567   1.951   5.451 -0.1596  0.0924 -0.2786
 3177W        W 4174   4.137   2.698   3.056  0.1251  0.2970  0.1918
 3178W        W 4175   7.069   5.782   7.319  0.0203  0.0469 -0.0463
 3179W        W 4176   1.230   4.150   6.044  0.0880 -0.0634 -0.2029
 3180W        W 4177   0.767   5.910   4.690 -0.1382 -0.0016 -0.2232
 3181W        W 4178   2.105   6.107   3.589  0.0693 -0.1370  0.2593
 3182W        W 4179   7.430   0.070   0.178  0.1944  0.0272 -0.0734
 3183W        W 4180   7.214   4.236   5.523  0.1922  0.1159  0.0108
 3184W        W 4181   3.042   5.885   2.477  0.1346  0.0612  0.1110
 3185W        W 4182   7.417   6.699   0.218  0.4078 -0.0694  0.1399
 3186W        W 4183   7.549   2.721   5.369  0.0640 -0.1068 -0.3254
 3187W        W 4184   5.032   3.310   5.433  0.0694  0.2228 -0.0591
 3188W        W 4185   1.842   4.423   2.419  0.0283  0.3232  0.0727
 3189W        W 4186   6.122   4.791   1.310 -0.1173  0.1312  0.0697
 3190W        W 4187   2.760   2.051   1.257 -0.0695 -0.3288  0.3079
 3191W        W 4188   4.670   4.030   4.420  0.3934 -0.1649  0.3258
 3192W        W 4189   3.137   7.550   4.969 -0.1001  0.0920 -0.0405
 3193W        W 4190   7.432   0.820   4.008 -0.2128 -0.0506  0.0066
 3194W        W 4191   1.947   4.404   6.520 -0.0317  0.0341  0.1010
 3195W        W 4192   5.422   7.290   3.224  0.4794  0.0175  0.0970
 3196W        W 4193   7.567   1.951   5.732 -0.3825  0.1439  0.2613
 3197W        W 4194   2.418   4.335   2.932  0.1202  0.2898 -0.0341
 3198W        W 4195   2.281   6.803   6.925  0.5093  0.2604 -0.0767
   7.63541   7.63541   7.63541
