Martini system from ../2_Creating_coordinates/TYR-ARG-TYR_aa.pdb
 4240
    1TYR     BB    1   1.653   3.077   5.354
    1TYR    SC1    2   1.752   3.097   5.658
    1TYR    SC2    3   1.690   3.105   5.920
    1TYR    SC3    4   1.928   3.200   5.835
    2ARG     BB    5   1.380   3.216   5.351
    2ARG    SC1    6   1.285   3.328   5.068
    2ARG    SC2    7   1.073   3.332   4.809
    3TYR     BB    8   1.218   3.219   5.607
    3TYR    SC1    9   1.247   2.942   5.752
    3TYR    SC2   10   1.353   2.817   5.967
    3TYR    SC3   11   1.143   2.708   5.837
    1TYR     BB   12   6.244   3.736   0.768
    1TYR    SC1   13   5.979   3.629   0.871
    1TYR    SC2   14   5.714   3.579   0.861
    1TYR    SC3   15   5.825   3.671   1.089
    2ARG     BB   16   6.464   3.515   0.873
    2ARG    SC1   17   6.667   3.649   1.074
    2ARG    SC2   18   6.902   3.851   0.975
    3TYR     BB   19   6.430   3.240   0.804
    3TYR    SC1   20   6.131   3.144   0.843
    3TYR    SC2   21   5.868   3.168   0.785
    3TYR    SC3   22   5.965   2.934   0.880
    1TYR     BB   23   6.248   5.416   1.695
    1TYR    SC1   24   6.127   5.125   1.684
    1TYR    SC2   25   5.918   4.973   1.763
    1TYR    SC3   26   6.081   4.887   1.565
    2ARG     BB   27   6.110   5.539   1.425
    2ARG    SC1   28   5.958   5.819   1.448
    2ARG    SC2   29   6.011   6.134   1.387
    3TYR     BB   30   5.893   5.348   1.298
    3TYR    SC1   31   5.950   5.363   0.992
    3TYR    SC2   32   5.862   5.337   0.738
    3TYR    SC3   33   6.127   5.352   0.788
    1TYR     BB   34   4.789   2.127   7.844
    1TYR    SC1   35   4.891   1.890   0.040
    1TYR    SC2   36   4.844   1.666   0.183
    1TYR    SC3   37   5.093   1.719   0.093
    2ARG     BB   38   4.529   2.230   7.973
    2ARG    SC1   39   4.236   2.263   7.836
    2ARG    SC2   40   4.054   1.990   7.860
    3TYR     BB   41   4.463   2.060   0.237
    3TYR    SC1   42   4.408   1.784   0.123
    3TYR    SC2   43   4.382   1.516   0.105
    3TYR    SC3   44   4.471   1.657   7.893
    1TYR     BB   45   2.977   2.495   1.155
    1TYR    SC1   46   3.076   2.405   0.875
    1TYR    SC2   47   3.276   2.353   0.701
    1TYR    SC3   48   3.044   2.457   0.612
    2ARG     BB   49   2.696   2.396   1.236
    2ARG    SC1   50   2.590   2.560   1.495
    2ARG    SC2   51   2.639   2.622   1.825
    3TYR     BB   52   2.580   2.108   1.195
    3TYR    SC1   53   2.317   2.142   1.029
    3TYR    SC2   54   2.061   2.217   0.984
    3TYR    SC3   55   2.205   2.100   0.787
    1TYR     BB   56   4.726   1.906   2.116
    1TYR    SC1   57   4.717   1.606   2.207
    1TYR    SC2   58   4.768   1.341   2.190
    1TYR    SC3   59   4.608   1.435   2.385
    2ARG     BB   60   4.747   2.056   2.397
    2ARG    SC1   61   4.865   2.331   2.511
    2ARG    SC2   62   4.870   2.351   2.852
    3TYR     BB   63   4.750   1.872   2.642
    3TYR    SC1   64   4.542   1.910   2.855
    3TYR    SC2   65   4.450   1.820   3.092
    3TYR    SC3   66   4.281   1.937   2.916
    1TYR     BB   67   5.503   5.366   2.820
    1TYR    SC1   68   5.567   5.633   2.965
    1TYR    SC2   69   5.494   5.818   3.148
    1TYR    SC3   70   5.756   5.771   3.100
    2ARG     BB   71   5.365   5.204   3.076
    2ARG    SC1   72   5.366   4.898   3.049
    2ARG    SC2   73   5.322   4.625   2.881
    3TYR     BB   74   5.275   5.348   3.310
    3TYR    SC1   75   5.502   5.505   3.461
    3TYR    SC2   76   5.557   5.611   3.703
    3TYR    SC3   77   5.751   5.593   3.516
    1TYR     BB   78   7.283   7.061   6.410
    1TYR    SC1   79   7.480   7.290   6.316
    1TYR    SC2   80   7.624   7.410   6.121
    1TYR    SC3   81   7.708   7.420   6.378
    2ARG     BB   82   7.145   7.188   6.688
    2ARG    SC1   83   7.185   6.949   6.895
    2ARG    SC2   84   7.062   6.800   7.160
    3TYR     BB   85   7.258   7.452   6.791
    3TYR    SC1   86   7.338   7.657   6.579
    3TYR    SC2   87   7.393   7.765   6.338
    3TYR    SC3   88   7.400   7.919   6.560
    1TYR     BB   89   4.248   7.211   1.215
    1TYR    SC1   90   4.154   7.009   0.994
    1TYR    SC2   91   4.197   6.857   0.775
    1TYR    SC3   92   3.983   6.810   0.932
    2ARG     BB   93   4.530   7.305   1.090
    2ARG    SC1   94   4.496   7.605   0.963
    2ARG    SC2   95   4.669   7.653   0.674
    3TYR     BB   96   4.625   7.138   0.839
    3TYR    SC1   97   4.661   6.843   0.743
    3TYR    SC2   98   4.787   6.700   0.552
    3TYR    SC3   99   4.577   6.593   0.684
    1TYR     BB  100   4.223   6.872   6.896
    1TYR    SC1  101   4.470   6.708   6.996
    1TYR    SC2  102   4.717   6.621   6.932
    1TYR    SC3  103   4.563   6.478   7.101
    2ARG     BB  104   4.212   6.914   6.580
    2ARG    SC1  105   3.959   7.118   6.533
    2ARG    SC2  106   3.756   7.255   6.304
    3TYR     BB  107   4.406   6.859   6.329
    3TYR    SC1  108   4.657   6.723   6.425
    3TYR    SC2  109   4.813   6.503   6.444
    3TYR    SC3  110   4.907   6.742   6.527
    1TYR     BB  111   1.844   3.857   6.457
    1TYR    SC1  112   1.963   3.676   6.675
    1TYR    SC2  113   2.090   3.452   6.756
    1TYR    SC3  114   2.099   3.676   6.908
    2ARG     BB  115   2.096   3.858   6.255
    2ARG    SC1  116   2.009   4.010   5.993
    2ARG    SC2  117   2.084   3.855   5.727
    3TYR     BB  118   2.181   3.568   6.166
    3TYR    SC1  119   2.210   3.306   6.323
    3TYR    SC2  120   2.229   3.097   6.494
    3TYR    SC3  121   2.162   3.055   6.236
    1TYR     BB  122   4.602   2.565   6.002
    1TYR    SC1  123   4.729   2.542   6.280
    1TYR    SC2  124   4.734   2.633   6.534
    1TYR    SC3  125   4.688   2.371   6.485
    2ARG     BB  126   4.303   2.415   6.104
    2ARG    SC1  127   4.184   2.658   6.274
    2ARG    SC2  128   3.901   2.605   6.402
    3TYR     BB  129   4.205   2.179   6.343
    3TYR    SC1  130   4.412   2.008   6.471
    3TYR    SC2  131   4.407   1.821   6.666
    3TYR    SC3  132   4.588   1.803   6.466
    1TYR     BB  133   5.995   7.615   6.320
    1TYR    SC1  134   6.143   7.357   6.413
    1TYR    SC2  135   6.329   7.240   6.569
    1TYR    SC3  136   6.299   7.161   6.313
    2ARG     BB  137   6.137   7.867   6.535
    2ARG    SC1  138   5.950   0.098   6.416
    2ARG    SC2  139   5.654   0.200   6.498
    3TYR     BB  140   6.249   7.705   6.777
    3TYR    SC1  141   6.137   7.785   7.054
    3TYR    SC2  142   6.166   7.888   7.302
    3TYR    SC3  143   5.957   7.726   7.247
    1TYR     BB  144   1.021   6.196   6.981
    1TYR    SC1  145   0.813   6.353   6.816
    1TYR    SC2  146   0.576   6.297   6.700
    1TYR    SC3  147   0.735   6.488   6.596
    2ARG     BB  148   0.844   5.908   7.056
    2ARG    SC1  149   0.974   5.835   7.340
    2ARG    SC2  150   0.993   5.863   7.676
    3TYR     BB  151   0.544   5.821   6.956
    3TYR    SC1  152   0.490   5.775   6.652
    3TYR    SC2  153   0.542   5.655   6.415
    3TYR    SC3  154   0.324   5.811   6.442
    1TYR     BB  155   6.689   0.614   6.832
    1TYR    SC1  156   6.620   0.310   6.856
    1TYR    SC2  157   6.489   0.103   6.969
    1TYR    SC3  158   6.579   0.083   6.716
    2ARG     BB  159   6.771   0.679   6.499
    2ARG    SC1  160   6.953   0.957   6.487
    2ARG    SC2  161   7.044   1.273   6.603
    3TYR     BB  162   6.886   0.491   6.236
    3TYR    SC1  163   7.200   0.491   6.243
    3TYR    SC2  164   7.452   0.575   6.290
    3TYR    SC3  165   7.398   0.311   6.279
    1TYR     BB  166   6.456   2.134   5.169
    1TYR    SC1  167   6.323   2.346   4.976
    1TYR    SC2  168   6.263   2.393   4.717
    1TYR    SC3  169   6.139   2.533   4.911
    2ARG     BB  170   6.719   2.037   4.985
    2ARG    SC1  171   6.905   1.796   5.080
    2ARG    SC2  172   7.171   1.643   5.209
    3TYR     BB  173   6.798   2.266   4.773
    3TYR    SC1  174   6.642   2.195   4.524
    3TYR    SC2  175   6.613   2.176   4.257
    3TYR    SC3  176   6.415   2.092   4.420
    1TYR     BB  177   3.775   6.942   5.699
    1TYR    SC1  178   3.798   7.193   5.524
    1TYR    SC2  179   3.925   7.431   5.527
    1TYR    SC3  180   3.823   7.335   5.296
    2ARG     BB  181   4.025   7.038   5.945
    2ARG    SC1  182   3.960   6.811   6.145
    2ARG    SC2  183   3.979   6.541   6.312
    3TYR     BB  184   4.333   7.113   5.853
    3TYR    SC1  185   4.288   7.107   5.538
    3TYR    SC2  186   4.264   7.220   5.294
    3TYR    SC3  187   4.155   6.978   5.342
    1TYR     BB  188   0.436   5.938   3.915
    1TYR    SC1  189   0.743   5.948   3.889
    1TYR    SC2  190   1.004   5.922   3.953
    1TYR    SC3  191   0.933   6.037   3.719
    2ARG     BB  192   0.387   6.028   4.228
    2ARG    SC1  193   0.069   5.942   4.254
    2ARG    SC2  194   7.758   5.971   4.363
    3TYR     BB  195   0.669   6.029   4.411
    3TYR    SC1  196   0.802   5.762   4.327
    3TYR    SC2  197   0.985   5.571   4.273
    3TYR    SC3  198   0.739   5.557   4.163
    1TYR     BB  199   6.295   3.635   3.211
    1TYR    SC1  200   6.467   3.780   2.996
    1TYR    SC2  201   6.590   3.799   2.757
    1TYR    SC3  202   6.570   4.016   2.916
    2ARG     BB  203   6.215   3.349   3.033
    2ARG    SC1  204   5.935   3.278   3.161
    2ARG    SC2  205   5.697   3.130   3.026
    3TYR     BB  206   6.074   3.437   2.716
    3TYR    SC1  207   6.086   3.746   2.744
    3TYR    SC2  208   6.181   3.942   2.584
    3TYR    SC3  209   6.108   3.998   2.837
    1TYR     BB  210   7.447   0.802   4.197
    1TYR    SC1  211   7.503   0.818   4.511
    1TYR    SC2  212   7.624   0.869   4.747
    1TYR    SC3  213   7.480   0.642   4.714
    2ARG     BB  214   7.693   0.946   4.061
    2ARG    SC1  215   7.594   1.103   3.793
    2ARG    SC2  216   7.687   1.362   3.597
    3TYR     BB  217   7.953   0.963   4.290
    3TYR    SC1  218   7.854   1.186   4.473
    3TYR    SC2  219   7.908   1.436   4.558
    3TYR    SC3  220   7.698   1.301   4.660
    1TYR     BB  221   3.235   1.052   4.676
    1TYR    SC1  222   3.125   1.328   4.770
    1TYR    SC2  223   3.219   1.580   4.788
    1TYR    SC3  224   2.954   1.536   4.759
    2ARG     BB  225   3.303   1.159   4.363
    2ARG    SC1  226   3.528   1.403   4.353
    2ARG    SC2  227   3.755   1.421   4.106
    3TYR     BB  228   3.044   1.323   4.253
    3TYR    SC1  229   3.073   1.619   4.327
    3TYR    SC2  230   3.221   1.829   4.410
    3TYR    SC3  231   3.033   1.863   4.219
    1TYR     BB  232   3.281   4.374   6.018
    1TYR    SC1  233   3.439   4.331   6.288
    1TYR    SC2  234   3.424   4.291   6.554
    1TYR    SC3  235   3.637   4.418   6.448
    2ARG     BB  236   3.376   4.127   5.841
    2ARG    SC1  237   3.251   4.073   5.564
    2ARG    SC2  238   3.076   3.802   5.522
    3TYR     BB  239   3.365   3.851   6.017
    3TYR    SC1  240   3.653   3.862   6.144
    3TYR    SC2  241   3.896   3.757   6.196
    3TYR    SC3  242   3.829   3.999   6.295
    1TYR     BB  243   1.723   0.635   4.697
    1TYR    SC1  244   1.792   0.919   4.582
    1TYR    SC2  245   1.725   1.046   4.354
    1TYR    SC3  246   1.777   1.188   4.577
    2ARG     BB  247   1.407   0.609   4.550
    2ARG    SC1  248   1.237   0.357   4.650
    2ARG    SC2  249   1.111   0.192   4.909
    3TYR     BB  250   1.275   0.884   4.506
    3TYR    SC1  251   1.343   1.060   4.747
    3TYR    SC2  252   1.379   1.304   4.857
    3TYR    SC3  253   1.527   1.095   4.942
    1TYR     BB  254   3.073   6.252   2.980
    1TYR    SC1  255   3.250   6.370   2.759
    1TYR    SC2  256   3.439   6.522   2.641
    1TYR    SC3  257   3.207   6.469   2.512
    2ARG     BB  258   3.153   5.949   3.014
    2ARG    SC1  259   2.908   5.834   3.205
    2ARG    SC2  260   2.668   5.731   3.412
    3TYR     BB  261   3.453   5.922   3.139
    3TYR    SC1  262   3.652   6.042   2.944
    3TYR    SC2  263   3.823   6.234   2.861
    3TYR    SC3  264   3.655   6.117   2.685
    1TYR     BB  265   3.799   4.395   3.162
    1TYR    SC1  266   3.566   4.289   3.336
    1TYR    SC2  267   3.331   4.353   3.453
    1TYR    SC3  268   3.378   4.099   3.373
    2ARG     BB  269   3.619   4.580   2.941
    2ARG    SC1  270   3.761   4.857   2.957
    2ARG    SC2  271   3.593   5.125   3.027
    3TYR     BB  272   3.318   4.635   2.991
    3TYR    SC1  273   3.142   4.386   3.013
    3TYR    SC2  274   2.955   4.261   2.863
    3TYR    SC3  275   3.020   4.164   3.106
    1TYR     BB  276   5.935   0.129   3.097
    1TYR    SC1  277   5.832   0.417   3.123
    1TYR    SC2  278   5.940   0.664   3.130
    1TYR    SC3  279   5.683   0.632   3.055
    2ARG     BB  280   5.900   7.991   3.391
    2ARG    SC1  281   5.777   7.693   3.349
    2ARG    SC2  282   5.516   7.478   3.359
    3TYR     BB  283   5.969   0.166   3.639
    3TYR    SC1  284   5.890   0.461   3.580
    3TYR    SC2  285   5.690   0.639   3.544
    3TYR    SC3  286   5.942   0.726   3.587
    1TYR     BB  287   4.682   3.250   1.379
    1TYR    SC1  288   4.568   3.380   1.628
    1TYR    SC2  289   4.617   3.556   1.826
    1TYR    SC3  290   4.367   3.464   1.788
    2ARG     BB  291   4.979   3.379   1.344
    2ARG    SC1  292   5.226   3.170   1.397
    2ARG    SC2  293   5.449   3.188   1.666
    3TYR     BB  294   4.975   3.728   1.340
    3TYR    SC1  295   4.692   3.784   1.435
    3TYR    SC2  296   4.493   3.893   1.581
    3TYR    SC3  297   4.436   3.757   1.355
    1TYR     BB  298   5.272   4.344   3.793
    1TYR    SC1  299   5.315   4.063   3.644
    1TYR    SC2  300   5.228   3.807   3.644
    1TYR    SC3  301   5.454   3.873   3.511
    2ARG     BB  302   4.953   4.408   3.756
    2ARG    SC1  303   4.840   4.516   4.043
    2ARG    SC2  304   4.817   4.728   4.306
    3TYR     BB  305   4.791   4.154   3.662
    3TYR    SC1  306   4.870   4.029   3.392
    3TYR    SC2  307   5.003   3.842   3.249
    3TYR    SC3  308   4.833   4.011   3.125
    1TYR     BB  309   5.599   1.661   3.820
    1TYR    SC1  310   5.511   1.941   3.919
    1TYR    SC2  311   5.311   2.083   4.034
    1TYR    SC3  312   5.567   2.165   4.059
    2ARG     BB  313   5.315   1.504   3.837
    2ARG    SC1  314   5.244   1.416   3.541
    2ARG    SC2  315   4.972   1.501   3.394
    3TYR     BB  316   5.150   1.570   4.105
    3TYR    SC1  317   5.372   1.696   4.298
    3TYR    SC2  318   5.485   1.727   4.541
    3TYR    SC3  319   5.638   1.741   4.318
    1TYR     BB  320   2.548   7.035   4.546
    1TYR    SC1  321   2.342   6.846   4.403
    1TYR    SC2  322   2.113   6.864   4.262
    1TYR    SC3  323   2.277   6.653   4.226
    2ARG     BB  324   2.599   7.257   4.317
    2ARG    SC1  325   2.765   7.505   4.443
    2ARG    SC2  326   2.940   7.777   4.359
    3TYR     BB  327   2.549   7.226   4.010
    3TYR    SC1  328   2.418   6.968   3.912
    3TYR    SC2  329   2.213   6.835   3.797
    3TYR    SC3  330   2.465   6.740   3.775
    1TYR     BB  331   7.035   4.259   0.047
    1TYR    SC1  332   6.988   4.477   0.266
    1TYR    SC2  333   6.939   4.729   0.351
    1TYR    SC3  334   7.042   4.547   0.522
    2ARG     BB  335   6.747   4.208   7.882
    2ARG    SC1  336   6.777   4.415   7.623
    2ARG    SC2  337   6.777   4.533   7.301
    3TYR     BB  338   6.528   4.153   0.116
    3TYR    SC1  339   6.591   4.294   0.392
    3TYR    SC2  340   6.580   4.519   0.542
    3TYR    SC3  341   6.683   4.291   0.646
    1TYR     BB  342   3.318   4.126   1.096
    1TYR    SC1  343   3.040   4.017   1.199
    1TYR    SC2  344   2.926   3.773   1.215
    1TYR    SC3  345   2.853   3.967   1.387
    2ARG     BB  346   3.501   4.015   1.335
    2ARG    SC1  347   3.798   3.948   1.240
    2ARG    SC2  348   3.955   3.785   1.468
    3TYR     BB  349   3.389   3.713   1.423
    3TYR    SC1  350   3.180   3.772   1.634
    3TYR    SC2  351   3.100   3.645   1.859
    3TYR    SC3  352   3.040   3.906   1.823
    1TYR     BB  353   5.553   3.323   6.695
    1TYR    SC1  354   5.471   3.495   6.448
    1TYR    SC2  355   5.493   3.598   6.199
    1TYR    SC3  356   5.274   3.457   6.267
    2ARG     BB  357   5.442   3.026   6.515
    2ARG    SC1  358   5.573   2.803   6.683
    2ARG    SC2  359   5.765   2.599   6.517
    3TYR     BB  360   5.461   2.932   6.206
    3TYR    SC1  361   5.305   3.096   5.983
    3TYR    SC2  362   5.282   3.329   5.848
    3TYR    SC3  363   5.237   3.095   5.721
    1TYR     BB  364   2.356   6.260   6.682
    1TYR    SC1  365   2.157   6.097   6.514
    1TYR    SC2  366   2.161   5.895   6.334
    1TYR    SC3  367   1.970   6.085   6.319
    2ARG     BB  368   2.575   6.322   6.414
    2ARG    SC1  369   2.862   6.450   6.410
    2ARG    SC2  370   3.078   6.462   6.178
    3TYR     BB  371   2.538   6.172   6.170
    3TYR    SC1  372   2.305   6.244   5.996
    3TYR    SC2  373   2.062   6.348   5.938
    3TYR    SC3  374   2.234   6.289   5.739
    1TYR     BB  375   0.620   2.732   3.008
    1TYR    SC1  376   0.730   2.799   2.726
    1TYR    SC2  377   0.935   2.796   2.550
    1TYR    SC3  378   0.692   2.884   2.472
    2ARG     BB  379   0.306   2.616   2.943
    2ARG    SC1  380   0.254   2.430   3.205
    2ARG    SC2  381   0.044   2.235   3.381
    3TYR     BB  382   0.285   2.442   2.683
    3TYR    SC1  383   0.576   2.361   2.606
    3TYR    SC2  384   0.833   2.353   2.688
    3TYR    SC3  385   0.734   2.154   2.535
    1TYR     BB  386   6.387   4.145   6.094
    1TYR    SC1  387   6.536   4.379   6.234
    1TYR    SC2  388   6.525   4.646   6.269
    1TYR    SC3  389   6.631   4.489   6.461
    2ARG     BB  390   6.143   4.082   6.322
    2ARG    SC1  391   5.837   4.100   6.194
    2ARG    SC2  392   5.581   4.109   5.995
    3TYR     BB  393   6.110   4.325   6.532
    3TYR    SC1  394   6.279   4.427   6.762
    3TYR    SC2  395   6.267   4.444   7.031
    3TYR    SC3  396   6.394   4.635   6.889
    1TYR     BB  397   3.479   4.978   4.161
    1TYR    SC1  398   3.279   4.957   3.925
    1TYR    SC2  399   3.145   4.793   3.757
    1TYR    SC3  400   3.014   4.992   3.884
    2ARG     BB  401   3.347   4.715   4.343
    2ARG    SC1  402   3.538   4.669   4.590
    2ARG    SC2  403   3.564   4.719   4.903
    3TYR     BB  404   3.044   4.676   4.280
    3TYR    SC1  405   2.768   4.576   4.382
    3TYR    SC2  406   2.625   4.350   4.345
    3TYR    SC3  407   2.499   4.588   4.362
    1TYR     BB  408   4.622   5.507   4.863
    1TYR    SC1  409   4.906   5.430   4.919
    1TYR    SC2  410   5.075   5.247   4.814
    1TYR    SC3  411   5.173   5.463   4.943
    2ARG     BB  412   4.643   5.265   4.542
    2ARG    SC1  413   4.528   4.976   4.635
    2ARG    SC2  414   4.232   4.834   4.702
    3TYR     BB  415   4.561   5.312   4.255
    3TYR    SC1  416   4.670   5.513   4.056
    3TYR    SC2  417   4.669   5.646   3.821
    3TYR    SC3  418   4.713   5.780   4.051
    1TYR     BB  419   6.543   3.345   5.452
    1TYR    SC1  420   6.549   3.539   5.710
    1TYR    SC2  421   6.439   3.681   5.911
    1TYR    SC3  422   6.643   3.512   5.961
    2ARG     BB  423   6.494   3.069   5.683
    2ARG    SC1  424   6.565   2.813   5.507
    2ARG    SC2  425   6.349   2.573   5.412
    3TYR     BB  426   6.282   3.159   5.999
    3TYR    SC1  427   6.528   3.104   6.182
    3TYR    SC2  428   6.703   2.991   6.354
    3TYR    SC3  429   6.791   3.096   6.121
    1TYR     BB  430   2.075   6.464   2.325
    1TYR    SC1  431   2.072   6.777   2.328
    1TYR    SC2  432   1.973   7.022   2.270
    1TYR    SC3  433   2.117   6.984   2.496
    2ARG     BB  434   1.867   6.411   2.577
    2ARG    SC1  435   1.782   6.108   2.588
    2ARG    SC2  436   1.656   5.841   2.444
    3TYR     BB  437   1.803   6.649   2.738
    3TYR    SC1  438   1.954   6.791   2.964
    3TYR    SC2  439   1.982   7.015   3.112
    3TYR    SC3  440   2.046   6.774   3.217
    1TYR     BB  441   2.896   5.879   7.788
    1TYR    SC1  442   2.825   5.655   7.582
    1TYR    SC2  443   2.613   5.525   7.479
    1TYR    SC3  444   2.852   5.511   7.356
    2ARG     BB  445   2.593   5.945   7.897
    2ARG    SC1  446   2.619   5.966   0.231
    2ARG    SC2  447   2.425   6.068   0.499
    3TYR     BB  448   2.358   5.993   7.649
    3TYR    SC1  449   2.448   5.942   7.349
    3TYR    SC2  450   2.322   5.953   7.110
    3TYR    SC3  451   2.553   5.816   7.135
    1TYR     BB  452   6.546   4.002   2.038
    1TYR    SC1  453   6.557   3.810   1.791
    1TYR    SC2  454   6.474   3.647   1.593
    1TYR    SC3  455   6.635   3.856   1.537
    2ARG     BB  456   6.420   4.266   1.871
    2ARG    SC1  457   6.458   4.519   2.048
    2ARG    SC2  458   6.377   4.819   1.988
    3TYR     BB  459   6.310   4.240   1.608
    3TYR    SC1  460   6.210   4.028   1.419
    3TYR    SC2  461   6.088   4.027   1.178
    3TYR    SC3  462   6.234   3.814   1.256
    1TYR     BB  463   7.142   5.406   3.038
    1TYR    SC1  464   7.267   5.417   3.330
    1TYR    SC2  465   7.464   5.503   3.495
    1TYR    SC3  466   7.263   5.350   3.592
    2ARG     BB  467   7.112   5.721   2.989
    2ARG    SC1  468   6.846   5.792   2.841
    2ARG    SC2  469   6.525   5.870   2.848
    3TYR     BB  470   7.383   5.864   3.074
    3TYR    SC1  471   7.347   5.929   3.372
    3TYR    SC2  472   7.443   5.973   3.621
    3TYR    SC3  473   7.203   5.853   3.588
    1TYR     BB  474   4.472   6.202   4.189
    1TYR    SC1  475   4.213   6.190   4.365
    1TYR    SC2  476   4.132   6.231   4.620
    1TYR    SC3  477   3.956   6.253   4.417
    2ARG     BB  478   4.709   6.141   4.450
    2ARG    SC1  479   4.983   6.113   4.310
    2ARG    SC2  480   5.295   6.089   4.408
    3TYR     BB  481   4.645   6.093   4.774
    3TYR    SC1  482   4.441   6.262   4.955
    3TYR    SC2  483   4.321   6.262   5.197
    3TYR    SC3  484   4.264   6.456   5.017
    1TYR     BB  485   1.092   7.873   1.038
    1TYR    SC1  486   1.014   7.851   0.742
    1TYR    SC2  487   0.946   7.699   0.530
    1TYR    SC3  488   0.840   7.946   0.558
    2ARG     BB  489   0.847   7.617   1.128
    2ARG    SC1  490   1.028   7.403   1.283
    2ARG    SC2  491   1.086   7.086   1.244
    3TYR     BB  492   0.687   7.450   0.884
    3TYR    SC1  493   0.528   7.580   0.655
    3TYR    SC2  494   0.291   7.672   0.562
    3TYR    SC3  495   0.505   7.662   0.399
    1TYR     BB  496   5.012   4.347   7.912
    1TYR    SC1  497   4.991   4.163   0.153
    1TYR    SC2  498   4.923   4.138   0.413
    1TYR    SC3  499   4.877   3.935   0.242
    2ARG     BB  500   4.697   4.350   7.803
    2ARG    SC1  501   4.634   4.665   7.795
    2ARG    SC2  502   4.555   4.952   7.930
    3TYR     BB  503   4.480   4.235   0.022
    3TYR    SC1  504   4.441   3.933   0.037
    3TYR    SC2  505   4.517   3.689   0.124
    3TYR    SC3  506   4.308   3.713   7.955
    1TYR     BB  507   6.449   0.104   3.879
    1TYR    SC1  508   6.216   0.022   4.069
    1TYR    SC2  509   6.051   0.029   4.282
    1TYR    SC3  510   5.985   7.882   4.065
    2ARG     BB  511   6.375   0.421   3.800
    2ARG    SC1  512   6.661   0.553   3.765
    2ARG    SC2  513   6.711   0.859   3.690
    3TYR     BB  514   6.198   0.550   3.992
    3TYR    SC1  515   6.207   0.472   4.287
    3TYR    SC2  516   6.068   0.427   4.514
    3TYR    SC3  517   6.325   0.509   4.527
    1TYR     BB  518   2.937   6.166   1.374
    1TYR    SC1  519   3.171   6.234   1.605
    1TYR    SC2  520   3.391   6.159   1.743
    1TYR    SC3  521   3.294   6.410   1.769
    2ARG     BB  522   3.105   6.146   1.122
    2ARG    SC1  523   2.967   6.098   0.839
    2ARG    SC2  524   2.886   6.256   0.568
    3TYR     BB  525   3.333   6.310   1.112
    3TYR    SC1  526   3.484   6.424   1.341
    3TYR    SC2  527   3.694   6.418   1.510
    3TYR    SC3  528   3.563   6.650   1.466
    1TYR     BB  529   1.411   0.401   6.722
    1TYR    SC1  530   1.493   0.614   6.930
    1TYR    SC2  531   1.513   0.867   7.022
    1TYR    SC3  532   1.524   0.659   7.194
    2ARG     BB  533   1.417   0.126   6.913
    2ARG    SC1  534   1.359   7.896   6.695
    2ARG    SC2  535   1.355   7.568   6.710
    3TYR     BB  536   1.242   0.119   7.153
    3TYR    SC1  537   1.277   0.323   7.370
    3TYR    SC2  538   1.161   0.498   7.539
    3TYR    SC3  539   1.413   0.412   7.585
    1TYR     BB  540   3.345   5.110   5.683
    1TYR    SC1  541   3.333   5.358   5.875
    1TYR    SC2  542   3.366   5.346   6.142
    1TYR    SC3  543   3.277   5.574   6.027
    2ARG     BB  544   3.416   4.854   5.918
    2ARG    SC1  545   3.662   4.652   5.852
    2ARG    SC2  546   3.797   4.371   5.950
    3TYR     BB  547   3.412   4.832   6.235
    3TYR    SC1  548   3.566   5.029   6.411
    3TYR    SC2  549   3.573   5.137   6.658
    3TYR    SC3  550   3.698   5.261   6.454
    1TYR     BB  551   6.483   0.119   1.136
    1TYR    SC1  552   6.682   0.142   1.362
    1TYR    SC2  553   6.764   0.267   1.587
    1TYR    SC3  554   6.928   0.094   1.461
    2ARG     BB  555   6.174   0.125   1.252
    2ARG    SC1  556   6.024   0.000   0.986
    2ARG    SC2  557   6.120   0.027   0.667
    3TYR     BB  558   6.144   0.104   1.571
    3TYR    SC1  559   6.400   7.974   1.683
    3TYR    SC2  560   6.593   7.951   1.871
    3TYR    SC3  561   6.602   7.798   1.649
    1TYR     BB  562   4.565   1.617   5.843
    1TYR    SC1  563   4.713   1.352   5.779
    1TYR    SC2  564   4.940   1.251   5.673
    1TYR    SC3  565   4.757   1.085   5.782
    2ARG     BB  566   4.801   1.775   6.014
    2ARG    SC1  567   4.687   2.072   6.021
    2ARG    SC2  568   4.650   2.170   5.701
    3TYR     BB  569   4.952   1.613   6.194
    3TYR    SC1  570   5.058   1.346   6.113
    3TYR    SC2  571   5.272   1.214   6.013
    3TYR    SC3  572   5.063   1.077   6.115
    1TYR     BB  573   1.965   5.828   0.614
    1TYR    SC1  574   1.928   6.127   0.559
    1TYR    SC2  575   2.032   6.371   0.613
    1TYR    SC3  576   1.941   6.314   0.365
    2ARG     BB  577   2.150   5.794   0.876
    2ARG    SC1  578   2.204   5.470   0.919
    2ARG    SC2  579   2.070   5.171   0.994
    3TYR     BB  580   2.054   5.879   1.170
    3TYR    SC1  581   2.062   6.179   1.211
    3TYR    SC2  582   2.066   6.405   1.064
    3TYR    SC3  583   2.101   6.418   1.331
    1TYR     BB  584   6.331   2.473   2.815
    1TYR    SC1  585   6.141   2.674   2.669
    1TYR    SC2  586   5.960   2.732   2.477
    1TYR    SC3  587   6.034   2.921   2.656
    2ARG     BB  588   6.473   2.311   2.547
    2ARG    SC1  589   6.710   2.100   2.542
    2ARG    SC2  590   7.025   2.083   2.619
    3TYR     BB  591   6.281   2.335   2.269
    3TYR    SC1  592   6.016   2.251   2.421
    3TYR    SC2  593   5.854   2.053   2.507
    3TYR    SC3  594   5.860   2.290   2.637
    1TYR     BB  595   7.269   5.606   5.651
    1TYR    SC1  596   7.013   5.696   5.806
    1TYR    SC2  597   6.747   5.737   5.787
    1TYR    SC3  598   6.863   5.710   6.029
    2ARG     BB  599   7.457   5.396   5.833
    2ARG    SC1  600   7.600   5.208   5.608
    2ARG    SC2  601   7.654   4.946   5.427
    3TYR     BB  602   7.286   5.161   5.996
    3TYR    SC1  603   6.995   5.252   5.925
    3TYR    SC2  604   6.799   5.287   5.742
    3TYR    SC3  605   6.737   5.261   6.004
    1TYR     BB  606   1.024   5.100   7.988
    1TYR    SC1  607   1.321   5.020   0.045
    1TYR    SC2  608   1.552   5.020   7.906
    1TYR    SC3  609   1.555   4.971   0.171
    2ARG     BB  610   1.091   5.363   7.754
    2ARG    SC1  611   0.820   5.389   7.568
    2ARG    SC2  612   0.686   5.417   7.251
    3TYR     BB  613   1.369   5.536   7.848
    3TYR    SC1  614   1.363   5.458   0.154
    3TYR    SC2  615   1.458   5.361   0.387
    3TYR    SC3  616   1.195   5.415   0.361
    1TYR     BB  617   6.930   6.276   4.552
    1TYR    SC1  618   6.792   6.363   4.295
    1TYR    SC2  619   6.595   6.321   4.115
    1TYR    SC3  620   6.830   6.430   4.037
    2ARG     BB  621   7.240   6.371   4.491
    2ARG    SC1  622   7.307   6.582   4.732
    2ARG    SC2  623   7.313   6.880   4.881
    3TYR     BB  624   7.267   6.574   4.213
    3TYR    SC1  625   7.457   6.448   4.002
    3TYR    SC2  626   7.576   6.430   3.761
    3TYR    SC3  627   7.649   6.263   3.960
    1TYR     BB  628   2.499   1.638   5.468
    1TYR    SC1  629   2.437   1.713   5.179
    1TYR    SC2  630   2.488   1.684   4.915
    1TYR    SC3  631   2.233   1.706   5.002
    2ARG     BB  632   2.310   1.378   5.519
    2ARG    SC1  633   2.514   1.137   5.584
    2ARG    SC2  634   2.568   0.843   5.729
    3TYR     BB  635   2.092   1.304   5.324
    3TYR    SC1  636   1.856   1.433   5.178
    3TYR    SC2  637   1.811   1.475   4.915
    3TYR    SC3  638   1.696   1.636   5.099
    1TYR     BB  639   2.013   1.915   2.900
    1TYR    SC1  640   1.929   2.209   2.860
    1TYR    SC2  641   1.716   2.370   2.826
    1TYR    SC3  642   1.894   2.423   3.021
    2ARG     BB  643   2.097   1.936   3.225
    2ARG    SC1  644   1.816   2.030   3.359
    2ARG    SC2  645   1.532   2.123   3.245
    3TYR     BB  646   2.272   2.194   3.261
    3TYR    SC1  647   2.556   2.150   3.179
    3TYR    SC2  648   2.797   2.132   3.299
    3TYR    SC3  649   2.782   2.185   3.035
    1TYR     BB  650   5.703   6.920   2.208
    1TYR    SC1  651   5.609   7.206   2.273
    1TYR    SC2  652   5.630   7.475   2.259
    1TYR    SC3  653   5.402   7.362   2.350
    2ARG     BB  654   5.686   6.922   1.883
    2ARG    SC1  655   5.972   6.879   1.751
    2ARG    SC2  656   6.123   7.092   1.559
    3TYR     BB  657   5.662   7.262   1.762
    3TYR    SC1  658   5.395   7.369   1.873
    3TYR    SC2  659   5.248   7.574   1.970
    3TYR    SC3  660   5.131   7.336   1.919
    1TYR     BB  661   5.942   6.021   4.946
    1TYR    SC1  662   6.235   5.977   5.043
    1TYR    SC2  663   6.402   5.974   5.255
    1TYR    SC3  664   6.434   5.795   5.056
    2ARG     BB  665   5.840   6.215   5.231
    2ARG    SC1  666   5.558   6.334   5.315
    2ARG    SC2  667   5.306   6.437   5.161
    3TYR     BB  668   6.005   6.215   5.457
    3TYR    SC1  669   6.270   6.359   5.469
    3TYR    SC2  670   6.522   6.449   5.429
    3TYR    SC3  671   6.403   6.483   5.669
    1TYR     BB  672   5.840   3.100   4.791
    1TYR    SC1  673   6.000   3.351   4.903
    1TYR    SC2  674   6.245   3.464   4.887
    1TYR    SC3  675   6.096   3.495   5.110
    2ARG     BB  676   5.883   3.204   4.422
    2ARG    SC1  677   5.724   3.072   4.166
    2ARG    SC2  678   5.504   3.020   3.915
    3TYR     BB  679   5.992   3.472   4.397
    3TYR    SC1  680   6.303   3.522   4.447
    3TYR    SC2  681   6.557   3.453   4.507
    3TYR    SC3  682   6.472   3.706   4.549
    1TYR     BB  683   6.536   6.670   0.925
    1TYR    SC1  684   6.694   6.408   0.863
    1TYR    SC2  685   6.828   6.268   0.676
    1TYR    SC3  686   6.670   6.140   0.853
    2ARG     BB  687   6.347   6.652   0.617
    2ARG    SC1  688   6.093   6.797   0.715
    2ARG    SC2  689   5.928   7.019   0.890
    3TYR     BB  690   6.393   6.368   0.454
    3TYR    SC1  691   6.450   6.443   0.164
    3TYR    SC2  692   6.514   6.614   7.966
    3TYR    SC3  693   6.510   6.348   7.919
    1TYR     BB  694   3.745   1.157   5.942
    1TYR    SC1  695   3.852   1.198   6.236
    1TYR    SC2  696   3.829   1.263   6.498
    1TYR    SC3  697   4.067   1.180   6.399
    2ARG     BB  698   3.411   1.203   5.961
    2ARG    SC1  699   3.189   1.242   5.736
    2ARG    SC2  700   2.926   1.393   5.614
    3TYR     BB  701   3.315   1.171   6.228
    3TYR    SC1  702   3.407   1.400   6.412
    3TYR    SC2  703   3.345   1.654   6.479
    3TYR    SC3  704   3.470   1.494   6.657
    1TYR     BB  705   6.432   5.576   4.565
    1TYR    SC1  706   6.401   5.488   4.266
    1TYR    SC2  707   6.549   5.516   4.042
    1TYR    SC3  708   6.358   5.326   4.055
    2ARG     BB  709   6.545   5.329   4.724
    2ARG    SC1  710   6.512   5.313   5.049
    2ARG    SC2  711   6.647   5.140   5.290
    3TYR     BB  712   6.381   5.064   4.650
    3TYR    SC1  713   6.189   5.105   4.430
    3TYR    SC2  714   6.046   5.056   4.207
    3TYR    SC3  715   5.975   5.259   4.371
    1TYR     BB  716   0.331   1.262   5.490
    1TYR    SC1  717   0.409   1.552   5.604
    1TYR    SC2  718   0.366   1.816   5.573
    1TYR    SC3  719   0.569   1.730   5.728
    2ARG     BB  720   0.003   1.276   5.532
    2ARG    SC1  721   7.790   1.047   5.526
    2ARG    SC2  722   7.641   0.773   5.430
    3TYR     BB  723   7.896   1.576   5.574
    3TYR    SC1  724   0.034   1.650   5.843
    3TYR    SC2  725   0.179   1.817   5.997
    3TYR    SC3  726   0.218   1.550   6.013
    1TYR     BB  727   1.360   5.174   5.087
    1TYR    SC1  728   1.655   5.139   5.028
    1TYR    SC2  729   1.788   5.085   4.799
    1TYR    SC3  730   1.890   5.007   5.036
    2ARG     BB  731   1.189   5.086   4.846
    2ARG    SC1  732   0.930   4.910   4.900
    2ARG    SC2  733   0.678   4.843   4.693
    3TYR     BB  734   1.220   5.211   4.576
    3TYR    SC1  735   1.400   5.041   4.408
    3TYR    SC2  736   1.474   4.882   4.203
    3TYR    SC3  737   1.651   4.941   4.398
    1TYR     BB  738   0.883   4.178   1.743
    1TYR    SC1  739   0.996   4.270   1.472
    1TYR    SC2  740   1.200   4.296   1.298
    1TYR    SC3  741   0.948   4.352   1.220
    2ARG     BB  742   0.920   3.838   1.708
    2ARG    SC1  743   0.647   3.721   1.846
    2ARG    SC2  744   0.368   3.644   2.037
    3TYR     BB  745   1.138   3.727   1.463
    3TYR    SC1  746   1.049   3.867   1.209
    3TYR    SC2  747   1.095   3.981   0.969
    3TYR    SC3  748   0.873   3.833   1.008
    1TYR     BB  749   2.533   2.479   6.804
    1TYR    SC1  750   2.353   2.357   7.033
    1TYR    SC2  751   2.192   2.152   7.102
    1TYR    SC3  752   2.217   2.365   7.266
    2ARG     BB  753   2.668   2.201   6.669
    2ARG    SC1  754   2.598   2.235   6.365
    2ARG    SC2  755   2.602   2.048   6.099
    3TYR     BB  756   2.558   1.937   6.827
    3TYR    SC1  757   2.641   2.002   7.118
    3TYR    SC2  758   2.567   2.038   7.375
    3TYR    SC3  759   2.738   2.212   7.257
    1TYR     BB  760   2.282   4.101   4.920
    1TYR    SC1  761   2.520   3.903   4.976
    1TYR    SC2  762   2.662   3.686   4.901
    1TYR    SC3  763   2.727   3.819   5.128
    2ARG     BB  764   2.408   4.403   4.826
    2ARG    SC1  765   2.285   4.596   5.057
    2ARG    SC2  766   1.989   4.533   5.185
    3TYR     BB  767   2.730   4.353   4.832
    3TYR    SC1  768   2.754   4.268   5.127
    3TYR    SC2  769   2.821   4.256   5.389
    3TYR    SC3  770   2.561   4.270   5.317
    1TYR     BB  771   1.254   6.664   1.569
    1TYR    SC1  772   0.976   6.603   1.451
    1TYR    SC2  773   0.750   6.456   1.448
    1TYR    SC3  774   0.765   6.683   1.303
    2ARG     BB  775   1.235   6.532   1.874
    2ARG    SC1  776   1.254   6.219   1.815
    2ARG    SC2  777   1.151   6.023   2.050
    3TYR     BB  778   0.862   6.472   1.947
    3TYR    SC1  779   0.784   6.749   1.837
    3TYR    SC2  780   0.604   6.888   1.692
    3TYR    SC3  781   0.861   6.971   1.703
    1TYR     BB  782   6.388   2.745   7.515
    1TYR    SC1  783   6.410   2.959   7.750
    1TYR    SC2  784   6.523   3.190   7.832
    1TYR    SC3  785   6.321   3.080   7.974
    2ARG     BB  786   6.393   2.957   7.235
    2ARG    SC1  787   6.625   2.851   7.037
    2ARG    SC2  788   6.707   2.668   6.765
    3TYR     BB  789   6.474   3.254   7.320
    3TYR    SC1  790   6.542   3.454   7.097
    3TYR    SC2  791   6.621   3.712   7.089
    3TYR    SC3  792   6.594   3.572   6.860
    1TYR     BB  793   4.833   3.329   7.581
    1TYR    SC1  794   4.990   3.369   7.844
    1TYR    SC2  795   4.932   3.517   0.061
    1TYR    SC3  796   5.127   3.331   0.073
    2ARG     BB  797   4.581   3.130   7.682
    2ARG    SC1  798   4.414   3.046   7.412
    2ARG    SC2  799   4.166   2.956   7.208
    3TYR     BB  800   4.509   3.216   8.000
    3TYR    SC1  801   4.741   3.102   0.163
    3TYR    SC2  802   4.927   2.913   0.112
    3TYR    SC3  803   4.897   3.009   0.362
    1TYR     BB  804   1.270   3.164   7.602
    1TYR    SC1  805   1.151   2.936   7.787
    1TYR    SC2  806   0.924   2.872   7.918
    1TYR    SC3  807   1.095   2.678   7.843
    2ARG     BB  808   0.996   3.208   7.422
    2ARG    SC1  809   0.934   3.430   7.209
    2ARG    SC2  810   0.733   3.448   6.958
    3TYR     BB  811   0.819   2.953   7.353
    3TYR    SC1  812   0.811   2.943   7.035
    3TYR    SC2  813   0.638   2.885   6.836
    3TYR    SC3  814   0.888   2.968   6.777
    1TYR     BB  815   3.080   7.499   6.651
    1TYR    SC1  816   2.956   7.278   6.836
    1TYR    SC2  817   2.873   7.212   7.085
    1TYR    SC3  818   2.922   7.018   6.903
    2ARG     BB  819   2.876   7.762   6.692
    2ARG    SC1  820   3.055   0.043   6.713
    2ARG    SC2  821   3.151   0.378   6.712
    3TYR     BB  822   2.690   7.730   6.956
    3TYR    SC1  823   2.516   7.475   6.918
    3TYR    SC2  824   2.328   7.314   7.027
    3TYR    SC3  825   2.485   7.223   6.827
    1TYR     BB  826   4.023   2.032   4.350
    1TYR    SC1  827   3.798   1.965   4.553
    1TYR    SC2  828   3.737   1.998   4.814
    1TYR    SC3  829   3.600   1.820   4.665
    2ARG     BB  830   4.002   2.343   4.336
    2ARG    SC1  831   3.783   2.433   4.117
    2ARG    SC2  832   3.770   2.685   3.899
    3TYR     BB  833   3.874   2.483   4.643
    3TYR    SC1  834   3.588   2.394   4.593
    3TYR    SC2  835   3.327   2.453   4.559
    3TYR    SC3  836   3.430   2.230   4.447
    1TYR     BB  837   3.159   1.888   0.647
    1TYR    SC1  838   3.179   1.958   0.960
    1TYR    SC2  839   3.085   2.021   1.205
    1TYR    SC3  840   3.252   1.811   1.174
    2ARG     BB  841   2.959   1.609   0.714
    2ARG    SC1  842   3.213   1.425   0.800
    2ARG    SC2  843   3.277   1.185   0.585
    3TYR     BB  844   2.779   1.669   0.983
    3TYR    SC1  845   2.905   1.515   1.205
    3TYR    SC2  846   2.863   1.315   1.381
    3TYR    SC3  847   3.114   1.378   1.307
    1TYR     BB  848   6.959   2.034   3.288
    1TYR    SC1  849   6.962   2.310   3.415
    1TYR    SC2  850   7.007   2.506   3.595
    1TYR    SC3  851   7.128   2.514   3.354
    2ARG     BB  852   7.240   2.084   3.085
    2ARG    SC1  853   7.266   1.797   2.959
    2ARG    SC2  854   7.518   1.645   2.856
    3TYR     BB  855   7.542   2.160   3.196
    3TYR    SC1  856   7.669   2.409   3.072
    3TYR    SC2  857   7.825   2.625   3.118
    3TYR    SC3  858   7.781   2.541   2.865
    1TYR     BB  859   7.609   3.684   2.731
    1TYR    SC1  860   7.579   3.983   2.674
    1TYR    SC2  861   7.687   4.223   2.615
    1TYR    SC3  862   7.432   4.169   2.545
    2ARG     BB  863   7.573   3.667   3.059
    2ARG    SC1  864   7.706   3.447   3.253
    2ARG    SC2  865   7.983   3.435   3.445
    3TYR     BB  866   7.688   3.933   3.204
    3TYR    SC1  867   7.884   4.077   3.024
    3TYR    SC2  868   0.022   4.306   2.984
    3TYR    SC3  869   0.077   4.088   2.835
    1TYR     BB  870   6.002   4.804   3.414
    1TYR    SC1  871   5.758   4.595   3.387
    1TYR    SC2  872   5.657   4.360   3.474
    1TYR    SC3  873   5.491   4.553   3.382
    2ARG     BB  874   6.156   4.679   3.657
    2ARG    SC1  875   6.352   4.857   3.831
    2ARG    SC2  876   6.607   4.694   3.947
    3TYR     BB  877   6.183   4.371   3.672
    3TYR    SC1  878   5.940   4.228   3.803
    3TYR    SC2  879   5.730   4.223   3.972
    3TYR    SC3  880   5.773   4.015   3.805
    1TYR     BB  881   3.530   0.437   3.146
    1TYR    SC1  882   3.621   0.314   2.875
    1TYR    SC2  883   3.505   0.162   2.685
    1TYR    SC3  884   3.749   0.268   2.642
    2ARG     BB  885   3.274   0.642   3.051
    2ARG    SC1  886   3.088   0.657   3.316
    2ARG    SC2  887   2.806   0.815   3.420
    3TYR     BB  888   3.177   0.574   2.745
    3TYR    SC1  889   3.424   0.622   2.560
    3TYR    SC2  890   3.606   0.658   2.364
    3TYR    SC3  891   3.670   0.714   2.620
    1TYR     BB  892   4.095   3.273   7.729
    1TYR    SC1  893   4.075   2.976   7.810
    1TYR    SC2  894   3.969   2.763   7.937
    1TYR    SC3  895   4.078   2.733   7.691
    2ARG     BB  896   3.888   3.300   7.495
    2ARG    SC1  897   3.855   3.623   7.462
    2ARG    SC2  898   3.958   3.894   7.306
    3TYR     BB  899   3.594   3.222   7.656
    3TYR    SC1  900   3.398   3.264   7.420
    3TYR    SC2  901   3.238   3.400   7.249
    3TYR    SC3  902   3.240   3.130   7.247
    1TYR     BB  903   5.329   7.782   6.470
    1TYR    SC1  904   5.215   7.771   6.757
    1TYR    SC2  905   5.059   7.934   6.906
    1TYR    SC3  906   5.050   7.667   6.943
    2ARG     BB  907   5.152   0.094   6.394
    2ARG    SC1  908   5.318   0.153   6.120
    2ARG    SC2  909   5.456   0.394   5.931
    3TYR     BB  910   5.183   0.385   6.552
    3TYR    SC1  911   5.013   0.414   6.809
    3TYR    SC2  912   4.824   0.554   6.940
    3TYR    SC3  913   4.948   0.348   7.063
    1TYR     BB  914   7.111   1.470   1.894
    1TYR    SC1  915   7.243   1.646   2.126
    1TYR    SC2  916   7.193   1.897   2.211
    1TYR    SC3  917   7.334   1.727   2.367
    2ARG     BB  918   6.790   1.441   1.985
    2ARG    SC1  919   6.608   1.346   1.751
    2ARG    SC2  920   6.391   1.405   1.516
    3TYR     BB  921   6.719   1.720   2.158
    3TYR    SC1  922   6.866   1.634   2.415
    3TYR    SC2  923   7.012   1.409   2.441
    3TYR    SC3  924   6.972   1.569   2.655
    1TYR     BB  925   3.308   5.194   1.625
    1TYR    SC1  926   3.088   4.993   1.538
    1TYR    SC2  927   2.941   4.788   1.634
    1TYR    SC3  928   2.850   4.932   1.425
    2ARG     BB  929   3.290   5.050   1.978
    2ARG    SC1  930   3.585   5.137   2.034
    2ARG    SC2  931   3.892   5.076   2.008
    3TYR     BB  932   3.277   4.730   2.071
    3TYR    SC1  933   2.986   4.639   2.059
    3TYR    SC2  934   2.761   4.515   2.142
    3TYR    SC3  935   2.758   4.780   2.093
    1TYR     BB  936   1.231   2.890   1.119
    1TYR    SC1  937   0.992   2.675   1.098
    1TYR    SC2  938   0.785   2.527   1.188
    1TYR    SC3  939   0.827   2.553   0.922
    2ARG     BB  940   1.053   3.139   1.262
    2ARG    SC1  941   1.127   3.379   1.070
    2ARG    SC2  942   1.391   3.551   0.989
    3TYR     BB  943   0.831   2.991   1.465
    3TYR    SC1  944   0.594   2.939   1.301
    3TYR    SC2  945   0.374   2.800   1.229
    3TYR    SC3  946   0.540   2.899   1.040
    1TYR     BB  947   2.134   1.711   5.902
    1TYR    SC1  948   1.928   1.502   5.805
    1TYR    SC2  949   1.847   1.247   5.775
    1TYR    SC3  950   1.713   1.446   5.652
    2ARG     BB  951   2.137   1.645   6.223
    2ARG    SC1  952   2.260   1.853   6.422
    2ARG    SC2  953   2.144   2.108   6.604
    3TYR     BB  954   1.962   1.418   6.333
    3TYR    SC1  955   1.699   1.365   6.185
    3TYR    SC2  956   1.539   1.163   6.108
    3TYR    SC3  957   1.475   1.417   6.045
    1TYR     BB  958   7.525   4.254   6.284
    1TYR    SC1  959   7.449   3.957   6.323
    1TYR    SC2  960   7.534   3.723   6.427
    1TYR    SC3  961   7.271   3.762   6.380
    2ARG     BB  962   7.607   4.278   6.639
    2ARG    SC1  963   7.884   4.434   6.608
    2ARG    SC2  964   0.213   4.374   6.592
    3TYR     BB  965   7.531   4.037   6.836
    3TYR    SC1  966   7.276   3.855   6.836
    3TYR    SC2  967   7.209   3.594   6.812
    3TYR    SC3  968   7.017   3.780   6.852
    1TYR     BB  969   5.132   6.016   0.977
    1TYR    SC1  970   4.976   6.277   1.019
    1TYR    SC2  971   4.877   6.528   1.008
    1TYR    SC3  972   4.763   6.345   1.170
    2ARG     BB  973   5.042   5.955   0.664
    2ARG    SC1  974   5.217   5.719   0.575
    2ARG    SC2  975   5.458   5.624   0.756
    3TYR     BB  976   4.998   6.214   0.462
    3TYR    SC1  977   4.862   6.048   0.225
    3TYR    SC2  978   4.625   5.934   0.164
    3TYR    SC3  979   4.855   5.815   0.090
    1TYR     BB  980   6.219   1.410   2.642
    1TYR    SC1  981   6.165   1.128   2.749
    1TYR    SC2  982   5.968   0.946   2.771
    1TYR    SC3  983   6.223   0.875   2.822
    2ARG     BB  984   6.475   1.336   2.429
    2ARG    SC1  985   6.318   1.380   2.162
    2ARG    SC2  986   6.097   1.306   1.955
    3TYR     BB  987   6.647   1.073   2.395
    3TYR    SC1  988   6.674   0.887   2.642
    3TYR    SC2  989   6.799   0.661   2.719
    3TYR    SC3  990   6.669   0.812   2.901
    1TYR     BB  991   3.430   1.640   2.658
    1TYR    SC1  992   3.324   1.840   2.865
    1TYR    SC2  993   3.149   1.917   3.055
    1TYR    SC3  994   3.311   2.099   2.939
    2ARG     BB  995   3.680   1.475   2.792
    2ARG    SC1  996   3.986   1.545   2.726
    2ARG    SC2  997   4.298   1.455   2.778
    3TYR     BB  998   3.606   1.385   3.063
    3TYR    SC1  999   3.529   1.629   3.234
    3TYR    SC2 1000   3.485   1.757   3.468
    3TYR    SC3 1001   3.597   1.889   3.261
    1TYR     BB 1002   2.219   3.720   3.304
    1TYR    SC1 1003   2.189   3.525   3.069
    1TYR    SC2 1004   2.245   3.354   2.868
    1TYR    SC3 1005   2.041   3.302   3.037
    2ARG     BB 1006   2.141   3.475   3.541
    2ARG    SC1 1007   1.965   3.477   3.799
    2ARG    SC2 1008   1.934   3.214   3.990
    3TYR     BB 1009   2.299   3.253   3.522
    3TYR    SC1 1010   2.281   3.037   3.322
    3TYR    SC2 1011   2.352   2.967   3.072
    3TYR    SC3 1012   2.143   2.845   3.193
    1TYR     BB 1013   7.579   1.301   2.501
    1TYR    SC1 1014   7.336   1.180   2.672
    1TYR    SC2 1015   7.141   1.002   2.615
    1TYR    SC3 1016   7.113   1.170   2.825
    2ARG     BB 1017   7.841   1.244   2.686
    2ARG    SC1 1018   0.122   1.322   2.552
    2ARG    SC2 1019   0.381   1.201   2.404
    3TYR     BB 1020   7.856   1.280   2.987
    3TYR    SC1 1021   7.602   1.217   3.124
    3TYR    SC2 1022   7.443   1.058   3.273
    3TYR    SC3 1023   7.350   1.294   3.181
    1TYR     BB 1024   0.715   7.520   5.602
    1TYR    SC1 1025   0.804   7.763   5.428
    1TYR    SC2 1026   0.918   0.008   5.422
    1TYR    SC3 1027   0.996   7.818   5.246
    2ARG     BB 1028   1.044   7.436   5.686
    2ARG    SC1 1029   1.025   7.241   5.924
    2ARG    SC2 1030   1.113   7.350   6.211
    3TYR     BB 1031   1.228   7.696   5.714
    3TYR    SC1 1032   1.408   7.708   5.468
    3TYR    SC2 1033   1.503   7.740   5.218
    3TYR    SC3 1034   1.627   7.572   5.388
    1TYR     BB 1035   0.006   4.972   3.146
    1TYR    SC1 1036   7.825   5.204   3.048
    1TYR    SC2 1037   7.841   5.436   2.911
    1TYR    SC3 1038   7.640   5.396   3.086
    2ARG     BB 1039   0.212   4.959   2.886
    2ARG    SC1 1040   0.386   4.696   2.870
    2ARG    SC2 1041   0.623   4.567   2.671
    3TYR     BB 1042   0.303   5.250   2.837
    3TYR    SC1 1043   0.181   5.398   2.599
    3TYR    SC2 1044   0.168   5.435   2.332
    3TYR    SC3 1045   7.977   5.539   2.492
    1TYR     BB 1046   1.060   6.860   7.714
    1TYR    SC1 1047   1.053   6.719   7.434
    1TYR    SC2 1048   0.904   6.585   7.253
    1TYR    SC3 1049   1.140   6.694   7.180
    2ARG     BB 1050   0.997   7.165   7.602
    2ARG    SC1 1051   0.859   7.308   7.863
    2ARG    SC2 1052   0.829   7.616   7.993
    3TYR     BB 1053   0.729   7.127   7.366
    3TYR    SC1 1054   0.738   6.967   7.088
    3TYR    SC2 1055   0.617   6.770   6.949
    3TYR    SC3 1056   0.856   6.865   6.868
    1TYR     BB 1057   4.903   6.967   4.678
    1TYR    SC1 1058   4.686   6.994   4.471
    1TYR    SC2 1059   4.575   6.991   4.225
    1TYR    SC3 1060   4.425   7.055   4.440
    2ARG     BB 1061   4.898   6.670   4.863
    2ARG    SC1 1062   4.994   6.811   5.133
    2ARG    SC2 1063   5.242   6.976   5.281
    3TYR     BB 1064   5.041   6.464   4.673
    3TYR    SC1 1065   4.984   6.590   4.380
    3TYR    SC2 1066   4.997   6.779   4.188
    3TYR    SC3 1067   4.814   6.581   4.170
    1TYR     BB 1068   1.964   5.181   7.594
    1TYR    SC1 1069   2.169   5.337   7.413
    1TYR    SC2 1070   2.264   5.424   7.176
    1TYR    SC3 1071   2.163   5.600   7.354
    2ARG     BB 1072   1.697   5.377   7.475
    2ARG    SC1 1073   1.433   5.217   7.422
    2ARG    SC2 1074   1.211   5.391   7.251
    3TYR     BB 1075   1.723   5.508   7.128
    3TYR    SC1 1076   1.823   5.757   6.973
    3TYR    SC2 1077   1.794   5.833   6.716
    3TYR    SC3 1078   1.935   5.987   6.887
    1TYR     BB 1079   2.158   0.220   0.360
    1TYR    SC1 1080   2.108   0.220   0.670
    1TYR    SC2 1081   2.124   0.383   0.885
    1TYR    SC3 1082   2.148   0.115   0.916
    2ARG     BB 1083   2.063   7.910   0.247
    2ARG    SC1 1084   1.902   7.982   7.970
    2ARG    SC2 1085   1.590   8.000   7.851
    3TYR     BB 1086   1.947   7.764   0.531
    3TYR    SC1 1087   2.223   7.723   0.669
    3TYR    SC2 1088   2.451   7.598   0.596
    3TYR    SC3 1089   2.461   7.809   0.764
    1TYR     BB 1090   3.301   5.286   7.455
    1TYR    SC1 1091   3.509   5.096   7.320
    1TYR    SC2 1092   3.545   4.829   7.309
    1TYR    SC3 1093   3.578   4.978   7.087
    2ARG     BB 1094   3.052   5.034   7.459
    2ARG    SC1 1095   2.849   5.122   7.693
    2ARG    SC2 1096   2.519   5.087   7.705
    3TYR     BB 1097   3.027   4.765   7.232
    3TYR    SC1 1098   3.225   4.704   6.989
    3TYR    SC2 1099   3.446   4.566   6.919
    3TYR    SC3 1100   3.341   4.748   6.749
    4W        W 1101   0.254   2.081   2.306
    5W        W 1102   4.086   5.517   1.330
    6W        W 1103   3.737   4.028   0.741
    7W        W 1104   5.732   0.352   4.064
    8W        W 1105   3.503   7.281   2.105
    9W        W 1106   2.694   3.314   3.223
   10W        W 1107   3.284   7.739   5.175
   11W        W 1108   3.491   3.397   6.225
   12W        W 1109   3.644   2.847   5.420
   13W        W 1110   6.621   2.704   3.327
   14W        W 1111   0.919   6.741   5.872
   15W        W 1112   3.075   7.381   4.827
   16W        W 1113   6.967   3.392   3.742
   17W        W 1114   5.729   6.261   3.225
   18W        W 1115   7.028   3.273   1.983
   19W        W 1116   3.562   2.229   1.093
   20W        W 1117   4.554   4.072   4.096
   21W        W 1118   4.198   4.134   0.958
   22W        W 1119   3.391   5.730   3.603
   23W        W 1120   2.688   6.239   3.507
   24W        W 1121   5.386   4.496   0.242
   25W        W 1122   3.816   5.111   1.495
   26W        W 1123   2.081   6.155   4.919
   27W        W 1124   5.476   2.312   5.465
   28W        W 1125   2.831   7.830   4.875
   29W        W 1126   1.418   4.427   3.948
   30W        W 1127   3.227   2.158   5.406
   31W        W 1128   2.707   1.276   5.127
   32W        W 1129   0.497   4.689   4.242
   33W        W 1130   6.811   4.661   2.418
   34W        W 1131   7.112   7.081   5.924
   35W        W 1132   3.476   2.099   1.558
   36W        W 1133   4.190   0.685   4.211
   37W        W 1134   3.769   5.932   1.379
   38W        W 1135   3.497   4.090   2.865
   39W        W 1136   3.830   3.393   0.660
   40W        W 1137   2.847   6.690   2.844
   41W        W 1138   7.112   6.724   2.099
   42W        W 1139   2.228   1.158   4.334
   43W        W 1140   3.905   4.760   6.749
   44W        W 1141   7.636   2.940   3.959
   45W        W 1142   4.519   6.345   2.453
   46W        W 1143   5.623   4.582   4.818
   47W        W 1144   4.784   5.969   6.301
   48W        W 1145   0.807   2.179   5.736
   49W        W 1146   4.683   1.203   7.855
   50W        W 1147   1.152   5.506   1.950
   51W        W 1148   2.435   7.067   0.671
   52W        W 1149   1.186   3.600   4.261
   53W        W 1150   3.490   0.234   1.678
   54W        W 1151   6.688   1.355   3.811
   55W        W 1152   1.670   1.772   3.757
   56W        W 1153   3.956   7.254   2.957
   57W        W 1154   1.949   7.232   1.330
   58W        W 1155   1.853   6.523   3.952
   59W        W 1156   4.075   5.215   2.856
   60W        W 1157   2.486   4.269   2.518
   61W        W 1158   0.675   0.982   7.143
   62W        W 1159   1.684   6.741   0.282
   63W        W 1160   2.435   7.315   1.533
   64W        W 1161   6.152   3.410   3.938
   65W        W 1162   3.408   3.722   4.285
   66W        W 1163   3.289   4.144   0.503
   67W        W 1164   4.898   0.323   2.153
   68W        W 1165   3.508   3.759   4.782
   69W        W 1166   6.352   6.386   2.579
   70W        W 1167   6.566   0.307   0.672
   71W        W 1168   3.168   1.374   7.046
   72W        W 1169   5.931   1.185   0.281
   73W        W 1170   7.292   3.016   1.124
   74W        W 1171   5.633   5.332   7.385
   75W        W 1172   2.166   2.402   1.924
   76W        W 1173   6.073   4.872   7.921
   77W        W 1174   5.666   5.596   6.534
   78W        W 1175   1.592   1.581   1.436
   79W        W 1176   0.390   0.160   0.451
   80W        W 1177   5.189   5.848   3.949
   81W        W 1178   1.724   2.148   6.905
   82W        W 1179   5.148   2.773   1.689
   83W        W 1180   5.737   7.677   0.576
   84W        W 1181   1.349   4.464   3.071
   85W        W 1182   6.753   7.696   5.124
   86W        W 1183   1.330   0.387   1.095
   87W        W 1184   0.534   1.952   4.379
   88W        W 1185   4.041   4.166   4.112
   89W        W 1186   2.449   5.184   5.854
   90W        W 1187   0.789   6.943   0.847
   91W        W 1188   5.649   6.955   2.703
   92W        W 1189   5.968   5.711   5.349
   93W        W 1190   5.208   3.915   4.593
   94W        W 1191   7.867   3.677   5.614
   95W        W 1192   2.342   3.421   0.824
   96W        W 1193   5.091   5.218   4.294
   97W        W 1194   5.736   3.995   1.520
   98W        W 1195   2.305   2.504   2.398
   99W        W 1196   6.411   0.484   2.434
  100W        W 1197   0.574   4.208   4.084
  101W        W 1198   1.974   4.414   6.277
  102W        W 1199   2.383   5.084   5.201
  103W        W 1200   0.734   5.525   1.640
  104W        W 1201   7.136   3.935   1.420
  105W        W 1202   3.733   5.335   5.436
  106W        W 1203   0.259   3.850   3.290
  107W        W 1204   5.669   6.952   1.328
  108W        W 1205   7.684   0.317   6.694
  109W        W 1206   2.975   4.545   0.389
  110W        W 1207   3.321   0.547   4.641
  111W        W 1208   3.422   5.186   4.823
  112W        W 1209   0.571   7.163   1.278
  113W        W 1210   4.203   1.087   7.663
  114W        W 1211   0.322   3.575   5.823
  115W        W 1212   0.971   2.999   0.702
  116W        W 1213   1.368   0.932   3.260
  117W        W 1214   1.538   7.035   0.984
  118W        W 1215   1.697   0.762   5.864
  119W        W 1216   1.229   0.270   0.602
  120W        W 1217   2.559   6.737   6.692
  121W        W 1218   2.899   0.081   1.116
  122W        W 1219   2.663   4.964   3.517
  123W        W 1220   3.153   4.336   1.581
  124W        W 1221   1.147   6.154   5.107
  125W        W 1222   6.691   3.246   4.945
  126W        W 1223   4.518   5.073   5.122
  127W        W 1224   5.811   7.166   7.391
  128W        W 1225   3.306   0.621   1.970
  129W        W 1226   5.903   3.590   3.538
  130W        W 1227   2.786   2.833   2.270
  131W        W 1228   7.520   5.643   4.000
  132W        W 1229   4.375   7.366   6.360
  133W        W 1230   4.273   2.916   5.857
  134W        W 1231   6.996   5.401   2.543
  135W        W 1232   6.367   6.735   6.657
  136W        W 1233   4.715   5.481   2.495
  137W        W 1234   3.467   6.769   0.957
  138W        W 1235   3.605   6.498   4.707
  139W        W 1236   4.051   3.768   0.398
  140W        W 1237   4.500   1.870   1.078
  141W        W 1238   1.089   1.673   5.793
  142W        W 1239   5.881   6.734   3.107
  143W        W 1240   0.753   5.042   2.835
  144W        W 1241   2.607   3.635   1.752
  145W        W 1242   3.474   4.410   2.485
  146W        W 1243   4.286   5.227   2.349
  147W        W 1244   2.699   1.114   4.611
  148W        W 1245   6.844   5.142   1.170
  149W        W 1246   4.174   3.314   1.343
  150W        W 1247   5.167   7.398   7.403
  151W        W 1248   6.074   6.133   2.903
  152W        W 1249   0.290   4.837   5.985
  153W        W 1250   1.098   4.476   0.762
  154W        W 1251   0.553   0.542   1.346
  155W        W 1252   3.951   7.084   4.231
  156W        W 1253   6.873   2.930   7.467
  157W        W 1254   4.113   3.114   2.264
  158W        W 1255   0.600   0.913   6.644
  159W        W 1256   7.855   3.897   5.149
  160W        W 1257   7.086   1.696   5.744
  161W        W 1258   2.723   4.453   1.293
  162W        W 1259   6.680   0.999   1.371
  163W        W 1260   1.115   0.241   6.285
  164W        W 1261   6.770   4.873   4.876
  165W        W 1262   4.139   7.538   2.003
  166W        W 1263   6.388   3.654   0.042
  167W        W 1264   1.383   5.253   6.809
  168W        W 1265   5.601   1.057   7.900
  169W        W 1266   2.408   5.647   2.389
  170W        W 1267   0.519   6.193   2.886
  171W        W 1268   0.510   7.965   0.954
  172W        W 1269   1.510   6.507   5.312
  173W        W 1270   2.733   6.926   1.695
  174W        W 1271   6.345   5.101   1.193
  175W        W 1272   5.918   1.446   7.828
  176W        W 1273   7.291   5.071   6.704
  177W        W 1274   3.829   0.444   3.898
  178W        W 1275   7.140   4.939   4.541
  179W        W 1276   5.259   2.014   7.717
  180W        W 1277   4.370   3.879   6.409
  181W        W 1278   3.057   4.828   4.757
  182W        W 1279   2.163   3.661   2.026
  183W        W 1280   1.311   1.457   5.344
  184W        W 1281   3.152   6.977   2.501
  185W        W 1282   1.649   6.625   1.257
  186W        W 1283   1.256   2.067   3.682
  187W        W 1284   3.896   4.644   4.232
  188W        W 1285   1.402   3.921   2.541
  189W        W 1286   7.157   4.388   2.179
  190W        W 1287   4.420   0.615   1.936
  191W        W 1288   2.872   3.378   0.940
  192W        W 1289   1.440   2.718   2.633
  193W        W 1290   0.486   2.243   5.341
  194W        W 1291   2.587   0.291   5.003
  195W        W 1292   5.565   6.065   2.707
  196W        W 1293   1.371   0.195   5.353
  197W        W 1294   6.773   2.861   0.141
  198W        W 1295   5.875   6.769   4.637
  199W        W 1296   3.571   4.221   4.349
  200W        W 1297   2.406   4.832   1.164
  201W        W 1298   5.589   6.321   4.767
  202W        W 1299   3.733   2.338   7.664
  203W        W 1300   1.156   4.542   0.205
  204W        W 1301   3.774   2.550   1.734
  205W        W 1302   1.253   3.523   2.812
  206W        W 1303   4.051   3.587   5.333
  207W        W 1304   2.223   4.831   7.321
  208W        W 1305   4.426   6.338   6.138
  209W        W 1306   0.102   0.809   2.586
  210W        W 1307   5.245   6.363   3.963
  211W        W 1308   6.179   1.461   6.128
  212W        W 1309   5.806   7.279   4.523
  213W        W 1310   7.626   6.185   4.825
  214W        W 1311   0.595   4.232   0.876
  215W        W 1312   2.315   6.658   4.881
  216W        W 1313   2.202   2.840   3.786
  217W        W 1314   0.589   7.013   4.567
  218W        W 1315   0.997   3.409   6.529
  219W        W 1316   3.802   0.797   1.142
  220W        W 1317   7.392   4.944   3.156
  221W        W 1318   6.766   2.520   7.772
  222W        W 1319   3.774   1.881   5.607
  223W        W 1320   6.154   7.474   7.645
  224W        W 1321   1.430   4.977   3.155
  225W        W 1322   3.396   1.116   3.881
  226W        W 1323   1.328   4.512   1.948
  227W        W 1324   0.776   1.533   4.163
  228W        W 1325   6.079   6.783   0.175
  229W        W 1326   6.154   3.377   0.400
  230W        W 1327   2.784   5.932   4.712
  231W        W 1328   2.018   5.434   1.427
  232W        W 1329   3.033   2.392   2.171
  233W        W 1330   3.000   6.235   5.328
  234W        W 1331   7.913   5.457   4.312
  235W        W 1332   6.516   1.751   0.550
  236W        W 1333   6.316   7.640   1.258
  237W        W 1334   3.087   1.631   6.066
  238W        W 1335   5.954   3.161   6.428
  239W        W 1336   7.861   2.182   6.175
  240W        W 1337   1.492   4.259   5.246
  241W        W 1338   1.919   4.653   1.006
  242W        W 1339   4.613   5.943   2.725
  243W        W 1340   1.922   1.177   3.888
  244W        W 1341   1.457   2.356   7.676
  245W        W 1342   1.592   3.544   7.782
  246W        W 1343   2.656   5.046   4.249
  247W        W 1344   2.854   0.300   3.571
  248W        W 1345   4.995   0.547   6.100
  249W        W 1346   2.249   6.799   5.721
  250W        W 1347   1.173   2.915   3.929
  251W        W 1348   1.828   2.833   4.395
  252W        W 1349   1.401   3.903   3.911
  253W        W 1350   1.622   5.017   0.757
  254W        W 1351   6.043   1.725   5.509
  255W        W 1352   6.550   4.164   3.398
  256W        W 1353   1.866   4.393   3.688
  257W        W 1354   1.641   2.836   7.751
  258W        W 1355   7.124   6.958   2.984
  259W        W 1356   1.142   0.591   1.935
  260W        W 1357   3.760   4.459   1.233
  261W        W 1358   3.066   4.164   4.186
  262W        W 1359   4.665   6.166   1.652
  263W        W 1360   1.494   1.886   5.564
  264W        W 1361   3.444   0.685   4.151
  265W        W 1362   2.948   7.387   1.598
  266W        W 1363   2.012   4.084   1.067
  267W        W 1364   2.491   3.248   5.008
  268W        W 1365   1.163   4.790   2.741
  269W        W 1366   2.039   1.528   3.530
  270W        W 1367   5.259   6.936   1.642
  271W        W 1368   5.892   5.026   4.854
  272W        W 1369   5.564   3.437   2.633
  273W        W 1370   3.508   6.323   6.419
  274W        W 1371   5.830   4.811   2.930
  275W        W 1372   5.691   1.172   3.701
  276W        W 1373   1.845   5.388   0.041
  277W        W 1374   0.415   0.918   3.499
  278W        W 1375   6.798   5.151   3.790
  279W        W 1376   3.869   4.981   3.844
  280W        W 1377   7.949   5.290   5.134
  281W        W 1378   4.338   6.090   3.592
  282W        W 1379   5.019   4.564   7.453
  283W        W 1380   1.515   3.348   1.451
  284W        W 1381   1.592   4.011   5.669
  285W        W 1382   6.976   7.069   2.468
  286W        W 1383   1.467   5.776   3.709
  287W        W 1384   5.336   3.814   0.020
  288W        W 1385   6.850   5.800   4.793
  289W        W 1386   5.526   6.281   7.699
  290W        W 1387   2.864   4.518   3.413
  291W        W 1388   4.284   0.766   3.701
  292W        W 1389   3.744   0.753   4.850
  293W        W 1390   1.668   5.837   0.202
  294W        W 1391   0.368   2.652   3.644
  295W        W 1392   2.848   2.913   2.860
  296W        W 1393   3.946   7.559   1.022
  297W        W 1394   5.677   5.924   5.712
  298W        W 1395   0.761   7.208   0.403
  299W        W 1396   2.007   1.825   1.272
  300W        W 1397   1.787   2.062   7.402
  301W        W 1398   6.420   5.194   3.446
  302W        W 1399   2.492   4.179   6.256
  303W        W 1400   1.163   5.285   1.447
  304W        W 1401   0.814   5.475   1.115
  305W        W 1402   2.485   4.724   5.560
  306W        W 1403   3.248   2.208   3.444
  307W        W 1404   6.199   0.978   1.125
  308W        W 1405   0.515   4.211   3.566
  309W        W 1406   2.099   2.174   6.096
  310W        W 1407   4.554   6.817   1.247
  311W        W 1408   6.579   4.197   1.156
  312W        W 1409   2.452   2.495   5.941
  313W        W 1410   5.830   0.674   6.589
  314W        W 1411   1.150   3.767   6.858
  315W        W 1412   0.391   7.053   5.185
  316W        W 1413   6.193   6.939   7.689
  317W        W 1414   4.553   4.290   6.834
  318W        W 1415   5.317   3.782   2.307
  319W        W 1416   6.574   4.695   3.393
  320W        W 1417   5.067   5.651   1.552
  321W        W 1418   6.641   0.710   0.355
  322W        W 1419   1.890   1.518   2.630
  323W        W 1420   2.399   5.250   2.723
  324W        W 1421   2.866   0.714   4.888
  325W        W 1422   4.138   1.029   3.275
  326W        W 1423   6.907   7.165   5.060
  327W        W 1424   6.548   1.946   7.194
  328W        W 1425   0.955   3.793   0.156
  329W        W 1426   5.588   5.185   4.031
  330W        W 1427   0.718   2.543   6.461
  331W        W 1428   4.831   1.049   7.027
  332W        W 1429   1.103   5.167   2.407
  333W        W 1430   3.252   5.912   2.496
  334W        W 1431   1.216   2.296   5.454
  335W        W 1432   1.385   4.417   2.478
  336W        W 1433   2.076   1.605   4.532
  337W        W 1434   6.179   1.352   6.640
  338W        W 1435   0.923   1.671   0.836
  339W        W 1436   2.590   1.566   5.960
  340W        W 1437   7.270   4.602   5.389
  341W        W 1438   5.955   1.210   5.495
  342W        W 1439   2.960   3.761   6.805
  343W        W 1440   6.954   3.468   1.511
  344W        W 1441   6.398   7.377   7.175
  345W        W 1442   5.844   6.657   7.455
  346W        W 1443   1.689   1.141   2.343
  347W        W 1444   2.647   5.261   1.061
  348W        W 1445   5.526   2.826   2.031
  349W        W 1446   7.902   3.568   4.499
  350W        W 1447   5.120   5.969   7.673
  351W        W 1448   4.609   2.774   4.307
  352W        W 1449   1.050   4.770   1.510
  353W        W 1450   2.664   5.861   6.589
  354W        W 1451   5.353   1.884   3.412
  355W        W 1452   5.923   3.072   3.619
  356W        W 1453   5.050   5.168   7.055
  357W        W 1454   5.313   3.846   0.554
  358W        W 1455   4.375   2.887   0.434
  359W        W 1456   0.899   5.432   6.105
  360W        W 1457   0.180   2.301   4.418
  361W        W 1458   7.505   3.037   5.190
  362W        W 1459   4.147   5.030   5.485
  363W        W 1460   5.176   1.392   0.553
  364W        W 1461   4.125   3.860   1.937
  365W        W 1462   2.810   7.948   5.368
  366W        W 1463   2.407   5.715   5.003
  367W        W 1464   2.461   4.612   0.449
  368W        W 1465   2.162   2.962   0.764
  369W        W 1466   2.968   3.376   4.610
  370W        W 1467   0.163   4.288   5.239
  371W        W 1468   5.925   6.154   7.400
  372W        W 1469   7.085   5.622   1.610
  373W        W 1470   5.436   1.268   5.493
  374W        W 1471   4.626   4.767   3.518
  375W        W 1472   5.162   0.212   1.278
  376W        W 1473   6.301   4.827   5.097
  377W        W 1474   4.477   0.814   6.680
  378W        W 1475   1.157   6.205   0.780
  379W        W 1476   2.191   4.167   2.077
  380W        W 1477   0.595   0.770   2.718
  381W        W 1478   7.030   0.572   0.706
  382W        W 1479   5.633   7.341   6.521
  383W        W 1480   1.620   4.826   3.700
  384W        W 1481   0.231   3.283   1.186
  385W        W 1482   0.580   1.082   1.361
  386W        W 1483   0.921   0.488   5.298
  387W        W 1484   5.354   6.811   7.450
  388W        W 1485   5.133   4.677   2.367
  389W        W 1486   1.166   4.614   3.527
  390W        W 1487   0.214   2.301   4.925
  391W        W 1488   2.739   4.243   6.700
  392W        W 1489   1.033   6.642   3.202
  393W        W 1490   6.397   6.016   6.218
  394W        W 1491   1.501   3.938   4.510
  395W        W 1492   2.431   7.235   5.941
  396W        W 1493   3.696   2.363   5.555
  397W        W 1494   0.998   6.336   7.910
  398W        W 1495   2.249   3.222   0.293
  399W        W 1496   7.792   2.343   5.218
  400W        W 1497   3.976   1.589   5.091
  401W        W 1498   6.038   2.137   7.270
  402W        W 1499   0.232   5.477   3.889
  403W        W 1500   2.455   0.759   0.937
  404W        W 1501   3.761   2.328   0.625
  405W        W 1502   6.481   4.883   5.712
  406W        W 1503   0.509   6.274   7.206
  407W        W 1504   0.926   2.015   4.058
  408W        W 1505   7.690   1.996   2.099
  409W        W 1506   2.683   1.326   3.274
  410W        W 1507   0.741   3.729   4.041
  411W        W 1508   6.013   1.121   3.279
  412W        W 1509   4.653   3.404   7.097
  413W        W 1510   2.766   4.817   6.790
  414W        W 1511   4.987   3.243   1.830
  415W        W 1512   0.503   6.674   5.577
  416W        W 1513   6.934   7.970   6.378
  417W        W 1514   0.802   1.997   1.511
  418W        W 1515   6.567   5.079   6.566
  419W        W 1516   4.269   6.465   2.871
  420W        W 1517   1.702   4.848   5.938
  421W        W 1518   5.309   2.793   5.292
  422W        W 1519   0.914   2.157   0.616
  423W        W 1520   2.646   3.254   6.116
  424W        W 1521   6.143   4.529   4.156
  425W        W 1522   4.332   6.715   2.181
  426W        W 1523   4.860   3.952   5.530
  427W        W 1524   6.654   1.830   2.949
  428W        W 1525   1.014   0.600   7.051
  429W        W 1526   1.251   1.171   1.522
  430W        W 1527   5.344   4.750   1.014
  431W        W 1528   3.334   0.179   4.269
  432W        W 1529   2.993   0.422   1.540
  433W        W 1530   6.925   2.039   0.534
  434W        W 1531   5.034   6.996   1.099
  435W        W 1532   1.650   5.696   5.541
  436W        W 1533   3.015   4.046   6.331
  437W        W 1534   6.080   3.447   5.606
  438W        W 1535   5.122   3.359   3.869
  439W        W 1536   2.474   1.666   1.413
  440W        W 1537   5.472   7.360   7.004
  441W        W 1538   0.415   3.578   2.547
  442W        W 1539   5.309   1.520   3.021
  443W        W 1540   0.539   0.479   6.906
  444W        W 1541   1.739   2.568   7.279
  445W        W 1542   5.790   2.106   0.626
  446W        W 1543   6.795   3.638   3.324
  447W        W 1544   0.185   0.271   6.603
  448W        W 1545   6.465   5.418   2.531
  449W        W 1546   3.465   4.040   3.874
  450W        W 1547   0.072   7.655   6.011
  451W        W 1548   0.332   1.815   1.642
  452W        W 1549   6.240   7.709   3.651
  453W        W 1550   2.557   3.328   2.190
  454W        W 1551   6.042   7.636   0.165
  455W        W 1552   7.067   2.657   5.649
  456W        W 1553   2.678   2.977   3.662
  457W        W 1554   6.989   2.934   5.202
  458W        W 1555   1.394   3.238   0.580
  459W        W 1556   1.482   1.583   2.269
  460W        W 1557   7.632   1.719   4.938
  461W        W 1558   7.541   3.562   4.908
  462W        W 1559   0.723   4.333   4.572
  463W        W 1560   0.492   3.421   3.149
  464W        W 1561   4.184   4.205   5.451
  465W        W 1562   4.494   2.712   7.967
  466W        W 1563   6.816   2.919   0.674
  467W        W 1564   1.125   5.387   2.879
  468W        W 1565   2.890   7.432   5.284
  469W        W 1566   4.566   4.465   4.835
  470W        W 1567   6.170   7.837   2.161
  471W        W 1568   4.756   3.884   2.580
  472W        W 1569   6.521   7.660   6.294
  473W        W 1570   5.263   2.551   1.205
  474W        W 1571   6.807   6.703   0.419
  475W        W 1572   6.294   3.859   3.694
  476W        W 1573   2.239   2.577   5.482
  477W        W 1574   2.632   5.096   7.189
  478W        W 1575   1.958   2.670   5.924
  479W        W 1576   6.599   2.202   3.752
  480W        W 1577   3.039   7.362   4.023
  481W        W 1578   4.606   0.975   4.019
  482W        W 1579   3.469   3.276   4.674
  483W        W 1580   3.103   1.441   3.032
  484W        W 1581   5.019   6.754   3.188
  485W        W 1582   0.048   6.253   5.126
  486W        W 1583   0.771   5.547   0.099
  487W        W 1584   5.006   6.139   2.429
  488W        W 1585   7.347   2.141   3.669
  489W        W 1586   3.417   3.384   2.155
  490W        W 1587   2.772   0.460   5.443
  491W        W 1588   1.822   2.021   4.782
  492W        W 1589   1.396   4.724   1.111
  493W        W 1590   2.864   7.546   1.115
  494W        W 1591   7.733   0.780   2.940
  495W        W 1592   0.526   3.228   6.486
  496W        W 1593   0.753   2.041   6.617
  497W        W 1594   5.252   4.804   4.039
  498W        W 1595   5.088   2.858   6.830
  499W        W 1596   4.517   3.876   0.608
  500W        W 1597   5.057   7.501   0.140
  501W        W 1598   6.930   7.362   7.182
  502W        W 1599   6.869   7.047   1.150
  503W        W 1600   7.114   7.883   5.457
  504W        W 1601   0.461   0.641   4.620
  505W        W 1602   5.830   0.119   0.256
  506W        W 1603   5.794   5.860   0.426
  507W        W 1604   2.644   3.813   3.037
  508W        W 1605   2.968   1.730   5.223
  509W        W 1606   4.849   2.811   1.256
  510W        W 1607   5.934   1.129   1.512
  511W        W 1608   1.422   5.808   0.613
  512W        W 1609   0.312   3.149   4.909
  513W        W 1610   4.160   0.813   1.553
  514W        W 1611   5.446   4.567   7.719
  515W        W 1612   1.346   4.634   6.259
  516W        W 1613   1.237   5.978   5.583
  517W        W 1614   4.180   4.236   1.458
  518W        W 1615   1.786   6.418   6.658
  519W        W 1616   7.055   4.432   6.121
  520W        W 1617   7.446   5.114   2.696
  521W        W 1618   0.062   3.569   2.916
  522W        W 1619   0.347   3.752   1.016
  523W        W 1620   1.068   3.607   0.605
  524W        W 1621   6.454   2.212   3.259
  525W        W 1622   4.047   1.273   7.152
  526W        W 1623   2.952   0.923   5.395
  527W        W 1624   5.242   3.504   0.947
  528W        W 1625   7.972   3.918   6.578
  529W        W 1626   7.519   6.017   6.987
  530W        W 1627   5.540   4.776   1.495
  531W        W 1628   6.025   5.640   7.449
  532W        W 1629   4.875   5.348   7.776
  533W        W 1630   7.063   2.213   6.981
  534W        W 1631   2.982   5.388   3.585
  535W        W 1632   0.525   4.397   5.951
  536W        W 1633   1.220   0.731   6.077
  537W        W 1634   2.936   1.958   2.571
  538W        W 1635   7.172   5.654   2.137
  539W        W 1636   5.488   0.993   0.408
  540W        W 1637   7.818   2.030   6.680
  541W        W 1638   1.962   0.888   5.065
  542W        W 1639   4.501   1.004   2.910
  543W        W 1640   4.149   2.603   0.811
  544W        W 1641   5.209   5.322   6.563
  545W        W 1642   0.483   0.976   4.186
  546W        W 1643   4.924   5.765   5.281
  547W        W 1644   7.493   4.665   5.870
  548W        W 1645   0.351   5.623   4.516
  549W        W 1646   2.269   1.167   6.007
  550W        W 1647   2.230   7.028   5.244
  551W        W 1648   4.949   5.507   2.969
  552W        W 1649   7.041   2.965   1.570
  553W        W 1650   3.261   6.468   5.700
  554W        W 1651   1.427   1.462   0.964
  555W        W 1652   3.463   7.429   1.592
  556W        W 1653   4.408   3.866   7.063
  557W        W 1654   1.108   7.155   4.669
  558W        W 1655   5.595   1.345   1.200
  559W        W 1656   6.532   4.418   4.956
  560W        W 1657   4.904   6.617   1.564
  561W        W 1658   5.120   6.963   6.991
  562W        W 1659   1.196   5.015   5.920
  563W        W 1660   1.471   2.462   4.840
  564W        W 1661   5.278   6.350   6.368
  565W        W 1662   6.524   0.889   7.303
  566W        W 1663   3.004   4.569   6.408
  567W        W 1664   6.185   1.249   7.154
  568W        W 1665   6.825   0.408   4.813
  569W        W 1666   4.854   3.087   4.629
  570W        W 1667   4.927   1.826   1.314
  571W        W 1668   6.626   4.591   4.462
  572W        W 1669   2.915   5.932   3.855
  573W        W 1670   2.987   2.573   3.661
  574W        W 1671   5.061   4.683   1.662
  575W        W 1672   0.469   7.050   6.550
  576W        W 1673   2.512   0.819   6.298
  577W        W 1674   5.206   0.075   1.796
  578W        W 1675   3.027   2.585   6.537
  579W        W 1676   3.624   0.237   4.906
  580W        W 1677   6.174   3.681   7.353
  581W        W 1678   5.563   1.072   7.393
  582W        W 1679   1.531   7.300   5.815
  583W        W 1680   3.989   3.907   6.768
  584W        W 1681   1.612   5.165   1.240
  585W        W 1682   5.671   6.030   4.080
  586W        W 1683   6.232   0.447   7.297
  587W        W 1684   7.311   3.260   6.449
  588W        W 1685   2.905   3.618   4.159
  589W        W 1686   7.464   2.426   6.682
  590W        W 1687   0.986   3.379   3.237
  591W        W 1688   7.698   4.172   5.606
  592W        W 1689   2.424   6.271   4.547
  593W        W 1690   5.484   7.274   0.333
  594W        W 1691   5.401   2.754   7.228
  595W        W 1692   6.596   1.612   6.807
  596W        W 1693   6.400   5.503   5.525
  597W        W 1694   3.536   0.705   6.049
  598W        W 1695   3.296   0.978   1.057
  599W        W 1696   2.886   2.494   4.784
  600W        W 1697   6.904   6.811   3.690
  601W        W 1698   5.386   4.952   5.062
  602W        W 1699   5.493   4.666   2.008
  603W        W 1700   3.833   5.591   3.173
  604W        W 1701   1.458   0.948   1.098
  605W        W 1702   3.672   0.736   1.638
  606W        W 1703   3.827   6.169   5.009
  607W        W 1704   0.782   7.363   5.025
  608W        W 1705   7.842   5.811   3.282
  609W        W 1706   1.975   3.645   0.149
  610W        W 1707   4.989   7.673   1.542
  611W        W 1708   3.227   6.604   4.407
  612W        W 1709   5.235   5.870   6.556
  613W        W 1710   1.064   4.151   2.205
  614W        W 1711   0.773   1.462   1.671
  615W        W 1712   6.902   4.278   1.707
  616W        W 1713   6.770   6.217   5.914
  617W        W 1714   5.429   1.694   6.240
  618W        W 1715   1.716   2.872   1.410
  619W        W 1716   1.637   3.912   6.990
  620W        W 1717   1.274   3.309   6.104
  621W        W 1718   5.069   5.116   2.648
  622W        W 1719   4.523   2.735   2.379
  623W        W 1720   5.530   7.728   0.106
  624W        W 1721   1.633   2.492   0.157
  625W        W 1722   0.909   5.495   6.766
  626W        W 1723   4.610   6.867   2.920
  627W        W 1724   4.748   3.723   4.420
  628W        W 1725   2.943   5.057   5.988
  629W        W 1726   1.886   6.062   3.725
  630W        W 1727   2.849   5.256   4.997
  631W        W 1728   3.447   2.941   2.937
  632W        W 1729   2.476   5.714   5.972
  633W        W 1730   3.993   0.864   6.804
  634W        W 1731   5.273   1.126   2.236
  635W        W 1732   1.421   5.877   4.207
  636W        W 1733   4.419   4.565   2.452
  637W        W 1734   3.464   2.847   4.936
  638W        W 1735   3.356   3.604   0.906
  639W        W 1736   3.279   5.449   5.259
  640W        W 1737   7.626   2.635   4.823
  641W        W 1738   5.554   3.524   4.671
  642W        W 1739   4.388   0.391   6.006
  643W        W 1740   4.588   3.149   2.118
  644W        W 1741   6.938   3.952   4.282
  645W        W 1742   7.934   3.353   1.941
  646W        W 1743   4.530   2.330   5.199
  647W        W 1744   6.002   5.201   3.719
  648W        W 1745   3.017   3.543   6.347
  649W        W 1746   6.338   0.914   1.758
  650W        W 1747   3.663   1.182   2.380
  651W        W 1748   5.015   1.057   3.104
  652W        W 1749   1.397   4.487   5.770
  653W        W 1750   7.415   3.230   2.748
  654W        W 1751   5.720   4.700   3.878
  655W        W 1752   6.976   3.400   0.753
  656W        W 1753   0.605   2.061   1.023
  657W        W 1754   3.017   4.161   2.395
  658W        W 1755   7.257   2.937   3.584
  659W        W 1756   6.117   4.841   6.509
  660W        W 1757   2.958   6.963   6.395
  661W        W 1758   0.313   1.806   3.409
  662W        W 1759   7.100   5.298   0.711
  663W        W 1760   3.412   1.275   7.978
  664W        W 1761   1.209   3.673   2.097
  665W        W 1762   1.239   5.317   0.871
  666W        W 1763   0.052   1.230   6.400
  667W        W 1764   5.760   0.639   0.131
  668W        W 1765   5.200   6.903   2.168
  669W        W 1766   4.474   7.343   2.765
  670W        W 1767   0.566   4.012   1.384
  671W        W 1768   5.968   5.794   4.467
  672W        W 1769   6.217   6.464   1.731
  673W        W 1770   5.379   2.320   3.141
  674W        W 1771   0.787   0.492   0.475
  675W        W 1772   5.316   5.569   2.013
  676W        W 1773   0.822   2.625   5.455
  677W        W 1774   3.229   1.978   1.981
  678W        W 1775   7.467   3.343   5.604
  679W        W 1776   5.751   2.442   6.978
  680W        W 1777   2.117   3.944   3.739
  681W        W 1778   3.767   7.037   1.727
  682W        W 1779   4.090   4.340   7.036
  683W        W 1780   5.629   3.971   2.648
  684W        W 1781   2.380   5.167   2.162
  685W        W 1782   4.389   3.581   7.482
  686W        W 1783   5.266   0.268   7.452
  687W        W 1784   2.523   6.293   3.981
  688W        W 1785   4.406   0.171   2.164
  689W        W 1786   5.255   2.804   3.041
  690W        W 1787   5.234   7.643   0.604
  691W        W 1788   4.907   2.090   7.317
  692W        W 1789   3.514   3.670   3.142
  693W        W 1790   1.032   1.769   2.398
  694W        W 1791   3.344   5.793   7.362
  695W        W 1792   1.378   6.762   4.022
  696W        W 1793   1.385   1.659   2.773
  697W        W 1794   2.203   3.999   2.857
  698W        W 1795   2.169   3.838   0.593
  699W        W 1796   2.638   2.795   6.303
  700W        W 1797   4.667   0.358   6.451
  701W        W 1798   7.969   2.130   5.662
  702W        W 1799   7.356   2.320   4.493
  703W        W 1800   2.706   2.094   0.708
  704W        W 1801   6.369   7.139   1.097
  705W        W 1802   6.131   1.681   4.432
  706W        W 1803   7.186   5.767   6.692
  707W        W 1804   1.231   7.300   5.240
  708W        W 1805   1.657   3.661   1.847
  709W        W 1806   4.778   5.341   3.457
  710W        W 1807   4.177   4.621   5.751
  711W        W 1808   4.997   1.093   4.304
  712W        W 1809   3.695   7.784   1.886
  713W        W 1810   1.883   2.362   1.471
  714W        W 1811   3.103   5.784   4.315
  715W        W 1812   1.598   5.331   1.716
  716W        W 1813   1.007   6.348   4.175
  717W        W 1814   5.810   4.866   7.493
  718W        W 1815   3.498   1.760   5.168
  719W        W 1816   3.995   4.832   2.498
  720W        W 1817   3.553   4.532   3.886
  721W        W 1818   4.822   0.832   2.145
  722W        W 1819   0.193   4.989   3.683
  723W        W 1820   6.576   2.221   6.218
  724W        W 1821   6.624   7.578   3.310
  725W        W 1822   1.612   6.765   6.987
  726W        W 1823   2.216   5.921   3.323
  727W        W 1824   5.363   2.077   1.342
  728W        W 1825   1.083   1.074   6.824
  729W        W 1826   6.095   7.132   4.933
  730W        W 1827   4.014   1.050   2.727
  731W        W 1828   7.886   7.897   6.419
  732W        W 1829   5.847   3.767   6.585
  733W        W 1830   1.737   6.888   6.486
  734W        W 1831   6.492   6.220   6.735
  735W        W 1832   4.181   2.990   1.772
  736W        W 1833   4.329   4.836   2.020
  737W        W 1834   4.006   4.552   5.102
  738W        W 1835   4.649   3.996   2.067
  739W        W 1836   7.441   6.512   5.238
  740W        W 1837   6.417   0.569   1.359
  741W        W 1838   7.073   1.901   4.584
  742W        W 1839   1.297   2.549   0.709
  743W        W 1840   5.964   7.306   6.909
  744W        W 1841   3.500   6.765   2.151
  745W        W 1842   7.179   6.126   1.003
  746W        W 1843   1.411   2.535   3.530
  747W        W 1844   6.613   2.739   4.883
  748W        W 1845   6.888   6.014   1.872
  749W        W 1846   6.631   6.295   4.954
  750W        W 1847   0.779   5.247   0.618
  751W        W 1848   3.812   5.957   7.140
  752W        W 1849   1.669   2.207   5.221
  753W        W 1850   7.027   6.559   5.636
  754W        W 1851   3.799   5.312   2.451
  755W        W 1852   2.666   1.697   2.932
  756W        W 1853   2.661   7.059   5.538
  757W        W 1854   1.453   4.198   3.488
  758W        W 1855   3.819   6.726   2.933
  759W        W 1856   2.456   5.624   1.861
  760W        W 1857   1.745   6.915   3.632
  761W        W 1858   1.529   6.324   2.974
  762W        W 1859   5.978   4.028   3.321
  763W        W 1860   6.356   5.863   1.128
  764W        W 1861   3.210   6.833   4.878
  765W        W 1862   5.415   3.968   1.071
  766W        W 1863   6.826   7.381   2.859
  767W        W 1864   7.391   2.485   6.165
  768W        W 1865   4.110   1.363   2.263
  769W        W 1866   3.824   2.676   6.899
  770W        W 1867   2.951   3.360   1.457
  771W        W 1868   3.641   1.823   0.799
  772W        W 1869   4.901   2.007   0.560
  773W        W 1870   6.107   1.925   4.858
  774W        W 1871   4.091   1.620   0.931
  775W        W 1872   4.074   1.506   5.769
  776W        W 1873   2.460   5.519   5.467
  777W        W 1874   5.384   4.301   1.659
  778W        W 1875   7.965   3.168   5.683
  779W        W 1876   5.640   3.651   5.701
  780W        W 1877   4.838   6.288   5.217
  781W        W 1878   0.739   2.982   3.440
  782W        W 1879   2.825   1.071   7.261
  783W        W 1880   0.637   2.991   3.945
  784W        W 1881   3.116   0.263   5.056
  785W        W 1882   4.642   6.980   3.447
  786W        W 1883   2.723   3.229   6.625
  787W        W 1884   2.661   7.397   6.382
  788W        W 1885   7.002   0.583   5.691
  789W        W 1886   5.690   6.066   6.350
  790W        W 1887   1.889   4.440   2.394
  791W        W 1888   1.703   2.256   3.867
  792W        W 1889   6.408   3.126   6.706
  793W        W 1890   6.742   1.833   1.660
  794W        W 1891   4.811   7.673   6.439
  795W        W 1892   1.289   2.774   2.159
  796W        W 1893   5.349   2.205   0.842
  797W        W 1894   6.350   2.879   0.458
  798W        W 1895   4.064   1.414   0.481
  799W        W 1896   1.741   0.486   0.009
  800W        W 1897   0.239   2.997   3.285
  801W        W 1898   4.813   3.491   5.768
  802W        W 1899   7.502   3.238   2.196
  803W        W 1900   7.245   3.156   4.774
  804W        W 1901   4.101   3.030   6.682
  805W        W 1902   1.122   1.323   3.046
  806W        W 1903   0.872   0.424   5.836
  807W        W 1904   2.961   3.832   0.717
  808W        W 1905   5.463   2.475   7.871
  809W        W 1906   1.346   4.808   7.126
  810W        W 1907   4.721   4.262   6.363
  811W        W 1908   5.381   0.788   6.813
  812W        W 1909   6.715   6.495   1.812
  813W        W 1910   3.508   4.708   1.621
  814W        W 1911   0.547   5.144   6.317
  815W        W 1912   4.203   7.959   1.217
  816W        W 1913   0.761   3.444   6.065
  817W        W 1914   0.282   1.056   5.955
  818W        W 1915   6.793   6.303   2.804
  819W        W 1916   3.734   1.954   6.423
  820W        W 1917   5.311   4.941   6.258
  821W        W 1918   1.827   0.390   1.277
  822W        W 1919   5.615   7.559   7.630
  823W        W 1920   4.948   5.246   5.369
  824W        W 1921   5.627   2.768   1.466
  825W        W 1922   5.275   2.317   0.323
  826W        W 1923   6.618   0.021   2.372
  827W        W 1924   7.886   1.754   2.521
  828W        W 1925   6.531   4.255   2.472
  829W        W 1926   3.054   7.069   4.446
  830W        W 1927   1.643   0.146   0.376
  831W        W 1928   0.129   3.507   6.288
  832W        W 1929   2.571   6.753   6.124
  833W        W 1930   3.495   3.520   5.657
  834W        W 1931   5.685   4.385   1.178
  835W        W 1932   3.101   5.214   4.414
  836W        W 1933   6.910   6.605   6.665
  837W        W 1934   4.487   2.754   3.418
  838W        W 1935   2.893   6.252   4.321
  839W        W 1936   2.565   6.372   7.121
  840W        W 1937   0.485   0.290   5.504
  841W        W 1938   3.773   2.989   1.463
  842W        W 1939   4.044   2.526   3.480
  843W        W 1940   4.932   3.112   0.862
  844W        W 1941   5.058   4.870   0.013
  845W        W 1942   4.765   3.007   5.859
  846W        W 1943   2.780   6.752   4.180
  847W        W 1944   6.166   1.892   7.918
  848W        W 1945   1.279   5.594   6.428
  849W        W 1946   0.751   6.640   2.745
  850W        W 1947   5.341   4.686   6.695
  851W        W 1948   3.930   5.660   6.711
  852W        W 1949   4.309   5.802   1.710
  853W        W 1950   0.210   4.506   3.861
  854W        W 1951   0.615   5.785   5.830
  855W        W 1952   1.442   2.309   5.945
  856W        W 1953   4.645   5.446   7.261
  857W        W 1954   6.850   6.066   3.268
  858W        W 1955   5.777   4.355   5.588
  859W        W 1956   6.551   1.333   1.008
  860W        W 1957   0.192   4.098   5.722
  861W        W 1958   4.111   3.448   7.053
  862W        W 1959   6.070   0.417   7.798
  863W        W 1960   0.596   4.521   5.062
  864W        W 1961   0.442   4.667   5.520
  865W        W 1962   4.543   2.507   7.489
  866W        W 1963   4.248   4.680   2.958
  867W        W 1964   2.760   5.476   0.078
  868W        W 1965   3.612   3.197   3.350
  869W        W 1966   6.625   1.674   4.621
  870W        W 1967   2.835   2.087   3.791
  871W        W 1968   4.892   5.598   1.053
  872W        W 1969   6.591   3.165   4.097
  873W        W 1970   0.490   3.238   1.748
  874W        W 1971   6.719   5.960   3.776
  875W        W 1972   5.554   1.792   5.364
  876W        W 1973   7.514   5.483   6.938
  877W        W 1974   3.988   3.525   3.184
  878W        W 1975   7.177   4.366   7.005
  879W        W 1976   1.438   0.631   1.519
  880W        W 1977   7.809   6.814   4.019
  881W        W 1978   1.526   5.206   5.561
  882W        W 1979   2.672   2.647   3.267
  883W        W 1980   2.774   4.742   5.157
  884W        W 1981   6.792   5.571   3.442
  885W        W 1982   1.640   6.085   0.980
  886W        W 1983   4.712   7.977   1.240
  887W        W 1984   3.322   0.766   5.103
  888W        W 1985   4.169   5.620   7.277
  889W        W 1986   5.344   7.346   1.360
  890W        W 1987   6.650   4.678   1.032
  891W        W 1988   6.256   5.717   2.152
  892W        W 1989   3.190   4.342   4.671
  893W        W 1990   3.108   3.037   6.290
  894W        W 1991   5.425   2.981   0.968
  895W        W 1992   6.949   1.797   3.723
  896W        W 1993   0.143   5.078   5.562
  897W        W 1994   5.814   1.071   0.805
  898W        W 1995   3.611   2.483   2.783
  899W        W 1996   0.922   0.711   4.843
  900W        W 1997   5.457   2.937   2.553
  901W        W 1998   6.263   5.972   4.078
  902W        W 1999   2.600   2.986   1.159
  903W        W 2000   7.433   1.386   5.601
  904W        W 2001   5.466   0.265   6.966
  905W        W 2002   3.179   2.716   4.111
  906W        W 2003   4.464   4.339   3.321
  907W        W 2004   4.482   2.797   5.404
  908W        W 2005   1.935   5.328   0.523
  909W        W 2006   7.835   3.624   0.999
  910W        W 2007   2.201   4.751   5.977
  911W        W 2008   7.339   5.779   6.195
  912W        W 2009   6.598   7.303   1.540
  913W        W 2010   1.176   6.104   4.582
  914W        W 2011   6.196   6.568   4.016
  915W        W 2012   3.715   1.085   0.342
  916W        W 2013   3.222   4.961   5.225
  917W        W 2014   6.805   2.216   2.059
  918W        W 2015   7.611   4.622   2.309
  919W        W 2016   2.195   1.189   2.355
  920W        W 2017   6.726   7.518   6.730
  921W        W 2018   2.961   5.562   2.737
  922W        W 2019   6.594   3.944   6.506
  923W        W 2020   1.855   5.627   4.935
  924W        W 2021   4.182   5.987   3.095
  925W        W 2022   5.361   4.953   0.467
  926W        W 2023   5.998   6.374   7.876
  927W        W 2024   1.121   5.901   0.200
  928W        W 2025   6.199   7.696   3.071
  929W        W 2026   0.833   4.650   3.142
  930W        W 2027   4.434   5.740   4.463
  931W        W 2028   2.624   3.647   3.608
  932W        W 2029   3.555   0.605   6.994
  933W        W 2030   5.241   3.313   3.051
  934W        W 2031   6.206   4.439   3.154
  935W        W 2032   7.727   5.806   6.558
  936W        W 2033   4.628   4.355   0.749
  937W        W 2034   0.341   0.445   0.873
  938W        W 2035   0.220   7.528   6.555
  939W        W 2036   6.780   1.317   4.960
  940W        W 2037   7.612   2.133   4.096
  941W        W 2038   2.570   5.035   6.345
  942W        W 2039   1.637   6.032   5.137
  943W        W 2040   3.032   6.758   5.362
  944W        W 2041   1.767   3.560   5.462
  945W        W 2042   1.485   3.170   4.228
  946W        W 2043   6.452   2.771   0.996
  947W        W 2044   2.015   4.612   6.857
  948W        W 2045   4.803   4.722   1.211
  949W        W 2046   3.478   2.597   0.287
  950W        W 2047   5.814   5.572   1.870
  951W        W 2048   7.779   3.376   1.436
  952W        W 2049   7.069   2.387   0.160
  953W        W 2050   6.918   4.164   5.268
  954W        W 2051   2.286   5.054   6.807
  955W        W 2052   2.545   3.906   4.490
  956W        W 2053   1.014   3.346   1.748
  957W        W 2054   3.495   4.913   2.501
  958W        W 2055   1.758   3.691   2.869
  959W        W 2056   4.204   6.875   3.225
  960W        W 2057   7.014   5.584   3.956
  961W        W 2058   3.607   3.307   5.189
  962W        W 2059   5.203   5.996   7.061
  963W        W 2060   3.547   0.739   0.693
  964W        W 2061   5.177   3.453   4.350
  965W        W 2062   4.735   0.799   7.527
  966W        W 2063   0.979   3.936   7.301
  967W        W 2064   5.143   0.638   2.502
  968W        W 2065   1.195   4.178   6.537
  969W        W 2066   4.443   0.377   1.461
  970W        W 2067   2.704   6.388   7.636
  971W        W 2068   5.360   5.894   0.137
  972W        W 2069   3.728   4.394   0.345
  973W        W 2070   5.074   2.065   6.361
  974W        W 2071   4.835   1.506   0.902
  975W        W 2072   1.437   6.064   7.839
  976W        W 2073   3.018   5.728   6.952
  977W        W 2074   5.133   6.011   4.884
  978W        W 2075   3.022   6.889   5.882
  979W        W 2076   0.927   6.896   6.357
  980W        W 2077   1.608   1.981   2.000
  981W        W 2078   1.665   1.982   2.513
  982W        W 2079   2.016   3.258   7.776
  983W        W 2080   5.890   1.702   2.173
  984W        W 2081   5.375   1.852   0.489
  985W        W 2082   1.933   0.706   2.376
  986W        W 2083   6.220   6.829   5.314
  987W        W 2084   0.725   3.764   3.504
  988W        W 2085   5.175   6.466   6.849
  989W        W 2086   5.894   1.855   6.253
  990W        W 2087   7.408   2.866   3.099
  991W        W 2088   6.139   1.487   3.664
  992W        W 2089   1.703   2.301   6.401
  993W        W 2090   0.501   4.039   4.924
  994W        W 2091   0.264   4.589   3.336
  995W        W 2092   3.907   3.240   5.705
  996W        W 2093   5.135   6.165   1.472
  997W        W 2094   3.965   2.183   6.813
  998W        W 2095   0.461   3.372   3.648
  999W        W 2096   0.818   3.792   2.996
 1000W        W 2097   5.059   6.606   5.588
 1001W        W 2098   1.782   4.219   4.833
 1002W        W 2099   0.740   1.290   5.905
 1003W        W 2100   5.113   4.882   3.552
 1004W        W 2101   4.750   7.205   5.298
 1005W        W 2102   4.206   0.589   4.717
 1006W        W 2103   0.887   1.886   5.332
 1007W        W 2104   5.068   2.013   1.774
 1008W        W 2105   3.623   1.910   4.090
 1009W        W 2106   1.510   6.831   3.178
 1010W        W 2107   4.882   2.251   1.016
 1011W        W 2108   0.006   0.048   0.788
 1012W        W 2109   1.274   2.874   1.652
 1013W        W 2110   1.207   5.015   1.934
 1014W        W 2111   0.935   4.924   1.015
 1015W        W 2112   2.819   5.110   5.492
 1016W        W 2113   3.545   7.702   2.400
 1017W        W 2114   6.584   0.834   4.199
 1018W        W 2115   6.008   1.902   3.983
 1019W        W 2116   1.733   3.324   6.367
 1020W        W 2117   2.595   3.603   0.427
 1021W        W 2118   6.190   1.989   2.871
 1022W        W 2119   0.289   1.115   4.674
 1023W        W 2120   0.325   3.777   5.353
 1024W        W 2121   1.496   1.706   4.613
 1025W        W 2122   5.762   1.883   1.117
 1026W        W 2123   4.568   1.338   1.304
 1027W        W 2124   7.487   0.441   5.791
 1028W        W 2125   4.607   5.898   2.202
 1029W        W 2126   6.978   3.735   5.606
 1030W        W 2127   7.221   0.776   3.628
 1031W        W 2128   0.822   1.773   3.597
 1032W        W 2129   6.312   4.668   7.485
 1033W        W 2130   3.209   5.258   0.213
 1034W        W 2131   3.347   1.529   2.179
 1035W        W 2132   1.187   5.649   3.307
 1036W        W 2133   6.021   4.335   5.009
 1037W        W 2134   3.744   0.523   5.311
 1038W        W 2135   2.640   0.941   6.783
 1039W        W 2136   6.065   3.434   6.901
 1040W        W 2137   4.778   3.498   2.948
 1041W        W 2138   7.340   2.551   5.249
 1042W        W 2139   2.061   0.717   0.508
 1043W        W 2140   5.960   2.695   4.434
 1044W        W 2141   3.711   1.266   7.556
 1045W        W 2142   3.708   2.983   1.981
 1046W        W 2143   3.964   4.575   0.768
 1047W        W 2144   3.507   6.436   3.205
 1048W        W 2145   0.630   1.783   2.054
 1049W        W 2146   5.562   1.672   2.554
 1050W        W 2147   3.034   6.172   2.132
 1051W        W 2148   1.913   6.813   7.825
 1052W        W 2149   4.238   5.778   0.485
 1053W        W 2150   6.307   2.544   0.026
 1054W        W 2151   3.484   6.377   7.059
 1055W        W 2152   6.882   6.793   4.548
 1056W        W 2153   7.481   2.313   5.700
 1057W        W 2154   4.771   3.499   6.290
 1058W        W 2155   3.629   1.652   6.034
 1059W        W 2156   4.036   6.747   4.645
 1060W        W 2157   6.102   5.481   0.296
 1061W        W 2158   1.293   2.854   0.276
 1062W        W 2159   2.894   2.902   5.832
 1063W        W 2160   0.350   3.085   6.021
 1064W        W 2161   4.026   2.097   5.231
 1065W        W 2162   4.298   2.563   6.763
 1066W        W 2163   3.057   6.670   1.402
 1067W        W 2164   3.130   2.902   4.560
 1068W        W 2165   7.961   4.597   5.635
 1069W        W 2166   6.459   1.334   4.255
 1070W        W 2167   3.797   5.542   1.775
 1071W        W 2168   3.599   2.573   2.252
 1072W        W 2169   2.637   2.935   4.643
 1073W        W 2170   2.456   2.411   3.659
 1074W        W 2171   5.523   2.283   7.392
 1075W        W 2172   6.869   5.605   5.308
 1076W        W 2173   4.995   5.534   6.156
 1077W        W 2174   7.142   6.167   4.998
 1078W        W 2175   5.968   1.715   0.341
 1079W        W 2176   7.380   2.840   4.413
 1080W        W 2177   4.627   4.910   5.674
 1081W        W 2178   5.508   1.083   3.236
 1082W        W 2179   1.947   6.877   0.712
 1083W        W 2180   4.726   5.166   6.663
 1084W        W 2181   3.261   1.289   5.229
 1085W        W 2182   6.828   2.463   5.237
 1086W        W 2183   7.596   2.807   5.635
 1087W        W 2184   3.748   3.221   3.886
 1088W        W 2185   4.616   7.545   5.933
 1089W        W 2186   0.641   1.456   3.221
 1090W        W 2187   1.001   2.198   6.191
 1091W        W 2188   1.429   6.093   6.505
 1092W        W 2189   1.922   4.047   1.668
 1093W        W 2190   5.972   4.839   5.736
 1094W        W 2191   4.210   6.649   4.179
 1095W        W 2192   4.457   1.799   3.596
 1096W        W 2193   6.950   2.551   4.313
 1097W        W 2194   0.383   3.861   4.417
 1098W        W 2195   4.693   3.572   5.258
 1099W        W 2196   3.194   3.105   5.448
 1100W        W 2197   2.334   0.745   4.694
 1101W        W 2198   5.937   3.942   5.296
 1102W        W 2199   0.974   3.972   5.125
 1103W        W 2200   1.736   2.599   0.984
 1104W        W 2201   3.947   2.888   3.082
 1105W        W 2202   6.979   3.176   5.639
 1106W        W 2203   7.562   5.311   2.236
 1107W        W 2204   1.245   6.177   3.361
 1108W        W 2205   3.608   6.150   5.511
 1109W        W 2206   5.888   5.353   7.850
 1110W        W 2207   4.428   2.360   1.201
 1111W        W 2208   6.606   5.498   0.885
 1112W        W 2209   4.032   0.930   0.700
 1113W        W 2210   7.300   5.195   1.375
 1114W        W 2211   5.603   2.054   4.923
 1115W        W 2212   5.691   6.627   6.205
 1116W        W 2213   1.181   5.670   2.426
 1117W        W 2214   1.977   6.953   7.327
 1118W        W 2215   1.229   6.268   7.446
 1119W        W 2216   1.080   4.637   6.699
 1120W        W 2217   4.479   0.130   0.801
 1121W        W 2218   6.593   5.011   7.176
 1122W        W 2219   4.283   4.043   2.413
 1123W        W 2220   6.701   4.353   5.749
 1124W        W 2221   6.249   3.001   5.149
 1125W        W 2222   6.724   5.821   2.356
 1126W        W 2223   4.544   4.039   5.116
 1127W        W 2224   6.844   3.504   6.428
 1128W        W 2225   5.795   5.863   7.858
 1129W        W 2226   2.201   6.775   0.291
 1130W        W 2227   2.466   6.555   0.759
 1131W        W 2228   4.304   7.127   1.733
 1132W        W 2229   2.531   6.085   2.096
 1133W        W 2230   2.459   7.845   1.279
 1134W        W 2231   3.822   2.726   5.891
 1135W        W 2232   6.179   2.898   4.020
 1136W        W 2233   2.050   3.571   1.530
 1137W        W 2234   6.118   5.843   6.599
 1138W        W 2235   2.042   4.158   7.176
 1139W        W 2236   4.929   3.418   3.424
 1140W        W 2237   3.929   0.385   1.935
 1141W        W 2238   4.456   4.612   5.308
 1142W        W 2239   7.597   0.798   2.447
 1143W        W 2240   4.341   3.676   2.810
 1144W        W 2241   1.366   5.855   2.869
 1145W        W 2242   2.520   3.896   0.955
 1146W        W 2243   3.188   1.036   2.258
 1147W        W 2244   3.944   5.762   4.481
 1148W        W 2245   4.420   2.163   7.042
 1149W        W 2246   3.555   2.637   3.357
 1150W        W 2247   0.509   5.041   3.291
 1151W        W 2248   4.619   2.392   2.017
 1152W        W 2249   4.293   5.317   1.830
 1153W        W 2250   5.453   2.383   1.716
 1154W        W 2251   3.531   0.738   3.576
 1155W        W 2252   3.417   2.602   6.180
 1156W        W 2253   0.398   5.511   5.007
 1157W        W 2254   4.642   2.673   0.822
 1158W        W 2255   0.265   3.820   3.817
 1159W        W 2256   2.261   1.230   4.847
 1160W        W 2257   6.305   4.966   3.010
 1161W        W 2258   3.565   5.434   1.195
 1162W        W 2259   5.617   0.615   7.624
 1163W        W 2260   4.846   1.592   7.079
 1164W        W 2261   0.743   1.279   2.732
 1165W        W 2262   0.301   5.396   5.955
 1166W        W 2263   1.896   3.639   7.371
 1167W        W 2264   4.804   6.456   2.052
 1168W        W 2265   0.737   3.310   0.354
 1169W        W 2266   5.904   6.364   0.429
 1170W        W 2267   1.982   4.645   4.663
 1171W        W 2268   3.998   1.267   1.716
 1172W        W 2269   5.966   2.338   3.164
 1173W        W 2270   2.407   7.179   2.030
 1174W        W 2271   3.328   2.767   6.916
 1175W        W 2272   3.683   4.312   5.447
 1176W        W 2273   6.477   3.977   5.485
 1177W        W 2274   3.671   1.388   5.497
 1178W        W 2275   6.174   0.463   0.376
 1179W        W 2276   3.213   2.681   2.553
 1180W        W 2277   1.462   2.624   6.844
 1181W        W 2278   0.814   6.211   2.410
 1182W        W 2279   2.029   4.188   3.272
 1183W        W 2280   5.971   5.193   2.641
 1184W        W 2281   3.833   3.452   6.598
 1185W        W 2282   5.126   5.153   5.838
 1186W        W 2283   0.843   7.910   5.951
 1187W        W 2284   5.159   5.073   1.990
 1188W        W 2285   4.206   5.437   5.197
 1189W        W 2286   5.492   4.930   7.108
 1190W        W 2287   3.540   2.702   0.914
 1191W        W 2288   1.035   4.264   6.062
 1192W        W 2289   0.877   7.331   6.658
 1193W        W 2290   4.173   5.361   4.692
 1194W        W 2291   2.089   0.399   5.001
 1195W        W 2292   4.031   6.433   7.078
 1196W        W 2293   0.882   0.639   4.322
 1197W        W 2294   1.445   6.578   7.865
 1198W        W 2295   5.727   6.483   3.873
 1199W        W 2296   1.170   3.015   2.942
 1200W        W 2297   7.998   4.417   6.113
 1201W        W 2298   3.612   4.226   4.939
 1202W        W 2299   1.444   3.220   1.965
 1203W        W 2300   0.659   5.159   3.814
 1204W        W 2301   0.381   1.217   1.879
 1205W        W 2302   4.595   7.379   4.823
 1206W        W 2303   5.608   4.442   2.470
 1207W        W 2304   0.873   7.626   7.446
 1208W        W 2305   3.710   7.188   0.732
 1209W        W 2306   5.996   7.324   2.572
 1210W        W 2307   3.961   0.542   3.388
 1211W        W 2308   0.884   5.045   4.257
 1212W        W 2309   6.957   4.902   6.296
 1213W        W 2310   2.863   1.932   5.688
 1214W        W 2311   1.374   0.747   2.380
 1215W        W 2312   3.974   6.272   3.907
 1216W        W 2313   6.288   1.796   1.882
 1217W        W 2314   3.177   2.575   7.374
 1218W        W 2315   6.932   1.019   3.273
 1219W        W 2316   4.892   1.368   6.627
 1220W        W 2317   3.725   7.132   1.240
 1221W        W 2318   5.388   7.383   2.851
 1222W        W 2319   0.047   1.902   5.208
 1223W        W 2320   4.110   0.536   2.388
 1224W        W 2321   5.184   7.831   7.732
 1225W        W 2322   2.783   2.432   5.563
 1226W        W 2323   5.232   0.529   0.825
 1227W        W 2324   3.240   1.945   7.309
 1228W        W 2325   0.512   5.025   5.169
 1229W        W 2326   7.229   6.977   5.411
 1230W        W 2327   2.248   5.094   0.146
 1231W        W 2328   5.761   0.660   7.131
 1232W        W 2329   5.400   3.254   0.521
 1233W        W 2330   6.148   0.974   4.403
 1234W        W 2331   7.358   0.937   5.893
 1235W        W 2332   5.151   5.355   3.808
 1236W        W 2333   5.973   3.621   6.104
 1237W        W 2334   7.807   1.674   6.314
 1238W        W 2335   7.745   1.277   5.991
 1239W        W 2336   3.967   7.484   1.535
 1240W        W 2337   6.782   0.259   5.328
 1241W        W 2338   4.818   3.015   3.135
 1242W        W 2339   4.046   0.703   6.266
 1243W        W 2340   7.385   4.697   1.825
 1244W        W 2341   5.181   0.002   5.656
 1245W        W 2342   2.120   2.835   7.499
 1246W        W 2343   1.275   3.695   5.428
 1247W        W 2344   4.206   1.657   1.434
 1248W        W 2345   2.994   6.704   2.100
 1249W        W 2346   1.627   4.106   2.126
 1250W        W 2347   1.750   6.693   5.716
 1251W        W 2348   3.927   3.017   0.986
 1252W        W 2349   3.120   5.204   6.976
 1253W        W 2350   5.205   5.663   2.519
 1254W        W 2351   5.426   0.766   6.290
 1255W        W 2352   2.435   1.635   2.443
 1256W        W 2353   2.204   6.391   3.532
 1257W        W 2354   3.506   5.992   4.590
 1258W        W 2355   2.142   6.593   6.351
 1259W        W 2356   6.600   4.569   2.878
 1260W        W 2357   1.881   3.367   4.999
 1261W        W 2358   5.695   6.486   1.578
 1262W        W 2359   1.815   5.026   7.091
 1263W        W 2360   2.875   5.748   5.202
 1264W        W 2361   5.136   4.220   2.109
 1265W        W 2362   5.049   2.012   5.387
 1266W        W 2363   5.659   6.452   6.699
 1267W        W 2364   1.604   7.348   6.316
 1268W        W 2365   0.989   1.207   1.060
 1269W        W 2366   5.625   3.253   0.027
 1270W        W 2367   4.721   5.580   0.544
 1271W        W 2368   4.896   4.377   5.270
 1272W        W 2369   6.963   5.784   0.634
 1273W        W 2370   7.163   1.313   3.654
 1274W        W 2371   3.989   2.113   1.508
 1275W        W 2372   3.899   6.163   6.669
 1276W        W 2373   7.558   2.944   1.609
 1277W        W 2374   1.387   5.652   4.696
 1278W        W 2375   5.675   5.091   6.658
 1279W        W 2376   7.495   3.321   4.294
 1280W        W 2377   3.908   5.800   5.340
 1281W        W 2378   7.425   7.235   7.234
 1282W        W 2379   4.057   6.757   1.419
 1283W        W 2380   7.567   4.702   6.937
 1284W        W 2381   6.841   6.491   7.550
 1285W        W 2382   2.658   2.892   5.370
 1286W        W 2383   0.613   5.592   3.566
 1287W        W 2384   1.160   5.001   3.840
 1288W        W 2385   1.660   0.535   0.756
 1289W        W 2386   1.003   4.227   2.763
 1290W        W 2387   5.754   4.064   0.713
 1291W        W 2388   0.470   3.725   6.623
 1292W        W 2389   1.214   3.197   2.427
 1293W        W 2390   1.370   0.847   7.848
 1294W        W 2391   2.747   4.521   3.889
 1295W        W 2392   4.495   2.301   3.211
 1296W        W 2393   1.153   0.992   7.360
 1297W        W 2394   5.433   6.388   0.226
 1298W        W 2395   6.060   4.272   2.231
 1299W        W 2396   5.348   7.215   6.123
 1300W        W 2397   3.240   5.831   5.580
 1301W        W 2398   5.396   6.873   3.902
 1302W        W 2399   2.064   6.459   7.066
 1303W        W 2400   5.767   3.207   1.266
 1304W        W 2401   3.434   3.042   5.884
 1305W        W 2402   6.900   3.747   0.063
 1306W        W 2403   5.450   1.008   1.569
 1307W        W 2404   0.755   0.127   7.246
 1308W        W 2405   4.033   5.553   6.198
 1309W        W 2406   4.037   2.593   5.135
 1310W        W 2407   7.332   3.523   1.175
 1311W        W 2408   0.100   6.335   3.660
 1312W        W 2409   1.377   6.899   6.104
 1313W        W 2410   6.654   3.673   7.594
 1314W        W 2411   3.545   0.851   6.537
 1315W        W 2412   3.696   2.204   3.664
 1316W        W 2413   7.662   7.123   6.787
 1317W        W 2414   4.079   7.549   5.989
 1318W        W 2415   5.045   1.487   4.614
 1319W        W 2416   4.053   2.395   2.989
 1320W        W 2417   3.306   7.896   4.695
 1321W        W 2418   7.013   0.706   4.452
 1322W        W 2419   1.404   3.544   7.281
 1323W        W 2420   2.485   5.673   1.300
 1324W        W 2421   5.957   6.031   3.661
 1325W        W 2422   2.428   1.639   1.922
 1326W        W 2423   2.179   3.735   4.201
 1327W        W 2424   4.068   7.224   4.817
 1328W        W 2425   6.906   5.066   3.312
 1329W        W 2426   5.211   1.966   2.815
 1330W        W 2427   1.827   1.743   0.784
 1331W        W 2428   3.147   5.106   2.806
 1332W        W 2429   7.254   4.600   6.552
 1333W        W 2430   5.257   2.322   6.937
 1334W        W 2431   2.109   5.915   5.369
 1335W        W 2432   0.515   1.690   2.533
 1336W        W 2433   7.886   3.857   1.880
 1337W        W 2434   0.540   6.523   4.413
 1338W        W 2435   6.761   2.782   2.004
 1339W        W 2436   1.235   0.372   0.071
 1340W        W 2437   1.223   4.248   4.789
 1341W        W 2438   6.166   0.734   5.442
 1342W        W 2439   2.520   4.359   3.056
 1343W        W 2440   3.740   1.260   3.532
 1344W        W 2441   3.343   1.083   2.755
 1345W        W 2442   3.328   0.314   3.767
 1346W        W 2443   1.192   1.128   5.732
 1347W        W 2444   4.448   3.391   0.501
 1348W        W 2445   5.552   2.123   6.536
 1349W        W 2446   7.019   4.101   3.253
 1350W        W 2447   1.962   5.436   2.518
 1351W        W 2448   4.751   0.765   0.105
 1352W        W 2449   2.953   0.591   1.007
 1353W        W 2450   7.232   7.608   5.878
 1354W        W 2451   4.425   7.202   2.268
 1355W        W 2452   5.983   6.255   5.972
 1356W        W 2453   4.523   5.503   6.311
 1357W        W 2454   5.076   5.253   0.742
 1358W        W 2455   4.337   1.681   7.119
 1359W        W 2456   7.177   2.464   7.461
 1360W        W 2457   0.608   0.201   5.011
 1361W        W 2458   2.284   4.357   3.961
 1362W        W 2459   4.212   7.350   0.629
 1363W        W 2460   5.654   6.813   0.462
 1364W        W 2461   0.694   5.068   5.788
 1365W        W 2462   4.782   6.130   6.780
 1366W        W 2463   5.821   5.417   5.724
 1367W        W 2464   6.381   6.872   3.646
 1368W        W 2465   7.042   1.699   7.009
 1369W        W 2466   7.114   0.338   6.709
 1370W        W 2467   5.011   1.117   1.783
 1371W        W 2468   3.061   2.899   0.350
 1372W        W 2469   6.423   7.598   2.583
 1373W        W 2470   7.435   3.808   5.863
 1374W        W 2471   7.013   6.196   6.934
 1375W        W 2472   1.273   2.157   6.647
 1376W        W 2473   4.462   6.910   4.943
 1377W        W 2474   1.526   1.326   3.563
 1378W        W 2475   2.217   1.456   3.053
 1379W        W 2476   4.394   0.971   2.383
 1380W        W 2477   4.738   5.957   7.267
 1381W        W 2478   7.199   6.412   1.701
 1382W        W 2479   5.498   6.172   0.682
 1383W        W 2480   7.740   4.689   2.839
 1384W        W 2481   1.507   7.093   1.520
 1385W        W 2482   6.227   5.591   3.166
 1386W        W 2483   2.497   3.491   1.286
 1387W        W 2484   1.477   3.387   3.760
 1388W        W 2485   7.938   1.086   2.155
 1389W        W 2486   6.672   1.824   1.069
 1390W        W 2487   7.399   2.537   1.318
 1391W        W 2488   7.428   3.530   1.755
 1392W        W 2489   1.971   1.576   2.124
 1393W        W 2490   7.806   1.460   4.074
 1394W        W 2491   4.149   5.671   2.171
 1395W        W 2492   3.905   5.076   5.023
 1396W        W 2493   1.140   0.740   0.775
 1397W        W 2494   7.324   2.365   2.268
 1398W        W 2495   2.678   4.622   6.036
 1399W        W 2496   3.621   1.586   7.189
 1400W        W 2497   6.208   1.564   3.129
 1401W        W 2498   4.333   5.213   3.740
 1402W        W 2499   6.366   0.399   2.944
 1403W        W 2500   5.947   0.468   2.640
 1404W        W 2501   0.711   0.833   6.135
 1405W        W 2502   3.363   2.953   3.724
 1406W        W 2503   3.407   0.497   1.245
 1407W        W 2504   1.037   6.250   2.892
 1408W        W 2505   0.795   5.948   3.239
 1409W        W 2506   2.734   0.512   2.982
 1410W        W 2507   3.147   0.891   6.878
 1411W        W 2508   3.037   4.670   2.546
 1412W        W 2509   6.204   1.960   0.880
 1413W        W 2510   7.514   6.968   4.422
 1414W        W 2511   4.475   0.620   3.244
 1415W        W 2512   1.972   2.809   2.707
 1416W        W 2513   5.941   0.434   2.120
 1417W        W 2514   5.284   2.536   3.777
 1418W        W 2515   2.832   5.496   6.261
 1419W        W 2516   7.313   3.742   3.980
 1420W        W 2517   3.031   0.784   6.390
 1421W        W 2518   7.142   2.794   6.502
 1422W        W 2519   0.433   4.970   2.415
 1423W        W 2520   0.482   1.392   6.851
 1424W        W 2521   6.905   5.327   6.908
 1425W        W 2522   2.416   0.462   3.371
 1426W        W 2523   7.277   2.967   6.009
 1427W        W 2524   7.846   5.653   6.071
 1428W        W 2525   6.540   7.364   4.769
 1429W        W 2526   3.361   4.237   2.026
 1430W        W 2527   0.355   6.875   4.053
 1431W        W 2528   1.443   5.389   4.076
 1432W        W 2529   3.474   4.498   0.792
 1433W        W 2530   1.643   1.319   1.858
 1434W        W 2531   4.778   2.509   7.023
 1435W        W 2532   0.622   4.193   5.440
 1436W        W 2533   5.104   2.651   4.613
 1437W        W 2534   6.127   1.739   6.956
 1438W        W 2535   5.032   7.178   0.574
 1439W        W 2536   0.578   6.293   5.261
 1440W        W 2537   1.775   1.014   1.483
 1441W        W 2538   0.063   4.776   5.138
 1442W        W 2539   1.720   3.134   7.338
 1443W        W 2540   5.313   3.793   6.822
 1444W        W 2541   5.864   7.267   3.053
 1445W        W 2542   1.932   5.096   2.969
 1446W        W 2543   7.667   4.403   5.132
 1447W        W 2544   2.669   1.218   2.201
 1448W        W 2545   3.150   3.333   2.997
 1449W        W 2546   5.554   5.748   4.747
 1450W        W 2547   1.565   4.431   4.429
 1451W        W 2548   5.566   2.393   6.094
 1452W        W 2549   0.545   1.310   6.353
 1453W        W 2550   2.199   2.569   6.380
 1454W        W 2551   0.485   2.166   6.143
 1455W        W 2552   4.904   7.291   2.400
 1456W        W 2553   4.469   4.646   6.155
 1457W        W 2554   3.110   2.618   5.218
 1458W        W 2555   5.475   6.389   5.835
 1459W        W 2556   6.178   4.532   1.213
 1460W        W 2557   3.050   3.409   5.859
 1461W        W 2558   5.550   5.001   7.976
 1462W        W 2559   5.450   3.608   1.410
 1463W        W 2560   6.214   4.817   0.758
 1464W        W 2561   1.922   5.313   5.875
 1465W        W 2562   3.201   2.081   4.894
 1466W        W 2563   2.038   5.045   3.492
 1467W        W 2564   4.377   7.901   6.261
 1468W        W 2565   1.555   1.185   2.847
 1469W        W 2566   0.778   4.101   6.856
 1470W        W 2567   2.008   4.919   5.532
 1471W        W 2568   5.625   2.612   0.664
 1472W        W 2569   2.126   6.352   1.838
 1473W        W 2570   0.544   1.367   3.741
 1474W        W 2571   7.222   0.694   3.009
 1475W        W 2572   3.280   1.110   3.348
 1476W        W 2573   5.409   5.539   6.968
 1477W        W 2574   2.127   2.522   0.520
 1478W        W 2575   2.791   5.472   4.038
 1479W        W 2576   1.024   5.470   5.611
 1480W        W 2577   5.969   2.412   5.724
 1481W        W 2578   0.698   4.724   0.575
 1482W        W 2579   2.542   4.915   4.737
 1483W        W 2580   2.840   0.821   1.901
 1484W        W 2581   2.220   6.503   7.537
 1485W        W 2582   2.036   6.287   3.040
 1486W        W 2583   1.691   6.223   1.575
 1487W        W 2584   6.383   4.908   2.507
 1488W        W 2585   3.275   3.317   6.737
 1489W        W 2586   2.020   1.038   2.790
 1490W        W 2587   2.695   2.156   5.139
 1491W        W 2588   2.068   1.431   1.594
 1492W        W 2589   0.620   6.387   3.403
 1493W        W 2590   5.920   7.932   7.775
 1494W        W 2591   2.638   2.656   4.045
 1495W        W 2592   2.699   5.365   6.748
 1496W        W 2593   5.700   5.598   2.378
 1497W        W 2594   2.299   2.959   4.273
 1498W        W 2595   7.927   5.870   3.778
 1499W        W 2596   3.370   7.473   4.396
 1500W        W 2597   3.531   6.481   3.717
 1501W        W 2598   0.411   7.945   6.262
 1502W        W 2599   2.107   2.033   2.280
 1503W        W 2600   4.110   1.579   7.555
 1504W        W 2601   4.498   4.548   7.307
 1505W        W 2602   1.687   6.531   7.431
 1506W        W 2603   4.315   3.468   6.040
 1507W        W 2604   7.001   1.071   0.960
 1508W        W 2605   4.199   4.687   0.198
 1509W        W 2606   5.919   1.502   5.070
 1510W        W 2607   5.100   5.376   0.226
 1511W        W 2608   5.063   3.279   2.589
 1512W        W 2609   6.618   2.292   0.879
 1513W        W 2610   1.239   2.589   6.384
 1514W        W 2611   0.206   0.737   6.367
 1515W        W 2612   4.369   4.485   3.849
 1516W        W 2613   5.790   2.613   3.881
 1517W        W 2614   6.927   4.423   3.653
 1518W        W 2615   7.002   3.422   7.263
 1519W        W 2616   4.367   4.088   7.536
 1520W        W 2617   2.255   5.413   3.207
 1521W        W 2618   1.539   4.265   0.931
 1522W        W 2619   4.038   2.736   2.603
 1523W        W 2620   4.585   6.268   5.652
 1524W        W 2621   3.725   3.434   1.185
 1525W        W 2622   3.910   1.020   5.256
 1526W        W 2623   6.947   6.634   5.126
 1527W        W 2624   2.615   4.124   0.490
 1528W        W 2625   2.957   6.623   0.918
 1529W        W 2626   1.796   3.037   6.823
 1530W        W 2627   2.091   7.128   4.739
 1531W        W 2628   0.359   0.498   5.952
 1532W        W 2629   2.575   5.870   4.255
 1533W        W 2630   1.099   4.139   5.577
 1534W        W 2631   7.193   3.310   3.218
 1535W        W 2632   1.208   1.583   3.886
 1536W        W 2633   5.139   0.741   1.286
 1537W        W 2634   4.194   2.438   5.616
 1538W        W 2635   0.715   0.876   5.588
 1539W        W 2636   6.290   5.931   5.742
 1540W        W 2637   1.007   1.262   3.537
 1541W        W 2638   6.166   0.898   2.286
 1542W        W 2639   5.287   6.455   1.888
 1543W        W 2640   1.938   2.511   3.512
 1544W        W 2641   4.299   2.654   3.902
 1545W        W 2642   4.363   0.875   7.179
 1546W        W 2643   0.934   0.199   6.754
 1547W        W 2644   5.869   5.245   3.171
 1548W        W 2645   7.105   4.026   0.524
 1549W        W 2646   3.679   5.827   4.053
 1550W        W 2647   1.590   7.187   0.491
 1551W        W 2648   1.349   1.901   0.695
 1552W        W 2649   6.200   4.286   0.774
 1553W        W 2650   0.955   2.377   5.019
 1554W        W 2651   2.561   6.205   5.061
 1555W        W 2652   1.860   5.319   6.674
 1556W        W 2653   3.420   3.121   0.677
 1557W        W 2654   7.203   4.944   2.284
 1558W        W 2655   4.296   5.185   7.543
 1559W        W 2656   2.724   3.391   2.719
 1560W        W 2657   2.029   7.487   5.113
 1561W        W 2658   1.876   5.693   4.053
 1562W        W 2659   6.236   7.244   3.977
 1563W        W 2660   4.283   5.108   6.004
 1564W        W 2661   6.639   2.701   3.873
 1565W        W 2662   6.980   4.254   2.775
 1566W        W 2663   7.372   0.367   1.118
 1567W        W 2664   0.904   3.769   2.502
 1568W        W 2665   5.428   4.002   5.436
 1569W        W 2666   5.525   6.373   7.192
 1570W        W 2667   4.980   4.494   3.251
 1571W        W 2668   0.478   2.900   0.548
 1572W        W 2669   2.817   4.771   2.984
 1573W        W 2670   1.940   3.209   1.856
 1574W        W 2671   5.825   1.139   6.318
 1575W        W 2672   0.476   0.677   5.135
 1576W        W 2673   3.892   6.578   2.439
 1577W        W 2674   3.938   2.247   2.435
 1578W        W 2675   1.012   0.274   1.473
 1579W        W 2676   4.956   4.676   5.976
 1580W        W 2677   4.854   2.388   1.523
 1581W        W 2678   4.671   5.939   3.229
 1582W        W 2679   1.980   3.312   4.479
 1583W        W 2680   1.786   7.757   6.947
 1584W        W 2681   4.289   6.422   1.060
 1585W        W 2682   1.341   3.051   6.545
 1586W        W 2683   3.172   4.015   5.064
 1587W        W 2684   4.677   0.018   1.760
 1588W        W 2685   0.792   6.342   4.807
 1589W        W 2686   6.399   2.220   7.609
 1590W        W 2687   3.748   6.664   0.519
 1591W        W 2688   4.836   0.396   0.494
 1592W        W 2689   2.511   3.941   7.043
 1593W        W 2690   2.365   4.289   5.782
 1594W        W 2691   4.248   4.152   5.995
 1595W        W 2692   4.528   2.014   1.614
 1596W        W 2693   2.713   1.605   3.925
 1597W        W 2694   1.386   4.076   1.707
 1598W        W 2695   1.233   1.110   2.032
 1599W        W 2696   0.801   5.842   5.336
 1600W        W 2697   0.403   0.766   2.141
 1601W        W 2698   2.327   4.874   3.906
 1602W        W 2699   6.438   3.134   3.584
 1603W        W 2700   4.935   3.513   0.539
 1604W        W 2701   4.348   3.209   4.535
 1605W        W 2702   4.940   3.967   0.890
 1606W        W 2703   3.390   1.601   1.660
 1607W        W 2704   2.080   6.137   4.197
 1608W        W 2705   3.874   3.400   1.775
 1609W        W 2706   6.203   1.676   7.457
 1610W        W 2707   3.580   7.410   4.860
 1611W        W 2708   4.305   4.612   1.134
 1612W        W 2709   0.819   6.829   4.977
 1613W        W 2710   4.868   4.696   6.984
 1614W        W 2711   0.461   2.710   1.727
 1615W        W 2712   4.333   5.023   1.419
 1616W        W 2713   2.359   6.371   0.038
 1617W        W 2714   2.362   5.550   0.389
 1618W        W 2715   1.805   4.113   4.105
 1619W        W 2716   0.684   3.555   5.064
 1620W        W 2717   1.992   5.390   5.354
 1621W        W 2718   4.154   4.344   6.480
 1622W        W 2719   6.224   0.907   0.579
 1623W        W 2720   4.686   1.245   0.392
 1624W        W 2721   0.838   5.820   2.752
 1625W        W 2722   4.899   5.629   6.856
 1626W        W 2723   4.402   1.311   6.778
 1627W        W 2724   0.617   6.162   6.200
 1628W        W 2725   7.080   7.037   4.119
 1629W        W 2726   5.844   7.154   5.472
 1630W        W 2727   3.767   4.599   2.095
 1631W        W 2728   5.495   6.582   4.339
 1632W        W 2729   5.950   2.176   5.280
 1633W        W 2730   4.036   1.559   3.229
 1634W        W 2731   2.068   1.034   1.905
 1635W        W 2732   2.420   5.094   0.632
 1636W        W 2733   1.484   7.536   1.103
 1637W        W 2734   0.937   1.448   7.144
 1638W        W 2735   1.387   7.659   7.273
 1639W        W 2736   5.994   2.914   6.907
 1640W        W 2737   3.948   3.126   6.202
 1641W        W 2738   6.845   6.010   1.364
 1642W        W 2739   3.949   1.650   6.786
 1643W        W 2740   4.385   4.476   4.357
 1644W        W 2741   6.654   6.686   2.309
 1645W        W 2742   3.189   6.162   3.490
 1646W        W 2743   3.605   3.648   7.018
 1647W        W 2744   3.852   2.871   0.493
 1648W        W 2745   3.956   7.036   2.176
 1649W        W 2746   7.420   4.114   1.834
 1650W        W 2747   1.344   1.749   6.938
 1651W        W 2748   6.231   5.183   7.501
 1652W        W 2749   3.579   2.972   6.520
 1653W        W 2750   0.590   4.774   6.666
 1654W        W 2751   1.086   6.396   6.231
 1655W        W 2752   1.685   1.878   6.041
 1656W        W 2753   2.305   4.581   3.488
 1657W        W 2754   6.297   3.283   1.294
 1658W        W 2755   2.591   3.973   3.992
 1659W        W 2756   5.652   6.861   7.009
 1660W        W 2757   3.423   3.857   2.384
 1661W        W 2758   7.097   2.135   1.050
 1662W        W 2759   6.934   6.530   1.282
 1663W        W 2760   4.443   5.826   5.427
 1664W        W 2761   0.900   2.551   3.696
 1665W        W 2762   5.880   1.637   1.585
 1666W        W 2763   2.647   1.454   6.935
 1667W        W 2764   7.012   7.885   6.924
 1668W        W 2765   3.333   7.169   5.254
 1669W        W 2766   4.632   2.289   3.715
 1670W        W 2767   2.781   1.994   4.642
 1671W        W 2768   0.660   3.365   0.869
 1672W        W 2769   1.438   0.748   0.357
 1673W        W 2770   4.806   3.853   7.705
 1674W        W 2771   6.672   2.309   5.709
 1675W        W 2772   5.606   7.232   5.013
 1676W        W 2773   5.828   6.492   2.617
 1677W        W 2774   1.429   6.289   0.316
 1678W        W 2775   4.215   4.251   0.453
 1679W        W 2776   3.540   5.482   4.431
 1680W        W 2777   7.896   3.474   3.997
 1681W        W 2778   7.371   1.719   3.429
 1682W        W 2779   2.085   0.873   5.561
 1683W        W 2780   6.747   3.703   5.147
 1684W        W 2781   1.527   3.455   4.640
 1685W        W 2782   4.634   4.225   1.225
 1686W        W 2783   0.388   5.878   2.487
 1687W        W 2784   4.893   3.114   5.363
 1688W        W 2785   7.858   0.773   5.942
 1689W        W 2786   3.116   5.977   6.397
 1690W        W 2787   0.920   5.741   0.668
 1691W        W 2788   5.687   4.784   4.371
 1692W        W 2789   0.947   4.581   4.039
 1693W        W 2790   6.988   6.354   0.070
 1694W        W 2791   0.961   4.685   2.278
 1695W        W 2792   1.354   3.950   3.050
 1696W        W 2793   4.206   1.982   5.864
 1697W        W 2794   6.220   3.438   2.012
 1698W        W 2795   0.286   1.440   4.231
 1699W        W 2796   1.678   3.627   5.977
 1700W        W 2797   5.452   7.178   0.855
 1701W        W 2798   1.679   4.397   1.398
 1702W        W 2799   7.034   4.168   6.539
 1703W        W 2800   1.155   5.807   1.560
 1704W        W 2801   0.166   5.421   3.358
 1705W        W 2802   4.445   5.029   7.055
 1706W        W 2803   2.385   1.200   1.212
 1707W        W 2804   5.695   1.545   0.725
 1708W        W 2805   3.784   1.761   2.322
 1709W        W 2806   5.710   0.779   4.560
 1710W        W 2807   7.421   4.232   3.560
 1711W        W 2808   5.274   4.336   0.724
 1712W        W 2809   5.223   2.535   6.457
 1713W        W 2810   2.382   2.100   5.624
 1714W        W 2811   1.267   3.014   3.453
 1715W        W 2812   6.146   7.503   0.806
 1716W        W 2813   5.837   2.446   0.237
 1717W        W 2814   7.241   4.830   3.630
 1718W        W 2815   0.971   1.079   4.025
 1719W        W 2816   5.637   5.167   2.110
 1720W        W 2817   1.808   3.066   3.516
 1721W        W 2818   4.460   7.603   1.497
 1722W        W 2819   0.513   7.913   6.774
 1723W        W 2820   4.974   3.014   6.336
 1724W        W 2821   2.025   4.940   2.485
 1725W        W 2822   5.288   1.746   7.277
 1726W        W 2823   5.477   5.277   1.608
 1727W        W 2824   2.256   5.619   6.737
 1728W        W 2825   0.251   5.746   2.956
 1729W        W 2826   4.941   4.752   0.715
 1730W        W 2827   3.334   3.111   1.187
 1731W        W 2828   5.368   1.234   6.516
 1732W        W 2829   6.374   0.449   5.041
 1733W        W 2830   2.163   5.003   4.378
 1734W        W 2831   1.502   6.411   4.819
 1735W        W 2832   3.114   2.090   6.407
 1736W        W 2833   7.670   2.519   3.601
 1737W        W 2834   6.832   1.360   5.452
 1738W        W 2835   3.067   3.400   0.460
 1739W        W 2836   7.002   2.303   6.488
 1740W        W 2837   5.756   4.329   2.963
 1741W        W 2838   2.370   2.522   2.888
 1742W        W 2839   6.241   5.279   5.976
 1743W        W 2840   0.211   3.636   4.876
 1744W        W 2841   5.728   3.641   0.362
 1745W        W 2842   6.399   1.411   5.686
 1746W        W 2843   1.497   4.676   4.870
 1747W        W 2844   2.039   0.514   1.864
 1748W        W 2845   2.088   3.328   2.410
 1749W        W 2846   2.927   5.995   5.935
 1750W        W 2847   1.920   4.999   1.966
 1751W        W 2848   4.855   2.033   6.820
 1752W        W 2849   5.968   3.540   1.570
 1753W        W 2850   5.289   0.520   0.280
 1754W        W 2851   3.966   4.775   6.238
 1755W        W 2852   1.842   0.268   5.805
 1756W        W 2853   4.957   1.888   3.749
 1757W        W 2854   3.335   0.969   7.370
 1758W        W 2855   3.302   5.443   3.995
 1759W        W 2856   3.869   3.330   4.363
 1760W        W 2857   2.119   3.147   1.248
 1761W        W 2858   1.242   5.769   1.074
 1762W        W 2859   2.833   5.255   1.907
 1763W        W 2860   0.293   5.874   5.370
 1764W        W 2861   1.098   1.634   1.316
 1765W        W 2862   2.638   5.700   0.781
 1766W        W 2863   1.634   0.171   4.925
 1767W        W 2864   1.606   0.430   6.247
 1768W        W 2865   1.179   3.775   5.925
 1769W        W 2866   5.115   7.644   6.023
 1770W        W 2867   5.980   6.050   1.892
 1771W        W 2868   4.200   1.194   4.227
 1772W        W 2869   3.317   6.867   2.980
 1773W        W 2870   1.044   4.989   5.416
 1774W        W 2871   0.495   5.834   7.487
 1775W        W 2872   6.884   2.041   7.577
 1776W        W 2873   7.778   2.150   4.699
 1777W        W 2874   3.305   6.901   4.007
 1778W        W 2875   6.555   4.649   1.529
 1779W        W 2876   6.651   1.431   7.278
 1780W        W 2877   6.053   1.942   3.460
 1781W        W 2878   2.785   6.010   2.605
 1782W        W 2879   2.539   3.131   1.681
 1783W        W 2880   5.060   4.259   6.760
 1784W        W 2881   3.031   3.871   4.608
 1785W        W 2882   4.193   5.163   6.511
 1786W        W 2883   6.627   7.942   2.910
 1787W        W 2884   4.527   4.572   1.608
 1788W        W 2885   6.625   1.311   2.912
 1789W        W 2886   3.485   5.241   3.567
 1790W        W 2887   0.968   3.150   4.331
 1791W        W 2888   5.865   2.183   4.474
 1792W        W 2889   2.564   6.214   3.025
 1793W        W 2890   3.032   1.801   6.839
 1794W        W 2891   4.758   2.482   0.356
 1795W        W 2892   1.626   5.469   3.105
 1796W        W 2893   5.317   1.041   0.903
 1797W        W 2894   2.271   4.655   2.150
 1798W        W 2895   1.702   5.546   0.937
 1799W        W 2896   6.078   6.493   3.508
 1800W        W 2897   2.965   3.619   2.323
 1801W        W 2898   4.449   1.972   7.506
 1802W        W 2899   5.331   7.173   7.838
 1803W        W 2900   5.808   0.851   4.060
 1804W        W 2901   4.583   6.461   3.280
 1805W        W 2902   1.106   4.153   4.274
 1806W        W 2903   7.732   3.821   3.689
 1807W        W 2904   1.197   1.211   0.581
 1808W        W 2905   5.912   6.908   6.564
 1809W        W 2906   1.537   3.461   6.801
 1810W        W 2907   1.901   1.337   1.102
 1811W        W 2908   1.470   7.002   7.439
 1812W        W 2909   1.758   2.728   1.886
 1813W        W 2910   3.199   7.681   1.973
 1814W        W 2911   1.892   4.424   5.679
 1815W        W 2912   4.386   5.857   5.961
 1816W        W 2913   3.099   3.780   2.784
 1817W        W 2914   5.714   4.592   6.322
 1818W        W 2915   1.645   0.036   0.888
 1819W        W 2916   1.801   5.429   4.460
 1820W        W 2917   1.429   1.381   6.596
 1821W        W 2918   1.019   0.666   6.539
 1822W        W 2919   6.430   6.200   2.117
 1823W        W 2920   3.697   6.623   4.195
 1824W        W 2921   4.312   6.006   6.960
 1825W        W 2922   7.369   1.298   4.277
 1826W        W 2923   2.855   4.173   5.867
 1827W        W 2924   1.412   1.950   4.181
 1828W        W 2925   0.815   6.010   1.194
 1829W        W 2926   5.526   5.064   5.536
 1830W        W 2927   3.923   2.980   4.774
 1831W        W 2928   5.754   6.443   2.091
 1832W        W 2929   1.623   5.745   1.400
 1833W        W 2930   6.677   6.795   5.942
 1834W        W 2931   6.102   0.855   4.899
 1835W        W 2932   4.257   2.185   4.775
 1836W        W 2933   3.885   7.804   2.803
 1837W        W 2934   6.962   1.556   0.750
 1838W        W 2935   3.568   2.377   5.080
 1839W        W 2936   1.763   0.524   5.378
 1840W        W 2937   5.888   4.448   1.760
 1841W        W 2938   5.636   1.998   0.071
 1842W        W 2939   5.308   6.599   1.250
 1843W        W 2940   4.338   0.759   1.079
 1844W        W 2941   4.072   2.044   3.358
 1845W        W 2942   6.133   2.480   0.722
 1846W        W 2943   7.565   1.836   5.893
 1847W        W 2944   6.467   0.020   4.592
 1848W        W 2945   0.646   2.618   5.956
 1849W        W 2946   7.764   7.634   6.846
 1850W        W 2947   1.554   5.364   2.215
 1851W        W 2948   1.276   1.959   5.003
 1852W        W 2949   1.741   7.770   5.844
 1853W        W 2950   6.921   1.529   3.257
 1854W        W 2951   2.606   0.302   0.741
 1855W        W 2952   7.305   2.127   4.977
 1856W        W 2953   6.913   6.276   2.290
 1857W        W 2954   5.791   1.307   4.613
 1858W        W 2955   1.904   0.014   5.357
 1859W        W 2956   5.696   1.918   3.005
 1860W        W 2957   4.448   2.212   0.701
 1861W        W 2958   1.220   1.601   1.838
 1862W        W 2959   1.522   6.234   7.040
 1863W        W 2960   0.113   6.096   6.833
 1864W        W 2961   5.093   4.780   5.495
 1865W        W 2962   3.625   1.779   7.681
 1866W        W 2963   0.842   2.933   1.975
 1867W        W 2964   7.409   3.820   5.362
 1868W        W 2965   3.384   5.937   5.103
 1869W        W 2966   6.127   4.503   2.662
 1870W        W 2967   5.850   6.931   4.137
 1871W        W 2968   6.270   2.497   7.002
 1872W        W 2969   4.513   0.785   0.585
 1873W        W 2970   2.777   2.449   2.610
 1874W        W 2971   3.651   7.046   2.576
 1875W        W 2972   1.049   5.095   6.462
 1876W        W 2973   1.990   4.314   0.612
 1877W        W 2974   3.990   5.234   6.977
 1878W        W 2975   2.223   5.313   4.767
 1879W        W 2976   0.940   5.960   6.544
 1880W        W 2977   2.520   4.124   3.493
 1881W        W 2978   4.392   3.790   5.642
 1882W        W 2979   4.065   3.083   5.245
 1883W        W 2980   0.153   1.345   3.387
 1884W        W 2981   1.946   0.901   6.299
 1885W        W 2982   0.110   1.132   3.844
 1886W        W 2983   2.245   3.616   5.263
 1887W        W 2984   2.640   3.955   2.134
 1888W        W 2985   2.144   2.022   3.751
 1889W        W 2986   2.300   5.523   7.859
 1890W        W 2987   6.546   4.659   0.015
 1891W        W 2988   2.966   1.277   6.578
 1892W        W 2989   4.661   7.138   6.734
 1893W        W 2990   7.282   3.738   3.465
 1894W        W 2991   6.575   3.181   1.724
 1895W        W 2992   5.058   2.502   7.564
 1896W        W 2993   6.633   2.462   0.416
 1897W        W 2994   2.637   6.953   2.441
 1898W        W 2995   1.412   6.259   3.840
 1899W        W 2996   0.774   0.123   0.093
 1900W        W 2997   6.270   7.055   4.455
 1901W        W 2998   2.429   2.982   2.584
 1902W        W 2999   6.522   7.475   2.036
 1903W        W 3000   2.750   4.986   0.223
 1904W        W 3001   5.933   2.781   6.091
 1905W        W 3002   4.282   1.837   2.413
 1906W        W 3003   5.873   2.816   7.866
 1907W        W 3004   6.907   4.980   2.807
 1908W        W 3005   3.074   2.970   3.327
 1909W        W 3006   2.292   2.053   4.635
 1910W        W 3007   1.544   4.832   1.615
 1911W        W 3008   1.552   4.563   0.522
 1912W        W 3009   5.649   1.952   7.002
 1913W        W 3010   4.071   3.024   3.556
 1914W        W 3011   0.523   2.952   4.484
 1915W        W 3012   0.778   3.372   2.214
 1916W        W 3013   3.789   0.887   7.881
 1917W        W 3014   0.919   3.838   4.636
 1918W        W 3015   3.780   0.975   4.410
 1919W        W 3016   5.837   3.185   2.264
 1920W        W 3017   1.118   4.656   4.508
 1921W        W 3018   3.059   5.079   6.480
 1922W        W 3019   7.686   6.293   3.303
 1923W        W 3020   5.391   4.409   7.132
 1924W        W 3021   6.709   0.338   4.245
 1925W        W 3022   7.912   2.545   1.440
 1926W        W 3023   2.750   5.289   3.119
 1927W        W 3024   0.313   5.962   3.408
 1928W        W 3025   6.677   7.039   6.894
 1929W        W 3026   5.930   5.600   4.008
 1930W        W 3027   5.246   4.398   6.266
 1931W        W 3028   0.511   2.705   5.056
 1932W        W 3029   4.935   7.246   3.064
 1933W        W 3030   5.906   5.499   6.970
 1934W        W 3031   5.276   2.949   7.730
 1935W        W 3032   5.602   2.351   2.193
 1936W        W 3033   7.056   2.126   5.996
 1937W        W 3034   3.512   1.946   6.870
 1938W        W 3035   7.001   3.439   4.260
 1939W        W 3036   0.861   2.483   2.177
 1940W        W 3037   6.864   6.099   5.422
 1941W        W 3038   5.152   4.382   4.825
 1942W        W 3039   4.167   3.629   0.935
 1943W        W 3040   0.983   4.142   3.778
 1944W        W 3041   4.090   0.584   2.898
 1945W        W 3042   5.989   0.241   6.898
 1946W        W 3043   1.999   5.488   2.006
 1947W        W 3044   4.974   5.667   4.494
 1948W        W 3045   5.396   6.868   6.547
 1949W        W 3046   5.129   4.343   1.227
 1950W        W 3047   2.878   0.316   4.081
 1951W        W 3048   6.990   5.448   4.445
 1952W        W 3049   4.154   7.976   1.727
 1953W        W 3050   1.301   7.553   7.769
 1954W        W 3051   2.141   4.216   4.443
 1955W        W 3052   4.453   2.734   2.908
 1956W        W 3053   5.337   1.612   1.544
 1957W        W 3054   1.732   3.779   3.435
 1958W        W 3055   4.043   5.356   4.178
 1959W        W 3056   3.798   5.176   5.928
 1960W        W 3057   6.405   0.120   3.363
 1961W        W 3058   6.277   2.688   6.485
 1962W        W 3059   4.993   7.516   1.042
 1963W        W 3060   6.856   6.587   3.228
 1964W        W 3061   0.910   7.792   6.448
 1965W        W 3062   6.583   2.714   1.510
 1966W        W 3063   4.021   4.680   1.643
 1967W        W 3064   0.571   6.424   3.912
 1968W        W 3065   5.823   4.278   4.472
 1969W        W 3066   6.628   6.959   7.411
 1970W        W 3067   7.870   4.318   7.098
 1971W        W 3068   3.693   2.152   2.009
 1972W        W 3069   2.546   0.650   3.839
 1973W        W 3070   0.828   1.118   4.546
 1974W        W 3071   1.738   6.695   1.791
 1975W        W 3072   5.441   7.828   7.241
 1976W        W 3073   6.393   1.133   5.232
 1977W        W 3074   6.594   0.781   0.886
 1978W        W 3075   7.412   3.989   0.970
 1979W        W 3076   6.886   3.926   3.739
 1980W        W 3077   0.816   0.951   1.788
 1981W        W 3078   7.390   0.182   0.634
 1982W        W 3079   3.611   4.927   1.054
 1983W        W 3080   5.869   2.947   0.355
 1984W        W 3081   2.112   2.461   4.113
 1985W        W 3082   0.524   7.437   7.000
 1986W        W 3083   1.254   2.761   5.197
 1987W        W 3084   7.081   7.263   4.590
 1988W        W 3085   2.288   6.098   2.608
 1989W        W 3086   6.431   7.310   5.291
 1990W        W 3087   0.694   3.927   5.860
 1991W        W 3088   4.391   5.549   0.928
 1992W        W 3089   2.220   1.162   0.720
 1993W        W 3090   7.224   0.529   5.190
 1994W        W 3091   6.198   7.275   3.424
 1995W        W 3092   5.240   1.663   5.755
 1996W        W 3093   4.973   0.330   7.885
 1997W        W 3094   3.078   5.637   1.003
 1998W        W 3095   5.602   3.866   4.295
 1999W        W 3096   5.148   1.022   3.824
 2000W        W 3097   3.731   5.580   4.919
 2001W        W 3098   4.899   1.933   4.349
 2002W        W 3099   6.752   5.875   4.292
 2003W        W 3100   1.340   0.181   5.847
 2004W        W 3101   2.417   3.717   2.507
 2005W        W 3102   1.556   6.724   2.294
 2006W        W 3103   1.234   7.883   0.189
 2007W        W 3104   6.656   3.313   0.343
 2008W        W 3105   6.895   3.945   6.073
 2009W        W 3106   7.851   2.399   2.367
 2010W        W 3107   2.400   4.392   0.907
 2011W        W 3108   2.946   2.434   6.052
 2012W        W 3109   1.526   3.375   3.216
 2013W        W 3110   5.149   4.219   2.621
 2014W        W 3111   7.667   2.893   6.332
 2015W        W 3112   4.309   6.241   1.995
 2016W        W 3113   6.589   0.879   4.739
 2017W        W 3114   4.494   1.378   3.296
 2018W        W 3115   4.632   4.366   5.729
 2019W        W 3116   1.514   6.379   4.316
 2020W        W 3117   0.233   1.622   2.938
 2021W        W 3118   6.686   5.551   1.922
 2022W        W 3119   4.917   0.481   1.670
 2023W        W 3120   6.611   6.567   7.075
 2024W        W 3121   1.627   0.804   1.948
 2025W        W 3122   0.930   2.491   1.654
 2026W        W 3123   4.883   3.552   2.225
 2027W        W 3124   4.953   7.416   4.436
 2028W        W 3125   6.311   3.044   4.623
 2029W        W 3126   4.464   1.130   1.868
 2030W        W 3127   3.140   6.281   4.813
 2031W        W 3128   5.978   6.071   2.391
 2032W        W 3129   0.133   4.862   6.457
 2033W        W 3130   1.540   4.150   6.153
 2034W        W 3131   5.356   6.506   2.429
 2035W        W 3132   7.984   2.837   5.179
 2036W        W 3133   6.188   1.398   0.660
 2037W        W 3134   6.884   1.195   4.487
 2038W        W 3135   6.451   4.118   7.372
 2039W        W 3136   4.533   5.724   7.676
 2040W        W 3137   4.794   1.466   2.912
 2041W        W 3138   1.240   7.633   4.826
 2042W        W 3139   0.200   0.764   5.544
 2043W        W 3140   7.506   3.772   2.211
 2044W        W 3141   4.998   0.039   0.819
 2045W        W 3142   5.483   4.675   5.862
 2046W        W 3143   6.299   5.654   3.654
 2047W        W 3144   7.040   4.732   1.423
 2048W        W 3145   6.929   2.643   1.142
 2049W        W 3146   6.652   1.205   0.522
 2050W        W 3147   3.907   1.442   7.997
 2051W        W 3148   0.109   2.733   4.677
 2052W        W 3149   3.006   6.598   7.190
 2053W        W 3150   4.888   1.062   2.596
 2054W        W 3151   4.734   1.427   3.834
 2055W        W 3152   7.169   0.991   5.416
 2056W        W 3153   1.264   2.428   4.036
 2057W        W 3154   3.023   2.322   1.643
 2058W        W 3155   7.095   2.498   0.678
 2059W        W 3156   3.288   2.253   3.955
 2060W        W 3157   4.159   3.515   3.671
 2061W        W 3158   3.863   0.832   7.339
 2062W        W 3159   2.975   1.414   2.555
 2063W        W 3160   6.264   7.056   5.756
 2064W        W 3161   4.657   2.837   1.732
 2065W        W 3162   5.437   6.597   3.472
 2066W        W 3163   3.788   3.617   7.968
 2067W        W 3164   1.318   2.220   7.188
 2068W        W 3165   5.941   4.772   2.254
 2069W        W 3166   3.258   6.976   1.748
 2070W        W 3167   0.112   6.430   4.141
 2071W        W 3168   7.821   2.954   1.141
 2072W        W 3169   1.948   1.984   4.233
 2073W        W 3170   4.816   6.170   3.754
 2074W        W 3171   5.801   5.072   6.152
 2075W        W 3172   2.360   3.431   5.722
 2076W        W 3173   6.068   5.679   2.698
 2077W        W 3174   6.384   6.075   4.577
 2078W        W 3175   6.619   0.934   5.667
 2079W        W 3176   6.180   2.368   4.073
 2080W        W 3177   6.475   2.659   4.364
 2081W        W 3178   6.649   7.299   5.956
 2082W        W 3179   4.021   6.420   3.342
 2083W        W 3180   1.620   2.828   3.116
 2084W        W 3181   7.538   1.761   4.434
 2085W        W 3182   2.128   4.546   2.827
 2086W        W 3183   1.929   5.559   3.566
 2087W        W 3184   4.460   6.560   3.760
 2088W        W 3185   4.824   7.158   6.214
 2089W        W 3186   1.699   1.086   0.671
 2090W        W 3187   1.879   2.236   5.668
 2091W        W 3188   6.161   6.847   2.699
 2092W        W 3189   7.033   5.394   6.402
 2093W        W 3190   0.117   6.275   4.621
 2094W        W 3191   5.956   6.314   4.400
 2095W        W 3192   3.819   5.989   3.506
 2096W        W 3193   1.624   3.510   2.348
 2097W        W 3194   5.575   5.035   3.536
 2098W        W 3195   5.072   5.773   3.466
 2099W        W 3196   1.963   0.835   1.038
 2100W        W 3197   6.356   7.233   2.937
 2101W        W 3198   1.577   2.976   4.831
 2102W        W 3199   6.465   7.133   2.418
 2103W        W 3200   2.748   6.446   5.768
 2104W        W 3201   6.313   1.837   2.407
 2105W        W 3202   4.287   4.007   3.671
 2106W        W 3203   3.606   5.782   6.347
 2107W        W 3204   4.408   1.239   0.821
 2108W        W 3205   6.063   3.906   1.891
 2109W        W 3206   4.408   3.440   6.646
 2110W        W 3207   7.455   5.604   2.638
 2111W        W 3208   4.010   3.280   2.733
 2112W        W 3209   1.005   1.798   4.533
 2113W        W 3210   4.262   6.121   7.445
 2114W        W 3211   3.869   0.952   3.911
 2115W        W 3212   3.112   2.288   6.934
 2116W        W 3213   2.538   6.670   3.257
 2117W        W 3214   5.657   3.689   3.077
 2118W        W 3215   2.198   4.151   6.682
 2119W        W 3216   6.048   2.156   6.686
 2120W        W 3217   2.669   5.461   4.562
 2121W        W 3218   7.346   6.718   3.397
 2122W        W 3219   5.562   4.083   4.935
 2123W        W 3220   1.545   4.851   2.281
 2124W        W 3221   5.086   2.942   4.183
 2125W        W 3222   2.119   0.809   3.591
 2126W        W 3223   0.861   2.651   4.240
 2127W        W 3224   1.946   4.031   5.282
 2128W        W 3225   5.306   3.210   5.022
 2129W        W 3226   7.145   3.414   5.209
 2130W        W 3227   3.950   5.152   3.374
 2131W        W 3228   1.737   2.989   2.302
 2132W        W 3229   3.230   1.468   7.535
 2133W        W 3230   6.319   5.988   7.644
 2134W        W 3231   0.419   7.719   5.132
 2135W        W 3232   7.025   4.598   3.166
 2136W        W 3233   6.988   7.462   6.290
 2137W        W 3234   4.711   3.921   6.013
 2138W        W 3235   6.775   3.140   1.165
 2139W        W 3236   5.558   6.167   1.192
 2140W        W 3237   3.315   5.669   1.940
 2141W        W 3238   1.381   0.622   5.067
 2142W        W 3239   1.551   3.795   5.017
 2143W        W 3240   6.870   4.756   6.819
 2144W        W 3241   5.747   6.754   5.155
 2145W        W 3242   3.640   1.288   4.855
 2146W        W 3243   3.245   5.464   3.170
 2147W        W 3244   2.221   2.638   1.151
 2148W        W 3245   5.489   0.215   7.907
 2149W        W 3246   0.359   6.615   4.907
 2150W        W 3247   5.477   5.851   5.229
 2151W        W 3248   4.099   5.073   0.983
 2152W        W 3249   5.249   6.657   0.720
 2153W        W 3250   5.728   1.549   3.361
 2154W        W 3251   0.877   5.371   5.130
 2155W        W 3252   1.108   3.646   7.691
 2156W        W 3253   1.533   5.157   6.299
 2157W        W 3254   1.239   1.368   4.353
 2158W        W 3255   6.233   5.909   7.078
 2159W        W 3256   7.024   5.305   4.933
 2160W        W 3257   0.657   2.001   4.872
 2161W        W 3258   2.877   5.863   1.755
 2162W        W 3259   3.499   3.681   0.408
 2163W        W 3260   0.755   3.059   5.724
 2164W        W 3261   6.719   2.238   1.375
 2165W        W 3262   4.283   2.491   1.659
 2166W        W 3263   2.458   6.102   1.544
 2167W        W 3264   4.948   2.516   3.355
 2168W        W 3265   3.971   0.895   2.058
 2169W        W 3266   2.040   5.871   1.675
 2170W        W 3267   2.231   0.780   1.470
 2171W        W 3268   2.528   1.214   2.729
 2172W        W 3269   7.498   3.356   3.709
 2173W        W 3270   4.955   6.311   5.982
 2174W        W 3271   2.342   6.588   2.751
 2175W        W 3272   0.152   1.603   2.118
 2176W        W 3273   6.645   1.840   5.531
 2177W        W 3274   3.544   3.189   0.187
 2178W        W 3275   5.401   4.467   5.262
 2179W        W 3276   2.466   4.478   7.047
 2180W        W 3277   4.688   3.670   3.814
 2181W        W 3278   1.068   0.517   3.161
 2182W        W 3279   1.221   3.737   3.481
 2183W        W 3280   6.146   5.235   2.168
 2184W        W 3281   6.526   1.755   3.472
 2185W        W 3282   4.975   2.421   4.175
 2186W        W 3283   5.336   0.706   4.200
 2187W        W 3284   3.881   3.826   2.700
 2188W        W 3285   3.950   0.718   5.740
 2189W        W 3286   2.001   4.817   0.503
 2190W        W 3287   3.971   6.768   3.735
 2191W        W 3288   0.436   5.993   4.877
 2192W        W 3289   7.802   5.954   2.779
 2193W        W 3290   6.294   1.312   4.755
 2194W        W 3291   6.056   3.976   5.767
 2195W        W 3292   1.643   2.359   4.372
 2196W        W 3293   0.514   2.062   3.008
 2197W        W 3294   4.894   2.919   7.303
 2198W        W 3295   1.705   1.523   4.189
 2199W        W 3296   2.275   7.071   6.394
 2200W        W 3297   2.617   4.265   1.744
 2201W        W 3298   7.667   3.386   6.070
 2202W        W 3299   7.232   6.054   2.609
 2203W        W 3300   5.937   3.075   1.770
 2204W        W 3301   1.654   7.267   7.037
 2205W        W 3302   3.422   3.791   6.564
 2206W        W 3303   2.408   5.355   3.697
 2207W        W 3304   7.151   6.600   2.604
 2208W        W 3305   1.602   2.077   1.108
 2209W        W 3306   4.610   0.543   2.546
 2210W        W 3307   0.891   5.780   4.832
 2211W        W 3308   7.552   2.433   1.811
 2212W        W 3309   1.276   4.277   7.034
 2213W        W 3310   7.841   2.827   2.041
 2214W        W 3311   5.227   4.818   4.581
 2215W        W 3312   5.667   0.941   5.855
 2216W        W 3313   6.049   5.501   4.878
 2217W        W 3314   6.681   5.984   0.261
 2218W        W 3315   4.080   2.455   7.275
 2219W        W 3316   3.065   0.769   5.867
 2220W        W 3317   7.911   3.337   2.483
 2221W        W 3318   4.231   1.295   3.724
 2222W        W 3319   5.193   2.371   5.035
 2223W        W 3320   3.288   5.383   2.368
 2224W        W 3321   6.657   5.115   1.657
 2225W        W 3322   1.822   4.650   3.243
 2226W        W 3323   7.649   5.845   2.241
 2227W        W 3324   5.543   5.835   7.400
 2228W        W 3325   3.400   6.294   0.622
 2229W        W 3326   4.705   3.280   4.161
 2230W        W 3327   0.615   3.437   4.583
 2231W        W 3328   2.492   1.753   3.485
 2232W        W 3329   5.906   6.664   5.678
 2233W        W 3330   4.040   2.110   0.994
 2234W        W 3331   2.878   5.528   5.737
 2235W        W 3332   7.975   3.085   4.317
 2236W        W 3333   0.879   0.871   2.315
 2237W        W 3334   1.307   7.062   6.659
 2238W        W 3335   1.966   2.415   7.745
 2239W        W 3336   2.302   1.621   0.919
 2240W        W 3337   5.804   2.676   5.254
 2241W        W 3338   7.137   2.736   7.024
 2242W        W 3339   2.529   2.725   0.269
 2243W        W 3340   6.815   0.488   3.276
 2244W        W 3341   6.888   4.739   1.917
 2245W        W 3342   2.447   4.745   1.693
 2246W        W 3343   2.363   4.905   3.107
 2247W        W 3344   5.479   0.478   1.575
 2248W        W 3345   1.006   0.761   1.294
 2249W        W 3346   6.489   1.772   4.005
 2250W        W 3347   5.914   2.675   7.379
 2251W        W 3348   0.543   2.328   4.029
 2252W        W 3349   2.215   4.136   0.170
 2253W        W 3350   7.965   0.322   5.657
 2254W        W 3351   3.677   5.768   2.287
 2255W        W 3352   6.073   1.485   1.131
 2256W        W 3353   0.733   5.335   4.648
 2257W        W 3354   4.767   0.471   1.054
 2258W        W 3355   6.080   6.416   6.991
 2259W        W 3356   5.073   3.958   4.089
 2260W        W 3357   3.928   0.358   1.408
 2261W        W 3358   0.996   5.152   3.362
 2262W        W 3359   1.823   6.771   4.971
 2263W        W 3360   6.570   7.786   0.770
 2264W        W 3361   5.765   3.214   5.926
 2265W        W 3362   1.001   6.563   5.371
 2266W        W 3363   5.476   0.124   0.620
 2267W        W 3364   5.945   1.359   4.107
 2268W        W 3365   1.954   7.741   1.191
 2269W        W 3366   2.540   6.609   5.342
 2270W        W 3367   1.694   5.942   3.272
 2271W        W 3368   0.049   2.342   1.888
 2272W        W 3369   5.601   3.611   5.153
 2273W        W 3370   1.918   3.578   1.050
 2274W        W 3371   5.862   3.694   2.302
 2275W        W 3372   0.004   4.083   4.699
 2276W        W 3373   7.138   3.454   6.015
 2277W        W 3374   0.497   6.678   6.164
 2278W        W 3375   3.699   1.288   0.868
 2279W        W 3376   4.635   5.124   0.968
 2280W        W 3377   2.005   1.821   5.435
 2281W        W 3378   6.771   7.006   6.388
 2282W        W 3379   0.572   1.530   4.645
 2283W        W 3380   3.294   5.781   1.438
 2284W        W 3381   4.581   6.706   5.395
 2285W        W 3382   0.929   1.548   6.638
 2286W        W 3383   6.146   0.507   0.913
 2287W        W 3384   3.136   4.981   3.307
 2288W        W 3385   0.758   1.736   6.188
 2289W        W 3386   6.329   0.057   0.121
 2290W        W 3387   1.341   2.010   1.547
 2291W        W 3388   4.513   3.147   5.018
 2292W        W 3389   2.946   7.218   2.087
 2293W        W 3390   7.991   3.837   2.394
 2294W        W 3391   7.409   4.368   1.387
 2295W        W 3392   5.395   1.496   7.710
 2296W        W 3393   3.707   7.886   1.374
 2297W        W 3394   6.724   5.132   2.198
 2298W        W 3395   2.969   3.055   5.006
 2299W        W 3396   0.103   6.812   4.496
 2300W        W 3397   4.208   5.837   4.913
 2301W        W 3398   6.613   5.482   0.376
 2302W        W 3399   6.757   0.768   5.205
 2303W        W 3400   7.063   5.616   1.108
 2304W        W 3401   2.942   1.228   3.701
 2305W        W 3402   1.945   3.896   2.441
 2306W        W 3403   1.260   2.143   2.816
 2307W        W 3404   4.200   5.806   3.999
 2308W        W 3405   3.698   3.151   7.009
 2309W        W 3406   4.084   5.946   0.973
 2310W        W 3407   5.201   0.804   5.699
 2311W        W 3408   1.884   6.287   7.859
 2312W        W 3409   3.506   2.380   6.622
 2313W        W 3410   1.459   7.674   0.597
 2314W        W 3411   4.332   1.633   1.917
 2315W        W 3412   6.247   2.358   1.226
 2316W        W 3413   7.330   2.542   3.985
 2317W        W 3414   3.258   4.916   0.616
 2318W        W 3415   5.396   1.099   2.728
 2319W        W 3416   5.593   5.416   0.291
 2320W        W 3417   3.101   0.167   3.122
 2321W        W 3418   5.868   4.987   0.388
 2322W        W 3419   0.850   0.340   0.962
 2323W        W 3420   0.317   1.761   6.470
 2324W        W 3421   5.041   5.990   1.943
 2325W        W 3422   4.807   0.979   0.975
 2326W        W 3423   6.647   3.801   0.498
 2327W        W 3424   5.737   4.583   0.685
 2328W        W 3425   0.910   2.972   6.233
 2329W        W 3426   0.399   1.845   3.902
 2330W        W 3427   5.492   5.682   1.272
 2331W        W 3428   5.387   6.812   4.802
 2332W        W 3429   0.734   5.207   2.053
 2333W        W 3430   0.604   7.460   6.208
 2334W        W 3431   5.321   2.200   4.521
 2335W        W 3432   6.203   0.793   6.907
 2336W        W 3433   3.694   0.902   3.100
 2337W        W 3434   3.003   3.849   0.201
 2338W        W 3435   1.855   5.769   7.731
 2339W        W 3436   7.112   2.650   4.803
 2340W        W 3437   1.592   0.684   2.833
 2341W        W 3438   5.182   3.542   5.413
 2342W        W 3439   5.031   5.161   1.346
 2343W        W 3440   2.775   7.462   3.590
 2344W        W 3441   2.092   6.895   6.833
 2345W        W 3442   5.806   7.431   3.793
 2346W        W 3443   6.679   5.029   0.686
 2347W        W 3444   4.150   5.497   5.698
 2348W        W 3445   6.586   3.667   4.048
 2349W        W 3446   4.336   2.842   1.307
 2350W        W 3447   2.264   0.399   5.484
 2351W        W 3448   4.718   4.582   0.289
 2352W        W 3449   7.088   2.107   5.454
 2353W        W 3450   6.321   0.933   6.407
 2354W        W 3451   3.912   1.714   3.708
 2355W        W 3452   7.029   3.793   1.918
 2356W        W 3453   3.525   1.148   1.889
 2357W        W 3454   2.224   5.390   6.287
 2358W        W 3455   5.350   7.082   4.379
 2359W        W 3456   4.754   6.797   2.439
 2360W        W 3457   4.628   1.452   4.335
 2361W        W 3458   3.901   6.541   5.370
 2362W        W 3459   6.257   1.985   5.878
 2363W        W 3460   5.668   2.249   3.562
 2364W        W 3461   5.565   4.201   6.622
 2365W        W 3462   3.137   2.545   3.057
 2366W        W 3463   0.910   4.597   5.691
 2367W        W 3464   5.453   6.999   3.171
 2368W        W 3465   5.876   5.850   0.940
 2369W        W 3466   3.758   4.241   1.717
 2370W        W 3467   3.921   2.550   1.251
 2371W        W 3468   5.470   5.605   4.273
 2372W        W 3469   0.596   3.786   0.563
 2373W        W 3470   0.170   1.821   4.728
 2374W        W 3471   5.385   7.398   5.601
 2375W        W 3472   4.804   7.199   1.507
 2376W        W 3473   1.543   4.750   5.366
 2377W        W 3474   1.201   7.376   0.249
 2378W        W 3475   7.533   1.226   5.127
 2379W        W 3476   1.536   5.193   2.679
 2380W        W 3477   5.697   2.653   2.910
 2381W        W 3478   0.156   6.417   3.160
 2382W        W 3479   0.085   5.370   6.423
 2383W        W 3480   5.415   1.497   4.978
 2384W        W 3481   0.773   7.803   4.749
 2385W        W 3482   2.919   1.786   1.625
 2386W        W 3483   6.362   5.036   0.304
 2387W        W 3484   0.542   7.101   5.860
 2388W        W 3485   4.142   2.443   0.302
 2389W        W 3486   3.445   3.576   3.665
 2390W        W 3487   2.595   6.001   5.548
 2391W        W 3488   1.599   3.885   1.299
 2392W        W 3489   3.156   3.516   5.084
 2393W        W 3490   7.959   5.552   5.582
 2394W        W 3491   6.126   2.824   3.174
 2395W        W 3492   0.225   0.640   3.085
 2396W        W 3493   1.753   7.410   7.574
 2397W        W 3494   2.577   2.603   0.786
 2398W        W 3495   0.568   2.207   3.534
 2399W        W 3496   3.439   5.956   6.792
 2400W        W 3497   3.983   4.116   7.981
 2401W        W 3498   6.102   5.343   6.483
 2402W        W 3499   1.189   1.264   2.508
 2403W        W 3500   4.092   6.140   5.655
 2404W        W 3501   2.983   4.065   3.687
 2405W        W 3502   0.628   0.390   6.380
 2406W        W 3503   3.602   1.217   1.385
 2407W        W 3504   2.046   1.935   1.756
 2408W        W 3505   7.457   5.450   5.186
 2409W        W 3506   3.846   1.728   1.813
 2410W        W 3507   6.081   6.658   1.251
 2411W        W 3508   5.164   4.305   5.728
 2412W        W 3509   2.503   5.722   2.906
 2413W        W 3510   3.796   6.351   0.967
 2414W        W 3511   5.330   4.367   4.318
 2415W        W 3512   1.727   2.845   0.533
 2416W        W 3513   3.944   6.074   6.133
 2417W        W 3514   4.548   5.042   2.736
 2418W        W 3515   4.294   3.640   4.207
 2419W        W 3516   3.972   4.340   2.680
 2420W        W 3517   1.110   2.286   4.515
 2421W        W 3518   1.473   4.001   7.480
 2422W        W 3519   2.452   5.220   1.547
 2423W        W 3520   5.483   3.335   3.483
 2424W        W 3521   4.539   1.329   6.266
 2425W        W 3522   6.172   0.997   5.917
 2426W        W 3523   5.775   0.201   7.374
 2427W        W 3524   7.821   5.112   6.771
 2428W        W 3525   0.850   3.090   5.220
 2429W        W 3526   2.879   5.667   2.224
 2430W        W 3527   1.040   2.059   1.964
 2431W        W 3528   2.569   3.858   5.587
 2432W        W 3529   3.048   3.696   3.336
 2433W        W 3530   7.812   6.667   4.898
 2434W        W 3531   1.319   2.752   4.435
 2435W        W 3532   6.935   1.790   6.468
 2436W        W 3533   3.518   5.581   2.769
 2437W        W 3534   5.198   0.741   7.277
 2438W        W 3535   7.859   3.086   2.942
 2439W        W 3536   6.890   2.562   2.452
 2440W        W 3537   2.516   6.124   1.029
 2441W        W 3538   6.373   1.239   7.674
 2442W        W 3539   3.122   3.168   2.499
 2443W        W 3540   0.867   6.836   4.148
 2444W        W 3541   3.014   2.896   0.869
 2445W        W 3542   4.897   1.988   3.229
 2446W        W 3543   6.652   6.101   7.274
 2447W        W 3544   5.138   7.132   3.542
 2448W        W 3545   2.730   6.990   5.024
 2449W        W 3546   1.144   7.249   7.105
 2450W        W 3547   6.763   4.651   5.337
 2451W        W 3548   4.960   6.658   3.678
 2452W        W 3549   7.309   4.030   4.918
 2453W        W 3550   4.104   4.684   3.462
 2454W        W 3551   6.699   4.201   6.921
 2455W        W 3552   6.814   5.954   7.744
 2456W        W 3553   7.375   4.927   5.000
 2457W        W 3554   6.195   5.985   0.141
 2458W        W 3555   4.546   0.953   4.529
 2459W        W 3556   6.918   1.461   1.351
 2460W        W 3557   1.057   5.910   6.055
 2461W        W 3558   4.488   1.693   0.594
 2462W        W 3559   5.830   7.210   7.943
 2463W        W 3560   2.530   2.107   1.696
 2464W        W 3561   0.832   4.744   6.175
 2465W        W 3562   6.394   2.648   5.961
 2466W        W 3563   5.578   2.741   5.726
 2467W        W 3564   1.296   2.287   2.341
 2468W        W 3565   2.720   7.038   1.181
 2469W        W 3566   1.865   1.148   6.750
 2470W        W 3567   1.097   1.001   5.232
 2471W        W 3568   1.492   5.289   3.563
 2472W        W 3569   1.916   7.029   6.041
 2473W        W 3570   3.364   6.205   4.120
 2474W        W 3571   5.092   1.908   4.874
 2475W        W 3572   2.211   1.587   4.023
 2476W        W 3573   2.803   4.814   0.843
 2477W        W 3574   7.064   5.747   7.208
 2478W        W 3575   5.540   1.483   0.195
 2479W        W 3576   5.042   3.686   7.255
 2480W        W 3577   4.742   4.527   2.059
 2481W        W 3578   0.052   5.586   6.893
 2482W        W 3579   6.701   6.923   5.464
 2483W        W 3580   1.712   2.246   0.614
 2484W        W 3581   4.480   4.228   2.833
 2485W        W 3582   3.736   6.695   6.724
 2486W        W 3583   7.775   3.128   4.769
 2487W        W 3584   1.977   7.373   6.661
 2488W        W 3585   3.579   2.334   7.171
 2489W        W 3586   2.824   5.170   2.420
 2490W        W 3587   6.492   6.965   1.916
 2491W        W 3588   4.721   1.000   3.522
 2492W        W 3589   2.358   3.959   1.430
 2493W        W 3590   0.971   4.182   3.287
 2494W        W 3591   1.302   3.094   7.044
 2495W        W 3592   0.614   2.445   4.621
 2496W        W 3593   6.107   2.817   1.366
 2497W        W 3594   3.218   6.638   6.697
 2498W        W 3595   3.561   6.994   4.545
 2499W        W 3596   1.590   2.626   5.560
 2500W        W 3597   5.625   0.767   2.405
 2501W        W 3598   6.891   7.573   2.378
 2502W        W 3599   1.733   2.802   6.362
 2503W        W 3600   4.797   2.760   3.820
 2504W        W 3601   0.447   5.270   6.799
 2505W        W 3602   0.325   2.464   0.862
 2506W        W 3603   0.671   5.479   3.086
 2507W        W 3604   7.433   4.323   3.043
 2508W        W 3605   4.118   4.017   3.122
 2509W        W 3606   3.405   2.613   1.398
 2510W        W 3607   5.947   2.564   1.861
 2511W        W 3608   7.148   4.926   7.196
 2512W        W 3609   5.621   6.746   7.917
 2513W        W 3610   4.439   7.710   2.391
 2514W        W 3611   4.054   3.261   0.225
 2515W        W 3612   1.108   0.868   2.794
 2516W        W 3613   4.781   5.030   3.909
 2517W        W 3614   0.347   4.004   6.223
 2518W        W 3615   4.070   6.111   2.409
 2519W        W 3616   3.037   6.617   3.344
 2520W        W 3617   5.534   4.943   2.539
 2521W        W 3618   4.446   5.533   2.952
 2522W        W 3619   0.902   1.766   2.899
 2523W        W 3620   1.175   4.932   0.533
 2524W        W 3621   7.239   5.142   4.069
 2525W        W 3622   4.160   6.243   1.503
 2526W        W 3623   5.288   5.583   5.622
 2527W        W 3624   0.810   1.346   2.177
 2528W        W 3625   3.288   1.597   3.880
 2529W        W 3626   4.408   5.100   3.222
 2530W        W 3627   0.332   2.767   5.560
 2531W        W 3628   2.185   5.784   4.556
 2532W        W 3629   5.058   1.197   7.476
 2533W        W 3630   1.023   6.552   3.701
 2534W        W 3631   0.943   2.829   4.769
 2535W        W 3632   5.407   3.042   4.556
 2536W        W 3633   3.723   6.897   5.038
 2537W        W 3634   2.759   6.418   1.769
 2538W        W 3635   1.285   5.658   5.190
 2539W        W 3636   4.505   6.563   4.575
 2540W        W 3637   2.407   0.758   2.165
 2541W        W 3638   3.820   4.118   2.239
 2542W        W 3639   4.413   3.282   5.550
 2543W        W 3640   6.367   6.525   3.088
 2544W        W 3641   6.686   7.283   3.746
 2545W        W 3642   6.924   3.171   6.804
 2546W        W 3643   5.458   6.085   3.598
 2547W        W 3644   1.395   5.510   5.943
 2548W        W 3645   4.760   4.987   7.440
 2549W        W 3646   6.301   5.848   0.620
 2550W        W 3647   4.851   5.849   5.787
 2551W        W 3648   1.877   1.108   3.264
 2552W        W 3649   6.579   2.163   6.741
 2553W        W 3650   1.039   6.727   2.319
 2554W        W 3651   2.262   2.909   2.104
 2555W        W 3652   7.559   1.911   5.396
 2556W        W 3653   5.104   6.514   7.844
 2557W        W 3654   5.243   1.997   2.310
 2558W        W 3655   0.005   2.079   2.890
 2559W        W 3656   1.789   2.458   2.321
 2560W        W 3657   7.562   5.350   6.381
 2561W        W 3658   6.805   4.060   4.758
 2562W        W 3659   5.823   6.945   3.591
 2563W        W 3660   3.195   4.640   1.180
 2564W        W 3661   1.581   4.807   6.672
 2565W        W 3662   0.864   3.859   6.341
 2566W        W 3663   7.060   3.026   2.434
 2567W        W 3664   2.493   0.370   1.264
 2568W        W 3665   3.011   6.469   3.848
 2569W        W 3666   4.417   4.737   6.655
 2570W        W 3667   6.359   1.442   0.151
 2571W        W 3668   2.073   7.288   0.358
 2572W        W 3669   0.966   1.531   4.961
 2573W        W 3670   4.665   7.515   1.949
 2574W        W 3671   3.414   6.900   7.103
 2575W        W 3672   0.392   5.182   4.265
 2576W        W 3673   2.133   1.605   6.823
 2577W        W 3674   6.698   5.789   6.853
 2578W        W 3675   1.921   6.090   7.374
 2579W        W 3676   2.138   5.917   0.117
 2580W        W 3677   3.252   5.520   6.579
 2581W        W 3678   5.100   5.985   2.911
 2582W        W 3679   2.874   7.084   3.196
 2583W        W 3680   2.727   0.842   1.380
 2584W        W 3681   6.040   2.922   5.617
 2585W        W 3682   6.103   7.579   1.715
 2586W        W 3683   4.884   4.199   1.662
 2587W        W 3684   2.401   7.131   3.430
 2588W        W 3685   4.269   0.139   2.672
 2589W        W 3686   3.531   5.878   0.920
 2590W        W 3687   2.864   1.690   2.145
 2591W        W 3688   3.513   0.184   2.185
 2592W        W 3689   3.048   5.752   0.462
 2593W        W 3690   6.126   4.529   0.318
 2594W        W 3691   1.671   7.560   0.133
 2595W        W 3692   1.628   7.106   2.685
 2596W        W 3693   4.686   6.221   7.731
 2597W        W 3694   1.212   6.844   0.517
 2598W        W 3695   0.819   6.250   5.731
 2599W        W 3696   2.173   2.198   5.134
 2600W        W 3697   2.825   1.158   6.088
 2601W        W 3698   1.098   2.127   1.099
 2602W        W 3699   0.739   6.040   1.721
 2603W        W 3700   7.040   2.479   1.688
 2604W        W 3701   4.758   2.301   4.706
 2605W        W 3702   3.497   0.906   5.556
 2606W        W 3703   0.350   2.607   2.209
 2607W        W 3704   6.883   2.603   6.102
 2608W        W 3705   5.131   7.298   6.593
 2609W        W 3706   6.985   4.787   5.778
 2610W        W 3707   6.735   7.787   5.835
 2611W        W 3708   5.072   6.273   3.319
 2612W        W 3709   2.475   3.403   4.498
 2613W        W 3710   3.217   7.120   1.246
 2614W        W 3711   4.375   4.037   4.587
 2615W        W 3712   5.473   6.900   5.728
 2616W        W 3713   1.263   6.554   6.680
 2617W        W 3714   3.020   1.305   1.842
 2618W        W 3715   0.793   4.234   0.403
 2619W        W 3716   1.590   5.802   1.919
 2620W        W 3717   4.679   6.738   5.915
 2621W        W 3718   7.651   3.877   1.422
 2622W        W 3719   5.623   4.108   2.062
 2623W        W 3720   4.044   4.803   7.267
 2624W        W 3721   2.502   3.727   6.551
 2625W        W 3722   7.180   6.052   4.077
 2626W        W 3723   1.393   2.404   1.848
 2627W        W 3724   1.373   3.721   6.393
 2628W        W 3725   3.866   3.898   5.709
 2629W        W 3726   5.630   5.382   5.143
 2630W        W 3727   4.343   6.406   6.637
 2631W        W 3728   4.362   3.204   3.146
 2632W        W 3729   1.895   5.176   3.972
 2633W        W 3730   7.444   1.618   6.684
 2634W        W 3731   2.600   2.128   2.196
 2635W        W 3732   2.444   3.362   3.984
 2636W        W 3733   3.477   4.037   0.033
 2637W        W 3734   5.074   1.271   1.297
 2638W        W 3735   3.733   6.469   5.876
 2639W        W 3736   2.816   1.120   0.911
 2640W        W 3737   0.510   5.427   5.489
 2641W        W 3738   3.893   5.504   0.803
 2642W        W 3739   3.419   6.086   5.990
 2643W        W 3740   5.287   0.683   1.990
 2644W        W 3741   2.926   4.328   0.842
 2645W        W 3742   6.488   1.224   3.384
 2646W        W 3743   1.664   6.272   2.094
 2647W        W 3744   1.269   4.080   0.499
 2648W        W 3745   4.816   4.143   7.246
 2649W        W 3746   5.244   4.091   7.542
 2650W        W 3747   3.189   7.850   1.474
 2651W        W 3748   5.123   0.015   0.261
 2652W        W 3749   4.568   6.064   0.764
 2653W        W 3750   6.963   6.927   1.654
 2654W        W 3751   6.285   0.449   6.525
 2655W        W 3752   0.009   0.911   5.076
 2656W        W 3753   1.088   0.010   7.699
 2657W        W 3754   2.297   5.444   4.189
 2658W        W 3755   6.501   0.152   6.173
 2659W        W 3756   6.639   5.364   2.997
 2660W        W 3757   5.177   0.787   7.799
 2661W        W 3758   4.601   5.452   1.442
 2662W        W 3759   3.868   3.563   2.275
 2663W        W 3760   3.909   3.849   4.494
 2664W        W 3761   5.126   1.199   0.085
 2665W        W 3762   1.874   3.386   0.584
 2666W        W 3763   5.678   0.750   1.171
 2667W        W 3764   5.475   2.618   4.269
 2668W        W 3765   3.938   1.974   7.293
 2669W        W 3766   4.122   1.102   4.782
 2670W        W 3767   1.897   7.373   0.839
 2671W        W 3768   6.716   5.062   4.284
 2672W        W 3769   5.756   2.409   1.110
 2673W        W 3770   7.412   5.965   1.796
 2674W        W 3771   2.653   3.747   6.059
 2675W        W 3772   1.990   5.769   2.891
 2676W        W 3773   5.351   3.292   2.175
 2677W        W 3774   4.142   6.309   0.582
 2678W        W 3775   4.715   5.033   1.743
 2679W        W 3776   3.785   0.434   4.434
 2680W        W 3777   6.062   5.010   7.035
 2681W        W 3778   1.712   1.582   3.144
 2682W        W 3779   0.637   1.138   5.035
 2683W        W 3780   0.967   3.359   3.766
 2684W        W 3781   3.820   3.889   3.516
 2685W        W 3782   7.391   1.692   3.938
 2686W        W 3783   6.146   6.282   0.898
 2687W        W 3784   0.029   1.412   5.047
 2688W        W 3785   1.175   3.318   0.095
 2689W        W 3786   2.693   6.449   2.419
 2690W        W 3787   3.415   2.127   2.444
 2691W        W 3788   0.586   1.587   1.220
 2692W        W 3789   1.663   4.717   2.766
 2693W        W 3790   4.485   5.441   0.103
 2694W        W 3791   4.751   6.966   1.949
 2695W        W 3792   4.378   3.566   2.305
 2696W        W 3793   1.269   6.234   1.295
 2697W        W 3794   5.150   2.964   3.524
 2698W        W 3795   3.881   5.515   3.714
 2699W        W 3796   2.131   2.961   4.799
 2700W        W 3797   2.899   6.969   3.702
 2701W        W 3798   7.337   6.239   6.520
 2702W        W 3799   2.428   2.075   2.682
 2703W        W 3800   2.044   6.486   5.318
 2704W        W 3801   2.508   7.424   4.905
 2705W        W 3802   6.962   4.009   7.327
 2706W        W 3803   4.884   1.656   7.602
 2707W        W 3804   6.163   6.705   2.206
 2708W        W 3805   7.157   4.833   0.927
 2709W        W 3806   2.427   7.538   5.434
 2710W        W 3807   4.234   3.165   4.025
 2711W        W 3808   6.840   3.010   4.512
 2712W        W 3809   6.386   5.404   6.912
 2713W        W 3810   6.597   1.112   6.833
 2714W        W 3811   2.906   0.258   4.587
 2715W        W 3812   3.919   6.568   1.913
 2716W        W 3813   7.267   2.505   2.789
 2717W        W 3814   3.046   7.874   3.859
 2718W        W 3815   0.251   2.712   4.142
 2719W        W 3816   5.250   5.044   7.554
 2720W        W 3817   3.793   1.985   2.821
 2721W        W 3818   5.779   0.893   1.945
 2722W        W 3819   2.466   2.492   4.486
 2723W        W 3820   4.300   5.606   3.431
 2724W        W 3821   7.192   4.210   5.695
 2725W        W 3822   2.066   7.513   6.164
 2726W        W 3823   6.468   6.323   1.309
 2727W        W 3824   3.982   4.361   4.635
 2728W        W 3825   6.345   6.056   3.326
 2729W        W 3826   6.931   2.893   2.929
 2730W        W 3827   6.923   1.242   5.950
 2731W        W 3828   2.916   2.332   4.297
 2732W        W 3829   4.551   1.312   7.380
 2733W        W 3830   5.291   1.702   0.986
 2734W        W 3831   7.640   4.822   6.350
 2735W        W 3832   0.380   2.313   1.409
 2736W        W 3833   1.546   5.998   6.019
 2737W        W 3834   0.688   3.499   1.360
 2738W        W 3835   5.735   1.862   7.583
 2739W        W 3836   7.917   3.367   5.208
 2740W        W 3837   4.046   3.975   4.993
 2741W        W 3838   6.033   0.891   7.521
 2742W        W 3839   6.571   6.410   3.605
 2743W        W 3840   4.121   1.658   6.259
 2744W        W 3841   4.015   1.535   4.546
 2745W        W 3842   2.012   4.917   1.464
 2746W        W 3843   2.160   3.085   5.351
 2747W        W 3844   5.649   3.180   5.417
 2748W        W 3845   3.602   2.860   4.372
 2749W        W 3846   1.062   1.178   6.297
 2750W        W 3847   1.585   6.528   0.742
 2751W        W 3848   2.823   3.102   4.186
 2752W        W 3849   2.386   0.947   3.153
 2753W        W 3850   2.017   7.345   5.651
 2754W        W 3851   6.357   1.821   6.431
 2755W        W 3852   5.392   2.820   0.243
 2756W        W 3853   0.270   2.273   6.591
 2757W        W 3854   0.073   2.999   1.600
 2758W        W 3855   6.666   3.546   2.239
 2759W        W 3856   4.264   1.686   4.073
 2760W        W 3857   0.325   1.117   2.968
 2761W        W 3858   1.251   1.707   3.329
 2762W        W 3859   2.485   2.042   4.163
 2763W        W 3860   2.658   1.074   4.094
 2764W        W 3861   6.230   7.569   4.397
 2765W        W 3862   6.320   6.482   7.469
 2766W        W 3863   1.317   5.774   6.908
 2767W        W 3864   4.785   3.815   6.734
 2768W        W 3865   4.789   5.484   1.966
 2769W        W 3866   3.429   6.487   5.187
 2770W        W 3867   1.722   1.800   6.543
 2771W        W 3868   5.526   5.969   1.699
 2772W        W 3869   0.671   5.419   2.521
 2773W        W 3870   4.491   2.265   4.246
 2774W        W 3871   2.903   0.986   2.961
 2775W        W 3872   6.942   3.970   2.377
 2776W        W 3873   6.416   1.628   5.140
 2777W        W 3874   0.099   4.515   2.505
 2778W        W 3875   6.112   3.910   4.174
 2779W        W 3876   5.293   5.937   6.043
 2780W        W 3877   1.714   0.061   7.356
 2781W        W 3878   6.596   6.867   4.111
 2782W        W 3879   0.915   5.041   6.978
 2783W        W 3880   6.523   6.798   1.441
 2784W        W 3881   7.990   4.206   3.518
 2785W        W 3882   7.712   5.089   3.546
 2786W        W 3883   7.552   5.472   1.758
 2787W        W 3884   4.964   0.858   6.548
 2788W        W 3885   1.364   7.795   6.196
 2789W        W 3886   7.123   5.194   1.863
 2790W        W 3887   2.012   2.476   4.703
 2791W        W 3888   4.160   4.530   7.704
 2792W        W 3889   5.705   6.565   0.924
 2793W        W 3890   1.637   3.194   2.751
 2794W        W 3891   0.728   3.333   7.833
 2795W        W 3892   3.602   1.126   6.969
 2796W        W 3893   1.682   3.855   0.697
 2797W        W 3894   4.434   6.628   1.705
 2798W        W 3895   5.113   3.764   1.820
 2799W        W 3896   6.859   1.613   0.207
 2800W        W 3897   2.751   1.708   6.433
 2801W        W 3898   6.419   5.933   1.662
 2802W        W 3899   0.804   3.311   2.741
 2803W        W 3900   6.231   0.867   0.028
 2804W        W 3901   7.249   6.340   3.047
 2805W        W 3902   6.550   5.572   6.411
 2806W        W 3903   1.666   4.296   6.660
 2807W        W 3904   1.285   6.703   2.748
 2808W        W 3905   7.141   5.120   5.424
 2809W        W 3906   6.062   5.190   5.336
 2810W        W 3907   4.987   7.106   5.736
 2811W        W 3908   1.677   3.120   0.979
 2812W        W 3909   7.910   0.334   6.175
 2813W        W 3910   5.686   1.984   5.813
 2814W        W 3911   4.402   5.524   6.817
 2815W        W 3912   7.976   1.552   6.799
 2816W        W 3913   2.964   6.217   6.830
 2817W        W 3914   1.944   6.487   4.560
 2818W        W 3915   4.509   5.917   1.250
 2819W        W 3916   5.176   1.585   2.029
 2820W        W 3917   6.824   7.649   1.203
 2821W        W 3918   2.008   0.618   3.104
 2822W        W 3919   2.239   6.881   1.115
 2823W        W 3920   5.720   0.585   0.639
 2824W        W 3921   6.203   2.536   3.591
 2825W        W 3922   5.171   2.149   5.865
 2826W        W 3923   3.779   5.021   0.570
 2827W        W 3924   5.975   5.713   6.112
 2828W        W 3925   6.385   5.541   7.873
 2829W        W 3926   4.476   3.050   6.316
 2830W        W 3927   7.867   5.119   6.013
 2831W        W 3928   5.672   1.050   5.080
 2832W        W 3929   3.274   2.594   5.692
 2833W        W 3930   5.113   2.427   2.083
 2834W        W 3931   4.379   2.700   4.763
 2835W        W 3932   3.011   3.337   3.735
 2836W        W 3933   0.661   0.837   0.905
 2837W        W 3934   7.087   4.491   4.906
 2838W        W 3935   7.229   1.453   4.746
 2839W        W 3936   7.628   7.961   5.950
 2840W        W 3937   6.590   6.471   6.304
 2841W        W 3938   4.041   1.925   0.477
 2842W        W 3939   6.258   1.032   3.846
 2843W        W 3940   6.375   0.727   3.337
 2844W        W 3941   3.808   2.246   6.030
 2845W        W 3942   2.959   0.751   4.353
 2846W        W 3943   0.478   1.619   5.131
 2847W        W 3944   7.528   2.803   2.479
 2848W        W 3945   3.568   1.587   0.367
 2849W        W 3946   1.318   6.854   5.022
 2850W        W 3947   3.865   6.035   1.878
 2851W        W 3948   1.582   6.865   4.527
 2852W        W 3949   0.367   3.381   4.153
 2853W        W 3950   4.304   5.927   6.464
 2854W        W 3951   7.911   3.970   4.171
 2855W        W 3952   3.203   0.916   1.549
 2856W        W 3953   7.899   0.907   3.415
 2857W        W 3954   2.356   7.395   1.049
 2858W        W 3955   6.155   6.480   4.948
 2859W        W 3956   4.783   1.559   1.708
 2860W        W 3957   5.718   5.981   6.909
 2861W        W 3958   6.231   3.942   6.878
 2862W        W 3959   6.189   6.709   6.116
 2863W        W 3960   4.406   4.790   0.657
 2864W        W 3961   4.414   3.120   0.910
 2865W        W 3962   6.529   6.852   4.917
 2866W        W 3963   4.674   3.545   0.966
 2867W        W 3964   4.485   3.688   3.320
 2868W        W 3965   5.827   4.739   5.263
 2869W        W 3966   5.196   6.847   0.226
 2870W        W 3967   1.608   7.264   4.890
 2871W        W 3968   7.780   2.571   4.296
 2872W        W 3969   2.976   2.868   1.498
 2873W        W 3970   5.478   6.033   2.206
 2874W        W 3971   3.596   3.797   1.892
 2875W        W 3972   5.014   0.885   0.521
 2876W        W 3973   4.964   3.523   4.832
 2877W        W 3974   4.217   6.619   5.754
 2878W        W 3975   2.521   4.778   2.573
 2879W        W 3976   4.929   2.540   5.503
 2880W        W 3977   5.983   7.212   0.428
 2881W        W 3978   2.643   3.093   0.593
 2882W        W 3979   1.973   2.571   6.817
 2883W        W 3980   1.874   2.674   5.142
 2884W        W 3981   6.676   7.344   4.268
 2885W        W 3982   1.907   3.980   7.762
 2886W        W 3983   7.069   2.982   4.044
 2887W        W 3984   1.076   4.525   5.204
 2888W        W 3985   0.232   5.102   4.739
 2889W        W 3986   0.665   4.689   3.638
 2890W        W 3987   7.402   2.005   6.356
 2891W        W 3988   3.730   1.714   1.288
 2892W        W 3989   6.330   4.187   4.535
 2893W        W 3990   4.893   4.714   6.482
 2894W        W 3991   6.331   3.528   6.421
 2895W        W 3992   6.707   2.430   7.261
 2896W        W 3993   2.981   3.172   1.951
 2897W        W 3994   6.072   2.315   6.211
 2898W        W 3995   5.025   2.901   2.198
 2899W        W 3996   1.256   2.703   7.346
 2900W        W 3997   5.149   6.924   2.714
 2901W        W 3998   5.388   5.501   7.809
 2902W        W 3999   0.970   2.477   6.907
 2903W        W 4000   5.611   2.742   3.406
 2904W        W 4001   5.843   7.101   6.060
 2905W        W 4002   4.002   7.434   2.479
 2906W        W 4003   2.008   5.827   5.864
 2907W        W 4004   3.244   4.473   5.217
 2908W        W 4005   6.080   7.233   2.084
 2909W        W 4006   4.097   2.817   4.334
 2910W        W 4007   3.405   7.105   6.637
 2911W        W 4008   4.839   4.238   4.469
 2912W        W 4009   7.084   2.095   4.109
 2913W        W 4010   4.434   3.613   4.830
 2914W        W 4011   2.443   1.310   6.469
 2915W        W 4012   7.857   1.851   3.729
 2916W        W 4013   2.396   4.600   6.514
 2917W        W 4014   5.923   2.311   7.747
 2918W        W 4015   5.025   6.391   7.345
 2919W        W 4016   1.154   7.304   0.771
 2920W        W 4017   2.766   3.394   5.416
 2921W        W 4018   6.239   2.142   0.364
 2922W        W 4019   1.700   6.438   3.441
 2923W        W 4020   2.895   5.288   0.618
 2924W        W 4021   3.945   3.478   4.847
 2925W        W 4022   6.399   0.429   1.900
 2926W        W 4023   4.155   2.155   3.864
 2927W        W 4024   1.733   4.211   2.831
 2928W        W 4025   2.806   0.817   2.493
 2929W        W 4026   4.805   0.059   6.027
 2930W        W 4027   5.191   3.813   5.873
 2931W        W 4028   6.288   1.887   1.386
 2932W        W 4029   0.866   2.607   0.380
 2933W        W 4030   3.396   3.256   1.667
 2934W        W 4031   1.717   7.069   5.355
 2935W        W 4032   1.915   4.637   4.122
 2936W        W 4033   2.035   2.810   0.085
 2937W        W 4034   4.911   4.806   4.992
 2938W        W 4035   2.438   2.611   5.004
 2939W        W 4036   0.027   2.841   2.523
 2940W        W 4037   5.023   3.357   6.724
 2941W        W 4038   7.408   6.306   2.189
 2942W        W 4039   0.526   4.225   3.046
 2943W        W 4040   4.021   5.704   2.696
 2944W        W 4041   7.726   4.606   3.356
 2945W        W 4042   2.413   1.220   3.681
 2946W        W 4043   0.283   4.035   6.983
 2947W        W 4044   4.192   6.931   2.635
 2948W        W 4045   6.374   2.285   1.747
 2949W        W 4046   0.054   2.298   3.898
 2950W        W 4047   4.644   5.404   5.772
 2951W        W 4048   7.713   6.494   4.427
 2952W        W 4049   7.760   6.867   6.348
 2953W        W 4050   7.442   3.813   4.466
 2954W        W 4051   2.453   6.677   2.050
 2955W        W 4052   1.741   6.187   5.608
 2956W        W 4053   4.582   2.977   6.855
 2957W        W 4054   7.228   2.007   1.733
 2958W        W 4055   5.842   4.887   1.094
 2959W        W 4056   2.173   2.801   1.617
 2960W        W 4057   4.256   1.073   5.924
 2961W        W 4058   0.834   7.046   5.441
 2962W        W 4059   7.142   3.520   2.437
 2963W        W 4060   1.638   6.472   6.182
 2964W        W 4061   3.832   3.711   4.003
 2965W        W 4062   4.261   5.256   0.525
 2966W        W 4063   4.193   2.111   1.998
 2967W        W 4064   2.515   1.181   1.711
 2968W        W 4065   1.998   4.923   6.396
 2969W        W 4066   5.101   1.523   2.528
 2970W        W 4067   7.087   6.597   6.180
 2971W        W 4068   6.869   6.051   6.417
 2972W        W 4069   5.291   1.290   7.016
 2973W        W 4070   5.951   3.849   4.714
 2974W        W 4071   3.166   5.610   4.780
 2975W        W 4072   5.248   1.730   6.736
 2976W        W 4073   5.459   5.226   1.075
 2977W        W 4074   6.191   6.896   7.131
 2978W        W 4075   6.666   6.823   2.800
 2979W        W 4076   6.961   0.101   0.938
 2980W        W 4077   0.363   1.898   6.954
 2981W        W 4078   0.806   3.544   5.553
 2982W        W 4079   0.213   3.644   1.540
 2983W        W 4080   7.103   3.758   2.888
 2984W        W 4081   0.831   1.382   5.431
 2985W        W 4082   7.026   1.027   4.038
 2986W        W 4083   2.381   2.952   5.797
 2987W        W 4084   1.978   3.772   4.682
 2988W        W 4085   1.115   6.649   4.570
 2989W        W 4086   5.772   1.116   6.868
 2990W        W 4087   0.391   3.261   5.405
 2991W        W 4088   5.521   5.238   4.607
 2992W        W 4089   1.255   1.776   6.310
 2993W        W 4090   1.324   6.268   2.472
 2994W        W 4091   2.943   6.085   7.317
 2995W        W 4092   0.694   4.334   6.428
 2996W        W 4093   2.187   4.429   1.407
 2997W        W 4094   5.972   0.596   1.580
 2998W        W 4095   2.357   0.690   2.689
 2999W        W 4096   6.672   1.731   6.029
 3000W        W 4097   2.220   6.836   1.622
 3001W        W 4098   3.424   7.555   1.088
 3002W        W 4099   6.132   4.644   4.640
 3003W        W 4100   2.911   5.454   1.449
 3004W        W 4101   5.323   1.070   4.698
 3005W        W 4102   3.521   3.462   2.678
 3006W        W 4103   7.877   3.906   6.072
 3007W        W 4104   1.703   4.119   0.232
 3008W        W 4105   0.338   3.123   2.775
 3009W        W 4106   5.118   3.923   6.363
 3010W        W 4107   2.442   7.054   2.912
 3011W        W 4108   7.096   6.338   3.624
 3012W        W 4109   4.387   2.322   2.616
 3013W        W 4110   6.913   0.565   1.207
 3014W        W 4111   1.731   6.004   4.586
 3015W        W 4112   3.634   3.021   2.475
 3016W        W 4113   1.676   3.185   0.147
 3017W        W 4114   3.329   2.111   5.928
 3018W        W 4115   5.616   3.520   3.946
 3019W        W 4116   6.645   2.081   0.058
 3020W        W 4117   4.563   3.189   3.653
 3021W        W 4118   6.123   3.986   0.355
 3022W        W 4119   6.090   6.356   6.464
 3023W        W 4120   3.600   3.829   5.272
 3024W        W 4121   1.480   3.659   0.281
 3025W        W 4122   1.315   6.433   5.784
 3026W        W 4123   4.522   3.183   2.638
 3027W        W 4124   7.044   4.344   1.024
 3028W        W 4125   4.919   2.814   2.677
 3029W        W 4126   4.312   4.912   4.146
 3030W        W 4127   3.674   2.799   7.381
 3031W        W 4128   4.740   5.003   2.266
 3032W        W 4129   5.332   4.151   3.103
 3033W        W 4130   5.765   7.727   2.805
 3034W        W 4131   4.888   4.990   3.110
 3035W        W 4132   7.298   1.507   6.189
 3036W        W 4133   3.313   3.238   4.169
 3037W        W 4134   5.482   1.206   4.218
 3038W        W 4135   3.149   5.145   1.067
 3039W        W 4136   1.483   7.989   1.377
 3040W        W 4137   1.468   5.828   7.397
 3041W        W 4138   5.124   2.655   0.691
 3042W        W 4139   5.883   2.157   1.550
 3043W        W 4140   5.598   1.363   1.905
 3044ION    CL- 4141   0.110   3.060   3.803
 3045ION    CL- 4142   7.833   1.732   3.237
 3046ION    CL- 4143   5.782   1.390   2.898
 3047ION    CL- 4144   1.677   2.768   3.916
 3048ION    CL- 4145   1.054   5.483   3.766
 3049ION    CL- 4146   3.405   5.404   0.687
 3050ION    CL- 4147   4.755   5.083   6.170
 3051ION    CL- 4148   0.541   2.236   1.888
 3052ION    CL- 4149   5.111   7.329   4.943
 3053ION    CL- 4150   5.713   7.789   6.799
 3054ION    CL- 4151   5.812   4.599   6.858
 3055ION    CL- 4152   1.474   0.881   6.506
 3056ION    CL- 4153   5.198   3.748   2.805
 3057ION    CL- 4154   0.995   2.169   3.252
 3058ION    CL- 4155   3.818   5.056   4.522
 3059ION    CL- 4156   2.996   1.696   3.472
 3060ION    CL- 4157   4.669   0.866   1.468
 3061ION    CL- 4158   7.263   4.643   2.686
 3062ION    CL- 4159   7.106   0.119   5.917
 3063ION    CL- 4160   6.630   5.543   1.395
 3064ION    CL- 4161   6.399   6.574   4.507
 3065ION    CL- 4162   6.914   7.390   5.526
 3066ION    CL- 4163   2.572   1.572   4.414
 3067ION    CL- 4164   6.531   4.198   4.025
 3068ION    CL- 4165   5.405   6.521   2.940
 3069ION    CL- 4166   6.350   3.947   4.992
 3070ION    CL- 4167   3.275   0.448   5.518
 3071ION    CL- 4168   5.599   3.622   1.889
 3072ION    CL- 4169   6.808   2.388   2.949
 3073ION    CL- 4170   0.744   5.744   2.142
 3074ION    CL- 4171   5.332   2.440   2.626
 3075ION    CL- 4172   5.555   1.920   1.883
 3076ION    CL- 4173   3.715   5.717   5.813
 3077ION    CL- 4174   0.016   1.873   4.244
 3078ION    CL- 4175   4.825   4.610   2.771
 3079ION    CL- 4176   3.591   4.778   3.431
 3080ION    CL- 4177   2.782   6.609   4.682
 3081ION    CL- 4178   3.022   4.648   5.646
 3082ION    CL- 4179   1.187   6.660   1.012
 3083ION    CL- 4180   3.666   2.096   0.161
 3084ION    CL- 4181   1.289   0.639   5.587
 3085ION    CL- 4182   4.729   5.083   0.389
 3086ION    CL- 4183   1.383   2.475   1.346
 3087ION    CL- 4184   0.251   4.551   4.694
 3088ION    CL- 4185   5.727   1.470   5.880
 3089ION    CL- 4186   6.172   0.023   2.650
 3090ION    CL- 4187   5.186   6.111   5.544
 3091ION    CL- 4188   7.865   6.754   3.491
 3092ION    CL- 4189   5.482   5.455   6.092
 3093ION    CL- 4190   7.131   0.960   4.895
 3094ION    CL- 4191   5.606   2.578   4.785
 3095ION    CL- 4192   0.960   7.731   6.965
 3096ION    CL- 4193   2.583   6.551   1.299
 3097ION    CL- 4194   7.032   3.611   4.731
 3098ION    CL- 4195   4.591   0.825   6.196
 3099ION    CL- 4196   6.556   5.595   7.360
 3100ION    CL- 4197   2.348   5.845   3.806
 3101ION    CL- 4198   4.232   4.345   1.985
 3102ION    CL- 4199   2.480   6.858   7.199
 3103ION    CL- 4200   1.764   5.614   6.272
 3104ION    CL- 4201   6.688   7.061   3.275
 3105ION    CL- 4202   7.908   5.011   2.484
 3106ION    CL- 4203   3.972   7.955   2.285
 3107ION    CL- 4204   7.751   2.990   3.447
 3108ION    CL- 4205   1.599   1.015   5.418
 3109ION    CL- 4206   4.246   1.032   0.186
 3110ION    CL- 4207   2.052   5.959   2.176
 3111ION    CL- 4208   5.116   5.559   7.376
 3112ION    CL- 4209   2.459   0.814   5.200
 3113ION    CL- 4210   4.854   6.426   2.831
 3114ION    CL- 4211   4.106   2.611   2.117
 3115ION    CL- 4212   3.677   4.819   5.397
 3116ION    CL- 4213   5.747   1.505   7.226
 3117ION    CL- 4214   2.195   0.597   5.970
 3118ION    CL- 4215   3.470   6.796   6.222
 3119ION    CL- 4216   3.544   5.497   7.005
 3120ION    CL- 4217   5.115   2.639   5.968
 3121ION    CL- 4218   5.796   1.242   2.372
 3122ION    CL- 4219   1.488   7.096   7.944
 3123ION    CL- 4220   4.826   2.732   5.027
 3124ION    CL- 4221   7.277   2.811   2.019
 3125ION    CL- 4222   5.076   3.940   5.079
 3126ION    CL- 4223   1.855   4.508   1.871
 3127ION    CL- 4224   3.307   1.705   5.624
 3128ION    CL- 4225   3.267   2.741   1.890
 3129ION    CL- 4226   4.084   1.203   1.213
 3130ION    CL- 4227   7.966   5.787   4.809
 3131ION    CL- 4228   5.729   1.585   6.652
 3132ION    CL- 4229   0.318   3.143   2.222
 3133ION    CL- 4230   0.140   7.175   6.178
 3134ION    CL- 4231   7.542   2.106   2.654
 3135ION    CL- 4232   3.051   0.745   3.841
 3136ION    CL- 4233   1.699   3.618   4.187
 3137ION    CL- 4234   0.784   0.961   3.166
 3138ION    CL- 4235   1.299   6.917   5.585
 3139ION    CL- 4236   6.270   4.461   5.459
 3140ION    CL- 4237   5.160   6.755   6.091
 3141ION    CL- 4238   3.553   6.259   2.206
 3142ION    CL- 4239   6.946   1.594   4.192
 3143ION    CL- 4240   6.620   1.351   6.359
   8.00000   8.00000   8.00000
