Martini system from ../2_Creating_coordinates/TYR-TYR-TYR_aa.pdb
 4352
    1TYR     BB    1   5.336   3.815   1.899 -0.1820  0.0634 -0.0198
    1TYR    SC1    2   5.134   3.995   2.032  0.2875  0.3190 -0.3946
    1TYR    SC2    3   4.905   4.137   2.050  0.2284  0.1807  0.3846
    1TYR    SC3    4   5.141   4.252   2.114  0.3396  0.2112 -0.0410
    2TYR     BB    5   5.552   3.666   1.963  0.0853  0.1338 -0.1508
    2TYR    SC1    6   5.868   3.746   1.933  0.3232  0.0905  0.0849
    2TYR    SC2    7   6.093   3.895   1.930  0.4475 -0.0890 -0.2581
    2TYR    SC3    8   6.040   3.728   1.725 -0.1930  0.2306 -0.3833
    3TYR     BB    9   5.566   3.394   1.945  0.1604 -0.0626 -0.2079
    3TYR    SC1   10   5.452   3.201   1.748  0.1371 -0.1850  0.0952
    3TYR    SC2   11   5.499   3.065   1.520  0.0722 -0.0609  0.0059
    3TYR    SC3   12   5.275   3.016   1.662  0.0949 -0.1125  0.0244
    1TYR     BB   13   6.021   4.494   0.948  0.0305  0.1121 -0.0789
    1TYR    SC1   14   6.071   4.680   0.727 -0.1571  0.0475  0.1517
    1TYR    SC2   15   6.066   4.746   0.465  0.0584 -0.2643  0.0616
    1TYR    SC3   16   6.062   4.940   0.653 -0.2918 -0.0401 -0.1621
    2TYR     BB   17   5.862   4.612   1.188  0.2335 -0.2159  0.0080
    2TYR    SC1   18   6.006   4.867   1.276 -0.0349  0.2635  0.0550
    2TYR    SC2   19   6.128   5.027   1.096 -0.0397  0.2977  0.0817
    2TYR    SC3   20   5.988   5.136   1.299 -0.2889  0.2598 -0.0647
    3TYR     BB   21   5.647   4.488   1.385  0.2292  0.0881  0.1809
    3TYR    SC1   22   5.428   4.735   1.349  0.1392 -0.1164  0.0933
    3TYR    SC2   23   5.246   4.915   1.261  0.0127 -0.1443  0.2909
    3TYR    SC3   24   5.493   4.997   1.333  0.1181 -0.1197 -0.0744
    1TYR     BB   25   5.360   4.352   1.034  0.0442 -0.0633 -0.0448
    1TYR    SC1   26   5.103   4.422   1.150  0.0158  0.2219 -0.2176
    1TYR    SC2   27   4.883   4.354   1.290  0.1447 -0.2480 -0.2214
    1TYR    SC3   28   4.912   4.607   1.198 -0.1097 -0.0180  0.2794
    2TYR     BB   29   5.534   4.492   0.810  0.4788  0.0519  0.1100
    2TYR    SC1   30   5.562   4.819   0.895  0.4692 -0.0896 -0.0377
    2TYR    SC2   31   5.671   5.046   0.797 -0.1204  0.1523 -0.1867
    2TYR    SC3   32   5.406   5.034   0.848 -0.0145 -0.3162  0.4032
    3TYR     BB   33   5.654   4.382   0.587 -0.2378  0.0374  0.1516
    3TYR    SC1   34   5.905   4.191   0.578  0.0124  0.0677 -0.4065
    3TYR    SC2   35   6.135   4.109   0.694 -0.1738  0.1836  0.0712
    3TYR    SC3   36   6.055   4.000   0.461  0.1137 -0.2183  0.1486
    1TYR     BB   37   6.690   2.210   3.384  0.0765 -0.0320 -0.2750
    1TYR    SC1   38   6.556   2.362   3.160 -0.3594  0.2113  0.5207
    1TYR    SC2   39   6.338   2.486   3.060 -0.3811 -0.3408 -0.2259
    1TYR    SC3   40   6.569   2.486   2.920 -0.1094 -0.3827  0.2010
    2TYR     BB   41   6.616   1.906   3.283  0.0259 -0.0249  0.2608
    2TYR    SC1   42   6.465   1.965   3.000  0.0858 -0.1111  0.0154
    2TYR    SC2   43   6.224   1.982   2.879  0.1244 -0.0009 -0.0486
    2TYR    SC3   44   6.449   2.017   2.735  0.1859 -0.2450 -0.0180
    3TYR     BB   45   6.880   1.716   3.269 -0.1785  0.1373  0.3265
    3TYR    SC1   46   6.734   1.437   3.187  0.2725 -0.0242 -0.0492
    3TYR    SC2   47   6.631   1.201   3.104 -0.4499  0.2920 -0.1455
    3TYR    SC3   48   6.561   1.302   3.345  0.2183  0.2172  0.1049
    1TYR     BB   49   7.271   2.910   1.839  0.1333  0.1569  0.2779
    1TYR    SC1   50   7.572   3.002   1.809  0.3004 -0.1218  0.3692
    1TYR    SC2   51   7.748   3.198   1.868 -0.0136  0.3096 -0.0364
    1TYR    SC3   52   7.773   3.059   1.638 -0.0878  0.2322  0.0017
    2TYR     BB   53   7.162   2.789   2.120  0.2191 -0.1789  0.0787
    2TYR    SC1   54   7.162   2.445   2.094  0.0569 -0.2480 -0.0086
    2TYR    SC2   55   7.102   2.182   2.087  0.0430 -0.2426 -0.1008
    2TYR    SC3   56   7.089   2.330   1.861  0.2895 -0.2153 -0.1007
    3TYR     BB   57   7.037   2.905   2.306 -0.2533  0.0352  0.1937
    3TYR    SC1   58   7.009   2.752   2.576 -0.2801 -0.1306  0.0279
    3TYR    SC2   59   6.869   2.773   2.805 -0.0176 -0.1424  0.1950
    3TYR    SC3   60   7.104   2.641   2.803  0.2554  0.3179  0.0492
    1TYR     BB   61   2.128   1.461   4.949 -0.1244  0.0371  0.0865
    1TYR    SC1   62   1.952   1.555   4.727 -0.4683  0.0941  0.0461
    1TYR    SC2   63   1.732   1.571   4.572 -0.4681 -0.0341  0.0314
    1TYR    SC3   64   1.941   1.736   4.527 -0.2893 -0.3509 -0.3933
    2TYR     BB   65   2.066   1.347   5.244 -0.1071  0.0040 -0.0924
    2TYR    SC1   66   2.286   1.113   5.264  0.2656  0.0487 -0.1199
    2TYR    SC2   67   2.358   0.858   5.215  0.2222  0.0464 -0.1719
    2TYR    SC3   68   2.377   0.957   5.465 -0.0905 -0.1150 -0.0771
    3TYR     BB   69   1.861   1.453   5.393 -0.0474 -0.0241  0.2506
    3TYR    SC1   70   1.603   1.458   5.202 -0.0927 -0.1440  0.2031
    3TYR    SC2   71   1.493   1.512   4.961  0.2289  0.1937  0.1192
    3TYR    SC3   72   1.367   1.589   5.187  0.0107  0.0326  0.0571
    1TYR     BB   73   5.623   3.637   0.508 -0.1799 -0.0156  0.0317
    1TYR    SC1   74   5.410   3.535   0.334 -0.0701 -0.0539 -0.0599
    1TYR    SC2   75   5.185   3.644   0.231  0.0230  0.1188 -0.0845
    1TYR    SC3   76   5.254   3.390   0.168 -0.0336  0.1494 -0.2776
    2TYR     BB   77   5.572   3.868   0.752 -0.0809  0.2182  0.6026
    2TYR    SC1   78   5.321   3.991   0.639 -0.1112 -0.2593  0.1147
    2TYR    SC2   79   5.211   4.206   0.518  0.0681 -0.0758  0.2678
    2TYR    SC3   80   5.058   3.991   0.576 -0.1245  0.0260  0.1516
    3TYR     BB   81   5.709   3.945   1.025  0.1068 -0.1636  0.0370
    3TYR    SC1   82   6.001   3.851   1.141 -0.0024  0.0206  0.3255
    3TYR    SC2   83   6.249   3.885   1.040 -0.1694 -0.4357 -0.3184
    3TYR    SC3   84   6.210   3.725   1.254  0.1210  0.0151  0.0985
    1TYR     BB   85   3.755   0.771   4.606  0.0458 -0.0682  0.1272
    1TYR    SC1   86   3.685   0.640   4.863 -0.0747  0.4254  0.0829
    1TYR    SC2   87   3.846   0.576   5.070 -0.0180 -0.2131 -0.1291
    1TYR    SC3   88   3.579   0.590   5.106 -0.0097 -0.3307 -0.0127
    2TYR     BB   89   3.624   1.111   4.664 -0.3299  0.3180  0.0445
    2TYR    SC1   90   3.407   1.035   4.875 -0.0665  0.4074 -0.1227
    2TYR    SC2   91   3.139   1.003   4.877 -0.0156 -0.1856  0.2025
    2TYR    SC3   92   3.284   0.945   5.098  0.4104 -0.1517 -0.0543
    3TYR     BB   93   3.815   1.250   4.717  0.0623  0.1919  0.4588
    3TYR    SC1   94   3.923   1.147   5.019  0.3010  0.1306  0.1135
    3TYR    SC2   95   3.992   1.132   5.279  0.0987  0.1683  0.1712
    3TYR    SC3   96   3.732   1.155   5.209  0.1597  0.2754 -0.0303
    1TYR     BB   97   6.398   2.040   1.900  0.1391  0.1440  0.4370
    1TYR    SC1   98   6.398   1.706   1.906  0.0866 -0.0404  0.1095
    1TYR    SC2   99   6.305   1.462   1.840 -0.2041  0.1827 -0.3772
    1TYR    SC3  100   6.550   1.488   1.949 -0.1623 -0.3173 -0.3223
    2TYR     BB  101   6.500   2.254   1.728 -0.0811 -0.1496  0.1900
    2TYR    SC1  102   6.685   2.470   1.905  0.2900 -0.0680 -0.0451
    2TYR    SC2  103   6.642   2.642   2.109  0.2616 -0.2680  0.1217
    2TYR    SC3  104   6.686   2.736   1.860 -0.1759 -0.0253  0.1242
    3TYR     BB  105   6.467   2.374   1.394  0.0702  0.1015  0.0819
    3TYR    SC1  106   6.746   2.585   1.405  0.0922  0.2864  0.6526
    3TYR    SC2  107   6.916   2.705   1.234 -0.0755 -0.3264 -0.0022
    3TYR    SC3  108   6.994   2.653   1.488  0.2491  0.4562  0.0932
    1TYR     BB  109   5.819   2.117   3.802 -0.3169  0.0832 -0.0893
    1TYR    SC1  110   5.755   2.406   3.806  0.1206  0.2551 -0.2104
    1TYR    SC2  111   5.598   2.594   3.920 -0.2127 -0.0319 -0.1752
    1TYR    SC3  112   5.774   2.664   3.727 -0.3647  0.3038 -0.2018
    2TYR     BB  113   6.120   1.960   3.773  0.2073 -0.0706  0.3283
    2TYR    SC1  114   6.161   1.782   3.524 -0.1683  0.1512 -0.4044
    2TYR    SC2  115   6.186   1.541   3.405 -0.2678 -0.0337 -0.0656
    2TYR    SC3  116   6.096   1.752   3.263  0.1541 -0.1009 -0.4638
    3TYR     BB  117   6.341   2.160   3.811  0.0440 -0.1853  0.2607
    3TYR    SC1  118   6.426   2.282   4.070  0.1254 -0.0095  0.1037
    3TYR    SC2  119   6.459   2.307   4.337 -0.1090  0.1645  0.1205
    3TYR    SC3  120   6.530   2.509   4.173 -0.1633  0.1437  0.0710
    1TYR     BB  121   5.975   1.258   4.775  0.1283  0.1158 -0.0665
    1TYR    SC1  122   6.139   1.268   5.037  0.1702 -0.0007  0.1164
    1TYR    SC2  123   6.230   1.189   5.279  0.0072 -0.1914  0.1186
    1TYR    SC3  124   6.405   1.258   5.085  0.1384  0.0769  0.3234
    2TYR     BB  125   6.180   1.358   4.556  0.2823  0.0203  0.1084
    2TYR    SC1  126   6.320   1.576   4.646  0.2308  0.2779 -0.4097
    2TYR    SC2  127   6.352   1.842   4.678  0.2340  0.2524 -0.1755
    2TYR    SC3  128   6.452   1.672   4.861 -0.1075  0.1086 -0.1125
    3TYR     BB  129   6.262   1.178   4.318 -0.1514  0.0336 -0.2061
    3TYR    SC1  130   6.171   1.239   4.039 -0.0920 -0.1282 -0.0580
    3TYR    SC2  131   6.068   1.228   3.790  0.1277  0.0187 -0.1596
    3TYR    SC3  132   6.170   1.459   3.884 -0.3289  0.0840  0.2291
    1TYR     BB  133   6.019   2.298   2.193 -0.2821 -0.0400  0.0234
    1TYR    SC1  134   5.936   2.279   1.901 -0.2352 -0.1561 -0.0356
    1TYR    SC2  135   5.793   2.387   1.699  0.1248  0.0764 -0.1793
    1TYR    SC3  136   6.001   2.223   1.645 -0.0550 -0.2330  0.0245
    2TYR     BB  137   6.071   1.981   2.274 -0.0067  0.0472 -0.1812
    2TYR    SC1  138   5.949   1.855   1.998  0.3529 -0.0373 -0.1396
    2TYR    SC2  139   5.846   1.821   1.751  0.0188 -0.2398  0.0182
    2TYR    SC3  140   5.875   1.609   1.916 -0.2856 -0.0423  0.3447
    3TYR     BB  141   5.994   1.881   2.497 -0.2242 -0.0852 -0.2564
    3TYR    SC1  142   5.681   1.775   2.456  0.2980  0.3023 -0.2378
    3TYR    SC2  143   5.471   1.736   2.291  0.1115 -0.1877  0.0841
    3TYR    SC3  144   5.492   1.966   2.432 -0.3651 -0.2319  0.2469
    1TYR     BB  145   4.953   1.770   4.799  0.1609  0.5147 -0.1220
    1TYR    SC1  146   5.129   1.513   4.922  0.0509  0.1885 -0.2736
    1TYR    SC2  147   5.188   1.305   5.085 -0.0613  0.3307 -0.0444
    1TYR    SC3  148   5.069   1.260   4.847  0.1974  0.1112 -0.1393
    2TYR     BB  149   5.065   2.025   4.834 -0.3273  0.2308 -0.0720
    2TYR    SC1  150   4.998   2.222   4.651 -0.2626 -0.2367 -0.0088
    2TYR    SC2  151   4.783   2.385   4.653 -0.2554 -0.2275  0.0220
    2TYR    SC3  152   4.957   2.393   4.447 -0.1304 -0.0321  0.1316
    3TYR     BB  153   5.417   2.024   4.918  0.6558 -0.3414  0.3746
    3TYR    SC1  154   5.486   1.776   4.771 -0.0611  0.2480  0.0987
    3TYR    SC2  155   5.631   1.723   4.550 -0.1296  0.1507  0.0762
    3TYR    SC3  156   5.588   1.529   4.732 -0.0441  0.2399  0.1932
    1TYR     BB  157   2.088   0.042   5.446 -0.0045  0.2654  0.0190
    1TYR    SC1  158   2.034   0.357   5.492  0.2962  0.0620  0.3778
    1TYR    SC2  159   2.026   0.619   5.426  0.2770 -0.0153  0.0484
    1TYR    SC3  160   2.095   0.545   5.676  0.5137  0.2950  0.0834
    2TYR     BB  161   2.174  -0.000   5.155  0.0474  0.0628 -0.2222
    2TYR    SC1  162   2.187   0.253   4.930 -0.2012  0.1156  0.1861
    2TYR    SC2  163   2.200   0.511   5.008 -0.0387  0.1319  0.1109
    2TYR    SC3  164   2.270   0.443   4.757  0.3069 -0.0344  0.2429
    3TYR     BB  165   2.143  -0.293   5.042  0.1396 -0.1441  0.2876
    3TYR    SC1  166   2.179  -0.465   5.312  0.0349 -0.0866 -0.1164
    3TYR    SC2  167   2.325  -0.641   5.456  0.1673  0.0672 -0.0596
    3TYR    SC3  168   2.136  -0.492   5.578  0.2055  0.1201 -0.0644
    1TYR     BB  169   1.122   0.644   3.846 -0.1775 -0.0280  0.0593
    1TYR    SC1  170   1.123   0.502   4.118 -0.1283  0.0726  0.0395
    1TYR    SC2  171   0.928   0.473   4.302  0.2317 -0.1431  0.4076
    1TYR    SC3  172   1.090   0.265   4.244  0.2660 -0.0123 -0.0006
    2TYR     BB  173   0.821   0.596   3.778 -0.2085 -0.2219 -0.0014
    2TYR    SC1  174   0.744   0.370   3.590 -0.2820  0.1012 -0.1868
    2TYR    SC2  175   0.588   0.269   3.395 -0.2218 -0.0649 -0.1505
    2TYR    SC3  176   0.802   0.130   3.482 -0.3852 -0.1086  0.2034
    3TYR     BB  177   0.587   0.594   4.016  0.1768 -0.0125 -0.1884
    3TYR    SC1  178   0.331   0.398   3.923 -0.0555  0.5301 -0.0863
    3TYR    SC2  179   0.295   0.203   3.741 -0.1027  0.2895  0.1732
    3TYR    SC3  180   0.094   0.375   3.795 -0.0996  0.3417  0.0246
    1TYR     BB  181   3.455   6.026   3.339  0.1050 -0.1834 -0.1215
    1TYR    SC1  182   3.287   6.280   3.340  0.4463  0.1830 -0.2019
    1TYR    SC2  183   3.088   6.419   3.459  0.2424 -0.1199 -0.1774
    1TYR    SC3  184   3.194   6.507   3.227  0.0421  0.0191 -0.2192
    2TYR     BB  185   3.208   5.827   3.533  0.2057 -0.0516 -0.0166
    2TYR    SC1  186   2.935   5.957   3.442  0.0731  0.1048  0.1452
    2TYR    SC2  187   2.744   6.108   3.558  0.0639  0.1300  0.0973
    2TYR    SC3  188   2.681   5.946   3.352 -0.0253 -0.2867  0.4353
    3TYR     BB  189   3.394   5.579   3.616 -0.2445 -0.3506 -0.0625
    3TYR    SC1  190   3.628   5.590   3.386 -0.4261  0.2309  0.1096
    3TYR    SC2  191   3.893   5.620   3.349 -0.3316 -0.2543  0.2951
    3TYR    SC3  192   3.723   5.654   3.142 -0.1183 -0.0526  0.1462
    1TYR     BB  193   3.092   6.885   3.804 -0.3441 -0.0125 -0.0099
    1TYR    SC1  194   2.853   7.079   3.874 -0.1147 -0.0079 -0.1263
    1TYR    SC2  195   2.589   7.137   3.873 -0.1725 -0.1750  0.4694
    1TYR    SC3  196   2.771   7.335   3.847 -0.3444 -0.0602  0.0398
    2TYR     BB  197   3.311   6.810   3.631  0.0800  0.0364  0.2129
    2TYR    SC1  198   3.438   6.520   3.753 -0.1328  0.0164  0.1732
    2TYR    SC2  199   3.570   6.411   3.962  0.2684 -0.0577 -0.1052
    2TYR    SC3  200   3.449   6.252   3.781  0.0688  0.0003 -0.0260
    3TYR     BB  201   3.481   6.907   3.416 -0.0568 -0.2745 -0.1381
    3TYR    SC1  202   3.572   6.811   3.133  0.0446 -0.2562 -0.0926
    3TYR    SC2  203   3.476   6.830   2.881 -0.0446  0.0052 -0.0426
    3TYR    SC3  204   3.738   6.872   2.929  0.0487 -0.4165 -0.1386
    1TYR     BB  205   2.102   6.471   2.945 -0.2265  0.0270  0.3075
    1TYR    SC1  206   1.962   6.503   2.658  0.0288  0.0818 -0.0147
    1TYR    SC2  207   1.984   6.588   2.403 -0.0639  0.1449 -0.0022
    1TYR    SC3  208   1.740   6.545   2.510 -0.0226 -0.3463 -0.0755
    2TYR     BB  209   1.991   6.602   3.124 -0.1255  0.1623  0.0203
    2TYR    SC1  210   1.679   6.586   3.083 -0.1941 -0.3834 -0.0280
    2TYR    SC2  211   1.470   6.666   2.932 -0.2090 -0.0097  0.1757
    2TYR    SC3  212   1.439   6.633   3.198  0.0221  0.1961  0.2326
    3TYR     BB  213   2.091   6.916   3.180 -0.0116  0.1132  0.0280
    3TYR    SC1  214   1.822   7.048   3.187  0.1200 -0.0137  0.3490
    3TYR    SC2  215   1.595   7.106   3.054  0.1016 -0.4168  0.1862
    3TYR    SC3  216   1.585   7.051   3.318  0.0479 -0.2156  0.2287
    1TYR     BB  217   7.599   1.240   3.864  0.0765 -0.1673  0.0529
    1TYR    SC1  218   7.624   0.987   4.031  0.0453  0.0370 -0.1799
    1TYR    SC2  219   7.568   0.728   3.980 -0.0658 -0.0090  0.1434
    1TYR    SC3  220   7.794   0.794   4.112  0.1326  0.0931 -0.2273
    2TYR     BB  221   7.494   1.463   4.125 -0.1260 -0.1331  0.0386
    2TYR    SC1  222   7.240   1.591   4.200  0.0925  0.0464 -0.0725
    2TYR    SC2  223   6.989   1.567   4.103  0.0202  0.2042  0.0681
    2TYR    SC3  224   7.053   1.775   4.263  0.1564 -0.0035  0.2939
    3TYR     BB  225   7.745   1.618   4.259 -0.0463  0.1757  0.1080
    3TYR    SC1  226   7.813   1.809   4.034 -0.1835  0.0472 -0.1711
    3TYR    SC2  227   7.935   2.045   3.984 -0.0619  0.0502  0.1116
    3TYR    SC3  228   7.918   1.857   3.790  0.0893  0.1817 -0.0329
    1TYR     BB  229   6.502   4.734   2.083 -0.0880  0.0814 -0.2606
    1TYR    SC1  230   6.618   4.689   2.366 -0.2807  0.0195 -0.0119
    1TYR    SC2  231   6.857   4.740   2.481 -0.2477  0.0292 -0.0841
    1TYR    SC3  232   6.636   4.714   2.634 -0.1777 -0.1131 -0.0053
    2TYR     BB  233   6.815   4.745   1.918  0.1488 -0.0277  0.0486
    2TYR    SC1  234   7.061   4.644   2.092  0.0189  0.2125  0.0256
    2TYR    SC2  235   7.022   4.401   2.203 -0.3858  0.1453 -0.2346
    2TYR    SC3  236   7.272   4.500   2.177 -0.2265 -0.1654  0.0250
    3TYR     BB  237   6.883   5.096   1.945  0.1179  0.3399  0.1000
    3TYR    SC1  238   6.777   5.101   2.250 -0.0673 -0.2241 -0.0012
    3TYR    SC2  239   6.598   5.193   2.428 -0.3038  0.0431 -0.3600
    3TYR    SC3  240   6.859   5.177   2.496 -0.4286 -0.2076  0.1203
    1TYR     BB  241   1.591   7.087   4.038  0.3211  0.1224  0.0502
    1TYR    SC1  242   1.378   6.988   3.812 -0.1352  0.2486 -0.1051
    1TYR    SC2  243   1.227   7.081   3.609 -0.1167 -0.1704 -0.3245
    1TYR    SC3  244   1.289   6.818   3.621  0.0202 -0.1270  0.1409
    2TYR     BB  245   1.680   6.905   4.274 -0.0223 -0.0627  0.0289
    2TYR    SC1  246   1.611   7.058   4.544  0.0685 -0.0493  0.1526
    2TYR    SC2  247   1.509   7.192   4.755  0.3392  0.1288  0.1771
    2TYR    SC3  248   1.775   7.194   4.710  0.3117 -0.1180 -0.0243
    3TYR     BB  249   1.721   6.606   4.300 -0.1495 -0.1326  0.2848
    3TYR    SC1  250   1.532   6.390   4.274 -0.1879 -0.2435  0.1959
    3TYR    SC2  251   1.441   6.139   4.315 -0.0808 -0.2997  0.0987
    3TYR    SC3  252   1.509   6.219   4.066 -0.1165 -0.1728  0.1286
    1TYR     BB  253   7.143   1.116   3.067  0.1955  0.1477 -0.1134
    1TYR    SC1  254   7.076   0.876   2.893  0.0151  0.0749 -0.1982
    1TYR    SC2  255   6.846   0.775   2.794 -0.1368  0.2013  0.0152
    1TYR    SC3  256   7.076   0.745   2.657 -0.3136  0.2567 -0.3073
    2TYR     BB  257   7.093   1.399   2.863  0.0359 -0.5019 -0.0370
    2TYR    SC1  258   7.312   1.581   2.936  0.1787 -0.2646  0.1094
    2TYR    SC2  259   7.393   1.727   3.148 -0.2081 -0.0015  0.0887
    2TYR    SC3  260   7.485   1.785   2.901 -0.1624  0.0361  0.1144
    3TYR     BB  261   6.885   1.608   2.720  0.0646 -0.1178 -0.3875
    3TYR    SC1  262   7.002   1.894   2.817  0.3585  0.0727 -0.0385
    3TYR    SC2  263   7.120   2.102   2.941  0.0872  0.2004  0.0127
    3TYR    SC3  264   6.856   2.111   2.883  0.1185 -0.0389 -0.1844
    1TYR     BB  265   5.272   1.555   3.441  0.0738 -0.0173  0.3535
    1TYR    SC1  266   5.030   1.511   3.250  0.0111 -0.2364  0.2141
    1TYR    SC2  267   5.088   1.392   3.015 -0.0044  0.0851  0.0396
    1TYR    SC3  268   4.865   1.541   3.039 -0.0413 -0.0038  0.2848
    2TYR     BB  269   5.347   1.810   3.537  0.3392  0.1865  0.1070
    2TYR    SC1  270   5.226   2.055   3.695 -0.0323 -0.1331  0.1293
    2TYR    SC2  271   5.110   2.293   3.643 -0.1897 -0.1728  0.2854
    2TYR    SC3  272   5.346   2.283   3.774  0.2523 -0.0664 -0.4328
    3TYR     BB  273   5.636   1.934   3.361 -0.1303 -0.0033 -0.2322
    3TYR    SC1  274   5.470   2.221   3.346 -0.1048  0.0710  0.0351
    3TYR    SC2  275   5.535   2.480   3.384 -0.1205  0.0672  0.0894
    3TYR    SC3  276   5.371   2.410   3.181 -0.0420  0.0890  0.0177
    1TYR     BB  277   3.248   6.435   4.778 -0.2368 -0.0732  0.1630
    1TYR    SC1  278   3.481   6.363   4.663 -0.0584 -0.0514 -0.1775
    1TYR    SC2  279   3.665   6.452   4.486  0.1581  0.0095  0.0690
    1TYR    SC3  280   3.740   6.289   4.688 -0.0876 -0.0743  0.0978
    2TYR     BB  281   3.189   6.669   4.964  0.0987  0.0746  0.0900
    2TYR    SC1  282   3.399   6.674   5.171  0.1749  0.4211  0.0543
    2TYR    SC2  283   3.549   6.806   5.354  0.6448  0.1551 -0.1179
    2TYR    SC3  284   3.622   6.559   5.271  0.1512  0.0508 -0.2882
    3TYR     BB  285   2.923   6.790   5.181  0.2868  0.0381  0.1223
    3TYR    SC1  286   3.098   6.982   5.408 -0.1296  0.0535  0.3631
    3TYR    SC2  287   3.261   7.090   5.595  0.3431 -0.0122  0.0132
    3TYR    SC3  288   3.158   7.245   5.399  0.3498 -0.0506 -0.0208
    1TYR     BB  289   6.874   4.873   1.382  0.0166  0.0180  0.0194
    1TYR    SC1  290   7.022   4.601   1.352 -0.2608 -0.1995 -0.0459
    1TYR    SC2  291   6.916   4.396   1.212 -0.3480 -0.0831 -0.1536
    1TYR    SC3  292   7.183   4.411   1.247 -0.3531 -0.3169  0.0213
    2TYR     BB  293   6.526   4.874   1.303 -0.2877 -0.2256 -0.0608
    2TYR    SC1  294   6.403   4.961   1.552 -0.1500 -0.3931 -0.1490
    2TYR    SC2  295   6.175   4.983   1.694  0.0358 -0.1101  0.1229
    2TYR    SC3  296   6.392   5.126   1.765  0.2231 -0.1723 -0.2883
    3TYR     BB  297   6.453   4.700   1.085  0.0143 -0.4089 -0.1340
    3TYR    SC1  298   6.535   4.452   0.992 -0.1944  0.0280 -0.0051
    3TYR    SC2  299   6.530   4.185   1.029 -0.0888  0.0352  0.0635
    3TYR    SC3  300   6.514   4.286   0.780  0.0886 -0.0431  0.0185
    1TYR     BB  301   4.845   1.224   3.797  0.3214  0.0198  0.2678
    1TYR    SC1  302   4.987   1.137   3.571 -0.0946 -0.0351 -0.1024
    1TYR    SC2  303   5.246   1.097   3.504 -0.0760  0.0825 -0.1026
    1TYR    SC3  304   5.051   1.054   3.322 -0.0761 -0.2299 -0.0351
    2TYR     BB  305   4.892   1.043   4.050  0.0410 -0.0055 -0.1182
    2TYR    SC1  306   5.208   1.003   3.981 -0.3013 -0.2446 -0.2786
    2TYR    SC2  307   5.453   1.093   3.911 -0.2022 -0.3039 -0.0219
    2TYR    SC3  308   5.390   0.832   3.879 -0.2839 -0.2623 -0.2184
    3TYR     BB  309   4.598   0.968   4.213 -0.0878 -0.2082 -0.2385
    3TYR    SC1  310   4.545   0.695   4.316 -0.3182  0.0006  0.1315
    3TYR    SC2  311   4.642   0.464   4.215 -0.2554  0.1459 -0.1533
    3TYR    SC3  312   4.571   0.478   4.475  0.0670 -0.0934 -0.0431
    1TYR     BB  313   6.166   4.364   2.363 -0.0559  0.1404  0.2338
    1TYR    SC1  314   6.098   4.033   2.363  0.2072  0.1187 -0.1341
    1TYR    SC2  315   6.019   3.782   2.424  0.1646  0.2261  0.2937
    1TYR    SC3  316   5.835   3.971   2.366  0.2034  0.1310 -0.1916
    2TYR     BB  317   6.142   4.426   2.678  0.1209  0.2008  0.2508
    2TYR    SC1  318   6.093   4.719   2.673 -0.2314  0.1132 -0.4131
    2TYR    SC2  319   6.029   4.954   2.789  0.0484 -0.0126  0.0266
    2TYR    SC3  320   6.246   4.937   2.630 -0.0439  0.0493 -0.1084
    3TYR     BB  321   6.046   4.167   2.819  0.0638 -0.2025 -0.0493
    3TYR    SC1  322   6.217   3.972   2.921 -0.0681  0.1062 -0.0694
    3TYR    SC2  323   6.372   3.756   2.870 -0.1284  0.0608 -0.0612
    3TYR    SC3  324   6.389   3.880   3.109 -0.1872 -0.0145 -0.0172
    1TYR     BB  325   3.594   1.840   3.848 -0.0220 -0.0319 -0.1875
    1TYR    SC1  326   3.284   1.808   3.778  0.1265  0.2583 -0.1963
    1TYR    SC2  327   3.077   1.964   3.703 -0.0437  0.0631 -0.1419
    1TYR    SC3  328   3.097   1.711   3.609 -0.0982 -0.0855  0.2233
    2TYR     BB  329   3.695   1.756   3.522  0.0001 -0.1682 -0.2673
    2TYR    SC1  330   3.800   1.959   3.323 -0.3945  0.2606 -0.1276
    2TYR    SC2  331   3.976   2.163   3.305  0.1206 -0.1489 -0.0113
    2TYR    SC3  332   3.838   2.085   3.087  0.4774 -0.1431 -0.2507
    3TYR     BB  333   3.866   1.437   3.532  0.1767  0.1321  0.0008
    3TYR    SC1  334   3.595   1.266   3.608  0.2312 -0.1646  0.0787
    3TYR    SC2  335   3.432   1.136   3.780  0.0528  0.1381  0.1487
    3TYR    SC3  336   3.346   1.360   3.655  0.2551  0.0434 -0.1779
    1TYR     BB  337   7.001   2.276   4.345 -0.0698 -0.0832  0.0196
    1TYR    SC1  338   6.897   2.538   4.451  0.2200 -0.0106  0.1618
    1TYR    SC2  339   6.863   2.804   4.414  0.1997 -0.0376 -0.0246
    1TYR    SC3  340   6.727   2.676   4.610  0.1180  0.0673 -0.0119
    2TYR     BB  341   7.241   2.315   4.155  0.3350 -0.0789 -0.2889
    2TYR    SC1  342   7.325   2.585   4.204  0.3296 -0.2060  0.1671
    2TYR    SC2  343   7.346   2.751   4.416 -0.0500 -0.2264  0.2279
    2TYR    SC3  344   7.301   2.851   4.169 -0.2641 -0.2307  0.2623
    3TYR     BB  345   7.457   2.106   4.102 -0.3577 -0.3584 -0.0751
    3TYR    SC1  346   7.693   2.279   4.265  0.0211  0.2714 -0.0270
    3TYR    SC2  347   7.821   2.517   4.252  0.1916  0.2005  0.2585
    3TYR    SC3  348   7.698   2.441   4.481  0.0278  0.0674  0.1298
    1TYR     BB  349   0.033   1.149   4.459  0.2389 -0.2185  0.1195
    1TYR    SC1  350   0.160   0.933   4.538  0.0419  0.0503  0.1135
    1TYR    SC2  351   0.343   0.733   4.538 -0.1046 -0.0911 -0.1636
    1TYR    SC3  352   0.288   0.867   4.766 -0.0340 -0.3959  0.0385
    2TYR     BB  353  -0.111   1.339   4.655 -0.0852  0.0714 -0.1026
    2TYR    SC1  354  -0.257   1.606   4.663 -0.3200 -0.1494  0.2791
    2TYR    SC2  355  -0.287   1.833   4.520 -0.0644 -0.2691  0.0206
    2TYR    SC3  356  -0.459   1.775   4.720 -0.2189  0.0777 -0.0025
    3TYR     BB  357  -0.265   1.174   4.875  0.0771 -0.1931 -0.0650
    3TYR    SC1  358  -0.568   1.350   4.938  0.0556 -0.0317 -0.1590
    3TYR    SC2  359  -0.651   1.325   5.194  0.2197  0.0637 -0.0943
    3TYR    SC3  360  -0.821   1.416   5.005  0.0604 -0.1234 -0.0455
    1TYR     BB  361   0.089   2.208   2.786 -0.1152  0.0168 -0.1995
    1TYR    SC1  362   0.354   2.191   2.837  0.0320 -0.1423 -0.2562
    1TYR    SC2  363   0.571   2.302   2.722  0.1479  0.1315  0.1951
    1TYR    SC3  364   0.600   2.132   2.929 -0.0650  0.4090  0.4630
    2TYR     BB  365   0.009   2.584   2.683  0.1319  0.0776 -0.1958
    2TYR    SC1  366   0.296   2.672   2.619 -0.2443  0.2225 -0.1119
    2TYR    SC2  367   0.511   2.827   2.670  0.0197 -0.1714  0.0312
    2TYR    SC3  368   0.513   2.659   2.459 -0.0824 -0.2915  0.1241
    3TYR     BB  369  -0.166   2.653   2.486  0.1494 -0.0957  0.1125
    3TYR    SC1  370  -0.025   2.620   2.183  0.1482 -0.2006  0.0698
    3TYR    SC2  371   0.078   2.603   1.934  0.0752 -0.2254  0.0409
    3TYR    SC3  372  -0.096   2.416   2.021 -0.1683 -0.0314 -0.0146
    1TYR     BB  373   1.176   0.314   3.169  0.3991 -0.1602  0.0567
    1TYR    SC1  374   1.020   0.582   3.219  0.1088  0.1066 -0.1506
    1TYR    SC2  375   0.755   0.630   3.213  0.0021 -0.4245 -0.4481
    1TYR    SC3  376   0.928   0.836   3.224 -0.4114 -0.0683  0.0016
    2TYR     BB  377   1.309   0.284   3.495 -0.0088 -0.1143  0.0486
    2TYR    SC1  378   1.524   0.508   3.415  0.1435  0.3987  0.0101
    2TYR    SC2  379   1.725   0.473   3.238  0.0513  0.0180 -0.0292
    2TYR    SC3  380   1.730   0.683   3.407  0.5302 -0.0300  0.0343
    3TYR     BB  381   1.358   0.166   3.755 -0.0504  0.0193  0.1712
    3TYR    SC1  382   1.551  -0.069   3.765  0.2350 -0.3006 -0.2162
    3TYR    SC2  383   1.601  -0.290   3.617  0.3750 -0.2095 -0.3080
    3TYR    SC3  384   1.772  -0.217   3.813  0.1996 -0.3195 -0.1089
    1TYR     BB  385   1.534   5.915   3.695  0.2930  0.1356  0.0076
    1TYR    SC1  386   1.216   5.883   3.638  0.1200 -0.2329  0.1330
    1TYR    SC2  387   1.027   5.787   3.471  0.1363 -0.0219 -0.0117
    1TYR    SC3  388   0.973   5.815   3.734 -0.1280  0.2716 -0.0896
    2TYR     BB  389   1.671   6.139   3.546  0.1074  0.0364  0.4849
    2TYR    SC1  390   1.623   6.407   3.651  0.1945 -0.0574  0.2316
    2TYR    SC2  391   1.680   6.654   3.558 -0.1771 -0.0354  0.0379
    2TYR    SC3  392   1.667   6.610   3.824  0.3793  0.0268  0.0904
    3TYR     BB  393   1.769   6.163   3.262  0.1176 -0.0552 -0.0216
    3TYR    SC1  394   1.603   6.158   3.013  0.2143  0.0799 -0.0315
    3TYR    SC2  395   1.496   5.995   2.827 -0.1622  0.1525  0.1115
    3TYR    SC3  396   1.438   6.259   2.824 -0.1169  0.1656  0.2893
    1TYR     BB  397   5.027   3.486   0.740 -0.1166  0.0831 -0.1254
    1TYR    SC1  398   5.198   3.279   0.660  0.0063  0.1510  0.2175
    1TYR    SC2  399   5.129   3.068   0.507 -0.2645  0.3377  0.0722
    1TYR    SC3  400   5.364   3.066   0.641 -0.0947  0.0999 -0.2118
    2TYR     BB  401   5.167   3.610   1.029 -0.0650  0.1508  0.0063
    2TYR    SC1  402   5.457   3.463   1.034 -0.2189 -0.0532  0.1519
    2TYR    SC2  403   5.710   3.446   0.940 -0.2848  0.2788 -0.1111
    2TYR    SC3  404   5.597   3.234   1.063 -0.0070  0.0013 -0.3134
    3TYR     BB  405   5.205   3.884   1.110  0.1849  0.3159 -0.0551
    3TYR    SC1  406   5.168   3.986   1.399  0.2332 -0.0205 -0.0727
    3TYR    SC2  407   5.245   4.183   1.567  0.0082  0.1306 -0.1398
    3TYR    SC3  408   5.014   4.051   1.611  0.2459 -0.2577  0.0128
    1TYR     BB  409   1.584   0.274   4.185 -0.0129 -0.1521 -0.0091
    1TYR    SC1  410   1.521   0.038   4.314  0.0208  0.0069 -0.1681
    1TYR    SC2  411   1.681  -0.173   4.369 -0.1092 -0.0674 -0.0669
    1TYR    SC3  412   1.413  -0.200   4.379 -0.1288  0.1711  0.2193
    2TYR     BB  413   1.933   0.183   4.079  0.2025  0.2294 -0.0220
    2TYR    SC1  414   1.939   0.221   3.812 -0.0741 -0.1999  0.2512
    2TYR    SC2  415   2.046   0.398   3.639 -0.0772  0.0610  0.5062
    2TYR    SC3  416   1.901   0.190   3.547  0.2678 -0.0472  0.1773
    3TYR     BB  417   2.229   0.260   4.185  0.0416  0.0394  0.0317
    3TYR    SC1  418   2.275   0.014   4.384  0.2636 -0.2895 -0.2101
    3TYR    SC2  419   2.167  -0.187   4.529  0.0207  0.1416  0.2424
    3TYR    SC3  420   2.372  -0.043   4.629  0.2787  0.0521 -0.1310
    1TYR     BB  421   3.303   6.944   4.561  0.2992 -0.2877  0.2157
    1TYR    SC1  422   3.579   6.914   4.675  0.3066  0.2073 -0.0091
    1TYR    SC2  423   3.724   6.749   4.833  0.4079  0.1866 -0.1216
    1TYR    SC3  424   3.845   6.887   4.634  0.2810  0.2071 -0.1858
    2TYR     BB  425   3.243   6.800   4.283  0.2485  0.0680  0.0967
    2TYR    SC1  426   3.556   6.815   4.169 -0.0078  0.2019 -0.0427
    2TYR    SC2  427   3.738   6.889   3.984 -0.0996 -0.1441 -0.2829
    2TYR    SC3  428   3.818   6.767   4.211 -0.0168 -0.1156 -0.2965
    3TYR     BB  429   3.192   6.506   4.290  0.2464 -0.0743 -0.0020
    3TYR    SC1  430   3.065   6.400   4.056 -0.6491 -0.4294  0.4637
    3TYR    SC2  431   2.915   6.436   3.835 -0.1051  0.1522  0.1513
    3TYR    SC3  432   3.043   6.202   3.874 -0.3012 -0.0007 -0.0850
    1TYR     BB  433   1.756   1.142   4.854 -0.1802 -0.0678 -0.0950
    1TYR    SC1  434   1.586   1.146   4.659  0.1666 -0.0950 -0.4524
    1TYR    SC2  435   1.494   1.235   4.421 -0.2750  0.2393 -0.1754
    1TYR    SC3  436   1.321   1.141   4.606  0.0651 -0.0617  0.0048
    2TYR     BB  437   1.811   0.974   5.087  0.2512  0.3772 -0.1515
    2TYR    SC1  438   1.754   0.670   5.060 -0.1321 -0.0552 -0.2241
    2TYR    SC2  439   1.532   0.540   5.141 -0.2777  0.2250 -0.1570
    2TYR    SC3  440   1.760   0.403   5.097 -0.4003 -0.0365 -0.0071
    3TYR     BB  441   1.664   1.023   5.367  0.1851  0.1853 -0.0926
    3TYR    SC1  442   1.471   0.842   5.464  0.0794  0.1486  0.1341
    3TYR    SC2  443   1.273   0.712   5.594  0.0395  0.3549  0.2865
    3TYR    SC3  444   1.529   0.631   5.623 -0.0393 -0.1279 -0.1759
    1TYR     BB  445   4.092   1.658   4.639 -0.0386 -0.1589 -0.2760
    1TYR    SC1  446   3.951   1.925   4.767  0.1379 -0.3465  0.0538
    1TYR    SC2  447   3.724   2.034   4.864  0.2511  0.0348 -0.0875
    1TYR    SC3  448   3.951   2.046   5.009  0.2795  0.0459 -0.1329
    2TYR     BB  449   4.381   1.801   4.628  0.0155  0.1639 -0.0282
    2TYR    SC1  450   4.560   1.596   4.452 -0.0088 -0.2807  0.1990
    2TYR    SC2  451   4.648   1.480   4.225  0.2002  0.0088  0.1243
    2TYR    SC3  452   4.762   1.416   4.461  0.1698 -0.0899  0.1129
    3TYR     BB  453   4.491   2.014   4.761 -0.1580  0.0039 -0.1280
    3TYR    SC1  454   4.320   2.299   4.767 -0.0138  0.3075  0.3202
    3TYR    SC2  455   4.271   2.549   4.856 -0.1180  0.3741  0.0852
    3TYR    SC3  456   4.105   2.435   4.677 -0.0490  0.1502  0.1602
    1TYR     BB  457   2.367   1.802   4.223  0.3031 -0.2346  0.0192
    1TYR    SC1  458   2.130   2.024   4.315  0.1759  0.1721 -0.1527
    1TYR    SC2  459   1.933   2.199   4.254 -0.0372  0.0639  0.1911
    1TYR    SC3  460   2.123   2.266   4.434  0.1031  0.0779  0.0405
    2TYR     BB  461   2.260   1.528   4.075  0.0175 -0.1850  0.2378
    2TYR    SC1  462   2.094   1.294   4.153 -0.1789  0.0879 -0.1947
    2TYR    SC2  463   1.898   1.111   4.180  0.1451 -0.2291  0.1522
    2TYR    SC3  464   1.985   1.249   4.395  0.1467  0.0827 -0.0414
    3TYR     BB  465   2.164   1.597   3.758  0.0770 -0.1220 -0.0097
    3TYR    SC1  466   2.459   1.688   3.611  0.0109 -0.0944 -0.2488
    3TYR    SC2  467   2.685   1.542   3.584  0.1229  0.0957 -0.3659
    3TYR    SC3  468   2.690   1.808   3.539 -0.0487  0.1625 -0.0295
    1TYR     BB  469   2.473   5.335   2.695  0.1091 -0.1148 -0.0733
    1TYR    SC1  470   2.391   5.475   2.431 -0.2113 -0.0976 -0.2327
    1TYR    SC2  471   2.354   5.721   2.326  0.1450  0.0321 -0.0726
    1TYR    SC3  472   2.349   5.504   2.166  0.1239  0.1718 -0.2654
    2TYR     BB  473   2.488   5.334   3.018 -0.2080 -0.0211  0.1019
    2TYR    SC1  474   2.628   5.052   3.052  0.3414  0.1724  0.2033
    2TYR    SC2  475   2.856   4.972   2.932  0.2165 -0.0948  0.1340
    2TYR    SC3  476   2.796   4.883   3.179  0.0881 -0.1975  0.0671
    3TYR     BB  477   2.321   5.485   3.271  0.2294 -0.1109  0.1133
    3TYR    SC1  478   2.302   5.718   3.427  0.2653 -0.0888 -0.0418
    3TYR    SC2  479   2.350   5.867   3.646  0.0328 -0.1738  0.0717
    3TYR    SC3  480   2.119   5.898   3.510  0.1037 -0.2379 -0.0662
    1TYR     BB  481   5.737   1.367   4.228  0.4027  0.1073  0.0479
    1TYR    SC1  482   5.444   1.391   4.347  0.0442  0.0644  0.3841
    1TYR    SC2  483   5.195   1.291   4.381 -0.0071 -0.0361 -0.1618
    1TYR    SC3  484   5.242   1.554   4.421 -0.1550 -0.0458  0.1057
    2TYR     BB  485   5.767   1.042   4.318 -0.3384  0.1172 -0.0774
    2TYR    SC1  486   5.526   0.985   4.491  0.0864  0.2424  0.1130
    2TYR    SC2  487   5.301   0.915   4.624  0.1567  0.5086  0.3857
    2TYR    SC3  488   5.460   1.112   4.720  0.2756  0.6329 -0.0366
    3TYR     BB  489   5.900   0.803   4.095  0.0769  0.0821  0.0527
    3TYR    SC1  490   6.144   0.694   4.203  0.1722  0.0452 -0.0388
    3TYR    SC2  491   6.410   0.709   4.244  0.1562  0.1547  0.0317
    3TYR    SC3  492   6.287   0.468   4.239  0.2396  0.1097  0.1062
    1TYR     BB  493   2.408   0.786   3.487  0.1163 -0.3787 -0.0745
    1TYR    SC1  494   2.555   0.662   3.261 -0.2867  0.1095  0.0903
    1TYR    SC2  495   2.605   0.529   3.032 -0.1671 -0.1719  0.2736
    1TYR    SC3  496   2.705   0.777   3.068  0.1108 -0.2634  0.1608
    2TYR     BB  497   2.555   0.988   3.594 -0.1083  0.3802 -0.1152
    2TYR    SC1  498   2.858   1.035   3.505  0.1425  0.0760  0.2511
    2TYR    SC2  499   2.999   1.206   3.351 -0.0117 -0.0488 -0.0373
    2TYR    SC3  500   3.113   0.977   3.436 -0.0173 -0.1211 -0.2192
    3TYR     BB  501   2.530   1.178   3.889  0.0624  0.0411  0.3371
    3TYR    SC1  502   2.447   0.950   4.065  0.4344 -0.1721  0.0351
    3TYR    SC2  503   2.322   0.710   4.064 -0.0386  0.0598 -0.0768
    3TYR    SC3  504   2.283   0.882   4.269  0.1598  0.1124 -0.0804
    1TYR     BB  505   3.407   6.089   5.108  0.1006 -0.0833 -0.1175
    1TYR    SC1  506   3.368   5.920   4.888 -0.1106 -0.1746 -0.0114
    1TYR    SC2  507   3.469   5.801   4.667 -0.0562 -0.2596  0.0582
    1TYR    SC3  508   3.265   5.685   4.801  0.1392 -0.3907  0.2503
    2TYR     BB  509   3.091   6.299   5.231 -0.2313 -0.0822  0.1595
    2TYR    SC1  510   2.900   6.226   5.015 -0.1165 -0.0191  0.2036
    2TYR    SC2  511   2.667   6.179   4.887 -0.2319  0.1910  0.3284
    2TYR    SC3  512   2.830   5.973   4.949 -0.2096  0.0745 -0.0757
    3TYR     BB  513   3.104   6.348   5.459  0.2035 -0.1424 -0.0322
    3TYR    SC1  514   3.067   6.249   5.761  0.2161 -0.0345 -0.0052
    3TYR    SC2  515   3.043   6.098   5.983  0.1731 -0.2005 -0.1199
    3TYR    SC3  516   2.823   6.202   5.866  0.2091  0.0223  0.0039
    1TYR     BB  517   2.319   6.044   3.038  0.0083  0.0827 -0.0305
    1TYR    SC1  518   2.538   6.268   3.066  0.6732 -0.1692 -0.0478
    1TYR    SC2  519   2.613   6.518   3.000 -0.0448  0.0692 -0.0742
    1TYR    SC3  520   2.711   6.402   3.223  0.1534  0.4503  0.0484
    2TYR     BB  521   2.376   5.838   2.849 -0.0111  0.2407  0.1204
    2TYR    SC1  522   2.116   5.852   2.666 -0.0571  0.0504 -0.2143
    2TYR    SC2  523   1.883   5.795   2.542 -0.1336 -0.1221  0.0005
    2TYR    SC3  524   1.932   6.046   2.628 -0.2899 -0.1081  0.0527
    3TYR     BB  525   2.680   5.753   2.797 -0.3183  0.1962  0.0090
    3TYR    SC1  526   2.872   5.981   2.868 -0.3730  0.4087 -0.2341
    3TYR    SC2  527   3.024   6.113   3.048 -0.0108 -0.1892 -0.0659
    3TYR    SC3  528   3.053   6.162   2.784 -0.1622  0.3123 -0.0025
    1TYR     BB  529   7.030   3.069   3.168 -0.0233 -0.1666  0.1006
    1TYR    SC1  530   7.016   2.800   3.235  0.2883 -0.2122 -0.4109
    1TYR    SC2  531   6.964   2.541   3.175  0.0012 -0.2432 -0.0653
    1TYR    SC3  532   6.958   2.625   3.432 -0.0897  0.1458 -0.1849
    2TYR     BB  533   7.240   3.135   2.885 -0.1473  0.2117 -0.1338
    2TYR    SC1  534   7.570   3.033   2.893 -0.0345 -0.2866 -0.0310
    2TYR    SC2  535   7.834   3.016   2.948 -0.0236 -0.0706 -0.0077
    2TYR    SC3  536   7.750   3.146   2.727 -0.1177  0.0109  0.0748
    3TYR     BB  537   7.148   3.202   2.671 -0.2372 -0.0764  0.3917
    3TYR    SC1  538   7.321   3.476   2.597  0.1131  0.2499 -0.0887
    3TYR    SC2  539   7.581   3.541   2.630  0.1742  0.0767 -0.2065
    3TYR    SC3  540   7.426   3.683   2.460  0.2385  0.0725 -0.2693
    1TYR     BB  541   6.869   0.638   4.392  0.0905 -0.1365  0.1118
    1TYR    SC1  542   7.080   0.450   4.368 -0.1009 -0.0183 -0.0662
    1TYR    SC2  543   7.214   0.216   4.380  0.1917  0.1484  0.0917
    1TYR    SC3  544   7.247   0.380   4.168  0.1818  0.1586  0.0980
    2TYR     BB  545   6.858   0.811   4.623  0.3198 -0.1724 -0.1252
    2TYR    SC1  546   7.075   0.839   4.817  0.1692  0.1048 -0.1078
    2TYR    SC2  547   7.045   0.906   5.077 -0.1913 -0.0237 -0.1084
    2TYR    SC3  548   7.201   0.696   5.009  0.1325  0.1798 -0.0269
    3TYR     BB  549   6.604   1.048   4.651 -0.1108 -0.0833  0.2785
    3TYR    SC1  550   6.751   1.296   4.598 -0.0122 -0.1047  0.3594
    3TYR    SC2  551   6.789   1.562   4.569  0.0831 -0.1060  0.4661
    3TYR    SC3  552   6.994   1.390   4.529 -0.1294 -0.2282 -0.3133
    1TYR     BB  553   6.652   3.276   2.714 -0.0698  0.0416  0.0018
    1TYR    SC1  554   6.553   3.050   2.912 -0.1061 -0.0676  0.1311
    1TYR    SC2  555   6.514   2.904   3.135 -0.1164  0.1227  0.2570
    1TYR    SC3  556   6.317   2.925   2.951 -0.0577 -0.1523  0.1562
    2TYR     BB  557   6.374   3.329   2.507 -0.3029 -0.0613 -0.3375
    2TYR    SC1  558   6.492   3.531   2.292 -0.3867 -0.1709 -0.3017
    2TYR    SC2  559   6.386   3.758   2.193 -0.1505 -0.1403 -0.4967
    2TYR    SC3  560   6.596   3.643   2.069  0.2186 -0.0557  0.0123
    3TYR     BB  561   6.121   3.331   2.629  0.1020  0.0150  0.0355
    3TYR    SC1  562   5.996   3.261   2.881 -0.1360 -0.0182  0.0416
    3TYR    SC2  563   5.732   3.258   2.933 -0.1155  0.1540  0.1646
    3TYR    SC3  564   5.908   3.303   3.132 -0.0050  0.2500  0.0466
    1TYR     BB  565   0.410   1.421   3.555 -0.2206  0.0019 -0.2603
    1TYR    SC1  566   0.112   1.344   3.412  0.0207 -0.0992  0.2039
    1TYR    SC2  567  -0.083   1.340   3.226  0.2359 -0.0699 -0.0304
    1TYR    SC3  568  -0.027   1.117   3.367 -0.1441 -0.0068  0.2400
    2TYR     BB  569   0.656   1.205   3.417  0.1738  0.2323  0.0925
    2TYR    SC1  570   0.459   1.035   3.230  0.3028  0.0222 -0.1627
    2TYR    SC2  571   0.364   0.991   2.981 -0.0534  0.0610 -0.0415
    2TYR    SC3  572   0.281   0.836   3.186  0.3143 -0.0367  0.0425
    3TYR     BB  573   0.991   1.286   3.347  0.2494 -0.0311  0.0636
    3TYR    SC1  574   1.028   1.520   3.593 -0.1352 -0.0167  0.1303
    3TYR    SC2  575   1.167   1.600   3.810  0.1537 -0.0514 -0.0359
    3TYR    SC3  576   1.032   1.781   3.662 -0.0013 -0.0202  0.1393
    1TYR     BB  577   5.956   0.312   4.649  0.2481 -0.0611  0.0033
    1TYR    SC1  578   6.015   0.356   4.923 -0.0584 -0.0541 -0.1188
    1TYR    SC2  579   5.948   0.211   5.141  0.1978 -0.0884 -0.0593
    1TYR    SC3  580   6.159   0.380   5.150  0.1137  0.0297 -0.2341
    2TYR     BB  581   5.752   0.558   4.553 -0.1698 -0.4433 -0.0679
    2TYR    SC1  582   5.574   0.580   4.826 -0.1382 -0.0021 -0.1437
    2TYR    SC2  583   5.372   0.657   4.987 -0.2764 -0.1859 -0.2244
    2TYR    SC3  584   5.556   0.481   5.076 -0.1949 -0.0785 -0.1775
    3TYR     BB  585   5.571   0.457   4.351 -0.0204 -0.2605 -0.1854
    3TYR    SC1  586   5.292   0.516   4.307 -0.0994  0.0431  0.1305
    3TYR    SC2  587   5.065   0.662   4.296 -0.0562  0.0970 -0.1257
    3TYR    SC3  588   5.138   0.510   4.085  0.0369 -0.0903  0.0372
    1TYR     BB  589   4.245   1.720   3.400  0.0170 -0.1233 -0.1101
    1TYR    SC1  590   4.198   1.901   3.703  0.1556  0.2860 -0.1509
    1TYR    SC2  591   4.020   2.072   3.812 -0.0802 -0.2307  0.3346
    1TYR    SC3  592   4.285   2.108   3.854 -0.0895  0.2226  0.0857
    2TYR     BB  593   4.510   1.578   3.412 -0.0877 -0.3142 -0.1295
    2TYR    SC1  594   4.695   1.706   3.629  0.1677  0.0479  0.1604
    2TYR    SC2  595   4.818   1.923   3.732  0.3082 -0.0224  0.1438
    2TYR    SC3  596   4.641   1.784   3.882 -0.0084  0.2715  0.0584
    3TYR     BB  597   4.562   1.315   3.367 -0.0844 -0.0479 -0.1090
    3TYR    SC1  598   4.243   1.180   3.305 -0.1636  0.1823  0.0007
    3TYR    SC2  599   4.115   1.037   3.115 -0.0346 -0.0266  0.0665
    3TYR    SC3  600   4.066   0.990   3.377  0.3837 -0.3280  0.1034
    1TYR     BB  601   1.910   5.718   3.086 -0.0382  0.4461 -0.2244
    1TYR    SC1  602   1.979   5.497   2.884 -0.5811 -0.2789  0.0575
    1TYR    SC2  603   1.976   5.378   2.642  0.2670 -0.1822 -0.0391
    1TYR    SC3  604   1.978   5.228   2.867  0.0278 -0.2894 -0.1047
    2TYR     BB  605   1.734   5.640   3.311 -0.1818  0.0301 -0.1633
    2TYR    SC1  606   1.871   5.471   3.530 -0.1386 -0.0499 -0.0531
    2TYR    SC2  607   2.099   5.447   3.672 -0.0355  0.1176 -0.1844
    2TYR    SC3  608   1.915   5.249   3.678 -0.0363  0.1204  0.1791
    3TYR     BB  609   1.456   5.750   3.212  0.2997  0.0088 -0.2186
    3TYR    SC1  610   1.437   5.575   2.950 -0.1219  0.0651  0.0421
    3TYR    SC2  611   1.530   5.435   2.739  0.2317 -0.1837  0.3476
    3TYR    SC3  612   1.308   5.352   2.868 -0.0269  0.0083  0.0457
    1TYR     BB  613   2.861   5.669   4.465 -0.1337  0.0296  0.0954
    1TYR    SC1  614   2.599   5.800   4.531  0.0403 -0.2425 -0.0561
    1TYR    SC2  615   2.411   5.992   4.560  0.3155  0.0091  0.1464
    1TYR    SC3  616   2.372   5.748   4.669 -0.3852 -0.3480 -0.7370
    2TYR     BB  617   3.051   6.054   4.423 -0.1780  0.1396  0.0463
    2TYR    SC1  618   3.300   5.994   4.263 -0.1004 -0.3320 -0.0454
    2TYR    SC2  619   3.553   6.084   4.241 -0.1433 -0.1683  0.1031
    2TYR    SC3  620   3.484   5.847   4.131  0.1131 -0.2935  0.2001
    3TYR     BB  621   2.814   6.212   4.409  0.0746 -0.1855  0.1794
    3TYR    SC1  622   2.642   6.187   4.134 -0.1367 -0.1757  0.2826
    3TYR    SC2  623   2.516   6.173   3.896 -0.1657  0.3475  0.2530
    3TYR    SC3  624   2.399   6.071   4.117 -0.3808  0.3232  0.1315
    1TYR     BB  625   1.769   0.861   2.746  0.0745  0.1662  0.1964
    1TYR    SC1  626   1.628   0.591   2.673  0.1393 -0.1996 -0.2309
    1TYR    SC2  627   1.554   0.387   2.834  0.0518 -0.0107 -0.0255
    1TYR    SC3  628   1.500   0.377   2.570 -0.1016 -0.1786  0.0098
    2TYR     BB  629   2.024   0.679   2.916  0.2357  0.1328 -0.0579
    2TYR    SC1  630   2.002   0.412   2.836  0.0831  0.2754  0.2338
    2TYR    SC2  631   1.942   0.264   2.618  0.1189  0.3260  0.1893
    2TYR    SC3  632   1.977   0.144   2.857  0.1457  0.2628  0.1538
    3TYR     BB  633   2.213   0.874   3.017 -0.1302 -0.0868 -0.0038
    3TYR    SC1  634   2.416   0.922   2.765 -0.1120  0.0573 -0.0993
    3TYR    SC2  635   2.571   1.124   2.674  0.2002 -0.1266  0.0067
    3TYR    SC3  636   2.590   0.878   2.563 -0.0143 -0.1545  0.0265
    1TYR     BB  637   6.158   2.695   2.001  0.0729 -0.3362  0.1536
    1TYR    SC1  638   5.863   2.777   1.993  0.1631 -0.0331  0.1294
    1TYR    SC2  639   5.628   2.899   2.047  0.0768 -0.1309 -0.0134
    1TYR    SC3  640   5.663   2.773   1.811  0.3051 -0.0436 -0.0301
    2TYR     BB  641   6.215   2.751   1.659 -0.0227 -0.1522  0.0925
    2TYR    SC1  642   5.994   2.684   1.459  0.0756  0.0331 -0.4687
    2TYR    SC2  643   5.758   2.758   1.351 -0.2779 -0.2180  0.0768
    2TYR    SC3  644   5.881   2.533   1.266 -0.2626 -0.1225 -0.1633
    3TYR     BB  645   6.420   2.962   1.500 -0.0355 -0.1010  0.4243
    3TYR    SC1  646   6.414   3.224   1.589  0.0217 -0.0509  0.2159
    3TYR    SC2  647   6.390   3.468   1.702  0.3377  0.0261  0.1280
    3TYR    SC3  648   6.505   3.442   1.459  0.3181 -0.2121  0.1410
    1TYR     BB  649   1.350   1.003   3.553  0.0231  0.1156 -0.0192
    1TYR    SC1  650   1.394   0.971   3.279  0.1895 -0.0369  0.2175
    1TYR    SC2  651   1.372   0.799   3.072 -0.3546  0.0862  0.1543
    1TYR    SC3  652   1.364   1.065   3.028  0.2726  0.1438  0.2732
    2TYR     BB  653   1.366   1.148   3.771 -0.2056  0.3514 -0.0078
    2TYR    SC1  654   1.345   1.002   4.018  0.2791  0.1070 -0.1093
    2TYR    SC2  655   1.459   0.838   4.199 -0.0804 -0.0427 -0.0086
    2TYR    SC3  656   1.203   0.917   4.231 -0.0776  0.1165 -0.3337
    3TYR     BB  657   1.696   1.336   3.753 -0.0242  0.2662  0.7108
    3TYR    SC1  658   1.700   1.477   4.004  0.1037 -0.0718  0.0183
    3TYR    SC2  659   1.761   1.709   4.128 -0.2418 -0.0308  0.1249
    3TYR    SC3  660   1.504   1.624   4.119 -0.2363 -0.0410 -0.5512
    1TYR     BB  661   2.776   1.009   4.447  0.1116  0.1007 -0.1070
    1TYR    SC1  662   2.676   0.752   4.404 -0.0069 -0.0234  0.1385
    1TYR    SC2  663   2.812   0.528   4.339  0.0261 -0.0153  0.1785
    1TYR    SC3  664   2.557   0.511   4.426 -0.0722 -0.0157 -0.0961
    2TYR     BB  665   2.648   1.252   4.395  0.0390  0.0490  0.1581
    2TYR    SC1  666   2.805   1.436   4.170 -0.0727  0.2222 -0.0548
    2TYR    SC2  667   2.779   1.651   4.009 -0.3145  0.0734 -0.2241
    2TYR    SC3  668   2.942   1.448   3.938  0.2292  0.3556  0.1223
    3TYR     BB  669   2.445   1.389   4.504  0.0671  0.0559 -0.0847
    3TYR    SC1  670   2.480   1.641   4.677 -0.2031  0.0060 -0.2883
    3TYR    SC2  671   2.391   1.891   4.725  0.0805  0.0955 -0.2085
    3TYR    SC3  672   2.510   1.749   4.922 -0.0727 -0.1022 -0.2547
    1TYR     BB  673   1.082   6.538   4.471 -0.1531 -0.1138  0.0381
    1TYR    SC1  674   1.236   6.641   4.716  0.0102 -0.0570  0.0210
    1TYR    SC2  675   1.302   6.832   4.895  0.1119  0.0432 -0.1210
    1TYR    SC3  676   1.265   6.578   4.977 -0.3080  0.1703  0.1192
    2TYR     BB  677   1.188   6.753   4.193  0.0583  0.0257  0.2649
    2TYR    SC1  678   1.138   6.542   3.973  0.2304 -0.1339 -0.0232
    2TYR    SC2  679   1.066   6.282   3.979 -0.1654 -0.0300  0.2503
    2TYR    SC3  680   1.193   6.382   3.762 -0.5718 -0.3099 -0.1409
    3TYR     BB  681   1.129   7.070   4.275  0.0250  0.4588  0.1945
    3TYR    SC1  682   1.102   7.063   4.581 -0.0024  0.2774  0.2002
    3TYR    SC2  683   0.909   7.024   4.767 -0.0467  0.0790  0.1159
    3TYR    SC3  684   1.067   7.242   4.780 -0.0821  0.0938  0.3569
    1TYR     BB  685   0.061   2.082   3.347  0.0711  0.2737  0.2922
    1TYR    SC1  686   0.092   2.232   3.574 -0.0577 -0.3547  0.1475
    1TYR    SC2  687  -0.010   2.417   3.743 -0.0938  0.0360 -0.2772
    1TYR    SC3  688   0.258   2.391   3.716 -0.0855 -0.1179 -0.0758
    2TYR     BB  689   0.264   1.874   3.286  0.2255  0.0205  0.1790
    2TYR    SC1  690   0.236   1.703   3.017  0.3215  0.2369 -0.1920
    2TYR    SC2  691   0.153   1.548   2.812 -0.1948 -0.0120  0.1743
    2TYR    SC3  692   0.264   1.435   3.030 -0.5106  0.1295  0.4175
    3TYR     BB  693   0.560   1.900   3.326 -0.3708 -0.0955 -0.0085
    3TYR    SC1  694   0.670   2.147   3.544  0.1126 -0.0230  0.0227
    3TYR    SC2  695   0.911   2.211   3.647 -0.0346  0.1494  0.2744
    3TYR    SC3  696   0.695   2.200   3.808 -0.2211  0.1299  0.0296
    1TYR     BB  697   2.678   5.196   3.629 -0.0099 -0.0682 -0.2272
    1TYR    SC1  698   2.862   5.177   3.875  0.1239 -0.1400 -0.1851
    1TYR    SC2  699   2.894   5.319   4.102  0.3373 -0.1349 -0.2157
    1TYR    SC3  700   3.109   5.251   3.954  0.2005 -0.1333 -0.4209
    2TYR     BB  701   2.769   5.504   3.503 -0.1954  0.1044 -0.4134
    2TYR    SC1  702   2.855   5.646   3.824 -0.1641 -0.1177  0.0318
    2TYR    SC2  703   2.774   5.794   4.035  0.0124 -0.1227  0.1054
    2TYR    SC3  704   3.035   5.732   4.005 -0.0066 -0.1035 -0.1280
    3TYR     BB  705   2.839   5.484   3.297 -0.2944 -0.1464 -0.2735
    3TYR    SC1  706   3.087   5.575   3.094 -0.0983  0.0177  0.0417
    3TYR    SC2  707   3.266   5.721   2.954 -0.1336 -0.0190 -0.0423
    3TYR    SC3  708   3.317   5.462   3.010 -0.0579  0.0322  0.1319
    1TYR     BB  709   5.591   2.963   3.358 -0.2292 -0.0382  0.1101
    1TYR    SC1  710   5.429   2.870   3.087 -0.3067  0.2765  0.1312
    1TYR    SC2  711   5.174   2.807   3.028 -0.2583  0.3265 -0.1504
    1TYR    SC3  712   5.374   2.728   2.864 -0.0916  0.2918  0.0645
    2TYR     BB  713   5.925   2.833   3.235  0.1076  0.2035  0.3912
    2TYR    SC1  714   6.152   2.700   3.430 -0.0713 -0.1614  0.0564
    2TYR    SC2  715   6.241   2.649   3.680 -0.0296 -0.1858  0.0367
    2TYR    SC3  716   6.414   2.652   3.473 -0.0764 -0.2457 -0.0040
    3TYR     BB  717   5.868   2.731   2.960 -0.0682  0.1439  0.2487
    3TYR    SC1  718   5.849   2.897   2.699  0.1063 -0.0651 -0.1796
    3TYR    SC2  719   5.639   2.943   2.536 -0.0430 -0.2385 -0.0412
    3TYR    SC3  720   5.861   2.825   2.439 -0.0599 -0.1753 -0.1590
    1TYR     BB  721   2.198   0.941   4.749 -0.1155  0.2456  0.0989
    1TYR    SC1  722   1.990   0.756   4.629  0.0796 -0.0754  0.2003
    1TYR    SC2  723   1.908   0.566   4.455  0.1029  0.0485  0.0509
    1TYR    SC3  724   1.775   0.800   4.471  0.1842  0.0917  0.1015
    2TYR     BB  725   2.454   1.001   4.815 -0.0506 -0.2046 -0.1554
    2TYR    SC1  726   2.600   1.240   4.987 -0.3569  0.1600  0.0396
    2TYR    SC2  727   2.822   1.253   5.141 -0.1956 -0.0647 -0.1638
    2TYR    SC3  728   2.598   1.387   5.214 -0.0950 -0.0872  0.2105
    3TYR     BB  729   2.685   0.790   4.890  0.1912  0.0626 -0.0487
    3TYR    SC1  730   2.823   0.781   5.175 -0.3145 -0.2323 -0.0010
    3TYR    SC2  731   2.849   0.823   5.441  0.2285 -0.0513 -0.0669
    3TYR    SC3  732   2.918   0.584   5.334 -0.2779 -0.2315 -0.0216
    1TYR     BB  733   3.166   0.059   3.655 -0.0503 -0.1533 -0.0819
    1TYR    SC1  734   3.351   0.246   3.512  0.1833  0.1182  0.1572
    1TYR    SC2  735   3.523   0.446   3.454  0.0899  0.0621 -0.3706
    1TYR    SC3  736   3.572   0.196   3.364  0.0950 -0.1182  0.0995
    2TYR     BB  737   2.891   0.069   3.566  0.2137  0.1184  0.0431
    2TYR    SC1  738   2.698   0.255   3.745 -0.2392 -0.1736  0.1911
    2TYR    SC2  739   2.458   0.380   3.755 -0.2190 -0.1117 -0.0451
    2TYR    SC3  740   2.634   0.409   3.958 -0.4147 -0.1676  0.1359
    3TYR     BB  741   2.889   0.207   3.245  0.1266 -0.5904 -0.1875
    3TYR    SC1  742   2.865   0.045   3.014  0.1022  0.3592 -0.1464
    3TYR    SC2  743   2.737  -0.049   2.796  0.2807  0.0238 -0.1157
    3TYR    SC3  744   2.909  -0.208   2.930  0.1492  0.2096  0.2940
    1TYR     BB  745   5.062   3.423   2.072  0.1526 -0.2268 -0.0577
    1TYR    SC1  746   4.816   3.630   2.212 -0.1481 -0.2761  0.1178
    1TYR    SC2  747   4.786   3.824   2.398 -0.1202  0.0512 -0.2043
    1TYR    SC3  748   4.569   3.721   2.273 -0.1161  0.0897 -0.2434
    2TYR     BB  749   5.324   3.452   2.400 -0.0044 -0.2400  0.0792
    2TYR    SC1  750   5.310   3.794   2.446  0.2280 -0.0868  0.2894
    2TYR    SC2  751   5.417   4.037   2.397 -0.0455 -0.0110  0.0363
    2TYR    SC3  752   5.241   4.006   2.599  0.0208 -0.0086  0.0947
    3TYR     BB  753   5.634   3.459   2.453 -0.3120 -0.0201  0.3608
    3TYR    SC1  754   5.652   3.632   2.671 -0.0758 -0.0976 -0.1021
    3TYR    SC2  755   5.659   3.870   2.800 -0.2679  0.1025 -0.4417
    3TYR    SC3  756   5.845   3.682   2.853  0.0138  0.4070 -0.3130
    1TYR     BB  757   0.250   1.316   5.043  0.1321 -0.1306  0.3701
    1TYR    SC1  758   0.039   1.558   5.153 -0.2303 -0.2082 -0.0857
    1TYR    SC2  759  -0.201   1.648   5.068 -0.2552 -0.2107 -0.0191
    1TYR    SC3  760  -0.133   1.670   5.329  0.0318  0.2841 -0.1207
    2TYR     BB  761   0.394   1.517   4.744  0.0832  0.2050  0.0753
    2TYR    SC1  762   0.266   1.777   4.737 -0.0547 -0.0318 -0.0543
    2TYR    SC2  763   0.090   1.957   4.835 -0.2086 -0.1460 -0.1167
    2TYR    SC3  764   0.238   2.018   4.619  0.1449  0.1138  0.1840
    3TYR     BB  765   0.515   1.352   4.585  0.2738  0.1308  0.2837
    3TYR    SC1  766   0.640   1.075   4.557  0.1591  0.4066 -0.0663
    3TYR    SC2  767   0.856   0.921   4.605  0.1110  0.4117  0.1834
    3TYR    SC3  768   0.769   0.955   4.352  0.1065  0.0067  0.1215
    1TYR     BB  769   5.112   4.653   1.718  0.0574 -0.3408  0.1588
    1TYR    SC1  770   4.921   4.880   1.581  0.1125  0.1288  0.2556
    1TYR    SC2  771   4.727   4.964   1.413  0.2131 -0.0481  0.0449
    1TYR    SC3  772   4.674   4.936   1.676  0.0818  0.3323  0.0677
    2TYR     BB  773   5.398   4.663   1.815 -0.2344  0.2513 -0.1555
    2TYR    SC1  774   5.552   4.354   1.855  0.0359  0.0525 -0.1311
    2TYR    SC2  775   5.696   4.151   1.751 -0.2501 -0.2611  0.0586
    2TYR    SC3  776   5.694   4.192   2.017 -0.0377  0.1266  0.0091
    3TYR     BB  777   5.707   4.817   1.733  0.2173  0.2994  0.2339
    3TYR    SC1  778   5.720   5.134   1.690  0.1514 -0.1890 -0.1816
    3TYR    SC2  779   5.800   5.341   1.844 -0.1364 -0.0939 -0.1524
    3TYR    SC3  780   5.722   5.385   1.590  0.1212 -0.2189 -0.2580
    1TYR     BB  781   6.900   3.115   1.534 -0.0651 -0.0344 -0.0347
    1TYR    SC1  782   7.179   3.120   1.378  0.0927  0.1079 -0.0732
    1TYR    SC2  783   7.447   3.148   1.358  0.0863  0.1612 -0.0854
    1TYR    SC3  784   7.327   2.923   1.268  0.1181  0.1708 -0.1523
    2TYR     BB  785   6.921   3.281   1.774 -0.2344  0.2913 -0.0344
    2TYR    SC1  786   6.693   3.198   1.936 -0.0956  0.4947  0.0014
    2TYR    SC2  787   6.441   3.120   1.992  0.1522 -0.3364  0.1363
    2TYR    SC3  788   6.635   3.089   2.176  0.3425  0.5374  0.1374
    3TYR     BB  789   6.918   3.622   1.723 -0.3220 -0.1104  0.1912
    3TYR    SC1  790   7.023   3.760   1.933  0.2355 -0.0732  0.1930
    3TYR    SC2  791   6.946   3.952   2.106 -0.1087 -0.1738  0.1615
    3TYR    SC3  792   7.196   3.851   2.118  0.0415  0.1899  0.2521
    1TYR     BB  793   2.737   0.254   4.836  0.5162  0.2959  0.1016
    1TYR    SC1  794   2.594   0.311   5.125  0.4299 -0.1520  0.1841
    1TYR    SC2  795   2.477   0.472   5.308 -0.1714 -0.1014 -0.2081
    1TYR    SC3  796   2.559   0.224   5.378  0.1491  0.1157  0.2443
    2TYR     BB  797   2.836   0.121   4.625  0.2147  0.1008  0.1669
    2TYR    SC1  798   3.106  -0.018   4.588 -0.0116  0.0230  0.2663
    2TYR    SC2  799   3.358   0.015   4.497 -0.0369  0.0454  0.2038
    2TYR    SC3  800   3.259  -0.234   4.531 -0.1813  0.0260 -0.2686
    3TYR     BB  801   2.755   0.018   4.275 -0.0359 -0.0191  0.0668
    3TYR    SC1  802   2.770  -0.256   4.300  0.4692  0.1600  0.4170
    3TYR    SC2  803   2.613  -0.427   4.438  0.0192 -0.1142 -0.3527
    3TYR    SC3  804   2.877  -0.476   4.413  0.0459 -0.2440  0.0848
    1TYR     BB  805   6.164   3.212   1.115  0.0727  0.1366  0.0818
    1TYR    SC1  806   6.156   3.427   0.866  0.2695  0.3387 -0.1491
    1TYR    SC2  807   6.301   3.514   0.656  0.0970  0.4405 -0.2290
    1TYR    SC3  808   6.064   3.630   0.714 -0.2558 -0.1072 -0.4740
    2TYR     BB  809   5.947   3.301   1.396  0.0453 -0.1077  0.2787
    2TYR    SC1  810   5.714   3.564   1.420  0.0937  0.0179  0.1500
    2TYR    SC2  811   5.595   3.794   1.495  0.1907  0.0249  0.2883
    2TYR    SC3  812   5.460   3.561   1.512 -0.0147  0.1006 -0.1341
    3TYR     BB  813   5.935   3.176   1.661  0.0054 -0.0435 -0.1031
    3TYR    SC1  814   6.027   3.301   1.904  0.5609 -0.3051 -0.1464
    3TYR    SC2  815   5.966   3.187   2.141 -0.0558  0.1262 -0.0693
    3TYR    SC3  816   6.099   3.422   2.135  0.5498 -0.1946 -0.2001
    1TYR     BB  817   6.500   1.625   2.405  0.0102  0.1173 -0.1627
    1TYR    SC1  818   6.393   1.587   2.680  0.1288  0.0671  0.0377
    1TYR    SC2  819   6.287   1.369   2.797  0.4179 -0.0762  0.0448
    1TYR    SC3  820   6.396   1.563   2.948 -0.2207  0.2983  0.0700
    2TYR     BB  821   6.757   1.837   2.279  0.0629 -0.1366  0.3461
    2TYR    SC1  822   6.747   2.116   2.363 -0.1148 -0.1850  0.3511
    2TYR    SC2  823   6.511   2.247   2.376  0.0039  0.1132 -0.1594
    2TYR    SC3  824   6.735   2.363   2.472 -0.0424 -0.1747  0.3362
    3TYR     BB  825   7.153   1.759   2.301 -0.2880  0.0281  0.5660
    3TYR    SC1  826   7.231   2.004   2.468  0.0772 -0.0835 -0.1585
    3TYR    SC2  827   7.227   2.269   2.521 -0.1873 -0.1569  0.2410
    3TYR    SC3  828   7.459   2.148   2.451 -0.0030  0.1252  0.3425
    1TYR     BB  829   6.090   1.086   3.117  0.1179 -0.1220 -0.0605
    1TYR    SC1  830   5.785   1.073   3.054 -0.0265  0.3947 -0.0893
    1TYR    SC2  831   5.527   1.150   3.047 -0.0737  0.2508  0.0009
    1TYR    SC3  832   5.636   1.022   2.836 -0.0665  0.3391 -0.0495
    2TYR     BB  833   6.174   0.949   3.353  0.2292 -0.0028 -0.1447
    2TYR    SC1  834   6.476   0.818   3.339 -0.0945  0.0119 -0.1228
    2TYR    SC2  835   6.729   0.764   3.260 -0.0403  0.3189 -0.1785
    2TYR    SC3  836   6.653   0.714   3.515  0.0861  0.2571 -0.1518
    3TYR     BB  837   5.948   0.854   3.582 -0.0593 -0.1723  0.1579
    3TYR    SC1  838   5.660   0.749   3.452 -0.0547  0.2380  0.1752
    3TYR    SC2  839   5.401   0.672   3.445  0.0313 -0.0567 -0.0818
    3TYR    SC3  840   5.511   0.796   3.232  0.0788  0.1651  0.0669
    1TYR     BB  841   3.339   7.315   3.173  0.0866  0.0289 -0.1896
    1TYR    SC1  842   3.353   7.617   3.043 -0.1008 -0.0453 -0.1669
    1TYR    SC2  843   3.490   7.824   2.939  0.0562 -0.0251  0.0707
    1TYR    SC3  844   3.260   7.743   2.823  0.1987  0.0230 -0.2595
    2TYR     BB  845   3.225   7.285   3.440  0.0432 -0.4478  0.4231
    2TYR    SC1  846   2.882   7.285   3.360  0.1427  0.2197  0.0433
    2TYR    SC2  847   2.664   7.406   3.254  0.1553  0.2700  0.0742
    2TYR    SC3  848   2.635   7.211   3.439  0.1240  0.0074 -0.1978
    3TYR     BB  849   3.579   7.456   3.624 -0.0770 -0.0599 -0.0500
    3TYR    SC1  850   3.777   7.442   3.346  0.3654 -0.0689  0.1928
    3TYR    SC2  851   3.821   7.532   3.095 -0.2983 -0.2944 -0.0323
    3TYR    SC3  852   3.957   7.318   3.187  0.2278  0.0161 -0.0364
    1TYR     BB  853   3.024   7.150   4.880 -0.0289 -0.0790  0.1294
    1TYR    SC1  854   3.318   7.263   4.940 -0.2940 -0.1363 -0.0651
    1TYR    SC2  855   3.475   7.397   5.113 -0.2026  0.0465 -0.2835
    1TYR    SC3  856   3.526   7.138   5.059 -0.1703  0.0164 -0.1161
    2TYR     BB  857   2.851   7.386   4.896 -0.0231  0.1393 -0.1305
    2TYR    SC1  858   3.050   7.647   5.037 -0.1570  0.1651 -0.2134
    2TYR    SC2  859   3.045   7.701   5.302  0.0003 -0.0029 -0.1740
    2TYR    SC3  860   3.232   7.816   5.144 -0.0351  0.0248 -0.1958
    3TYR     BB  861   2.640   7.431   5.086 -0.5162  0.2711  0.3230
    3TYR    SC1  862   2.639   7.328   5.348  0.1608  0.0032 -0.0947
    3TYR    SC2  863   2.566   7.449   5.578  0.0740  0.2553 -0.2488
    3TYR    SC3  864   2.700   7.214   5.585 -0.2549  0.0636  0.0517
    1TYR     BB  865   3.813   0.074   4.322  0.3575 -0.1014 -0.0037
    1TYR    SC1  866   3.790  -0.194   4.423 -0.2021  0.1947  0.0924
    1TYR    SC2  867   3.670  -0.370   4.588  0.0524  0.0036  0.0821
    1TYR    SC3  868   3.703  -0.431   4.327  0.3653 -0.0506  0.1292
    2TYR     BB  869   3.632   0.083   4.059  0.2569 -0.0218 -0.1055
    2TYR    SC1  870   3.426  -0.140   4.085  0.3930 -0.1670  0.0106
    2TYR    SC2  871   3.161  -0.193   4.082  0.2371  0.5025 -0.0781
    2TYR    SC3  872   3.339  -0.395   4.065 -0.2555  0.0299  0.0186
    3TYR     BB  873   3.775   0.225   3.849  0.0097 -0.1159  0.1839
    3TYR    SC1  874   4.098   0.196   3.856 -0.0355 -0.0369 -0.0422
    3TYR    SC2  875   4.339   0.286   3.776  0.0322 -0.1346  0.0496
    3TYR    SC3  876   4.320   0.125   3.992 -0.1382  0.0491  0.1750
    1TYR     BB  877   5.814   1.570   2.908  0.2704  0.0826  0.2161
    1TYR    SC1  878   5.902   1.433   2.623  0.0789  0.1592 -0.3201
    1TYR    SC2  879   5.806   1.250   2.449 -0.1751  0.2067 -0.2362
    1TYR    SC3  880   6.018   1.403   2.382  0.1884 -0.2636 -0.2255
    2TYR     BB  881   5.499   1.648   2.936 -0.2957 -0.0474  0.0017
    2TYR    SC1  882   5.373   1.481   2.667 -0.1531  0.2494 -0.0800
    2TYR    SC2  883   5.366   1.246   2.536  0.0612  0.1773  0.0318
    2TYR    SC3  884   5.170   1.427   2.498 -0.1624 -0.0588  0.0213
    3TYR     BB  885   5.347   1.907   2.922  0.0651  0.1968 -0.0838
    3TYR    SC1  886   5.098   1.938   3.101 -0.0414 -0.0236 -0.0827
    3TYR    SC2  887   4.871   2.078   3.058 -0.0994 -0.1175 -0.0875
    3TYR    SC3  888   4.937   2.001   3.308 -0.0327 -0.0248 -0.0755
    1TYR     BB  889   6.979   3.395   2.239  0.0400  0.0623 -0.1890
    1TYR    SC1  890   6.892   3.612   2.431  0.2134  0.2339 -0.1767
    1TYR    SC2  891   6.981   3.777   2.625  0.2901  0.5243 -0.4482
    1TYR    SC3  892   6.716   3.749   2.583  0.2595  0.2269 -0.1163
    2TYR     BB  893   7.300   3.332   2.139 -0.0667  0.1805  0.2919
    2TYR    SC1  894   7.398   3.493   1.878 -0.3166  0.0373 -0.0291
    2TYR    SC2  895   7.391   3.489   1.608 -0.0796 -0.0967 -0.0368
    2TYR    SC3  896   7.470   3.712   1.738  0.1042 -0.1282 -0.0907
    3TYR     BB  897   7.464   3.138   2.283  0.1753 -0.0653 -0.0583
    3TYR    SC1  898   7.746   3.044   2.307  0.0277 -0.2664 -0.0285
    3TYR    SC2  899   7.996   3.115   2.380 -0.0875 -0.0407  0.1625
    3TYR    SC3  900   7.960   2.935   2.183  0.2226  0.1609 -0.0926
    1TYR     BB  901   2.177   6.616   4.038  0.0727  0.1759 -0.2068
    1TYR    SC1  902   2.079   6.870   3.859  0.0792  0.2513  0.1187
    1TYR    SC2  903   2.217   7.018   3.680  0.1612  0.1837  0.1251
    1TYR    SC3  904   1.947   7.014   3.672  0.1625 -0.2211 -0.3349
    2TYR     BB  905   2.505   6.646   3.885 -0.1535  0.0641 -0.0551
    2TYR    SC1  906   2.585   6.759   3.626  0.2402  0.0019 -0.0394
    2TYR    SC2  907   2.784   6.771   3.443  0.0969  0.0215 -0.1966
    2TYR    SC3  908   2.526   6.766   3.363  0.0361 -0.2212 -0.0039
    3TYR     BB  909   2.701   6.724   4.164  0.0869 -0.2728  0.2490
    3TYR    SC1  910   2.779   6.738   4.464 -0.3367  0.0199  0.0454
    3TYR    SC2  911   2.719   6.866   4.695  0.1071 -0.0112  0.1894
    3TYR    SC3  912   2.786   6.605   4.699 -0.1132 -0.0751 -0.0120
    1TYR     BB  913   6.804   1.099   4.147  0.0015  0.0253 -0.1946
    1TYR    SC1  914   6.623   1.001   3.906  0.4723 -0.0491 -0.1800
    1TYR    SC2  915   6.483   1.105   3.700 -0.0973  0.1185  0.2600
    1TYR    SC3  916   6.398   0.878   3.819  0.3418 -0.0914  0.1966
    2TYR     BB  917   7.088   1.036   4.111 -0.4118  0.4173 -0.1023
    2TYR    SC1  918   7.181   0.906   3.819  0.2700 -0.2996 -0.0565
    2TYR    SC2  919   7.338   0.901   3.600  0.2623 -0.1152 -0.0686
    2TYR    SC3  920   7.070   0.882   3.574  0.2698 -0.2377 -0.0628
    3TYR     BB  921   7.257   1.005   4.314  0.1083  0.2942 -0.2320
    3TYR    SC1  922   7.359   0.783   4.463 -0.0350 -0.2357  0.3300
    3TYR    SC2  923   7.553   0.603   4.410  0.0783 -0.0027 -0.0928
    3TYR    SC3  924   7.497   0.669   4.665  0.7214  0.0941  0.0446
    1TYR     BB  925   1.989   6.154   3.909 -0.0307  0.0921  0.1333
    1TYR    SC1  926   2.079   6.305   3.624 -0.1190  0.2100  0.0231
    1TYR    SC2  927   2.154   6.556   3.555 -0.1703  0.1224 -0.3844
    1TYR    SC3  928   2.321   6.348   3.510 -0.1781  0.0649 -0.1631
    2TYR     BB  929   1.937   5.824   3.981 -0.0522 -0.0442  0.2299
    2TYR    SC1  930   2.218   5.684   4.009 -0.2717  0.1460  0.0444
    2TYR    SC2  931   2.418   5.528   3.916 -0.0488  0.4258  0.0341
    2TYR    SC3  932   2.416   5.604   4.175 -0.4425 -0.0106  0.1769
    3TYR     BB  933   1.715   5.595   4.054  0.0020  0.1202 -0.2822
    3TYR    SC1  934   1.466   5.719   4.206 -0.0329 -0.0041 -0.0463
    3TYR    SC2  935   1.230   5.779   4.087 -0.0528  0.1257  0.0558
    3TYR    SC3  936   1.238   5.719   4.350  0.0551  0.3525  0.1084
    1TYR     BB  937   4.271   0.860   4.827  0.0665 -0.3123  0.1948
    1TYR    SC1  938   4.193   0.595   4.726  0.6152 -0.2151  0.2583
    1TYR    SC2  939   4.080   0.407   4.568  0.2246  0.1293  0.1044
    1TYR    SC3  940   4.132   0.353   4.828 -0.2852 -0.0618  0.1803
    2TYR     BB  941   4.346   1.160   4.596 -0.0022  0.3383  0.0174
    2TYR    SC1  942   4.490   1.288   4.824  0.1236 -0.1923 -0.0068
    2TYR    SC2  943   4.427   1.357   5.078  0.0457  0.0508 -0.0888
    2TYR    SC3  944   4.664   1.430   4.973  0.1490 -0.1941 -0.0347
    3TYR     BB  945   4.228   1.253   4.324 -0.0320 -0.1262 -0.0807
    3TYR    SC1  946   3.977   1.283   4.227  0.1971  0.3209 -0.1170
    3TYR    SC2  947   3.767   1.115   4.242  0.2967  0.2190  0.2878
    3TYR    SC3  948   3.810   1.257   4.016  0.0349 -0.0631  0.0483
    1TYR     BB  949   4.452   0.859   3.790  0.2230 -0.1725  0.2681
    1TYR    SC1  950   4.480   0.786   3.486  0.2682 -0.1198 -0.1350
    1TYR    SC2  951   4.410   0.717   3.235 -0.3678  0.2016 -0.0709
    1TYR    SC3  952   4.654   0.823   3.283 -0.0006 -0.4082 -0.4317
    2TYR     BB  953   4.258   1.031   3.835  0.2866 -0.2050 -0.1050
    2TYR    SC1  954   3.935   0.892   3.795 -0.0875  0.1162 -0.2068
    2TYR    SC2  955   3.735   0.836   3.623 -0.0255  0.1476 -0.2904
    2TYR    SC3  956   3.947   0.671   3.642 -0.0981  0.0680 -0.1386
    3TYR     BB  957   4.296   1.348   3.771  0.3283  0.0050 -0.0334
    3TYR    SC1  958   4.238   1.554   3.948 -0.0388  0.0579 -0.0542
    3TYR    SC2  959   4.281   1.745   4.133  0.2128  0.2833 -0.3326
    3TYR    SC3  960   4.029   1.665   4.078  0.1363  0.1470  0.1571
    1TYR     BB  961   5.147   1.559   3.926 -0.4700 -0.2249  0.2334
    1TYR    SC1  962   5.062   1.817   4.067 -0.5037 -0.0105 -0.1931
    1TYR    SC2  963   4.999   1.905   4.314 -0.4056 -0.1186 -0.1282
    1TYR    SC3  964   5.022   2.080   4.110  0.0624  0.0516  0.0562
    2TYR     BB  965   5.532   1.749   3.981  0.0155 -0.1632 -0.2096
    2TYR    SC1  966   5.483   1.963   4.178 -0.2610  0.0446 -0.0045
    2TYR    SC2  967   5.512   2.228   4.225 -0.0685 -0.0013  0.1556
    2TYR    SC3  968   5.393   2.070   4.409  0.0253 -0.0631  0.1640
    3TYR     BB  969   5.700   1.649   3.849  0.3432 -0.0147  0.0334
    3TYR    SC1  970   5.732   1.494   3.583 -0.0700 -0.2714 -0.0492
    3TYR    SC2  971   5.667   1.242   3.511 -0.4404 -0.0963 -0.3754
    3TYR    SC3  972   5.798   1.402   3.338  0.1762 -0.1784 -0.0215
    1TYR     BB  973   2.084   1.046   3.717 -0.1512  0.0257  0.0947
    1TYR    SC1  974   1.904   0.842   3.768  0.3000  0.0962 -0.0831
    1TYR    SC2  975   1.920   0.672   3.976 -0.1156  0.4154  0.2330
    1TYR    SC3  976   1.704   0.667   3.814  0.2512  0.0947 -0.2853
    2TYR     BB  977   2.094   1.239   3.428 -0.1906  0.2491  0.0212
    2TYR    SC1  978   2.359   1.328   3.324 -0.0012 -0.0770 -0.1401
    2TYR    SC2  979   2.556   1.297   3.141  0.0955  0.2685 -0.1035
    2TYR    SC3  980   2.458   1.543   3.194 -0.0367  0.1563  0.2031
    3TYR     BB  981   1.883   1.156   3.291  0.1982  0.0368  0.0934
    3TYR    SC1  982   1.856   1.309   3.021 -0.0349 -0.0713 -0.0944
    3TYR    SC2  983   2.069   1.349   2.861  0.0436 -0.1103 -0.0013
    3TYR    SC3  984   1.822   1.420   2.777  0.0999 -0.0089 -0.0858
    1TYR     BB  985   3.673   1.688   4.455 -0.1818  0.1012 -0.0025
    1TYR    SC1  986   3.768   1.960   4.350 -0.0646 -0.0726 -0.0834
    1TYR    SC2  987   3.811   2.208   4.450 -0.1509 -0.0514 -0.0981
    1TYR    SC3  988   4.003   2.086   4.304 -0.1715  0.0768 -0.2344
    2TYR     BB  989   3.522   1.664   4.675 -0.0333  0.0147 -0.0541
    2TYR    SC1  990   3.291   1.928   4.665  0.0747  0.0742  0.5748
    2TYR    SC2  991   3.321   2.189   4.726 -0.1752  0.2792 -0.0775
    2TYR    SC3  992   3.074   2.087   4.683 -0.0785 -0.0673  0.1349
    3TYR     BB  993   3.446   1.521   4.932 -0.0290  0.1749 -0.0723
    3TYR    SC1  994   3.715   1.578   5.084  0.4253 -0.4611 -0.3006
    3TYR    SC2  995   3.972   1.631   5.150  0.2147  0.3091  0.0550
    3TYR    SC3  996   3.798   1.547   5.339  0.1550 -0.0536 -0.1489
    1TYR     BB  997   2.350   6.467   4.487 -0.0709 -0.2133  0.0361
    1TYR    SC1  998   2.290   6.797   4.505  0.0960  0.0150  0.1203
    1TYR    SC2  999   2.314   7.017   4.660 -0.2133  0.0535  0.1199
    1TYR    SC3 1000   2.073   6.949   4.557 -0.0364 -0.0318 -0.2574
    2TYR     BB 1001   2.083   6.337   4.560 -0.0828 -0.3349 -0.0161
    2TYR    SC1 1002   2.103   6.260   4.860  0.4889  0.1775 -0.1678
    2TYR    SC2 1003   2.237   6.198   5.086 -0.1930  0.3275  0.3172
    2TYR    SC3 1004   2.127   6.002   4.936  0.6762  0.1786 -0.2163
    3TYR     BB 1005   1.917   6.086   4.387  0.2647  0.1037 -0.1998
    3TYR    SC1 1006   1.748   5.908   4.614  0.0418 -0.5571 -0.6048
    3TYR    SC2 1007   1.523   5.773   4.677 -0.1469  0.0049  0.1049
    3TYR    SC3 1008   1.743   5.749   4.832  0.0154  0.0721 -0.1086
    1TYR     BB 1009   5.528   5.066   2.174 -0.0171  0.1849 -0.0635
    1TYR    SC1 1010   5.331   5.105   1.942 -0.2465  0.0593  0.2327
    1TYR    SC2 1011   5.269   5.171   1.688  0.0308 -0.4035  0.0289
    1TYR    SC3 1012   5.078   5.175   1.879 -0.2141 -0.1796 -0.2095
    2TYR     BB 1013   5.644   4.690   2.224  0.1935  0.0859 -0.2154
    2TYR    SC1 1014   5.580   4.613   2.484 -0.1725 -0.1254  0.0186
    2TYR    SC2 1015   5.622   4.358   2.563  0.0347 -0.0992 -0.0014
    2TYR    SC3 1016   5.683   4.562   2.729 -0.2795 -0.0633  0.0777
    3TYR     BB 1017   5.946   4.728   2.176 -0.2948  0.0129 -0.1147
    3TYR    SC1 1018   6.062   5.005   2.169 -0.0613 -0.0107  0.0112
    3TYR    SC2 1019   6.035   5.191   2.363 -0.1431  0.0878 -0.0930
    3TYR    SC3 1020   6.141   5.259   2.124 -0.2812  0.0293 -0.1725
    1TYR     BB 1021   3.159   0.300   4.127 -0.2493  0.1507  0.1889
    1TYR    SC1 1022   3.205   0.487   3.853 -0.2381  0.2504  0.1067
    1TYR    SC2 1023   3.299   0.702   3.719  0.1912 -0.0938 -0.1814
    1TYR    SC3 1024   3.086   0.567   3.624  0.0529  0.0736 -0.1161
    2TYR     BB 1025   3.415   0.455   4.282  0.0814  0.2550 -0.2168
    2TYR    SC1 1026   3.232   0.465   4.550  0.0151  0.3547 -0.1573
    2TYR    SC2 1027   3.062   0.599   4.712 -0.0441  0.0472  0.0462
    2TYR    SC3 1028   3.255   0.443   4.819 -0.1629 -0.2631 -0.1732
    3TYR     BB 1029   3.582   0.619   4.109 -0.3369  0.0568  0.5244
    3TYR    SC1 1030   3.895   0.609   4.137  0.1151 -0.0324 -0.1956
    3TYR    SC2 1031   4.153   0.530   4.138  0.0573 -0.2314 -0.0130
    3TYR    SC3 1032   4.083   0.762   4.256  0.1191 -0.3010  0.1639
    1TYR     BB 1033   2.480   6.708   2.468  0.1986 -0.2607 -0.0725
    1TYR    SC1 1034   2.445   6.429   2.532  0.0444  0.1841 -0.1165
    1TYR    SC2 1035   2.599   6.214   2.585 -0.0459  0.1141 -0.1367
    1TYR    SC3 1036   2.343   6.181   2.505  0.0202  0.2212 -0.4070
    2TYR     BB 1037   2.368   6.876   2.795 -0.0588 -0.3968 -0.0040
    2TYR    SC1 1038   2.105   7.005   2.638  0.2059 -0.2585 -0.1440
    2TYR    SC2 1039   1.867   6.929   2.741  0.1190 -0.1291 -0.2452
    2TYR    SC3 1040   1.875   7.083   2.519  0.2923  0.0431 -0.1233
    3TYR     BB 1041   2.539   7.030   2.942 -0.2316  0.3498 -0.0839
    3TYR    SC1 1042   2.832   6.937   2.936 -0.1523  0.3150 -0.0043
    3TYR    SC2 1043   3.094   6.977   2.889 -0.0224 -0.3865 -0.0157
    3TYR    SC3 1044   3.009   6.922   3.139 -0.1146 -0.4367 -0.0574
    1TYR     BB 1045   7.419   2.486   3.145 -0.3842  0.2238 -0.1519
    1TYR    SC1 1046   7.294   2.330   3.348  0.0589  0.0843  0.0506
    1TYR    SC2 1047   7.250   2.259   3.605 -0.0637  0.1617  0.0522
    1TYR    SC3 1048   7.151   2.108   3.404 -0.2766  0.2923  0.0551
    2TYR     BB 1049   7.613   2.680   3.222  0.0678  0.0787  0.1144
    2TYR    SC1 1050   7.901   2.563   3.185 -0.1577 -0.0772  0.3728
    2TYR    SC2 1051   8.156   2.607   3.107 -0.2902  0.2366  0.0874
    2TYR    SC3 1052   8.105   2.449   3.320  0.1218 -0.1093 -0.0549
    3TYR     BB 1053   7.497   2.932   3.320  0.0683 -0.0032 -0.0975
    3TYR    SC1 1054   7.346   2.876   3.560 -0.4972  0.1249 -0.5490
    3TYR    SC2 1055   7.275   2.698   3.751  0.3972 -0.1006 -0.3676
    3TYR    SC3 1056   7.124   2.917   3.708 -0.1834 -0.3657  0.1319
    1TYR     BB 1057   3.729   5.992   2.742 -0.2265  0.1504  0.0323
    1TYR    SC1 1058   3.939   6.059   2.989 -0.0882  0.2664  0.1002
    1TYR    SC2 1059   4.161   5.964   3.110 -0.2964 -0.2567  0.1072
    1TYR    SC3 1060   3.953   6.051   3.259 -0.1845  0.0327  0.1021
    2TYR     BB 1061   3.521   6.253   2.877  0.0122  0.2762 -0.0008
    2TYR    SC1 1062   3.685   6.394   3.121  0.1283  0.1399  0.0813
    2TYR    SC2 1063   3.700   6.481   3.376 -0.0831  0.2875  0.0470
    2TYR    SC3 1064   3.916   6.499   3.215  0.0604  0.1675  0.2204
    3TYR     BB 1065   3.460   6.447   2.613 -0.1786 -0.1722  0.1339
    3TYR    SC1 1066   3.176   6.594   2.633  0.1611 -0.2020  0.0569
    3TYR    SC2 1067   2.915   6.535   2.675  0.1033  0.0161  0.0209
    3TYR    SC3 1068   2.983   6.745   2.519  0.3042 -0.1426 -0.1113
    1TYR     BB 1069   5.817   2.170   4.668  0.2946 -0.2096 -0.0516
    1TYR    SC1 1070   5.951   1.957   4.877  0.0584  0.0520  0.0831
    1TYR    SC2 1071   5.830   1.882   5.107 -0.0677 -0.3886 -0.1144
    1TYR    SC3 1072   5.961   1.699   4.958  0.0827 -0.0941 -0.3563
    2TYR     BB 1073   5.989   2.100   4.360  0.1253  0.0306  0.1689
    2TYR    SC1 1074   6.031   2.358   4.227  0.2453  0.0630  0.0111
    2TYR    SC2 1075   6.057   2.561   4.051 -0.3584 -0.1310 -0.3373
    2TYR    SC3 1076   5.888   2.585   4.260  0.1565 -0.0037  0.0906
    3TYR     BB 1077   5.996   1.777   4.247 -0.1671  0.3597  0.1258
    3TYR    SC1 1078   6.323   1.753   4.207 -0.0997 -0.2555  0.1393
    3TYR    SC2 1079   6.530   1.581   4.188  0.2298  0.1384 -0.0254
    3TYR    SC3 1080   6.576   1.842   4.240 -0.2709  0.1499  0.4779
    1TYR     BB 1081   3.390   1.477   4.151  0.3359 -0.1283  0.1957
    1TYR    SC1 1082   3.236   1.730   4.246 -0.1520 -0.1674 -0.1897
    1TYR    SC2 1083   3.057   1.931   4.223 -0.2236 -0.1988  0.0527
    1TYR    SC3 1084   3.321   1.986   4.231 -0.2522 -0.0845  0.3725
    2TYR     BB 1085   3.237   1.221   4.381  0.1833  0.1444 -0.0695
    2TYR    SC1 1086   3.099   1.457   4.543  0.1142  0.0413  0.1277
    2TYR    SC2 1087   2.916   1.647   4.602 -0.3767 -0.3617 -0.0106
    2TYR    SC3 1088   2.948   1.434   4.765  0.2678 -0.1211  0.2182
    3TYR     BB 1089   3.249   0.917   4.354  0.1419 -0.1680 -0.0412
    3TYR    SC1 1090   3.120   0.827   4.096  0.2937 -0.0170  0.0650
    3TYR    SC2 1091   2.870   0.797   3.998  0.1482  0.2570  0.3303
    3TYR    SC3 1092   3.028   0.997   3.907  0.1885  0.2204  0.3195
    1TYR     BB 1093   6.178   0.794   4.697  0.0826 -0.0401  0.0297
    1TYR    SC1 1094   6.066   0.799   4.967  0.1575 -0.0015 -0.0658
    1TYR    SC2 1095   5.837   0.891   5.077  0.1370  0.1528 -0.2304
    1TYR    SC3 1096   6.022   0.769   5.231  0.0482  0.2376 -0.0535
    2TYR     BB 1097   6.426   0.595   4.759 -0.3030  0.1034  0.2692
    2TYR    SC1 1098   6.588   0.669   5.009  0.0713 -0.2010 -0.0697
    2TYR    SC2 1099   6.599   0.891   5.164  0.0828 -0.0174 -0.3255
    2TYR    SC3 1100   6.533   0.653   5.273 -0.2227  0.1625 -0.0981
    3TYR     BB 1101   6.491   0.292   4.673 -0.0677  0.0253 -0.3727
    3TYR    SC1 1102   6.780   0.295   4.788 -0.1042  0.0006  0.0206
    3TYR    SC2 1103   6.914   0.375   5.008  0.1001  0.2268 -0.1793
    3TYR    SC3 1104   7.049   0.317   4.781 -0.0930 -0.1599 -0.2051
    1TYR     BB 1105   6.102   2.406   2.655  0.3380  0.0232  0.1938
    1TYR    SC1 1106   6.286   2.615   2.553 -0.0934 -0.0400  0.0246
    1TYR    SC2 1107   6.296   2.853   2.425  0.2463 -0.0625 -0.0020
    1TYR    SC3 1108   6.518   2.754   2.544 -0.0501 -0.0410  0.6185
    2TYR     BB 1109   5.824   2.312   2.632  0.3276  0.1168 -0.3951
    2TYR    SC1 1110   5.611   2.441   2.470  0.0306 -0.1472 -0.2515
    2TYR    SC2 1111   5.390   2.565   2.378  0.0535 -0.0720 -0.2070
    2TYR    SC3 1112   5.582   2.486   2.206  0.1945  0.2589 -0.2102
    3TYR     BB 1113   5.741   2.217   2.920 -0.1477  0.1654 -0.3077
    3TYR    SC1 1114   5.931   2.283   3.127  0.2181  0.1926 -0.0514
    3TYR    SC2 1115   6.153   2.206   3.260  0.0545  0.0218  0.1319
    3TYR    SC3 1116   5.953   2.328   3.392 -0.1532 -0.2378  0.0692
    1TYR     BB 1117   1.286   0.611   4.609 -0.0033  0.2183  0.2165
    1TYR    SC1 1118   1.204   0.783   4.866 -0.1599 -0.0902 -0.1278
    1TYR    SC2 1119   1.125   0.804   5.123 -0.1259 -0.0853 -0.1177
    1TYR    SC3 1120   1.291   0.989   5.018  0.2331 -0.3316 -0.0077
    2TYR     BB 1121   1.390   0.344   4.706  0.0313  0.1155 -0.0602
    2TYR    SC1 1122   1.665   0.199   4.705 -0.1376 -0.2561  0.1549
    2TYR    SC2 1123   1.821  -0.007   4.781  0.0781 -0.1512  0.0113
    2TYR    SC3 1124   1.912   0.171   4.600 -0.1980 -0.0654 -0.0492
    3TYR     BB 1125   1.094   0.116   4.692  0.1027  0.0352 -0.3643
    3TYR    SC1 1126   0.918   0.336   4.862 -0.0331 -0.1878  0.4070
    3TYR    SC2 1127   0.710   0.466   4.749  0.1357 -0.2245  0.0366
    3TYR    SC3 1128   0.768   0.505   5.010 -0.1334  0.0357  0.0641
    1TYR     BB 1129   6.869   2.105   3.923  0.0758 -0.0918 -0.3986
    1TYR    SC1 1130   6.862   2.424   3.891  0.0864  0.1362 -0.0293
    1TYR    SC2 1131   6.720   2.641   3.816  0.0261  0.0136 -0.2840
    1TYR    SC3 1132   6.925   2.667   3.990  0.0961  0.2929 -0.4018
    2TYR     BB 1133   6.891   1.880   3.746 -0.0760 -0.0660 -0.0434
    2TYR    SC1 1134   7.204   1.779   3.693 -0.1112 -0.0877  0.2881
    2TYR    SC2 1135   7.471   1.815   3.717 -0.0935  0.1665 -0.1559
    2TYR    SC3 1136   7.375   1.599   3.586 -0.1070  0.0889 -0.0194
    3TYR     BB 1137   6.633   1.640   3.704 -0.0646  0.1195  0.0349
    3TYR    SC1 1138   6.837   1.394   3.739  0.0917 -0.0496 -0.1569
    3TYR    SC2 1139   6.987   1.317   3.528 -0.0110 -0.4634 -0.0916
    3TYR    SC3 1140   7.101   1.345   3.771  0.1395  0.1625 -0.2122
    1TYR     BB 1141   6.572   4.418   1.521  0.0649 -0.0496  0.3740
    1TYR    SC1 1142   6.339   4.448   1.684 -0.1265  0.0740 -0.0297
    1TYR    SC2 1143   6.147   4.378   1.860  0.0761  0.1246  0.2187
    1TYR    SC3 1144   6.085   4.534   1.649 -0.1867 -0.0033  0.1952
    2TYR     BB 1145   6.735   4.280   1.841  0.0516  0.1875  0.1408
    2TYR    SC1 1146   7.067   4.300   1.774  0.1438 -0.3298 -0.1483
    2TYR    SC2 1147   7.289   4.420   1.676  0.0875 -0.3008 -0.2423
    2TYR    SC3 1148   7.311   4.204   1.836  0.1848 -0.2656 -0.2076
    3TYR     BB 1149   6.563   4.192   2.048  0.2041  0.0596 -0.2847
    3TYR    SC1 1150   6.644   4.170   2.357  0.1479 -0.0655  0.1520
    3TYR    SC2 1151   6.545   4.201   2.606 -0.2831  0.2505 -0.0426
    3TYR    SC3 1152   6.808   4.243   2.559 -0.2286  0.3683  0.3235
    1TYR     BB 1153   6.536   3.919   1.584  0.1700 -0.0615 -0.1052
    1TYR    SC1 1154   6.283   4.060   1.480 -0.0492 -0.0538 -0.2051
    1TYR    SC2 1155   6.017   4.100   1.470 -0.1025 -0.4215 -0.5588
    1TYR    SC3 1156   6.182   4.256   1.325 -0.0641  0.1081  0.0029
    2TYR     BB 1157   6.813   3.970   1.365  0.0239 -0.3476 -0.0972
    2TYR    SC1 1158   6.719   3.736   1.152  0.1492  0.0922  0.0259
    2TYR    SC2 1159   6.579   3.583   0.980  0.0197  0.3275 -0.0836
    2TYR    SC3 1160   6.770   3.750   0.888  0.2075  0.1863  0.0413
    3TYR     BB 1161   7.157   3.929   1.418  0.0629 -0.1260  0.0657
    3TYR    SC1 1162   7.165   3.637   1.283 -0.2548  0.3936 -0.0052
    3TYR    SC2 1163   6.998   3.439   1.206 -0.0056  0.0558  0.2811
    3TYR    SC3 1164   7.249   3.451   1.107 -0.0982  0.3967  0.0643
    1TYR     BB 1165   0.364   1.263   4.140  0.1084 -0.0326  0.2064
    1TYR    SC1 1166   0.521   1.548   4.058  0.1979 -0.0056 -0.0045
    1TYR    SC2 1167   0.726   1.710   3.992  0.1613 -0.0212 -0.1603
    1TYR    SC3 1168   0.612   1.730   4.236  0.1403  0.2051 -0.1858
    2TYR     BB 1169   0.529   1.065   3.898  0.0324  0.2134  0.0493
    2TYR    SC1 1170   0.336   0.915   3.719  0.0296  0.2285  0.0622
    2TYR    SC2 1171   0.396   0.688   3.585  0.0418  0.2988 -0.0532
    2TYR    SC3 1172   0.138   0.765   3.612  0.0287  0.2087  0.0917
    3TYR     BB 1173   0.867   1.144   3.868 -0.1974 -0.0438  0.0967
    3TYR    SC1 1174   0.907   1.293   4.106 -0.1376  0.0479 -0.2566
    3TYR    SC2 1175   0.903   1.407   4.351 -0.2285 -0.3321 -0.0725
    3TYR    SC3 1176   1.133   1.397   4.210 -0.1027 -0.3814  0.1321
    1TYR     BB 1177   2.129   7.412   3.415 -0.1638  0.2390  0.2023
    1TYR    SC1 1178   2.134   7.406   3.121  0.1370 -0.0286  0.0816
    1TYR    SC2 1179   1.985   7.336   2.907 -0.1122  0.1251  0.1993
    1TYR    SC3 1180   2.237   7.426   2.872  0.0232 -0.2968  0.0087
    2TYR     BB 1181   2.327   7.611   3.555 -0.1219  0.1855 -0.2282
    2TYR    SC1 1182   2.391   7.804   3.344 -0.0092 -0.0103  0.1611
    2TYR    SC2 1183   2.379   7.808   3.074 -0.3269 -0.0795  0.1694
    2TYR    SC3 1184   2.190   7.935   3.220 -0.2386 -0.1621  0.3603
    3TYR     BB 1185   2.304   7.559   3.853 -0.1231  0.1201  0.0419
    3TYR    SC1 1186   2.213   7.349   4.007 -0.0626 -0.1190  0.0290
    3TYR    SC2 1187   2.268   7.146   4.177 -0.1304 -0.1331  0.0346
    3TYR    SC3 1188   2.024   7.261   4.180 -0.0968 -0.0611  0.0212
    1TYR     BB 1189   1.850   6.821   5.218  0.1497 -0.0946 -0.0288
    1TYR    SC1 1190   1.716   7.082   5.258  0.0221  0.0841 -0.5365
    1TYR    SC2 1191   1.727   7.287   5.434  0.0157 -0.0496 -0.3774
    1TYR    SC3 1192   1.668   7.335   5.175 -0.0157  0.1452 -0.3364
    2TYR     BB 1193   1.919   6.700   4.971 -0.6349 -0.2599  0.0443
    2TYR    SC1 1194   2.244   6.697   4.961  0.0096  0.1451 -0.5536
    2TYR    SC2 1195   2.441   6.870   5.024 -0.0341  0.0220 -0.0220
    2TYR    SC3 1196   2.489   6.604   5.026 -0.1869 -0.0061  0.0519
    3TYR     BB 1197   1.732   6.630   4.772  0.1918  0.1975 -0.1127
    3TYR    SC1 1198   1.643   6.331   4.783  0.1329 -0.3449 -0.0312
    3TYR    SC2 1199   1.408   6.209   4.727 -0.1311 -0.0106  0.2877
    3TYR    SC3 1200   1.533   6.160   4.962  0.0545 -0.0877  0.1751
    4W        W 1201   1.047   3.410   5.450  0.1653 -0.0028 -0.1700
    5W        W 1202   3.376   4.584   5.026  0.5755 -0.0262 -0.1806
    6W        W 1203   0.495   0.035   0.677  0.0331  0.2177  0.0317
    7W        W 1204   5.507   7.271   0.418 -0.0732 -0.3198  0.0514
    8W        W 1205   1.052   4.401   6.585 -0.3362  0.0501  0.0902
    9W        W 1206   2.365   2.015   1.010  0.0749  0.1635  0.1146
   10W        W 1207   6.644   1.098   0.089  0.1236 -0.3096 -0.1617
   11W        W 1208   7.249   4.174   6.134  0.1914  0.1967 -0.0669
   12W        W 1209   7.264   0.473   5.494 -0.0840  0.3234 -0.0992
   13W        W 1210   5.710   6.051   5.204  0.3247 -0.1444 -0.0743
   14W        W 1211   2.598   0.112   0.323  0.2634 -0.0097  0.0693
   15W        W 1212   0.965   7.417   0.304 -0.1165  0.2217 -0.0243
   16W        W 1213   0.350   4.331   6.928 -0.1881  0.1318  0.1859
   17W        W 1214   0.485   2.250   6.001 -0.2617 -0.2344 -0.0977
   18W        W 1215   3.274   1.516   5.389  0.1573 -0.1675 -0.5524
   19W        W 1216   0.569   1.306   2.502  0.2861 -0.3782  0.0565
   20W        W 1217   0.832   5.878   1.947  0.3004 -0.0118  0.0892
   21W        W 1218   7.623   6.200   1.427 -0.2338 -0.1357  0.1320
   22W        W 1219   2.798   4.242   5.886 -0.0430  0.1458 -0.0750
   23W        W 1220   4.740   2.536   3.128 -0.5062 -0.0720 -0.0332
   24W        W 1221   0.629   1.091   1.553  0.0550  0.1891  0.0687
   25W        W 1222   2.605   7.043   6.078  0.0019 -0.0429  0.0119
   26W        W 1223   3.716   5.141   6.466 -0.1291  0.0063  0.3410
   27W        W 1224   4.953   6.355   2.854  0.1078 -0.3250  0.0895
   28W        W 1225   5.195   6.088   2.007 -0.0802 -0.0709  0.2908
   29W        W 1226   3.360   1.858   2.305 -0.2944  0.1000  0.1149
   30W        W 1227   0.426   0.385   5.936  0.0965  0.0566 -0.0749
   31W        W 1228   6.332   2.432   6.209 -0.0981  0.3314  0.0005
   32W        W 1229   1.158   6.592   5.890 -0.1293  0.1488  0.0097
   33W        W 1230   5.391   5.836   4.904 -0.2605  0.1328  0.2145
   34W        W 1231   0.271   7.070   3.620  0.0794 -0.0183  0.0349
   35W        W 1232   1.773   1.885   4.998  0.1367 -0.0836 -0.4056
   36W        W 1233   3.605   2.662   7.237 -0.1405  0.1162 -0.0017
   37W        W 1234   3.886   2.701   2.907  0.0380 -0.2327  0.0283
   38W        W 1235   4.062   3.058   7.477 -0.4843 -0.4370  0.0528
   39W        W 1236   1.049   3.335   3.905 -0.0480 -0.1068 -0.0866
   40W        W 1237   5.053   4.637   6.246  0.2366 -0.3970  0.0860
   41W        W 1238   3.987   6.266   0.245  0.5040  0.2784 -0.0191
   42W        W 1239   4.797   1.796   7.093  0.0858 -0.3368  0.0683
   43W        W 1240   3.374   4.040   3.677 -0.1259 -0.0197  0.0394
   44W        W 1241   3.234   0.790   7.444  0.0746  0.3961  0.1021
   45W        W 1242   4.462   5.878   2.084 -0.2358  0.3834 -0.0180
   46W        W 1243   2.027   0.714   0.354  0.3138 -0.0922 -0.2173
   47W        W 1244   0.150   5.506   0.019 -0.1377 -0.1794 -0.0883
   48W        W 1245   0.210   3.383   4.193  0.0062  0.0444 -0.1693
   49W        W 1246   0.076   5.548   6.271 -0.2926 -0.2259 -0.0964
   50W        W 1247   7.488   4.014   0.474 -0.0766 -0.4183 -0.1786
   51W        W 1248   1.750   7.151   6.294 -0.1556 -0.1887  0.0906
   52W        W 1249   3.765   5.169   3.038 -0.1271 -0.1145 -0.3339
   53W        W 1250   5.702   4.440   3.629  0.1631  0.1275 -0.1922
   54W        W 1251   6.929   6.629   7.522  0.0104  0.0789  0.0717
   55W        W 1252   1.254   6.030   6.786  0.0950  0.1354  0.2909
   56W        W 1253   0.135   2.954   4.470  0.2142  0.0244  0.1977
   57W        W 1254   7.206   3.972   5.270 -0.0557  0.2322 -0.5615
   58W        W 1255   4.377   5.412   4.490  0.1420  0.0084  0.0073
   59W        W 1256   3.837   2.986   1.947 -0.0849  0.2259 -0.1944
   60W        W 1257   0.584   6.775   0.359  0.2495  0.1257  0.1679
   61W        W 1258   4.729   2.053   6.679  0.0700  0.2094 -0.4508
   62W        W 1259   5.885   7.550   5.661  0.4268 -0.3202  0.3789
   63W        W 1260   3.595   6.387   1.811  0.0921  0.1015 -0.0694
   64W        W 1261   6.451   0.247   0.822  0.3366  0.1291 -0.0385
   65W        W 1262   0.575   5.078   4.235 -0.1939 -0.5373  0.1084
   66W        W 1263   5.778   3.931   6.556 -0.1302  0.0218 -0.0384
   67W        W 1264   1.004   1.149   5.436  0.1172 -0.2056 -0.0897
   68W        W 1265   4.896   1.339   6.930  0.0308 -0.0674 -0.4939
   69W        W 1266   5.236   6.530   0.385 -0.0049  0.3028  0.2782
   70W        W 1267   0.751   7.269   2.652  0.3926  0.2076  0.0369
   71W        W 1268   0.404   5.400   1.824  0.1216 -0.1383  0.1831
   72W        W 1269   3.794   2.512   5.230  0.1550  0.2143 -0.1505
   73W        W 1270   1.089   4.615   4.975  0.3205  0.0596 -0.3015
   74W        W 1271   2.274   0.831   0.854  0.1120  0.0242  0.1184
   75W        W 1272   0.632   3.464   0.673 -0.1741  0.0666  0.2115
   76W        W 1273   1.144   1.462   6.093  0.0030 -0.2320 -0.2188
   77W        W 1274   5.338   6.899   1.722 -0.0363 -0.0567 -0.0423
   78W        W 1275   1.634   7.624   3.206 -0.1308  0.1074 -0.0443
   79W        W 1276   1.327   7.561   6.130 -0.0109 -0.1470  0.2313
   80W        W 1277   3.372   5.216   2.290  0.0473  0.3917  0.1766
   81W        W 1278   3.709   7.588   1.609 -0.0991  0.1014  0.0483
   82W        W 1279   6.324   4.918   3.143  0.2780 -0.0795  0.0414
   83W        W 1280   2.640   3.381   0.992  0.0705  0.1100  0.1142
   84W        W 1281   4.681   4.182   3.610 -0.0873  0.3569  0.0956
   85W        W 1282   4.197   0.411   5.360 -0.1612 -0.0297  0.0942
   86W        W 1283   7.262   0.910   6.928  0.0835  0.1031 -0.0385
   87W        W 1284   6.921   3.170   4.052  0.0070  0.1517 -0.0853
   88W        W 1285   6.662   2.929   0.159 -0.1573  0.0964  0.3117
   89W        W 1286   2.131   3.713   6.152 -0.1490  0.1550  0.1891
   90W        W 1287   3.760   5.694   5.414 -0.2140 -0.0321 -0.0508
   91W        W 1288   2.626   2.816   7.193 -0.0667  0.0553  0.2470
   92W        W 1289   5.819   5.013   5.672 -0.2595  0.1524  0.0377
   93W        W 1290   5.272   1.082   5.976 -0.0206 -0.2002 -0.0193
   94W        W 1291   4.339   6.957   4.898  0.0730 -0.3157 -0.1353
   95W        W 1292   2.747   1.337   6.209  0.1091  0.0131 -0.0945
   96W        W 1293   2.580   0.273   1.738 -0.1471 -0.0980 -0.1629
   97W        W 1294   2.404   5.748   5.250 -0.2486  0.0262  0.5794
   98W        W 1295   2.231   6.857   6.397 -0.0623 -0.0388 -0.1664
   99W        W 1296   4.556   1.208   7.337  0.1906 -0.1586  0.0877
  100W        W 1297   3.470   4.393   4.192  0.2488 -0.3474  0.0568
  101W        W 1298   1.729   5.306   5.138 -0.3471 -0.0241  0.3272
  102W        W 1299   6.254   1.364   5.806 -0.0318 -0.0113  0.0634
  103W        W 1300   6.113   0.647   0.927 -0.1618  0.1930  0.1583
  104W        W 1301   3.623   3.054   3.609 -0.0400 -0.4412  0.0919
  105W        W 1302   0.365   4.867   3.775 -0.2597 -0.2431 -0.2832
  106W        W 1303   5.040   0.456   0.535  0.1342  0.1952 -0.0513
  107W        W 1304   2.547   3.776   4.867  0.0628 -0.3662 -0.0446
  108W        W 1305   7.002   2.539   6.970  0.2259 -0.1626 -0.0999
  109W        W 1306   7.241   2.602   5.508  0.1222  0.1562 -0.0926
  110W        W 1307   1.628   2.770   1.156 -0.4038  0.0194 -0.0544
  111W        W 1308   7.208   7.636   1.757  0.2522  0.0094  0.0057
  112W        W 1309   5.454   5.918   0.926  0.2000  0.0404 -0.2680
  113W        W 1310   3.118   5.183   1.450 -0.2538  0.1710 -0.0987
  114W        W 1311   5.342   0.081   0.646 -0.0332  0.2287  0.0110
  115W        W 1312   1.419   4.098   3.337  0.2392 -0.0881 -0.0288
  116W        W 1313   3.976   1.933   1.345 -0.1166 -0.1294 -0.0982
  117W        W 1314   4.281   7.465   3.548  0.1890  0.0672  0.2075
  118W        W 1315   3.913   1.429   6.799 -0.0996 -0.1569  0.0003
  119W        W 1316   3.165   3.854   6.623  0.0731 -0.1482  0.0528
  120W        W 1317   0.299   3.759   0.452  0.1801  0.2285 -0.1051
  121W        W 1318   3.766   4.581   4.721 -0.1265 -0.1541  0.1153
  122W        W 1319   0.947   6.999   7.660 -0.3159 -0.1633 -0.0579
  123W        W 1320   6.861   6.032   0.373 -0.0552  0.0913 -0.3733
  124W        W 1321   0.436   0.900   5.926  0.1935  0.1266  0.0455
  125W        W 1322   1.780   0.907   2.258 -0.1793 -0.5257  0.0355
  126W        W 1323   2.297   1.451   5.700  0.0330 -0.2269  0.1347
  127W        W 1324   4.323   5.816   6.147 -0.2090  0.1392 -0.0819
  128W        W 1325   2.480   3.979   4.148  0.0317 -0.3774 -0.0559
  129W        W 1326   0.792   4.109   5.685 -0.0577 -0.0590 -0.0040
  130W        W 1327   1.539   5.257   4.590  0.1666 -0.3170  0.0535
  131W        W 1328   5.633   3.948   3.799  0.0572  0.1403 -0.2537
  132W        W 1329   6.286   7.490   5.434  0.1857  0.2267 -0.1715
  133W        W 1330   0.690   2.250   5.543 -0.2729  0.3198  0.0765
  134W        W 1331   3.083   3.925   3.312  0.0880 -0.1065  0.0573
  135W        W 1332   4.275   2.538   3.130  0.1021 -0.1541 -0.0818
  136W        W 1333   0.264   4.066   5.645  0.3954  0.1353 -0.0669
  137W        W 1334   1.426   4.073   2.386 -0.3884 -0.1201 -0.0236
  138W        W 1335   6.186   0.347   2.486 -0.1691  0.1313  0.1046
  139W        W 1336   4.901   7.049   1.532  0.0082 -0.0811 -0.1345
  140W        W 1337   3.565   2.631   4.696 -0.1580 -0.4159  0.0886
  141W        W 1338   1.659   3.792   6.319 -0.2132 -0.0590 -0.2102
  142W        W 1339   2.429   3.252   3.472  0.1113 -0.0096 -0.2553
  143W        W 1340   0.652   4.362   2.856 -0.1751  0.2706 -0.0456
  144W        W 1341   5.886   7.204   6.451  0.1166  0.2320  0.3833
  145W        W 1342   4.861   3.997   2.901  0.1199 -0.3875 -0.3110
  146W        W 1343   0.544   3.457   6.867 -0.0166  0.0035 -0.2697
  147W        W 1344   5.700   1.692   7.258  0.1148 -0.1915  0.2189
  148W        W 1345   1.857   5.612   1.720 -0.2492  0.0829  0.1421
  149W        W 1346   1.391   1.122   2.508  0.1576  0.1264 -0.4682
  150W        W 1347   0.826   3.512   0.222 -0.0945  0.1688 -0.3427
  151W        W 1348   7.052   2.759   4.924 -0.2956 -0.1544 -0.0216
  152W        W 1349   1.118   1.016   5.925 -0.0527  0.0725  0.1486
  153W        W 1350   7.451   4.502   0.453  0.2163 -0.0365  0.1894
  154W        W 1351   6.903   6.979   2.378 -0.0016  0.0618  0.3012
  155W        W 1352   4.770   4.508   0.685  0.1055  0.0878  0.0350
  156W        W 1353   3.918   0.413   2.532  0.1036  0.0593 -0.2138
  157W        W 1354   2.548   0.780   0.346 -0.0669  0.0688  0.3832
  158W        W 1355   7.239   5.418   6.222  0.0814 -0.0917  0.0342
  159W        W 1356   1.960   5.978   2.060 -0.1061  0.1783 -0.0292
  160W        W 1357   4.961   0.847   5.221  0.0033 -0.1176 -0.3175
  161W        W 1358   3.824   5.418   0.780  0.0761 -0.3487  0.0585
  162W        W 1359   3.694   3.994   7.331  0.0637  0.1105 -0.0903
  163W        W 1360   1.498   2.219   6.764 -0.3730  0.3438 -0.1149
  164W        W 1361   2.685   3.654   5.968 -0.2322 -0.2786 -0.2660
  165W        W 1362   6.380   2.180   6.817 -0.2861  0.2152 -0.0009
  166W        W 1363   1.533   0.791   6.126  0.1111 -0.2664 -0.0791
  167W        W 1364   2.435   0.989   7.151 -0.0646 -0.1540  0.1110
  168W        W 1365   5.737   4.043   4.401 -0.1225 -0.0121 -0.1150
  169W        W 1366   4.579   6.631   5.240 -0.1082 -0.0420  0.0465
  170W        W 1367   7.055   5.858   3.459  0.0194 -0.0361  0.0057
  171W        W 1368   6.553   5.529   5.260  0.0993  0.1571 -0.2213
  172W        W 1369   2.930   3.246   6.135 -0.2827 -0.1340 -0.2683
  173W        W 1370   0.951   5.226   7.430  0.1179  0.0104 -0.4628
  174W        W 1371   6.839   6.293   1.712 -0.0857 -0.1557  0.1402
  175W        W 1372   3.441   1.646   0.792 -0.1524  0.0593  0.1133
  176W        W 1373   1.449   2.571   1.561  0.0026  0.2148 -0.0694
  177W        W 1374   4.720   3.961   7.269 -0.0643  0.0987 -0.2218
  178W        W 1375   4.252   1.319   6.139  0.1648  0.0938  0.0787
  179W        W 1376   0.890   1.393   1.884 -0.1614  0.3543  0.3774
  180W        W 1377   0.603   4.875   7.348  0.1819  0.2053  0.0141
  181W        W 1378   1.185   3.748   2.060 -0.0226  0.1331  0.0568
  182W        W 1379   6.682   7.426   3.704 -0.1170 -0.0788  0.0192
  183W        W 1380   0.974   3.706   2.484 -0.1109 -0.0260 -0.3296
  184W        W 1381   4.493   0.235   1.430 -0.1760 -0.2065  0.0737
  185W        W 1382   5.448   0.060   1.607  0.1685 -0.0313 -0.2737
  186W        W 1383   4.123   4.567   0.760 -0.0243  0.0160 -0.0328
  187W        W 1384   3.972   4.313   6.550 -0.0365 -0.0188 -0.2360
  188W        W 1385   6.375   5.899   3.027 -0.0350 -0.0280 -0.3426
  189W        W 1386   2.227   4.149   3.738  0.0548  0.1720  0.2506
  190W        W 1387   5.034   6.306   6.503 -0.4207 -0.4097  0.1513
  191W        W 1388   4.830   7.407   6.270 -0.0440  0.0476  0.2063
  192W        W 1389   1.294   2.457   3.613 -0.0450 -0.0291  0.1691
  193W        W 1390   5.176   4.756   0.538  0.0201  0.1857  0.0331
  194W        W 1391   5.630   5.297   4.926  0.0249  0.1776  0.1075
  195W        W 1392   1.524   2.803   6.122 -0.0461  0.3515 -0.4986
  196W        W 1393   3.422   3.228   0.579 -0.1757 -0.0575  0.1502
  197W        W 1394   6.131   0.965   1.435 -0.0569  0.0124  0.0167
  198W        W 1395   2.074   1.539   1.015 -0.0859  0.0663  0.2336
  199W        W 1396   0.232   1.719   1.605 -0.0126  0.1010 -0.0600
  200W        W 1397   3.292   6.914   7.277 -0.0830 -0.0211 -0.0634
  201W        W 1398   4.927   3.624   5.979  0.2595 -0.3274  0.1651
  202W        W 1399   2.763   2.215   2.661  0.3963 -0.0610  0.0217
  203W        W 1400   2.247   0.274   2.077 -0.0072 -0.0547  0.0388
  204W        W 1401   6.601   0.568   5.977  0.1918 -0.1240 -0.1449
  205W        W 1402   5.279   4.634   7.206 -0.1822 -0.1682 -0.2266
  206W        W 1403   0.454   5.446   7.263 -0.0868  0.0560 -0.3344
  207W        W 1404   4.430   0.755   1.377 -0.5463  0.0014 -0.0512
  208W        W 1405   4.705   6.716   3.171  0.0176 -0.0011 -0.0010
  209W        W 1406   0.142   2.829   1.153  0.0443 -0.0855 -0.1256
  210W        W 1407   7.171   6.913   1.214  0.2257 -0.1716 -0.0345
  211W        W 1408   3.487   0.546   2.661  0.1971 -0.0982 -0.0370
  212W        W 1409   1.506   5.718   0.142  0.1615  0.0422 -0.4476
  213W        W 1410   3.903   3.186   1.479 -0.0340  0.1934 -0.3284
  214W        W 1411   7.215   4.321   5.644  0.0523  0.0769 -0.1871
  215W        W 1412   7.288   1.054   5.921 -0.3157  0.0197  0.2302
  216W        W 1413   2.364   3.820   2.825  0.4223  0.1234  0.1698
  217W        W 1414   3.276   6.532   2.172  0.0543  0.1521  0.1484
  218W        W 1415   5.627   7.270   1.854 -0.0857 -0.2817 -0.3224
  219W        W 1416   2.011   2.414   1.081 -0.4576 -0.2966 -0.2655
  220W        W 1417   7.266   7.009   2.888 -0.0473 -0.0191  0.2440
  221W        W 1418   1.033   0.895   7.273 -0.3976 -0.3091 -0.3238
  222W        W 1419   2.548   3.576   7.521 -0.1475 -0.0299  0.2102
  223W        W 1420   5.154   7.301   1.948  0.2067  0.2216 -0.1236
  224W        W 1421   4.933   5.620   2.109  0.4155  0.1740 -0.0734
  225W        W 1422   2.862   5.472   4.960 -0.2650  0.2932 -0.0349
  226W        W 1423   5.066   7.133   4.063 -0.0884  0.0291  0.0175
  227W        W 1424   0.217   5.662   0.907 -0.1273  0.1186  0.2415
  228W        W 1425   4.271   0.184   5.782  0.0455  0.1357 -0.0221
  229W        W 1426   3.224   4.196   7.318  0.0066  0.0037 -0.1087
  230W        W 1427   4.224   1.951   1.776  0.0047 -0.0239 -0.0137
  231W        W 1428   2.138   5.410   1.240  0.2465  0.1636 -0.1929
  232W        W 1429   2.061   7.243   1.706  0.2080 -0.0900 -0.1630
  233W        W 1430   4.478   2.683   7.409  0.1169 -0.0043  0.0251
  234W        W 1431   2.264   4.832   6.446 -0.3518  0.2100 -0.0201
  235W        W 1432   6.988   4.855   4.829  0.4838 -0.1454 -0.0968
  236W        W 1433   3.400   4.968   4.722  0.2154 -0.3661  0.3661
  237W        W 1434   0.715   2.728   3.762  0.2262  0.3451  0.0452
  238W        W 1435   7.154   7.616   3.436 -0.2897  0.0396 -0.1633
  239W        W 1436   2.334   2.710   5.557 -0.2529  0.3327 -0.1876
  240W        W 1437   4.500   7.168   5.352  0.0828  0.0186 -0.1246
  241W        W 1438   4.220   2.135   0.926  0.0605  0.3147 -0.2127
  242W        W 1439   3.742   5.791   7.295  0.0678  0.2007 -0.0986
  243W        W 1440   0.497   0.037   6.664  0.0383  0.2747 -0.0040
  244W        W 1441   0.722   6.946   1.957  0.0849  0.1359  0.4027
  245W        W 1442   0.207   3.098   6.707  0.0180 -0.1242  0.2829
  246W        W 1443   5.689   4.816   7.520 -0.1247 -0.2813 -0.1392
  247W        W 1444   4.001   6.056   1.893 -0.1641 -0.0551 -0.0921
  248W        W 1445   2.362   2.060   2.402 -0.0443 -0.1493  0.2097
  249W        W 1446   2.124   5.160   6.094 -0.0090 -0.0686  0.2072
  250W        W 1447   3.660   4.288   0.598  0.3376  0.2933  0.1088
  251W        W 1448   1.074   2.197   0.709 -0.0089  0.2067 -0.2964
  252W        W 1449   0.982   1.378   7.471  0.0328 -0.2532 -0.0060
  253W        W 1450   5.965   4.856   3.623 -0.4936  0.2179  0.0624
  254W        W 1451   1.753   3.625   4.374  0.0330 -0.2223 -0.2509
  255W        W 1452   3.708   2.119   0.124  0.0680  0.2653 -0.1128
  256W        W 1453   1.587   0.100   0.591 -0.1593  0.0544 -0.0061
  257W        W 1454   4.710   1.018   1.092  0.0426  0.0090 -0.2009
  258W        W 1455   0.007   6.741   2.566  0.3349 -0.1070  0.3605
  259W        W 1456   4.888   6.296   5.722 -0.0494 -0.1284  0.1262
  260W        W 1457   1.415   0.854   1.173 -0.1024 -0.1348  0.0332
  261W        W 1458   5.561   7.393   2.326 -0.0692 -0.0984 -0.0739
  262W        W 1459   7.362   6.414   2.785  0.2587 -0.1728 -0.0086
  263W        W 1460   6.398   0.474   1.365 -0.0051  0.2589 -0.0456
  264W        W 1461   2.516   4.738   4.523 -0.0024  0.0458 -0.0155
  265W        W 1462   2.843   0.252   2.234  0.1257 -0.2222  0.5377
  266W        W 1463   4.270   5.037   7.246  0.1885  0.3506 -0.3943
  267W        W 1464   2.511   2.599   3.072 -0.0103 -0.1350  0.3457
  268W        W 1465   1.812   7.420   0.252 -0.2722 -0.0820  0.1728
  269W        W 1466   0.851   0.384   7.253  0.0462 -0.1875 -0.0513
  270W        W 1467   2.332   6.336   6.554 -0.2635  0.1410 -0.4058
  271W        W 1468   1.962   1.264   7.154 -0.0897 -0.0133  0.0839
  272W        W 1469   0.037   6.237   2.361 -0.0774 -0.1242 -0.0540
  273W        W 1470   4.826   4.323   2.480  0.0118  0.4470  0.1418
  274W        W 1471   5.558   5.203   2.702 -0.1386 -0.2767 -0.3543
  275W        W 1472   5.137   1.968   6.410  0.1005  0.0288 -0.1978
  276W        W 1473   6.250   4.743   0.015  0.1873 -0.1499  0.1498
  277W        W 1474   1.756   6.093   0.260 -0.3152  0.2512  0.1317
  278W        W 1475   5.951   6.422   7.568 -0.0751 -0.1039 -0.0063
  279W        W 1476   2.662   0.732   7.486 -0.1650  0.1294  0.4408
  280W        W 1477   4.975   3.192   1.259 -0.2555  0.2191  0.1772
  281W        W 1478   2.759   2.867   0.699 -0.4154  0.1881 -0.1952
  282W        W 1479   5.163   3.358   6.871 -0.1014  0.2580  0.2353
  283W        W 1480   7.454   5.670   1.878 -0.2641 -0.2300 -0.2079
  284W        W 1481   7.609   2.445   6.898  0.0891 -0.0626 -0.2647
  285W        W 1482   2.681   4.503   2.815  0.2189 -0.2336  0.0962
  286W        W 1483   3.993   0.215   6.340 -0.1231  0.0010 -0.0127
  287W        W 1484   1.484   1.477   3.312  0.0192  0.1223  0.0742
  288W        W 1485   5.339   4.213   6.691  0.0849 -0.0053  0.3390
  289W        W 1486   1.449   4.330   1.931 -0.0057 -0.3370 -0.0029
  290W        W 1487   4.396   5.919   4.291 -0.3715  0.2486  0.4581
  291W        W 1488   2.780   2.343   7.344 -0.2080 -0.3086  0.2061
  292W        W 1489   5.836   7.174   5.342  0.3624 -0.1919 -0.0889
  293W        W 1490   7.150   7.057   5.423  0.4242 -0.1919  0.0228
  294W        W 1491   4.482   4.861   0.978  0.0961  0.0362  0.2451
  295W        W 1492   4.128   7.561   5.393  0.4070 -0.0025  0.0915
  296W        W 1493   4.672   0.200   3.363 -0.0729 -0.2760  0.1227
  297W        W 1494   5.171   1.888   0.281 -0.1694 -0.1339 -0.3668
  298W        W 1495   6.956   3.049   6.383  0.0451 -0.1371  0.1513
  299W        W 1496   4.368   3.577   5.399  0.2919  0.0005 -0.2236
  300W        W 1497   1.389   3.840   0.115  0.2777 -0.0875 -0.2180
  301W        W 1498   4.518   6.640   2.529  0.2112 -0.2878  0.3937
  302W        W 1499   0.473   1.821   2.515 -0.2633 -0.3811 -0.0911
  303W        W 1500   4.077   0.680   7.037 -0.3160 -0.1370  0.5331
  304W        W 1501   5.036   0.525   3.168 -0.2629 -0.2329  0.1184
  305W        W 1502   0.211   3.541   5.629 -0.1216  0.0294  0.0867
  306W        W 1503   3.734   0.577   2.062 -0.1060 -0.1214  0.1792
  307W        W 1504   6.640   5.780   4.333 -0.1429 -0.0767  0.1734
  308W        W 1505   6.420   6.149   0.898 -0.1954  0.0092  0.1966
  309W        W 1506   7.628   6.190   4.805 -0.1630  0.0570  0.1668
  310W        W 1507   5.351   0.082   7.206  0.1074 -0.0075 -0.3637
  311W        W 1508   5.138   0.186   6.213  0.2936 -0.1878 -0.0892
  312W        W 1509   4.027   6.558   5.549 -0.0023  0.0303  0.1443
  313W        W 1510   0.551   2.483   0.089 -0.0857 -0.0855 -0.1390
  314W        W 1511   0.027   0.757   5.160  0.0068 -0.2239  0.0796
  315W        W 1512   0.015   5.031   4.190 -0.0052 -0.3129  0.0668
  316W        W 1513   3.595   3.612   6.502 -0.2298  0.1465  0.0342
  317W        W 1514   3.557   6.270   7.590 -0.1154  0.0055  0.3111
  318W        W 1515   2.626   4.464   0.510  0.1866  0.2303  0.1331
  319W        W 1516   6.869   7.177   6.876  0.2213  0.1111 -0.3269
  320W        W 1517   0.322   2.645   0.661  0.1535  0.2652 -0.0065
  321W        W 1518   3.707   1.436   1.246 -0.2186 -0.1950 -0.0468
  322W        W 1519   6.307   5.585   4.672 -0.1159  0.0346  0.1123
  323W        W 1520   1.171   0.509   0.962  0.3054 -0.0624 -0.1715
  324W        W 1521   2.273   3.622   3.891  0.2166  0.1285 -0.1126
  325W        W 1522   0.285   0.276   1.799 -0.0263  0.1207 -0.3627
  326W        W 1523   6.452   5.113   5.908 -0.4603 -0.2483 -0.1316
  327W        W 1524   3.236   5.856   6.419  0.0517  0.0849  0.0658
  328W        W 1525   0.767   6.769   2.423 -0.2790  0.0502  0.1341
  329W        W 1526   0.281   7.420   4.536  0.1170  0.1782  0.1973
  330W        W 1527   2.805   4.062   6.902  0.0066 -0.2145  0.2543
  331W        W 1528   5.991   6.676   4.105  0.3741 -0.0962 -0.2536
  332W        W 1529   4.006   5.288   6.821 -0.0531 -0.0361 -0.1196
  333W        W 1530   2.633   1.276   0.316 -0.1582  0.3339  0.4614
  334W        W 1531   3.038   1.937   6.695  0.2166  0.4106  0.2600
  335W        W 1532   4.371   6.815   0.899 -0.1325 -0.0243 -0.2180
  336W        W 1533   7.443   3.419   3.235 -0.1548  0.1614 -0.0536
  337W        W 1534   0.392   0.503   7.536 -0.1062  0.1757 -0.2492
  338W        W 1535   7.142   3.134   5.376  0.0247  0.0941 -0.0810
  339W        W 1536   5.407   0.653   7.415 -0.2713  0.0237 -0.1428
  340W        W 1537   1.498   5.960   0.984  0.2325  0.1287 -0.3010
  341W        W 1538   4.919   2.750   2.641  0.2583  0.2717 -0.3345
  342W        W 1539   6.356   1.561   0.893  0.0553 -0.0100 -0.2101
  343W        W 1540   1.531   4.386   6.358  0.0540  0.0820 -0.0009
  344W        W 1541   2.805   4.591   7.111 -0.3512 -0.0936  0.0320
  345W        W 1542   1.077   6.598   0.293 -0.0714 -0.3165  0.1897
  346W        W 1543   2.686   5.772   6.724  0.0271 -0.0126  0.0432
  347W        W 1544   0.403   6.460   1.352 -0.0755 -0.2277  0.1247
  348W        W 1545   1.124   5.749   2.503  0.3519  0.1280 -0.2793
  349W        W 1546   1.306   2.098   4.962 -0.1020 -0.0028 -0.3231
  350W        W 1547   5.203   0.699   1.000  0.0298  0.4043  0.1811
  351W        W 1548   4.624   0.021   5.428  0.1521  0.3324  0.0788
  352W        W 1549   4.641   5.596   2.516  0.0497 -0.1793 -0.1407
  353W        W 1550   3.858   5.190   4.542 -0.2314 -0.2330  0.1505
  354W        W 1551   3.354   2.471   7.663  0.0391  0.0209 -0.1992
  355W        W 1552   5.960   6.327   2.755 -0.1343  0.0363  0.0179
  356W        W 1553   4.889   7.546   7.119 -0.0272 -0.1482 -0.0249
  357W        W 1554   3.705   5.591   2.132  0.2166  0.0685 -0.2915
  358W        W 1555   3.891   5.831   3.742 -0.1281 -0.0165 -0.2347
  359W        W 1556   7.060   0.335   3.130 -0.3169  0.0225 -0.0035
  360W        W 1557   6.468   1.392   1.399 -0.2280 -0.0171 -0.3042
  361W        W 1558   7.293   5.230   7.564 -0.4345 -0.3607  0.0042
  362W        W 1559   5.496   6.489   1.953  0.2431  0.1308  0.2355
  363W        W 1560   5.232   6.950   0.102  0.1075 -0.0393 -0.1795
  364W        W 1561   3.359   5.314   7.291 -0.3738 -0.2888 -0.2907
  365W        W 1562   2.955   5.127   4.573  0.1864  0.2149 -0.0047
  366W        W 1563   6.744   7.527   0.920  0.2007  0.0216 -0.0195
  367W        W 1564   6.419   5.674   0.260  0.0745  0.1906  0.2512
  368W        W 1565   4.614   0.423   5.005  0.1547 -0.1597 -0.0622
  369W        W 1566   3.078   3.501   5.733 -0.1031  0.1337 -0.0833
  370W        W 1567   1.444   6.680   7.547  0.0281 -0.0580 -0.2032
  371W        W 1568   7.590   4.464   0.947 -0.0451 -0.0050  0.1150
  372W        W 1569   3.899   4.144   4.910  0.0357  0.1211 -0.0174
  373W        W 1570   5.804   5.817   1.349  0.0054  0.1407  0.1106
  374W        W 1571   6.454   5.134   4.994  0.0153 -0.0080 -0.2149
  375W        W 1572   0.868   1.874   1.741 -0.0463 -0.0905 -0.1127
  376W        W 1573   2.559   4.322   1.000  0.1188 -0.0403  0.1975
  377W        W 1574   3.489   4.172   6.398 -0.1540  0.1391  0.0466
  378W        W 1575   4.629   3.830   1.796 -0.0631  0.1481 -0.2475
  379W        W 1576   3.398   3.022   1.488  0.1063 -0.0821 -0.0060
  380W        W 1577   6.012   4.213   6.913  0.0296  0.1008 -0.0663
  381W        W 1578   4.411   0.235   0.016 -0.1188  0.2757 -0.0838
  382W        W 1579   5.223   5.843   3.660 -0.0816 -0.1363 -0.4777
  383W        W 1580   5.132   4.054   5.286  0.0562 -0.0298 -0.0363
  384W        W 1581   3.848   1.228   5.768 -0.2682 -0.0716  0.1759
  385W        W 1582   2.873   5.123   7.145 -0.0437  0.3500 -0.2281
  386W        W 1583   2.698   3.815   3.609  0.2311  0.4333 -0.0422
  387W        W 1584   3.287   5.743   6.920  0.0336 -0.0103 -0.2043
  388W        W 1585   3.674   0.161   4.849 -0.2049 -0.2998  0.3622
  389W        W 1586   6.269   2.317   4.790 -0.0097  0.1266 -0.0659
  390W        W 1587   5.035   3.117   5.630 -0.2896 -0.1106 -0.4386
  391W        W 1588   0.487   6.014   4.984  0.0545 -0.0322 -0.1560
  392W        W 1589   2.952   3.159   5.193  0.1532  0.2405  0.2339
  393W        W 1590   2.695   3.608   6.555  0.1676 -0.0613 -0.2289
  394W        W 1591   6.280   1.057   2.289 -0.1500  0.2179 -0.0768
  395W        W 1592   0.470   5.766   6.477 -0.1420  0.0334  0.1036
  396W        W 1593   3.249   1.382   6.067 -0.0727  0.3352  0.1359
  397W        W 1594   0.124   3.123   0.683 -0.3508 -0.0971  0.2819
  398W        W 1595   7.490   3.102   4.888  0.0787 -0.1173 -0.1142
  399W        W 1596   3.594   1.678   5.797 -0.0872  0.1249  0.1787
  400W        W 1597   6.918   5.888   5.448 -0.1838  0.0023 -0.1255
  401W        W 1598   6.899   6.243   3.119 -0.0652  0.2915 -0.0023
  402W        W 1599   1.053   7.062   3.081  0.2093  0.0881  0.0970
  403W        W 1600   2.478   4.912   7.466 -0.5773  0.0337  0.1576
  404W        W 1601   6.772   6.716   5.326  0.1564  0.2257  0.0103
  405W        W 1602   4.422   6.289   5.975  0.1227  0.1250  0.0192
  406W        W 1603   7.376   2.677   0.563 -0.1773 -0.1008 -0.0429
  407W        W 1604   5.538   2.582   0.581 -0.2556 -0.1101  0.0040
  408W        W 1605   1.061   0.627   2.707  0.1993  0.1266  0.1510
  409W        W 1606   0.640   0.744   5.501  0.2537 -0.2129  0.2998
  410W        W 1607   7.317   0.424   3.696 -0.1290 -0.0097 -0.1187
  411W        W 1608   5.422   4.830   5.980  0.1087 -0.1770  0.0782
  412W        W 1609   6.912   2.683   0.659 -0.2161 -0.1525 -0.1031
  413W        W 1610   5.433   2.602   6.908  0.1588  0.0512 -0.0149
  414W        W 1611   7.338   3.350   3.940 -0.0873  0.0977 -0.0408
  415W        W 1612   6.923   5.956   3.902  0.0975 -0.1545 -0.1225
  416W        W 1613   5.504   5.178   4.466 -0.1525  0.2329 -0.0277
  417W        W 1614   4.426   6.338   7.572  0.2295 -0.0857  0.2978
  418W        W 1615   7.656   2.544   7.487  0.1753  0.0936  0.0424
  419W        W 1616   7.281   2.797   5.949 -0.0971  0.2324 -0.0424
  420W        W 1617   6.699   1.855   1.319  0.0491  0.1169 -0.1721
  421W        W 1618   1.141   6.214   3.219 -0.0895  0.2077 -0.3482
  422W        W 1619   5.233   1.524   7.230  0.1294  0.0142  0.0810
  423W        W 1620   3.151   3.347   4.313 -0.0231  0.0469  0.0264
  424W        W 1621   7.356   6.607   4.809 -0.2924  0.1220 -0.2526
  425W        W 1622   1.379   4.576   6.904  0.0979 -0.0389  0.0849
  426W        W 1623   6.140   6.764   6.174  0.1891 -0.2648 -0.1512
  427W        W 1624   7.042   4.603   4.397  0.1163  0.2242 -0.1428
  428W        W 1625   0.341   5.090   5.195  0.1216  0.2304  0.1056
  429W        W 1626   3.913   6.401   6.016 -0.1805  0.1645 -0.2586
  430W        W 1627   4.219   7.165   4.389 -0.1377 -0.0769 -0.0460
  431W        W 1628   4.235   5.639   5.205 -0.0761  0.2737 -0.0087
  432W        W 1629   6.312   3.732   5.559 -0.0056  0.3132 -0.0449
  433W        W 1630   0.299   4.946   5.674 -0.0286 -0.1072 -0.1020
  434W        W 1631   0.502   2.755   1.472  0.2122 -0.2161  0.3301
  435W        W 1632   4.781   0.780   5.688  0.2398 -0.0046 -0.0781
  436W        W 1633   7.141   4.240   3.880 -0.0350 -0.2020 -0.2370
  437W        W 1634   2.942   2.344   0.530  0.1610  0.2260  0.2824
  438W        W 1635   6.092   5.411   3.271 -0.2768  0.0170 -0.0666
  439W        W 1636   5.017   3.020   7.602  0.2472  0.0822  0.1782
  440W        W 1637   5.411   1.053   0.770  0.2085  0.0330  0.1664
  441W        W 1638   3.195   2.829   6.323 -0.0912  0.0818 -0.2002
  442W        W 1639   0.909   0.114   6.356 -0.2714  0.2312 -0.0024
  443W        W 1640   4.598   1.887   2.191  0.1843  0.0935  0.0302
  444W        W 1641   0.309   4.629   4.327  0.1718  0.0606  0.2984
  445W        W 1642   0.327   2.284   1.353  0.1036  0.1034 -0.3044
  446W        W 1643   3.205   5.055   5.178 -0.0864  0.1029  0.1041
  447W        W 1644   2.806   4.000   1.935 -0.0702  0.0441 -0.3380
  448W        W 1645   3.772   2.982   5.987 -0.2213 -0.0877 -0.0649
  449W        W 1646   3.614   7.393   0.936  0.2263 -0.0520  0.0486
  450W        W 1647   3.466   1.414   2.078  0.0265 -0.1622 -0.1609
  451W        W 1648   0.466   7.205   0.178  0.1060  0.2096 -0.2395
  452W        W 1649   5.320   7.316   6.357 -0.0514 -0.1825 -0.3210
  453W        W 1650   6.464   4.992   7.111 -0.0560 -0.0828  0.1303
  454W        W 1651   5.278   4.007   4.803 -0.1431  0.2526 -0.0932
  455W        W 1652   1.543   1.474   1.776  0.1413 -0.3517 -0.2367
  456W        W 1653   0.842   0.588   6.053 -0.1270 -0.1128 -0.0756
  457W        W 1654   3.331   0.169   6.157  0.1539 -0.0024  0.1772
  458W        W 1655   4.763   1.564   6.461  0.4440  0.0966 -0.1365
  459W        W 1656   2.289   0.134   5.878 -0.1497 -0.0250  0.0758
  460W        W 1657   3.140   6.558   0.982 -0.0279 -0.2913 -0.1929
  461W        W 1658   5.621   6.856   6.120  0.0608  0.3692 -0.1290
  462W        W 1659   4.635   7.608   2.642  0.2541  0.0792 -0.1947
  463W        W 1660   3.958   2.411   0.597 -0.1228  0.0858 -0.0381
  464W        W 1661   0.033   2.719   6.367 -0.2878  0.1308  0.1539
  465W        W 1662   4.709   0.564   0.189 -0.1232 -0.2772 -0.0740
  466W        W 1663   3.532   6.368   0.426  0.1305  0.0771  0.0233
  467W        W 1664   0.700   1.370   5.771  0.1291  0.3115 -0.1432
  468W        W 1665   5.990   6.962   2.595 -0.0499 -0.0761 -0.2902
  469W        W 1666   1.239   7.099   5.248  0.1980 -0.2841 -0.2301
  470W        W 1667   1.569   3.616   2.441  0.1318  0.0525  0.1956
  471W        W 1668   6.355   0.262   5.643  0.1018  0.0178 -0.0782
  472W        W 1669   3.199   5.658   1.940  0.1888 -0.2097 -0.1531
  473W        W 1670   7.474   5.688   1.312 -0.1338 -0.3395 -0.1752
  474W        W 1671   0.653   6.473   4.774  0.1521 -0.1699 -0.0452
  475W        W 1672   0.248   4.266   3.225  0.0811  0.2738 -0.0047
  476W        W 1673   2.575   2.940   2.522 -0.0203  0.0976  0.3366
  477W        W 1674   0.155   4.469   2.770  0.2619  0.2225 -0.0017
  478W        W 1675   5.530   2.272   6.502 -0.1029  0.0535  0.1425
  479W        W 1676   4.502   5.260   6.755 -0.0698  0.0932  0.0599
  480W        W 1677   4.155   2.981   0.327 -0.2909  0.1288 -0.0364
  481W        W 1678   2.880   2.989   2.936 -0.2070  0.1946  0.0058
  482W        W 1679   3.185   4.077   0.600 -0.4047 -0.3860  0.0274
  483W        W 1680   6.881   4.731   6.899 -0.2697 -0.1121 -0.2072
  484W        W 1681   2.398   2.367   6.002 -0.1664 -0.0032  0.3258
  485W        W 1682   6.861   6.279   4.313 -0.1923 -0.2268  0.1905
  486W        W 1683   1.684   5.312   6.315 -0.1187  0.3715 -0.0930
  487W        W 1684   2.752   2.325   6.407 -0.0820  0.0233  0.1749
  488W        W 1685   3.084   3.588   0.723 -0.2136 -0.0187  0.2183
  489W        W 1686   0.668   5.422   0.152 -0.3439 -0.0637  0.0898
  490W        W 1687   6.707   4.428   4.714  0.2414 -0.0413 -0.0564
  491W        W 1688   2.358   3.063   4.215 -0.0326 -0.1582 -0.1994
  492W        W 1689   1.273   3.637   0.679  0.1976 -0.0530  0.0376
  493W        W 1690   6.768   0.979   6.260  0.0493  0.1515  0.1711
  494W        W 1691   5.759   6.359   6.153  0.0563 -0.2435 -0.0342
  495W        W 1692   7.544   7.081   5.071 -0.0227  0.2217  0.1065
  496W        W 1693   5.708   6.487   7.024 -0.2176  0.4764 -0.1953
  497W        W 1694   4.040   6.702   0.014  0.0279 -0.0790  0.0904
  498W        W 1695   7.112   4.346   6.567 -0.1270 -0.0434 -0.1273
  499W        W 1696   3.424   4.130   0.122  0.0584 -0.0255  0.0691
  500W        W 1697   1.100   2.001   4.214 -0.2332  0.1708 -0.1880
  501W        W 1698   3.737   1.595   6.356  0.5918  0.1649 -0.0821
  502W        W 1699   1.318   3.548   2.870 -0.1723  0.1420 -0.0197
  503W        W 1700   6.165   3.564   4.671  0.2861  0.0831 -0.1844
  504W        W 1701   0.492   1.750   7.127 -0.0916 -0.1474 -0.1176
  505W        W 1702   0.410   5.255   2.772  0.0530  0.0879  0.1263
  506W        W 1703   2.642   7.600   7.063  0.0313  0.2258 -0.1030
  507W        W 1704   4.135   3.187   5.633  0.1316  0.0444 -0.0805
  508W        W 1705   5.823   7.037   7.648 -0.0174 -0.1774 -0.1749
  509W        W 1706   0.137   6.504   5.164 -0.0033 -0.0446 -0.1167
  510W        W 1707   4.202   6.860   2.957  0.0606  0.0958 -0.0578
  511W        W 1708   5.862   2.703   7.221  0.1350 -0.3559 -0.4036
  512W        W 1709   5.886   3.502   5.180 -0.0432  0.1191  0.4226
  513W        W 1710   0.995   5.408   2.042  0.1530 -0.1666  0.0757
  514W        W 1711   2.284   0.440   0.053 -0.1419  0.3699  0.2867
  515W        W 1712   2.636   2.824   4.703 -0.4971 -0.2177 -0.3426
  516W        W 1713   6.795   0.740   0.949  0.4081 -0.1318 -0.0631
  517W        W 1714   0.941   4.125   7.534  0.1953 -0.0077  0.4503
  518W        W 1715   0.248   7.298   7.391  0.1886 -0.4503 -0.1285
  519W        W 1716   5.052   6.491   1.419 -0.0726  0.0175  0.0034
  520W        W 1717   6.383   5.428   2.873  0.2157  0.2653 -0.0370
  521W        W 1718   0.462   6.034   5.578  0.0009  0.1551  0.0914
  522W        W 1719   6.533   5.171   0.797 -0.1432  0.1209  0.0522
  523W        W 1720   6.727   0.047   4.283 -0.0312  0.0008  0.2810
  524W        W 1721   1.072   5.693   7.551  0.0311  0.2185  0.0692
  525W        W 1722   1.378   2.363   2.642  0.0586 -0.2411 -0.2396
  526W        W 1723   2.168   0.685   6.766 -0.0418 -0.0586  0.0782
  527W        W 1724   2.329   1.142   6.617  0.1227  0.1209  0.2819
  528W        W 1725   1.185   5.192   0.823 -0.0852 -0.0818 -0.0242
  529W        W 1726   0.031   3.664   1.282  0.1795 -0.0030 -0.1702
  530W        W 1727   2.984   1.118   1.887 -0.2860 -0.1980  0.0492
  531W        W 1728   5.310   7.266   6.954 -0.1328  0.1317  0.1360
  532W        W 1729   0.886   1.863   5.228  0.1893 -0.0728  0.1890
  533W        W 1730   1.261   3.538   1.430 -0.2524  0.1500  0.0868
  534W        W 1731   4.962   3.444   6.421  0.1075 -0.1770  0.3232
  535W        W 1732   2.052   6.292   1.629  0.2166  0.0634 -0.0297
  536W        W 1733   2.722   0.190   6.633  0.3226  0.0362 -0.0140
  537W        W 1734   2.652   3.450   0.330 -0.0208 -0.1894 -0.4055
  538W        W 1735   5.644   4.790   4.830  0.3247  0.2155  0.1258
  539W        W 1736   4.494   3.472   6.229  0.1226 -0.0288 -0.1171
  540W        W 1737   5.856   2.887   0.879  0.3577 -0.0483 -0.0370
  541W        W 1738   7.207   7.587   2.836 -0.1037  0.2337  0.3389
  542W        W 1739   6.945   4.493   2.979 -0.1159 -0.2728  0.1087
  543W        W 1740   4.609   7.197   1.865 -0.0276 -0.0313  0.2673
  544W        W 1741   0.183   5.326   3.822 -0.0103  0.0090 -0.3425
  545W        W 1742   6.573   4.675   5.199 -0.0848 -0.1352 -0.3695
  546W        W 1743   4.363   5.946   3.789 -0.1083 -0.2170  0.0982
  547W        W 1744   4.213   4.625   2.462 -0.1991 -0.2401  0.0776
  548W        W 1745   4.077   6.627   1.259  0.0130 -0.0666 -0.1326
  549W        W 1746   5.161   1.295   0.393  0.1425  0.2050  0.1889
  550W        W 1747   4.917   5.896   6.029  0.1826  0.2097  0.2994
  551W        W 1748   0.532   6.506   6.433 -0.0758  0.2175 -0.2196
  552W        W 1749   7.651   7.276   3.138  0.2111  0.1917  0.0135
  553W        W 1750   1.520   2.314   5.785  0.1814 -0.0750 -0.3102
  554W        W 1751   1.235   3.258   2.448 -0.1420  0.0567  0.3571
  555W        W 1752   5.441   4.972   5.278  0.2530  0.1718 -0.0244
  556W        W 1753   1.359   4.907   2.808  0.1062  0.0265  0.2416
  557W        W 1754   0.889   5.216   1.641  0.0393 -0.4235  0.2230
  558W        W 1755   1.307   2.612   5.056 -0.1139 -0.0321  0.4174
  559W        W 1756   2.676   6.648   5.585 -0.2222 -0.1282 -0.1005
  560W        W 1757   4.047   2.459   1.901 -0.1853  0.2964 -0.0819
  561W        W 1758   1.081   5.449   5.663 -0.2901  0.1423 -0.1911
  562W        W 1759   0.794   5.234   3.792 -0.2469  0.1073 -0.0980
  563W        W 1760   3.929   4.184   2.343 -0.1220 -0.1984 -0.1986
  564W        W 1761   2.875   2.698   0.152  0.1010 -0.0072  0.2621
  565W        W 1762   2.715   6.593   2.063 -0.3902  0.4102 -0.1922
  566W        W 1763   6.533   6.963   4.842 -0.1396  0.0992 -0.1357
  567W        W 1764   4.324   7.560   7.233  0.0408  0.3568  0.0458
  568W        W 1765   1.376   6.924   1.242 -0.1997  0.2002 -0.2734
  569W        W 1766   6.895   1.494   7.535  0.0804 -0.1330 -0.0635
  570W        W 1767   7.568   6.973   2.023 -0.0545  0.0403 -0.2384
  571W        W 1768   3.985   6.269   7.339 -0.0245 -0.1545  0.0815
  572W        W 1769   0.822   6.802   5.196  0.1280  0.3350  0.1336
  573W        W 1770   1.823   5.157   1.513 -0.1538  0.2971  0.3210
  574W        W 1771   4.882   6.649   1.865 -0.1355  0.0184 -0.0583
  575W        W 1772   5.837   7.498   1.469  0.0123 -0.2044  0.0963
  576W        W 1773   7.080   0.628   1.384  0.0656  0.1735 -0.0601
  577W        W 1774   2.611   2.935   1.261  0.3362 -0.2487  0.3651
  578W        W 1775   4.940   0.125   4.369 -0.0720 -0.2255 -0.3605
  579W        W 1776   5.173   0.947   6.967  0.1816 -0.1735  0.4790
  580W        W 1777   5.381   3.872   6.291 -0.0713  0.0951 -0.4646
  581W        W 1778   1.756   3.305   1.338  0.1568  0.1864  0.0181
  582W        W 1779   3.264   0.595   2.210 -0.0874 -0.1216 -0.2163
  583W        W 1780   6.639   7.176   4.221  0.0397  0.2352 -0.2737
  584W        W 1781   6.424   2.289   0.051  0.2500  0.0028  0.1887
  585W        W 1782   4.201   0.740   2.169  0.1601  0.0565 -0.0558
  586W        W 1783   5.215   6.503   3.268 -0.1165 -0.2007  0.2246
  587W        W 1784   7.392   6.236   3.284 -0.3942  0.0422  0.2066
  588W        W 1785   4.381   1.860   5.244 -0.1398 -0.1472 -0.0936
  589W        W 1786   4.653   3.942   5.620  0.1981  0.0412 -0.0059
  590W        W 1787   3.357   6.208   1.290 -0.1706 -0.2514  0.2800
  591W        W 1788   0.897   3.838   3.831  0.1749 -0.2185  0.1303
  592W        W 1789   3.167   4.691   2.341  0.1060 -0.1535  0.1346
  593W        W 1790   6.460   6.153   4.672 -0.0744 -0.1272  0.2422
  594W        W 1791   2.957   5.071   6.205  0.0015  0.2577  0.0724
  595W        W 1792   0.368   7.312   2.181 -0.1376  0.0443  0.2902
  596W        W 1793   3.998   6.961   2.470 -0.0973 -0.0293  0.1748
  597W        W 1794   2.683   1.779   5.539 -0.4200 -0.3654 -0.0934
  598W        W 1795   6.406   0.351   3.087 -0.1939  0.0601 -0.1648
  599W        W 1796   7.097   1.559   7.062 -0.2297 -0.1713 -0.0113
  600W        W 1797   7.120   6.121   4.821  0.1708 -0.0673 -0.1421
  601W        W 1798   3.407   2.912   2.814  0.1869  0.0797 -0.0556
  602W        W 1799   5.630   7.282   0.942 -0.0656 -0.0569  0.2202
  603W        W 1800   3.831   3.573   5.656  0.1930  0.0664 -0.1169
  604W        W 1801   4.198   1.519   1.555  0.0023  0.1583  0.0072
  605W        W 1802   3.000   1.794   5.113  0.2775  0.0931 -0.3150
  606W        W 1803   7.346   7.122   6.778 -0.0263  0.1129  0.2663
  607W        W 1804   5.332   4.549   4.496 -0.1633  0.1961  0.0704
  608W        W 1805   5.935   0.081   2.936 -0.3954 -0.1017  0.0453
  609W        W 1806   5.578   6.656   2.907  0.1290 -0.2064 -0.1355
  610W        W 1807   2.278   2.386   6.909  0.0628 -0.0168  0.2057
  611W        W 1808   6.869   6.694   2.910  0.4609 -0.2247 -0.1061
  612W        W 1809   5.744   0.297   1.081  0.1560 -0.1162 -0.2402
  613W        W 1810   0.681   4.546   0.630 -0.1073  0.1083  0.2561
  614W        W 1811   5.024   3.867   3.855  0.1708 -0.0873 -0.0344
  615W        W 1812   4.451   2.971   4.720  0.2161 -0.3023  0.2036
  616W        W 1813   2.928   1.704   3.133 -0.0218  0.2009  0.1936
  617W        W 1814   3.408   4.259   1.064 -0.2841  0.0484 -0.0611
  618W        W 1815   2.274   0.326   6.380 -0.2312  0.0019  0.3232
  619W        W 1816   4.282   2.983   6.078 -0.0833  0.4034  0.0548
  620W        W 1817   6.088   6.341   5.374 -0.2498 -0.1056 -0.3416
  621W        W 1818   0.497   2.758   6.195  0.0851 -0.0121  0.0587
  622W        W 1819   7.501   0.745   2.376  0.3775 -0.0202  0.1464
  623W        W 1820   6.727   1.191   2.524  0.3302  0.1087  0.0458
  624W        W 1821   3.503   0.581   0.148 -0.0881 -0.1105 -0.0354
  625W        W 1822   7.404   3.846   4.251  0.0831 -0.0146  0.4586
  626W        W 1823   0.686   6.194   3.070  0.0827  0.0469  0.1235
  627W        W 1824   0.122   1.246   2.342 -0.0338  0.1773 -0.0496
  628W        W 1825   2.929   4.465   7.612 -0.0126 -0.0797  0.0700
  629W        W 1826   6.776   1.175   0.661 -0.0438  0.1781  0.0958
  630W        W 1827   1.258   4.763   0.533 -0.2284 -0.6083  0.0703
  631W        W 1828   0.694   6.286   0.190  0.1423  0.1157  0.0898
  632W        W 1829   3.120   4.919   7.535 -0.1889  0.4923  0.1212
  633W        W 1830   1.695   4.727   0.175 -0.0684  0.1598  0.0355
  634W        W 1831   4.439   4.229   2.153  0.0820 -0.0279  0.0614
  635W        W 1832   1.064   0.806   0.538  0.0459 -0.0533  0.0577
  636W        W 1833   3.116   6.148   0.239 -0.0244  0.0028 -0.1709
  637W        W 1834   6.222   2.759   7.582  0.0531  0.3629  0.2307
  638W        W 1835   5.767   7.491   3.352  0.1267 -0.2238 -0.0206
  639W        W 1836   5.036   0.460   4.730  0.0116 -0.0781 -0.3916
  640W        W 1837   7.162   4.547   3.473 -0.1027  0.0317 -0.2811
  641W        W 1838   1.674   6.465   2.017  0.1301  0.0100 -0.0138
  642W        W 1839   7.635   5.785   0.424  0.0040  0.1550 -0.0023
  643W        W 1840   5.896   0.736   2.418 -0.0840 -0.0114  0.2935
  644W        W 1841   2.131   2.327   2.003  0.1687  0.0191 -0.2716
  645W        W 1842   7.442   7.211   1.531 -0.1096 -0.3488  0.2245
  646W        W 1843   0.133   1.439   5.698 -0.0970 -0.4953 -0.1164
  647W        W 1844   3.608   3.250   1.041 -0.0782  0.4727 -0.0778
  648W        W 1845   7.489   4.357   5.113  0.1459 -0.0098  0.0045
  649W        W 1846   3.894   6.627   6.720 -0.1852  0.1994 -0.1547
  650W        W 1847   2.890   5.602   6.096 -0.3031  0.0425 -0.1392
  651W        W 1848   4.129   5.043   0.112 -0.0914  0.2184 -0.3151
  652W        W 1849   7.367   5.498   3.740  0.1755 -0.1016  0.1056
  653W        W 1850   3.946   5.346   7.427  0.2691  0.3166 -0.1968
  654W        W 1851   1.479   5.312   7.460  0.3021  0.3642 -0.0518
  655W        W 1852   4.366   4.017   2.604 -0.0066  0.1237  0.0823
  656W        W 1853   0.083   7.494   6.946 -0.3582  0.2081 -0.0057
  657W        W 1854   2.529   4.180   4.618 -0.4246  0.0270  0.2087
  658W        W 1855   0.853   1.302   0.310  0.1618 -0.0150 -0.1077
  659W        W 1856   7.406   6.213   1.865 -0.0294 -0.1929 -0.3774
  660W        W 1857   4.330   3.521   7.359  0.0855 -0.2974  0.0119
  661W        W 1858   1.973   1.700   3.324  0.1498  0.0233  0.1328
  662W        W 1859   1.597   2.866   3.984 -0.1022  0.0422  0.1245
  663W        W 1860   0.262   7.571   5.634  0.0323  0.0793  0.1232
  664W        W 1861   1.598   3.437   1.793  0.0195 -0.1998  0.0037
  665W        W 1862   0.790   6.220   3.583  0.3502  0.0669  0.4742
  666W        W 1863   5.564   2.206   7.235 -0.2224 -0.0490  0.1168
  667W        W 1864   6.253   4.792   5.548 -0.2008 -0.2901 -0.0732
  668W        W 1865   7.057   6.624   3.443 -0.1357 -0.1634  0.0473
  669W        W 1866   2.174   3.366   6.660  0.0400 -0.0138 -0.2523
  670W        W 1867   6.757   7.420   4.703 -0.1841 -0.1910  0.5088
  671W        W 1868   1.208   7.619   1.332 -0.2874  0.1317  0.0775
  672W        W 1869   1.443   1.667   6.518  0.0792  0.0907 -0.2536
  673W        W 1870   2.771   7.329   1.038 -0.1810 -0.3232 -0.1085
  674W        W 1871   5.207   4.488   2.755  0.2539 -0.0040  0.2346
  675W        W 1872   7.410   7.286   2.388 -0.1032  0.2650  0.2198
  676W        W 1873   0.163   6.251   3.020 -0.1966  0.0153 -0.2162
  677W        W 1874   6.400   0.985   6.658 -0.0346 -0.0899 -0.1803
  678W        W 1875   3.406   4.337   6.865 -0.1922  0.1268  0.1101
  679W        W 1876   3.979   4.121   2.934 -0.1941 -0.1371  0.0198
  680W        W 1877   5.971   5.052   5.177 -0.0014 -0.0170 -0.0492
  681W        W 1878   6.992   7.277   7.559  0.0772  0.0412  0.1752
  682W        W 1879   6.161   5.525   0.662  0.2761  0.0281  0.0470
  683W        W 1880   2.117   3.062   2.571  0.1531  0.1671 -0.1124
  684W        W 1881   4.795   2.208   0.462 -0.1897  0.3162 -0.1289
  685W        W 1882   0.399   3.455   6.200 -0.0505 -0.0725 -0.1494
  686W        W 1883   0.393   2.980   4.968  0.1179  0.3137  0.0220
  687W        W 1884   2.510   2.239   5.369  0.3348 -0.0890  0.4304
  688W        W 1885   6.368   6.253   3.954  0.2602  0.2217  0.1566
  689W        W 1886   4.310   4.337   4.781 -0.1454  0.0257 -0.0071
  690W        W 1887   6.159   3.102   4.983 -0.2633 -0.1808  0.0293
  691W        W 1888   3.737   0.584   0.799  0.1999 -0.2977  0.0095
  692W        W 1889   2.294   3.875   1.930 -0.0698 -0.0338  0.0046
  693W        W 1890   2.895   2.469   1.695 -0.1037 -0.0594 -0.0595
  694W        W 1891   4.944   5.387   1.309 -0.1355  0.1471  0.1484
  695W        W 1892   5.818   5.587   4.494 -0.1355  0.0853 -0.1602
  696W        W 1893   7.438   6.398   6.086 -0.2628  0.2283  0.0551
  697W        W 1894   5.090   5.523   0.876  0.0832 -0.1588 -0.2538
  698W        W 1895   1.139   6.994   0.718  0.1803 -0.0001 -0.2059
  699W        W 1896   0.741   1.104   6.277 -0.1356 -0.0413  0.0702
  700W        W 1897   6.665   1.699   6.719  0.0408 -0.0752 -0.1430
  701W        W 1898   3.368   3.638   7.506  0.1990 -0.4046  0.1980
  702W        W 1899   6.411   4.053   7.191  0.2078  0.2081  0.1564
  703W        W 1900   7.343   4.668   2.648 -0.1112  0.0475 -0.0762
  704W        W 1901   7.174   5.502   5.706  0.0120  0.1266 -0.2343
  705W        W 1902   6.650   3.777   3.505 -0.2531 -0.0895 -0.0996
  706W        W 1903   2.101   2.947   3.636  0.0672  0.1351 -0.2636
  707W        W 1904   0.614   3.153   1.788 -0.0297 -0.0511  0.1509
  708W        W 1905   7.344   6.984   0.756  0.1432  0.1314  0.0576
  709W        W 1906   6.920   0.806   5.568  0.0177 -0.1734  0.1186
  710W        W 1907   1.668   5.956   5.763 -0.3844  0.2828 -0.1146
  711W        W 1908   6.120   4.010   7.592 -0.1086 -0.1694  0.1194
  712W        W 1909   6.810   2.228   0.981  0.1265  0.0008  0.1514
  713W        W 1910   4.902   0.077   1.682  0.0044  0.0954  0.0808
  714W        W 1911   1.921   6.106   0.770 -0.2891  0.0160  0.0550
  715W        W 1912   4.818   7.659   2.154  0.0671  0.1068 -0.1805
  716W        W 1913   4.333   7.042   6.670 -0.0191  0.2512 -0.0215
  717W        W 1914   3.992   3.393   6.218  0.3396  0.2371  0.4215
  718W        W 1915   0.647   3.884   2.027  0.0594  0.0278  0.2600
  719W        W 1916   6.376   6.514   5.023 -0.0773 -0.0280  0.3771
  720W        W 1917   3.573   6.709   6.338  0.2325  0.1531  0.1468
  721W        W 1918   4.997   7.374   5.401 -0.1175  0.0881  0.2099
  722W        W 1919   5.707   4.144   7.380  0.0537 -0.2840  0.2166
  723W        W 1920   6.954   7.521   2.316 -0.2486  0.2661  0.1495
  724W        W 1921   0.278   0.473   2.299 -0.0428 -0.0743 -0.3176
  725W        W 1922   4.958   4.946   5.779  0.0352 -0.1777  0.0796
  726W        W 1923   7.596   6.675   0.433 -0.1325 -0.2292 -0.0260
  727W        W 1924   2.778   1.828   6.254  0.1054 -0.2032 -0.0718
  728W        W 1925   1.000   5.291   6.180 -0.0831 -0.1285 -0.0033
  729W        W 1926   3.144   3.287   0.145  0.0691 -0.0276  0.2644
  730W        W 1927   6.419   7.138   2.515  0.0076  0.2287  0.1234
  731W        W 1928   6.140   5.893   4.274 -0.0683 -0.1472  0.2150
  732W        W 1929   6.737   0.312   2.688 -0.0107  0.0753  0.0578
  733W        W 1930   0.383   5.567   5.240 -0.1584  0.0064 -0.1242
  734W        W 1931   1.871   3.148   6.988  0.1418 -0.0191  0.1673
  735W        W 1932   5.306   5.297   3.243  0.3187 -0.0928  0.2915
  736W        W 1933   0.828   5.675   6.834  0.1935 -0.0797 -0.1154
  737W        W 1934   6.376   5.372   7.452  0.0394 -0.0662  0.0476
  738W        W 1935   5.357   3.145   4.377 -0.2073 -0.1191 -0.1443
  739W        W 1936   0.254   4.687   4.954  0.3079  0.1386 -0.0999
  740W        W 1937   7.352   6.489   0.843  0.0270  0.1619 -0.2556
  741W        W 1938   3.835   4.155   4.433  0.3686 -0.0308 -0.2668
  742W        W 1939   7.650   0.091   4.167  0.1480 -0.2287  0.0868
  743W        W 1940   7.542   7.013   4.501 -0.2541  0.1001  0.3383
  744W        W 1941   2.275   4.848   2.182  0.0136  0.2711  0.1621
  745W        W 1942   4.237   5.631   7.129 -0.0262  0.2604 -0.1118
  746W        W 1943   0.281   3.097   5.863 -0.0966  0.4181 -0.0060
  747W        W 1944   6.219   4.161   3.522 -0.1039  0.0675 -0.0874
  748W        W 1945   6.426   7.225   6.379  0.2638  0.1290 -0.1899
  749W        W 1946   3.727   5.863   0.180  0.2372  0.2133 -0.0095
  750W        W 1947   0.421   2.538   5.287 -0.0038 -0.0647 -0.0035
  751W        W 1948   0.655   0.517   0.776 -0.1709 -0.1425  0.0398
  752W        W 1949   3.239   4.787   7.030  0.0479 -0.0118  0.0621
  753W        W 1950   5.587   3.235   6.497 -0.3026 -0.3773  0.2943
  754W        W 1951   0.591   1.815   6.606  0.2548 -0.0932 -0.0329
  755W        W 1952   0.480   3.948   1.520  0.1100 -0.5569 -0.1938
  756W        W 1953   2.771   4.053   6.333 -0.3682  0.0014  0.2805
  757W        W 1954   5.339   6.870   0.700  0.1920 -0.0530 -0.0884
  758W        W 1955   2.115   5.416   5.525  0.0855  0.1042  0.2868
  759W        W 1956   0.675   4.096   4.333 -0.0294  0.2381  0.0397
  760W        W 1957   0.707   1.004   7.603 -0.1141 -0.1623  0.1099
  761W        W 1958   3.011   4.492   6.606  0.2769  0.0710 -0.0285
  762W        W 1959   0.356   1.505   6.165  0.2309 -0.2641 -0.1041
  763W        W 1960   0.402   7.066   5.881 -0.1537  0.1080  0.0280
  764W        W 1961   4.027   5.001   0.978 -0.0358  0.1707 -0.4098
  765W        W 1962   6.335   5.193   0.350 -0.0882 -0.1013 -0.2227
  766W        W 1963   6.883   7.134   3.298  0.0860  0.0765 -0.0144
  767W        W 1964   1.358   2.645   3.149  0.3852 -0.0369  0.2286
  768W        W 1965   0.452   2.203   0.518 -0.1455 -0.0214  0.3094
  769W        W 1966   5.939   0.312   6.562  0.0039 -0.1895  0.0938
  770W        W 1967   2.751   4.628   2.119 -0.0878  0.1276  0.0897
  771W        W 1968   2.164   2.734   4.585  0.1602 -0.2860  0.0025
  772W        W 1969   5.988   2.239   0.355  0.2631 -0.1387  0.0802
  773W        W 1970   0.989   1.453   6.667 -0.0246  0.0432 -0.2639
  774W        W 1971   2.662   5.318   0.768 -0.1710  0.1783  0.0344
  775W        W 1972   3.090   6.520   7.534  0.1717  0.0255 -0.2947
  776W        W 1973   7.653   3.976   7.454 -0.0164  0.1118  0.0356
  777W        W 1974   0.780   7.379   7.419 -0.1136  0.1399  0.0423
  778W        W 1975   4.725   0.614   2.804 -0.0402 -0.5104  0.3358
  779W        W 1976   4.739   1.225   5.433 -0.0350 -0.1892 -0.2874
  780W        W 1977   4.437   0.878   5.257 -0.0161  0.1426  0.0040
  781W        W 1978   5.896   2.696   6.330 -0.0675  0.0117  0.2907
  782W        W 1979   1.616   4.167   0.968 -0.1239  0.3187  0.0195
  783W        W 1980   0.482   4.421   6.418  0.3450 -0.3068  0.1213
  784W        W 1981   0.520   3.342   4.623  0.0121  0.1441 -0.0287
  785W        W 1982   2.739   7.250   0.397 -0.0236 -0.2997 -0.2098
  786W        W 1983   2.456   1.066   5.959 -0.0577 -0.0900  0.0445
  787W        W 1984   0.071   4.503   1.875  0.2936 -0.1910 -0.0773
  788W        W 1985   1.263   3.860   6.564 -0.1929 -0.2322  0.1141
  789W        W 1986   1.282   7.156   2.144 -0.2514  0.2569 -0.1376
  790W        W 1987   1.704   4.797   5.154 -0.4555  0.0155 -0.0190
  791W        W 1988   3.600   6.882   1.844  0.0367 -0.0055  0.0169
  792W        W 1989   5.775   0.653   0.204 -0.0888 -0.1268  0.1689
  793W        W 1990   7.007   3.723   3.936 -0.0407 -0.1878 -0.1900
  794W        W 1991   5.506   1.182   6.438  0.0327 -0.2092 -0.1702
  795W        W 1992   5.193   2.293   2.701 -0.0145  0.2586 -0.4765
  796W        W 1993   0.019   4.334   4.653 -0.0577 -0.1557  0.0330
  797W        W 1994   4.893   6.035   4.107  0.2034 -0.1311  0.2112
  798W        W 1995   0.777   5.591   4.312 -0.1955 -0.0952  0.1477
  799W        W 1996   5.372   2.537   1.504  0.1194  0.2343  0.3436
  800W        W 1997   5.034   1.074   6.445  0.0844 -0.1989  0.0267
  801W        W 1998   7.609   6.673   3.132  0.0329 -0.0752 -0.0433
  802W        W 1999   4.892   6.531   0.012 -0.1190 -0.1625 -0.1627
  803W        W 2000   3.883   5.374   1.301  0.2962 -0.1629 -0.3233
  804W        W 2001   3.814   1.257   1.743  0.3425  0.2420  0.0388
  805W        W 2002   5.057   7.627   6.688 -0.0728  0.0095 -0.1484
  806W        W 2003   1.667   5.903   6.426  0.0635 -0.0125 -0.2620
  807W        W 2004   1.179   2.378   5.427 -0.1603  0.0207 -0.0169
  808W        W 2005   4.294   0.983   5.730 -0.0971  0.1037  0.1222
  809W        W 2006   6.505   5.659   3.814 -0.0177 -0.3676 -0.1444
  810W        W 2007   6.684   2.992   7.357  0.3146  0.4438  0.1140
  811W        W 2008   7.371   6.061   3.829  0.1547  0.1740  0.2081
  812W        W 2009   5.312   6.918   2.238  0.0476  0.0688 -0.1245
  813W        W 2010   3.919   6.081   5.177  0.1923  0.2623 -0.1970
  814W        W 2011   0.617   7.288   6.927 -0.1134 -0.0012 -0.0343
  815W        W 2012   5.205   3.165   2.724 -0.1183 -0.0360 -0.2315
  816W        W 2013   5.736   5.774   3.956  0.3529  0.1926 -0.2666
  817W        W 2014   5.400   0.805   2.379 -0.0726  0.0254  0.1933
  818W        W 2015   1.304   3.046   6.746  0.2291 -0.4234 -0.2336
  819W        W 2016   1.027   2.172   5.941  0.1680  0.1709 -0.0295
  820W        W 2017   6.834   7.365   1.461 -0.2695 -0.1116  0.0630
  821W        W 2018   2.570   2.024   3.081  0.3393  0.0797 -0.0180
  822W        W 2019   3.612   3.197   4.476 -0.1096 -0.2399 -0.2379
  823W        W 2020   3.551   4.571   7.532 -0.0054  0.1251 -0.3360
  824W        W 2021   2.917   4.306   3.773  0.4784 -0.1924  0.2009
  825W        W 2022   7.635   4.707   3.226  0.1135  0.1665  0.4004
  826W        W 2023   4.414   1.469   0.104  0.0419  0.1291 -0.0828
  827W        W 2024   5.159   1.086   1.342 -0.2681 -0.0428  0.0069
  828W        W 2025   1.523   3.387   5.363  0.3051  0.0434 -0.3207
  829W        W 2026   5.828   3.134   4.535  0.1125  0.1578  0.0366
  830W        W 2027   6.385   4.393   3.119 -0.2355 -0.1819 -0.0228
  831W        W 2028   3.278   0.181   7.545 -0.1846  0.0041 -0.0702
  832W        W 2029   2.794   1.238   5.681 -0.3497  0.0207 -0.1936
  833W        W 2030   2.067   0.199   1.072 -0.3960  0.1569 -0.0723
  834W        W 2031   7.605   5.128   6.521  0.0128 -0.2257 -0.0564
  835W        W 2032   0.034   5.292   1.478  0.0951 -0.1061 -0.0599
  836W        W 2033   6.179   7.174   4.027 -0.0923  0.2041 -0.1001
  837W        W 2034   7.156   1.147   0.265 -0.0584 -0.2313 -0.0943
  838W        W 2035   4.098   6.204   6.475 -0.2792 -0.1340 -0.0272
  839W        W 2036   7.517   1.242   6.617 -0.0553 -0.0260 -0.0409
  840W        W 2037   3.084   1.450   2.625  0.0290 -0.0395 -0.1843
  841W        W 2038   3.550   7.353   7.605  0.0390  0.2292  0.0631
  842W        W 2039   7.111   2.083   1.418 -0.0265 -0.0674  0.1051
  843W        W 2040   6.859   6.681   0.872 -0.0491  0.3057 -0.0531
  844W        W 2041   4.355   6.216   5.357  0.1617  0.0459  0.1075
  845W        W 2042   0.948   0.841   1.873 -0.2146  0.2947 -0.2358
  846W        W 2043   3.896   5.569   6.067 -0.1940  0.1331 -0.3775
  847W        W 2044   3.483   6.648   5.833 -0.1515 -0.0181  0.0758
  848W        W 2045   1.681   3.116   2.925  0.2715 -0.0737 -0.0318
  849W        W 2046   1.382   1.891   0.393  0.0827 -0.1950 -0.0710
  850W        W 2047   3.883   1.606   3.039 -0.2108  0.0161  0.0934
  851W        W 2048   0.824   7.330   5.292  0.2099 -0.1686 -0.0158
  852W        W 2049   2.833   5.858   7.619  0.0896  0.1263 -0.0358
  853W        W 2050   4.664   3.646   0.492 -0.0563 -0.4757 -0.0094
  854W        W 2051   4.636   5.165   2.224  0.1564  0.0221 -0.0382
  855W        W 2052   2.392   2.041   7.356  0.1671 -0.1189 -0.0181
  856W        W 2053   2.942   7.452   2.075  0.2497 -0.1283 -0.3015
  857W        W 2054   5.118   6.806   2.742 -0.0864 -0.1448  0.2489
  858W        W 2055   4.950   1.854   2.601 -0.0337  0.0339  0.1208
  859W        W 2056   4.609   2.716   4.328 -0.0837 -0.0627  0.2264
  860W        W 2057   4.279   5.230   0.587  0.1725  0.1741 -0.3561
  861W        W 2058   0.123   6.529   1.778  0.0257 -0.3051 -0.2444
  862W        W 2059   6.616   4.520   7.324 -0.3155  0.0095  0.0579
  863W        W 2060   4.991   2.872   7.061  0.0177 -0.3329 -0.1201
  864W        W 2061   4.958   1.414   0.854  0.0775 -0.0301 -0.2045
  865W        W 2062   5.949   6.008   4.769  0.1012 -0.2966 -0.3292
  866W        W 2063   3.505   3.378   2.536 -0.0925 -0.3391 -0.0872
  867W        W 2064   5.424   6.970   5.573 -0.1970 -0.1321 -0.0615
  868W        W 2065   5.873   5.787   5.662 -0.0870  0.1350 -0.0971
  869W        W 2066   2.215   3.697   0.251 -0.0182 -0.0484  0.0538
  870W        W 2067   6.688   6.491   2.136 -0.0355  0.2297 -0.1522
  871W        W 2068   1.017   4.581   2.616 -0.2559  0.2595  0.2220
  872W        W 2069   2.360   1.735   0.525  0.0864 -0.1962 -0.1339
  873W        W 2070   0.105   6.534   4.496 -0.1700  0.0826  0.4348
  874W        W 2071   3.110   0.044   6.995 -0.0795 -0.0800 -0.0533
  875W        W 2072   4.059   7.451   0.072  0.0073 -0.1880 -0.1699
  876W        W 2073   1.354   7.201   7.452 -0.1871 -0.2450 -0.0981
  877W        W 2074   0.845   0.915   1.098 -0.1506 -0.1369  0.0398
  878W        W 2075   0.770   6.050   1.443  0.0443 -0.2567  0.3331
  879W        W 2076   6.470   2.700   5.008 -0.1356 -0.0164  0.0183
  880W        W 2077   5.321   6.493   5.901  0.1554 -0.4515 -0.5441
  881W        W 2078   1.436   4.360   5.179 -0.0903  0.1828  0.2042
  882W        W 2079   2.899   5.211   2.138  0.1133  0.0500 -0.1086
  883W        W 2080   3.697   7.214   5.582  0.0046 -0.1897  0.2838
  884W        W 2081   0.601   1.020   0.666  0.2512 -0.0951  0.0327
  885W        W 2082   0.317   3.522   1.660  0.2478 -0.2558 -0.0357
  886W        W 2083   1.601   6.989   5.824 -0.2093  0.2565 -0.5523
  887W        W 2084   5.174   4.884   7.617  0.1781 -0.0556  0.1125
  888W        W 2085   1.668   3.654   3.276  0.2710  0.0287 -0.1723
  889W        W 2086   0.994   2.976   4.262  0.0486 -0.1639  0.1615
  890W        W 2087   5.516   5.102   3.637 -0.2974 -0.1164  0.3741
  891W        W 2088   5.754   2.442   7.640  0.2419 -0.2116  0.0195
  892W        W 2089   4.164   4.249   3.823 -0.3603  0.4387  0.0975
  893W        W 2090   0.061   7.614   0.382 -0.2375  0.0216 -0.2550
  894W        W 2091   3.982   5.686   4.248  0.2100 -0.0819 -0.0957
  895W        W 2092   6.209   6.392   7.140  0.0434  0.1477  0.1843
  896W        W 2093   1.440   2.858   5.474 -0.0615 -0.2903 -0.1231
  897W        W 2094   4.985   1.722   5.389  0.5771  0.2186  0.3389
  898W        W 2095   4.876   2.159   5.798 -0.3024  0.1011  0.1162
  899W        W 2096   4.721   6.103   0.250 -0.1720  0.0645 -0.0920
  900W        W 2097   0.711   2.094   7.414  0.2054  0.0552 -0.2192
  901W        W 2098   4.214   5.927   1.056  0.0634 -0.0666  0.0399
  902W        W 2099   0.169   7.208   2.634 -0.1197  0.1137  0.2730
  903W        W 2100   0.566   0.761   2.625  0.1187 -0.1088 -0.0744
  904W        W 2101   4.750   7.347   4.465 -0.2315 -0.0300  0.0830
  905W        W 2102   4.958   4.466   3.199  0.0493  0.2830 -0.2683
  906W        W 2103   4.383   7.017   3.403  0.0729 -0.0161  0.0368
  907W        W 2104   3.127   3.301   6.586  0.0103  0.0407  0.0173
  908W        W 2105   1.667   1.021   6.693  0.2636 -0.0425 -0.1870
  909W        W 2106   0.123   2.121   5.564  0.1908  0.1621  0.1861
  910W        W 2107   1.584   2.334   1.994 -0.3087 -0.3054 -0.1684
  911W        W 2108   1.126   1.923   3.125  0.1590 -0.1944 -0.0870
  912W        W 2109   1.193   5.491   7.073  0.1196 -0.0223 -0.3195
  913W        W 2110   4.005   3.189   4.802 -0.1078 -0.1355 -0.0231
  914W        W 2111   2.881   3.029   5.662  0.2156  0.1353  0.1154
  915W        W 2112   4.784   5.624   0.441 -0.0677 -0.0916  0.2028
  916W        W 2113   4.543   4.900   4.147 -0.3858 -0.1225 -0.1694
  917W        W 2114   2.138   3.446   1.065 -0.3642  0.0053  0.0473
  918W        W 2115   5.215   2.012   6.909 -0.1027 -0.1507  0.0340
  919W        W 2116   2.231   2.898   2.115  0.0577  0.2210  0.0899
  920W        W 2117   6.372   0.927   7.294  0.0779 -0.1474  0.0141
  921W        W 2118   6.783   0.435   3.903  0.4324  0.1185 -0.2848
  922W        W 2119   6.243   5.577   1.653 -0.1862  0.0760  0.0249
  923W        W 2120   1.042   3.500   6.973 -0.1070 -0.0804 -0.0308
  924W        W 2121   4.532   3.070   0.003 -0.2925  0.0418  0.2655
  925W        W 2122   2.314   3.180   7.248 -0.1188 -0.1927 -0.0720
  926W        W 2123   2.752   5.415   5.407  0.3119 -0.2562  0.0174
  927W        W 2124   0.057   2.303   0.955  0.1497 -0.2800 -0.1086
  928W        W 2125   3.391   0.166   2.335  0.1211 -0.2968 -0.0364
  929W        W 2126   1.791   2.809   1.838 -0.0936  0.0112  0.1269
  930W        W 2127   2.876   3.937   2.784  0.0657  0.1896  0.2674
  931W        W 2128   3.254   5.792   2.489  0.0720  0.3932  0.1600
  932W        W 2129   1.659   1.493   0.718  0.1808  0.0180  0.0793
  933W        W 2130   2.861   1.839   2.339  0.0006  0.1373  0.4460
  934W        W 2131   4.486   7.308   4.017  0.2320 -0.0113  0.1868
  935W        W 2132   3.358   5.409   6.151 -0.2558  0.1165 -0.0994
  936W        W 2133   7.087   5.236   5.194 -0.1180 -0.2446  0.1149
  937W        W 2134   6.465   1.565   0.147 -0.4393  0.2459  0.4418
  938W        W 2135   7.123   2.565   6.464 -0.0112 -0.2529 -0.1147
  939W        W 2136   0.074   6.232   5.728  0.1567  0.0081  0.2935
  940W        W 2137   5.690   6.986   3.247 -0.2072 -0.0179 -0.3085
  941W        W 2138   6.823   5.749   2.895  0.1118 -0.0850 -0.1780
  942W        W 2139   5.777   1.260   6.040 -0.0683 -0.0206  0.3138
  943W        W 2140   5.108   7.331   2.528  0.1031 -0.3226 -0.2630
  944W        W 2141   0.506   0.791   7.127 -0.0752  0.1348 -0.0670
  945W        W 2142   2.597   7.248   6.554  0.1181 -0.3522 -0.2945
  946W        W 2143   6.581   3.197   5.540  0.0507  0.1817  0.1258
  947W        W 2144   4.071   6.001   5.710  0.0503  0.2928  0.0501
  948W        W 2145   2.538   2.428   0.791 -0.1266  0.1541 -0.2008
  949W        W 2146   3.856   0.725   5.577  0.1469 -0.0125  0.0294
  950W        W 2147   0.860   3.469   1.072 -0.2474 -0.0849 -0.1237
  951W        W 2148   1.054   1.873   7.048  0.3075  0.0332  0.0029
  952W        W 2149   0.474   5.678   3.078  0.0056  0.0364 -0.0154
  953W        W 2150   2.066   4.474   5.490 -0.0729  0.1459  0.0690
  954W        W 2151   4.257   2.640   3.673 -0.0949  0.1968 -0.1196
  955W        W 2152   0.127   4.017   1.875 -0.0494 -0.0002 -0.3916
  956W        W 2153   0.823   7.014   3.914  0.2743 -0.0836 -0.0236
  957W        W 2154   4.628   6.250   1.647  0.3510  0.0111 -0.0280
  958W        W 2155   4.014   6.204   4.211 -0.1308 -0.1803 -0.0293
  959W        W 2156   1.942   4.154   3.250  0.3705 -0.4728  0.1005
  960W        W 2157   1.749   6.374   1.247  0.0848  0.3349 -0.1312
  961W        W 2158   4.649   3.589   2.908 -0.1388  0.1501 -0.0775
  962W        W 2159   2.493   6.665   7.469  0.3980 -0.0929  0.3111
  963W        W 2160   4.166   0.224   2.047 -0.1058  0.3477  0.2605
  964W        W 2161   1.864   0.009   6.436  0.0959 -0.1976 -0.4568
  965W        W 2162   7.292   5.074   6.995  0.0088 -0.1699  0.0946
  966W        W 2163   5.387   1.988   5.381 -0.0059 -0.1480  0.4048
  967W        W 2164   3.682   1.090   6.462  0.2813 -0.0343  0.3021
  968W        W 2165   1.828   4.854   2.584  0.0867  0.0362 -0.2793
  969W        W 2166   0.904   6.094   4.418  0.2119 -0.0964  0.1789
  970W        W 2167   5.453   4.312   4.076  0.0109  0.3651  0.0231
  971W        W 2168   3.662   5.371   3.966 -0.0887 -0.0963  0.1559
  972W        W 2169   1.553   0.188   1.085 -0.2279 -0.1901  0.0006
  973W        W 2170   4.754   4.595   2.082  0.2918 -0.0434 -0.4295
  974W        W 2171   2.172   4.347   2.862  0.0551 -0.1747  0.1154
  975W        W 2172   3.896   4.352   7.094  0.2034 -0.1379  0.1788
  976W        W 2173   0.313   7.550   6.139 -0.0699  0.1829  0.0320
  977W        W 2174   3.498   5.265   6.863 -0.2430 -0.1392  0.1098
  978W        W 2175   1.202   7.021   6.162  0.0133  0.0640 -0.1158
  979W        W 2176   6.220   3.306   5.988  0.1988 -0.1179 -0.1089
  980W        W 2177   3.982   0.464   0.102  0.1633  0.0991  0.0808
  981W        W 2178   4.391   6.163   6.944  0.2105 -0.0706 -0.1942
  982W        W 2179   0.598   0.342   2.889 -0.0005  0.0921 -0.0153
  983W        W 2180   0.265   7.028   1.698  0.0948 -0.0913  0.0341
  984W        W 2181   6.492   1.347   7.044 -0.1132 -0.0647  0.0280
  985W        W 2182   3.873   6.035   6.904 -0.2081 -0.0344  0.0174
  986W        W 2183   1.204   4.911   3.527 -0.1045 -0.2645  0.1260
  987W        W 2184   3.263   2.727   1.873  0.0558  0.3500  0.2021
  988W        W 2185   4.592   4.395   1.660  0.1621 -0.1435 -0.2225
  989W        W 2186   4.575   2.633   6.847 -0.1807  0.1470 -0.0807
  990W        W 2187   0.429   1.620   0.514  0.3869  0.0724  0.0431
  991W        W 2188   3.731   2.866   0.574  0.0175  0.1281  0.0335
  992W        W 2189   3.701   5.210   5.604 -0.1358  0.0504 -0.1701
  993W        W 2190   1.819   3.160   5.613 -0.0008 -0.0243  0.0481
  994W        W 2191   4.176   4.825   4.650 -0.1502  0.0585 -0.0215
  995W        W 2192   2.739   1.306   2.265 -0.1834  0.1465 -0.0622
  996W        W 2193   6.417   3.693   5.091  0.1256 -0.0642 -0.1315
  997W        W 2194   5.955   4.425   4.009 -0.3393  0.1321 -0.0330
  998W        W 2195   6.703   0.193   3.478 -0.1157 -0.0085  0.2275
  999W        W 2196   0.273   1.058   5.456  0.3317  0.1965 -0.0360
 1000W        W 2197   0.863   3.326   2.942  0.2855  0.0837  0.0233
 1001W        W 2198   4.488   2.232   7.139  0.4417  0.2082  0.2302
 1002W        W 2199   1.405   7.379   0.911 -0.1009  0.4396  0.0426
 1003W        W 2200   4.807   3.426   4.602  0.1407 -0.0229  0.1034
 1004W        W 2201   2.222   3.205   0.079 -0.0380  0.1709 -0.0140
 1005W        W 2202   5.148   2.346   0.723 -0.1427 -0.1672  0.1390
 1006W        W 2203   1.375   6.862   6.564 -0.0688 -0.2707 -0.2121
 1007W        W 2204   7.474   3.504   5.377 -0.2258  0.1592 -0.0378
 1008W        W 2205   0.906   3.080   1.376 -0.1363 -0.2285  0.2693
 1009W        W 2206   5.422   1.517   0.005  0.0953  0.0764  0.2247
 1010W        W 2207   0.722   5.695   5.929  0.0326 -0.1868 -0.1565
 1011W        W 2208   1.832   5.835   5.309 -0.0639  0.2272 -0.1384
 1012W        W 2209   0.902   1.158   2.840 -0.0051  0.0224  0.1818
 1013W        W 2210   1.193   3.734   5.983  0.2145 -0.0108 -0.2212
 1014W        W 2211   2.060   3.915   4.659  0.1243  0.1024  0.2959
 1015W        W 2212   2.177   6.635   1.957 -0.3050  0.2091  0.2398
 1016W        W 2213   3.981   4.101   0.999 -0.2330 -0.1263 -0.1659
 1017W        W 2214   4.776   6.241   2.271 -0.0428 -0.2585 -0.1459
 1018W        W 2215   6.014   5.098   4.657  0.0327 -0.1537  0.0758
 1019W        W 2216   2.152   5.706   6.596  0.2461 -0.0270 -0.3518
 1020W        W 2217   4.106   2.591   7.062  0.1041 -0.0244 -0.4694
 1021W        W 2218   0.581   7.515   1.706 -0.1439  0.1550 -0.4393
 1022W        W 2219   0.294   0.319   4.969 -0.2664 -0.1246  0.0949
 1023W        W 2220   1.078   2.606   6.900  0.0976 -0.1142 -0.1902
 1024W        W 2221   5.706   5.496   1.008 -0.0098  0.1469  0.0981
 1025W        W 2222   4.112   4.146   1.529 -0.1183 -0.0255 -0.2066
 1026W        W 2223   4.042   1.657   0.911  0.1864 -0.2159 -0.3661
 1027W        W 2224   4.085   3.641   1.622  0.0657 -0.1820  0.0432
 1028W        W 2225   0.757   4.996   0.429 -0.1640  0.0077  0.2524
 1029W        W 2226   4.183   5.560   2.768  0.1335  0.3116 -0.1122
 1030W        W 2227   4.153   6.565   1.736 -0.1052  0.1494 -0.1471
 1031W        W 2228   7.659   5.478   2.979 -0.3513 -0.0551 -0.2196
 1032W        W 2229   1.367   1.940   1.691 -0.0952  0.0120 -0.1501
 1033W        W 2230   0.733   3.263   7.427  0.1085  0.1737  0.1626
 1034W        W 2231   1.016   2.643   1.137  0.0249  0.2571 -0.0476
 1035W        W 2232   3.034   5.365   6.676 -0.3468 -0.1868  0.0388
 1036W        W 2233   3.388   2.439   5.599 -0.0788  0.0380 -0.0508
 1037W        W 2234   4.621   3.006   3.564 -0.2289 -0.0640  0.1024
 1038W        W 2235   1.280   5.057   4.962 -0.0834 -0.0992 -0.0478
 1039W        W 2236   5.013   5.991   1.195 -0.1730  0.1485 -0.1327
 1040W        W 2237   6.663   5.726   7.090  0.0216 -0.1954 -0.2786
 1041W        W 2238   7.352   4.749   6.108 -0.0496  0.1716 -0.0305
 1042W        W 2239   1.132   2.700   5.798  0.0967 -0.2705 -0.0284
 1043W        W 2240   2.588   7.110   1.802  0.2098  0.1947 -0.1323
 1044W        W 2241   0.584   7.191   0.701 -0.2660 -0.1384  0.2309
 1045W        W 2242   1.727   7.057   0.670 -0.0989 -0.2450  0.0377
 1046W        W 2243   0.776   2.312   1.511  0.1806  0.1439  0.0876
 1047W        W 2244   5.131   0.352   2.644  0.2794 -0.1704 -0.0548
 1048W        W 2245   3.831   3.644   4.588  0.4499  0.3445  0.0184
 1049W        W 2246   1.743   3.993   6.788  0.0627 -0.0882  0.1112
 1050W        W 2247   0.502   6.850   7.464  0.0375 -0.2961 -0.2024
 1051W        W 2248   4.400   2.030   5.717  0.0344  0.1039 -0.1832
 1052W        W 2249   0.843   2.335   4.978  0.0946  0.3206 -0.1730
 1053W        W 2250   3.472   5.179   0.519  0.1164 -0.0623 -0.0133
 1054W        W 2251   5.269   3.258   6.076  0.3172  0.0880 -0.2915
 1055W        W 2252   6.965   7.290   6.328  0.0249 -0.1245  0.0324
 1056W        W 2253   7.432   7.043   7.299 -0.0292 -0.1740  0.2002
 1057W        W 2254   5.395   0.682   6.380 -0.1272  0.0539 -0.2082
 1058W        W 2255   0.017   2.400   0.279  0.0696 -0.0398 -0.2101
 1059W        W 2256   4.676   5.363   7.234  0.1461  0.1941 -0.3542
 1060W        W 2257   7.071   4.350   7.150 -0.0699  0.1038 -0.1523
 1061W        W 2258   0.535   1.029   2.022  0.2149 -0.0345 -0.0819
 1062W        W 2259   5.828   5.248   0.271 -0.0382  0.0304  0.0872
 1063W        W 2260   6.722   3.110   1.017 -0.0612  0.2232  0.2350
 1064W        W 2261   6.406   2.955   6.340  0.2180  0.1196 -0.0481
 1065W        W 2262   1.396   2.829   0.280  0.0800 -0.0892 -0.2514
 1066W        W 2263   1.066   3.331   4.605 -0.0785  0.1248 -0.0973
 1067W        W 2264   0.451   4.342   7.451  0.0508  0.0758  0.0958
 1068W        W 2265   4.787   5.657   3.813  0.1039 -0.0355  0.0662
 1069W        W 2266   3.785   4.757   0.450  0.0111 -0.0501  0.0177
 1070W        W 2267   6.103   0.444   6.012  0.4403  0.3156  0.2962
 1071W        W 2268   4.112   6.562   5.053  0.2197 -0.2495  0.3827
 1072W        W 2269   6.797   7.645   7.378 -0.0088 -0.1018 -0.0138
 1073W        W 2270   1.246   1.689   4.615  0.2193  0.1361 -0.0054
 1074W        W 2271   0.345   5.245   0.554  0.3549  0.1643  0.0244
 1075W        W 2272   1.748   0.384   2.081 -0.0903  0.1024  0.1705
 1076W        W 2273   3.706   3.786   6.068 -0.3671 -0.0440  0.0890
 1077W        W 2274   2.152   0.669   2.431  0.0938  0.1156 -0.2448
 1078W        W 2275   5.919   0.568   3.059 -0.0213  0.3882 -0.1496
 1079W        W 2276   1.236   4.923   6.464  0.0316 -0.2998 -0.4431
 1080W        W 2277   7.001   4.411   5.179 -0.1764  0.1066 -0.4534
 1081W        W 2278   4.315   4.381   4.315 -0.2285 -0.3089  0.1807
 1082W        W 2279   7.185   5.491   2.653 -0.1213  0.1167 -0.0177
 1083W        W 2280   4.640   0.220   6.414 -0.0224  0.0392  0.1411
 1084W        W 2281   0.936   6.566   7.413 -0.1883 -0.0939  0.1942
 1085W        W 2282   1.852   4.002   5.513  0.2185 -0.1252 -0.1412
 1086W        W 2283   3.486   2.355   0.541 -0.2335 -0.0081  0.1102
 1087W        W 2284   2.664   4.934   2.515 -0.1238  0.1056  0.2226
 1088W        W 2285   4.904   0.696   6.163 -0.0305 -0.2106  0.0348
 1089W        W 2286   2.360   2.606   6.480 -0.0783  0.0804  0.1225
 1090W        W 2287   0.616   5.309   5.563 -0.1160  0.0167  0.0637
 1091W        W 2288   6.028   5.703   2.600  0.0150 -0.0296  0.0213
 1092W        W 2289   1.577   2.565   7.537  0.0862 -0.0304  0.0233
 1093W        W 2290   4.039   4.654   7.431 -0.1536 -0.1439 -0.1060
 1094W        W 2291   0.012   2.908   7.165 -0.3019 -0.0164 -0.1606
 1095W        W 2292   1.641   3.367   4.797  0.0454  0.0342 -0.0983
 1096W        W 2293   0.396   7.088   6.450 -0.1712  0.1213 -0.1199
 1097W        W 2294   5.442   2.791   5.854 -0.1260  0.1711 -0.5477
 1098W        W 2295   4.025   4.224   6.047 -0.1603 -0.0642  0.2976
 1099W        W 2296   1.627   1.811   3.643 -0.0242 -0.1633  0.0742
 1100W        W 2297   3.331   3.200   1.983  0.1779 -0.1113  0.3132
 1101W        W 2298   6.457   0.980   1.850 -0.1193  0.0574  0.2133
 1102W        W 2299   6.115   7.154   3.495  0.2147  0.1006 -0.0368
 1103W        W 2300   4.426   6.517   0.346  0.0381  0.0280  0.2943
 1104W        W 2301   3.774   4.456   3.689  0.0142 -0.0959  0.0483
 1105W        W 2302   7.446   4.755   4.676 -0.0334  0.1057  0.0922
 1106W        W 2303   4.609   3.623   6.728  0.1623  0.0210  0.0239
 1107W        W 2304   0.775   3.160   5.991 -0.1612 -0.2306 -0.1560
 1108W        W 2305   2.036   2.637   4.019 -0.2714  0.3450  0.1306
 1109W        W 2306   6.494   2.817   5.886 -0.2164 -0.0155 -0.1327
 1110W        W 2307   2.112   2.173   5.653  0.1035 -0.1753 -0.1370
 1111W        W 2308   7.144   2.771   7.370  0.1252 -0.0000  0.0176
 1112W        W 2309   4.672   6.622   6.688 -0.2622 -0.1050 -0.0622
 1113W        W 2310   0.057   3.918   5.215  0.2034  0.2178 -0.1959
 1114W        W 2311   5.342   2.676   7.390  0.0838 -0.1534 -0.0600
 1115W        W 2312   7.648   6.741   1.317 -0.6024  0.2616  0.1980
 1116W        W 2313   4.608   5.734   6.827  0.3442  0.2315 -0.2915
 1117W        W 2314   5.085   5.145   6.259  0.1273 -0.0344  0.3115
 1118W        W 2315   2.076   3.901   0.894 -0.3934 -0.1534 -0.1203
 1119W        W 2316   1.748   4.318   3.735 -0.2582 -0.1304  0.0720
 1120W        W 2317   5.318   0.165   2.193  0.1181 -0.2624  0.1123
 1121W        W 2318   6.435   7.417   0.581  0.2399  0.2528 -0.0885
 1122W        W 2319   0.169   3.644   6.574 -0.2510  0.2867 -0.2121
 1123W        W 2320   5.618   0.197   6.064 -0.1606  0.0636  0.0120
 1124W        W 2321   7.419   1.923   1.772  0.0360 -0.0512 -0.0636
 1125W        W 2322   3.877   3.055   6.938  0.1132 -0.0683 -0.0321
 1126W        W 2323   7.431   0.698   3.164 -0.0491  0.1455 -0.2765
 1127W        W 2324   6.491   6.665   4.285 -0.1190  0.1639  0.0321
 1128W        W 2325   2.476   6.764   0.351  0.2506  0.0990  0.3207
 1129W        W 2326   4.918   5.089   3.879  0.1144  0.2047  0.0619
 1130W        W 2327   5.150   5.900   2.475 -0.4704  0.1234  0.2641
 1131W        W 2328   1.821   3.039   4.407 -0.1610  0.0750 -0.0506
 1132W        W 2329   2.893   0.476   6.189 -0.2252 -0.1093 -0.3328
 1133W        W 2330   5.308   7.320   4.555 -0.0354  0.1009  0.3343
 1134W        W 2331   4.676   3.682   4.162  0.0241  0.4451  0.2949
 1135W        W 2332   6.161   6.139   1.362  0.2583 -0.0938 -0.0704
 1136W        W 2333   3.145   1.021   2.908 -0.1088 -0.1106  0.0900
 1137W        W 2334   3.493   7.374   2.087  0.0571  0.2860 -0.4636
 1138W        W 2335   0.965   6.095   7.226  0.2015  0.2815  0.1439
 1139W        W 2336   6.604   0.635   2.311 -0.1200 -0.0495  0.1866
 1140W        W 2337   6.068   5.960   6.966 -0.2701  0.1994 -0.0728
 1141W        W 2338   2.982   0.895   5.996  0.1070 -0.0404  0.0609
 1142W        W 2339   6.382   7.198   1.579 -0.2245 -0.2566  0.0847
 1143W        W 2340   2.421   5.906   6.209 -0.1800  0.1088 -0.1788
 1144W        W 2341   5.676   5.595   3.427  0.3561 -0.0757  0.3327
 1145W        W 2342   1.569   0.169   1.565 -0.0505 -0.0883  0.0391
 1146W        W 2343   0.984   2.839   2.779 -0.2762  0.0638  0.0506
 1147W        W 2344   6.379   2.945   0.584  0.2521  0.1237  0.0156
 1148W        W 2345   3.326   2.546   1.364 -0.0602 -0.0754 -0.1097
 1149W        W 2346   2.920   3.094   1.628 -0.2649  0.2779  0.1706
 1150W        W 2347   7.194   6.081   6.980  0.1588 -0.1171  0.2852
 1151W        W 2348   4.719   2.996   3.040  0.1344 -0.1178 -0.0617
 1152W        W 2349   4.587   1.984   1.389 -0.1452 -0.0638  0.0591
 1153W        W 2350   5.585   1.300   6.936  0.0885  0.2263 -0.2469
 1154W        W 2351   1.549   5.662   2.201 -0.2334  0.0430 -0.1487
 1155W        W 2352   6.540   7.546   5.891  0.2812  0.0842  0.0722
 1156W        W 2353   4.253   1.725   6.467  0.0795  0.3799  0.0213
 1157W        W 2354   0.302   1.153   0.294  0.2230 -0.1418 -0.1050
 1158W        W 2355   3.233   6.161   0.757  0.6019 -0.1095  0.3164
 1159W        W 2356   5.123   6.863   4.541  0.1496  0.2357 -0.0916
 1160W        W 2357   2.036   4.449   0.944 -0.0786 -0.0510  0.0530
 1161W        W 2358   6.179   3.385   4.218 -0.2520  0.0757 -0.1189
 1162W        W 2359   4.744   4.587   3.803  0.3111  0.0846  0.0363
 1163W        W 2360   5.917   1.331   0.915 -0.0676 -0.2585 -0.0056
 1164W        W 2361   6.967   6.136   0.853 -0.1071  0.1322  0.1137
 1165W        W 2362   7.124   4.780   7.427 -0.0702  0.2995  0.1368
 1166W        W 2363   3.688   0.183   5.335  0.0224 -0.2301  0.0532
 1167W        W 2364   4.525   3.393   0.891 -0.1701 -0.2249 -0.0313
 1168W        W 2365   0.589   3.174   3.942  0.0766 -0.2892 -0.0042
 1169W        W 2366   3.087   2.327   2.192 -0.2702 -0.0346 -0.0436
 1170W        W 2367   2.815   5.616   7.165 -0.0794 -0.2534  0.1910
 1171W        W 2368   3.264   1.366   1.579 -0.4294 -0.0276  0.1482
 1172W        W 2369   3.874   1.191   0.773  0.2710 -0.0910  0.4483
 1173W        W 2370   3.619   4.319   5.363 -0.0575  0.2225  0.2526
 1174W        W 2371   0.604   5.286   6.534  0.0520 -0.0317  0.2227
 1175W        W 2372   5.192   2.511   4.962  0.1684  0.0327 -0.1159
 1176W        W 2373   1.277   3.358   6.339  0.0451 -0.2165  0.1073
 1177W        W 2374   6.896   0.179   5.855 -0.3955  0.0702 -0.0256
 1178W        W 2375   0.426   6.944   4.875  0.0699  0.2807 -0.2657
 1179W        W 2376   5.232   3.397   4.800  0.0851 -0.0378  0.0238
 1180W        W 2377   0.843   6.717   1.524  0.0921  0.0023 -0.1890
 1181W        W 2378   5.005   2.225   2.252 -0.0627  0.0712  0.0772
 1182W        W 2379   4.856   4.481   7.353 -0.0938 -0.0455  0.1856
 1183W        W 2380   6.633   4.086   3.950  0.0569  0.2442  0.0213
 1184W        W 2381   2.741   3.092   7.615 -0.0015 -0.1898  0.2084
 1185W        W 2382   6.758   6.241   5.133  0.0996 -0.1733 -0.0966
 1186W        W 2383   4.348   3.377   1.989  0.4415  0.0949 -0.0953
 1187W        W 2384   7.617   3.787   6.132 -0.1150 -0.1058 -0.2713
 1188W        W 2385   5.152   3.751   4.391  0.1776 -0.1475 -0.2130
 1189W        W 2386   1.074   5.938   6.346 -0.2840 -0.0911 -0.0848
 1190W        W 2387   3.141   2.099   0.888  0.3978  0.3133 -0.4065
 1191W        W 2388   0.549   5.531   4.791  0.1561  0.0495 -0.1219
 1192W        W 2389   1.825   7.476   5.898 -0.0731 -0.1229 -0.1375
 1193W        W 2390   4.693   7.368   0.029  0.0367  0.1294  0.0678
 1194W        W 2391   6.827   7.464   0.328 -0.3739 -0.0470  0.2013
 1195W        W 2392   2.860   6.934   7.633 -0.1418  0.2014 -0.1488
 1196W        W 2393   3.343   1.848   0.384  0.0564  0.0636 -0.1809
 1197W        W 2394   0.441   0.589   6.370  0.0948  0.1730 -0.2254
 1198W        W 2395   0.491   2.457   4.731  0.1374 -0.1743 -0.0032
 1199W        W 2396   5.400   2.090   1.938 -0.3248 -0.2349  0.0300
 1200W        W 2397   2.992   0.618   1.804 -0.2788 -0.0607 -0.0706
 1201W        W 2398   3.519   6.944   2.395  0.1282  0.2730  0.0157
 1202W        W 2399   6.282   2.845   4.423  0.2610 -0.0749  0.1089
 1203W        W 2400   5.473   5.937   6.706 -0.3980  0.0673  0.0299
 1204W        W 2401   2.229   7.069   2.177  0.0882 -0.3012 -0.0671
 1205W        W 2402   7.555   6.723   5.521 -0.0311 -0.0110  0.2474
 1206W        W 2403   3.284   2.914   5.849 -0.3494 -0.0799 -0.0165
 1207W        W 2404   2.684   2.774   6.087  0.0124  0.3580 -0.3197
 1208W        W 2405   1.438   2.835   2.601  0.1012  0.0024 -0.0291
 1209W        W 2406   6.736   0.505   7.570 -0.1048  0.1791  0.1859
 1210W        W 2407   0.816   3.882   0.731 -0.0409  0.1800  0.3956
 1211W        W 2408   2.854   3.256   7.087 -0.5160 -0.3136  0.1601
 1212W        W 2409   2.035   4.972   4.338  0.3670 -0.0926  0.1580
 1213W        W 2410   6.699   5.672   2.412  0.1804 -0.4287 -0.1627
 1214W        W 2411   0.265   2.233   2.299  0.2514 -0.1441  0.0457
 1215W        W 2412   0.875   2.803   5.281 -0.1254 -0.0127  0.1650
 1216W        W 2413   2.968   6.163   2.267 -0.1250  0.1738 -0.0421
 1217W        W 2414   0.338   3.352   0.074 -0.1295 -0.0666  0.2405
 1218W        W 2415   1.396   6.232   0.480  0.0144 -0.0773  0.0034
 1219W        W 2416   4.295   5.930   0.427  0.1882  0.0442  0.2501
 1220W        W 2417   5.096   4.143   5.862 -0.0353  0.1447  0.0497
 1221W        W 2418   4.532   0.506   1.893  0.0133  0.0563 -0.1004
 1222W        W 2419   1.418   4.627   2.343  0.1188 -0.0959  0.1626
 1223W        W 2420   4.719   0.493   1.010 -0.1903 -0.2595 -0.0111
 1224W        W 2421   6.907   1.285   1.195 -0.0399  0.2266  0.1696
 1225W        W 2422   2.557   3.860   0.686 -0.1230 -0.1772  0.0584
 1226W        W 2423   5.828   5.688   0.039  0.0286  0.1348 -0.0055
 1227W        W 2424   7.326   2.063   0.267 -0.2458 -0.0277 -0.1443
 1228W        W 2425   2.602   2.007   6.926 -0.0658  0.0899  0.0222
 1229W        W 2426   1.803   2.649   0.672  0.3504  0.0043  0.0410
 1230W        W 2427   1.264   4.789   1.805  0.1958 -0.1627  0.2798
 1231W        W 2428   3.529   0.445   1.552 -0.3563 -0.1343  0.0441
 1232W        W 2429   5.607   4.348   6.272  0.3708  0.3420  0.0944
 1233W        W 2430   5.625   3.066   4.995 -0.0740  0.1118 -0.0943
 1234W        W 2431   4.976   7.551   4.900 -0.2919 -0.0283 -0.0664
 1235W        W 2432   5.583   6.589   3.779  0.1882 -0.0657  0.3055
 1236W        W 2433   7.018   6.982   4.930 -0.0808  0.1072  0.0998
 1237W        W 2434   5.400   5.260   5.708 -0.0307  0.0859  0.0127
 1238W        W 2435   2.292   5.900   7.605  0.1219  0.2965 -0.2962
 1239W        W 2436   4.490   2.179   3.443 -0.0542  0.2440  0.0433
 1240W        W 2437   3.019   2.266   5.262 -0.0651  0.0679 -0.0290
 1241W        W 2438   1.777   3.166   0.341  0.0711 -0.0304 -0.1302
 1242W        W 2439   6.184   4.248   5.618 -0.0660  0.2385 -0.0400
 1243W        W 2440   1.295   7.462   2.861 -0.3249  0.1670 -0.0401
 1244W        W 2441   0.814   0.423   6.757  0.0468  0.4587 -0.0418
 1245W        W 2442   6.296   6.860   2.163  0.0325  0.0574  0.2751
 1246W        W 2443   0.731   6.763   6.079  0.3543  0.1050  0.1060
 1247W        W 2444   5.267   5.647   2.879  0.2932 -0.2517  0.2138
 1248W        W 2445   0.438   3.963   4.910 -0.0487  0.0782 -0.1382
 1249W        W 2446   1.135   0.443   1.501  0.2810  0.2145 -0.2485
 1250W        W 2447   0.077   1.127   7.095  0.2725 -0.1908  0.0484
 1251W        W 2448   4.781   5.705   5.108 -0.0712  0.0908  0.1531
 1252W        W 2449   1.456   4.176   5.885 -0.1515  0.0548  0.2048
 1253W        W 2450   2.310   1.114   0.016 -0.1130 -0.0841  0.3082
 1254W        W 2451   0.005   5.425   5.466 -0.1247  0.0313  0.1591
 1255W        W 2452   0.132   6.138   6.268  0.1257  0.2185  0.2274
 1256W        W 2453   1.527   1.421   1.266  0.3213  0.1864  0.0366
 1257W        W 2454   0.557   2.758   4.240  0.1548 -0.3133 -0.0026
 1258W        W 2455   2.698   3.414   4.001  0.1629  0.1269  0.1481
 1259W        W 2456   7.020   4.710   3.926 -0.0968 -0.0870  0.2310
 1260W        W 2457   5.218   4.111   7.262 -0.1448  0.1441 -0.1200
 1261W        W 2458   2.204   2.841   0.919  0.3768  0.1330  0.2618
 1262W        W 2459   7.171   6.187   7.555 -0.0541  0.0071 -0.0551
 1263W        W 2460   4.018   3.991   5.474 -0.2101 -0.0558  0.0158
 1264W        W 2461   4.999   2.007   1.659 -0.3557 -0.3520 -0.0342
 1265W        W 2462   2.559   4.834   0.819  0.1314 -0.1229 -0.0009
 1266W        W 2463   7.633   5.007   2.757 -0.0701 -0.1695 -0.1903
 1267W        W 2464   6.030   3.717   7.016 -0.2081 -0.1904  0.0296
 1268W        W 2465   1.291   3.803   4.420 -0.0004  0.0627  0.0114
 1269W        W 2466   6.793   1.731   5.930 -0.0136  0.0105  0.0809
 1270W        W 2467   4.257   6.127   4.806  0.0686  0.1569  0.2817
 1271W        W 2468   3.197   3.923   1.608  0.1746 -0.3429  0.3580
 1272W        W 2469   1.950   5.219   7.203 -0.1468  0.0467  0.0131
 1273W        W 2470   3.505   7.079   6.047 -0.3750  0.1766 -0.1682
 1274W        W 2471   3.051   2.656   2.570  0.2582  0.1246  0.0407
 1275W        W 2472   6.052   1.059   0.061 -0.0151 -0.2599 -0.1361
 1276W        W 2473   4.751   7.032   2.280 -0.1293  0.3361 -0.2130
 1277W        W 2474   6.291   5.634   6.031  0.1854 -0.0064  0.0614
 1278W        W 2475   0.634   2.744   5.741  0.1322  0.1514  0.2135
 1279W        W 2476   2.996   5.020   0.966 -0.0426 -0.0456 -0.2550
 1280W        W 2477   5.649   6.161   0.244 -0.1068 -0.0456  0.3518
 1281W        W 2478   6.408   6.948   0.666  0.0369 -0.0334  0.0379
 1282W        W 2479   4.070   2.628   5.786  0.1978 -0.1341 -0.0776
 1283W        W 2480   0.283   0.364   1.217  0.1555 -0.1175 -0.0367
 1284W        W 2481   6.704   3.434   7.587  0.2881 -0.0414  0.1343
 1285W        W 2482   1.966   1.266   1.966  0.4024 -0.3387  0.1554
 1286W        W 2483   5.384   6.062   6.233 -0.0136  0.3171 -0.3550
 1287W        W 2484   7.620   0.021   0.870 -0.2122  0.0405  0.1258
 1288W        W 2485   0.937   0.565   0.071 -0.0926 -0.1029  0.2281
 1289W        W 2486   7.152   3.109   0.769 -0.0185  0.1177 -0.1139
 1290W        W 2487   5.865   3.970   5.339 -0.0273  0.3556  0.1116
 1291W        W 2488   4.839   3.424   3.708 -0.2617  0.4576 -0.0463
 1292W        W 2489   0.987   1.436   1.238 -0.0478  0.1748  0.1649
 1293W        W 2490   4.346   0.018   4.530  0.1420  0.1199  0.0501
 1294W        W 2491   3.120   3.507   2.939 -0.3600 -0.2728  0.1996
 1295W        W 2492   2.838   4.740   5.723  0.0026 -0.3164  0.2664
 1296W        W 2493   5.735   6.775   1.035  0.1071  0.1103 -0.1629
 1297W        W 2494   6.196   5.871   7.412 -0.2196 -0.1800 -0.1583
 1298W        W 2495   3.845   3.731   2.619 -0.4522 -0.0256  0.0966
 1299W        W 2496   1.613   3.715   1.057  0.0794  0.0379 -0.1873
 1300W        W 2497   2.880   4.290   1.530  0.1388  0.0207  0.0213
 1301W        W 2498   4.059   6.482   2.625  0.0016 -0.2375  0.0640
 1302W        W 2499   2.328   2.481   3.614  0.0765 -0.2087 -0.1718
 1303W        W 2500   5.850   1.083   5.581 -0.1374 -0.3201 -0.1605
 1304W        W 2501   0.369   1.367   6.668  0.0823 -0.3276  0.0399
 1305W        W 2502   7.587   3.456   0.293 -0.2744 -0.1649 -0.2600
 1306W        W 2503   6.559   3.220   4.480 -0.0066 -0.3237 -0.0738
 1307W        W 2504   0.342   6.706   2.177  0.0198  0.2331 -0.0985
 1308W        W 2505   3.254   2.693   5.106 -0.4696  0.0991 -0.3930
 1309W        W 2506   4.778   1.642   0.426 -0.2309  0.1918 -0.0499
 1310W        W 2507   1.450   6.498   0.864  0.0006  0.0400 -0.2985
 1311W        W 2508   1.562   2.242   3.959  0.1754 -0.1046  0.1376
 1312W        W 2509   0.858   6.894   6.557  0.1212  0.2259  0.0827
 1313W        W 2510   2.940   6.959   0.764  0.2495  0.3056 -0.0896
 1314W        W 2511   4.037   1.195   7.616 -0.1465  0.2735  0.1894
 1315W        W 2512   4.188   5.881   7.591 -0.0446  0.0466  0.0062
 1316W        W 2513   2.698   4.708   1.267  0.0659  0.4003 -0.0613
 1317W        W 2514   4.326   1.493   2.872 -0.1754 -0.3279 -0.0845
 1318W        W 2515   4.230   0.755   2.695 -0.5199  0.0372  0.0056
 1319W        W 2516   6.830   5.760   4.917 -0.1376  0.0115 -0.2654
 1320W        W 2517   5.177   5.972   3.217 -0.0018  0.2352  0.0750
 1321W        W 2518   7.279   5.952   6.451  0.3493 -0.3186  0.5156
 1322W        W 2519   5.670   4.571   6.823 -0.0985  0.0027 -0.0647
 1323W        W 2520   7.178   4.236   4.746 -0.0234  0.3120 -0.1195
 1324W        W 2521   0.806   2.914   3.246 -0.0395  0.1131 -0.0961
 1325W        W 2522   5.014   2.231   1.210 -0.4455  0.0032  0.0920
 1326W        W 2523   7.014   0.355   2.287  0.3588 -0.1872 -0.0334
 1327W        W 2524   3.554   3.116   5.054 -0.2427 -0.1863  0.0500
 1328W        W 2525   1.811   2.650   2.353 -0.2379 -0.0310  0.0593
 1329W        W 2526   1.252   4.910   0.021  0.0935  0.1016  0.0755
 1330W        W 2527   5.666   5.515   2.289  0.3739  0.1301 -0.2299
 1331W        W 2528   3.568   2.431   2.009 -0.0020  0.1671 -0.0327
 1332W        W 2529   3.604   0.922   1.201  0.0569 -0.0436  0.1910
 1333W        W 2530   3.606   4.981   3.695  0.3713 -0.1913  0.2970
 1334W        W 2531   2.668   0.745   6.796  0.1780  0.2811 -0.2946
 1335W        W 2532   1.103   1.842   7.558 -0.0113 -0.2228  0.1244
 1336W        W 2533   5.785   5.910   1.903  0.2346  0.2275 -0.1077
 1337W        W 2534   1.606   7.521   2.506  0.4218 -0.0327 -0.1805
 1338W        W 2535   4.532   6.766   1.453  0.2080  0.2058  0.1668
 1339W        W 2536   0.515   0.700   0.323 -0.2270  0.3297  0.1696
 1340W        W 2537   1.469   3.449   3.683 -0.1248  0.1656 -0.3500
 1341W        W 2538   5.586   4.820   0.356  0.1207  0.1687 -0.0636
 1342W        W 2539   7.566   0.928   0.369  0.0845 -0.1517 -0.0697
 1343W        W 2540   7.489   7.236   4.069 -0.1043 -0.0081  0.1345
 1344W        W 2541   5.502   6.836   7.312 -0.0258  0.1860  0.0069
 1345W        W 2542   4.051   3.077   0.983  0.0455  0.0099 -0.1848
 1346W        W 2543   5.867   0.264   3.438 -0.3874 -0.0358  0.2088
 1347W        W 2544   5.095   0.450   7.053 -0.1361 -0.2059  0.0964
 1348W        W 2545   0.493   4.326   5.249  0.2460  0.1187  0.1836
 1349W        W 2546   6.973   4.475   0.181  0.1942 -0.1674 -0.1482
 1350W        W 2547   3.203   7.355   0.694  0.3743 -0.1880  0.3837
 1351W        W 2548   4.859   2.867   0.876 -0.2227 -0.1163 -0.0520
 1352W        W 2549   2.114   4.468   4.447  0.3554 -0.0308 -0.0939
 1353W        W 2550   6.417   7.589   2.742 -0.1570  0.0092  0.0427
 1354W        W 2551   7.048   6.892   4.422  0.0384 -0.1213  0.0821
 1355W        W 2552   0.209   6.508   0.057  0.2128  0.0581 -0.0006
 1356W        W 2553   1.710   2.290   5.295 -0.1292 -0.4964  0.0117
 1357W        W 2554   7.450   0.286   5.090 -0.0271 -0.0244  0.0526
 1358W        W 2555   1.824   1.881   6.319 -0.1005 -0.0124  0.0054
 1359W        W 2556   1.013   0.242   0.461  0.1617 -0.2763 -0.2706
 1360W        W 2557   2.181   4.756   1.593 -0.3985 -0.2996  0.2945
 1361W        W 2558   0.807   7.306   6.224 -0.2840  0.0656 -0.2635
 1362W        W 2559   1.150   6.033   5.845 -0.1840  0.1501  0.1106
 1363W        W 2560   4.238   1.230   2.447 -0.1162 -0.0863  0.2688
 1364W        W 2561   4.371   5.127   2.648  0.0038  0.3065  0.0206
 1365W        W 2562   4.379   3.297   3.897 -0.0291 -0.3405  0.1771
 1366W        W 2563   6.282   0.616   0.077 -0.0202 -0.3572 -0.2327
 1367W        W 2564   2.046   0.666   7.328  0.1531 -0.2712  0.0934
 1368W        W 2565   4.539   3.079   6.514 -0.2448 -0.3558  0.3028
 1369W        W 2566   6.368   4.581   6.865 -0.0031  0.2272  0.3057
 1370W        W 2567   2.018   5.628   0.330  0.1082  0.3125  0.1232
 1371W        W 2568   0.834   5.292   5.103  0.3462 -0.0582  0.0222
 1372W        W 2569   6.259   3.546   7.431  0.1920  0.1074 -0.2856
 1373W        W 2570   1.309   4.460   7.440  0.0490  0.0952  0.1604
 1374W        W 2571   0.096   6.685   7.255 -0.0458 -0.0409 -0.0868
 1375W        W 2572   4.016   1.937   6.926 -0.1638  0.2081  0.0087
 1376W        W 2573   3.405   6.843   0.667 -0.0003  0.0277  0.2870
 1377W        W 2574   2.813   2.333   3.445 -0.1751 -0.0409  0.0984
 1378W        W 2575   0.083   2.884   3.930 -0.0308 -0.0443  0.0270
 1379W        W 2576   1.968   3.941   2.483  0.0796 -0.0608 -0.0939
 1380W        W 2577   2.847   3.544   1.430 -0.0438  0.0925 -0.2804
 1381W        W 2578   3.998   2.968   3.915  0.0404 -0.2458 -0.0363
 1382W        W 2579   1.840   2.087   2.334  0.1945 -0.0203  0.1864
 1383W        W 2580   6.684   6.461   1.252 -0.1383 -0.0502  0.3897
 1384W        W 2581   3.247   4.903   6.580 -0.0640 -0.1845  0.2473
 1385W        W 2582   4.680   1.654   1.742  0.0449  0.0024  0.3640
 1386W        W 2583   0.347   4.433   1.439  0.0455  0.1487 -0.1506
 1387W        W 2584   6.307   1.257   0.541 -0.2488 -0.2061 -0.0583
 1388W        W 2585   3.662   5.990   6.138 -0.1786  0.3478 -0.4320
 1389W        W 2586   7.184   5.038   4.255  0.4339 -0.0820 -0.2109
 1390W        W 2587   0.942   4.091   6.190 -0.0842 -0.0309 -0.0117
 1391W        W 2588   6.653   3.603   7.053  0.1626  0.0153  0.2828
 1392W        W 2589   6.888   2.365   6.092 -0.2291  0.2449 -0.0834
 1393W        W 2590   3.773   4.636   6.257  0.0423  0.3067 -0.3404
 1394W        W 2591   6.597   6.443   0.347  0.0236  0.1786 -0.1512
 1395W        W 2592   1.160   5.311   4.105  0.1888 -0.1574 -0.1693
 1396W        W 2593   4.566   0.985   6.423  0.0342 -0.1458 -0.0449
 1397W        W 2594   7.110   0.210   0.099 -0.1412  0.1589 -0.0563
 1398W        W 2595   0.652   2.205   4.312  0.1387 -0.0439  0.5205
 1399W        W 2596   1.096   2.012   6.530  0.0722  0.1202  0.0493
 1400W        W 2597   4.782   7.324   3.610  0.0379  0.2050  0.0282
 1401W        W 2598   4.430   7.211   1.328  0.5035 -0.1729  0.1056
 1402W        W 2599   6.475   4.902   4.537 -0.2256  0.1183  0.2503
 1403W        W 2600   3.016   3.178   2.424  0.0587 -0.1717 -0.0940
 1404W        W 2601   5.504   7.098   2.701 -0.3296 -0.0679  0.1215
 1405W        W 2602   4.209   2.507   4.128 -0.1408 -0.0774 -0.2247
 1406W        W 2603   4.920   0.587   6.610 -0.3129 -0.0495  0.1333
 1407W        W 2604   1.005   5.281   4.611 -0.0432  0.0050  0.1411
 1408W        W 2605   4.537   5.368   1.019  0.2122  0.0019  0.2201
 1409W        W 2606   5.115   7.053   5.935 -0.1526  0.2522 -0.0244
 1410W        W 2607   4.617   5.057   4.699 -0.0413 -0.4315  0.2426
 1411W        W 2608   0.554   5.167   2.236 -0.3471  0.1871 -0.0870
 1412W        W 2609   5.949   7.071   0.595 -0.0624 -0.0265 -0.1340
 1413W        W 2610   1.448   1.467   7.477  0.3055 -0.1912  0.1491
 1414W        W 2611   2.264   1.078   1.391  0.0548 -0.0257  0.0548
 1415W        W 2612   0.671   2.395   0.966 -0.2063  0.2801  0.3665
 1416W        W 2613   0.280   3.370   7.249 -0.0911  0.3517 -0.0538
 1417W        W 2614   6.984   1.861   5.183 -0.0257  0.3464 -0.1993
 1418W        W 2615   3.437   3.890   5.584 -0.0839 -0.2195 -0.2107
 1419W        W 2616   1.147   3.686   3.308  0.0345 -0.1256  0.0984
 1420W        W 2617   5.735   6.366   1.294  0.2699 -0.0578  0.0936
 1421W        W 2618   6.131   1.478   7.387  0.0742 -0.2791 -0.0183
 1422W        W 2619   4.982   5.355   0.000  0.2923 -0.0410 -0.2389
 1423W        W 2620   0.597   1.644   7.615 -0.0007 -0.0148 -0.2025
 1424W        W 2621   7.110   2.504   0.145 -0.0117  0.1133 -0.0434
 1425W        W 2622   2.990   0.530   2.741  0.1333 -0.0711  0.1926
 1426W        W 2623   2.554   2.133   3.899  0.1368  0.0208 -0.2664
 1427W        W 2624   4.634   3.233   5.150  0.2855 -0.2201  0.2243
 1428W        W 2625   2.213   3.756   3.338  0.1679  0.1899 -0.1323
 1429W        W 2626   1.119   3.970   1.645 -0.0314  0.0278 -0.0620
 1430W        W 2627   4.553   4.449   2.896  0.0497  0.1103 -0.1577
 1431W        W 2628   3.954   2.572   7.610 -0.1456 -0.2671  0.1569
 1432W        W 2629   7.523   3.792   4.763  0.3479  0.3526 -0.1274
 1433W        W 2630   7.204   3.783   7.209  0.2931 -0.0716 -0.0638
 1434W        W 2631   0.077   7.152   0.513  0.0214  0.2987  0.1084
 1435W        W 2632   2.070   0.189   1.624 -0.1706 -0.0927 -0.0845
 1436W        W 2633   3.422   0.992   0.681  0.2050 -0.0727 -0.1515
 1437W        W 2634   3.412   0.665   6.159  0.0113 -0.0363 -0.0519
 1438W        W 2635   5.704   6.686   0.308  0.4463  0.1042 -0.2675
 1439W        W 2636   7.369   1.043   1.173  0.0734 -0.3427 -0.1318
 1440W        W 2637   1.656   5.172   0.957 -0.1581 -0.0076 -0.1347
 1441W        W 2638   2.438   0.404   7.143 -0.1360 -0.0430 -0.0054
 1442W        W 2639   7.294   2.257   4.742  0.2602 -0.1771  0.0143
 1443W        W 2640   7.464   5.971   0.888 -0.0792  0.1018  0.2516
 1444W        W 2641   0.812   4.717   1.458 -0.0186 -0.3775  0.0159
 1445W        W 2642   7.387   6.646   7.658 -0.3855 -0.2839  0.0457
 1446W        W 2643   3.288   5.922   7.350 -0.0147  0.0124 -0.1971
 1447W        W 2644   3.197   7.313   2.484  0.0400 -0.0572  0.1121
 1448W        W 2645   2.423   2.788   0.408 -0.2488  0.1784  0.1327
 1449W        W 2646   2.770   2.469   6.862 -0.0429 -0.1698  0.1920
 1450W        W 2647   6.477   3.797   4.402  0.0831  0.2030  0.4764
 1451W        W 2648   0.216   4.933   6.864 -0.0160  0.2786  0.0291
 1452W        W 2649   3.787   2.156   7.285  0.1355 -0.4571  0.2549
 1453W        W 2650   7.117   3.124   4.625  0.3527 -0.1056  0.2240
 1454W        W 2651   0.199   2.050   7.346  0.4048  0.2592  0.1749
 1455W        W 2652   4.692   1.443   2.462  0.0564 -0.3580  0.0389
 1456W        W 2653   3.487   1.336   0.327 -0.2482  0.1922 -0.0301
 1457W        W 2654   5.560   2.023   0.673 -0.0600 -0.3134  0.1129
 1458W        W 2655   7.430   0.475   6.703 -0.1731 -0.1670 -0.0511
 1459W        W 2656   2.017   4.331   6.561  0.1997  0.0156 -0.0211
 1460W        W 2657   3.541   2.251   3.675 -0.2540  0.1574  0.5716
 1461W        W 2658   0.217   4.751   0.542 -0.0693  0.2599  0.1018
 1462W        W 2659   2.998   3.759   7.189  0.0343  0.1876  0.1884
 1463W        W 2660   6.704   5.594   1.879  0.0264 -0.0700  0.2811
 1464W        W 2661   2.134   0.047   6.838 -0.3116  0.1276  0.0319
 1465W        W 2662   6.787   2.768   5.494 -0.0410 -0.0461  0.2471
 1466W        W 2663   6.745   6.251   7.206  0.1485 -0.0574  0.0801
 1467W        W 2664   1.701   5.667   6.912 -0.0826 -0.2167  0.0558
 1468W        W 2665   4.422   3.978   3.193  0.2580 -0.1430 -0.0887
 1469W        W 2666   2.197   7.239   6.922  0.0146  0.3112  0.0848
 1470W        W 2667   0.117   6.844   4.090  0.0355 -0.2201  0.0368
 1471W        W 2668   1.279   6.794   1.783 -0.3153 -0.0376  0.0419
 1472W        W 2669   0.876   2.937   2.218 -0.1289  0.0019  0.1921
 1473W        W 2670   6.402   4.609   3.725  0.0036  0.0421  0.2717
 1474W        W 2671   4.712   6.808   3.761 -0.2869  0.0574 -0.2325
 1475W        W 2672   1.842   4.358   2.292 -0.2067 -0.0100 -0.2216
 1476W        W 2673   5.329   7.584   4.133 -0.1572 -0.1484 -0.1323
 1477W        W 2674   1.160   7.634   7.174  0.1565  0.1949 -0.1712
 1478W        W 2675   4.205   1.834   2.518 -0.1005 -0.1527  0.1548
 1479W        W 2676   4.138   3.644   3.013  0.1030  0.3588 -0.0936
 1480W        W 2677   4.634   4.100   6.091  0.1167 -0.1339 -0.1372
 1481W        W 2678   5.928   6.383   1.743 -0.0759  0.1376  0.4130
 1482W        W 2679   3.421   4.751   3.230 -0.2720 -0.0861  0.1877
 1483W        W 2680   0.549   4.526   5.925 -0.1696  0.1304 -0.2409
 1484W        W 2681   5.397   5.747   5.886 -0.4250  0.1668 -0.1776
 1485W        W 2682   6.349   7.222   6.856 -0.1842  0.3790  0.1794
 1486W        W 2683   0.117   4.995   1.906  0.1054 -0.1829  0.1297
 1487W        W 2684   2.449   6.111   2.003 -0.0254 -0.2228 -0.0164
 1488W        W 2685   0.147   3.475   4.995  0.3890 -0.0366 -0.1186
 1489W        W 2686   7.275   1.399   0.735 -0.2016  0.0363  0.1209
 1490W        W 2687   3.459   3.800   4.309 -0.2315  0.2783 -0.0316
 1491W        W 2688   3.105   0.016   0.296  0.1724  0.4508 -0.2648
 1492W        W 2689   1.114   6.556   6.919  0.0259 -0.2865 -0.0704
 1493W        W 2690   2.392   6.716   6.863  0.0659  0.0832 -0.0723
 1494W        W 2691   3.128   0.866   1.399  0.0308 -0.0013 -0.2649
 1495W        W 2692   7.245   0.916   6.380  0.0872  0.0392 -0.0046
 1496W        W 2693   0.949   0.970   2.361  0.1049 -0.0372 -0.1108
 1497W        W 2694   6.118   0.599   6.908 -0.1364  0.0757  0.1623
 1498W        W 2695   0.803   7.565   3.053  0.4520  0.2807  0.2232
 1499W        W 2696   7.040   1.433   1.942 -0.0661 -0.1827  0.1011
 1500W        W 2697   0.643   6.377   0.681  0.0133 -0.0574 -0.0102
 1501W        W 2698   3.628   7.353   2.721  0.2565  0.0517  0.1814
 1502W        W 2699   0.776   4.806   5.340 -0.1467 -0.1099  0.3671
 1503W        W 2700   6.421   1.946   0.535 -0.0644 -0.2349  0.0532
 1504W        W 2701   1.108   4.502   5.488 -0.0405 -0.2663 -0.1727
 1505W        W 2702   0.939   5.759   2.995 -0.0975  0.3345  0.0661
 1506W        W 2703   6.767   5.500   6.263 -0.2485 -0.1435  0.2244
 1507W        W 2704   4.180   4.434   3.328  0.0128  0.1389 -0.1323
 1508W        W 2705   6.809   6.552   4.735 -0.0236  0.0713  0.2662
 1509W        W 2706   6.913   0.899   7.311 -0.0865 -0.2568 -0.0166
 1510W        W 2707   2.335   7.022   0.913 -0.1368  0.3731 -0.1067
 1511W        W 2708   3.349   3.484   4.786 -0.1055 -0.1375 -0.3440
 1512W        W 2709   6.976   0.680   0.307 -0.0739  0.2121  0.0259
 1513W        W 2710   2.765   6.349   0.660  0.0990  0.1008  0.1895
 1514W        W 2711   3.116   5.244   5.727 -0.1140  0.3137  0.2315
 1515W        W 2712   4.862   3.791   3.371 -0.3600 -0.2237 -0.0254
 1516W        W 2713   2.981   4.923   0.510  0.1100 -0.3196  0.4670
 1517W        W 2714   1.329   3.313   0.084 -0.3817  0.1034 -0.1138
 1518W        W 2715   6.944   6.337   6.327  0.0221 -0.1517  0.4074
 1519W        W 2716   0.098   0.360   5.437 -0.0565  0.0683  0.0188
 1520W        W 2717   0.678   3.090   6.529  0.1055  0.1489 -0.2610
 1521W        W 2718   0.772   0.234   1.259 -0.4556  0.1626  0.0024
 1522W        W 2719   2.129   6.071   5.786  0.2867  0.0621  0.4233
 1523W        W 2720   0.046   7.227   1.064 -0.0193 -0.0679  0.0753
 1524W        W 2721   3.703   1.947   2.671  0.0884 -0.1524  0.1649
 1525W        W 2722   0.530   3.970   6.621 -0.1344 -0.1235  0.2746
 1526W        W 2723   5.940   7.276   2.946  0.1822  0.2678  0.1295
 1527W        W 2724   0.873   4.963   5.846  0.3054  0.0224 -0.3715
 1528W        W 2725   7.608   0.081   4.672 -0.0726 -0.4060 -0.2807
 1529W        W 2726   1.128   2.504   4.127  0.2238  0.0175  0.1528
 1530W        W 2727   1.043   2.805   6.389 -0.1375  0.2138 -0.2029
 1531W        W 2728   6.523   6.793   6.625  0.1030  0.0256  0.0977
 1532W        W 2729   6.382   0.784   2.739 -0.1971  0.1243  0.0278
 1533W        W 2730   7.513   7.500   5.368 -0.0408 -0.3592 -0.0618
 1534W        W 2731   4.412   4.393   1.113 -0.0291 -0.1365 -0.2132
 1535W        W 2732   1.531   6.363   7.149  0.3156  0.2525  0.0207
 1536W        W 2733   7.146   7.593   3.952 -0.3278 -0.2770 -0.0954
 1537W        W 2734   3.768   1.476   2.507 -0.0941  0.0036 -0.1402
 1538W        W 2735   6.364   1.081   1.022 -0.0175 -0.2898  0.1812
 1539W        W 2736   7.255   7.031   0.278 -0.0065 -0.0988  0.2344
 1540W        W 2737   2.022   0.836   6.203 -0.2439  0.0160 -0.0029
 1541W        W 2738   5.157   6.607   4.965  0.2805  0.0209 -0.3263
 1542W        W 2739   1.312   6.010   5.392 -0.3994  0.0902  0.1129
 1543W        W 2740   4.702   5.501   6.212  0.1757 -0.0470 -0.2570
 1544W        W 2741   5.823   5.553   7.165 -0.2570  0.1096  0.0235
 1545W        W 2742   4.386   3.848   1.246 -0.2452  0.2074 -0.0169
 1546W        W 2743   6.522   3.835   0.305 -0.1293 -0.3624  0.3722
 1547W        W 2744   4.325   5.797   1.587 -0.1191  0.2785  0.0670
 1548W        W 2745   3.375   5.029   2.761  0.3547  0.3111 -0.0555
 1549W        W 2746   6.027   6.280   3.232 -0.1415 -0.1185  0.0414
 1550W        W 2747   5.364   3.162   7.303 -0.0992 -0.2275  0.0885
 1551W        W 2748   4.628   2.334   2.688  0.0338 -0.2603 -0.3981
 1552W        W 2749   6.711   5.956   6.050  0.0351  0.1698 -0.0850
 1553W        W 2750   1.735   3.153   2.186 -0.1487  0.3571  0.0985
 1554W        W 2751   0.436   3.517   2.662 -0.0989 -0.0910  0.2496
 1555W        W 2752   4.421   6.040   2.638  0.1284 -0.0378  0.4808
 1556W        W 2753   4.199   1.524   5.550 -0.2649  0.0333 -0.2573
 1557W        W 2754   5.281   0.583   5.750  0.1591  0.2621 -0.0823
 1558W        W 2755   4.480   4.696   5.059  0.1343  0.2844 -0.1010
 1559W        W 2756   1.680   4.636   4.199 -0.1245 -0.4057 -0.0666
 1560W        W 2757   0.628   7.606   4.869 -0.0758  0.0963  0.0147
 1561W        W 2758   6.909   5.424   4.017  0.0376 -0.0221  0.0254
 1562W        W 2759   6.309   7.407   4.924 -0.1406 -0.0396 -0.0408
 1563W        W 2760   5.730   1.808   5.808  0.0614  0.0144 -0.0884
 1564W        W 2761   3.112   6.498   6.261 -0.0632 -0.1565 -0.1329
 1565W        W 2762   7.351   7.082   3.475  0.4087  0.1010 -0.0182
 1566W        W 2763   6.962   3.606   5.523 -0.0991 -0.3220 -0.3132
 1567W        W 2764   0.311   5.865   1.424 -0.0621 -0.0452 -0.1890
 1568W        W 2765   1.314   6.188   7.651  0.1515 -0.1981  0.0232
 1569W        W 2766   2.511   3.896   1.328  0.0354  0.0141 -0.0622
 1570W        W 2767   5.051   5.739   6.587  0.0765 -0.1638 -0.1223
 1571W        W 2768   4.586   2.054   6.176  0.1037 -0.1141 -0.3127
 1572W        W 2769   5.111   4.822   3.512  0.3218 -0.0498 -0.1064
 1573W        W 2770   4.168   5.471   5.663  0.1018 -0.1958  0.2216
 1574W        W 2771   4.628   5.390   1.812 -0.3057 -0.2449 -0.0264
 1575W        W 2772   6.028   5.100   7.297  0.1982  0.1452 -0.2466
 1576W        W 2773   4.946   6.315   3.701  0.0519 -0.0747  0.0285
 1577W        W 2774   3.451   2.007   5.269 -0.0903 -0.0204  0.1526
 1578W        W 2775   6.530   0.674   0.527  0.3388 -0.0794 -0.2684
 1579W        W 2776   4.573   2.567   6.349  0.0596  0.2064  0.0007
 1580W        W 2777   5.650   0.837   1.136 -0.1114 -0.1901 -0.0617
 1581W        W 2778   3.996   7.046   1.532 -0.1574  0.0769 -0.0483
 1582W        W 2779   7.389   4.012   1.041 -0.2254  0.1510  0.3152
 1583W        W 2780   2.631   0.806   1.593 -0.0999 -0.0305 -0.0335
 1584W        W 2781   6.146   5.356   5.543 -0.1750  0.0606  0.1531
 1585W        W 2782   0.271   5.466   4.337 -0.0321 -0.0462  0.1830
 1586W        W 2783   6.262   6.982   5.474 -0.3347 -0.0267  0.0341
 1587W        W 2784   2.744   2.989   2.040  0.0832  0.2592 -0.2057
 1588W        W 2785   6.074   6.504   4.596 -0.2102  0.0687 -0.0716
 1589W        W 2786   6.861   5.264   7.235 -0.0461 -0.1529  0.1435
 1590W        W 2787   0.451   6.942   1.247 -0.2546  0.0079 -0.0169
 1591W        W 2788   3.878   4.496   1.209  0.1026 -0.2832  0.2455
 1592W        W 2789   5.292   7.132   5.071 -0.2062 -0.1746 -0.1226
 1593W        W 2790   4.900   1.556   7.616 -0.1849  0.0106  0.2709
 1594W        W 2791   1.558   5.535   5.585 -0.0003  0.1500  0.0582
 1595W        W 2792   3.208   4.351   1.916 -0.1927  0.0141 -0.0750
 1596W        W 2793   3.903   3.501   7.132 -0.2320  0.0845 -0.1798
 1597W        W 2794   4.407   3.986   0.132  0.2063 -0.3784  0.0434
 1598W        W 2795   1.853   6.175   6.807 -0.0310 -0.1315 -0.1191
 1599W        W 2796   7.264   6.720   1.664 -0.1229  0.3234 -0.0646
 1600W        W 2797   0.821   4.610   7.658  0.0900  0.3994  0.0032
 1601W        W 2798   6.302   4.259   5.062  0.1109 -0.1930 -0.0838
 1602W        W 2799   5.224   6.206   7.027 -0.1694 -0.5006  0.0984
 1603W        W 2800   4.738   3.942   0.933 -0.1666 -0.1932  0.0407
 1604W        W 2801   6.091   1.708   5.469 -0.3054  0.1478  0.0179
 1605W        W 2802   4.821   6.603   6.129 -0.0196  0.2988 -0.0916
 1606W        W 2803   4.282   7.003   0.353  0.1273 -0.0196  0.0804
 1607W        W 2804   6.177   4.926   4.126  0.1853 -0.0794  0.1882
 1608W        W 2805   7.591   1.102   2.741  0.2065 -0.0300  0.0928
 1609W        W 2806   7.167   1.564   1.464  0.0152  0.2536  0.1134
 1610W        W 2807   2.615   1.583   2.701  0.4276  0.0436  0.0701
 1611W        W 2808   3.783   3.495   2.122 -0.1020  0.0662 -0.0457
 1612W        W 2809   7.070   5.783   1.599  0.0324  0.2866  0.0243
 1613W        W 2810   1.635   2.536   4.359  0.3162 -0.3685 -0.0907
 1614W        W 2811   3.150   4.302   5.503 -0.2494 -0.0053 -0.0617
 1615W        W 2812   0.817   4.156   3.321  0.0298 -0.0757 -0.1900
 1616W        W 2813   7.639   4.745   1.366  0.0301 -0.0713  0.0291
 1617W        W 2814   6.258   0.042   1.670 -0.1975  0.0999 -0.1456
 1618W        W 2815   5.004   5.107   4.370 -0.2989  0.0953 -0.1566
 1619W        W 2816   7.529   3.429   6.973  0.1524  0.1796 -0.1836
 1620W        W 2817   4.415   2.797   2.654  0.0210  0.1128 -0.0040
 1621W        W 2818   4.744   5.803   7.526 -0.0183  0.1621  0.0486
 1622W        W 2819   4.342   0.268   2.911 -0.1042  0.3065  0.3661
 1623W        W 2820   1.117   2.348   1.893  0.1105  0.2605 -0.2011
 1624W        W 2821   0.696   6.393   1.855 -0.0323  0.1754 -0.1202
 1625W        W 2822   4.970   6.886   5.412 -0.1686  0.3345 -0.6475
 1626W        W 2823   1.076   3.183   0.505 -0.0452  0.2438  0.1268
 1627W        W 2824   3.813   1.056   2.191 -0.2641  0.1647  0.0413
 1628W        W 2825   6.389   6.305   7.565 -0.1955  0.1915 -0.2505
 1629W        W 2826   4.449   2.925   1.183 -0.1868 -0.0879  0.2022
 1630W        W 2827   5.373   2.738   6.387  0.0347  0.0232 -0.1603
 1631W        W 2828   5.860   3.217   7.443  0.0695  0.0280 -0.2461
 1632W        W 2829   0.280   3.458   3.164 -0.0282 -0.0296 -0.0493
 1633W        W 2830   2.182   4.173   0.461  0.3736  0.0668 -0.3153
 1634W        W 2831   3.001   5.403   0.422  0.0851 -0.1982 -0.1892
 1635W        W 2832   7.642   3.680   0.780 -0.1757  0.1343 -0.0545
 1636W        W 2833   6.906   6.212   2.639 -0.0972  0.0869  0.0120
 1637W        W 2834   5.660   1.115   7.397 -0.3730 -0.0939 -0.1149
 1638W        W 2835   2.772   5.503   1.614 -0.0826 -0.4155  0.0165
 1639W        W 2836   0.491   6.627   3.799  0.0028 -0.1299 -0.3014
 1640W        W 2837   7.312   5.293   4.697  0.3218 -0.3678  0.2312
 1641W        W 2838   0.737   6.209   6.019  0.2146 -0.0313  0.1376
 1642W        W 2839   0.172   7.017   6.896  0.3069  0.2623  0.1557
 1643W        W 2840   0.967   4.242   2.184  0.1864  0.1791 -0.1513
 1644W        W 2841   5.877   7.574   0.367  0.2574 -0.2274  0.1604
 1645W        W 2842   5.792   5.915   3.011  0.2926 -0.2841  0.0777
 1646W        W 2843   0.388   7.434   4.030  0.0176  0.3400  0.0944
 1647W        W 2844   4.801   3.326   7.203  0.1498 -0.1253  0.1341
 1648W        W 2845   4.800   5.058   0.367  0.1288  0.0531  0.4446
 1649W        W 2846   7.578   7.153   5.861  0.0952  0.1288  0.0448
 1650W        W 2847   1.022   4.800   4.536  0.2998 -0.1923 -0.1751
 1651W        W 2848   0.038   5.187   7.275 -0.0403  0.0139 -0.2552
 1652W        W 2849   4.327   0.707   7.456 -0.0588 -0.3509 -0.4394
 1653W        W 2850   0.368   5.014   0.093 -0.1061 -0.2851  0.3543
 1654W        W 2851   3.884   7.589   2.360  0.1415 -0.0244  0.1742
 1655W        W 2852   1.802   0.342   6.032 -0.0198  0.0113  0.0477
 1656W        W 2853   7.194   4.928   3.039  0.2859  0.0696 -0.0445
 1657W        W 2854   7.392   3.822   3.008  0.1495  0.0946  0.0792
 1658W        W 2855   5.444   0.296   3.760  0.2301 -0.0727  0.2337
 1659W        W 2856   5.316   7.409   3.558  0.1977  0.1000  0.1102
 1660W        W 2857   1.606   2.326   0.343 -0.0850 -0.1003  0.1370
 1661W        W 2858   1.222   7.438   5.631 -0.1638  0.1355  0.1059
 1662W        W 2859   7.471   3.198   7.504  0.2382  0.0380 -0.0374
 1663W        W 2860   2.439   1.627   6.536  0.4536  0.4883  0.0287
 1664W        W 2861   3.985   5.090   6.003 -0.0142 -0.0284  0.1463
 1665W        W 2862   2.521   2.496   4.280 -0.0437 -0.2470 -0.1122
 1666W        W 2863   3.646   2.222   1.559 -0.1880  0.0482 -0.4625
 1667W        W 2864   2.478   2.402   1.272 -0.2300  0.1385  0.0594
 1668W        W 2865   6.057   3.669   3.564  0.4411  0.0062 -0.1917
 1669W        W 2866   3.461   3.369   6.045  0.1495 -0.1941 -0.0615
 1670W        W 2867   6.160   6.805   3.071  0.0597  0.2959 -0.2294
 1671W        W 2868   0.233   4.811   6.259 -0.1427  0.0423 -0.2355
 1672W        W 2869   1.029   6.105   0.807  0.0590 -0.1488 -0.2577
 1673W        W 2870   7.341   2.896   6.757  0.1209  0.0560 -0.3300
 1674W        W 2871   2.995   6.841   5.910 -0.3383  0.1637 -0.0487
 1675W        W 2872   0.558   4.757   1.959 -0.0318  0.1155  0.2658
 1676W        W 2873   0.179   5.165   4.738  0.0547 -0.1619 -0.0456
 1677W        W 2874   4.778   1.183   6.035  0.1284  0.0326  0.1182
 1678W        W 2875   2.514   1.532   1.484  0.1464 -0.0266  0.4399
 1679W        W 2876   3.516   1.829   6.941  0.0166 -0.0146  0.2012
 1680W        W 2877   6.920   4.114   4.355 -0.0693  0.1969 -0.0025
 1681W        W 2878   4.271   3.458   0.224 -0.0206 -0.1599  0.0817
 1682W        W 2879   0.120   6.000   0.007 -0.0147 -0.0419  0.2015
 1683W        W 2880   2.107   6.386   0.110  0.1930 -0.2668 -0.3086
 1684W        W 2881   1.513   4.617   0.951  0.2557 -0.1441  0.2539
 1685W        W 2882   3.868   0.634   3.047  0.3411  0.2409 -0.2799
 1686W        W 2883   1.010   4.932   2.187 -0.0924 -0.0932  0.1752
 1687W        W 2884   2.893   0.941   0.697 -0.0137  0.1148  0.2003
 1688W        W 2885   0.041   1.600   6.934  0.1320  0.1352 -0.0854
 1689W        W 2886   2.247   4.013   5.255 -0.0817  0.3071 -0.0212
 1690W        W 2887   0.933   1.391   4.860  0.0272  0.0930  0.2738
 1691W        W 2888   2.600   5.138   0.255 -0.1180  0.2462  0.0038
 1692W        W 2889   3.992   7.010   5.271 -0.2327 -0.0656  0.1484
 1693W        W 2890   5.650   5.018   6.997 -0.1125 -0.0735  0.0347
 1694W        W 2891   6.034   2.009   6.469 -0.0192 -0.0587  0.1316
 1695W        W 2892   3.854   3.601   0.038  0.0501  0.0672  0.1348
 1696W        W 2893   4.863   0.594   3.675  0.1230  0.1379 -0.2659
 1697W        W 2894   2.209   5.260   0.614 -0.2802 -0.0533  0.0618
 1698W        W 2895   3.486   4.284   2.432  0.0596 -0.1797 -0.2580
 1699W        W 2896   2.899   4.799   4.244  0.0479  0.3305 -0.0364
 1700W        W 2897   6.205   0.494   1.998 -0.0991 -0.0012 -0.1869
 1701W        W 2898   4.331   5.238   1.422 -0.1058 -0.4026 -0.1861
 1702W        W 2899   0.431   4.751   3.122 -0.7059 -0.1768 -0.0276
 1703W        W 2900   4.236   3.478   2.495 -0.0995 -0.2259  0.1303
 1704W        W 2901   0.441   3.801   3.961  0.1416 -0.2577 -0.1549
 1705W        W 2902   6.632   3.412   6.492 -0.4300 -0.2124  0.0899
 1706W        W 2903   3.357   5.553   0.070  0.0113 -0.0512  0.1195
 1707W        W 2904   4.763   6.916   0.359  0.0745 -0.1718 -0.0571
 1708W        W 2905   5.168   1.122   7.460  0.0302 -0.0372 -0.0026
 1709W        W 2906   4.424   6.502   3.517  0.0693  0.2289  0.0602
 1710W        W 2907   6.360   4.326   0.304 -0.3614 -0.1562 -0.1481
 1711W        W 2908   1.304   5.516   5.153 -0.4237  0.0932 -0.2402
 1712W        W 2909   5.185   1.574   6.122  0.3482  0.0104 -0.0331
 1713W        W 2910   5.434   5.436   6.847 -0.1160  0.0676  0.1224
 1714W        W 2911   3.528   1.232   7.497 -0.1624 -0.1235  0.1598
 1715W        W 2912   6.478   4.819   6.400  0.3775  0.0242 -0.2341
 1716W        W 2913   0.855   2.661   7.363 -0.0519  0.1340  0.0922
 1717W        W 2914   4.165   4.776   6.755  0.0152 -0.1026 -0.0644
 1718W        W 2915   4.630   5.800   5.560 -0.0934  0.2379  0.1481
 1719W        W 2916   4.024   5.910   2.368  0.2924 -0.1764 -0.1748
 1720W        W 2917   2.947   6.660   7.015  0.1687  0.0690  0.4039
 1721W        W 2918   3.250   1.268   1.049  0.1608 -0.1516 -0.0321
 1722W        W 2919   4.327   3.211   2.926 -0.1692 -0.0591 -0.1765
 1723W        W 2920   1.135   2.420   0.115  0.0291 -0.1694 -0.3711
 1724W        W 2921   4.090   1.126   1.279 -0.1131  0.0458 -0.1730
 1725W        W 2922   7.203   3.553   0.587 -0.1794 -0.1657  0.2092
 1726W        W 2923   5.688   7.057   3.763 -0.4160 -0.3100 -0.1010
 1727W        W 2924   1.232   4.367   0.255 -0.0040  0.3899 -0.1050
 1728W        W 2925   2.105   6.893   5.941  0.0796  0.3099  0.0838
 1729W        W 2926   2.309   7.314   1.298 -0.0495  0.1740 -0.1351
 1730W        W 2927   1.020   6.223   2.431 -0.0177 -0.0632 -0.2615
 1731W        W 2928   2.889   4.626   5.211 -0.0364  0.0634 -0.1569
 1732W        W 2929   0.327   2.130   1.838 -0.0021 -0.0768 -0.0395
 1733W        W 2930   2.623   7.253   2.480 -0.2457  0.0350 -0.1363
 1734W        W 2931   2.039   2.194   7.652 -0.0455 -0.0089  0.1870
 1735W        W 2932   4.302   5.240   3.120 -0.0431  0.1177  0.0504
 1736W        W 2933   6.330   0.046   6.849  0.0437 -0.2086  0.0279
 1737W        W 2934   4.146   7.362   2.752 -0.2693  0.1086  0.0062
 1738W        W 2935   2.430   6.502   5.996 -0.2526 -0.0115 -0.2201
 1739W        W 2936   5.136   5.119   7.168 -0.1685 -0.2760 -0.0178
 1740W        W 2937   1.630   3.936   2.846  0.0693 -0.2652  0.1049
 1741W        W 2938   3.204   4.466   2.828 -0.0285 -0.1872 -0.0245
 1742W        W 2939   1.907   4.185   6.044 -0.1833  0.0431 -0.4919
 1743W        W 2940   6.188   4.225   4.507 -0.1197  0.0713  0.1557
 1744W        W 2941   4.236   2.368   1.439 -0.0363  0.3537 -0.1631
 1745W        W 2942   3.674   5.521   2.634 -0.1475 -0.1463  0.2061
 1746W        W 2943   5.525   2.286   1.098  0.0332  0.0577  0.1656
 1747W        W 2944   0.161   0.519   2.803  0.0732 -0.0782  0.0212
 1748W        W 2945   1.568   0.920   7.267  0.2855  0.1692  0.0528
 1749W        W 2946   0.076   0.321   3.292  0.1814  0.2627  0.0561
 1750W        W 2947   1.687   4.646   1.465 -0.1218 -0.2658  0.1510
 1751W        W 2948   3.463   3.989   2.842 -0.2804 -0.0101 -0.3231
 1752W        W 2949   2.032   3.699   1.540  0.3597  0.0430  0.0462
 1753W        W 2950   1.153   2.131   1.280 -0.1188  0.0649 -0.3148
 1754W        W 2951   0.774   2.041   2.166 -0.0648 -0.1389 -0.4211
 1755W        W 2952   7.223   0.192   6.214  0.0061 -0.4436 -0.0353
 1756W        W 2953   0.577   5.986   3.989 -0.0373  0.2482  0.0917
 1757W        W 2954   4.848   2.376   7.610 -0.1830 -0.1609 -0.2873
 1758W        W 2955   1.239   1.550   2.814 -0.0145 -0.1551 -0.0256
 1759W        W 2956   2.935   0.441   7.163 -0.0954 -0.0973  0.1843
 1760W        W 2957   0.523   2.997   0.353 -0.0724 -0.0228 -0.1920
 1761W        W 2958   2.704   4.976   6.626 -0.1623  0.0291 -0.0214
 1762W        W 2959   1.899   1.830   1.897 -0.2854  0.0487  0.2484
 1763W        W 2960   6.416   7.207   3.094  0.0618  0.0882  0.2269
 1764W        W 2961   5.713   3.290   6.961 -0.0916 -0.3979 -0.0319
 1765W        W 2962   2.182   6.534   1.077  0.0281  0.3160 -0.0165
 1766W        W 2963   1.418   4.587   3.251 -0.3089  0.4802  0.3040
 1767W        W 2964   1.156   5.776   1.566  0.0545  0.0195  0.1976
 1768W        W 2965   0.137   1.512   7.520 -0.2964  0.0429 -0.0385
 1769W        W 2966   1.783   0.290   0.066 -0.0758 -0.0436 -0.1543
 1770W        W 2967   6.973   5.160   3.603 -0.1878  0.0681  0.0902
 1771W        W 2968   5.785   4.009   3.290  0.2449 -0.2803 -0.2615
 1772W        W 2969   7.307   5.060   2.287 -0.0519  0.1866  0.1077
 1773W        W 2970   0.119   5.894   2.677  0.0312 -0.0107 -0.1299
 1774W        W 2971   1.533   7.226   1.632 -0.2623  0.0186 -0.2756
 1775W        W 2972   7.087   3.273   7.229  0.0034 -0.1717  0.2294
 1776W        W 2973   2.660   3.634   3.158  0.0230  0.2323 -0.0640
 1777W        W 2974   5.775   4.280   4.846  0.1816  0.0320 -0.0712
 1778W        W 2975   3.832   1.053   2.755  0.5460  0.0173  0.0554
 1779W        W 2976   3.857   5.930   0.686  0.3149 -0.2246  0.2274
 1780W        W 2977   1.958   1.772   7.355 -0.0705  0.2726 -0.1032
 1781W        W 2978   6.667   6.322   5.632  0.2843  0.5540 -0.0931
 1782W        W 2979   5.145   5.653   7.179 -0.1654 -0.1192 -0.0517
 1783W        W 2980   3.160   3.795   6.125 -0.2043  0.2042 -0.0978
 1784W        W 2981   3.109   7.378   6.025  0.1792  0.0221 -0.0552
 1785W        W 2982   3.378   7.645   5.682  0.1279  0.0608 -0.1576
 1786W        W 2983   7.081   6.832   6.429  0.0241 -0.3149  0.0462
 1787W        W 2984   7.117   7.165   1.914  0.1277  0.3696  0.1419
 1788W        W 2985   1.245   0.450   6.433 -0.0834 -0.1206  0.0402
 1789W        W 2986   4.791   1.066   0.138  0.2356  0.1058  0.0705
 1790W        W 2987   4.025   1.589   2.060 -0.1053  0.1429  0.0337
 1791W        W 2988   4.966   0.231   7.546 -0.0230  0.0293 -0.1282
 1792W        W 2989   4.092   0.216   3.385  0.0431  0.1657 -0.1724
 1793W        W 2990   0.785   0.300   1.804  0.0032  0.1287 -0.1979
 1794W        W 2991   0.287   4.194   0.734  0.2062 -0.0734 -0.0174
 1795W        W 2992   6.271   5.763   2.110 -0.0154  0.0787 -0.1942
 1796W        W 2993   5.159   5.004   4.851  0.0130 -0.1414 -0.0570
 1797W        W 2994   7.267   7.523   0.509 -0.1307  0.1617  0.0957
 1798W        W 2995   7.313   5.736   5.202  0.4480  0.0325  0.0854
 1799W        W 2996   5.910   0.690   7.384 -0.0465  0.0654  0.1727
 1800W        W 2997   0.236   6.604   6.043 -0.0180 -0.6035 -0.0501
 1801W        W 2998   7.579   5.694   7.176 -0.4439 -0.1159 -0.1655
 1802W        W 2999   2.418   4.473   4.980 -0.1207  0.0846  0.0227
 1803W        W 3000   1.503   6.859   7.067  0.0591  0.0258  0.0124
 1804W        W 3001   2.481   5.002   4.072 -0.0027 -0.2079  0.2034
 1805W        W 3002   3.769   0.936   0.325 -0.0889  0.2844  0.0662
 1806W        W 3003   3.804   5.098   2.009 -0.1425  0.3282  0.1176
 1807W        W 3004   0.666   3.441   2.238  0.1282 -0.1619  0.2459
 1808W        W 3005   1.765   0.364   7.084  0.0410 -0.0803  0.1516
 1809W        W 3006   6.366   2.465   5.487 -0.3297 -0.3000 -0.0139
 1810W        W 3007   4.284   2.894   1.670 -0.2141  0.0948 -0.0802
 1811W        W 3008   1.775   1.079   1.569 -0.3540  0.0508  0.2053
 1812W        W 3009   1.763   0.570   6.493 -0.0559  0.1445 -0.0206
 1813W        W 3010   1.285   2.747   0.766 -0.0413 -0.0999  0.0730
 1814W        W 3011   3.395   1.488   3.133  0.2829  0.1534 -0.0121
 1815W        W 3012   0.354   5.225   3.348  0.0859 -0.1414 -0.0372
 1816W        W 3013   5.872   2.405   6.834 -0.0785  0.5322  0.1503
 1817W        W 3014   5.091   4.950   2.897  0.1689  0.2764 -0.1644
 1818W        W 3015   2.513   3.298   5.022  0.2991 -0.0310  0.1948
 1819W        W 3016   4.460   3.337   1.470 -0.0111 -0.0140 -0.0764
 1820W        W 3017   3.974   7.221   2.001  0.0413 -0.2097 -0.1255
 1821W        W 3018   3.791   6.495   2.236  0.2544 -0.0781 -0.1232
 1822W        W 3019   3.208   5.136   3.422 -0.0223  0.0822 -0.0353
 1823W        W 3020   2.817   1.408   6.883  0.1012  0.1089  0.0164
 1824W        W 3021   2.934   6.083   1.107 -0.0994  0.1623 -0.1404
 1825W        W 3022   1.679   4.842   7.373 -0.2101  0.0409  0.5072
 1826W        W 3023   5.353   5.438   3.977 -0.1264  0.3102  0.1133
 1827W        W 3024   7.213   7.435   1.128  0.4008 -0.2048  0.0476
 1828W        W 3025   3.809   1.923   0.556  0.0666  0.0337  0.1031
 1829W        W 3026   5.627   0.668   1.913 -0.0696  0.0401 -0.1104
 1830W        W 3027   0.773   6.166   6.712  0.0886  0.0022  0.1218
 1831W        W 3028   4.750   5.316   2.905 -0.3336 -0.2547  0.0386
 1832W        W 3029   2.946   0.462   0.130  0.0220 -0.0825 -0.1921
 1833W        W 3030   4.306   2.382   5.311 -0.0892 -0.0218  0.0768
 1834W        W 3031   2.804   2.864   3.366  0.1649 -0.0322 -0.1746
 1835W        W 3032   6.007   7.601   0.871 -0.0742  0.2645  0.0665
 1836W        W 3033   2.419   3.136   6.315 -0.2907 -0.1470  0.0758
 1837W        W 3034   4.684   2.703   5.048 -0.0943 -0.0589 -0.2702
 1838W        W 3035   3.522   7.488   7.023  0.1098 -0.0414  0.2690
 1839W        W 3036   4.181   4.775   2.961 -0.0158 -0.0766  0.1790
 1840W        W 3037   0.878   7.440   2.160 -0.0666 -0.1889 -0.1539
 1841W        W 3038   2.248   3.270   0.557 -0.0155 -0.1618  0.1790
 1842W        W 3039   4.170   7.149   5.790  0.3226 -0.2004 -0.2269
 1843W        W 3040   6.093   4.111   6.233  0.1581 -0.0231  0.1919
 1844W        W 3041   4.363   2.472   0.221  0.2220  0.0777 -0.0532
 1845W        W 3042   3.244   3.773   2.368  0.1604  0.0186 -0.0076
 1846W        W 3043   7.545   5.281   0.417  0.2429  0.2497 -0.0270
 1847W        W 3044   6.895   2.106   0.525 -0.0632 -0.1195 -0.3334
 1848W        W 3045   3.451   0.928   1.849 -0.0788  0.0961 -0.1676
 1849W        W 3046   0.071   1.173   0.791 -0.3207  0.0320 -0.1021
 1850W        W 3047   4.061   7.429   6.557 -0.1005 -0.1081  0.1531
 1851W        W 3048   6.323   5.295   6.439 -0.0498  0.0441 -0.2166
 1852W        W 3049   1.973   6.236   6.204  0.1193 -0.1252 -0.2727
 1853W        W 3050   4.289   2.877   2.181  0.0735 -0.0250 -0.0336
 1854W        W 3051   3.829   2.699   1.559  0.4130 -0.0203  0.0639
 1855W        W 3052   7.554   1.479   0.287 -0.1091 -0.0731  0.6179
 1856W        W 3053   1.743   4.798   1.966 -0.0022 -0.3694 -0.2425
 1857W        W 3054   3.847   3.467   4.070 -0.1188 -0.0257  0.2375
 1858W        W 3055   1.339   3.253   5.851 -0.0972 -0.2871  0.1255
 1859W        W 3056   6.820   2.991   6.867  0.2213  0.0551  0.1473
 1860W        W 3057   2.604   2.336   4.786 -0.0388  0.0002 -0.0239
 1861W        W 3058   0.093   4.573   5.434  0.0037 -0.1357 -0.2386
 1862W        W 3059   0.952   2.932   0.103  0.2018 -0.3255  0.5017
 1863W        W 3060   3.768   0.295   5.856  0.1395  0.0711  0.0145
 1864W        W 3061   3.619   4.443   1.667 -0.0164  0.0184 -0.2733
 1865W        W 3062   1.377   2.348   6.291  0.1458  0.2276 -0.2136
 1866W        W 3063   4.746   6.577   7.210  0.2989  0.2311  0.1346
 1867W        W 3064   0.744   7.495   5.744 -0.0411  0.0876  0.2470
 1868W        W 3065   6.355   5.803   6.478  0.3252 -0.2165 -0.1523
 1869W        W 3066   5.142   0.901   2.845  0.1633  0.2488 -0.1415
 1870W        W 3067   7.397   4.958   5.598  0.1734 -0.1978  0.1552
 1871W        W 3068   3.795   6.949   0.981 -0.1410 -0.1226 -0.2908
 1872W        W 3069   7.281   7.626   6.689  0.0413 -0.0647 -0.1433
 1873W        W 3070   3.906   4.670   5.715 -0.0712 -0.1322  0.3019
 1874W        W 3071   0.798   1.863   1.080 -0.1282 -0.2065  0.2884
 1875W        W 3072   2.071   4.750   3.850  0.0797 -0.0500 -0.0446
 1876W        W 3073   7.363   5.714   0.018 -0.1796 -0.0934 -0.0496
 1877W        W 3074   2.210   3.159   5.355 -0.2761  0.3475 -0.1981
 1878W        W 3075   4.414   0.645   6.072  0.0216  0.1359 -0.0374
 1879W        W 3076   2.823   1.215   7.433  0.1078 -0.1593 -0.0210
 1880W        W 3077   7.451   3.300   5.824 -0.1388  0.2179  0.2602
 1881W        W 3078   3.186   5.784   1.451  0.0744  0.1946  0.0468
 1882W        W 3079   0.728   2.236   6.921 -0.1303 -0.0194 -0.2361
 1883W        W 3080   2.433   0.303   2.612  0.0376 -0.1796  0.0668
 1884W        W 3081   3.182   6.153   1.834 -0.1334  0.0502  0.0778
 1885W        W 3082   5.575   1.983   0.048 -0.4384 -0.0429 -0.2135
 1886W        W 3083   5.955   2.746   0.336  0.1937 -0.1803  0.0812
 1887W        W 3084   7.502   1.515   6.114 -0.0476 -0.0560  0.0931
 1888W        W 3085   2.219   5.322   5.033 -0.0630 -0.2335  0.1386
 1889W        W 3086   4.311   6.351   2.171 -0.0712 -0.0261  0.2025
 1890W        W 3087   7.302   5.100   1.236  0.0157 -0.0867 -0.0223
 1891W        W 3088   7.433   2.200   5.202 -0.1222  0.0696  0.0202
 1892W        W 3089   4.485   6.860   7.582  0.1624 -0.2346 -0.0245
 1893W        W 3090   4.614   3.109   0.507 -0.2206 -0.2037  0.2273
 1894W        W 3091   7.191   1.076   1.604  0.0779 -0.1078 -0.0687
 1895W        W 3092   3.955   3.450   3.576  0.5469 -0.1042  0.0328
 1896W        W 3093   1.207   4.107   7.118 -0.0117 -0.1589  0.1138
 1897W        W 3094   5.780   7.544   3.833  0.1438 -0.2362  0.4461
 1898W        W 3095   6.299   0.059   3.961  0.0576  0.4270 -0.0275
 1899W        W 3096   0.948   7.193   1.136 -0.2124 -0.1382 -0.1018
 1900W        W 3097   7.601   0.194   5.875  0.1797  0.0855 -0.2226
 1901W        W 3098   0.010   0.398   0.173  0.2811  0.2538 -0.1105
 1902W        W 3099   6.386   6.650   2.562  0.1585  0.2086  0.1071
 1903W        W 3100   3.950   7.292   6.983 -0.0467  0.1510 -0.1640
 1904W        W 3101   4.247   5.320   6.335  0.0588 -0.2545  0.0111
 1905W        W 3102   3.536   0.928   7.028  0.1930  0.0031 -0.1184
 1906W        W 3103   4.064   4.486   5.254 -0.1994 -0.2522  0.1050
 1907W        W 3104   4.627   7.264   0.782 -0.1037  0.0057 -0.0786
 1908W        W 3105   4.623   7.055   2.801 -0.0415 -0.0420  0.0699
 1909W        W 3106   0.164   5.447   6.827 -0.1544 -0.1521  0.0539
 1910W        W 3107   6.887   5.446   0.076  0.3596  0.1150  0.3145
 1911W        W 3108   1.230   0.593   6.948  0.1070  0.2935  0.3857
 1912W        W 3109   7.464   5.469   4.219 -0.0723  0.0351  0.1605
 1913W        W 3110   3.151   0.489   6.647 -0.1064  0.1613 -0.1137
 1914W        W 3111   2.942   4.287   2.417  0.4531 -0.1110 -0.0566
 1915W        W 3112   0.575   1.278   7.140  0.0691  0.2135  0.2739
 1916W        W 3113   5.311   5.839   4.380 -0.0629 -0.1069 -0.1247
 1917W        W 3114   3.509   4.921   4.218 -0.0777 -0.1173 -0.3243
 1918W        W 3115   7.356   5.894   2.368 -0.3737 -0.1052 -0.1650
 1919W        W 3116   2.518   0.781   6.348  0.1387 -0.2455  0.2237
 1920W        W 3117   6.713   4.278   3.507 -0.0031 -0.1432 -0.0230
 1921W        W 3118   3.414   5.713   0.575 -0.0011 -0.0625 -0.2645
 1922W        W 3119   3.266   4.910   1.827 -0.3966  0.0513  0.0079
 1923W        W 3120   0.760   4.619   4.119  0.1016  0.1475  0.0056
 1924W        W 3121   2.371   6.060   1.148 -0.1443  0.1456 -0.0762
 1925W        W 3122   6.244   6.664   1.161  0.3675  0.2146  0.0492
 1926W        W 3123   0.795   5.181   6.961  0.1166  0.0432 -0.0570
 1927W        W 3124   3.005   6.631   0.377 -0.1883 -0.0027 -0.0121
 1928W        W 3125   5.030   3.832   6.909 -0.1832 -0.3542  0.2296
 1929W        W 3126   1.892   1.664   5.832 -0.1235 -0.0332 -0.1144
 1930W        W 3127   5.696   7.116   4.264 -0.0958  0.1134  0.0173
 1931W        W 3128   7.261   2.471   0.990  0.0943 -0.1594 -0.0718
 1932W        W 3129   1.990   3.570   5.168  0.0274  0.0719  0.1886
 1933W        W 3130   2.577   4.139   3.238 -0.1624 -0.1633  0.1031
 1934W        W 3131   7.064   6.636   0.419  0.1132  0.1569 -0.4644
 1935W        W 3132   4.797   3.088   1.833 -0.3615  0.3481  0.1069
 1936W        W 3133   6.237   3.182   7.087 -0.2157  0.0078  0.5504
 1937W        W 3134   1.890   5.652   7.464  0.1137  0.2181  0.1297
 1938W        W 3135   3.362   3.478   5.335 -0.0652 -0.2482  0.0946
 1939W        W 3136   3.951   3.430   0.604 -0.1848  0.0416 -0.0792
 1940W        W 3137   5.699   6.255   5.660  0.2734  0.0352 -0.0399
 1941W        W 3138   3.779   2.059   6.473 -0.1337 -0.0100  0.0541
 1942W        W 3139   0.783   5.490   0.678 -0.2141 -0.0293  0.1847
 1943W        W 3140   2.181   4.813   6.966  0.1924  0.2528 -0.2219
 1944W        W 3141   3.673   3.900   1.356  0.0813 -0.0484 -0.1769
 1945W        W 3142   4.035   0.315   1.546 -0.1254  0.0173  0.2247
 1946W        W 3143   6.100   1.702   6.123 -0.1547 -0.0599 -0.0000
 1947W        W 3144   3.932   6.986   3.574  0.1215  0.2508  0.0432
 1948W        W 3145   1.066   6.450   6.370  0.0003  0.0184 -0.1543
 1949W        W 3146   3.484   4.961   6.017  0.1715 -0.0609  0.3219
 1950W        W 3147   1.845   7.154   7.274 -0.0097 -0.0967 -0.0648
 1951W        W 3148   0.213   6.738   0.879  0.0636  0.0247  0.1656
 1952W        W 3149   1.209   3.638   4.994 -0.0415 -0.1765  0.1261
 1953W        W 3150   1.691   3.062   7.509 -0.1611  0.1151  0.0263
 1954W        W 3151   2.290   4.362   7.520 -0.1228 -0.0209  0.2867
 1955W        W 3152   7.369   0.410   0.562  0.1609 -0.1318  0.2546
 1956W        W 3153   5.147   5.381   5.230 -0.1351 -0.0808 -0.1193
 1957W        W 3154   2.514   6.420   1.530  0.3730  0.0289 -0.2715
 1958W        W 3155   2.997   7.383   7.477 -0.0900 -0.0772 -0.1833
 1959W        W 3156   6.397   4.469   5.985 -0.1939 -0.1837 -0.0377
 1960W        W 3157   1.775   4.246   0.001  0.0461 -0.0403  0.1114
 1961W        W 3158   2.315   6.264   7.210 -0.0568 -0.1069 -0.4978
 1962W        W 3159   6.524   4.488   4.208 -0.0017  0.1411 -0.0406
 1963W        W 3160   0.637   0.182   5.348 -0.0506  0.0402  0.0263
 1964W        W 3161   7.123   7.399   5.841 -0.1270  0.0828  0.0475
 1965W        W 3162   0.046   2.915   0.199 -0.1056 -0.1978  0.3078
 1966W        W 3163   5.045   7.634   3.019 -0.1368  0.2292  0.0438
 1967W        W 3164   1.862   2.462   6.570  0.0498 -0.3305  0.1445
 1968W        W 3165   3.211   2.391   6.589 -0.4360 -0.2371 -0.1085
 1969W        W 3166   4.540   4.788   5.573 -0.1818 -0.2361  0.0715
 1970W        W 3167   2.779   1.162   1.228 -0.0051  0.0984 -0.2888
 1971W        W 3168   0.366   7.125   5.357 -0.1153 -0.1956 -0.1798
 1972W        W 3169   4.890   4.565   0.229 -0.2087  0.1446  0.3590
 1973W        W 3170   0.206   2.239   6.390  0.1252 -0.1636  0.0579
 1974W        W 3171   4.837   0.775   7.363 -0.2070  0.2722 -0.0913
 1975W        W 3172   6.312   3.273   0.202  0.1093 -0.3467 -0.2453
 1976W        W 3173   5.804   3.053   4.027 -0.0852  0.2227  0.1671
 1977W        W 3174   0.432   6.640   2.818  0.3864 -0.0220  0.0352
 1978W        W 3175   5.995   4.559   7.232 -0.3145 -0.0157  0.0509
 1979W        W 3176   0.085   0.173   6.477  0.0774  0.0066 -0.0179
 1980W        W 3177   3.589   3.959   2.017 -0.0912  0.0747 -0.4374
 1981W        W 3178   3.678   4.940   7.191 -0.3215 -0.1592  0.0904
 1982W        W 3179   1.125   3.253   1.872 -0.1097  0.0126 -0.1628
 1983W        W 3180   4.611   1.936   7.604  0.5167 -0.2902  0.0243
 1984W        W 3181   1.216   3.205   3.221 -0.2327  0.1961  0.1879
 1985W        W 3182   0.604   5.899   7.524  0.3193 -0.0907  0.0896
 1986W        W 3183   2.291   4.852   2.797 -0.0473  0.1795  0.0787
 1987W        W 3184   4.002   6.339   3.699 -0.1931  0.2740 -0.2027
 1988W        W 3185   5.905   1.443   1.429 -0.0103 -0.0700 -0.1516
 1989W        W 3186   6.759   5.382   1.373 -0.0293 -0.0061 -0.1324
 1990W        W 3187   5.709   6.041   7.316 -0.0594  0.0844 -0.0288
 1991W        W 3188   3.610   6.196   5.583 -0.0419 -0.2710 -0.0921
 1992W        W 3189   2.476   5.667   5.770  0.0062  0.0283  0.4659
 1993W        W 3190   4.110   7.229   0.749  0.0388 -0.1333  0.0913
 1994W        W 3191   1.771   6.767   1.598 -0.0339 -0.0838  0.0276
 1995W        W 3192   7.326   1.242   7.407 -0.1779 -0.2249 -0.0317
 1996W        W 3193   2.133   4.920   1.083  0.4871 -0.1261 -0.0796
 1997W        W 3194   3.317   3.619   1.193  0.0790  0.1146 -0.1307
 1998W        W 3195   2.099   1.208   0.538  0.1155 -0.0908  0.0063
 1999W        W 3196   3.286   2.266   7.132  0.1793 -0.2432 -0.1228
 2000W        W 3197   3.137   7.018   6.390 -0.2165 -0.0737 -0.0996
 2001W        W 3198   7.076   0.031   5.410 -0.1745 -0.0127  0.2396
 2002W        W 3199   6.947   4.757   0.860 -0.0773  0.1238 -0.0754
 2003W        W 3200   0.768   1.765   6.120  0.0599 -0.1269  0.0953
 2004W        W 3201   6.806   2.121   5.625 -0.0371 -0.0092 -0.0367
 2005W        W 3202   3.373   4.732   5.565  0.2176  0.1549  0.0939
 2006W        W 3203   5.010   6.556   4.172 -0.0907 -0.0979 -0.1889
 2007W        W 3204   5.889   4.475   3.180  0.1672 -0.2416  0.3434
 2008W        W 3205   5.194   0.776   0.186  0.0783 -0.1151  0.1234
 2009W        W 3206   6.972   3.520   3.024  0.0032  0.1104  0.0040
 2010W        W 3207   4.881   5.576   3.307  0.0682 -0.1705  0.0241
 2011W        W 3208   1.438   5.119   2.337  0.0095  0.1408 -0.1463
 2012W        W 3209   3.558   6.258   6.530 -0.0864  0.0421 -0.3122
 2013W        W 3210   2.789   6.733   6.530  0.0742 -0.2242  0.4405
 2014W        W 3211   3.592   3.096   6.469  0.1015  0.3087 -0.2101
 2015W        W 3212   0.260   0.005   2.907  0.0329  0.1966 -0.1825
 2016W        W 3213   4.532   4.425   6.504 -0.2506  0.0803  0.0924
 2017W        W 3214   4.845   4.343   6.875 -0.0063 -0.0160  0.3950
 2018W        W 3215   5.080   5.169   2.434 -0.5202  0.2471  0.2430
 2019W        W 3216   0.159   7.540   1.454 -0.0495  0.1776 -0.0540
 2020W        W 3217   7.052   3.456   3.537 -0.1123  0.2448 -0.0776
 2021W        W 3218   3.016   0.970   6.493  0.1641 -0.4190 -0.0606
 2022W        W 3219   6.401   5.878   5.581  0.1134 -0.2119  0.2026
 2023W        W 3220   6.793   5.317   4.584  0.0660 -0.0928  0.0138
 2024W        W 3221   5.214   6.864   3.628 -0.2581 -0.0302  0.2124
 2025W        W 3222   4.073   5.087   4.046 -0.0542  0.0468  0.2267
 2026W        W 3223   5.817   7.610   4.291 -0.0323  0.3668 -0.1733
 2027W        W 3224   1.316   3.840   5.503 -0.0058 -0.1051  0.1490
 2028W        W 3225   3.427   6.840   6.781 -0.2982  0.3000  0.0204
 2029W        W 3226   5.450   5.458   6.338 -0.0160  0.1118  0.2143
 2030W        W 3227   3.764   0.715   7.410  0.0353  0.0798 -0.0499
 2031W        W 3228   0.501   7.516   1.122 -0.3558  0.2154  0.0763
 2032W        W 3229   2.957   4.453   3.312 -0.1863 -0.1542  0.1043
 2033W        W 3230   1.890   7.021   1.137  0.0206 -0.1972 -0.1288
 2034W        W 3231   4.970   2.359   7.129  0.1895  0.1507  0.1022
 2035W        W 3232   4.850   7.192   6.735  0.0911 -0.0747  0.2223
 2036W        W 3233   1.609   5.095   3.169 -0.1521 -0.0433 -0.3092
 2037W        W 3234   5.652   5.702   0.543  0.1706  0.1000 -0.1218
 2038W        W 3235   1.685   4.815   3.585 -0.0773 -0.1413 -0.3928
 2039W        W 3236   1.931   2.736   3.102 -0.0178 -0.1132 -0.1258
 2040W        W 3237   7.284   1.932   0.954  0.0475 -0.1904 -0.0605
 2041W        W 3238   4.615   6.391   1.146  0.0486  0.2277 -0.1849
 2042W        W 3239   6.639   5.914   1.360 -0.0644 -0.2087 -0.0978
 2043W        W 3240   1.183   1.187   0.813  0.1643  0.5956 -0.0596
 2044W        W 3241   2.386   1.492   7.111 -0.1414 -0.0995  0.3262
 2045W        W 3242   4.289   4.648   6.097  0.2046 -0.2533  0.0731
 2046W        W 3243   1.745   1.139   0.044 -0.0748 -0.3191  0.2467
 2047W        W 3244   0.715   0.086   3.977  0.1131 -0.0311  0.0948
 2048W        W 3245   2.499   3.649   7.017  0.0735 -0.0662  0.1911
 2049W        W 3246   2.094   2.297   0.505  0.1458  0.3412 -0.0409
 2050W        W 3247   2.575   5.184   1.250 -0.1559  0.1947 -0.1071
 2051W        W 3248   1.442   5.856   7.311 -0.0217 -0.0158 -0.0131
 2052W        W 3249   4.830   5.914   2.896  0.0891  0.1917 -0.0781
 2053W        W 3250   6.256   0.926   6.110 -0.0036  0.0508 -0.1748
 2054W        W 3251   3.314   5.405   4.376  0.0332 -0.0676  0.0026
 2055W        W 3252   7.114   5.663   7.279 -0.0402 -0.3329 -0.0185
 2056W        W 3253   4.411   4.056   6.833 -0.0968  0.0620 -0.1763
 2057W        W 3254   7.484   3.252   6.366 -0.0563  0.2346  0.1948
 2058W        W 3255   5.573   0.581   0.699 -0.1880  0.0189 -0.0761
 2059W        W 3256   7.176   3.027   0.197 -0.2887 -0.2194 -0.1457
 2060W        W 3257   0.623   6.753   6.979  0.0221 -0.0406 -0.0568
 2061W        W 3258   5.810   6.895   2.053  0.0574 -0.1581  0.0491
 2062W        W 3259   0.191   0.864   6.712  0.2663 -0.1559 -0.4186
 2063W        W 3260   1.720   7.617   7.385  0.1700  0.1511  0.1316
 2064W        W 3261   5.892   0.367   3.920  0.1510 -0.2118 -0.1590
 2065W        W 3262   2.308   4.539   3.415  0.0258 -0.0010 -0.1879
 2066W        W 3263   1.255   0.992   0.037 -0.0051 -0.1091 -0.0355
 2067W        W 3264   5.081   6.216   4.623 -0.1692  0.0087  0.0221
 2068W        W 3265   0.837   2.047   0.265 -0.1330 -0.0410 -0.1111
 2069W        W 3266   3.181   0.526   0.564 -0.2978  0.0879 -0.4243
 2070W        W 3267   3.290   1.897   6.282 -0.0329 -0.1280  0.3042
 2071W        W 3268   0.029   0.006   2.495 -0.1201 -0.2793 -0.0131
 2072W        W 3269   6.080   7.276   2.009  0.0379 -0.1049  0.0135
 2073W        W 3270   7.008   5.228   0.822  0.0524 -0.1961 -0.0621
 2074W        W 3271   3.116   2.393   6.102  0.2134  0.2413 -0.1888
 2075W        W 3272   1.461   3.917   3.959 -0.1257 -0.1108 -0.1423
 2076W        W 3273   5.822   3.201   0.506  0.2087 -0.0647 -0.1689
 2077W        W 3274   6.331   0.892   5.653  0.2957  0.1772  0.2340
 2078W        W 3275   3.733   4.658   2.231 -0.0781 -0.2622 -0.1778
 2079W        W 3276   0.709   4.740   6.719  0.1294 -0.1952 -0.0719
 2080W        W 3277   5.420   1.965   1.414 -0.0633 -0.0019  0.1753
 2081W        W 3278   1.532   2.042   4.398 -0.1750  0.1763  0.0095
 2082W        W 3279   2.782   5.983   1.600  0.0123 -0.0058 -0.4027
 2083W        W 3280   6.288   7.565   4.447  0.1175 -0.1271  0.0712
 2084W        W 3281   6.643   0.627   6.935  0.2267  0.0292 -0.1321
 2085W        W 3282   1.886   4.708   3.089  0.2119 -0.1413 -0.1030
 2086W        W 3283   3.265   4.569   0.292  0.0321 -0.0426  0.1258
 2087W        W 3284   3.109   5.539   1.000  0.0496  0.1527  0.2251
 2088W        W 3285   7.283   3.863   6.605  0.3197 -0.0279  0.0030
 2089W        W 3286   4.453   4.459   7.601  0.0402 -0.0453 -0.1444
 2090W        W 3287   0.147   0.925   7.537  0.4322  0.0128  0.1694
 2091W        W 3288   5.591   4.919   6.465  0.1231  0.0514 -0.3063
 2092W        W 3289   6.304   6.806   7.458  0.1988 -0.1647  0.2866
 2093W        W 3290   3.201   2.040   2.778  0.2578  0.0816  0.0280
 2094W        W 3291   4.573   7.406   3.137 -0.1480 -0.4030  0.0798
 2095W        W 3292   2.011   5.479   4.432  0.2555 -0.3155 -0.5507
 2096W        W 3293   1.057   5.640   1.085  0.0242  0.1222 -0.2669
 2097W        W 3294   0.401   2.470   7.222  0.0489 -0.1502 -0.0569
 2098W        W 3295   0.990   5.771   4.786  0.3752  0.1607  0.0284
 2099W        W 3296   0.798   3.584   4.259  0.1615  0.1056 -0.0331
 2100W        W 3297   1.635   2.946   3.434  0.2837 -0.0358  0.0753
 2101W        W 3298   6.890   2.013   7.612  0.2035 -0.0583  0.0834
 2102W        W 3299   0.461   4.297   2.160  0.0107  0.1894  0.0352
 2103W        W 3300   3.486   3.635   6.991 -0.0011 -0.1105  0.1511
 2104W        W 3301   7.184   1.705   6.581 -0.1273 -0.1462  0.0227
 2105W        W 3302   3.198   2.522   4.323 -0.2438 -0.1386 -0.0182
 2106W        W 3303   1.854   0.530   0.770  0.1376  0.1411  0.2226
 2107W        W 3304   3.538   6.737   1.344 -0.3625 -0.0662 -0.1333
 2108W        W 3305   3.241   2.856   6.879 -0.1287  0.2282  0.1840
 2109W        W 3306   1.162   2.932   3.671 -0.2260 -0.2873  0.0778
 2110W        W 3307   0.763   4.678   3.561  0.1474 -0.0582  0.1721
 2111W        W 3308   4.244   7.533   1.666  0.0807 -0.0744 -0.1058
 2112W        W 3309   4.575   0.796   6.945  0.0901 -0.2308  0.0837
 2113W        W 3310   1.635   2.711   7.012  0.0767  0.3253 -0.0212
 2114W        W 3311   1.936   2.348   1.554  0.1415 -0.0774 -0.0670
 2115W        W 3312   6.419   6.115   2.466 -0.1164 -0.0378 -0.1463
 2116W        W 3313   4.117   4.477   1.909  0.1400  0.0248  0.4301
 2117W        W 3314   0.016   1.806   2.196 -0.0234 -0.0368  0.2582
 2118W        W 3315   3.824   0.168   7.422  0.1641 -0.0166 -0.0932
 2119W        W 3316   1.894   1.679   0.309 -0.0060 -0.0275  0.0255
 2120W        W 3317   3.435   3.575   3.851 -0.4499 -0.1975  0.1369
 2121W        W 3318   0.958   7.024   5.685  0.1568 -0.2474  0.1063
 2122W        W 3319   2.922   0.118   0.850 -0.0498  0.2078  0.0179
 2123W        W 3320   6.271   6.579   5.771 -0.1742 -0.2525 -0.1736
 2124W        W 3321   0.944   6.180   5.082  0.1178  0.1164  0.0679
 2125W        W 3322   2.865   2.907   4.260  0.3885 -0.2301 -0.2790
 2126W        W 3323   0.225   6.452   6.792 -0.0607  0.3253 -0.2222
 2127W        W 3324   6.507   6.089   3.480  0.0207  0.0894 -0.0533
 2128W        W 3325   5.061   1.106   2.109 -0.0723 -0.1416 -0.2524
 2129W        W 3326   4.499   4.136   5.191 -0.2438  0.0892 -0.2527
 2130W        W 3327   0.219   2.060   6.850 -0.2835  0.0258  0.1004
 2131W        W 3328   6.016   2.761   5.347 -0.0015 -0.1133  0.0948
 2132W        W 3329   3.591   5.860   1.752 -0.2569 -0.0999 -0.0934
 2133W        W 3330   4.824   5.544   4.283  0.0241  0.0024  0.2654
 2134W        W 3331   1.787   2.990   6.537 -0.3644 -0.0255  0.0472
 2135W        W 3332   2.260   2.781   5.099 -0.2698  0.3798  0.1299
 2136W        W 3333   0.736   4.434   4.667 -0.0456  0.1611 -0.1044
 2137W        W 3334   4.388   3.415   3.397 -0.1862  0.1010  0.1299
 2138W        W 3335   4.229   3.838   4.276  0.5081  0.1638 -0.3929
 2139W        W 3336   5.848   4.575   5.274 -0.0721 -0.0481 -0.1250
 2140W        W 3337   5.833   3.603   6.167 -0.1209 -0.1170  0.0601
 2141W        W 3338   3.959   6.988   6.303 -0.1364  0.0963  0.2387
 2142W        W 3339   1.531   2.126   3.278 -0.1529 -0.2603  0.0891
 2143W        W 3340   5.297   1.436   5.634 -0.0874  0.0182  0.1859
 2144W        W 3341   2.966   4.016   1.084  0.2710  0.0332 -0.0628
 2145W        W 3342   1.991   7.448   0.838  0.0063 -0.1647  0.3031
 2146W        W 3343   5.141   1.971   7.444  0.1239 -0.0345  0.1229
 2147W        W 3344   4.122   0.985   6.626  0.1715 -0.0188  0.1843
 2148W        W 3345   0.497   0.074   0.124  0.2397  0.0578  0.0645
 2149W        W 3346   6.079   0.370   0.516  0.3834 -0.5760  0.2258
 2150W        W 3347   7.110   5.648   0.519  0.2454  0.1670  0.2664
 2151W        W 3348   4.263   4.746   1.493 -0.0297  0.1575 -0.0701
 2152W        W 3349   7.187   7.524   4.980 -0.0556  0.0216 -0.0601
 2153W        W 3350   4.122   1.981   7.587 -0.2485  0.0009 -0.1705
 2154W        W 3351   3.900   2.593   2.319 -0.1930 -0.1393 -0.1143
 2155W        W 3352   5.227   6.415   2.412 -0.0136 -0.1095  0.1311
 2156W        W 3353   7.625   2.998   5.384  0.1396  0.1237  0.1421
 2157W        W 3354   3.650   2.992   5.524  0.1334  0.3881  0.2539
 2158W        W 3355   5.228   4.302   3.585  0.3965 -0.1968  0.4319
 2159W        W 3356   2.640   4.039   7.367  0.0700  0.1441 -0.0547
 2160W        W 3357   6.786   3.967   4.890 -0.1056 -0.3199 -0.3039
 2161W        W 3358   2.116   0.700   1.803 -0.0600  0.2048  0.1588
 2162W        W 3359   3.794   0.556   6.634 -0.0771 -0.1565  0.1626
 2163W        W 3360   6.269   5.476   6.918  0.2459 -0.0543 -0.0538
 2164W        W 3361   6.846   4.017   6.860  0.0493  0.1155 -0.1175
 2165W        W 3362   3.030   7.138   6.867 -0.0990 -0.0854 -0.2747
 2166W        W 3363   6.403   5.360   4.206  0.2660  0.1199 -0.2315
 2167W        W 3364   5.151   4.725   2.297 -0.3734  0.0902 -0.1711
 2168W        W 3365   5.603   1.078   1.581  0.0477  0.1726 -0.0785
 2169W        W 3366   3.019   1.410   0.657  0.0548 -0.0800  0.1257
 2170W        W 3367   6.116   7.108   4.553 -0.0007  0.0358 -0.4049
 2171W        W 3368   1.026   4.739   0.980  0.2116 -0.3098  0.0157
 2172W        W 3369   5.699   6.590   2.393  0.0103  0.0196  0.0894
 2173W        W 3370   3.903   3.984   3.459  0.3082 -0.1506  0.0505
 2174W        W 3371   0.355   3.316   1.171  0.2243 -0.3658  0.1925
 2175W        W 3372   7.253   6.569   7.131  0.3091 -0.4081  0.0089
 2176W        W 3373   0.253   1.953   0.151  0.2423  0.0396  0.0549
 2177W        W 3374   1.491   0.101   6.740  0.0821 -0.2916 -0.2185
 2178W        W 3375   3.532   3.564   1.702 -0.1700  0.3479 -0.2531
 2179W        W 3376   4.688   1.110   2.876  0.2070 -0.1532 -0.0754
 2180W        W 3377   2.437   1.665   0.002  0.0059  0.1047 -0.1000
 2181W        W 3378   0.009   4.188   2.328 -0.2590  0.0002  0.4586
 2182W        W 3379   4.745   4.099   4.571  0.1725  0.1479  0.1354
 2183W        W 3380   3.359   1.854   1.303  0.1548  0.2598 -0.0638
 2184W        W 3381   3.578   3.830   0.817  0.0482 -0.1139 -0.0136
 2185W        W 3382   3.935   2.054   5.492  0.1566  0.1940  0.0786
 2186W        W 3383   4.393   4.462   7.121  0.1512 -0.1413 -0.0760
 2187W        W 3384   0.831   0.940   6.801  0.1906 -0.0977  0.0768
 2188W        W 3385   4.727   1.146   1.666 -0.1768  0.0391  0.0850
 2189W        W 3386   0.760   4.793   6.268  0.1935 -0.3748  0.1101
 2190W        W 3387   0.534   0.075   2.468  0.1727 -0.0306  0.2494
 2191W        W 3388   5.991   2.723   5.843  0.1814  0.1664 -0.2260
 2192W        W 3389   0.138   3.561   2.191  0.2380 -0.0208 -0.1263
 2193W        W 3390   1.392   7.041   0.275  0.0181  0.1334 -0.0032
 2194W        W 3391   4.217   4.043   7.325  0.3449  0.1605  0.1753
 2195W        W 3392   2.283   5.294   1.689 -0.3123  0.0543  0.0002
 2196W        W 3393   3.122   6.984   2.050 -0.1885  0.0107 -0.0959
 2197W        W 3394   7.649   4.132   1.419  0.0499  0.1307  0.0621
 2198W        W 3395   3.401   1.058   2.466  0.0304  0.1389  0.0034
 2199W        W 3396   6.188   4.697   4.888 -0.0036  0.0807 -0.2693
 2200W        W 3397   1.828   6.281   5.315 -0.1473  0.0420  0.0138
 2201W        W 3398   0.660   4.159   0.358 -0.0159 -0.2437  0.1735
 2202W        W 3399   7.126   3.563   6.094 -0.2548 -0.4688  0.1933
 2203W        W 3400   3.624   2.586   6.218 -0.1063 -0.0509 -0.0917
 2204W        W 3401   4.844   3.738   5.000  0.0353 -0.0918  0.0200
 2205W        W 3402   2.109   2.867   1.456 -0.1196 -0.0412 -0.2451
 2206W        W 3403   1.599   1.521   2.276  0.0263 -0.1640 -0.0607
 2207W        W 3404   3.225   2.076   1.748 -0.1896  0.1782  0.1651
 2208W        W 3405   2.738   2.720   5.159 -0.3812  0.0685 -0.0526
 2209W        W 3406   4.385   0.377   0.521  0.0791 -0.1088  0.1393
 2210W        W 3407   4.924   4.085   0.071  0.0615 -0.1417 -0.2332
 2211W        W 3408   0.885   6.399   5.516 -0.0243  0.1320  0.0589
 2212W        W 3409   6.865   2.173   6.572 -0.1429  0.0355  0.2236
 2213W        W 3410   5.416   4.613   3.177  0.4306  0.1016 -0.0102
 2214W        W 3411   5.341   4.385   0.006 -0.0897 -0.4352  0.1701
 2215W        W 3412   3.240   5.545   5.281  0.0246  0.0301 -0.1018
 2216W        W 3413   3.077   1.923   5.824  0.1915  0.0730 -0.0213
 2217W        W 3414   6.421   7.590   2.240  0.1658 -0.0321 -0.1453
 2218W        W 3415   2.453   7.538   0.728  0.0451  0.2317 -0.0828
 2219W        W 3416   5.118   6.097   7.593 -0.0637  0.0725 -0.1195
 2220W        W 3417   6.397   6.176   1.869 -0.3449  0.0069 -0.4624
 2221W        W 3418   7.030   1.642   0.385  0.2250 -0.0814  0.0016
 2222W        W 3419   3.532   4.251   3.242  0.2950 -0.2942 -0.1668
 2223W        W 3420   1.583   0.981   0.606 -0.0566  0.0973 -0.0748
 2224W        W 3421   6.250   5.555   1.142 -0.1157 -0.3652  0.0483
 2225W        W 3422   3.060   3.083   1.128 -0.0469 -0.0667  0.1418
 2226W        W 3423   1.158   5.339   0.286  0.0715 -0.1154 -0.2820
 2227W        W 3424   5.861   0.792   6.459  0.1925 -0.2098  0.1911
 2228W        W 3425   2.032   2.074   3.757  0.2250 -0.3369 -0.0201
 2229W        W 3426   2.127   2.797   6.019 -0.1870 -0.1343 -0.4535
 2230W        W 3427   6.054   4.560   6.468  0.5844  0.1171  0.2988
 2231W        W 3428   0.752   2.358   6.410  0.1254 -0.0940  0.2552
 2232W        W 3429   4.836   2.711   1.498  0.1876  0.0692 -0.2354
 2233W        W 3430   5.947   1.117   1.942 -0.0760  0.1156  0.3600
 2234W        W 3431   2.283   4.657   5.886  0.1537 -0.0854  0.1397
 2235W        W 3432   3.603   5.778   1.125  0.1289  0.0468 -0.0766
 2236W        W 3433   1.786   5.592   0.798 -0.4819 -0.2300 -0.4619
 2237W        W 3434   3.288   2.071   3.282 -0.6952  0.0672  0.0734
 2238W        W 3435   5.836   5.431   5.999 -0.1781  0.1827 -0.0943
 2239W        W 3436   0.450   7.084   3.039  0.0776 -0.1067  0.0622
 2240W        W 3437   1.652   2.029   1.333 -0.0100 -0.0445 -0.0587
 2241W        W 3438   2.719   0.013   6.133 -0.0691  0.0719 -0.1922
 2242W        W 3439   5.185   4.777   6.727 -0.2952  0.0346  0.1889
 2243W        W 3440   5.502   7.605   5.264  0.2175 -0.0409 -0.4536
 2244W        W 3441   3.267   7.607   1.275  0.0222 -0.1612 -0.2121
 2245W        W 3442   0.137   4.384   0.154  0.0905  0.0752  0.0899
 2246W        W 3443   3.977   7.413   1.234 -0.2914  0.0985  0.0297
 2247W        W 3444   2.072   3.249   1.800  0.0522  0.0678  0.1760
 2248W        W 3445   0.629   2.568   1.934  0.2450  0.0662 -0.1827
 2249W        W 3446   1.537   0.686   1.760  0.2859  0.0898 -0.1102
 2250W        W 3447   0.805   3.570   1.568  0.1413  0.0416 -0.1298
 2251W        W 3448   6.697   3.284   6.014 -0.0275  0.0283 -0.0976
 2252W        W 3449   0.937   1.736   0.607  0.1511  0.0687 -0.1884
 2253W        W 3450   6.631   7.208   2.026  0.0060 -0.0334  0.1372
 2254W        W 3451   2.445   2.584   1.723 -0.0512 -0.4970  0.0321
 2255W        W 3452   3.870   6.162   1.401  0.1720 -0.0306  0.0350
 2256W        W 3453   0.389   4.616   1.021 -0.1101  0.0242 -0.1817
 2257W        W 3454   0.927   2.443   3.143  0.2041  0.1108 -0.1348
 2258W        W 3455   3.777   6.803   7.232 -0.0726  0.0064 -0.0045
 2259W        W 3456   5.669   1.394   5.265 -0.0069 -0.3518  0.0494
 2260W        W 3457   1.377   2.864   4.623 -0.3525  0.2374 -0.0997
 2261W        W 3458   4.363   0.030   0.945 -0.1275 -0.1514  0.2260
 2262W        W 3459   5.951   5.946   0.910 -0.0574 -0.0179  0.0652
 2263W        W 3460   2.299   5.693   0.801 -0.1044 -0.0764  0.2488
 2264W        W 3461   2.257   2.519   2.594 -0.2448 -0.1075  0.0361
 2265W        W 3462   1.165   6.227   1.939  0.1367 -0.1949 -0.0303
 2266W        W 3463   5.190   0.801   1.761  0.0968 -0.2149 -0.1396
 2267W        W 3464   6.159   7.602   6.281 -0.0245 -0.1255 -0.0232
 2268W        W 3465   2.287   4.717   0.262  0.2887  0.1229 -0.1815
 2269W        W 3466   1.276   5.659   0.625  0.0587  0.2437 -0.0101
 2270W        W 3467   1.644   1.307   6.233 -0.1510  0.2093 -0.1611
 2271W        W 3468   7.174   5.474   3.155 -0.5054  0.0742  0.1124
 2272W        W 3469   6.108   4.979   6.774  0.1173 -0.0566 -0.1601
 2273W        W 3470   7.264   0.626   1.869 -0.1340  0.0554  0.5159
 2274W        W 3471   2.539   0.607   5.833 -0.2296 -0.0069 -0.0732
 2275W        W 3472   6.270   7.288   0.126  0.0158 -0.0641 -0.1559
 2276W        W 3473   4.641   6.025   6.444 -0.0719  0.0349  0.0132
 2277W        W 3474   1.940   2.752   0.198 -0.1983 -0.1241  0.1204
 2278W        W 3475   0.669   0.992   5.082 -0.1795 -0.1007  0.2082
 2279W        W 3476   7.100   0.252   0.965 -0.5559 -0.0414  0.2163
 2280W        W 3477   4.302   3.337   4.397  0.0224 -0.3273  0.0832
 2281W        W 3478   4.833   7.039   4.918 -0.3363 -0.1353 -0.0462
 2282W        W 3479   0.397   2.895   7.489 -0.0181  0.3724 -0.0151
 2283W        W 3480   0.978   2.481   2.399 -0.0463  0.1549 -0.1252
 2284W        W 3481   1.234   3.105   5.071  0.1361 -0.0843 -0.1241
 2285W        W 3482   2.499   0.405   0.722  0.1191  0.0407  0.3052
 2286W        W 3483   6.090   6.439   2.172  0.3374 -0.0819 -0.1316
 2287W        W 3484   5.204   6.786   6.399  0.0123  0.3899 -0.1801
 2288W        W 3485   0.329   6.103   3.526 -0.0549  0.0443  0.0413
 2289W        W 3486   2.267   7.437   6.240 -0.1036 -0.0089  0.3183
 2290W        W 3487   6.685   5.079   5.452  0.0891 -0.0030 -0.1318
 2291W        W 3488   4.860   6.816   0.932  0.2594 -0.3361  0.2461
 2292W        W 3489   1.236   1.060   6.478  0.0875  0.2358 -0.2267
 2293W        W 3490   7.624   2.628   5.023  0.0497  0.3615  0.0885
 2294W        W 3491   0.749   1.888   4.688 -0.2620 -0.1355  0.0360
 2295W        W 3492   7.109   0.433   7.157 -0.6171  0.1825  0.2832
 2296W        W 3493   4.448   6.717   5.737 -0.0250 -0.1000  0.0614
 2297W        W 3494   5.894   4.560   5.916  0.1236 -0.2092 -0.4375
 2298W        W 3495   4.315   0.834   0.303 -0.0047  0.3433  0.2400
 2299W        W 3496   4.369   3.559   4.823 -0.0338 -0.1552 -0.4119
 2300W        W 3497   7.325   6.313   5.247  0.2028 -0.1653  0.2689
 2301W        W 3498   0.658   2.986   0.939 -0.0485  0.0866 -0.0073
 2302W        W 3499   6.383   0.532   6.463  0.0041 -0.0838  0.0187
 2303W        W 3500   3.267   1.451   6.558 -0.3076 -0.1464  0.1259
 2304W        W 3501   3.675   4.728   6.746  0.0361  0.1034 -0.2646
 2305W        W 3502   5.860   4.409   0.157  0.0560  0.0987  0.1195
 2306W        W 3503   0.434   6.571   3.287 -0.0106 -0.0761 -0.3176
 2307W        W 3504   3.816   3.931   3.957 -0.1352 -0.3662 -0.0936
 2308W        W 3505   2.965   3.671   5.048  0.1950 -0.2538  0.0808
 2309W        W 3506   1.141   4.282   0.740  0.0036  0.0808 -0.0909
 2310W        W 3507   4.753   0.256   5.839  0.1129  0.1016  0.0756
 2311W        W 3508   4.542   2.884   5.511  0.1059 -0.0548  0.1156
 2312W        W 3509   5.165   5.885   5.473  0.1971 -0.0884 -0.0552
 2313W        W 3510   4.065   3.820   6.409 -0.1611  0.3615 -0.1040
 2314W        W 3511   5.641   1.678   6.321  0.0459  0.1425 -0.2560
 2315W        W 3512   6.665   4.995   7.613 -0.0266 -0.0386 -0.5291
 2316W        W 3513   2.642   5.675   1.187 -0.1002 -0.1581  0.0343
 2317W        W 3514   7.133   0.614   6.004 -0.0596 -0.3181  0.1258
 2318W        W 3515   1.932   3.267   3.987 -0.0801  0.0365 -0.3416
 2319W        W 3516   5.622   3.624   7.411 -0.0755 -0.0878 -0.3371
 2320W        W 3517   1.613   1.744   7.016 -0.4230 -0.0868  0.1166
 2321W        W 3518   3.262   4.655   1.390  0.1382  0.0654 -0.1525
 2322W        W 3519   4.390   5.604   3.446 -0.1762 -0.0463  0.0749
 2323W        W 3520   4.296   6.886   2.102 -0.2744  0.2855  0.2961
 2324W        W 3521   2.662   2.122   1.946 -0.2378 -0.2952 -0.0886
 2325W        W 3522   0.754   4.324   1.710 -0.0828  0.2575 -0.1635
 2326W        W 3523   1.167   4.290   4.284  0.1036 -0.0965 -0.0165
 2327W        W 3524   5.454   7.659   2.725 -0.1256  0.1248  0.0062
 2328W        W 3525   5.477   6.630   4.360 -0.0179 -0.0555  0.2114
 2329W        W 3526   5.350   5.608   1.363  0.3523  0.2642 -0.1740
 2330W        W 3527   7.380   0.391   2.683 -0.0945 -0.2285  0.4231
 2331W        W 3528   4.932   3.945   6.455  0.0345  0.0686 -0.1526
 2332W        W 3529   0.574   5.497   1.312 -0.2413  0.0553  0.2313
 2333W        W 3530   6.086   3.414   6.530 -0.0807  0.1769 -0.2383
 2334W        W 3531   7.486   7.426   7.626  0.2283 -0.1717 -0.1833
 2335W        W 3532   5.592   0.460   2.717  0.1042 -0.1656  0.2687
 2336W        W 3533   3.304   2.844   0.320  0.2932 -0.0290 -0.0029
 2337W        W 3534   2.757   2.928   6.669  0.2209  0.0307 -0.1056
 2338W        W 3535   5.167   6.401   0.977  0.0418 -0.0525 -0.0515
 2339W        W 3536   1.953   5.642   6.040 -0.1821  0.0482 -0.0172
 2340W        W 3537   7.262   4.182   2.680 -0.2112  0.2139  0.1404
 2341W        W 3538   5.926   2.175   5.515  0.3784 -0.0915 -0.4195
 2342W        W 3539   7.122   6.828   5.947  0.0144 -0.2926 -0.0088
 2343W        W 3540   5.339   4.135   3.081  0.0423 -0.1718 -0.0134
 2344W        W 3541   2.514   1.354   0.761  0.1891  0.3538 -0.4039
 2345W        W 3542   1.824   2.256   7.206  0.2760  0.1071 -0.4235
 2346W        W 3543   4.937   4.817   5.264  0.0662  0.0459 -0.0691
 2347W        W 3544   6.725   6.810   1.680 -0.2273  0.0254 -0.0404
 2348W        W 3545   0.030   4.124   6.454 -0.1058 -0.1531 -0.0889
 2349W        W 3546   7.250   0.895   0.733  0.1164  0.0231  0.2308
 2350W        W 3547   4.269   0.863   0.868  0.0055 -0.2312 -0.0069
 2351W        W 3548   4.850   3.155   4.158 -0.0121 -0.3755 -0.1515
 2352W        W 3549   6.155   3.945   3.978  0.0366  0.0026 -0.1292
 2353W        W 3550   6.938   3.584   4.421  0.0838  0.1775 -0.1619
 2354W        W 3551   0.687   3.791   2.982  0.2071  0.1141  0.1495
 2355W        W 3552   4.368   7.545   6.163  0.2201 -0.0360  0.0340
 2356W        W 3553   5.795   5.841   6.310  0.1350  0.0737 -0.0882
 2357W        W 3554   0.549   4.803   2.595  0.0387 -0.2278  0.0953
 2358W        W 3555   7.197   1.905   6.124  0.0645 -0.1678  0.0999
 2359W        W 3556   0.451   1.565   2.045  0.2370  0.2090  0.0369
 2360W        W 3557   2.130   3.887   7.480 -0.0554 -0.1972 -0.1905
 2361W        W 3558   4.977   3.570   1.590 -0.0218 -0.0268 -0.0146
 2362W        W 3559   6.403   3.416   3.294 -0.1496  0.4398 -0.1459
 2363W        W 3560   0.188   0.598   0.718  0.0531  0.1573  0.3090
 2364W        W 3561   5.987   5.371   3.838  0.1699 -0.3147  0.1960
 2365W        W 3562   7.296   5.967   5.837  0.0397  0.2580 -0.2523
 2366W        W 3563   2.035   5.214   6.664 -0.0748  0.0275  0.1920
 2367W        W 3564   0.432   1.981   5.184  0.0730 -0.3090 -0.2615
 2368W        W 3565   3.509   5.340   1.724 -0.2574  0.1419 -0.4695
 2369W        W 3566   6.339   2.682   1.039 -0.0287 -0.0856  0.0763
 2370W        W 3567   1.646   3.887   7.317  0.2528 -0.3804 -0.2482
 2371W        W 3568   6.512   1.451   6.326 -0.1599 -0.1020 -0.2122
 2372W        W 3569   6.649   4.985   4.060 -0.4464  0.1796  0.0850
 2373W        W 3570   2.546   0.733   2.117  0.0086  0.2008  0.0356
 2374W        W 3571   1.511   5.532   1.338 -0.1956  0.2421  0.1518
 2375W        W 3572   2.695   5.007   4.950 -0.1005 -0.1150  0.0098
 2376W        W 3573   3.261   1.474   7.168 -0.0594 -0.2720  0.0560
 2377W        W 3574   4.834   4.641   4.521  0.1565  0.0231  0.2257
 2378W        W 3575   0.478   5.250   6.047 -0.0212 -0.1730 -0.0096
 2379W        W 3576   2.658   3.475   5.473  0.1317  0.1966 -0.0409
 2380W        W 3577   7.286   6.527   4.103  0.0557 -0.1817 -0.3391
 2381W        W 3578   3.682   2.512   4.141  0.2138  0.0026  0.2517
 2382W        W 3579   5.664   1.861   6.814 -0.1230 -0.1572  0.1795
 2383W        W 3580   1.777   6.483   5.808 -0.1100  0.4591 -0.1531
 2384W        W 3581   7.627   7.460   1.904  0.1457  0.2804 -0.3469
 2385W        W 3582   6.675   3.078   3.568 -0.2121  0.0608 -0.1866
 2386W        W 3583   1.317   1.942   2.200  0.1273  0.2388  0.0666
 2387W        W 3584   2.489   7.307   7.639 -0.0254 -0.3355 -0.1581
 2388W        W 3585   5.667   4.878   4.050 -0.2554 -0.3514 -0.1042
 2389W        W 3586   1.816   7.488   1.340 -0.2916 -0.0352  0.2858
 2390W        W 3587   5.094   2.498   6.070  0.0518  0.4986 -0.3538
 2391W        W 3588   2.110   1.839   2.852  0.2674 -0.3864 -0.1129
 2392W        W 3589   0.923   7.568   0.864  0.0141 -0.1669 -0.0447
 2393W        W 3590   4.121   5.208   4.973  0.2357  0.0771  0.0428
 2394W        W 3591   6.528   1.965   6.282 -0.0097  0.1450 -0.1465
 2395W        W 3592   0.708   3.622   5.826 -0.0980  0.1689 -0.1912
 2396W        W 3593   2.971   3.775   0.122 -0.0794 -0.0250  0.2509
 2397W        W 3594   7.168   3.472   4.988 -0.0400 -0.2373 -0.0193
 2398W        W 3595   3.916   0.760   6.141 -0.0392 -0.6335  0.1467
 2399W        W 3596   2.648   4.111   0.195  0.1979 -0.0285 -0.0398
 2400W        W 3597   2.694   3.422   2.706 -0.0613  0.1838  0.0483
 2401W        W 3598   7.472   4.534   4.192 -0.4355  0.0600  0.1059
 2402W        W 3599   6.763   3.350   0.447 -0.3824 -0.0178  0.1174
 2403W        W 3600   6.576   0.128   5.195  0.1031  0.1873  0.0574
 2404W        W 3601   3.589   0.105   6.598 -0.0120  0.2589 -0.3485
 2405W        W 3602   6.696   0.534   1.826  0.2097 -0.1558 -0.0140
 2406W        W 3603   0.479   1.829   5.705  0.0636  0.1080  0.0883
 2407W        W 3604   3.495   5.172   1.096 -0.0798  0.0944  0.3296
 2408W        W 3605   1.527   4.722   4.684  0.0554  0.0052 -0.0479
 2409W        W 3606   2.135   3.599   5.662  0.0239  0.2137 -0.0879
 2410W        W 3607   7.658   5.933   6.751 -0.1314  0.1343 -0.0384
 2411W        W 3608   7.122   6.420   5.695  0.2138 -0.1410  0.3080
 2412W        W 3609   3.631   2.155   5.990 -0.3944 -0.0926  0.3456
 2413W        W 3610   3.710   3.058   0.104 -0.1068  0.1310  0.0945
 2414W        W 3611   0.138   6.302   4.007 -0.0025 -0.0536  0.1426
 2415W        W 3612   7.257   2.240   7.334  0.0553  0.0263  0.0435
 2416W        W 3613   6.826   4.061   5.852  0.0109 -0.0221 -0.2316
 2417W        W 3614   0.227   6.086   1.924  0.0935  0.0203 -0.0630
 2418W        W 3615   7.346   1.750   7.570  0.0586 -0.1668  0.0232
 2419W        W 3616   1.182   4.948   7.176  0.1041  0.1628  0.3399
 2420W        W 3617   5.401   0.120   4.654  0.0137 -0.0207  0.0328
 2421W        W 3618   6.013   4.998   6.187 -0.0594  0.0025 -0.0027
 2422W        W 3619   1.488   1.353   5.723  0.0666  0.2309  0.0638
 2423W        W 3620   3.165   4.753   3.780  0.0366  0.0423 -0.0589
 2424W        W 3621   1.249   0.364   5.903 -0.1260  0.3555  0.1889
 2425W        W 3622   5.473   2.774   5.349 -0.0926  0.0147  0.0447
 2426W        W 3623   2.519   2.169   0.187  0.0055 -0.1326 -0.2412
 2427W        W 3624   3.481   3.676   0.344  0.1243 -0.2158  0.0765
 2428W        W 3625   5.015   7.069   7.352 -0.1573 -0.0003 -0.0106
 2429W        W 3626   5.637   6.028   2.371  0.0552 -0.5122  0.1334
 2430W        W 3627   6.402   0.165   0.144  0.3778 -0.2664  0.3016
 2431W        W 3628   5.583   3.932   0.143 -0.0762 -0.2587 -0.3874
 2432W        W 3629   2.636   2.531   2.244  0.2674 -0.0310 -0.5113
 2433W        W 3630   6.079   1.947   7.654 -0.2609 -0.3237  0.2315
 2434W        W 3631   0.623   2.970   7.033 -0.2005 -0.1981  0.0801
 2435W        W 3632   4.677   1.871   0.881 -0.0072  0.2372 -0.0538
 2436W        W 3633   0.928   4.101   5.173 -0.0883 -0.2484  0.0509
 2437W        W 3634   1.259   6.351   1.344  0.1437  0.0813 -0.0800
 2438W        W 3635   6.118   6.135   5.890 -0.1798  0.2222 -0.0303
 2439W        W 3636   5.306   2.028   5.985 -0.1854 -0.0410  0.3250
 2440W        W 3637   3.878   4.825   3.330  0.1038  0.1744 -0.0585
 2441W        W 3638   6.637   2.592   6.632 -0.1860  0.0337  0.4645
 2442W        W 3639   1.672   4.328   0.519 -0.1658 -0.2417  0.1059
 2443W        W 3640   5.123   7.287   0.948  0.0124  0.2512  0.0822
 2444W        W 3641   4.911   0.919   0.610 -0.1628 -0.1243 -0.1245
 2445W        W 3642   0.894   5.290   2.621 -0.0122  0.2317  0.1203
 2446W        W 3643   1.661   5.191   0.447  0.0302 -0.1391 -0.3416
 2447W        W 3644   1.811   4.684   6.089  0.2742 -0.3369  0.4584
 2448W        W 3645   4.198   3.786   5.915  0.0407 -0.0619 -0.0681
 2449W        W 3646   5.439   0.222   3.211  0.2764  0.0537 -0.1820
 2450W        W 3647   2.244   1.851   5.318 -0.0262  0.0590 -0.2559
 2451W        W 3648   3.088   7.532   6.511  0.3699  0.1545  0.0426
 2452W        W 3649   6.439   6.349   6.255 -0.0688  0.4667  0.1179
 2453W        W 3650   1.306   3.193   1.054  0.0243  0.1330 -0.1579
 2454W        W 3651   1.786   2.947   5.020 -0.2421 -0.1168 -0.1128
 2455W        W 3652   3.005   2.126   0.099 -0.2998  0.0600 -0.1518
 2456W        W 3653   6.712   0.959   1.461  0.2231 -0.1441 -0.0274
 2457W        W 3654   2.903   6.164   7.213  0.3373 -0.2777 -0.0979
 2458W        W 3655   7.541   5.183   3.363 -0.1899  0.2416 -0.2355
 2459W        W 3656   1.964   4.339   1.841  0.0178  0.1939  0.3399
 2460W        W 3657   5.287   5.231   0.395 -0.2701  0.2862  0.2118
 2461W        W 3658   5.676   2.368   5.157 -0.0023 -0.1265  0.1452
 2462W        W 3659   1.658   3.613   5.835 -0.1477 -0.1443  0.0607
 2463W        W 3660   5.199   1.816   0.928  0.1777  0.0997  0.0908
 2464W        W 3661   2.412   2.639   7.608 -0.1453  0.1749 -0.0327
 2465W        W 3662   1.226   4.839   4.088 -0.0441  0.0162 -0.0740
 2466W        W 3663   5.447   6.415   7.507  0.1796  0.1140  0.0335
 2467W        W 3664   2.680   6.324   0.066  0.3628 -0.0600  0.1655
 2468W        W 3665   1.432   1.849   6.012  0.3841 -0.0151  0.0502
 2469W        W 3666   2.095   4.194   1.388 -0.3664 -0.0304  0.0715
 2470W        W 3667   1.755   2.461   4.833  0.0455 -0.0690  0.2824
 2471W        W 3668   2.551   4.369   5.441  0.1521  0.3000  0.1875
 2472W        W 3669   4.935   2.941   4.632 -0.0838  0.1634 -0.0477
 2473W        W 3670   4.025   5.488   1.763 -0.1779 -0.0948  0.0508
 2474W        W 3671   6.762   7.352   5.195  0.0627 -0.0623  0.1040
 2475W        W 3672   0.966   4.813   3.087  0.2452  0.0544  0.2076
 2476W        W 3673   7.374   1.982   6.950  0.1974  0.3009  0.2498
 2477W        W 3674   5.426   0.500   1.420 -0.0119 -0.3644 -0.2377
 2478W        W 3675   7.577   4.595   6.632  0.1528 -0.0921  0.1149
 2479W        W 3676   5.281   3.467   4.006  0.2086 -0.0741 -0.2682
 2480W        W 3677   7.205   1.534   5.728 -0.0108  0.5802  0.0391
 2481W        W 3678   6.172   2.278   7.258 -0.0295 -0.1096 -0.0741
 2482W        W 3679   6.336   2.049   0.993 -0.0711  0.1995  0.0752
 2483W        W 3680   0.578   3.981   2.512  0.0020  0.1872 -0.1224
 2484W        W 3681   6.659   4.112   5.399 -0.1895 -0.1032 -0.1106
 2485W        W 3682   7.098   5.520   2.175 -0.0898 -0.0284  0.2032
 2486W        W 3683   1.304   5.004   1.343  0.1217  0.1927  0.3338
 2487W        W 3684   0.750   4.298   1.094 -0.2529  0.0628 -0.0441
 2488W        W 3685   6.523   6.850   3.847 -0.1898 -0.0327 -0.2930
 2489W        W 3686   4.957   1.642   1.325  0.1664  0.0058 -0.1461
 2490W        W 3687   2.399   3.080   3.008  0.5550  0.0680  0.1000
 2491W        W 3688   4.391   5.421   7.656  0.0089  0.1087 -0.1028
 2492W        W 3689   3.655   5.615   6.582 -0.1439 -0.0187 -0.5568
 2493W        W 3690   6.621   5.565   3.341  0.1531 -0.0959  0.1397
 2494W        W 3691   4.617   3.324   5.712 -0.1199  0.3553 -0.1868
 2495W        W 3692   4.176   6.350   0.755  0.2717  0.1389  0.0429
 2496W        W 3693   3.020   1.546   0.109 -0.4485 -0.3879 -0.0803
 2497W        W 3694   7.466   2.472   1.526 -0.4203 -0.0339 -0.0445
 2498W        W 3695   7.509   0.290   2.100  0.0838 -0.2522 -0.2128
 2499W        W 3696   1.223   4.452   1.398  0.1240  0.0134 -0.1905
 2500W        W 3697   1.147   7.304   6.643 -0.2312  0.0442 -0.0964
 2501W        W 3698   1.403   5.631   6.051 -0.1564 -0.0981 -0.2740
 2502W        W 3699   0.264   3.826   7.038 -0.1775  0.1370 -0.1911
 2503W        W 3700   6.865   0.221   0.537 -0.1112 -0.0822 -0.1989
 2504W        W 3701   5.270   6.871   1.191 -0.0023 -0.1470  0.0187
 2505W        W 3702   6.790   5.190   2.984  0.0771 -0.0868 -0.3380
 2506W        W 3703   2.021   5.095   0.039 -0.1742 -0.0518 -0.0274
 2507W        W 3704   3.002   0.981   7.037  0.0830 -0.3812  0.1949
 2508W        W 3705   7.339   4.885   1.747 -0.1920 -0.1008  0.4262
 2509W        W 3706   5.341   3.032   3.764 -0.0659 -0.3631 -0.2036
 2510W        W 3707   1.433   5.375   3.658  0.1064  0.2364 -0.2492
 2511W        W 3708   3.213   0.106   1.758 -0.3645 -0.0775  0.1412
 2512W        W 3709   1.214   2.963   7.374 -0.4598 -0.2623  0.1658
 2513W        W 3710   0.413   5.709   2.199  0.1723  0.0435 -0.3023
 2514W        W 3711   2.700   3.337   4.552  0.2050 -0.2022 -0.0678
 2515W        W 3712   1.904   5.273   2.185  0.0620 -0.0661 -0.0428
 2516W        W 3713   2.487   4.466   4.113 -0.2994 -0.1403  0.4363
 2517W        W 3714   7.634   5.239   5.938  0.0141  0.1399  0.2186
 2518W        W 3715   5.146   3.074   5.146  0.1264  0.4878  0.2130
 2519W        W 3716   0.737   3.381   3.491 -0.0464 -0.3027 -0.0092
 2520W        W 3717   1.284   5.521   6.610 -0.3360 -0.0142  0.3395
 2521W        W 3718   0.742   3.918   7.132  0.2736 -0.0335  0.2654
 2522W        W 3719   1.646   5.126   4.066  0.1022 -0.2643 -0.1306
 2523W        W 3720   2.941   4.318   4.293  0.0870 -0.0703  0.0420
 2524W        W 3721   7.456   6.075   4.341 -0.0135  0.1880 -0.1137
 2525W        W 3722   4.802   4.396   5.464  0.0692  0.0917 -0.2018
 2526W        W 3723   4.923   0.062   3.833  0.1567 -0.1050 -0.1522
 2527W        W 3724   6.136   1.714   6.925  0.0881 -0.1568 -0.0226
 2528W        W 3725   4.809   7.494   1.276  0.1577  0.0526 -0.2023
 2529W        W 3726   0.704   5.111   0.984  0.0353  0.0207 -0.1784
 2530W        W 3727   3.122   6.204   6.800 -0.2442 -0.1360  0.1641
 2531W        W 3728   5.083   3.242   3.298 -0.1086  0.2601  0.2083
 2532W        W 3729   6.355   7.598   1.208 -0.0776  0.0608  0.2115
 2533W        W 3730   0.632   3.691   5.311  0.1106  0.1281 -0.2410
 2534W        W 3731   7.288   2.027   5.625  0.0894 -0.0148  0.4422
 2535W        W 3732   4.022   2.824   6.505 -0.1636 -0.1300  0.2511
 2536W        W 3733   3.231   7.043   1.124  0.1005 -0.0633  0.0275
 2537W        W 3734   1.875   6.087   7.337  0.1019 -0.1847  0.0329
 2538W        W 3735   6.111   6.009   0.425  0.1764 -0.1277  0.0883
 2539W        W 3736   5.526   2.357   5.691 -0.1248  0.1872  0.2419
 2540W        W 3737   4.645   6.553   4.742  0.0409 -0.3526 -0.2370
 2541W        W 3738   0.524   1.400   1.050  0.0459 -0.2068 -0.0481
 2542W        W 3739   4.923   4.246   4.145 -0.1781 -0.1144 -0.1164
 2543W        W 3740   1.232   0.564   2.185 -0.1209 -0.1242 -0.5855
 2544W        W 3741   6.414   2.429   0.579  0.2612 -0.2712 -0.4125
 2545W        W 3742   4.819   0.907   4.652 -0.1285  0.1145 -0.1090
 2546W        W 3743   2.688   4.924   1.721  0.1453  0.0641 -0.2942
 2547W        W 3744   6.773   2.091   4.694 -0.1810 -0.0396 -0.3635
 2548W        W 3745   5.749   3.563   4.161 -0.0781 -0.1543 -0.2993
 2549W        W 3746   4.187   6.587   4.551 -0.4167  0.1217  0.0536
 2550W        W 3747   7.302   6.185   0.400  0.0913 -0.3415 -0.2177
 2551W        W 3748   2.368   4.280   6.197 -0.1457 -0.2175  0.0923
 2552W        W 3749   0.421   0.225   4.388  0.0105 -0.2451  0.3224
 2553W        W 3750   5.353   5.690   0.128 -0.0887  0.2009 -0.1578
 2554W        W 3751   5.784   1.793   1.058 -0.1137  0.0869  0.0958
 2555W        W 3752   3.872   2.031   2.219  0.1451  0.2279  0.1515
 2556W        W 3753   0.802   3.352   5.025 -0.1041 -0.0530 -0.1378
 2557W        W 3754   7.229   6.548   2.268 -0.0469  0.0074 -0.1607
 2558W        W 3755   4.604   5.267   5.364  0.0889  0.0233 -0.1697
 2559W        W 3756   6.982   5.036   5.912 -0.2830 -0.0303 -0.0876
 2560W        W 3757   7.115   3.943   3.450  0.1650 -0.0367  0.0568
 2561W        W 3758   2.946   3.787   4.566  0.1685 -0.0252  0.1778
 2562W        W 3759   4.358   4.156   0.627 -0.2610  0.1200  0.0403
 2563W        W 3760   1.757   6.684   6.227 -0.2566 -0.2895 -0.0842
 2564W        W 3761   3.381   1.064   5.640 -0.0146  0.2611 -0.1722
 2565W        W 3762   5.155   6.741   6.959 -0.1038  0.0359  0.2811
 2566W        W 3763   1.785   4.782   6.580  0.1102  0.1039 -0.1279
 2567W        W 3764   1.911   4.971   5.690 -0.1390 -0.1057  0.1430
 2568W        W 3765   2.061   1.928   6.853 -0.0917  0.0289 -0.0629
 2569W        W 3766   1.192   4.640   6.053 -0.0793 -0.2503 -0.0690
 2570W        W 3767   7.283   4.222   7.569  0.1101 -0.1892 -0.1301
 2571W        W 3768   5.508   3.292   5.463  0.0987 -0.1384 -0.0920
 2572W        W 3769   5.872   6.223   3.872 -0.1527  0.0437 -0.0362
 2573W        W 3770   1.931   6.629   7.329  0.0710 -0.2011  0.1589
 2574W        W 3771   1.345   7.627   5.077 -0.0478  0.0743 -0.1721
 2575W        W 3772   3.478   2.497   3.092  0.1663 -0.2952  0.2720
 2576W        W 3773   1.027   0.102   2.583 -0.3292 -0.1653 -0.0059
 2577W        W 3774   5.807   6.710   5.676 -0.1714 -0.0570 -0.1873
 2578W        W 3775   0.136   4.790   2.343  0.0776 -0.0093  0.1500
 2579W        W 3776   6.076   7.196   1.139  0.0446  0.3130 -0.1657
 2580W        W 3777   4.036   5.223   3.557 -0.0575  0.2418  0.2650
 2581W        W 3778   5.782   7.456   4.853 -0.0266  0.0136 -0.1229
 2582W        W 3779   3.429   2.937   4.113  0.2764 -0.4953 -0.0604
 2583W        W 3780   4.749   2.713   2.131  0.1436  0.1517  0.0747
 2584W        W 3781   4.164   5.385   2.242  0.0783  0.2699  0.2063
 2585W        W 3782   5.053   2.727   3.463  0.3696 -0.2184 -0.0740
 2586W        W 3783   2.354   4.910   5.390 -0.2765  0.1458 -0.0818
 2587W        W 3784   1.783   2.504   3.572 -0.0671 -0.0474  0.2326
 2588W        W 3785   4.137   2.877   5.174  0.1899  0.1266  0.1051
 2589W        W 3786   3.971   0.118   0.629 -0.0622  0.2963  0.2310
 2590W        W 3787   7.073   4.950   6.497 -0.1365  0.0230 -0.0100
 2591W        W 3788   4.332   1.639   7.294  0.2813 -0.2256 -0.0553
 2592W        W 3789   1.849   0.577   1.377  0.2851 -0.1305  0.3513
 2593W        W 3790   6.080   3.186   3.608  0.1902  0.1507 -0.1832
 2594W        W 3791   3.531   6.768   0.068  0.6023  0.0709  0.1722
 2595W        W 3792   5.451   3.634   5.127  0.1098  0.0067 -0.0914
 2596W        W 3793   1.864   1.038   1.065  0.0622 -0.4489  0.1286
 2597W        W 3794   2.241   7.201   0.462  0.2772  0.2464  0.1084
 2598W        W 3795   4.662   5.872   0.820  0.3113 -0.1508 -0.1040
 2599W        W 3796   0.425   3.975   6.123 -0.0384  0.1717 -0.2386
 2600W        W 3797   4.240   6.652   7.143  0.0659  0.0635  0.1462
 2601W        W 3798   2.156   2.255   5.038  0.2523  0.2350 -0.0596
 2602W        W 3799   6.869   6.473   3.875 -0.1357  0.2072  0.1340
 2603W        W 3800   5.195   4.725   4.040 -0.2229 -0.2220  0.4079
 2604W        W 3801   6.598   7.058   1.146  0.0397  0.1100 -0.2353
 2605W        W 3802   3.040   3.469   3.489  0.2046  0.1454 -0.1452
 2606W        W 3803   5.322   1.490   1.635  0.0324 -0.0616 -0.0269
 2607W        W 3804   0.136   5.809   3.990 -0.0255  0.0882  0.1396
 2608W        W 3805   3.536   4.307   5.889  0.0843  0.0893  0.0528
 2609W        W 3806   1.824   3.586   0.008  0.2035  0.2221  0.0798
 2610W        W 3807   3.072   3.120   3.818  0.2286 -0.0993  0.1443
 2611W        W 3808   3.447   2.869   2.321  0.0356  0.0496  0.0121
 2612W        W 3809   4.517   5.133   5.906 -0.2359  0.1549  0.0695
 2613W        W 3810   3.176   0.617   3.160  0.0010 -0.1179 -0.1683
 2614W        W 3811   6.106   7.198   5.943  0.0703  0.2634  0.0947
 2615W        W 3812   7.527   7.380   6.284  0.0698  0.3317  0.0371
 2616W        W 3813   5.553   2.959   0.157  0.2471 -0.0567  0.1845
 2617W        W 3814   7.141   4.968   0.362 -0.2787 -0.1120  0.2838
 2618W        W 3815   2.548   5.163   5.891 -0.3078  0.1068  0.0101
 2619W        W 3816   5.224   3.611   2.950 -0.2593 -0.1404  0.1144
 2620W        W 3817   5.876   5.500   6.622  0.2294 -0.4044  0.1188
 2621W        W 3818   5.607   1.130   0.250  0.6114  0.0334 -0.2951
 2622W        W 3819   0.848   2.650   0.518 -0.0214  0.0733  0.0061
 2623W        W 3820   1.853   2.644   5.635  0.0560 -0.0381 -0.1342
 2624W        W 3821   5.403   2.752   1.047  0.1233 -0.2644 -0.2738
 2625W        W 3822   5.584   6.912   6.761  0.3497  0.3010 -0.1692
 2626W        W 3823   1.586   1.886   2.811 -0.3018  0.1588 -0.2775
 2627W        W 3824   6.740   5.340   6.782  0.1721  0.0164  0.2617
 2628W        W 3825   4.231   6.889   3.996  0.3059 -0.0997  0.1749
 2629W        W 3826   2.160   2.270   3.193 -0.2650  0.5523  0.2407
 2630W        W 3827   1.939   3.360   3.505 -0.3378 -0.1189  0.0871
 2631W        W 3828   0.639   5.869   0.958  0.0055  0.0042 -0.4648
 2632W        W 3829   4.550   1.460   1.111  0.0950 -0.1022  0.1045
 2633W        W 3830   3.684   0.173   1.145  0.0221  0.0287  0.0160
 2634W        W 3831   7.610   0.594   6.207  0.1205  0.0389 -0.6457
 2635W        W 3832   1.347   0.479   7.485  0.0351  0.0249  0.4213
 2636W        W 3833   5.474   1.418   1.179  0.1286 -0.1147  0.1056
 2637W        W 3834   3.819   3.614   5.112 -0.0436  0.1737  0.1209
 2638W        W 3835   4.336   2.715   0.701 -0.3841  0.0151  0.0002
 2639W        W 3836   7.073   3.438   6.757 -0.2902 -0.0925 -0.2049
 2640W        W 3837   1.472   3.413   7.223 -0.2305  0.2186  0.1633
 2641W        W 3838   3.740   4.916   1.502 -0.1540  0.0989 -0.0585
 2642W        W 3839   2.383   1.873   5.956 -0.0224  0.0055  0.0736
 2643W        W 3840   7.606   0.577   7.262  0.3037  0.1487 -0.2275
 2644W        W 3841   2.473   5.400   6.386  0.1421  0.0990 -0.3242
 2645W        W 3842   2.207   6.556   5.503 -0.0265  0.0391  0.1994
 2646W        W 3843   6.426   6.392   2.956  0.0541 -0.1439  0.0322
 2647W        W 3844   7.367   3.859   5.735  0.2478  0.1617  0.0585
 2648W        W 3845   4.744   4.760   2.627  0.1974 -0.1572  0.2132
 2649W        W 3846   4.637   4.842   3.153  0.0276 -0.0444 -0.1166
 2650W        W 3847   7.083   4.253   0.755 -0.1897 -0.0972 -0.3205
 2651W        W 3848   1.145   4.098   2.829 -0.1786  0.2632  0.2481
 2652W        W 3849   3.809   1.581   7.273  0.1499 -0.2703  0.0338
 2653W        W 3850   5.385   5.597   1.903 -0.2255  0.1586  0.0929
 2654W        W 3851   0.238   6.164   1.030  0.0798  0.3168  0.2184
 2655W        W 3852   7.488   4.941   0.765  0.0218 -0.0678  0.0124
 2656W        W 3853   0.433   5.034   1.495  0.2497  0.0963 -0.2976
 2657W        W 3854   3.695   2.512   6.687  0.1203 -0.2732  0.0156
 2658W        W 3855   3.550   6.085   2.248 -0.2334  0.1492 -0.2042
 2659W        W 3856   5.746   6.163   4.316  0.0122  0.0005  0.0570
 2660W        W 3857   4.645   6.074   3.373  0.1238 -0.2331  0.6003
 2661W        W 3858   5.673   6.969   4.752 -0.0218 -0.1402  0.0245
 2662W        W 3859   1.881   1.938   0.818 -0.2864 -0.0251  0.0243
 2663W        W 3860   0.492   0.067   7.248  0.1385  0.2686 -0.0511
 2664W        W 3861   5.482   0.227   6.660 -0.0486  0.0718  0.2292
 2665W        W 3862   7.390   2.178   6.504  0.1557  0.1400  0.1274
 2666W        W 3863   6.778   2.357   5.175  0.0874 -0.0881 -0.6063
 2667W        W 3864   4.373   3.073   7.031 -0.1364 -0.2995 -0.2408
 2668W        W 3865   5.605   6.372   0.745  0.2400  0.0232 -0.1470
 2669W        W 3866   5.412   0.918   5.376  0.0662 -0.2991  0.0161
 2670W        W 3867   6.693   6.978   0.199  0.1431 -0.1206  0.2229
 2671W        W 3868   6.935   0.532   6.492 -0.1487 -0.1004  0.4038
 2672W        W 3869   1.942   3.543   2.901 -0.0596  0.1689 -0.1542
 2673W        W 3870   2.340   1.980   1.550 -0.0225  0.1292 -0.1775
 2674W        W 3871   3.164   4.528   6.120  0.2373  0.2185  0.0181
 2675W        W 3872   0.039   0.649   1.566  0.1812  0.0503  0.2224
 2676W        W 3873   2.134   1.624   2.410  0.0739  0.3004 -0.0607
 2677W        W 3874   6.011   2.911   6.734 -0.0082 -0.1853 -0.3051
 2678W        W 3875   4.715   2.423   3.831  0.0894 -0.0237 -0.0151
 2679W        W 3876   2.794   6.197   6.433  0.3903 -0.0022 -0.0400
 2680W        W 3877   4.519   0.353   2.394  0.0394 -0.1091  0.0952
 2681W        W 3878   2.941   3.499   1.985  0.1026 -0.0227 -0.0138
 2682W        W 3879   6.290   0.435   3.662  0.0274  0.0227  0.1634
 2683W        W 3880   3.899   1.593   0.156  0.1702  0.1691  0.0431
 2684W        W 3881   2.844   1.765   7.287 -0.1688  0.0460 -0.0814
 2685W        W 3882   0.866   3.842   4.736  0.2092 -0.0143  0.2365
 2686W        W 3883   6.844   7.253   2.740  0.3007  0.1758 -0.0460
 2687W        W 3884   7.507   4.982   5.076  0.0735  0.0653 -0.0456
 2688W        W 3885   6.126   6.502   0.697  0.1758  0.0166 -0.3946
 2689W        W 3886   4.975   2.903   6.559 -0.1160 -0.1539  0.1200
 2690W        W 3887   1.239   2.262   7.274  0.4103  0.1447  0.0278
 2691W        W 3888   0.230   0.373   6.923 -0.0550 -0.3958  0.1782
 2692W        W 3889   5.363   3.797   3.425 -0.1289  0.0973  0.2355
 2693W        W 3890   2.501   4.460   6.674  0.0664  0.0389 -0.0555
 2694W        W 3891   4.652   3.182   2.391  0.0260 -0.0537 -0.3774
 2695W        W 3892   6.742   3.221   4.942  0.1942 -0.0252 -0.0861
 2696W        W 3893   6.890   4.555   6.191 -0.2189 -0.0271 -0.1842
 2697W        W 3894   5.128   7.148   3.160  0.3626 -0.1734  0.2021
 2698W        W 3895   6.741   1.222   5.813 -0.0250 -0.0279  0.0804
 2699W        W 3896   6.230   6.736   1.697 -0.0158  0.0320  0.0628
 2700W        W 3897   2.391   4.311   2.327 -0.3275 -0.0549 -0.2275
 2701W        W 3898   4.387   4.716   0.410  0.0499  0.1209 -0.1172
 2702W        W 3899   1.216   1.080   1.535  0.1137  0.0364  0.1113
 2703W        W 3900   6.576   6.694   3.406  0.2722  0.0068  0.0618
 2704W        W 3901   6.025   1.133   6.984  0.1327 -0.0554 -0.1291
 2705W        W 3902   5.948   7.009   7.161  0.0343  0.6420 -0.0204
 2706W        W 3903   5.207   0.125   1.172  0.1346 -0.4074 -0.0491
 2707W        W 3904   3.275   3.049   3.261  0.4022  0.0185  0.0412
 2708W        W 3905   7.646   3.820   3.551  0.1645 -0.0855  0.3235
 2709W        W 3906   0.118   3.349   3.680 -0.0173 -0.0716 -0.3445
 2710W        W 3907   5.388   3.736   5.733  0.1943 -0.0961 -0.0575
 2711W        W 3908   4.136   7.110   7.394  0.1145 -0.0964 -0.1721
 2712W        W 3909   2.514   5.617   0.313  0.0356  0.0016 -0.0147
 2713W        W 3910   3.812   4.565   2.721  0.2324 -0.1628 -0.0118
 2714W        W 3911   0.470   3.790   3.470  0.1903  0.0990  0.0710
 2715W        W 3912   5.786   0.162   7.536 -0.2436  0.0573  0.0355
 2716W        W 3913   4.839   0.077   0.844 -0.2678  0.2042  0.3081
 2717W        W 3914   7.373   4.261   3.141  0.0913 -0.2101  0.3640
 2718W        W 3915   3.010   6.745   1.660 -0.0708 -0.1185  0.1344
 2719W        W 3916   0.534   6.487   4.271  0.1567  0.2086  0.0124
 2720W        W 3917   2.618   3.871   2.354  0.0220  0.3060 -0.1564
 2721W        W 3918   3.946   3.087   2.569  0.1579 -0.1465 -0.1785
 2722W        W 3919   7.189   3.577   0.020 -0.2551  0.0268  0.3233
 2723W        W 3920   6.694   5.742   0.720 -0.1602 -0.1140 -0.0633
 2724W        W 3921   4.004   7.409   4.891  0.0119  0.0734  0.0437
 2725W        W 3922   6.843   5.963   6.601  0.1888 -0.2153 -0.4168
 2726W        W 3923   5.372   6.208   3.994  0.2834 -0.1150 -0.0176
 2727W        W 3924   5.354   4.481   5.080  0.0048 -0.0769  0.1268
 2728W        W 3925   5.529   7.328   5.923  0.0980  0.0400  0.0340
 2729W        W 3926   4.394   7.399   2.259  0.0366  0.2048 -0.1779
 2730W        W 3927   4.357   0.578   6.572  0.1916  0.1410 -0.3090
 2731W        W 3928   4.439   1.385   6.833  0.1122 -0.0439 -0.3742
 2732W        W 3929   5.025   3.580   5.448 -0.3699  0.1298 -0.4451
 2733W        W 3930   5.979   7.539   2.485 -0.0118  0.2069 -0.1390
 2734W        W 3931   2.392   6.063   0.420 -0.0150  0.1953 -0.0344
 2735W        W 3932   3.963   2.588   1.073 -0.2186 -0.0794  0.1669
 2736W        W 3933   4.520   5.134   3.654  0.1075  0.1216  0.0979
 2737W        W 3934   2.362   4.005   5.773 -0.1546  0.1103  0.0787
 2738W        W 3935   5.985   6.265   6.573  0.0474  0.0601  0.1359
 2739W        W 3936   4.663   7.354   5.808 -0.2361 -0.0144  0.0401
 2740W        W 3937   2.147   1.361   6.196  0.2021  0.1352  0.2541
 2741W        W 3938   7.440   5.496   0.850 -0.0897  0.1142 -0.2032
 2742W        W 3939   7.606   0.709   5.720 -0.2779 -0.2193 -0.2062
 2743W        W 3940   7.614   4.562   7.276  0.2787 -0.1882 -0.0373
 2744W        W 3941   4.602   0.884   2.374 -0.2677 -0.2911 -0.2976
 2745W        W 3942   7.612   6.652   3.617  0.3813 -0.1072 -0.1385
 2746W        W 3943   5.579   6.356   4.758 -0.0802 -0.0867 -0.1612
 2747W        W 3944   2.477   5.261   4.511  0.0053  0.1470  0.1910
 2748W        W 3945   4.358   6.391   2.983 -0.0411 -0.1037  0.0986
 2749W        W 3946   2.262   3.528   4.404 -0.2186 -0.2411  0.0752
 2750W        W 3947   6.804   3.975   7.521  0.1972  0.0746 -0.0380
 2751W        W 3948   1.846   3.816   3.731 -0.3928 -0.1314  0.2032
 2752W        W 3949   3.338   0.486   5.620 -0.0987  0.0457  0.3765
 2753W        W 3950   6.703   7.091   5.723 -0.5089 -0.4811  0.1811
 2754W        W 3951   7.505   0.604   1.094 -0.2312  0.3798 -0.0512
 2755W        W 3952   0.564   7.031   4.364 -0.0088 -0.0037 -0.0494
 2756W        W 3953   0.331   0.855   1.117  0.0567 -0.1254 -0.0042
 2757W        W 3954   0.007   1.902   0.599 -0.1429 -0.1704 -0.2524
 2758W        W 3955   6.643   6.740   7.083 -0.4650  0.0769 -0.1213
 2759W        W 3956   3.875   5.051   2.508  0.0301 -0.2711 -0.2609
 2760W        W 3957   6.109   5.849   3.566  0.2026 -0.1181 -0.0521
 2761W        W 3958   1.407   3.285   4.250 -0.0056 -0.0330 -0.0387
 2762W        W 3959   3.340   4.186   4.633 -0.1756 -0.0531  0.1465
 2763W        W 3960   2.202   5.730   7.093 -0.1290  0.1213  0.5965
 2764W        W 3961   1.343   1.415   0.320  0.1631  0.3469  0.1573
 2765W        W 3962   6.919   6.458   6.793 -0.0585 -0.0459  0.3511
 2766W        W 3963   3.923   3.911   0.408 -0.1361  0.0489 -0.0504
 2767W        W 3964   4.100   0.190   6.879  0.0190 -0.1467  0.2658
 2768W        W 3965   5.495   5.289   7.501  0.3567  0.1842 -0.1313
 2769W        W 3966   0.999   1.978   2.609 -0.1704 -0.0848 -0.1713
 2770W        W 3967   1.062   3.652   7.455 -0.0041 -0.1498 -0.2969
 2771W        W 3968   4.753   4.863   7.058 -0.2167 -0.1250 -0.0668
 2772W        W 3969   6.655   0.024   6.409 -0.0618  0.1243 -0.1333
 2773W        W 3970   0.304   1.835   1.001  0.0738 -0.0135 -0.1363
 2774W        W 3971   7.448   3.403   4.442 -0.1250  0.2346  0.0040
 2775W        W 3972   4.010   7.350   3.925  0.0416 -0.0961  0.3817
 2776W        W 3973   3.611   5.101   0.041  0.3743  0.2241  0.3102
 2777W        W 3974   1.101   3.930   1.131 -0.0572 -0.0563 -0.1568
 2778W        W 3975   6.802   4.609   5.666 -0.4723 -0.0297 -0.0055
 2779W        W 3976   6.715   2.472   7.367 -0.2981  0.0659  0.1820
 2780W        W 3977   5.891   1.528   0.186 -0.0666 -0.0556  0.1959
 2781W        W 3978   5.877   4.622   4.461  0.0580  0.2182 -0.1582
 2782W        W 3979   6.946   5.996   2.128  0.1068 -0.2307 -0.0205
 2783W        W 3980   1.417   1.951   5.514  0.2222 -0.1548 -0.2684
 2784W        W 3981   2.360   3.944   6.572  0.0893  0.2327 -0.0564
 2785W        W 3982   7.158   6.212   1.275 -0.3161 -0.1882  0.1491
 2786W        W 3983   5.963   3.568   0.194  0.0938 -0.2598  0.2460
 2787W        W 3984   6.913   1.006   2.088  0.0181  0.2128  0.0070
 2788W        W 3985   0.033   5.468   2.455  0.2081  0.0498 -0.3536
 2789W        W 3986   3.541   0.387   7.020 -0.0390 -0.0812 -0.2402
 2790W        W 3987   3.908   3.922   6.895  0.0204 -0.0420  0.1559
 2791W        W 3988   2.892   5.377   7.553  0.3582 -0.1341 -0.0348
 2792W        W 3989   6.836   0.123   6.882 -0.5438  0.2470 -0.2928
 2793W        W 3990   2.918   1.699   1.791  0.0866  0.1757  0.2634
 2794W        W 3991   7.589   1.527   1.141 -0.1142 -0.0026 -0.0503
 2795W        W 3992   6.039   1.338   6.549 -0.1108  0.0046  0.1047
 2796W        W 3993   2.066   0.199   0.480  0.0543  0.2274 -0.1686
 2797W        W 3994   4.337   4.337   5.643 -0.0192 -0.1619 -0.0410
 2798W        W 3995   1.884   2.377   6.095  0.1081 -0.0525  0.0109
 2799W        W 3996   5.763   0.083   2.012 -0.2033 -0.0450  0.0047
 2800W        W 3997   1.892   6.728   6.761 -0.1696  0.0428  0.3536
 2801W        W 3998   7.531   1.402   1.876 -0.2308  0.0657  0.1935
 2802W        W 3999   6.201   1.848   1.451 -0.2048  0.1029 -0.0758
 2803W        W 4000   4.748   1.670   5.886 -0.0964 -0.1163 -0.2389
 2804W        W 4001   2.933   0.288   1.398 -0.2303 -0.1478  0.1833
 2805W        W 4002   5.298   7.505   7.646  0.2657 -0.2603  0.0999
 2806W        W 4003   3.632   6.447   0.970 -0.1359 -0.1842 -0.1847
 2807W        W 4004   4.208   2.283   6.625  0.1093  0.1006 -0.2141
 2808W        W 4005   4.534   7.633   6.776 -0.1388 -0.0545 -0.3690
 2809W        W 4006   5.349   7.317   1.406  0.0836  0.4699  0.1965
 2810W        W 4007   3.647   2.134   0.983  0.1641  0.0007  0.1566
 2811W        W 4008   2.686   4.652   6.221  0.0754  0.0420 -0.2911
 2812W        W 4009   2.538   0.086   1.194 -0.1256  0.1807  0.1897
 2813W        W 4010   4.250   4.921   1.990 -0.0612  0.0446 -0.0854
 2814W        W 4011   1.201   4.142   4.763 -0.0541 -0.0973 -0.2750
 2815W        W 4012   3.245   2.621   3.512 -0.0026 -0.0418 -0.0625
 2816W        W 4013   3.309   7.226   1.609  0.0839 -0.0922 -0.2002
 2817W        W 4014   6.351   2.683   7.065 -0.0570  0.2557 -0.0371
 2818W        W 4015   2.261   1.146   2.312  0.0921 -0.3781 -0.1072
 2819W        W 4016   3.281   0.510   1.052 -0.0888 -0.0967  0.2836
 2820W        W 4017   0.046   0.131   7.404 -0.2692  0.1563 -0.0850
 2821W        W 4018   0.602   5.707   2.628  0.0018  0.1806  0.0210
 2822W        W 4019   6.193   6.802   0.264  0.0562  0.6590 -0.1113
 2823W        W 4020   0.002   1.786   6.487  0.0723 -0.1101  0.1511
 2824W        W 4021   2.196   6.475   0.603  0.0473 -0.1882  0.0209
 2825W        W 4022   1.736   6.954   2.026 -0.0432 -0.3383  0.0808
 2826W        W 4023   5.222   0.094   5.743  0.0015 -0.0764  0.0722
 2827W        W 4024   6.731   7.590   3.085 -0.1323  0.2094 -0.0907
 2828W        W 4025   0.734   1.634   2.934  0.0309  0.0283 -0.2295
 2829W        W 4026   2.792   5.691   2.225  0.1712  0.2249  0.2172
 2830W        W 4027   5.648   0.808   7.001 -0.1487  0.1304  0.1529
 2831W        W 4028   4.520   2.157   4.280  0.1410 -0.1536 -0.0221
 2832W        W 4029   0.525   5.625   3.601 -0.1906 -0.2843 -0.3718
 2833W        W 4030   2.577   2.853   3.839 -0.1116  0.1530  0.0808
 2834W        W 4031   5.163   2.562   1.919  0.0703  0.1349 -0.0487
 2835W        W 4032   6.555   3.574   3.947  0.1767 -0.1729 -0.1356
 2836W        W 4033   5.535   1.538   0.607 -0.0082 -0.0431  0.0251
 2837W        W 4034   7.402   6.420   6.628  0.0116  0.3302 -0.2330
 2838W        W 4035   5.708   3.189   5.940 -0.0493 -0.2152 -0.0595
 2839W        W 4036   7.446   2.347   6.001  0.1247  0.0409 -0.0162
 2840W        W 4037   4.114   3.009   3.383 -0.2569 -0.0642  0.0493
 2841W        W 4038   5.983   1.731   0.592 -0.3088  0.0037  0.3652
 2842W        W 4039   2.419   1.653   1.952 -0.0005  0.0069  0.0174
 2843W        W 4040   0.985   7.165   1.603  0.0605 -0.0446  0.0354
 2844W        W 4041   2.817   2.472   5.733  0.2657 -0.0879 -0.0314
 2845W        W 4042   4.935   5.062   0.845  0.2474  0.2944  0.0719
 2846W        W 4043   4.626   2.293   1.813  0.0818 -0.0953 -0.1538
 2847W        W 4044   4.009   3.571   1.130 -0.0813  0.2818 -0.1392
 2848W        W 4045   6.387   3.005   3.953 -0.5969  0.0435 -0.2165
 2849W        W 4046   1.072   1.615   5.618 -0.1262 -0.0937  0.1904
 2850W        W 4047   4.361   3.784   3.734  0.3361  0.0838  0.0031
 2851W        W 4048   5.892   2.672   4.791  0.1297  0.1282  0.1139
 2852W        W 4049   4.161   5.712   6.609  0.3338 -0.1166  0.0299
 2853W        W 4050   3.818   2.621   3.441  0.0240 -0.0525 -0.1026
 2854W        W 4051   5.746   4.043   5.890  0.4250 -0.0981  0.4284
 2855W        W 4052   1.348   1.252   6.980  0.1215 -0.2669  0.3578
 2856W        W 4053   0.446   4.364   3.784 -0.0479 -0.1131  0.3824
 2857W        W 4054   3.453   2.440   2.547 -0.1144  0.2659  0.2362
 2858W        W 4055   7.585   7.556   3.660 -0.1334  0.0034  0.2563
 2859W        W 4056   3.082   2.731   7.344 -0.2104 -0.0340 -0.0666
 2860W        W 4057   1.917   4.399   4.962  0.1757  0.1081 -0.3593
 2861W        W 4058   6.573   4.296   6.480  0.0919 -0.1354  0.0981
 2862W        W 4059   6.560   7.159   7.326  0.0915 -0.2904  0.1307
 2863W        W 4060   2.837   5.840   0.640  0.2778 -0.0372  0.1816
 2864W        W 4061   2.663   4.718   3.656  0.1660 -0.0445  0.1466
 2865W        W 4062   4.559   7.115   7.154 -0.1212  0.2831  0.1646
 2866W        W 4063   1.772   3.114   0.830 -0.0694 -0.3282 -0.1437
 2867W        W 4064   3.920   4.569   4.145  0.2493 -0.0573  0.2742
 2868W        W 4065   1.584   0.120   5.528  0.1309  0.3278 -0.1347
 2869W        W 4066   2.939   5.376   2.647  0.2410 -0.1603 -0.0960
 2870W        W 4067   2.858   0.202   5.715  0.0583 -0.1900 -0.0776
 2871W        W 4068   7.254   7.435   4.471 -0.2172 -0.2806  0.0900
 2872W        W 4069   1.050   7.036   7.085 -0.0803 -0.0343 -0.5739
 2873W        W 4070   0.929   5.321   3.273  0.0540 -0.0263 -0.0033
 2874W        W 4071   5.344   6.123   1.544 -0.3652 -0.2250 -0.3266
 2875W        W 4072   0.456   3.843   1.032 -0.1786  0.0794 -0.2989
 2876W        W 4073   2.085   7.507   2.411  0.3226 -0.1314  0.0776
 2877W        W 4074   3.549   1.033   3.196  0.0001 -0.0089  0.0757
 2878W        W 4075   0.088   1.059   6.182 -0.1622  0.1854  0.0157
 2879W        W 4076   2.865   1.648   1.078 -0.3818 -0.0402  0.2888
 2880W        W 4077   4.897   5.819   1.623 -0.1817 -0.0785 -0.2582
 2881W        W 4078   0.470   6.629   5.566 -0.0463  0.1457  0.2447
 2882W        W 4079   0.380   2.965   3.480  0.3735  0.0900 -0.1584
 2883W        W 4080   0.772   7.223   3.476  0.0720  0.1509 -0.2563
 2884W        W 4081   0.579   3.179   5.445  0.3125  0.1955  0.2204
 2885W        W 4082   6.877   1.868   1.791  0.2889  0.0682  0.1253
 2886W        W 4083   7.284   0.779   7.598 -0.0832 -0.0523 -0.0422
 2887W        W 4084   5.095   0.344   5.331  0.1609  0.3483  0.1469
 2888W        W 4085   4.143   3.357   6.660  0.3702  0.2289  0.1050
 2889W        W 4086   2.740   0.110   7.526 -0.1339 -0.5216 -0.2159
 2890W        W 4087   0.033   4.350   5.984  0.1476  0.1708 -0.1095
 2891W        W 4088   4.485   7.033   6.137  0.0406  0.2605 -0.1190
 2892W        W 4089   4.844   6.230   5.062 -0.0927 -0.1079 -0.0943
 2893W        W 4090   7.051   7.064   3.895  0.2781  0.4865  0.0542
 2894W        W 4091   5.651   7.381   7.332 -0.2317  0.0278 -0.1514
 2895W        W 4092   7.365   1.045   5.417  0.2283  0.1941  0.0085
 2896W        W 4093   1.375   2.837   2.077 -0.2538  0.0007  0.0288
 2897W        W 4094   1.898   3.254   6.106 -0.1759  0.1734 -0.2454
 2898W        W 4095   2.846   4.147   5.053 -0.0775 -0.2292  0.0893
 2899W        W 4096   6.078   6.717   6.729  0.2568 -0.0724  0.1208
 2900W        W 4097   6.821   3.868   6.371 -0.1222 -0.1239  0.0253
 2901W        W 4098   2.277   2.107   6.391 -0.0009 -0.0201 -0.1421
 2902W        W 4099   2.383   5.424   7.472 -0.3232 -0.0032  0.2487
 2903W        W 4100   1.662   4.241   4.527 -0.3388 -0.1392  0.1520
 2904W        W 4101   3.574   4.751   0.886 -0.1188  0.0517 -0.3884
 2905W        W 4102   5.428   2.611   4.493  0.0779  0.2344  0.1209
 2906W        W 4103   5.716   0.410   5.555  0.0369  0.1900  0.0231
 2907W        W 4104   4.954   0.551   1.439  0.1678  0.1347  0.0658
 2908W        W 4105   0.484   5.826   0.430 -0.2624 -0.1194  0.2832
 2909W        W 4106   1.750   7.567   1.936 -0.2337 -0.0352  0.1903
 2910W        W 4107   6.013   5.566   5.083 -0.3332  0.0146 -0.0638
 2911W        W 4108   2.464   5.338   6.958 -0.1349 -0.0237  0.0282
 2912W        W 4109   4.743   2.202   5.172  0.0219  0.2423  0.2649
 2913W        W 4110   1.617   4.036   1.457 -0.0657  0.2256  0.1001
 2914W        W 4111   4.831   2.703   0.375 -0.1679  0.0506 -0.1422
 2915W        W 4112   2.995   4.650   4.682  0.2025  0.1521 -0.0018
 2916W        W 4113   1.102   7.448   3.928 -0.1991  0.0879 -0.1895
 2917W        W 4114   0.039   6.982   0.039 -0.1053  0.2070  0.0795
 2918W        W 4115   4.120   2.267   6.117 -0.0733 -0.1255  0.0275
 2919W        W 4116   6.871   7.105   0.661 -0.1441 -0.2185 -0.2063
 2920W        W 4117   4.964   0.573   2.135 -0.2265 -0.1408  0.0296
 2921W        W 4118   4.309   5.501   3.915  0.0561  0.2933  0.0519
 2922W        W 4119   4.726   5.878   4.630 -0.2097 -0.1680 -0.1441
 2923W        W 4120   0.874   4.495   7.177  0.0739 -0.0649 -0.0034
 2924W        W 4121   0.080   1.932   6.021  0.1326 -0.0485  0.2565
 2925W        W 4122   1.718   3.777   0.460 -0.1757  0.0638 -0.2472
 2926W        W 4123   7.425   0.214   1.369  0.0268 -0.0214  0.2320
 2927W        W 4124   5.039   1.667   2.099  0.1003 -0.2462  0.1282
 2928W        W 4125   6.851   0.201   1.371  0.0514  0.0295 -0.0687
 2929W        W 4126   0.608   1.461   5.286  0.1727 -0.3866  0.2238
 2930W        W 4127   2.438   3.183   5.821  0.1745 -0.1157 -0.1336
 2931W        W 4128   1.201   7.600   1.854 -0.2536 -0.1790  0.0399
 2932W        W 4129   6.364   3.826   6.640 -0.0222 -0.5031  0.0607
 2933W        W 4130   6.499   1.892   7.300  0.1463  0.1096 -0.3724
 2934W        W 4131   4.332   2.015   2.992 -0.1416 -0.0782  0.2033
 2935W        W 4132   6.851   2.078   7.057  0.0555 -0.1155 -0.0480
 2936W        W 4133   2.036   6.960   0.035  0.5647  0.0871 -0.1418
 2937W        W 4134   2.475   4.372   1.789  0.1841 -0.0286  0.1629
 2938W        W 4135   1.466   6.589   5.419 -0.0839 -0.1862 -0.3519
 2939W        W 4136   1.979   4.065   4.181 -0.1585 -0.0567  0.0884
 2940W        W 4137   2.438   1.175   1.840  0.0880  0.0822 -0.2597
 2941W        W 4138   5.429   6.215   2.819  0.0747  0.0256 -0.1970
 2942W        W 4139   7.579   6.858   6.407  0.1610  0.1631  0.0783
 2943W        W 4140   5.280   2.412   0.167  0.0886 -0.1352  0.0296
 2944W        W 4141   1.295   6.626   2.307  0.0019 -0.2605 -0.0481
 2945W        W 4142   6.700   5.925   7.575 -0.0822  0.0836  0.2486
 2946W        W 4143   1.685   7.290   6.795 -0.0596  0.0517  0.0374
 2947W        W 4144   3.988   0.795   1.652  0.2155 -0.0512 -0.0486
 2948W        W 4145   1.265   4.986   5.428  0.0336 -0.0874 -0.0908
 2949W        W 4146   3.410   0.133   0.735 -0.1893  0.1621  0.0614
 2950W        W 4147   7.095   5.723   4.472  0.0193  0.0843  0.0639
 2951W        W 4148   2.846   1.859   0.494  0.1239 -0.1471 -0.2265
 2952W        W 4149   2.011   3.651   7.011 -0.1415  0.0503 -0.0510
 2953W        W 4150   0.098   4.161   4.079 -0.1774  0.2749 -0.1080
 2954W        W 4151   1.545   2.294   0.946 -0.0626 -0.0880  0.0459
 2955W        W 4152   1.401   3.051   1.518  0.2143  0.0721  0.0164
 2956W        W 4153   2.334   5.846   1.621  0.1729 -0.1741  0.1497
 2957W        W 4154   2.371   0.523   1.292 -0.1848 -0.0600 -0.2204
 2958W        W 4155   3.906   4.295   0.083  0.3370  0.1186 -0.2241
 2959W        W 4156   2.098   4.837   4.847  0.0453  0.1887 -0.2387
 2960W        W 4157   5.702   0.761   5.931  0.2186  0.4512 -0.0483
 2961W        W 4158   0.026   0.964   1.932 -0.2397 -0.4498  0.1179
 2962W        W 4159   6.441   6.240   6.750 -0.1857 -0.0829  0.1446
 2963W        W 4160   2.226   6.801   1.503 -0.1097 -0.0438 -0.1584
 2964W        W 4161   5.433   0.287   0.222 -0.1566  0.1473  0.0133
 2965W        W 4162   1.285   6.983   2.641  0.3255  0.1437 -0.1199
 2966W        W 4163   1.143   4.356   3.696 -0.1421  0.0009 -0.1647
 2967W        W 4164   7.595   5.763   3.433  0.3307  0.0485  0.0337
 2968W        W 4165   6.063   6.667   3.562  0.1695  0.0212  0.2628
 2969W        W 4166   1.591   4.589   5.651 -0.0700 -0.0608  0.2052
 2970W        W 4167   3.899   6.683   0.485  0.3333 -0.0391  0.0240
 2971W        W 4168   0.251   5.683   5.798  0.1152 -0.1917  0.0060
 2972W        W 4169   2.190   7.655   7.466 -0.1923 -0.0652  0.3660
 2973W        W 4170   3.449   3.170   7.320  0.0101  0.2686  0.1898
 2974W        W 4171   0.413   2.627   6.753  0.0464 -0.0055 -0.1319
 2975W        W 4172   3.353   3.968   5.112 -0.1393  0.1760  0.1220
 2976W        W 4173   7.058   1.406   6.239 -0.1694 -0.1751  0.1441
 2977W        W 4174   4.334   6.625   6.303 -0.1738  0.0497 -0.2923
 2978W        W 4175   0.077   1.115   1.472 -0.4688  0.1017 -0.1962
 2979W        W 4176   5.186   2.968   2.250 -0.1461 -0.2453  0.0677
 2980W        W 4177   2.039   1.521   1.529 -0.3126  0.0435 -0.0265
 2981W        W 4178   1.040   1.521   2.360  0.1263  0.0626 -0.0983
 2982W        W 4179   3.972   5.647   4.762  0.0655  0.1875  0.0323
 2983W        W 4180   0.820   3.576   6.403  0.0264 -0.0616 -0.1844
 2984W        W 4181   6.255   7.620   3.370 -0.2374  0.1928 -0.0279
 2985W        W 4182   1.769   6.606   0.389 -0.1243  0.0103  0.2117
 2986W        W 4183   2.450   7.528   1.982 -0.1366  0.4581 -0.3211
 2987W        W 4184   1.953   5.890   1.291  0.0353  0.2134  0.1594
 2988W        W 4185   7.255   7.575   7.164  0.0089  0.1753  0.1788
 2989W        W 4186   1.949   1.122   5.779 -0.0403  0.3311  0.1176
 2990W        W 4187   5.262   1.548   6.680  0.0504  0.2566 -0.0471
 2991W        W 4188   5.134   2.719   4.123  0.1683 -0.0467  0.1039
 2992W        W 4189   3.407   5.712   5.774  0.0969 -0.0101 -0.0229
 2993W        W 4190   0.526   6.180   2.380  0.0394 -0.2919 -0.3099
 2994W        W 4191   0.564   0.613   1.535 -0.3656 -0.2667  0.0213
 2995W        W 4192   5.253   6.385   5.422  0.2694  0.0996  0.0842
 2996W        W 4193   6.158   7.471   7.241 -0.0619 -0.2710 -0.1118
 2997W        W 4194   1.009   2.757   1.723  0.2232  0.0319  0.2084
 2998W        W 4195   4.684   4.957   7.554 -0.1670 -0.1711 -0.3342
 2999W        W 4196   4.198   4.744   3.729  0.3120 -0.0303  0.1600
 3000W        W 4197   0.933   6.656   3.404  0.4783 -0.0715 -0.0723
 3001W        W 4198   7.641   6.172   7.222  0.1367  0.0040 -0.1897
 3002W        W 4199   2.795   7.466   1.539 -0.2042  0.1412 -0.1865
 3003W        W 4200   1.574   2.031   7.636 -0.0929 -0.4210 -0.0499
 3004W        W 4201   2.286   2.903   6.817  0.0694  0.1710 -0.1700
 3005W        W 4202   5.978   2.303   0.843 -0.1547 -0.0825  0.3499
 3006W        W 4203   6.391   2.026   5.204 -0.0604  0.0427  0.1726
 3007W        W 4204   6.422   5.152   3.675 -0.1066 -0.0051 -0.1069
 3008W        W 4205   5.523   6.450   6.591 -0.1554 -0.1032  0.3754
 3009W        W 4206   6.431   3.761   6.044  0.1904  0.1020  0.0519
 3010W        W 4207   7.370   5.910   2.936  0.1088  0.0471  0.1439
 3011W        W 4208   6.756   4.780   3.346  0.1498  0.2175  0.2784
 3012W        W 4209   3.596   5.322   5.019 -0.0307  0.0726  0.1345
 3013W        W 4210   1.449   5.306   1.830  0.0468  0.0970 -0.3475
 3014W        W 4211   3.708   4.899   5.222 -0.0017  0.1882  0.0108
 3015W        W 4212   4.956   5.277   6.746 -0.2972  0.0879  0.0862
 3016W        W 4213   4.928   2.606   5.501  0.4091  0.0076 -0.1968
 3017W        W 4214   3.648   0.079   0.282  0.0004 -0.0276 -0.0398
 3018W        W 4215   1.339   1.789   0.939  0.0399  0.2190 -0.0814
 3019W        W 4216   2.655   7.089   7.175  0.0953 -0.3447  0.0551
 3020W        W 4217   6.637   6.794   6.107 -0.0610  0.1309 -0.0455
 3021W        W 4218   2.851   2.055   1.391 -0.0192  0.2594 -0.0431
 3022W        W 4219   2.675   6.859   1.254  0.2127 -0.3649 -0.0775
 3023W        W 4220   2.365   3.404   2.232  0.1624  0.5839  0.1883
 3024W        W 4221   4.089   2.328   2.708 -0.1384 -0.2180  0.2501
 3025W        W 4222   5.755   0.257   7.069 -0.4398  0.2284 -0.0566
 3026W        W 4223   4.693   3.612   7.633  0.3320 -0.1694 -0.3521
 3027W        W 4224   5.639   3.627   4.690 -0.3064 -0.2047  0.2644
 3028W        W 4225   5.880   0.946   0.607 -0.1611  0.2868 -0.0757
 3029W        W 4226   0.068   5.965   5.289  0.0853  0.3400  0.4524
 3030W        W 4227   7.492   4.176   6.950  0.1562 -0.0304  0.0029
 3031W        W 4228   0.135   3.947   2.794  0.1955  0.1507  0.1935
 3032W        W 4229   2.920   2.446   3.906 -0.1214  0.0787  0.1515
 3033W        W 4230   6.623   4.756   0.416  0.2607 -0.1647  0.1075
 3034W        W 4231   6.580   1.585   5.448 -0.2813  0.0738 -0.1753
 3035W        W 4232   4.058   1.787   5.971 -0.0370 -0.0185 -0.0167
 3036W        W 4233   1.532   5.138   6.910 -0.0445 -0.0634 -0.1437
 3037W        W 4234   5.590   6.174   3.488 -0.0180 -0.0708  0.4139
 3038W        W 4235   5.918   0.454   1.528  0.2501  0.2473 -0.4723
 3039W        W 4236   2.078   2.706   7.288 -0.2937  0.0651  0.0500
 3040W        W 4237   5.851   7.520   6.813  0.1356 -0.1923  0.0099
 3041W        W 4238   6.723   0.034   1.855 -0.0745 -0.0890 -0.1172
 3042W        W 4239   5.884   2.225   6.022 -0.1618 -0.0497  0.0317
 3043W        W 4240   5.591   5.561   5.352  0.1583 -0.0222  0.1801
 3044W        W 4241   2.962   5.786   5.581 -0.0299 -0.0682 -0.0765
 3045W        W 4242   2.253   4.160   7.037 -0.0607  0.2668 -0.2235
 3046W        W 4243   4.115   3.884   2.036 -0.1577  0.2612 -0.0146
 3047W        W 4244   3.831   7.463   5.995 -0.0754  0.1836  0.4061
 3048W        W 4245   5.483   4.326   5.536 -0.0246 -0.0606 -0.0038
 3049W        W 4246   4.479   6.434   4.049 -0.4900  0.0665 -0.0920
 3050W        W 4247   2.987   2.457   3.020  0.1349 -0.1145  0.3367
 3051W        W 4248   1.495   6.118   2.329  0.1386 -0.1043 -0.1459
 3052W        W 4249   1.559   4.467   2.821 -0.1286  0.1123  0.1413
 3053W        W 4250   3.999   2.838   4.460  0.1752 -0.0428 -0.2358
 3054W        W 4251   0.181   7.491   5.038 -0.1375 -0.0775 -0.2035
 3055W        W 4252   0.902   2.816   4.763  0.1599 -0.2127 -0.1717
 3056W        W 4253   2.956   2.541   1.090 -0.1331 -0.1393 -0.0240
 3057W        W 4254   1.870   4.798   0.630  0.4491 -0.1974 -0.3737
 3058W        W 4255   4.948   5.461   5.692 -0.0503 -0.0863 -0.0440
 3059W        W 4256   1.444   5.067   5.992 -0.4552 -0.1002  0.0869
 3060W        W 4257   3.682   7.215   0.458  0.0612 -0.1278  0.0095
 3061W        W 4258   4.590   2.444   1.060  0.0887  0.2867  0.0539
 3062W        W 4259   0.209   5.155   1.029 -0.0204  0.1187  0.0395
 3063W        W 4260   0.847   5.758   5.291  0.0949 -0.1326  0.2170
 3064W        W 4261   0.503   3.846   7.585 -0.1019  0.1767  0.0210
 3065W        W 4262   7.032   5.668   1.091  0.0059 -0.1763 -0.2174
 3066W        W 4263   0.292   6.006   4.457 -0.0295  0.0083 -0.1011
 3067W        W 4264   5.613   3.431   3.648  0.2294  0.3028  0.1819
 3068W        W 4265   6.899   1.231   6.704  0.0425 -0.1041  0.0306
 3069W        W 4266   7.252   1.250   2.392 -0.1023 -0.0487  0.2598
 3070W        W 4267   3.108   0.950   0.244  0.1162 -0.0521 -0.1303
 3071W        W 4268   5.099   5.481   4.734 -0.4545  0.0746 -0.0263
 3072W        W 4269   0.175   6.285   0.531  0.0062  0.1365  0.1469
 3073W        W 4270   0.261   3.837   4.449  0.0911 -0.0323 -0.2039
 3074W        W 4271   1.722   3.933   5.001 -0.2115  0.1066 -0.0907
 3075W        W 4272   3.405   1.863   7.471  0.0830 -0.0725  0.3020
 3076W        W 4273   3.043   4.556   0.892  0.0774  0.2046  0.1118
 3077W        W 4274   5.816   6.939   1.514 -0.2060 -0.0020  0.0641
 3078W        W 4275   4.843   2.957   6.106  0.0253  0.1403 -0.1410
 3079W        W 4276   5.128   3.634   7.377 -0.1078  0.0884 -0.0887
 3080W        W 4277   3.312   2.794   0.868 -0.0949 -0.0874  0.0153
 3081W        W 4278   6.817   1.664   0.841  0.1730 -0.1801 -0.0485
 3082W        W 4279   6.082   3.192   5.532 -0.1626 -0.0665 -0.0273
 3083W        W 4280   2.371   3.336   1.470  0.1326  0.1590  0.0107
 3084W        W 4281   6.311   0.350   7.271 -0.0091  0.0337  0.2742
 3085W        W 4282   4.289   1.115   1.943  0.0863  0.0598 -0.1620
 3086W        W 4283   1.241   2.359   4.613  0.0525  0.1235  0.0712
 3087W        W 4284   3.741   3.158   3.077 -0.0455 -0.1524 -0.1704
 3088W        W 4285   4.884   4.377   4.974 -0.1360  0.2675  0.2394
 3089W        W 4286   4.542   2.497   5.822  0.0769 -0.0293 -0.2156
 3090W        W 4287   5.131   6.032   0.566 -0.1182  0.1071 -0.0448
 3091W        W 4288   5.536   3.854   6.999 -0.2269  0.3621  0.4209
 3092W        W 4289   2.590   6.173   5.387 -0.1068 -0.1833 -0.0319
 3093W        W 4290   1.901   1.467   6.689  0.2161 -0.1675  0.0806
 3094W        W 4291   3.572   7.267   6.568 -0.5456  0.2050 -0.0925
 3095W        W 4292   0.378   7.510   3.377  0.2284 -0.0493  0.0781
 3096W        W 4293   1.296   7.661   0.014 -0.0442  0.3790 -0.1514
 3097W        W 4294   6.843   4.019   3.022 -0.2784  0.1984  0.0483
 3098W        W 4295   1.022   5.950   0.328 -0.1940 -0.1463  0.2046
 3099W        W 4296   4.479   7.515   4.967  0.0041  0.2916  0.1740
 3100W        W 4297   4.392   1.266   0.586 -0.1434 -0.2551  0.3049
 3101W        W 4298   5.070   2.419   6.649 -0.2221  0.3342  0.0740
 3102W        W 4299   1.571   6.088   1.662  0.2906 -0.0897 -0.1591
 3103W        W 4300   1.480   6.250   6.094 -0.1412 -0.4938 -0.0394
 3104W        W 4301   4.133   4.993   5.415  0.1720 -0.0899 -0.2053
 3105W        W 4302   3.040   3.809   4.012 -0.1577 -0.2619 -0.3022
 3106W        W 4303   0.508   6.338   7.319 -0.3038  0.1349 -0.2717
 3107W        W 4304   0.972   6.548   2.884 -0.0868 -0.2233  0.0907
 3108W        W 4305   5.665   6.652   5.146  0.0726  0.0230 -0.0935
 3109W        W 4306   0.093   2.603   5.737 -0.0717 -0.0617 -0.1705
 3110W        W 4307   7.542   4.819   0.047 -0.0814  0.0506  0.2226
 3111W        W 4308   3.208   7.146   0.258 -0.5077 -0.0249 -0.1350
 3112W        W 4309   1.866   2.297   2.793  0.1885 -0.0573 -0.0082
 3113W        W 4310   4.624   4.905   6.352 -0.0479 -0.0901 -0.0206
 3114W        W 4311   6.342   5.925   5.091  0.0039 -0.1959 -0.1555
 3115W        W 4312   2.126   3.226   4.734  0.1919 -0.2837 -0.3310
 3116W        W 4313   1.186   7.460   3.359  0.0582 -0.1943  0.0744
 3117W        W 4314   5.512   1.296   2.048  0.1954  0.0577 -0.1957
 3118W        W 4315   4.058   1.159   7.144 -0.1458 -0.0634  0.0365
 3119W        W 4316   7.648   5.694   4.748 -0.0699  0.4848 -0.1678
 3120W        W 4317   4.128   0.461   1.069  0.0234  0.0875  0.0389
 3121W        W 4318   2.785   0.641   1.076  0.0816  0.1936  0.0662
 3122W        W 4319   1.357   1.118   2.012 -0.1691  0.1305 -0.0095
 3123W        W 4320   1.544   0.560   0.355 -0.0618 -0.1520 -0.2590
 3124W        W 4321   0.835   7.481   4.391  0.0571  0.3884  0.0768
 3125W        W 4322   4.551   0.320   7.147 -0.0632 -0.3266  0.1057
 3126W        W 4323   0.421   5.952   7.031  0.0187 -0.3160  0.3790
 3127W        W 4324   4.926   0.017   0.325 -0.3022 -0.2773  0.0097
 3128W        W 4325   7.545   4.878   3.748  0.1605 -0.2684 -0.0572
 3129W        W 4326   6.673   5.499   5.722  0.0125  0.1256 -0.0565
 3130W        W 4327   0.748   0.511   2.258 -0.2412  0.2559  0.0795
 3131W        W 4328   3.665   1.718   1.704  0.0273  0.0354  0.0642
 3132W        W 4329   1.728   3.896   2.020  0.0883 -0.2584  0.0710
 3133W        W 4330   1.634   3.482   6.702  0.0816  0.1727 -0.1164
 3134W        W 4331   6.989   4.010   0.370 -0.1931 -0.0367  0.1654
 3135W        W 4332   4.397   7.522   0.398 -0.1447 -0.0355  0.0582
 3136W        W 4333   7.300   5.570   6.743  0.1760 -0.1297  0.0920
 3137W        W 4334   4.372   2.364   2.287  0.1506 -0.1491 -0.1549
 3138W        W 4335   2.233   5.023   3.390  0.2239  0.2336  0.0527
 3139W        W 4336   3.975   5.471   0.263 -0.0922  0.0869 -0.1950
 3140W        W 4337   6.336   2.057   5.837 -0.0248  0.1147  0.4207
 3141W        W 4338   5.849   3.570   5.666 -0.3277 -0.2574  0.0884
 3142W        W 4339   2.836   3.909   5.507  0.1401  0.0965  0.0939
 3143W        W 4340   0.894   6.721   1.069 -0.1710 -0.2309  0.2754
 3144W        W 4341   4.349   1.920   0.404  0.2143 -0.1723 -0.3033
 3145W        W 4342   3.534   3.621   3.326 -0.5785 -0.0558 -0.0404
 3146W        W 4343   1.814   4.382   7.190 -0.0029  0.0416  0.1825
 3147W        W 4344   7.573   1.979   1.310 -0.3767  0.0167 -0.1352
 3148W        W 4345   3.146   2.997   4.695  0.1222  0.0176  0.0591
 3149W        W 4346   3.531   6.374   7.093  0.3526 -0.0944 -0.0783
 3150W        W 4347   1.114   0.322   5.391 -0.0380 -0.1949  0.1661
 3151W        W 4348   7.608   4.351   3.621 -0.2596 -0.0584  0.2316
 3152W        W 4349   4.615   6.882   4.319  0.0818 -0.0981  0.0444
 3153W        W 4350   4.733   6.397   0.684 -0.0584  0.2096  0.0976
 3154W        W 4351   5.721   5.000   3.152  0.2373  0.0580 -0.0788
 3155W        W 4352   0.624   4.984   4.760  0.0580  0.1332 -0.1438
   7.66375   7.66375   7.66375
