Martini system from ../2_Creating_coordinates/TYR-ASP-TYR_aa.pdb
 4240
    1TYR     BB    1   7.052   6.827   3.424
    1TYR    SC1    2   7.133   7.102   3.302
    1TYR    SC2    3   7.249   7.015   3.110
    1TYR    SC3    4   7.162   7.195   2.972
    2ASP     BB    5   6.964   6.738   3.068
    2ASP    SC1    6   6.913   6.432   3.131
    3TYR     BB    7   7.117   6.620   2.811
    3TYR    SC1    8   7.146   6.859   2.646
    3TYR    SC2    9   7.261   6.795   2.445
    3TYR    SC3   10   7.116   6.939   2.313
    1TYR     BB   11   4.049   2.407   5.944
    1TYR    SC1   12   3.759   2.319   6.014
    1TYR    SC2   13   3.817   2.166   6.191
    1TYR    SC3   14   3.622   2.236   6.319
    2ASP     BB   15   4.092   2.427   6.318
    2ASP    SC1   16   4.406   2.473   6.303
    3TYR     BB   17   4.173   2.225   6.556
    3TYR    SC1   18   3.914   2.179   6.681
    3TYR    SC2   19   3.948   2.028   6.866
    3TYR    SC3   20   3.791   2.153   7.002
    1TYR     BB   21   3.232   6.324   5.861
    1TYR    SC1   22   2.939   6.420   5.813
    1TYR    SC2   23   2.975   6.513   5.594
    1TYR    SC3   24   2.758   6.432   5.521
    2ASP     BB   25   3.209   6.202   5.505
    2ASP    SC1   26   3.517   6.129   5.485
    3TYR     BB   27   3.259   6.324   5.211
    3TYR    SC1   28   2.985   6.361   5.118
    3TYR    SC2   29   2.996   6.454   4.896
    3TYR    SC3   30   2.811   6.313   4.825
    1TYR     BB   31   4.256   4.262   5.560
    1TYR    SC1   32   4.016   4.348   5.382
    1TYR    SC2   33   4.141   4.388   5.181
    1TYR    SC3   34   3.961   4.296   5.046
    2ASP     BB   35   4.358   4.061   5.257
    2ASP    SC1   36   4.642   3.981   5.376
    3TYR     BB   37   4.529   4.112   4.988
    3TYR    SC1   38   4.316   4.131   4.790
    3TYR    SC2   39   4.421   4.169   4.576
    3TYR    SC3   40   4.263   4.019   4.468
    1TYR     BB   41   7.348   2.579   5.778
    1TYR    SC1   42   7.487   2.766   5.572
    1TYR    SC2   43   7.485   2.611   5.387
    1TYR    SC3   44   7.438   2.792   5.232
    2ASP     BB   45   7.117   2.497   5.492
    2ASP    SC1   46   6.971   2.260   5.644
    3TYR     BB   47   7.112   2.289   5.246
    3TYR    SC1   48   7.177   2.464   5.022
    3TYR    SC2   49   7.180   2.329   4.823
    3TYR    SC3   50   7.072   2.507   4.697
    1TYR     BB   51   7.669   5.640   0.340
    1TYR    SC1   52   7.515   5.878   0.470
    1TYR    SC2   53   7.628   6.053   0.349
    1TYR    SC3   54   7.421   6.179   0.332
    2ASP     BB   55   7.614   5.830   0.019
    2ASP    SC1   56   7.802   5.641  -0.154
    3TYR     BB   57   7.765   6.063  -0.145
    3TYR    SC1   58   7.593   6.292  -0.089
    3TYR    SC2   59   7.688   6.482  -0.202
    3TYR    SC3   60   7.466   6.559  -0.264
    1TYR     BB   61   4.158   7.620   5.904
    1TYR    SC1   62   4.071   7.347   5.784
    1TYR    SC2   63   4.176   7.207   5.950
    1TYR    SC3   64   3.988   7.053   5.943
    2ASP     BB   65   4.058   7.464   6.233
    2ASP    SC1   66   4.175   7.700   6.409
    3TYR     BB   67   4.197   7.280   6.457
    3TYR    SC1   68   4.075   7.021   6.403
    3TYR    SC2   69   4.165   6.863   6.561
    3TYR    SC3   70   3.947   6.760   6.587
    1TYR     BB   71   2.923   5.444   0.815
    1TYR    SC1   72   3.071   5.717   0.815
    1TYR    SC2   73   3.224   5.667   0.636
    1TYR    SC3   74   3.206   5.894   0.552
    2ASP     BB   75   2.928   5.485   0.440
    2ASP    SC1   76   2.821   5.192   0.382
    3TYR     BB   77   3.131   5.416   0.199
    3TYR    SC1   78   3.237   5.680   0.137
    3TYR    SC2   79   3.394   5.654  -0.044
    3TYR    SC3   80   3.314   5.859  -0.147
    1TYR     BB   81   1.206   5.434   6.999
    1TYR    SC1   82   0.940   5.386   6.845
    1TYR    SC2   83   1.002   5.503   6.643
    1TYR    SC3   84   0.887   5.338   6.508
    2ASP     BB   85   1.368   5.346   6.670
    2ASP    SC1   86   1.660   5.427   6.764
    3TYR     BB   87   1.454   5.501   6.401
    3TYR    SC1   88   1.246   5.415   6.216
    3TYR    SC2   89   1.289   5.520   6.004
    3TYR    SC3   90   1.228   5.317   5.887
    1TYR     BB   91   4.013   7.398   8.285
    1TYR    SC1   92   4.091   7.586   8.049
    1TYR    SC2   93   4.314   7.499   8.016
    1TYR    SC3   94   4.291   7.522   7.776
    2ASP     BB   95   4.173   7.129   8.074
    2ASP    SC1   96   4.159   6.909   8.301
    3TYR     BB   97   4.469   7.010   8.031
    3TYR    SC1   98   4.539   7.125   7.773
    3TYR    SC2   99   4.761   7.050   7.718
    3TYR    SC3  100   4.697   7.020   7.486
    1TYR     BB  101   5.989   5.938   2.360
    1TYR    SC1  102   5.707   5.864   2.468
    1TYR    SC2  103   5.587   6.042   2.360
    1TYR    SC3  104   5.399   5.894   2.317
    2ASP     BB  105   5.809   5.987   2.032
    2ASP    SC1  106   6.059   6.114   1.886
    3TYR     BB  107   5.650   6.225   1.885
    3TYR    SC1  108   5.374   6.139   1.918
    3TYR    SC2  109   5.233   6.305   1.814
    3TYR    SC3  110   5.089   6.131   1.725
    1TYR     BB  111   7.223   7.834   7.444
    1TYR    SC1  112   7.212   8.096   7.612
    1TYR    SC2  113   6.974   8.094   7.651
    1TYR    SC3  114   7.007   8.177   7.877
    2ASP     BB  115   6.990   7.699   7.708
    2ASP    SC1  116   6.930   7.430   7.552
    3TYR     BB  117   6.672   7.694   7.761
    3TYR    SC1  118   6.646   7.894   7.971
    3TYR    SC2  119   6.413   7.909   8.028
    3TYR    SC3  120   6.468   7.929   8.264
    1TYR     BB  121   0.238   6.937   4.859
    1TYR    SC1  122   0.385   6.719   4.693
    1TYR    SC2  123   0.544   6.865   4.587
    1TYR    SC3  124   0.717   6.696   4.606
    2ASP     BB  125   0.586   7.062   4.932
    2ASP    SC1  126   0.487   7.330   5.071
    3TYR     BB  127   0.798   7.260   4.792
    3TYR    SC1  128   0.990   7.069   4.682
    3TYR    SC2  129   1.162   7.196   4.570
    3TYR    SC3  130   1.332   7.045   4.655
    1TYR     BB  131   7.680   1.224   3.322
    1TYR    SC1  132   7.557   1.327   3.055
    1TYR    SC2  133   7.760   1.320   2.925
    1TYR    SC3  134   7.637   1.244   2.731
    2ASP     BB  135   7.854   0.973   3.101
    2ASP    SC1  136   8.040   0.862   3.332
    3TYR     BB  137   8.126   0.961   2.929
    3TYR    SC1  138   8.024   0.990   2.658
    3TYR    SC2  139   8.213   0.984   2.508
    3TYR    SC3  140   8.086   0.850   2.350
    1TYR     BB  141   0.997   5.293   2.377
    1TYR    SC1  142   1.136   5.200   2.640
    1TYR    SC2  143   1.050   5.376   2.780
    1TYR    SC3  144   1.024   5.220   2.965
    2ASP     BB  145   0.696   5.343   2.598
    2ASP    SC1  146   0.525   5.488   2.374
    3TYR     BB  147   0.579   5.578   2.785
    3TYR    SC1  148   0.641   5.476   3.050
    3TYR    SC2  149   0.562   5.637   3.211
    3TYR    SC3  150   0.484   5.459   3.356
    1TYR     BB  151   3.884   1.459   1.396
    1TYR    SC1  152   3.656   1.625   1.526
    1TYR    SC2  153   3.731   1.603   1.754
    1TYR    SC3  154   3.665   1.832   1.801
    2ASP     BB  155   4.107   1.652   1.630
    2ASP    SC1  156   4.365   1.479   1.566
    3TYR     BB  157   4.211   1.622   1.934
    3TYR    SC1  158   4.050   1.825   2.069
    3TYR    SC2  159   4.110   1.821   2.302
    3TYR    SC3  160   4.099   2.064   2.311
    1TYR     BB  161   1.478   6.989   0.324
    1TYR    SC1  162   1.725   7.177   0.345
    1TYR    SC2  163   1.693   7.241   0.574
    1TYR    SC3  164   1.933   7.237   0.612
    2ASP     BB  165   1.592   6.864   0.660
    2ASP    SC1  166   1.333   6.688   0.710
    3TYR     BB  167   1.548   6.947   0.969
    3TYR    SC1  168   1.804   7.072   1.031
    3TYR    SC2  169   1.795   7.143   1.261
    3TYR    SC3  170   2.025   7.072   1.295
    1TYR     BB  171   6.916   0.618   4.873
    1TYR    SC1  172   6.844   0.873   4.710
    1TYR    SC2  173   7.061   0.976   4.720
    1TYR    SC3  174   7.037   1.056   4.492
    2ASP     BB  175   7.228   0.617   4.662
    2ASP    SC1  176   7.369   0.387   4.828
    3TYR     BB  177   7.521   0.752   4.676
    3TYR    SC1  178   7.496   0.961   4.474
    3TYR    SC2  179   7.706   1.079   4.466
    3TYR    SC3  180   7.692   1.093   4.224
    1TYR     BB  181   1.731   2.484   1.548
    1TYR    SC1  182   1.655   2.300   1.787
    1TYR    SC2  183   1.877   2.279   1.879
    1TYR    SC3  184   1.787   2.286   2.105
    2ASP     BB  185   1.938   2.667   1.805
    2ASP    SC1  186   2.082   2.853   1.593
    3TYR     BB  187   2.235   2.643   1.928
    3TYR    SC1  188   2.179   2.528   2.190
    3TYR    SC2  189   2.390   2.499   2.303
    3TYR    SC3  190   2.291   2.572   2.512
    1TYR     BB  191   0.852   8.195   2.869
    1TYR    SC1  192   0.866   7.923   2.719
    1TYR    SC2  193   0.964   7.795   2.898
    1TYR    SC3  194   0.828   7.603   2.840
    2ASP     BB  195   0.727   7.986   3.157
    2ASP    SC1  196   0.739   8.223   3.367
    3TYR     BB  197   0.857   7.817   3.399
    3TYR    SC1  198   0.819   7.544   3.305
    3TYR    SC2  199   0.911   7.396   3.472
    3TYR    SC3  200   0.725   7.242   3.441
    1TYR     BB  201   4.345   1.369   7.702
    1TYR    SC1  202   4.113   1.355   7.495
    1TYR    SC2  203   4.247   1.387   7.298
    1TYR    SC3  204   4.111   1.228   7.175
    2ASP     BB  205   4.527   1.149   7.456
    2ASP    SC1  206   4.805   1.169   7.606
    3TYR     BB  207   4.709   1.191   7.193
    3TYR    SC1  208   4.523   1.116   6.982
    3TYR    SC2  209   4.639   1.139   6.772
    3TYR    SC3  210   4.536   0.936   6.689
    1TYR     BB  211   3.006   2.431   4.993
    1TYR    SC1  212   3.300   2.496   5.072
    1TYR    SC2  213   3.292   2.404   5.294
    1TYR    SC3  214   3.518   2.319   5.271
    2ASP     BB  215   3.077   2.097   5.154
    2ASP    SC1  216   2.776   1.999   5.140
    3TYR     BB  217   3.064   1.972   5.450
    3TYR    SC1  218   3.347   1.962   5.521
    3TYR    SC2  219   3.363   1.870   5.743
    3TYR    SC3  220   3.558   1.741   5.679
    1TYR     BB  221   7.316   7.399   5.470
    1TYR    SC1  222   7.421   7.402   5.176
    1TYR    SC2  223   7.363   7.630   5.127
    1TYR    SC3  224   7.567   7.657   4.998
    2ASP     BB  225   7.486   7.735   5.493
    2ASP    SC1  226   7.365   7.804   5.778
    3TYR     BB  227   7.409   8.042   5.430
    3TYR    SC1  228   7.557   8.088   5.183
    3TYR    SC2  229   7.514   8.315   5.114
    3TYR    SC3  230   7.746   8.341   5.047
    1TYR     BB  231   0.836   2.840   7.670
    1TYR    SC1  232   0.621   2.620   7.713
    1TYR    SC2  233   0.429   2.764   7.696
    1TYR    SC3  234   0.306   2.592   7.577
    2ASP     BB  235   0.607   2.958   7.395
    2ASP    SC1  236   0.768   3.226   7.342
    3TYR     BB  237   0.351   3.153   7.370
    3TYR    SC1  238   0.135   2.960   7.342
    3TYR    SC2  239  -0.071   3.083   7.322
    3TYR    SC3  240  -0.151   2.929   7.153
    1TYR     BB  241   3.138   3.552   1.357
    1TYR    SC1  242   3.032   3.843   1.390
    1TYR    SC2  243   2.850   3.790   1.538
    1TYR    SC3  244   2.889   3.994   1.665
    2ASP     BB  245   3.086   3.531   1.729
    2ASP    SC1  246   3.140   3.219   1.744
    3TYR     BB  247   2.843   3.458   1.929
    3TYR    SC1  248   2.769   3.722   2.027
    3TYR    SC2  249   2.585   3.694   2.180
    3TYR    SC3  250   2.679   3.862   2.328
    1TYR     BB  251   4.617   5.394   4.514
    1TYR    SC1  252   4.372   5.555   4.618
    1TYR    SC2  253   4.494   5.747   4.696
    1TYR    SC3  254   4.317   5.894   4.621
    2ASP     BB  255   4.725   5.726   4.371
    2ASP    SC1  256   5.012   5.623   4.284
    3TYR     BB  257   4.891   5.983   4.473
    3TYR    SC1  258   4.676   6.176   4.516
    3TYR    SC2  259   4.777   6.380   4.595
    3TYR    SC3  260   4.625   6.511   4.458
    1TYR     BB  261   7.357   4.348   1.601
    1TYR    SC1  262   7.185   4.460   1.834
    1TYR    SC2  263   7.276   4.320   2.007
    1TYR    SC3  264   7.267   4.504   2.166
    2ASP     BB  265   7.640   4.368   1.849
    2ASP    SC1  266   7.846   4.213   1.665
    3TYR     BB  267   7.764   4.180   2.080
    3TYR    SC1  268   7.665   4.312   2.320
    3TYR    SC2  269   7.747   4.188   2.510
    3TYR    SC3  270   7.790   4.394   2.631
    1TYR     BB  271   2.642   5.161   2.840
    1TYR    SC1  272   2.758   5.448   2.867
    1TYR    SC2  273   2.603   5.556   2.718
    1TYR    SC3  274   2.596   5.752   2.861
    2ASP     BB  275   2.308   5.334   2.872
    2ASP    SC1  276   2.139   5.075   2.803
    3TYR     BB  277   2.098   5.476   2.674
    3TYR    SC1  278   2.146   5.758   2.733
    3TYR    SC2  279   1.998   5.887   2.594
    3TYR    SC3  280   1.955   6.041   2.777
    1TYR     BB  281   5.689   4.974   5.883
    1TYR    SC1  282   5.622   4.681   5.805
    1TYR    SC2  283   5.549   4.727   5.580
    1TYR    SC3  284   5.653   4.523   5.501
    2ASP     BB  285   5.848   4.990   5.542
    2ASP    SC1  286   5.898   5.303   5.552
    3TYR     BB  287   5.752   5.054   5.241
    3TYR    SC1  288   5.746   4.787   5.125
    3TYR    SC2  289   5.676   4.809   4.896
    3TYR    SC3  290   5.837   4.641   4.826
    1TYR     BB  291   2.380   7.492   6.136
    1TYR    SC1  292   2.112   7.349   6.202
    1TYR    SC2  293   2.206   7.168   6.330
    1TYR    SC3  294   2.019   7.176   6.485
    2ASP     BB  295   2.460   7.427   6.499
    2ASP    SC1  296   2.762   7.520   6.475
    3TYR     BB  297   2.588   7.187   6.672
    3TYR    SC1  298   2.351   7.076   6.800
    3TYR    SC2  299   2.422   6.891   6.937
    3TYR    SC3  300   2.266   6.956   7.111
    1TYR     BB  301   1.843   5.207   5.063
    1TYR    SC1  302   2.121   5.072   5.099
    1TYR    SC2  303   2.184   5.189   5.301
    1TYR    SC3  304   2.288   4.987   5.388
    2ASP     BB  305   1.809   5.149   5.434
    2ASP    SC1  306   1.543   5.319   5.462
    3TYR     BB  307   1.890   5.304   5.705
    3TYR    SC1  308   2.119   5.147   5.794
    3TYR    SC2  309   2.199   5.246   5.999
    3TYR    SC3  310   2.238   5.026   6.094
    1TYR     BB  311   0.134   7.179   1.421
    1TYR    SC1  312  -0.129   7.229   1.579
    1TYR    SC2  313  -0.067   7.107   1.777
    1TYR    SC3  314  -0.176   7.273   1.917
    2ASP     BB  315   0.302   7.258   1.749
    2ASP    SC1  316   0.591   7.173   1.649
    3TYR     BB  317   0.388   7.096   2.014
    3TYR    SC1  318   0.184   7.184   2.203
    3TYR    SC2  319   0.228   7.074   2.412
    3TYR    SC3  320   0.173   7.277   2.534
    1TYR     BB  321   1.350   6.196   4.450
    1TYR    SC1  322   1.401   6.149   4.147
    1TYR    SC2  323   1.434   5.911   4.160
    1TYR    SC3  324   1.317   5.881   3.949
    2ASP     BB  325   1.132   5.889   4.422
    2ASP    SC1  326   1.085   5.864   4.734
    3TYR     BB  327   1.173   5.570   4.441
    3TYR    SC1  328   1.159   5.494   4.160
    3TYR    SC2  329   1.187   5.255   4.149
    3TYR    SC3  330   1.017   5.240   3.976
    1TYR     BB  331   0.549   0.635   4.645
    1TYR    SC1  332   0.806   0.540   4.498
    1TYR    SC2  333   0.697   0.389   4.345
    1TYR    SC3  334   0.850   0.454   4.167
    2ASP     BB  335   0.404   0.656   4.298
    2ASP    SC1  336   0.108   0.710   4.398
    3TYR     BB  337   0.256   0.456   4.093
    3TYR    SC1  338   0.468   0.404   3.900
    3TYR    SC2  339   0.380   0.254   3.734
    3TYR    SC3  340   0.496   0.376   3.559
    1TYR     BB  341   1.231   1.125   1.573
    1TYR    SC1  342   1.414   1.346   1.693
    1TYR    SC2  343   1.581   1.343   1.520
    1TYR    SC3  344   1.604   1.584   1.532
    2ASP     BB  345   1.291   1.305   1.247
    2ASP    SC1  346   1.154   1.080   1.070
    3TYR     BB  347   1.512   1.300   1.013
    3TYR    SC1  348   1.660   1.544   1.069
    3TYR    SC2  349   1.834   1.563   0.904
    3TYR    SC3  350   1.797   1.802   0.886
    1TYR     BB  351   0.982   4.315   3.544
    1TYR    SC1  352   1.156   4.073   3.633
    1TYR    SC2  353   1.262   4.182   3.820
    1TYR    SC3  354   1.251   3.976   3.949
    2ASP     BB  355   0.914   4.353   3.913
    2ASP    SC1  356   0.766   4.632   3.882
    3TYR     BB  357   1.053   4.500   4.164
    3TYR    SC1  358   1.172   4.273   4.303
    3TYR    SC2  359   1.285   4.359   4.498
    3TYR    SC3  360   1.207   4.170   4.629
    1TYR     BB  361   1.990   0.205   7.217
    1TYR    SC1  362   2.023   0.194   6.908
    1TYR    SC2  363   2.256   0.255   6.902
    1TYR    SC3  364   2.295   0.099   6.720
    2ASP     BB  365   2.321   0.023   7.221
    2ASP    SC1  366   2.359   0.048   7.535
    3TYR     BB  367   2.633   0.102   7.215
    3TYR    SC1  368   2.704   0.035   6.941
    3TYR    SC2  369   2.937   0.087   6.911
    3TYR    SC3  370   2.969  -0.114   6.780
    1TYR     BB  371   0.984   2.956   2.496
    1TYR    SC1  372   0.911   3.120   2.750
    1TYR    SC2  373   0.689   3.032   2.778
    1TYR    SC3  374   0.716   3.031   3.019
    2ASP     BB  375   0.825   2.669   2.681
    2ASP    SC1  376   0.832   2.472   2.433
    3TYR     BB  377   0.528   2.549   2.718
    3TYR    SC1  378   0.463   2.638   2.987
    3TYR    SC2  379   0.241   2.559   3.039
    3TYR    SC3  380   0.309   2.506   3.266
    1TYR     BB  381   5.268   7.323   2.273
    1TYR    SC1  382   5.159   7.039   2.207
    1TYR    SC2  383   4.940   7.070   2.302
    1TYR    SC3  384   4.840   6.942   2.121
    2ASP     BB  385   4.931   7.440   2.151
    2ASP    SC1  386   4.974   7.740   2.244
    3TYR     BB  387   4.638   7.484   2.277
    3TYR    SC1  388   4.494   7.254   2.169
    3TYR    SC2  389   4.268   7.265   2.251
    3TYR    SC3  390   4.183   7.193   2.035
    1TYR     BB  391   5.403   1.877   4.117
    1TYR    SC1  392   5.516   1.974   4.391
    1TYR    SC2  393   5.589   2.191   4.317
    1TYR    SC3  394   5.518   2.290   4.527
    2ASP     BB  395   5.255   2.223   4.099
    2ASP    SC1  396   5.159   2.192   3.798
    3TYR     BB  397   5.350   2.514   3.997
    3TYR    SC1  398   5.400   2.649   4.251
    3TYR    SC2  399   5.474   2.873   4.200
    3TYR    SC3  400   5.342   2.961   4.384
    1TYR     BB  401   7.142   0.884   2.208
    1TYR    SC1  402   7.220   0.631   2.371
    1TYR    SC2  403   7.282   0.745   2.573
    1TYR    SC3  404   7.184   0.567   2.707
    2ASP     BB  405   6.969   0.990   2.526
    2ASP    SC1  406   6.905   1.283   2.423
    3TYR     BB  407   7.050   1.145   2.796
    3TYR    SC1  408   7.063   0.924   2.986
    3TYR    SC2  409   7.124   1.016   3.200
    3TYR    SC3  410   6.968   0.867   3.312
    1TYR     BB  411   5.645   4.919  -0.193
    1TYR    SC1  412   5.382   4.942  -0.029
    1TYR    SC2  413   5.335   4.706  -0.016
    1TYR    SC3  414   5.254   4.731   0.212
    2ASP     BB  415   5.724   4.637   0.045
    2ASP    SC1  416   5.981   4.541  -0.115
    3TYR     BB  417   5.665   4.321   0.062
    3TYR    SC1  418   5.458   4.313   0.267
    3TYR    SC2  419   5.396   4.082   0.298
    3TYR    SC3  420   5.381   4.115   0.538
    1TYR     BB  421   7.516   8.003   2.637
    1TYR    SC1  422   7.784   7.873   2.727
    1TYR    SC2  423   7.772   7.940   2.958
    1TYR    SC3  424   7.866   7.728   3.028
    2ASP     BB  425   7.381   7.856   2.957
    2ASP    SC1  426   7.102   8.005   2.936
    3TYR     BB  427   7.361   7.945   3.266
    3TYR    SC1  428   7.569   7.780   3.386
    3TYR    SC2  429   7.574   7.830   3.622
    3TYR    SC3  430   7.607   7.595   3.674
    1TYR     BB  431   3.879   7.212   3.157
    1TYR    SC1  432   3.809   7.189   2.855
    1TYR    SC2  433   3.820   6.949   2.841
    1TYR    SC3  434   3.630   6.946   2.689
    2ASP     BB  435   3.637   6.925   3.196
    2ASP    SC1  436   3.708   6.875   3.501
    3TYR     BB  437   3.650   6.603   3.180
    3TYR    SC1  438   3.525   6.553   2.922
    3TYR    SC2  439   3.523   6.315   2.887
    3TYR    SC3  440   3.300   6.327   2.792
    1TYR     BB  441   8.066   4.589   3.332
    1TYR    SC1  442   8.279   4.486   3.534
    1TYR    SC2  443   8.174   4.572   3.733
    1TYR    SC3  444   8.240   4.373   3.856
    2ASP     BB  445   7.819   4.462   3.586
    2ASP    SC1  446   7.567   4.589   3.442
    3TYR     BB  447   7.675   4.576   3.852
    3TYR    SC1  448   7.823   4.435   4.061
    3TYR    SC2  449   7.732   4.505   4.273
    3TYR    SC3  450   7.748   4.279   4.358
    1TYR     BB  451   4.245   4.251   6.373
    1TYR    SC1  452   4.329   4.499   6.542
    1TYR    SC2  453   4.189   4.452   6.733
    1TYR    SC3  454   4.364   4.530   6.883
    2ASP     BB  455   4.280   4.065   6.699
    2ASP    SC1  456   4.155   3.796   6.587
    3TYR     BB  457   4.094   4.000   6.954
    3TYR    SC1  458   4.203   4.182   7.153
    3TYR    SC2  459   4.078   4.152   7.356
    3TYR    SC3  460   4.281   4.171   7.488
    1TYR     BB  461   5.218   7.402   4.289
    1TYR    SC1  462   4.947   7.523   4.384
    1TYR    SC2  463   5.030   7.626   4.585
    1TYR    SC3  464   4.885   7.817   4.551
    2ASP     BB  465   5.358   7.739   4.386
    2ASP    SC1  466   5.660   7.651   4.348
    3TYR     BB  467   5.472   7.877   4.653
    3TYR    SC1  468   5.251   8.052   4.726
    3TYR    SC2  469   5.314   8.168   4.928
    3TYR    SC3  470   5.213   8.373   4.845
    1TYR     BB  471   5.275   8.094   6.038
    1TYR    SC1  472   5.407   7.944   6.277
    1TYR    SC2  473   5.442   7.735   6.164
    1TYR    SC3  474   5.655   7.706   6.277
    2ASP     BB  475   5.552   7.935   5.837
    2ASP    SC1  476   5.432   8.025   5.557
    3TYR     BB  477   5.600   7.656   5.682
    3TYR    SC1  478   5.781   7.521   5.866
    3TYR    SC2  479   5.832   7.305   5.771
    3TYR    SC3  480   6.064   7.326   5.840
    1TYR     BB  481   4.357   5.438   1.862
    1TYR    SC1  482   4.609   5.274   1.941
    1TYR    SC2  483   4.766   5.456   1.931
    1TYR    SC3  484   4.884   5.369   2.125
    2ASP     BB  485   4.495   5.694   2.102
    2ASP    SC1  486   4.285   5.918   2.023
    3TYR     BB  487   4.703   5.940   2.090
    3TYR    SC1  488   4.935   5.825   2.224
    3TYR    SC2  489   5.107   5.993   2.226
    3TYR    SC3  490   5.170   5.929   2.452
    1TYR     BB  491   7.266   1.078  -0.293
    1TYR    SC1  492   7.171   1.257  -0.057
    1TYR    SC2  493   7.043   1.087   0.057
    1TYR    SC3  494   7.116   1.173   0.272
    2ASP     BB  495   7.331   0.822  -0.024
    2ASP    SC1  496   7.393   0.588  -0.228
    3TYR     BB  497   7.163   0.594   0.128
    3TYR    SC1  498   7.117   0.719   0.387
    3TYR    SC2  499   6.990   0.564   0.521
    3TYR    SC3  500   7.121   0.622   0.717
    1TYR     BB  501   6.956   6.238   6.368
    1TYR    SC1  502   7.182   6.089   6.522
    1TYR    SC2  503   7.172   6.223   6.722
    1TYR    SC3  504   7.212   6.026   6.859
    2ASP     BB  505   6.774   6.223   6.698
    2ASP    SC1  506   6.538   6.413   6.604
    3TYR     BB  507   6.758   6.402   6.966
    3TYR    SC1  508   6.915   6.241   7.151
    3TYR    SC2  509   6.918   6.356   7.362
    3TYR    SC3  510   6.894   6.145   7.481
    1TYR     BB  511   7.951   1.980   5.011
    1TYR    SC1  512   7.879   2.173   5.244
    1TYR    SC2  513   7.954   2.376   5.137
    1TYR    SC3  514   7.767   2.498   5.232
    2ASP     BB  515   7.797   2.246   4.793
    2ASP    SC1  516   7.889   2.111   4.521
    3TYR     BB  517   7.895   2.516   4.647
    3TYR    SC1  518   7.778   2.719   4.819
    3TYR    SC2  519   7.839   2.934   4.729
    3TYR    SC3  520   7.617   3.021   4.778
    1TYR     BB  521   3.064   3.467   6.746
    1TYR    SC1  522   2.821   3.660   6.729
    1TYR    SC2  523   2.701   3.542   6.557
    1TYR    SC3  524   2.490   3.591   6.665
    2ASP     BB  525   2.801   3.197   6.732
    2ASP    SC1  526   3.011   2.961   6.700
    3TYR     BB  527   2.643   3.035   6.503
    3TYR    SC1  528   2.380   3.161   6.516
    3TYR    SC2  529   2.241   3.055   6.351
    3TYR    SC3  530   2.052   3.058   6.503
    1TYR     BB  531   5.929   4.848   2.636
    1TYR    SC1  532   6.196   5.004   2.606
    1TYR    SC2  533   6.287   4.872   2.427
    1TYR    SC3  534   6.380   5.071   2.323
    2ASP     BB  535   5.924   4.859   2.259
    2ASP    SC1  536   5.678   4.661   2.232
    3TYR     BB  537   6.043   4.681   2.018
    3TYR    SC1  538   6.264   4.848   1.928
    3TYR    SC2  539   6.370   4.735   1.744
    3TYR    SC3  540   6.399   4.945   1.626
    1TYR     BB  541   2.857   7.948   3.136
    1TYR    SC1  542   2.840   8.144   3.377
    1TYR    SC2  543   2.728   7.994   3.528
    1TYR    SC3  544   2.859   8.078   3.715
    2ASP     BB  545   2.958   7.695   3.396
    2ASP    SC1  546   2.944   7.449   3.197
    3TYR     BB  547   2.809   7.492   3.597
    3TYR    SC1  548   2.841   7.630   3.852
    3TYR    SC2  549   2.735   7.495   4.021
    3TYR    SC3  550   2.915   7.543   4.176
    1TYR     BB  551   4.228   0.686   4.059
    1TYR    SC1  552   4.484   0.597   3.904
    1TYR    SC2  553   4.372   0.523   3.705
    1TYR    SC3  554   4.551   0.611   3.567
    2ASP     BB  555   4.128   0.838   3.730
    2ASP    SC1  556   3.834   0.910   3.825
    3TYR     BB  557   3.976   0.741   3.462
    3TYR    SC1  558   4.199   0.715   3.277
    3TYR    SC2  559   4.109   0.642   3.066
    3TYR    SC3  560   4.260   0.789   2.946
    1TYR     BB  561   6.178   7.138   4.753
    1TYR    SC1  562   6.390   6.996   4.931
    1TYR    SC2  563   6.561   7.165   4.912
    1TYR    SC3  564   6.623   7.132   5.144
    2ASP     BB  565   6.279   7.447   4.944
    2ASP    SC1  566   6.113   7.645   4.760
    3TYR     BB  567   6.506   7.674   4.918
    3TYR    SC1  568   6.690   7.596   5.130
    3TYR    SC2  569   6.872   7.754   5.130
    3TYR    SC3  570   6.875   7.754   5.373
    1TYR     BB  571   5.263   1.449   5.197
    1TYR    SC1  572   5.420   1.629   4.998
    1TYR    SC2  573   5.346   1.521   4.796
    1TYR    SC3  574   5.333   1.735   4.682
    2ASP     BB  575   4.979   1.492   4.952
    2ASP    SC1  576   4.793   1.278   5.093
    3TYR     BB  577   4.877   1.346   4.683
    3TYR    SC1  578   4.959   1.538   4.480
    3TYR    SC2  579   4.893   1.449   4.266
    3TYR    SC3  580   4.825   1.671   4.192
    1TYR     BB  581   3.455   6.549   6.905
    1TYR    SC1  582   3.159   6.645   6.922
    1TYR    SC2  583   3.096   6.509   7.111
    1TYR    SC3  584   2.959   6.689   7.199
    2ASP     BB  585   3.449   6.587   7.280
    2ASP    SC1  586   3.732   6.450   7.323
    3TYR     BB  587   3.367   6.405   7.533
    3TYR    SC1  588   3.113   6.525   7.610
    3TYR    SC2  589   3.030   6.404   7.801
    3TYR    SC3  590   2.954   6.611   7.903
    1TYR     BB  591   2.372   1.127   5.851
    1TYR    SC1  592   2.518   1.400   5.882
    1TYR    SC2  593   2.488   1.421   6.120
    1TYR    SC3  594   2.710   1.517   6.142
    2ASP     BB  595   2.566   1.031   6.161
    2ASP    SC1  596   2.412   0.757   6.202
    3TYR     BB  597   2.526   1.057   6.479
    3TYR    SC1  598   2.711   1.273   6.542
    3TYR    SC2  599   2.699   1.312   6.780
    3TYR    SC3  600   2.940   1.344   6.790
    1TYR     BB  601   4.074   4.464   0.978
    1TYR    SC1  602   4.276   4.247   0.884
    1TYR    SC2  603   4.437   4.279   1.060
    1TYR    SC3  604   4.478   4.040   1.070
    2ASP     BB  605   4.136   4.318   1.320
    2ASP    SC1  606   3.976   4.546   1.473
    3TYR     BB  607   4.348   4.361   1.559
    3TYR    SC1  608   4.516   4.125   1.529
    3TYR    SC2  609   4.685   4.135   1.700
    3TYR    SC3  610   4.665   3.896   1.738
    1TYR     BB  611   5.927   5.680   1.018
    1TYR    SC1  612   5.634   5.638   1.115
    1TYR    SC2  613   5.536   5.613   0.896
    1TYR    SC3  614   5.386   5.442   0.980
    2ASP     BB  615   5.851   5.395   0.783
    2ASP    SC1  616   6.120   5.427   0.618
    3TYR     BB  617   5.721   5.361   0.490
    3TYR    SC1  618   5.458   5.255   0.556
    3TYR    SC2  619   5.340   5.221   0.349
    3TYR    SC3  620   5.247   5.013   0.433
    1TYR     BB  621   1.719   4.401   2.030
    1TYR    SC1  622   1.920   4.167   2.065
    1TYR    SC2  623   2.015   4.242   2.273
    1TYR    SC3  624   2.029   4.013   2.353
    2ASP     BB  625   1.650   4.348   2.396
    2ASP    SC1  626   1.471   4.608   2.426
    3TYR     BB  627   1.774   4.450   2.676
    3TYR    SC1  628   1.920   4.213   2.763
    3TYR    SC2  629   2.024   4.265   2.974
    3TYR    SC3  630   1.970   4.044   3.059
    1TYR     BB  631   4.929   2.581   2.110
    1TYR    SC1  632   4.954   2.825   1.919
    1TYR    SC2  633   5.067   2.710   1.740
    1TYR    SC3  634   4.941   2.837   1.575
    2ASP     BB  635   4.827   2.395   1.797
    2ASP    SC1  636   4.832   2.110   1.936
    3TYR     BB  637   4.976   2.239   1.558
    3TYR    SC1  638   4.952   2.431   1.341
    3TYR    SC2  639   5.059   2.335   1.147
    3TYR    SC3  640   4.883   2.421   1.004
    1TYR     BB  641   5.654   3.565   6.331
    1TYR    SC1  642   5.519   3.299   6.244
    1TYR    SC2  643   5.412   3.384   6.046
    1TYR    SC3  644   5.458   3.177   5.928
    2ASP     BB  645   5.741   3.596   5.966
    2ASP    SC1  646   5.850   3.893   5.992
    3TYR     BB  647   5.601   3.712   5.700
    3TYR    SC1  648   5.521   3.466   5.565
    3TYR    SC2  649   5.412   3.528   5.360
    3TYR    SC3  650   5.521   3.346   5.243
    1TYR     BB  651   4.240   4.950   3.537
    1TYR    SC1  652   4.191   4.968   3.231
    1TYR    SC2  653   4.323   5.165   3.192
    1TYR    SC3  654   4.401   5.075   2.980
    2ASP     BB  655   4.598   5.025   3.445
    2ASP    SC1  656   4.692   5.065   3.746
    3TYR     BB  657   4.777   5.288   3.395
    3TYR    SC1  658   4.800   5.287   3.105
    3TYR    SC2  659   4.932   5.479   3.042
    3TYR    SC3  660   5.046   5.348   2.872
    1TYR     BB  661   5.040   0.883   2.048
    1TYR    SC1  662   5.041   0.717   2.311
    1TYR    SC2  663   5.163   0.876   2.445
    1TYR    SC3  664   5.025   0.825   2.638
    2ASP     BB  665   4.955   1.172   2.275
    2ASP    SC1  666   4.988   1.391   2.048
    3TYR     BB  667   5.118   1.387   2.452
    3TYR    SC1  668   5.074   1.283   2.721
    3TYR    SC2  669   5.189   1.430   2.874
    3TYR    SC3  670   5.004   1.414   3.032
    1TYR     BB  671   6.908   2.651   2.351
    1TYR    SC1  672   7.035   2.368   2.332
    1TYR    SC2  673   6.910   2.293   2.141
    1TYR    SC3  674   7.105   2.177   2.054
    2ASP     BB  675   6.953   2.655   1.977
    2ASP    SC1  676   6.787   2.923   1.936
    3TYR     BB  677   6.785   2.558   1.720
    3TYR    SC1  678   6.933   2.319   1.642
    3TYR    SC2  679   6.824   2.226   1.448
    3TYR    SC3  680   7.040   2.174   1.349
    1TYR     BB  681   1.422   1.971   5.546
    1TYR    SC1  682   1.650   1.996   5.335
    1TYR    SC2  683   1.779   1.807   5.411
    1TYR    SC3  684   1.834   1.749   5.181
    2ASP     BB  685   1.440   1.603   5.466
    2ASP    SC1  686   1.245   1.518   5.701
    3TYR     BB  687   1.610   1.349   5.567
    3TYR    SC1  688   1.795   1.312   5.345
    3TYR    SC2  689   1.936   1.124   5.398
    3TYR    SC3  690   1.925   1.047   5.168
    1TYR     BB  691   1.875   8.102   0.720
    1TYR    SC1  692   1.692   8.038   0.476
    1TYR    SC2  693   1.866   7.959   0.330
    1TYR    SC3  694   1.719   7.788   0.242
    2ASP     BB  695   2.034   7.770   0.639
    2ASP    SC1  696   2.273   7.807   0.844
    3TYR     BB  697   2.268   7.663   0.445
    3TYR    SC1  698   2.114   7.536   0.233
    3TYR    SC2  699   2.270   7.447   0.073
    3TYR    SC3  700   2.134   7.247   0.046
    1TYR     BB  701   1.548   3.342  -0.002
    1TYR    SC1  702   1.642   3.058  -0.088
    1TYR    SC2  703   1.874   3.087  -0.031
    1TYR    SC3  704   1.886   2.858   0.049
    2ASP     BB  705   1.764   3.282   0.300
    2ASP    SC1  706   1.739   3.578   0.409
    3TYR     BB  707   2.074   3.321   0.379
    3TYR    SC1  708   2.171   3.047   0.369
    3TYR    SC2  709   2.406   3.050   0.425
    3TYR    SC3  710   2.381   2.847   0.556
    1TYR     BB  711   0.724   7.372   8.184
    1TYR    SC1  712   0.938   7.157   8.119
    1TYR    SC2  713   0.929   7.179   7.879
    1TYR    SC3  714   1.170   7.148   7.864
    2ASP     BB  715   0.902   7.575   7.921
    2ASP    SC1  716   0.684   7.805   7.914
    3TYR     BB  717   0.890   7.608   7.601
    3TYR    SC1  718   1.129   7.462   7.520
    3TYR    SC2  719   1.142   7.472   7.279
    3TYR    SC3  720   1.382   7.504   7.290
    1TYR     BB  721   0.253   5.973   4.477
    1TYR    SC1  722   0.393   5.695   4.477
    1TYR    SC2  723   0.257   5.594   4.306
    1TYR    SC3  724   0.450   5.478   4.215
    2ASP     BB  725   0.266   5.937   4.102
    2ASP    SC1  726   0.083   6.191   4.047
    3TYR     BB  727   0.082   5.805   3.872
    3TYR    SC1  728   0.236   5.566   3.808
    3TYR    SC2  729   0.117   5.447   3.635
    3TYR    SC3  730   0.326   5.394   3.523
    1TYR     BB  731   1.738   1.937   2.570
    1TYR    SC1  732   1.598   2.205   2.497
    1TYR    SC2  733   1.440   2.205   2.678
    1TYR    SC3  734   1.464   2.446   2.703
    2ASP     BB  735   1.727   2.072   2.922
    2ASP    SC1  736   1.824   1.801   3.055
    3TYR     BB  737   1.517   2.071   3.167
    3TYR    SC1  738   1.418   2.345   3.158
    3TYR    SC2  739   1.256   2.369   3.335
    3TYR    SC3  740   1.340   2.592   3.385
    1TYR     BB  741   6.806   5.176   1.406
    1TYR    SC1  742   6.574   5.283   1.228
    1TYR    SC2  743   6.711   5.407   1.074
    1TYR    SC3  744   6.567   5.343   0.889
    2ASP     BB  745   6.976   5.108   1.077
    2ASP    SC1  746   7.254   5.033   1.208
    3TYR     BB  747   7.162   5.271   0.870
    3TYR    SC1  748   6.973   5.328   0.656
    3TYR    SC2  749   7.091   5.452   0.486
    3TYR    SC3  750   6.977   5.328   0.312
    1TYR     BB  751   6.350   1.551   5.829
    1TYR    SC1  752   6.272   1.825   5.955
    1TYR    SC2  753   6.160   1.736   6.149
    1TYR    SC3  754   6.250   1.914   6.287
    2ASP     BB  755   6.446   1.458   6.182
    2ASP    SC1  756   6.494   1.152   6.114
    3TYR     BB  757   6.298   1.337   6.441
    3TYR    SC1  758   6.273   1.574   6.609
    3TYR    SC2  759   6.163   1.508   6.812
    3TYR    SC3  760   6.310   1.651   6.942
    1TYR     BB  761   3.379   0.241   6.087
    1TYR    SC1  762   3.166   0.029   6.008
    1TYR    SC2  763   3.088   0.139   5.809
    1TYR    SC3  764   3.065  -0.075   5.696
    2ASP     BB  765   3.466   0.235   5.720
    2ASP    SC1  766   3.663   0.483   5.738
    3TYR     BB  767   3.365   0.384   5.453
    3TYR    SC1  768   3.210   0.172   5.325
    3TYR    SC2  769   3.123   0.261   5.119
    3TYR    SC3  770   3.167   0.050   5.006
    1TYR     BB  771   2.961   5.940   3.766
    1TYR    SC1  772   2.984   5.657   3.893
    1TYR    SC2  773   3.186   5.697   4.016
    1TYR    SC3  774   3.103   5.564   4.202
    2ASP     BB  775   3.051   6.061   4.112
    2ASP    SC1  776   3.088   6.363   4.023
    3TYR     BB  777   3.322   6.117   4.277
    3TYR    SC1  778   3.328   5.887   4.456
    3TYR    SC2  779   3.525   5.907   4.593
    3TYR    SC3  780   3.402   5.829   4.787
    1TYR     BB  781   1.265   1.721   7.795
    1TYR    SC1  782   1.148   1.612   7.529
    1TYR    SC2  783   1.238   1.389   7.547
    1TYR    SC3  784   1.034   1.296   7.453
    2ASP     BB  785   1.151   1.391   7.937
    2ASP    SC1  786   1.295   1.434   8.217
    3TYR     BB  787   1.271   1.093   7.965
    3TYR    SC1  788   1.120   0.952   7.759
    3TYR    SC2  789   1.193   0.723   7.760
    3TYR    SC3  790   0.965   0.646   7.727
    1TYR     BB  791   5.554   0.391   1.237
    1TYR    SC1  792   5.597   0.201   0.994
    1TYR    SC2  793   5.365   0.169   0.941
    1TYR    SC3  794   5.416   0.172   0.703
    2ASP     BB  795   5.300   0.557   1.013
    2ASP    SC1  796   5.185   0.744   1.242
    3TYR     BB  797   4.988   0.517   0.943
    3TYR    SC1  798   5.004   0.395   0.679
    3TYR    SC2  799   4.779   0.355   0.603
    3TYR    SC3  800   4.839   0.424   0.378
    1TYR     BB  801   3.737   3.573   0.208
    1TYR    SC1  802   3.918   3.807   0.305
    1TYR    SC2  803   3.997   3.701   0.506
    1TYR    SC3  804   4.218   3.797   0.474
    2ASP     BB  805   4.030   3.357   0.307
    2ASP    SC1  806   3.872   3.084   0.268
    3TYR     BB  807   4.135   3.212   0.575
    3TYR    SC1  808   4.357   3.385   0.650
    3TYR    SC2  809   4.453   3.296   0.852
    3TYR    SC3  810   4.677   3.346   0.770
    1TYR     BB  811   6.542   5.058   4.276
    1TYR    SC1  812   6.671   5.341   4.279
    1TYR    SC2  813   6.530   5.439   4.110
    1TYR    SC3  814   6.525   5.649   4.232
    2ASP     BB  815   6.217   5.248   4.269
    2ASP    SC1  816   6.039   4.990   4.218
    3TYR     BB  817   6.025   5.376   4.044
    3TYR    SC1  818   6.083   5.660   4.076
    3TYR    SC2  819   5.949   5.780   3.915
    3TYR    SC3  820   5.904   5.954   4.078
    1TYR     BB  821   0.189   3.587   0.429
    1TYR    SC1  822   0.128   3.889   0.473
    1TYR    SC2  823   0.148   3.888   0.713
    1TYR    SC3  824   0.254   4.106   0.708
    2ASP     BB  825   0.465   3.645   0.679
    2ASP    SC1  826   0.538   3.338   0.708
    3TYR     BB  827   0.495   3.642   1.000
    3TYR    SC1  828   0.506   3.927   1.060
    3TYR    SC2  829   0.529   3.951   1.298
    3TYR    SC3  830   0.686   4.133   1.268
    1TYR     BB  831   4.433   3.751   3.067
    1TYR    SC1  832   4.555   4.035   3.029
    1TYR    SC2  833   4.601   4.014   2.793
    1TYR    SC3  834   4.537   4.246   2.757
    2ASP     BB  835   4.252   3.826   2.745
    2ASP    SC1  836   4.139   3.532   2.712
    3TYR     BB  837   4.312   3.797   2.430
    3TYR    SC1  838   4.366   4.073   2.356
    3TYR    SC2  839   4.414   4.077   2.121
    3TYR    SC3  840   4.288   4.283   2.095
    1TYR     BB  841   0.130   2.100   0.971
    1TYR    SC1  842   0.313   1.893   0.829
    1TYR    SC2  843   0.178   1.865   0.632
    1TYR    SC3  844   0.377   1.850   0.494
    2ASP     BB  845   0.109   2.259   0.630
    2ASP    SC1  846  -0.118   2.465   0.712
    3TYR     BB  847  -0.073   2.224   0.366
    3TYR    SC1  848   0.110   2.084   0.188
    3TYR    SC2  849  -0.005   2.046  -0.020
    3TYR    SC3  850   0.197   2.098  -0.145
    1TYR     BB  851   2.382   6.152   8.037
    1TYR    SC1  852   2.177   5.968   7.893
    1TYR    SC2  853   2.164   6.094   7.688
    1TYR    SC3  854   2.150   5.888   7.559
    2ASP     BB  855   2.559   6.152   7.704
    2ASP    SC1  856   2.767   6.376   7.787
    3TYR     BB  857   2.545   6.321   7.430
    3TYR    SC1  858   2.409   6.133   7.254
    3TYR    SC2  859   2.386   6.239   7.039
    3TYR    SC3  860   2.438   6.030   6.927
    1TYR     BB  861   1.657   3.794   6.284
    1TYR    SC1  862   1.733   3.624   6.035
    1TYR    SC2  863   1.718   3.801   5.873
    1TYR    SC3  864   1.910   3.713   5.754
    2ASP     BB  865   1.893   4.048   6.134
    2ASP    SC1  866   1.815   4.277   6.339
    3TYR     BB  867   1.875   4.287   5.920
    3TYR    SC1  868   2.005   4.167   5.689
    3TYR    SC2  869   2.003   4.330   5.511
    3TYR    SC3  870   2.229   4.266   5.447
    1TYR     BB  871   2.074   6.600   6.296
    1TYR    SC1  872   1.951   6.314   6.277
    1TYR    SC2  873   1.892   6.293   6.510
    1TYR    SC3  874   1.687   6.177   6.450
    2ASP     BB  875   1.771   6.674   6.508
    2ASP    SC1  876   1.874   6.961   6.598
    3TYR     BB  877   1.691   6.649   6.820
    3TYR    SC1  878   1.516   6.417   6.815
    3TYR    SC2  879   1.442   6.377   7.040
    3TYR    SC3  880   1.218   6.324   6.961
    1TYR     BB  881   4.285   7.071   4.274
    1TYR    SC1  882   4.255   6.982   3.978
    1TYR    SC2  883   4.109   7.161   3.909
    1TYR    SC3  884   4.222   7.174   3.694
    2ASP     BB  885   4.325   7.416   4.128
    2ASP    SC1  886   4.314   7.563   4.408
    3TYR     BB  887   4.131   7.657   4.037
    3TYR    SC1  888   4.142   7.633   3.747
    3TYR    SC2  889   4.001   7.805   3.655
    3TYR    SC3  890   4.163   7.846   3.478
    1TYR     BB  891   3.087   1.448   0.625
    1TYR    SC1  892   3.209   1.721   0.540
    1TYR    SC2  893   3.091   1.856   0.700
    1TYR    SC3  894   3.287   1.996   0.732
    2ASP     BB  895   3.149   1.572   0.975
    2ASP    SC1  896   2.992   1.334   1.114
    3TYR     BB  897   2.992   1.751   1.192
    3TYR    SC1  898   3.138   2.002   1.176
    3TYR    SC2  899   3.036   2.155   1.332
    3TYR    SC3  900   3.255   2.239   1.397
    1TYR     BB  901   5.378   0.816   3.864
    1TYR    SC1  902   5.185   0.766   4.103
    1TYR    SC2  903   5.354   0.721   4.268
    1TYR    SC3  904   5.225   0.839   4.436
    2ASP     BB  905   5.575   1.017   4.115
    2ASP    SC1  906   5.824   1.059   3.923
    3TYR     BB  907   5.803   0.959   4.334
    3TYR    SC1  908   5.650   0.974   4.581
    3TYR    SC2  909   5.802   0.933   4.764
    3TYR    SC3  910   5.694   1.105   4.897
    1TYR     BB  911   4.090  -0.239   1.312
    1TYR    SC1  912   4.292  -0.094   1.125
    1TYR    SC2  913   4.183   0.121   1.127
    1TYR    SC3  914   4.399   0.233   1.130
    2ASP     BB  915   4.111   0.076   1.517
    2ASP    SC1  916   3.874  -0.005   1.712
    3TYR     BB  917   3.966   0.363   1.523
    3TYR    SC1  918   4.172   0.534   1.408
    3TYR    SC2  919   4.085   0.758   1.401
    3TYR    SC3  920   4.300   0.847   1.468
    1TYR     BB  921   7.101   5.841   2.126
    1TYR    SC1  922   7.045   5.778   1.827
    1TYR    SC2  923   6.891   5.959   1.788
    1TYR    SC3  924   6.983   5.994   1.565
    2ASP     BB  925   7.124   6.198   2.008
    2ASP    SC1  926   7.137   6.320   2.300
    3TYR     BB  927   6.920   6.443   1.957
    3TYR    SC1  928   6.904   6.444   1.666
    3TYR    SC2  929   6.754   6.622   1.603
    3TYR    SC3  930   6.898   6.681   1.417
    1TYR     BB  931   5.303   3.146   3.304
    1TYR    SC1  932   5.157   3.289   3.538
    1TYR    SC2  933   4.946   3.318   3.427
    1TYR    SC3  934   4.826   3.272   3.633
    2ASP     BB  935   4.982   2.952   3.271
    2ASP    SC1  936   5.065   2.812   2.999
    3TYR     BB  937   4.699   2.989   3.120
    3TYR    SC1  938   4.525   3.062   3.342
    3TYR    SC2  939   4.304   3.096   3.253
    3TYR    SC3  940   4.206   2.986   3.446
    1TYR     BB  941   5.090   1.376   0.212
    1TYR    SC1  942   5.190   1.660   0.293
    1TYR    SC2  943   4.975   1.751   0.350
    1TYR    SC3  944   5.072   1.873   0.537
    2ASP     BB  945   4.879   1.404   0.523
    2ASP    SC1  946   4.711   1.141   0.462
    3TYR     BB  947   4.590   1.523   0.601
    3TYR    SC1  948   4.664   1.767   0.742
    3TYR    SC2  949   4.461   1.876   0.811
    3TYR    SC3  950   4.562   1.935   1.024
    1TYR     BB  951   1.413   0.642   5.952
    1TYR    SC1  952   1.522   0.356   6.008
    1TYR    SC2  953   1.314   0.259   6.081
    1TYR    SC3  954   1.368   0.051   5.969
    2ASP     BB  955   1.126   0.459   5.790
    2ASP    SC1  956   0.949   0.720   5.751
    3TYR     BB  957   0.845   0.331   5.885
    3TYR    SC1  958   0.908   0.047   5.881
    3TYR    SC2  959   0.710  -0.072   5.949
    3TYR    SC3  960   0.751  -0.244   5.782
    1TYR     BB  961   0.471   2.278   6.777
    1TYR    SC1  962   0.660   2.524   6.752
    1TYR    SC2  963   0.817   2.457   6.921
    1TYR    SC3  964   1.002   2.543   6.788
    2ASP     BB  965   0.792   2.080   6.788
    2ASP    SC1  966   0.651   1.807   6.863
    3TYR     BB  967   1.003   1.988   7.014
    3TYR    SC1  968   1.225   2.170   6.963
    3TYR    SC2  969   1.398   2.119   7.123
    3TYR    SC3  970   1.568   2.150   6.952
    1TYR     BB  971   5.812   2.067   0.552
    1TYR    SC1  972   6.068   1.890   0.535
    1TYR    SC2  973   6.223   2.057   0.612
    1TYR    SC3  974   6.347   1.888   0.736
    2ASP     BB  975   5.955   2.174   0.884
    2ASP    SC1  976   5.742   2.405   0.929
    3TYR     BB  977   6.161   2.399   0.990
    3TYR    SC1  978   6.398   2.237   1.045
    3TYR    SC2  979   6.569   2.386   1.126
    3TYR    SC3  980   6.638   2.220   1.290
    1TYR     BB  981   2.773   3.430   5.113
    1TYR    SC1  982   2.715   3.717   5.219
    1TYR    SC2  983   2.510   3.664   5.334
    1TYR    SC3  984   2.568   3.815   5.515
    2ASP     BB  985   2.674   3.322   5.461
    2ASP    SC1  986   2.674   3.013   5.391
    3TYR     BB  987   2.401   3.249   5.614
    3TYR    SC1  988   2.361   3.487   5.777
    3TYR    SC2  989   2.159   3.455   5.904
    3TYR    SC3  990   2.261   3.558   6.099
    1TYR     BB  991   0.646   0.089   0.702
    1TYR    SC1  992   0.804   0.102   0.434
    1TYR    SC2  993   0.908   0.316   0.472
    1TYR    SC3  994   1.114   0.238   0.369
    2ASP     BB  995   0.967   0.214   0.854
    2ASP    SC1  996   0.840   0.265   1.140
    3TYR     BB  997   1.106   0.500   0.908
    3TYR    SC1  998   1.311   0.503   0.701
    3TYR    SC2  999   1.430   0.711   0.721
    3TYR    SC3 1000   1.641   0.599   0.676
    4W        W 1001   0.349   1.633   2.100
    5W        W 1002   4.010   5.867   1.494
    6W        W 1003   5.106   7.621   1.686
    7W        W 1004   3.772   4.299   0.403
    8W        W 1005   5.683   0.072   4.002
    9W        W 1006   3.484   7.360   2.147
   10W        W 1007   2.537   3.319   3.106
   11W        W 1008   3.373   7.676   5.025
   12W        W 1009   3.112   3.406   6.189
   13W        W 1010   3.682   2.669   5.460
   14W        W 1011   6.617   2.508   3.357
   15W        W 1012   0.928   6.753   6.162
   16W        W 1013   2.972   7.428   4.929
   17W        W 1014   7.158   3.321   3.628
   18W        W 1015   6.117   6.459   3.240
   19W        W 1016   7.256   3.126   1.905
   20W        W 1017   3.548   2.037   0.913
   21W        W 1018   4.614   4.267   3.949
   22W        W 1019   2.552   6.182   3.404
   23W        W 1020   3.957   5.410   1.281
   24W        W 1021   0.331   3.089   3.924
   25W        W 1022   1.975   6.238   5.081
   26W        W 1023   5.364   2.299   5.526
   27W        W 1024   0.429   6.932   3.776
   28W        W 1025   2.769   0.900   5.002
   29W        W 1026   1.095   7.587   5.519
   30W        W 1027   0.180   4.842   4.244
   31W        W 1028   6.949   4.572   2.275
   32W        W 1029   7.654   6.841   5.972
   33W        W 1030   4.354   0.291   4.467
   34W        W 1031   3.860   6.313   1.114
   35W        W 1032   3.430   4.024   2.538
   36W        W 1033   3.545   3.352   0.603
   37W        W 1034   2.630   7.135   2.585
   38W        W 1035   1.440   7.637   5.136
   39W        W 1036   7.517   7.177   2.175
   40W        W 1037   2.251   0.633   4.073
   41W        W 1038   3.736   4.560   6.753
   42W        W 1039   7.851   2.797   3.902
   43W        W 1040   4.599   2.116   6.133
   44W        W 1041   4.568   6.469   2.461
   45W        W 1042   5.676   1.433   2.966
   46W        W 1043   4.819   6.067   6.364
   47W        W 1044   0.606   2.177   6.213
   48W        W 1045   4.639   0.850   7.747
   49W        W 1046   1.119   5.630   1.968
   50W        W 1047   2.617   7.080   0.519
   51W        W 1048   1.180   3.272   4.125
   52W        W 1049   3.481   0.246   1.393
   53W        W 1050   6.733   1.195   3.868
   54W        W 1051   1.407   0.692   3.619
   55W        W 1052   1.602   2.575   3.865
   56W        W 1053   1.242   7.332   1.453
   57W        W 1054   1.855   6.457   3.898
   58W        W 1055   5.253   5.959   0.677
   59W        W 1056   4.050   5.464   2.603
   60W        W 1057   2.220   4.370   2.646
   61W        W 1058   6.449   1.641   4.888
   62W        W 1059   0.387   1.607   7.962
   63W        W 1060   2.307   7.508   1.384
   64W        W 1061   6.442   3.540   3.828
   65W        W 1062   3.367   3.532   4.367
   66W        W 1063   3.230   4.191   0.394
   67W        W 1064   4.803   0.282   2.107
   68W        W 1065   3.462   3.638   5.146
   69W        W 1066   6.619   6.519   2.671
   70W        W 1067   3.211   0.699   7.320
   71W        W 1068   6.292   0.807   0.486
   72W        W 1069   7.424   3.158   0.769
   73W        W 1070   5.880   5.100   7.157
   74W        W 1071   6.438   4.924   7.950
   75W        W 1072   5.937   5.515   6.608
   76W        W 1073   0.024   0.654   7.928
   77W        W 1074   6.084   2.032   2.232
   78W        W 1075   5.349   6.095   3.993
   79W        W 1076   1.816   2.172   7.150
   80W        W 1077   6.188   7.690   0.733
   81W        W 1078   1.268   4.458   2.892
   82W        W 1079   7.814   7.422   5.045
   83W        W 1080   0.750   1.601   4.399
   84W        W 1081   1.797   0.656   7.022
   85W        W 1082   4.102   4.177   4.143
   86W        W 1083   0.259   7.046   0.824
   87W        W 1084   5.650   7.086   2.695
   88W        W 1085   6.056   5.766   5.520
   89W        W 1086   5.269   3.839   4.784
   90W        W 1087   7.915   3.693   5.877
   91W        W 1088   5.241   5.224   4.271
   92W        W 1089   5.922   4.214   1.251
   93W        W 1090   6.591   0.284   2.179
   94W        W 1091   2.239   4.351   6.496
   95W        W 1092   0.275   5.572   1.494
   96W        W 1093   7.405   3.890   1.145
   97W        W 1094   3.515   4.667   4.942
   98W        W 1095   3.714   5.802   5.639
   99W        W 1096   0.394   3.751   3.247
  100W        W 1097   6.165   6.953   1.111
  101W        W 1098   2.626   4.308   5.785
  102W        W 1099   7.728   0.116   7.149
  103W        W 1100   2.906   4.490   0.247
  104W        W 1101   3.678   0.463   4.635
  105W        W 1102   3.544   5.250   4.852
  106W        W 1103   7.724   7.128   1.245
  107W        W 1104   4.011   0.806   7.564
  108W        W 1105   0.266   3.307   6.067
  109W        W 1106   0.569   2.820   0.459
  110W        W 1107   5.281   7.196   5.432
  111W        W 1108   1.384   0.021   3.146
  112W        W 1109   0.853   7.400   1.141
  113W        W 1110   2.052   0.513   6.055
  114W        W 1111   3.922   2.298   4.099
  115W        W 1112   5.561   0.088   6.628
  116W        W 1113   2.810   7.885   0.487
  117W        W 1114   3.742   4.648   2.876
  118W        W 1115   3.497   4.702   7.377
  119W        W 1116   2.552   4.984   3.352
  120W        W 1117   2.997   4.317   1.667
  121W        W 1118   1.083   6.169   5.039
  122W        W 1119   6.865   3.091   5.000
  123W        W 1120   3.990   4.941   5.149
  124W        W 1121   5.907   7.058   7.581
  125W        W 1122   3.354   0.720   1.981
  126W        W 1123   6.021   3.539   3.652
  127W        W 1124   2.808   2.563   2.111
  128W        W 1125   4.883   2.466   7.680
  129W        W 1126   7.565   5.936   3.753
  130W        W 1127   4.190   2.869   5.895
  131W        W 1128   7.276   5.425   2.118
  132W        W 1129   6.424   7.762   5.954
  133W        W 1130   2.332   2.230   1.251
  134W        W 1131   0.846   5.585   3.603
  135W        W 1132   4.572   5.569   2.581
  136W        W 1133   3.491   7.120   0.669
  137W        W 1134   3.830   6.778   4.809
  138W        W 1135   1.068   1.917   5.980
  139W        W 1136   5.990   6.957   3.045
  140W        W 1137   3.216   4.376   2.811
  141W        W 1138   3.555   4.534   2.444
  142W        W 1139   4.290   5.252   2.235
  143W        W 1140   2.818   0.909   4.513
  144W        W 1141   4.043   3.164   1.239
  145W        W 1142   2.314   6.966   3.819
  146W        W 1143   5.000   7.333   7.344
  147W        W 1144   3.631   5.801   0.429
  148W        W 1145   6.190   6.168   2.866
  149W        W 1146   0.307   4.777   6.065
  150W        W 1147   0.738   4.462   0.887
  151W        W 1148   0.049   0.664   0.817
  152W        W 1149   0.564   4.822   1.825
  153W        W 1150   4.805   5.036   6.253
  154W        W 1151   3.710   7.655   3.799
  155W        W 1152   7.245   2.690   7.612
  156W        W 1153   4.274   3.116   2.080
  157W        W 1154   0.612   1.030   7.085
  158W        W 1155   0.018   3.626   5.211
  159W        W 1156   7.280   1.793   5.959
  160W        W 1157   2.590   4.619   1.098
  161W        W 1158   0.505   5.802   6.467
  162W        W 1159   7.009   0.626   1.518
  163W        W 1160   1.273   0.657   6.567
  164W        W 1161   7.214   5.267   4.884
  165W        W 1162   0.325   6.638   1.251
  166W        W 1163   6.418   3.571   0.115
  167W        W 1164   2.861   6.097   1.457
  168W        W 1165   7.281   6.851   6.945
  169W        W 1166   3.774   1.376   4.335
  170W        W 1167   0.347   7.146   3.114
  171W        W 1168   3.678   3.672   0.904
  172W        W 1169   7.741   0.449   0.390
  173W        W 1170   1.469   6.671   5.382
  174W        W 1171   2.608   7.013   1.645
  175W        W 1172   6.324   2.586   2.869
  176W        W 1173   6.121   1.236   7.826
  177W        W 1174   7.235   4.956   6.943
  178W        W 1175   3.061   4.133   3.268
  179W        W 1176   3.865   0.144   3.816
  180W        W 1177   7.603   5.308   4.528
  181W        W 1178   5.208   1.841   7.851
  182W        W 1179   4.545   3.698   6.398
  183W        W 1180   3.100   4.999   4.788
  184W        W 1181   5.971   3.294   4.615
  185W        W 1182   2.201   3.642   2.003
  186W        W 1183   1.229   1.111   5.164
  187W        W 1184   2.950   7.365   2.256
  188W        W 1185   1.495   6.815   1.374
  189W        W 1186   0.800   1.759   3.437
  190W        W 1187   3.677   4.566   4.058
  191W        W 1188   6.225   4.142   0.710
  192W        W 1189   4.317   0.499   1.908
  193W        W 1190   2.654   3.201   0.720
  194W        W 1191   1.345   2.618   2.437
  195W        W 1192   2.368   0.020   4.519
  196W        W 1193   2.731   6.631   0.322
  197W        W 1194   0.428   1.998   1.685
  198W        W 1195   5.736   6.311   2.823
  199W        W 1196   1.161   0.086   5.427
  200W        W 1197   5.285   7.593   5.142
  201W        W 1198   7.071   3.024   0.035
  202W        W 1199   5.973   2.274   4.878
  203W        W 1200   3.485   4.051   4.160
  204W        W 1201   2.242   4.833   0.719
  205W        W 1202   5.497   6.915   4.538
  206W        W 1203   2.980   2.287   7.647
  207W        W 1204   0.298   4.821   0.245
  208W        W 1205   3.681   2.474   1.733
  209W        W 1206   1.186   3.504   2.720
  210W        W 1207   7.495   0.885   7.167
  211W        W 1208   3.843   3.473   5.560
  212W        W 1209   2.179   5.064   7.217
  213W        W 1210   4.348   6.632   6.331
  214W        W 1211   5.498   6.883   4.043
  215W        W 1212   5.849   0.071   4.560
  216W        W 1213   7.408   6.166   4.959
  217W        W 1214   5.832   7.786   6.897
  218W        W 1215   0.445   4.265   0.421
  219W        W 1216   2.499   6.618   5.107
  220W        W 1217   2.303   2.590   3.904
  221W        W 1218   0.907   7.773   0.823
  222W        W 1219   0.171   7.871   4.160
  223W        W 1220   0.862   3.544   6.816
  224W        W 1221   3.565   0.598   0.972
  225W        W 1222   7.556   5.320   3.163
  226W        W 1223   7.566   2.429   7.824
  227W        W 1224   6.247   7.451   7.550
  228W        W 1225   1.325   5.009   3.067
  229W        W 1226   1.347   4.575   1.821
  230W        W 1227   0.626   1.066   4.390
  231W        W 1228   6.745   7.306   0.052
  232W        W 1229   6.058   3.145   0.224
  233W        W 1230   1.682   5.368   1.491
  234W        W 1231   3.664   4.151   3.681
  235W        W 1232   2.867   2.023   2.130
  236W        W 1233   7.841   5.773   4.474
  237W        W 1234   6.988   1.672   0.535
  238W        W 1235   7.317   7.251   0.731
  239W        W 1236   2.995   1.542   6.545
  240W        W 1237   7.851   2.088   6.810
  241W        W 1238   1.278   4.324   5.223
  242W        W 1239   1.768   4.770   0.877
  243W        W 1240   4.800   6.174   2.801
  244W        W 1241   2.117   1.289   4.259
  245W        W 1242   0.995   2.283   0.036
  246W        W 1243   2.434   5.388   4.233
  247W        W 1244   6.572   3.457   4.822
  248W        W 1245   5.078   0.628   5.918
  249W        W 1246   2.301   7.087   5.753
  250W        W 1247   1.958   2.741   4.232
  251W        W 1248   1.171   5.164   0.345
  252W        W 1249   6.131   1.084   5.860
  253W        W 1250   6.559   4.297   3.034
  254W        W 1251   1.930   4.403   3.622
  255W        W 1252   7.497   7.503   2.703
  256W        W 1253   0.845   0.004   1.893
  257W        W 1254   3.685   4.593   1.142
  258W        W 1255   2.903   4.153   4.253
  259W        W 1256   4.763   6.233   1.425
  260W        W 1257   3.548   0.353   4.147
  261W        W 1258   2.900   7.568   1.425
  262W        W 1259   1.814   4.223   0.816
  263W        W 1260   2.405   3.182   5.125
  264W        W 1261   1.022   4.864   2.682
  265W        W 1262   2.301   1.283   3.573
  266W        W 1263   5.328   7.070   1.319
  267W        W 1264   5.649   3.354   2.642
  268W        W 1265   7.641   5.803   3.075
  269W        W 1266   5.943   4.663   6.881
  270W        W 1267   1.579   5.387   0.174
  271W        W 1268   0.846   4.409   1.617
  272W        W 1269   7.103   5.197   3.607
  273W        W 1270   4.036   5.543   3.924
  274W        W 1271   0.108   5.363   5.096
  275W        W 1272   7.672   6.207   4.515
  276W        W 1273   4.218   6.098   3.471
  277W        W 1274   5.229   4.522   7.471
  278W        W 1275   1.375   3.430   1.164
  279W        W 1276   1.671   4.157   5.560
  280W        W 1277   7.044   7.394   2.370
  281W        W 1278   1.383   5.875   3.643
  282W        W 1279   5.422   3.768   7.884
  283W        W 1280   6.533   5.993   5.084
  284W        W 1281   3.025   4.593   7.244
  285W        W 1282   5.675   6.250   7.689
  286W        W 1283   2.804   4.582   3.176
  287W        W 1284   4.244   0.539   5.236
  288W        W 1285   3.775   3.827   1.334
  289W        W 1286   1.353   5.632   0.531
  290W        W 1287   0.524   2.258   3.431
  291W        W 1288   2.563   2.588   2.961
  292W        W 1289   3.545   7.783   0.149
  293W        W 1290   0.087   7.329   0.257
  294W        W 1291   1.742   1.862   7.722
  295W        W 1292   0.114   5.180   2.143
  296W        W 1293   6.784   5.617   3.362
  297W        W 1294   2.731   4.151   6.901
  298W        W 1295   0.792   5.281   1.646
  299W        W 1296   0.422   5.714   0.978
  300W        W 1297   4.647   7.242   4.709
  301W        W 1298   4.992   0.675   6.877
  302W        W 1299   2.805   1.992   3.466
  303W        W 1300   6.557   0.721   1.160
  304W        W 1301   1.979   2.104   6.411
  305W        W 1302   4.588   6.991   0.788
  306W        W 1303   4.848   2.907   0.667
  307W        W 1304   6.939   4.095   0.989
  308W        W 1305   2.481   2.362   6.005
  309W        W 1306   6.224   0.691   6.822
  310W        W 1307   0.632   3.857   7.284
  311W        W 1308   1.758   0.699   6.406
  312W        W 1309   6.416   6.936   7.574
  313W        W 1310   7.141   6.937   4.678
  314W        W 1311   2.712   4.367   2.746
  315W        W 1312   5.425   3.722   2.390
  316W        W 1313   6.697   4.696   3.271
  317W        W 1314   5.016   5.636   1.548
  318W        W 1315   1.617   1.242   2.597
  319W        W 1316   3.105   0.486   4.764
  320W        W 1317   2.191   7.073   3.340
  321W        W 1318   6.899   1.528   7.660
  322W        W 1319   0.805   4.184   0.003
  323W        W 1320   5.704   5.121   3.873
  324W        W 1321   2.932   0.801   0.370
  325W        W 1322   7.000   5.390   5.643
  326W        W 1323   2.837   5.883   7.389
  327W        W 1324   7.173   3.649   0.718
  328W        W 1325   6.816   7.096   0.521
  329W        W 1326   6.705   3.832   0.546
  330W        W 1327   6.985   6.398   1.029
  331W        W 1328   5.003   2.040   3.247
  332W        W 1329   3.324   5.958   2.361
  333W        W 1330   6.530   3.909   6.745
  334W        W 1331   0.997   2.101   5.539
  335W        W 1332   2.328   1.500   4.662
  336W        W 1333   1.301   6.551   2.309
  337W        W 1334   0.777   1.492   0.827
  338W        W 1335   3.382   1.587   2.877
  339W        W 1336   7.406   4.704   5.392
  340W        W 1337   6.076   0.833   5.340
  341W        W 1338   2.768   3.633   7.114
  342W        W 1339   7.273   3.416   1.170
  343W        W 1340   6.681   7.391   7.347
  344W        W 1341   5.999   6.606   7.491
  345W        W 1342   1.627   0.717   2.411
  346W        W 1343   0.098   2.832   0.606
  347W        W 1344   2.497   5.124   1.054
  348W        W 1345   5.570   2.933   1.837
  349W        W 1346   5.911   3.237   3.193
  350W        W 1347   7.768   3.432   4.713
  351W        W 1348   4.981   5.828   7.675
  352W        W 1349   4.575   2.868   4.304
  353W        W 1350   0.994   4.818   1.317
  354W        W 1351   4.481   7.411   7.134
  355W        W 1352   6.496   1.454   1.899
  356W        W 1353   5.321   1.660   3.240
  357W        W 1354   6.156   3.098   3.705
  358W        W 1355   4.818   5.202   6.966
  359W        W 1356   5.537   3.717   0.458
  360W        W 1357   4.323   2.836   0.552
  361W        W 1358   4.573   1.429   2.257
  362W        W 1359   0.306   1.856   4.245
  363W        W 1360   7.326   2.967   4.964
  364W        W 1361   4.214   5.143   5.601
  365W        W 1362   2.805   0.133   5.663
  366W        W 1363   6.462   2.244   2.499
  367W        W 1364   2.413   5.702   5.113
  368W        W 1365   2.356   4.649   0.183
  369W        W 1366   7.972   4.131   5.298
  370W        W 1367   6.039   6.093   7.368
  371W        W 1368   7.456   5.787   1.422
  372W        W 1369   7.500   3.732   7.005
  373W        W 1370   4.862   0.087   1.302
  374W        W 1371   6.397   4.930   5.059
  375W        W 1372   4.367   0.630   6.638
  376W        W 1373   1.921   5.198   1.019
  377W        W 1374   2.253   4.285   2.069
  378W        W 1375   0.523   0.084   2.524
  379W        W 1376   7.573   0.969   0.532
  380W        W 1377   5.668   7.368   6.679
  381W        W 1378   1.603   4.785   3.774
  382W        W 1379   7.206   6.744   0.661
  383W        W 1380   3.928   5.259   4.369
  384W        W 1381   6.934   1.523   1.598
  385W        W 1382   6.265   3.953   2.164
  386W        W 1383   3.423   1.148   3.498
  387W        W 1384   0.241   3.307   1.316
  388W        W 1385   0.183   1.030   1.247
  389W        W 1386   0.825   0.474   5.265
  390W        W 1387   5.192   6.883   7.365
  391W        W 1388   5.184   4.770   1.939
  392W        W 1389   1.362   4.615   3.381
  393W        W 1390   5.576   7.464   1.775
  394W        W 1391   1.752   2.802   3.190
  395W        W 1392   2.681   4.176   7.386
  396W        W 1393   6.379   5.864   6.323
  397W        W 1394   1.168   3.771   4.365
  398W        W 1395   3.601   2.142   5.778
  399W        W 1396   0.563   6.180   0.034
  400W        W 1397   0.615   1.893   5.790
  401W        W 1398   3.021   6.917   3.273
  402W        W 1399   6.666   3.551   7.171
  403W        W 1400   4.694   0.868   1.349
  404W        W 1401   3.953   1.633   4.995
  405W        W 1402   6.228   2.115   7.354
  406W        W 1403   2.339   0.609   0.742
  407W        W 1404   3.541   1.808   0.365
  408W        W 1405   6.492   5.083   5.554
  409W        W 1406   0.225   6.259   7.246
  410W        W 1407   0.928   1.731   3.962
  411W        W 1408   7.648   1.659   2.228
  412W        W 1409   2.513   1.885   7.289
  413W        W 1410   2.496   1.095   3.080
  414W        W 1411   0.595   3.849   4.288
  415W        W 1412   6.042   1.134   3.217
  416W        W 1413   3.435   2.324   4.412
  417W        W 1414   4.477   3.244   7.145
  418W        W 1415   2.804   5.000   7.134
  419W        W 1416   5.180   3.234   1.965
  420W        W 1417   0.566   6.664   5.754
  421W        W 1418   7.344   7.811   6.781
  422W        W 1419   7.213   1.344   6.940
  423W        W 1420   0.737   2.109   1.248
  424W        W 1421   6.718   4.841   6.852
  425W        W 1422   4.272   7.015   3.315
  426W        W 1423   1.687   4.864   5.992
  427W        W 1424   5.991   0.370   6.393
  428W        W 1425   5.310   2.779   5.362
  429W        W 1426   2.167   5.026   7.731
  430W        W 1427   6.254   6.507   4.976
  431W        W 1428   0.761   1.889   0.418
  432W        W 1429   7.669   4.637   0.673
  433W        W 1430   6.150   4.390   4.087
  434W        W 1431   4.368   6.712   2.046
  435W        W 1432   4.959   3.917   5.607
  436W        W 1433   6.680   1.515   3.000
  437W        W 1434   3.135   4.586   7.784
  438W        W 1435   5.608   4.952   0.798
  439W        W 1436   3.147   0.050   4.128
  440W        W 1437   2.707   0.257   1.550
  441W        W 1438   7.276   2.491   0.280
  442W        W 1439   1.401   0.343   7.024
  443W        W 1440   5.050   7.122   0.900
  444W        W 1441   1.652   5.783   5.755
  445W        W 1442   3.212   4.240   6.956
  446W        W 1443   6.014   3.418   5.597
  447W        W 1444   5.090   3.496   3.901
  448W        W 1445   2.204   1.607   1.031
  449W        W 1446   5.933   7.313   7.178
  450W        W 1447   0.423   3.184   2.254
  451W        W 1448   5.206   1.158   3.101
  452W        W 1449   7.671   3.454   3.286
  453W        W 1450   0.360   0.848   7.618
  454W        W 1451   3.274   1.647   2.093
  455W        W 1452   1.492   2.380   7.774
  456W        W 1453   6.914   3.731   3.693
  457W        W 1454   6.665   6.398   5.403
  458W        W 1455   7.928   0.867   6.951
  459W        W 1456   4.297   1.466   3.131
  460W        W 1457   0.487   6.888   0.434
  461W        W 1458   3.069   3.815   3.953
  462W        W 1459   2.757   4.564   4.506
  463W        W 1460   0.201   7.539   6.349
  464W        W 1461   1.409   7.471   2.213
  465W        W 1462   1.523   3.008   5.442
  466W        W 1463   4.673   2.041   7.892
  467W        W 1464   2.859   1.881   4.174
  468W        W 1465   0.198   1.316   1.688
  469W        W 1466   6.652   7.714   3.202
  470W        W 1467   2.427   3.180   2.033
  471W        W 1468   6.265   7.347   0.304
  472W        W 1469   2.646   2.891   3.764
  473W        W 1470   6.769   2.803   5.426
  474W        W 1471   1.299   3.182   0.545
  475W        W 1472   7.431   1.580   4.839
  476W        W 1473   7.412   3.771   5.062
  477W        W 1474   0.548   4.539   4.546
  478W        W 1475   0.391   3.199   3.101
  479W        W 1476   3.950   2.589   7.550
  480W        W 1477   7.042   2.932   0.499
  481W        W 1478   1.247   5.733   2.433
  482W        W 1479   4.685   3.375   1.712
  483W        W 1480   2.995   7.596   5.450
  484W        W 1481   4.314   4.547   4.889
  485W        W 1482   6.508   7.541   1.735
  486W        W 1483   6.934   7.511   5.920
  487W        W 1484   2.135   5.526   1.287
  488W        W 1485   7.077   6.869   0.119
  489W        W 1486   6.566   3.867   3.310
  490W        W 1487   2.219   2.691   5.617
  491W        W 1488   2.555   5.326   7.457
  492W        W 1489   2.006   2.279   5.823
  493W        W 1490   5.744   1.778   2.600
  494W        W 1491   6.534   2.133   3.736
  495W        W 1492   4.633   0.642   4.197
  496W        W 1493   3.496   3.235   4.749
  497W        W 1494   2.983   1.256   3.038
  498W        W 1495   5.067   6.904   3.109
  499W        W 1496   0.177   6.841   5.469
  500W        W 1497   0.100   5.858   0.041
  501W        W 1498   5.120   6.472   2.237
  502W        W 1499   7.425   1.891   3.543
  503W        W 1500   3.346   3.366   2.062
  504W        W 1501   4.943   3.212   7.333
  505W        W 1502   2.905   0.493   5.326
  506W        W 1503   1.813   1.775   4.665
  507W        W 1504   1.215   4.687   0.844
  508W        W 1505   3.028   7.407   0.527
  509W        W 1506   0.201   3.645   6.965
  510W        W 1507   7.277   4.794   2.733
  511W        W 1508   0.830   1.719   7.354
  512W        W 1509   5.349   4.628   4.057
  513W        W 1510   4.353   3.959   0.011
  514W        W 1511   4.966   2.867   6.984
  515W        W 1512   1.262   3.033   5.054
  516W        W 1513   6.613   7.421   6.380
  517W        W 1514   4.620   3.907   0.719
  518W        W 1515   4.987   7.461   7.894
  519W        W 1516   7.792   6.749   0.286
  520W        W 1517   7.772   0.232   5.642
  521W        W 1518   5.982   5.966   5.055
  522W        W 1519   5.940   6.054   0.239
  523W        W 1520   4.342   2.977   1.604
  524W        W 1521   2.628   3.594   2.729
  525W        W 1522   3.020   1.291   5.221
  526W        W 1523   4.653   2.617   1.232
  527W        W 1524   7.318   0.141   6.262
  528W        W 1525   6.209   0.931   1.592
  529W        W 1526   0.889   5.918   0.791
  530W        W 1527   0.322   3.167   4.880
  531W        W 1528   5.660   4.132   7.602
  532W        W 1529   1.283   4.695   6.268
  533W        W 1530   1.247   6.209   5.510
  534W        W 1531   4.110   1.383   5.752
  535W        W 1532   4.773   7.483   0.258
  536W        W 1533   7.238   4.283   6.320
  537W        W 1534   7.635   5.228   2.470
  538W        W 1535   0.324   3.610   2.813
  539W        W 1536   1.908   6.078   7.028
  540W        W 1537   6.343   2.126   3.278
  541W        W 1538   3.187   0.885   5.582
  542W        W 1539   5.502   3.440   1.015
  543W        W 1540   0.033   4.036   6.689
  544W        W 1541   3.401   7.094   6.261
  545W        W 1542   7.723   6.265   7.387
  546W        W 1543   5.805   4.808   1.212
  547W        W 1544   5.144   5.357   7.685
  548W        W 1545   7.520   2.191   7.253
  549W        W 1546   4.744   5.516   5.387
  550W        W 1547   0.035   2.034   2.958
  551W        W 1548   3.375   4.107   0.903
  552W        W 1549   3.017   5.364   3.640
  553W        W 1550   0.318   4.358   1.668
  554W        W 1551   0.425   4.345   5.912
  555W        W 1552   2.542   1.777   2.588
  556W        W 1553   5.808   0.551   0.559
  557W        W 1554   7.877   2.039   7.607
  558W        W 1555   5.204   3.543   1.426
  559W        W 1556   2.582   7.435   4.585
  560W        W 1557   1.677   2.861   5.916
  561W        W 1558   2.080   0.539   4.640
  562W        W 1559   4.071   2.436   0.616
  563W        W 1560   5.158   5.228   6.585
  564W        W 1561   4.606   5.967   5.119
  565W        W 1562   2.536   0.558   5.816
  566W        W 1563   7.413   4.681   5.948
  567W        W 1564   7.991   5.633   6.639
  568W        W 1565   2.265   7.063   5.248
  569W        W 1566   7.324   0.298   1.252
  570W        W 1567   2.160   2.927   2.892
  571W        W 1568   1.774   5.224   7.423
  572W        W 1569   4.399   0.978   5.528
  573W        W 1570   7.259   2.940   1.332
  574W        W 1571   1.792   4.490   5.249
  575W        W 1572   3.396   7.434   1.537
  576W        W 1573   1.236   7.565   4.667
  577W        W 1574   3.495   4.730   6.042
  578W        W 1575   5.740   1.246   1.262
  579W        W 1576   3.007   1.081   6.393
  580W        W 1577   6.796   4.395   4.888
  581W        W 1578   3.604   3.499   6.074
  582W        W 1579   5.221   1.061   6.166
  583W        W 1580   4.930   6.797   1.256
  584W        W 1581   2.289   3.106   4.016
  585W        W 1582   5.397   7.156   7.021
  586W        W 1583   1.348   2.195   4.747
  587W        W 1584   5.230   6.346   6.416
  588W        W 1585   2.805   4.665   6.760
  589W        W 1586   6.460   0.201   5.175
  590W        W 1587   4.819   3.146   4.692
  591W        W 1588   7.781   7.076   4.202
  592W        W 1589   5.101   1.691   1.163
  593W        W 1590   6.234   3.081   6.213
  594W        W 1591   6.922   4.502   4.361
  595W        W 1592   3.158   2.409   3.475
  596W        W 1593   7.563   0.563   0.850
  597W        W 1594   6.503   3.116   0.416
  598W        W 1595   5.289   4.868   1.395
  599W        W 1596   0.424   7.201   6.711
  600W        W 1597   0.152   2.032   6.016
  601W        W 1598   7.587   4.028   2.743
  602W        W 1599   2.291   0.858   7.014
  603W        W 1600   5.202   0.039   1.816
  604W        W 1601   3.216   2.553   6.908
  605W        W 1602   4.125   0.137   4.980
  606W        W 1603   4.016   0.967   6.795
  607W        W 1604   0.603   5.519   7.381
  608W        W 1605   6.426   3.661   7.654
  609W        W 1606   5.652   1.070   7.518
  610W        W 1607   1.500   7.354   5.865
  611W        W 1608   6.105   3.523   5.085
  612W        W 1609   5.814   6.463   4.070
  613W        W 1610   6.426   6.802   4.629
  614W        W 1611   1.918   1.408   3.199
  615W        W 1612   7.535   3.451   6.572
  616W        W 1613   4.761   4.458   7.624
  617W        W 1614   5.476   5.506   3.062
  618W        W 1615   2.863   3.651   4.411
  619W        W 1616   3.124   4.803   5.673
  620W        W 1617   7.743   2.535   6.986
  621W        W 1618   3.772   5.184   5.908
  622W        W 1619   7.319   0.592   3.824
  623W        W 1620   0.942   3.312   3.162
  624W        W 1621   7.696   4.389   5.619
  625W        W 1622   3.732   1.920   4.338
  626W        W 1623   2.483   6.525   4.522
  627W        W 1624   5.663   7.312   0.318
  628W        W 1625   5.389   2.908   7.218
  629W        W 1626   6.666   1.431   7.086
  630W        W 1627   4.791   5.033   4.367
  631W        W 1628   6.520   5.539   5.383
  632W        W 1629   3.053   0.148   6.574
  633W        W 1630   3.165   0.879   0.806
  634W        W 1631   4.099   7.265   7.501
  635W        W 1632   7.142   7.191   3.641
  636W        W 1633   5.643   4.973   1.712
  637W        W 1634   3.923   5.851   2.934
  638W        W 1635   3.739   6.172   4.685
  639W        W 1636   2.692   1.409   4.344
  640W        W 1637   7.994   6.359   3.127
  641W        W 1638   1.802   3.796   0.068
  642W        W 1639   4.654   7.471   0.948
  643W        W 1640   3.264   6.732   4.230
  644W        W 1641   5.444   5.721   6.519
  645W        W 1642   1.008   3.978   2.077
  646W        W 1643   0.677   1.078   1.695
  647W        W 1644   6.891   6.336   5.858
  648W        W 1645   5.465   1.586   6.276
  649W        W 1646   1.614   5.297   3.790
  650W        W 1647   1.659   3.056   1.384
  651W        W 1648   1.408   3.908   7.214
  652W        W 1649   1.016   3.415   6.237
  653W        W 1650   5.945   7.734   0.261
  654W        W 1651   1.525   2.450   0.197
  655W        W 1652   7.895   6.664   1.385
  656W        W 1653   4.583   7.146   2.891
  657W        W 1654   1.597   5.021   4.554
  658W        W 1655   4.845   3.903   4.494
  659W        W 1656   3.044   4.869   6.206
  660W        W 1657   1.797   6.203   3.493
  661W        W 1658   7.135   0.546   6.432
  662W        W 1659   4.333   6.850   4.869
  663W        W 1660   2.900   5.411   5.076
  664W        W 1661   3.065   2.670   2.662
  665W        W 1662   3.117   0.315   2.395
  666W        W 1663   6.485   0.695   2.439
  667W        W 1664   3.708   0.846   7.169
  668W        W 1665   4.418   4.685   2.333
  669W        W 1666   5.465   5.844   3.535
  670W        W 1667   3.570   2.692   4.939
  671W        W 1668   3.117   3.245   0.875
  672W        W 1669   3.302   5.552   5.361
  673W        W 1670   7.441   2.521   4.771
  674W        W 1671   5.560   3.464   4.792
  675W        W 1672   4.183   0.432   5.722
  676W        W 1673   3.636   4.251   6.241
  677W        W 1674   4.758   3.178   2.262
  678W        W 1675   1.587   1.163   3.531
  679W        W 1676   7.052   4.064   4.338
  680W        W 1677   0.063   3.334   1.877
  681W        W 1678   4.492   2.315   5.164
  682W        W 1679   6.545   0.630   1.750
  683W        W 1680   3.666   1.042   2.376
  684W        W 1681   4.892   0.678   3.118
  685W        W 1682   6.602   4.315   3.583
  686W        W 1683   4.428   4.893   7.861
  687W        W 1684   0.894   5.629   7.825
  688W        W 1685   1.349   4.504   5.750
  689W        W 1686   7.084   3.028   2.700
  690W        W 1687   5.021   6.502   4.099
  691W        W 1688   5.809   4.553   3.736
  692W        W 1689   7.200   6.199   0.631
  693W        W 1690   7.508   3.429   0.331
  694W        W 1691   7.863   0.510   3.663
  695W        W 1692   3.006   4.287   2.349
  696W        W 1693   7.125   2.817   3.551
  697W        W 1694   6.192   5.055   6.704
  698W        W 1695   0.096   5.650   2.097
  699W        W 1696   5.053   5.760   2.776
  700W        W 1697   4.905   1.783   2.274
  701W        W 1698   2.920   7.448   6.800
  702W        W 1699   0.547   1.496   2.918
  703W        W 1700   0.045   5.409   0.230
  704W        W 1701   3.246   0.574   7.868
  705W        W 1702   6.209   6.210   5.412
  706W        W 1703   0.915   3.151   0.918
  707W        W 1704   3.496   1.107   2.959
  708W        W 1705   1.212   3.620   1.771
  709W        W 1706   1.071   5.493   0.947
  710W        W 1707   0.202   1.289   7.218
  711W        W 1708   6.261   0.329   0.226
  712W        W 1709   7.595   7.058   4.752
  713W        W 1710   5.221   7.081   1.783
  714W        W 1711   4.346   7.524   2.685
  715W        W 1712   2.680   2.372   6.812
  716W        W 1713   5.840   5.692   4.668
  717W        W 1714   2.766   1.303   5.679
  718W        W 1715   6.359   6.594   1.848
  719W        W 1716   5.430   2.222   2.987
  720W        W 1717   4.265   1.979   4.152
  721W        W 1718   0.352   0.725   0.326
  722W        W 1719   5.441   5.763   1.841
  723W        W 1720   0.531   2.365   5.632
  724W        W 1721   2.954   1.700   1.674
  725W        W 1722   1.721   3.936   3.585
  726W        W 1723   3.599   7.066   1.749
  727W        W 1724   6.342   3.027   5.733
  728W        W 1725   5.545   4.090   2.682
  729W        W 1726   2.264   5.237   2.081
  730W        W 1727   5.913   7.713   4.093
  731W        W 1728   3.245   6.402   1.144
  732W        W 1729   5.110   0.302   7.294
  733W        W 1730   2.502   6.522   3.966
  734W        W 1731   5.233   2.606   3.191
  735W        W 1732   5.567   7.716   0.647
  736W        W 1733   4.869   1.991   7.449
  737W        W 1734   3.390   3.753   2.940
  738W        W 1735   0.812   1.401   2.087
  739W        W 1736   1.524   6.920   4.096
  740W        W 1737   1.421   1.412   3.028
  741W        W 1738   7.420   1.326   1.427
  742W        W 1739   2.250   3.925   2.825
  743W        W 1740   2.017   4.018   0.446
  744W        W 1741   4.214   0.131   6.769
  745W        W 1742   7.651   2.160   5.691
  746W        W 1743   7.147   2.379   4.286
  747W        W 1744   3.022   1.017   1.382
  748W        W 1745   6.438   3.904   5.094
  749W        W 1746   2.562   1.742   0.562
  750W        W 1747   7.000   6.917   1.133
  751W        W 1748   5.918   1.346   4.481
  752W        W 1749   4.056   4.719   5.852
  753W        W 1750   3.569   7.764   1.852
  754W        W 1751   3.311   0.291   3.292
  755W        W 1752   1.888   2.036   1.124
  756W        W 1753   1.164   5.531   1.461
  757W        W 1754   1.054   6.590   4.219
  758W        W 1755   3.922   4.919   2.477
  759W        W 1756   3.203   4.382   3.852
  760W        W 1757   3.175   1.203   2.536
  761W        W 1758   0.138   4.991   3.804
  762W        W 1759   6.678   2.203   6.575
  763W        W 1760   2.137   6.064   3.184
  764W        W 1761   5.599   1.795   1.442
  765W        W 1762   6.324   7.800   5.275
  766W        W 1763   0.638   6.022   7.278
  767W        W 1764   3.896   0.582   2.569
  768W        W 1765   7.838   7.938   6.760
  769W        W 1766   5.724   3.797   7.221
  770W        W 1767   4.748   0.991   5.906
  771W        W 1768   4.141   2.484   1.491
  772W        W 1769   4.366   4.879   1.892
  773W        W 1770   6.681   0.257   1.311
  774W        W 1771   6.360   0.096   6.675
  775W        W 1772   3.641   2.035   4.803
  776W        W 1773   5.137   0.074   6.827
  777W        W 1774   7.127   1.857   4.383
  778W        W 1775   1.201   2.145   0.449
  779W        W 1776   6.194   7.259   6.684
  780W        W 1777   5.710   6.609   4.849
  781W        W 1778   3.286   6.929   2.196
  782W        W 1779   6.538   2.591   5.035
  783W        W 1780   6.291   2.003   5.622
  784W        W 1781   6.843   6.613   4.968
  785W        W 1782   1.628   5.686   7.034
  786W        W 1783   0.372   5.154   0.568
  787W        W 1784   7.188   6.624   5.549
  788W        W 1785   3.745   5.473   2.203
  789W        W 1786   2.387   1.610   3.010
  790W        W 1787   2.750   7.132   5.512
  791W        W 1788   1.472   4.161   3.223
  792W        W 1789   3.574   6.717   1.410
  793W        W 1790   5.807   3.849   2.025
  794W        W 1791   2.298   5.809   2.189
  795W        W 1792   1.396   7.287   3.533
  796W        W 1793   1.489   6.440   3.203
  797W        W 1794   5.793   4.260   3.313
  798W        W 1795   6.593   6.010   1.145
  799W        W 1796   3.303   7.064   4.739
  800W        W 1797   5.584   4.019   1.010
  801W        W 1798   7.551   2.447   6.509
  802W        W 1799   4.137   1.128   2.129
  803W        W 1800   3.710   2.616   7.064
  804W        W 1801   2.771   3.120   1.212
  805W        W 1802   7.193   3.845   6.617
  806W        W 1803   3.496   1.347   0.700
  807W        W 1804   5.959   1.680   4.854
  808W        W 1805   4.010   1.473   0.865
  809W        W 1806   3.907   1.399   6.185
  810W        W 1807   6.760   3.430   2.768
  811W        W 1808   2.220   5.611   5.922
  812W        W 1809   5.565   4.482   1.544
  813W        W 1810   0.017   2.878   5.815
  814W        W 1811   4.875   6.902   5.078
  815W        W 1812   2.782   0.548   7.621
  816W        W 1813   0.824   2.973   4.029
  817W        W 1814   4.797   7.291   3.383
  818W        W 1815   2.473   6.320   6.284
  819W        W 1816   5.711   6.140   6.348
  820W        W 1817   6.674   2.198   4.234
  821W        W 1818   1.742   2.104   3.805
  822W        W 1819   3.532   5.255   7.353
  823W        W 1820   6.076   2.859   0.746
  824W        W 1821   6.226   3.159   6.787
  825W        W 1822   4.746   7.648   6.686
  826W        W 1823   6.275   7.544   1.196
  827W        W 1824   1.311   2.704   1.901
  828W        W 1825   5.397   2.054   0.944
  829W        W 1826   6.285   2.643   0.354
  830W        W 1827   3.694   0.903   0.452
  831W        W 1828   1.893   0.839   0.304
  832W        W 1829   5.081   3.448   5.746
  833W        W 1830   7.262   3.375   4.721
  834W        W 1831   4.021   3.014   6.903
  835W        W 1832   1.218   0.494   3.184
  836W        W 1833   1.938   1.209   7.165
  837W        W 1834   2.027   1.006   3.859
  838W        W 1835   3.078   3.706   0.687
  839W        W 1836   5.653   2.313   7.951
  840W        W 1837   1.304   4.926   7.471
  841W        W 1838   4.825   4.081   6.240
  842W        W 1839   5.556   0.551   6.714
  843W        W 1840   6.728   3.740   2.280
  844W        W 1841   7.038   6.970   1.620
  845W        W 1842   4.001   1.172   5.234
  846W        W 1843   0.496   5.291   6.603
  847W        W 1844   3.944   7.955   0.814
  848W        W 1845   0.546   3.519   6.411
  849W        W 1846   0.703   1.015   5.857
  850W        W 1847   3.681   1.747   6.533
  851W        W 1848   5.293   4.796   6.354
  852W        W 1849   1.332   0.205   1.773
  853W        W 1850   5.819   7.572   7.811
  854W        W 1851   4.667   0.544   5.546
  855W        W 1852   5.235   5.420   5.229
  856W        W 1853   3.351   4.753   2.063
  857W        W 1854   5.804   2.667   1.240
  858W        W 1855   5.441   2.297   0.320
  859W        W 1856   4.362   1.525   5.319
  860W        W 1857   7.313   0.298   1.797
  861W        W 1858   6.472   4.314   2.496
  862W        W 1859   3.087   7.268   4.331
  863W        W 1860   2.723   7.498   7.370
  864W        W 1861   1.157   0.291   0.019
  865W        W 1862   0.068   3.400   6.557
  866W        W 1863   3.296   3.517   5.610
  867W        W 1864   5.860   4.474   0.835
  868W        W 1865   3.140   5.477   4.628
  869W        W 1866   4.391   2.575   3.360
  870W        W 1867   2.871   6.934   7.424
  871W        W 1868   0.478   0.095   5.483
  872W        W 1869   3.712   2.699   1.305
  873W        W 1870   4.092   2.239   3.547
  874W        W 1871   6.536   7.195   0.908
  875W        W 1872   5.036   3.241   1.043
  876W        W 1873   6.763   3.246   7.585
  877W        W 1874   7.846   6.979   6.494
  878W        W 1875   4.943   4.920   7.811
  879W        W 1876   4.566   3.157   5.852
  880W        W 1877   2.943   6.998   3.799
  881W        W 1878   6.608   1.653   0.232
  882W        W 1879   0.515   7.604   2.725
  883W        W 1880   2.104   3.453   2.841
  884W        W 1881   6.428   6.822   5.303
  885W        W 1882   5.360   4.774   6.942
  886W        W 1883   3.958   6.118   6.932
  887W        W 1884   4.563   5.871   1.652
  888W        W 1885   0.526   5.648   5.930
  889W        W 1886   6.709   2.108   2.927
  890W        W 1887   1.515   2.327   6.240
  891W        W 1888   4.465   5.572   7.382
  892W        W 1889   7.004   1.155   1.234
  893W        W 1890   0.388   3.811   5.758
  894W        W 1891   4.005   3.468   7.190
  895W        W 1892   6.670   0.107   7.514
  896W        W 1893   5.202   7.213   4.833
  897W        W 1894   0.297   4.506   5.010
  898W        W 1895   0.271   4.677   5.534
  899W        W 1896   4.296   4.753   2.859
  900W        W 1897   3.337   2.878   3.083
  901W        W 1898   6.898   1.536   4.724
  902W        W 1899   2.483   1.644   3.901
  903W        W 1900   5.851   5.987   3.251
  904W        W 1901   4.864   5.840   1.046
  905W        W 1902   6.844   3.175   3.995
  906W        W 1903   0.518   3.301   1.767
  907W        W 1904   6.644   6.410   3.846
  908W        W 1905   5.767   1.207   5.472
  909W        W 1906   7.590   5.210   7.218
  910W        W 1907   3.918   3.500   2.945
  911W        W 1908   6.334   2.871   1.214
  912W        W 1909   7.759   4.400   7.436
  913W        W 1910   7.012   3.763   1.423
  914W        W 1911   2.536   2.445   3.485
  915W        W 1912   2.839   4.805   5.160
  916W        W 1913   6.972   6.161   3.542
  917W        W 1914   0.454   3.077   0.898
  918W        W 1915   1.276   5.980   1.156
  919W        W 1916   3.757   0.708   5.103
  920W        W 1917   4.030   5.915   7.447
  921W        W 1918   5.179   7.568   1.086
  922W        W 1919   3.198   1.616   3.374
  923W        W 1920   6.514   6.061   2.216
  924W        W 1921   3.070   4.476   4.871
  925W        W 1922   0.221   2.667   1.105
  926W        W 1923   5.527   2.920   0.879
  927W        W 1924   7.000   1.626   3.893
  928W        W 1925   0.082   5.279   5.631
  929W        W 1926   6.018   0.832   1.040
  930W        W 1927   3.547   2.545   2.758
  931W        W 1928   1.077   0.354   4.798
  932W        W 1929   2.600   5.145   3.858
  933W        W 1930   5.689   2.920   2.350
  934W        W 1931   6.357   6.420   4.224
  935W        W 1932   2.504   2.739   0.926
  936W        W 1933   2.973   3.959   2.779
  937W        W 1934   7.246   1.188   5.668
  938W        W 1935   5.555   0.154   7.125
  939W        W 1936   0.784   5.443   0.582
  940W        W 1937   3.083   2.675   4.172
  941W        W 1938   4.158   4.184   3.586
  942W        W 1939   2.269   6.175   1.319
  943W        W 1940   0.625   5.859   1.817
  944W        W 1941   4.490   2.764   5.433
  945W        W 1942   6.730   3.597   1.028
  946W        W 1943   7.406   6.131   6.248
  947W        W 1944   7.332   7.423   1.373
  948W        W 1945   4.591   4.252   3.345
  949W        W 1946   4.236   3.011   7.500
  950W        W 1947   6.335   6.960   4.023
  951W        W 1948   3.501   0.218   0.224
  952W        W 1949   3.316   5.053   5.264
  953W        W 1950   2.056   1.011   2.319
  954W        W 1951   6.751   7.606   6.813
  955W        W 1952   3.062   5.826   2.898
  956W        W 1953   6.567   3.433   6.491
  957W        W 1954   4.902   7.280   1.376
  958W        W 1955   1.908   5.662   4.953
  959W        W 1956   4.303   6.390   2.982
  960W        W 1957   6.280   6.292   7.885
  961W        W 1958   0.941   6.014   0.318
  962W        W 1959   6.389   7.684   2.789
  963W        W 1960   0.843   4.714   3.298
  964W        W 1961   1.900   0.251   4.031
  965W        W 1962   5.444   2.473   2.541
  966W        W 1963   5.713   1.745   1.961
  967W        W 1964   2.799   3.654   3.432
  968W        W 1965   3.530   7.966   7.123
  969W        W 1966   6.268   4.709   2.901
  970W        W 1967   5.641   5.643   3.982
  971W        W 1968   7.776   5.874   7.021
  972W        W 1969   4.843   4.339   0.739
  973W        W 1970   6.335   5.614   1.370
  974W        W 1971   0.195   1.231   0.158
  975W        W 1972   0.354   7.844   6.757
  976W        W 1973   7.476   2.066   4.116
  977W        W 1974   3.928   6.100   6.005
  978W        W 1975   2.580   4.977   6.336
  979W        W 1976   4.949   4.583   3.597
  980W        W 1977   1.664   3.058   4.620
  981W        W 1978   6.564   2.752   0.738
  982W        W 1979   2.044   4.616   6.907
  983W        W 1980   4.830   4.724   1.087
  984W        W 1981   3.505   2.500   0.225
  985W        W 1982   5.833   5.746   1.482
  986W        W 1983   7.628   3.244   1.543
  987W        W 1984   5.518   2.090   3.465
  988W        W 1985   6.436   0.366   3.845
  989W        W 1986   7.726   2.999   7.922
  990W        W 1987   6.981   4.385   5.350
  991W        W 1988   1.697   7.012   2.333
  992W        W 1989   2.470   5.045   6.798
  993W        W 1990   2.699   4.150   4.825
  994W        W 1991   0.296   1.363   4.181
  995W        W 1992   0.897   3.350   1.464
  996W        W 1993   3.471   5.128   2.408
  997W        W 1994   3.724   1.509   3.200
  998W        W 1995   1.622   3.374   2.600
  999W        W 1996   4.354   7.543   3.313
 1000W        W 1997   7.034   5.787   3.834
 1001W        W 1998   3.507   3.142   5.294
 1002W        W 1999   5.145   6.054   6.881
 1003W        W 2000   3.004   0.352   0.136
 1004W        W 2001   5.241   3.473   4.395
 1005W        W 2002   4.364   0.457   7.512
 1006W        W 2003   0.452   4.205   7.641
 1007W        W 2004   1.032   4.046   6.922
 1008W        W 2005   4.476   0.410   1.428
 1009W        W 2006   2.368   6.709   7.733
 1010W        W 2007   5.465   5.845   0.242
 1011W        W 2008   3.378   4.676   0.238
 1012W        W 2009   3.341   5.214   1.690
 1013W        W 2010   5.398   2.125   6.481
 1014W        W 2011   1.465   6.290   7.881
 1015W        W 2012   2.826   6.337   7.059
 1016W        W 2013   4.891   6.400   5.183
 1017W        W 2014   0.909   2.548   5.958
 1018W        W 2015   0.775   7.207   6.385
 1019W        W 2016   1.403   1.589   1.921
 1020W        W 2017   1.342   1.666   2.598
 1021W        W 2018   2.191   2.901   7.545
 1022W        W 2019   6.060   1.427   2.206
 1023W        W 2020   2.874   4.892   1.459
 1024W        W 2021   1.834   0.195   2.522
 1025W        W 2022   6.239   7.300   5.351
 1026W        W 2023   4.969   4.629   2.548
 1027W        W 2024   0.777   3.832   3.508
 1028W        W 2025   5.149   6.670   6.909
 1029W        W 2026   7.465   2.577   3.265
 1030W        W 2027   6.087   1.336   3.709
 1031W        W 2028   1.638   2.544   6.727
 1032W        W 2029   0.385   4.034   4.797
 1033W        W 2030   6.067   3.769   3.175
 1034W        W 2031   0.482   1.379   5.674
 1035W        W 2032   3.665   3.092   5.783
 1036W        W 2033   5.309   6.489   1.442
 1037W        W 2034   0.524   3.550   3.870
 1038W        W 2035   0.786   3.743   2.892
 1039W        W 2036   4.999   6.683   5.574
 1040W        W 2037   1.681   4.256   4.748
 1041W        W 2038   0.938   1.418   6.009
 1042W        W 2039   5.440   4.797   3.544
 1043W        W 2040   4.939   7.991   5.248
 1044W        W 2041   1.130   4.601   0.022
 1045W        W 2042   4.667   0.450   5.005
 1046W        W 2043   0.559   1.736   5.308
 1047W        W 2044   6.608   3.807   1.743
 1048W        W 2045   3.360   2.001   4.042
 1049W        W 2046   1.248   6.889   3.215
 1050W        W 2047   7.818   0.030   0.051
 1051W        W 2048   1.154   2.878   1.361
 1052W        W 2049   1.303   5.078   1.776
 1053W        W 2050   0.217   5.175   1.127
 1054W        W 2051   3.241   7.779   2.356
 1055W        W 2052   6.462   0.782   4.379
 1056W        W 2053   5.998   1.762   4.130
 1057W        W 2054   1.353   3.223   6.577
 1058W        W 2055   2.632   3.609   0.299
 1059W        W 2056   6.247   1.885   2.814
 1060W        W 2057   0.016   0.103   4.674
 1061W        W 2058   0.791   3.735   5.499
 1062W        W 2059   1.278   1.701   4.585
 1063W        W 2060   6.061   1.630   1.049
 1064W        W 2061   4.359   1.204   1.277
 1065W        W 2062   7.505   0.577   6.032
 1066W        W 2063   7.471   0.804   3.433
 1067W        W 2064   0.007   7.473   7.485
 1068W        W 2065   0.304   6.595   0.094
 1069W        W 2066   6.980   3.724   5.751
 1070W        W 2067   0.667   1.209   3.347
 1071W        W 2068   6.712   4.690   7.639
 1072W        W 2069   3.084   1.142   1.986
 1073W        W 2070   5.634   6.317   5.254
 1074W        W 2071   0.985   5.964   3.333
 1075W        W 2072   6.265   4.431   5.015
 1076W        W 2073   6.228   7.698   3.540
 1077W        W 2074   2.476   0.913   7.524
 1078W        W 2075   6.121   3.427   7.186
 1079W        W 2076   4.966   3.303   3.037
 1080W        W 2077   7.640   7.552   7.172
 1081W        W 2078   2.261   0.455   0.278
 1082W        W 2079   0.618   6.358   1.648
 1083W        W 2080   5.950   2.835   4.406
 1084W        W 2081   3.496   0.941   7.629
 1085W        W 2082   3.541   0.154   2.723
 1086W        W 2083   3.276   2.798   1.962
 1087W        W 2084   6.605   4.633   3.981
 1088W        W 2085   2.097   5.571   7.236
 1089W        W 2086   3.938   4.747   0.571
 1090W        W 2087   0.629   1.559   1.554
 1091W        W 2088   5.639   1.258   2.512
 1092W        W 2089   6.580   2.519   7.484
 1093W        W 2090   3.073   6.453   2.278
 1094W        W 2091   4.136   5.789   0.177
 1095W        W 2092   6.582   2.142   0.206
 1096W        W 2093   7.066   7.436   4.566
 1097W        W 2094   4.897   3.388   6.199
 1098W        W 2095   3.152   1.405   6.034
 1099W        W 2096   7.787   1.222   1.973
 1100W        W 2097   6.495   5.484   0.012
 1101W        W 2098   2.719   3.061   6.067
 1102W        W 2099   0.311   2.970   6.510
 1103W        W 2100   3.989   1.950   5.393
 1104W        W 2101   4.207   2.560   7.067
 1105W        W 2102   3.163   6.994   1.347
 1106W        W 2103   3.157   2.765   4.711
 1107W        W 2104   7.860   4.910   5.399
 1108W        W 2105   7.415   4.168   0.704
 1109W        W 2106   6.256   1.267   4.194
 1110W        W 2107   3.739   5.514   1.710
 1111W        W 2108   3.727   2.511   2.244
 1112W        W 2109   2.640   2.948   4.716
 1113W        W 2110   3.330   4.647   6.497
 1114W        W 2111   2.232   2.089   3.938
 1115W        W 2112   5.287   2.289   7.423
 1116W        W 2113   7.015   5.663   5.231
 1117W        W 2114   3.494   5.968   3.092
 1118W        W 2115   5.105   5.474   6.177
 1119W        W 2116   7.078   6.166   5.351
 1120W        W 2117   6.122   1.669   0.272
 1121W        W 2118   0.562   6.696   4.224
 1122W        W 2119   7.264   2.924   4.477
 1123W        W 2120   4.618   4.853   5.774
 1124W        W 2121   5.446   0.715   3.238
 1125W        W 2122   3.494   1.117   5.266
 1126W        W 2123   6.668   2.283   5.422
 1127W        W 2124   3.832   3.164   3.826
 1128W        W 2125   5.900   4.294   2.348
 1129W        W 2126   0.744   0.647   3.507
 1130W        W 2127   1.061   2.166   6.440
 1131W        W 2128   3.500   4.993   3.530
 1132W        W 2129   1.456   6.088   6.783
 1133W        W 2130   0.721   5.777   4.064
 1134W        W 2131   2.224   4.029   1.619
 1135W        W 2132   4.486   1.512   3.592
 1136W        W 2133   6.821   2.684   4.519
 1137W        W 2134   7.591   1.988   3.057
 1138W        W 2135   0.176   4.104   4.233
 1139W        W 2136   4.662   3.662   5.389
 1140W        W 2137   3.102   2.998   5.602
 1141W        W 2138   2.564   0.491   4.434
 1142W        W 2139   6.150   4.255   5.563
 1143W        W 2140   2.932   6.778   4.683
 1144W        W 2141   0.834   4.074   5.082
 1145W        W 2142   0.487   1.568   6.136
 1146W        W 2143   1.649   2.257   0.717
 1147W        W 2144   3.816   3.033   2.810
 1148W        W 2145   7.100   3.206   5.790
 1149W        W 2146   7.677   5.164   1.867
 1150W        W 2147   0.980   6.467   3.292
 1151W        W 2148   3.674   6.573   5.610
 1152W        W 2149   6.041   4.914   7.650
 1153W        W 2150   1.498   1.382   4.905
 1154W        W 2151   4.399   2.224   1.137
 1155W        W 2152   1.079   0.800   4.328
 1156W        W 2153   6.991   5.747   0.853
 1157W        W 2154   3.953   0.469   0.623
 1158W        W 2155   7.739   5.277   1.321
 1159W        W 2156   5.560   2.026   4.787
 1160W        W 2157   5.736   6.995   6.161
 1161W        W 2158   0.921   6.228   2.177
 1162W        W 2159   1.817   7.156   7.400
 1163W        W 2160   1.042   6.311   7.583
 1164W        W 2161   1.148   4.542   6.912
 1165W        W 2162   6.086   5.191   1.483
 1166W        W 2163   4.388   0.124   0.498
 1167W        W 2164   6.891   5.013   7.314
 1168W        W 2165   6.918   4.515   6.020
 1169W        W 2166   6.321   3.066   5.216
 1170W        W 2167   2.993   6.432   0.665
 1171W        W 2168   5.777   5.716   7.713
 1172W        W 2169   1.153   2.669   0.473
 1173W        W 2170   6.464   2.630   6.372
 1174W        W 2171   2.532   6.671   0.820
 1175W        W 2172   4.139   7.036   1.675
 1176W        W 2173   3.777   5.041   3.983
 1177W        W 2174   6.230   5.550   1.949
 1178W        W 2175   2.492   6.273   2.169
 1179W        W 2176   2.663   7.517   0.802
 1180W        W 2177   6.420   2.814   4.139
 1181W        W 2178   2.111   3.553   1.486
 1182W        W 2179   0.056   0.427   2.832
 1183W        W 2180   1.117   7.647   6.069
 1184W        W 2181   6.219   5.873   6.812
 1185W        W 2182   2.025   3.961   7.673
 1186W        W 2183   2.661   4.839   5.864
 1187W        W 2184   4.343   4.692   5.384
 1188W        W 2185   1.347   6.122   2.686
 1189W        W 2186   2.514   3.844   0.708
 1190W        W 2187   6.884   0.578   7.417
 1191W        W 2188   2.943   0.783   2.344
 1192W        W 2189   4.079   6.023   4.351
 1193W        W 2190   4.425   1.954   7.083
 1194W        W 2191   3.688   2.512   3.309
 1195W        W 2192   0.232   6.549   0.771
 1196W        W 2193   0.591   5.175   3.517
 1197W        W 2194   4.496   2.126   2.183
 1198W        W 2195   5.587   2.360   1.548
 1199W        W 2196   3.412   2.518   6.484
 1200W        W 2197   1.800   6.958   4.553
 1201W        W 2198   6.351   1.034   2.079
 1202W        W 2199   0.347   5.778   5.098
 1203W        W 2200   4.602   2.448   0.681
 1204W        W 2201   0.176   3.893   3.716
 1205W        W 2202   2.342   0.988   4.635
 1206W        W 2203   6.373   3.359   3.339
 1207W        W 2204   4.649   1.885   4.478
 1208W        W 2205   6.861   1.993   2.479
 1209W        W 2206   3.810   5.574   0.861
 1210W        W 2207   5.481   0.448   7.577
 1211W        W 2208   4.876   1.732   6.991
 1212W        W 2209   0.850   0.708   2.890
 1213W        W 2210   0.172   5.419   6.260
 1214W        W 2211   1.607   3.627   7.575
 1215W        W 2212   4.993   6.619   1.777
 1216W        W 2213   0.447   3.259   0.140
 1217W        W 2214   6.302   6.449   0.468
 1218W        W 2215   2.023   4.775   4.566
 1219W        W 2216   5.914   2.344   3.234
 1220W        W 2217   1.936   7.458   1.801
 1221W        W 2218   2.191   5.884   0.891
 1222W        W 2219   2.946   3.010   7.081
 1223W        W 2220   0.403   0.677   2.529
 1224W        W 2221   3.607   4.399   5.713
 1225W        W 2222   6.651   4.122   5.875
 1226W        W 2223   3.650   1.181   5.817
 1227W        W 2224   6.839   0.103   0.252
 1228W        W 2225   3.229   2.330   2.286
 1229W        W 2226   6.057   2.553   2.331
 1230W        W 2227   6.922   4.117   1.982
 1231W        W 2228   6.060   5.321   2.393
 1232W        W 2229   3.362   7.821   7.687
 1233W        W 2230   3.696   3.430   6.748
 1234W        W 2231   6.034   3.740   0.950
 1235W        W 2232   3.728   0.913   6.345
 1236W        W 2233   3.315   4.899   2.817
 1237W        W 2234   5.217   4.981   5.881
 1238W        W 2235   5.230   5.305   1.880
 1239W        W 2236   3.032   1.755   2.519
 1240W        W 2237   4.184   5.626   5.296
 1241W        W 2238   2.294   6.490   1.731
 1242W        W 2239   5.000   2.260   2.551
 1243W        W 2240   5.754   4.647   7.351
 1244W        W 2241   4.997   6.915   4.465
 1245W        W 2242   3.596   2.501   0.732
 1246W        W 2243   0.936   4.322   6.089
 1247W        W 2244   4.062   5.318   4.870
 1248W        W 2245   2.040   0.260   5.024
 1249W        W 2246   3.889   6.723   7.542
 1250W        W 2247   0.862   6.538   0.251
 1251W        W 2248   5.894   7.172   3.957
 1252W        W 2249   3.539   4.136   4.956
 1253W        W 2250   1.384   3.156   1.782
 1254W        W 2251   3.578   1.992   7.916
 1255W        W 2252   0.325   0.641   1.620
 1256W        W 2253   4.457   7.728   5.363
 1257W        W 2254   1.853   7.749   2.223
 1258W        W 2255   5.461   4.541   2.447
 1259W        W 2256   3.356   7.307   0.143
 1260W        W 2257   5.951   7.552   2.617
 1261W        W 2258   7.025   4.993   6.147
 1262W        W 2259   2.686   1.844   5.857
 1263W        W 2260   1.355   0.207   2.311
 1264W        W 2261   4.635   5.394   4.002
 1265W        W 2262   6.591   2.008   1.994
 1266W        W 2263   6.482   3.851   2.716
 1267W        W 2264   5.027   1.383   6.502
 1268W        W 2265   3.985   7.425   0.898
 1269W        W 2266   0.061   1.487   5.192
 1270W        W 2267   4.114   0.242   2.343
 1271W        W 2268   4.686   0.030   7.445
 1272W        W 2269   2.811   2.637   5.717
 1273W        W 2270   3.173   1.837   7.517
 1274W        W 2271   0.429   5.027   5.229
 1275W        W 2272   1.914   4.956   0.181
 1276W        W 2273   5.814   0.605   7.206
 1277W        W 2274   2.414   3.338   3.550
 1278W        W 2275   5.515   3.154   0.293
 1279W        W 2276   7.072   0.464   5.924
 1280W        W 2277   7.451   4.429   0.239
 1281W        W 2278   5.108   5.571   3.873
 1282W        W 2279   6.119   4.913   3.718
 1283W        W 2280   7.708   1.714   7.231
 1284W        W 2281   7.738   1.006   6.227
 1285W        W 2282   4.952   5.119   0.358
 1286W        W 2283   3.943   0.452   6.544
 1287W        W 2284   1.266   3.859   5.422
 1288W        W 2285   4.074   1.852   1.220
 1289W        W 2286   2.767   6.856   2.116
 1290W        W 2287   2.694   1.833   6.786
 1291W        W 2288   1.433   6.839   5.911
 1292W        W 2289   0.937   6.741   7.292
 1293W        W 2290   4.633   1.684   6.480
 1294W        W 2291   3.132   5.419   7.093
 1295W        W 2292   5.669   0.753   6.255
 1296W        W 2293   2.224   1.472   2.370
 1297W        W 2294   3.789   6.089   2.538
 1298W        W 2295   2.176   6.495   3.556
 1299W        W 2296   4.946   7.098   3.972
 1300W        W 2297   0.188   7.660   5.751
 1301W        W 2298   6.312   6.895   0.582
 1302W        W 2299   6.740   4.741   2.733
 1303W        W 2300   2.082   3.323   4.749
 1304W        W 2301   5.952   6.594   1.539
 1305W        W 2302   1.833   4.741   7.357
 1306W        W 2303   3.296   2.774   7.354
 1307W        W 2304   6.362   5.429   3.533
 1308W        W 2305   2.922   5.931   5.199
 1309W        W 2306   1.617   6.714   2.744
 1310W        W 2307   5.128   4.140   2.311
 1311W        W 2308   4.899   1.989   5.242
 1312W        W 2309   6.758   2.202   4.719
 1313W        W 2310   5.590   6.386   6.761
 1314W        W 2311   1.693   7.448   6.320
 1315W        W 2312   0.718   1.108   1.178
 1316W        W 2313   5.579   3.161   7.796
 1317W        W 2314   4.543   5.476   0.451
 1318W        W 2315   1.112   3.647   0.840
 1319W        W 2316   6.331   0.780   2.972
 1320W        W 2317   4.908   4.412   5.364
 1321W        W 2318   7.290   1.129   3.799
 1322W        W 2319   3.714   2.040   1.465
 1323W        W 2320   7.237   5.494   2.855
 1324W        W 2321   1.778   6.030   1.271
 1325W        W 2322   7.591   2.620   1.561
 1326W        W 2323   5.633   5.043   6.633
 1327W        W 2324   7.688   3.141   4.289
 1328W        W 2325   3.902   6.224   5.291
 1329W        W 2326   7.548   7.130   7.445
 1330W        W 2327   4.078   6.811   1.228
 1331W        W 2328   7.313   4.817   7.484
 1332W        W 2329   7.388   6.661   7.393
 1333W        W 2330   0.066   4.405   4.621
 1334W        W 2331   0.529   5.970   3.629
 1335W        W 2332   1.082   5.121   3.580
 1336W        W 2333   6.769   6.635   7.704
 1337W        W 2334   0.164   6.131   6.648
 1338W        W 2335   1.351   0.689   0.338
 1339W        W 2336   0.785   4.239   2.560
 1340W        W 2337   5.822   4.122   0.417
 1341W        W 2338   3.554   3.598   7.563
 1342W        W 2339   0.559   3.992   6.820
 1343W        W 2340   1.324   3.160   2.276
 1344W        W 2341   1.894   1.102   7.970
 1345W        W 2342   2.800   4.596   3.966
 1346W        W 2343   4.534   1.931   3.184
 1347W        W 2344   5.336   6.642   0.219
 1348W        W 2345   2.358   2.337   7.234
 1349W        W 2346   1.932   6.657   7.394
 1350W        W 2347   5.947   3.208   1.205
 1351W        W 2348   3.313   3.006   6.108
 1352W        W 2349   7.018   4.293   7.774
 1353W        W 2350   5.677   0.823   1.485
 1354W        W 2351   0.181   0.313   7.472
 1355W        W 2352   4.061   5.772   6.440
 1356W        W 2353   4.046   2.412   5.076
 1357W        W 2354   7.788   3.530   1.096
 1358W        W 2355   0.514   7.411   3.602
 1359W        W 2356   1.272   7.091   6.285
 1360W        W 2357   6.063   2.971   2.700
 1361W        W 2358   6.957   3.770   7.577
 1362W        W 2359   3.530   0.381   6.928
 1363W        W 2360   7.183   0.281   0.651
 1364W        W 2361   7.941   6.739   7.309
 1365W        W 2362   5.642   1.206   5.954
 1366W        W 2363   3.708   0.045   6.418
 1367W        W 2364   0.590   4.329   2.097
 1368W        W 2365   4.089   2.308   3.037
 1369W        W 2366   3.429   0.065   4.510
 1370W        W 2367   6.949   0.172   3.822
 1371W        W 2368   1.038   3.576   7.433
 1372W        W 2369   2.652   5.645   1.216
 1373W        W 2370   6.126   6.337   3.747
 1374W        W 2371   6.615   3.402   5.975
 1375W        W 2372   2.175   1.295   1.874
 1376W        W 2373   1.999   3.934   4.185
 1377W        W 2374   0.093   1.727   6.402
 1378W        W 2375   3.957   7.669   5.072
 1379W        W 2376   6.848   5.103   3.094
 1380W        W 2377   5.235   1.803   2.756
 1381W        W 2378   1.685   1.293   0.421
 1382W        W 2379   3.094   5.313   2.624
 1383W        W 2380   7.130   4.711   6.527
 1384W        W 2381   5.257   2.207   6.949
 1385W        W 2382   0.545   6.512   7.548
 1386W        W 2383   1.963   6.059   5.524
 1387W        W 2384   0.439   1.282   2.433
 1388W        W 2385   0.256   3.930   1.979
 1389W        W 2386   0.659   7.191   4.113
 1390W        W 2387   0.855   0.673   0.025
 1391W        W 2388   5.578   0.261   5.410
 1392W        W 2389   2.568   4.130   3.144
 1393W        W 2390   6.233   7.846   2.339
 1394W        W 2391   3.342   0.838   6.064
 1395W        W 2392   5.847   3.300   0.705
 1396W        W 2393   1.049   2.854   5.481
 1397W        W 2394   3.349   0.740   2.617
 1398W        W 2395   3.414   0.026   3.754
 1399W        W 2396   5.279   3.992   3.233
 1400W        W 2397   1.204   1.112   5.672
 1401W        W 2398   5.867   1.910   6.439
 1402W        W 2399   6.972   4.184   3.358
 1403W        W 2400   1.757   5.758   2.386
 1404W        W 2401   4.545   0.159   7.952
 1405W        W 2402   2.785   0.380   0.604
 1406W        W 2403   7.453   7.326   6.059
 1407W        W 2404   7.622   7.395   6.668
 1408W        W 2405   5.881   6.534   6.110
 1409W        W 2406   4.576   5.573   6.286
 1410W        W 2407   4.989   5.452   0.756
 1411W        W 2408   4.415   1.467   7.041
 1412W        W 2409   7.622   2.966   7.407
 1413W        W 2410   0.696   0.010   4.939
 1414W        W 2411   5.107   6.191   5.599
 1415W        W 2412   2.370   4.307   4.069
 1416W        W 2413   5.764   6.814   0.460
 1417W        W 2414   0.607   5.107   5.786
 1418W        W 2415   4.776   6.357   6.772
 1419W        W 2416   5.685   5.510   5.672
 1420W        W 2417   6.651   7.169   3.600
 1421W        W 2418   7.032   1.800   7.258
 1422W        W 2419   7.466   0.457   7.432
 1423W        W 2420   1.287   5.443   7.476
 1424W        W 2421   5.107   0.975   1.586
 1425W        W 2422   2.976   2.602   0.038
 1426W        W 2423   6.839   7.828   2.078
 1427W        W 2424   5.096   0.342   3.456
 1428W        W 2425   7.414   3.625   6.082
 1429W        W 2426   7.444   6.258   6.994
 1430W        W 2427   1.698   6.040   0.745
 1431W        W 2428   4.291   7.260   5.202
 1432W        W 2429   1.832   1.599   6.802
 1433W        W 2430   1.571   0.159   3.661
 1434W        W 2431   2.094   1.166   2.820
 1435W        W 2432   4.369   0.714   2.394
 1436W        W 2433   1.978   2.923   3.614
 1437W        W 2434   4.646   5.944   7.121
 1438W        W 2435   2.184   7.558   7.565
 1439W        W 2436   7.515   7.059   1.667
 1440W        W 2437   5.632   6.273   0.555
 1441W        W 2438   7.772   5.007   2.868
 1442W        W 2439   0.832   7.449   1.820
 1443W        W 2440   6.322   5.740   3.160
 1444W        W 2441   2.543   3.552   1.080
 1445W        W 2442   1.489   3.457   3.598
 1446W        W 2443   7.830   0.337   1.667
 1447W        W 2444   7.209   1.608   1.007
 1448W        W 2445   7.684   3.770   1.542
 1449W        W 2446   1.791   1.401   2.178
 1450W        W 2447   3.777   5.363   5.362
 1451W        W 2448   0.808   4.842   0.512
 1452W        W 2449   0.557   0.767   0.837
 1453W        W 2450   2.719   4.465   6.255
 1454W        W 2451   3.286   1.367   7.418
 1455W        W 2452   6.292   1.655   3.345
 1456W        W 2453   6.108   0.476   2.685
 1457W        W 2454   5.061   3.422   7.793
 1458W        W 2455   5.746   0.169   2.180
 1459W        W 2456   0.618   1.067   6.389
 1460W        W 2457   6.417   4.384   7.015
 1461W        W 2458   3.487   2.871   3.580
 1462W        W 2459   3.098   0.309   1.107
 1463W        W 2460   5.510   5.288   6.214
 1464W        W 2461   0.645   6.649   2.890
 1465W        W 2462   0.532   6.204   3.129
 1466W        W 2463   2.766   0.317   2.755
 1467W        W 2464   3.502   4.934   4.472
 1468W        W 2465   3.017   4.769   2.442
 1469W        W 2466   6.702   1.587   1.012
 1470W        W 2467   7.654   7.606   4.340
 1471W        W 2468   4.595   0.268   3.168
 1472W        W 2469   6.307   0.071   1.782
 1473W        W 2470   2.529   5.449   6.412
 1474W        W 2471   3.428   5.126   6.378
 1475W        W 2472   7.373   3.802   3.851
 1476W        W 2473   3.151   2.240   0.425
 1477W        W 2474   7.254   2.918   6.584
 1478W        W 2475   2.553   1.263   1.173
 1479W        W 2476   0.615   4.878   2.424
 1480W        W 2477   0.527   1.313   7.570
 1481W        W 2478   7.116   5.438   7.039
 1482W        W 2479   7.485   2.874   6.173
 1483W        W 2480   7.608   5.585   6.318
 1484W        W 2481   3.436   4.257   2.072
 1485W        W 2482   7.335   1.510   1.843
 1486W        W 2483   0.624   7.690   4.069
 1487W        W 2484   3.407   4.553   0.697
 1488W        W 2485   1.650   1.108   1.739
 1489W        W 2486   4.816   2.432   7.080
 1490W        W 2487   0.464   4.182   5.391
 1491W        W 2488   5.085   2.746   4.577
 1492W        W 2489   0.710   6.439   5.324
 1493W        W 2490   1.578   0.561   1.513
 1494W        W 2491   0.163   4.900   4.767
 1495W        W 2492   1.390   3.206   7.456
 1496W        W 2493   5.150   3.670   7.039
 1497W        W 2494   5.962   7.482   3.126
 1498W        W 2495   1.789   5.157   2.912
 1499W        W 2496   7.661   4.491   5.009
 1500W        W 2497   2.531   1.020   2.076
 1501W        W 2498   3.016   3.384   3.020
 1502W        W 2499   5.513   6.056   4.835
 1503W        W 2500   5.463   1.985   5.925
 1504W        W 2501   0.329   1.328   6.700
 1505W        W 2502   1.992   2.594   6.242
 1506W        W 2503   5.435   6.421   5.905
 1507W        W 2504   6.318   4.527   1.141
 1508W        W 2505   2.795   3.487   5.861
 1509W        W 2506   5.537   4.004   1.517
 1510W        W 2507   6.639   4.827   0.731
 1511W        W 2508   1.989   5.266   3.367
 1512W        W 2509   4.133   0.137   6.210
 1513W        W 2510   1.441   0.409   2.745
 1514W        W 2511   6.397   3.710   5.643
 1515W        W 2512   7.056   0.768   6.982
 1516W        W 2513   5.358   4.297   3.635
 1517W        W 2514   0.576   4.406   7.164
 1518W        W 2515   2.660   5.098   7.919
 1519W        W 2516   4.438   5.155   5.178
 1520W        W 2517   2.671   1.960   6.346
 1521W        W 2518   1.765   6.611   2.013
 1522W        W 2519   2.391   3.822   4.472
 1523W        W 2520   0.692   1.024   3.893
 1524W        W 2521   7.767   7.646   2.235
 1525W        W 2522   4.076   4.360   3.129
 1526W        W 2523   3.205   0.791   3.265
 1527W        W 2524   5.526   5.410   6.960
 1528W        W 2525   1.990   2.427   0.388
 1529W        W 2526   0.980   5.608   5.702
 1530W        W 2527   5.858   2.253   5.700
 1531W        W 2528   0.274   4.709   0.782
 1532W        W 2529   2.491   4.948   4.695
 1533W        W 2530   2.467   0.548   1.911
 1534W        W 2531   2.000   6.580   3.082
 1535W        W 2532   1.486   6.327   1.615
 1536W        W 2533   2.016   0.649   2.763
 1537W        W 2534   2.458   2.247   5.464
 1538W        W 2535   2.046   1.167   1.366
 1539W        W 2536   2.769   2.332   3.953
 1540W        W 2537   2.647   5.507   6.980
 1541W        W 2538   2.657   2.848   4.251
 1542W        W 2539   7.808   6.537   3.566
 1543W        W 2540   3.516   7.607   4.272
 1544W        W 2541   0.483   0.297   6.555
 1545W        W 2542   1.912   1.926   2.155
 1546W        W 2543   3.943   1.522   7.879
 1547W        W 2544   4.429   4.711   7.357
 1548W        W 2545   1.396   6.712   7.553
 1549W        W 2546   4.099   3.364   5.994
 1550W        W 2547   7.494   1.191   0.984
 1551W        W 2548   3.853   4.818   0.070
 1552W        W 2549   5.033   5.651   0.213
 1553W        W 2550   5.166   3.297   2.554
 1554W        W 2551   6.900   2.318   0.600
 1555W        W 2552   0.302   0.807   6.721
 1556W        W 2553   5.798   2.784   3.902
 1557W        W 2554   7.073   4.583   3.715
 1558W        W 2555   7.179   3.464   7.307
 1559W        W 2556   1.249   4.190   0.839
 1560W        W 2557   4.097   2.644   2.627
 1561W        W 2558   4.638   6.353   5.644
 1562W        W 2559   3.580   3.200   1.064
 1563W        W 2560   2.526   3.282   7.359
 1564W        W 2561   3.843   0.785   5.595
 1565W        W 2562   1.962   0.517   3.593
 1566W        W 2563   7.330   6.644   5.037
 1567W        W 2564   2.521   4.185   0.344
 1568W        W 2565   3.114   6.868   0.871
 1569W        W 2566   1.413   2.944   7.000
 1570W        W 2567   5.574   2.616   4.746
 1571W        W 2568   3.474   0.799   4.361
 1572W        W 2569   2.069   7.374   4.854
 1573W        W 2570   0.448   0.638   6.210
 1574W        W 2571   1.566   1.004   6.819
 1575W        W 2572   2.584   5.970   4.201
 1576W        W 2573   0.985   4.245   5.589
 1577W        W 2574   7.237   3.157   3.177
 1578W        W 2575   1.110   1.259   3.675
 1579W        W 2576   5.874   0.817   3.559
 1580W        W 2577   6.299   6.001   5.856
 1581W        W 2578   1.074   0.291   3.689
 1582W        W 2579   6.143   0.541   2.088
 1583W        W 2580   5.531   6.685   1.928
 1584W        W 2581   2.042   2.409   3.534
 1585W        W 2582   4.395   2.448   3.909
 1586W        W 2583   0.638   0.525   7.210
 1587W        W 2584   5.473   6.391   4.374
 1588W        W 2585   6.034   5.371   2.947
 1589W        W 2586   7.386   3.899   0.274
 1590W        W 2587   3.674   5.952   4.055
 1591W        W 2588   1.230   7.334   0.843
 1592W        W 2589   1.219   1.645   0.593
 1593W        W 2590   2.223   1.625   6.504
 1594W        W 2591   6.641   4.362   0.719
 1595W        W 2592   3.288   3.889   5.962
 1596W        W 2593   7.706   2.435   2.812
 1597W        W 2594   0.890   2.120   4.923
 1598W        W 2595   2.443   6.161   5.267
 1599W        W 2596   3.406   2.905   0.505
 1600W        W 2597   7.425   4.879   2.271
 1601W        W 2598   5.567   7.750   2.973
 1602W        W 2599   4.133   5.179   7.571
 1603W        W 2600   2.783   3.019   2.816
 1604W        W 2601   1.930   7.493   5.355
 1605W        W 2602   1.720   5.963   4.000
 1606W        W 2603   6.384   7.461   3.976
 1607W        W 2604   0.612   2.337   0.724
 1608W        W 2605   4.255   5.130   6.119
 1609W        W 2606   6.893   2.676   4.015
 1610W        W 2607   7.152   4.350   2.928
 1611W        W 2608   7.917   1.335   0.567
 1612W        W 2609   2.199   1.995   6.868
 1613W        W 2610   0.589   3.749   2.325
 1614W        W 2611   5.467   4.137   5.269
 1615W        W 2612   7.769   0.007   0.609
 1616W        W 2613   3.719   0.018   3.235
 1617W        W 2614   5.418   6.375   7.265
 1618W        W 2615   4.813   4.765   3.028
 1619W        W 2616   2.061   6.437   0.850
 1620W        W 2617   2.863   5.175   5.543
 1621W        W 2618   0.153   2.682   0.156
 1622W        W 2619   6.124   0.950   6.361
 1623W        W 2620   7.318   7.049   6.474
 1624W        W 2621   0.326   0.362   5.032
 1625W        W 2622   4.045   6.518   2.556
 1626W        W 2623   3.916   2.169   2.571
 1627W        W 2624   0.726   0.133   1.450
 1628W        W 2625   4.917   4.577   6.107
 1629W        W 2626   4.726   6.268   3.282
 1630W        W 2627   2.015   3.447   4.292
 1631W        W 2628   0.942   0.045   7.397
 1632W        W 2629   1.862   7.796   7.231
 1633W        W 2630   4.214   6.426   0.818
 1634W        W 2631   0.938   2.908   6.753
 1635W        W 2632   3.070   3.944   5.142
 1636W        W 2633   6.610   2.008   7.665
 1637W        W 2634   5.943   7.490   2.121
 1638W        W 2635   3.714   6.869   0.295
 1639W        W 2636   2.308   3.787   7.320
 1640W        W 2637   4.616   1.846   1.382
 1641W        W 2638   2.951   1.450   3.834
 1642W        W 2639   1.573   0.384   4.582
 1643W        W 2640   1.293   4.122   1.702
 1644W        W 2641   1.215   3.061   5.914
 1645W        W 2642   1.364   0.711   1.909
 1646W        W 2643   0.721   5.963   5.409
 1647W        W 2644   0.454   0.381   2.065
 1648W        W 2645   2.170   4.913   3.719
 1649W        W 2646   6.632   3.002   3.596
 1650W        W 2647   5.205   3.388   0.588
 1651W        W 2648   4.047   6.348   3.892
 1652W        W 2649   4.296   3.258   4.496
 1653W        W 2650   5.036   3.868   1.023
 1654W        W 2651   3.318   1.371   1.550
 1655W        W 2652   2.112   6.221   4.236
 1656W        W 2653   3.852   3.025   1.763
 1657W        W 2654   6.383   1.554   7.511
 1658W        W 2655   3.671   7.465   4.715
 1659W        W 2656   4.883   4.704   7.157
 1660W        W 2657   6.255   2.020   4.540
 1661W        W 2658   0.548   2.462   1.569
 1662W        W 2659   4.487   5.047   1.235
 1663W        W 2660   2.172   6.763   0.433
 1664W        W 2661   2.230   5.879   0.403
 1665W        W 2662   1.522   4.102   4.276
 1666W        W 2663   0.988   3.514   5.086
 1667W        W 2664   6.735   0.824   0.649
 1668W        W 2665   0.621   6.282   2.585
 1669W        W 2666   4.929   5.654   6.654
 1670W        W 2667   0.290   6.139   6.042
 1671W        W 2668   7.285   7.605   3.871
 1672W        W 2669   3.982   4.589   2.126
 1673W        W 2670   5.631   0.344   2.737
 1674W        W 2671   5.927   2.244   2.715
 1675W        W 2672   5.787   1.949   5.289
 1676W        W 2673   3.972   0.976   2.861
 1677W        W 2674   7.447   6.249   5.807
 1678W        W 2675   2.034   0.786   1.824
 1679W        W 2676   7.803   0.754   4.114
 1680W        W 2677   4.717   4.169   0.270
 1681W        W 2678   0.612   7.069   7.615
 1682W        W 2679   2.352   5.459   0.670
 1683W        W 2680   1.368   7.756   1.100
 1684W        W 2681   1.355   7.960   7.427
 1685W        W 2682   5.969   2.937   7.246
 1686W        W 2683   3.856   3.053   6.327
 1687W        W 2684   2.370   6.774   1.299
 1688W        W 2685   7.390   6.099   1.076
 1689W        W 2686   3.657   1.297   6.978
 1690W        W 2687   4.447   4.458   4.385
 1691W        W 2688   3.032   2.300   0.911
 1692W        W 2689   3.076   6.488   3.479
 1693W        W 2690   3.312   3.741   7.089
 1694W        W 2691   4.656   6.791   7.052
 1695W        W 2692   3.806   6.906   2.221
 1696W        W 2693   1.634   1.361   7.526
 1697W        W 2694   6.781   5.229   7.787
 1698W        W 2695   0.824   4.641   7.502
 1699W        W 2696   3.539   2.936   6.742
 1700W        W 2697   0.574   4.829   6.865
 1701W        W 2698   0.809   6.249   6.416
 1702W        W 2699   2.334   4.612   3.045
 1703W        W 2700   6.421   3.439   1.378
 1704W        W 2701   2.523   3.767   3.990
 1705W        W 2702   5.718   6.797   7.143
 1706W        W 2703   4.141   2.110   4.654
 1707W        W 2704   3.156   3.795   2.145
 1708W        W 2705   7.337   2.077   0.571
 1709W        W 2706   7.699   6.299   0.657
 1710W        W 2707   5.039   2.898   5.793
 1711W        W 2708   6.321   3.321   0.828
 1712W        W 2709   4.276   5.978   5.638
 1713W        W 2710   1.000   2.528   3.516
 1714W        W 2711   5.976   1.385   1.665
 1715W        W 2712   2.449   1.452   6.961
 1716W        W 2713   6.953   3.751   4.740
 1717W        W 2714   3.286   7.186   5.262
 1718W        W 2715   3.228   1.384   4.333
 1719W        W 2716   1.714   7.015   3.110
 1720W        W 2717   4.507   1.992   3.671
 1721W        W 2718   4.557   0.474   6.112
 1722W        W 2719   2.732   1.795   4.676
 1723W        W 2720   6.096   7.198   1.694
 1724W        W 2721   3.501   5.123   1.203
 1725W        W 2722   6.651   5.012   3.663
 1726W        W 2723   3.839   5.018   1.902
 1727W        W 2724   6.737   1.683   5.535
 1728W        W 2725   2.236   1.807   3.504
 1729W        W 2726   3.303   4.917   6.917
 1730W        W 2727   6.465   4.263   1.682
 1731W        W 2728   4.609   3.604   7.491
 1732W        W 2729   0.145   7.014   7.565
 1733W        W 2730   6.803   1.985   6.028
 1734W        W 2731   5.795   7.642   5.286
 1735W        W 2732   6.118   6.671   2.613
 1736W        W 2733   1.076   6.421   0.699
 1737W        W 2734   3.646   5.627   4.519
 1738W        W 2735   0.041   3.567   4.054
 1739W        W 2736   5.750   0.903   2.899
 1740W        W 2737   5.680   3.808   3.481
 1741W        W 2738   2.062   0.753   5.628
 1742W        W 2739   6.958   3.903   5.267
 1743W        W 2740   1.268   3.395   4.717
 1744W        W 2741   0.211   6.146   2.027
 1745W        W 2742   3.319   6.605   1.799
 1746W        W 2743   0.096   0.840   5.805
 1747W        W 2744   3.081   6.574   6.422
 1748W        W 2745   0.478   5.827   0.451
 1749W        W 2746   5.625   4.828   4.497
 1750W        W 2747   5.034   5.779   4.941
 1751W        W 2748   7.385   6.463   0.108
 1752W        W 2749   0.993   4.627   2.170
 1753W        W 2750   1.239   3.952   2.832
 1754W        W 2751   4.080   1.861   5.925
 1755W        W 2752   6.219   3.480   1.869
 1756W        W 2753   0.039   1.014   4.501
 1757W        W 2754   3.275   5.192   5.873
 1758W        W 2755   5.521   7.260   0.821
 1759W        W 2756   6.354   2.104   5.081
 1760W        W 2757   1.212   4.380   1.303
 1761W        W 2758   6.844   4.263   6.637
 1762W        W 2759   1.089   6.075   1.719
 1763W        W 2760   0.263   5.949   2.745
 1764W        W 2761   4.371   5.161   7.115
 1765W        W 2762   2.051   0.698   1.134
 1766W        W 2763   5.958   1.234   0.640
 1767W        W 2764   3.764   1.533   2.223
 1768W        W 2765   7.117   4.665   0.600
 1769W        W 2766   5.084   2.527   6.522
 1770W        W 2767   2.245   1.882   6.034
 1771W        W 2768   1.216   2.837   3.160
 1772W        W 2769   3.278   0.957   6.817
 1773W        W 2770   7.207   7.464   0.255
 1774W        W 2771   0.162   5.335   3.125
 1775W        W 2772   5.772   5.408   1.892
 1776W        W 2773   0.563   6.360   6.866
 1777W        W 2774   1.679   3.131   3.960
 1778W        W 2775   0.231   0.396   6.987
 1779W        W 2776   4.848   2.928   6.281
 1780W        W 2777   1.862   5.139   2.330
 1781W        W 2778   5.347   1.805   7.285
 1782W        W 2779   5.484   5.382   1.431
 1783W        W 2780   4.147   1.825   2.859
 1784W        W 2781   2.121   5.639   6.736
 1785W        W 2782   0.173   6.455   2.522
 1786W        W 2783   5.135   4.834   0.711
 1787W        W 2784   3.278   2.746   0.980
 1788W        W 2785   5.340   0.979   6.624
 1789W        W 2786   6.087   0.257   5.507
 1790W        W 2787   1.905   5.102   4.144
 1791W        W 2788   6.699   5.577   6.068
 1792W        W 2789   1.514   6.414   4.897
 1793W        W 2790   7.778   2.212   3.494
 1794W        W 2791   2.633   6.592   6.671
 1795W        W 2792   7.014   0.758   5.575
 1796W        W 2793   3.049   3.194   0.397
 1797W        W 2794   5.751   4.509   2.904
 1798W        W 2795   1.516   6.114   0.282
 1799W        W 2796   2.008   2.416   2.989
 1800W        W 2797   6.247   5.436   5.905
 1801W        W 2798   0.508   3.635   5.074
 1802W        W 2799   5.797   3.576   0.022
 1803W        W 2800   6.622   0.755   5.958
 1804W        W 2801   1.246   4.714   4.776
 1805W        W 2802   2.197   0.056   1.894
 1806W        W 2803   2.090   3.210   2.385
 1807W        W 2804   1.817   4.992   1.822
 1808W        W 2805   4.865   2.099   6.601
 1809W        W 2806   6.064   3.808   1.584
 1810W        W 2807   5.454   0.482   0.221
 1811W        W 2808   3.931   4.829   6.378
 1812W        W 2809   2.298   0.101   5.777
 1813W        W 2810   4.324   1.275   2.658
 1814W        W 2811   3.206   0.200   7.426
 1815W        W 2812   3.873   3.403   4.280
 1816W        W 2813   2.171   3.129   1.158
 1817W        W 2814   0.761   5.834   1.365
 1818W        W 2815   2.897   5.189   1.945
 1819W        W 2816   6.924   5.663   7.516
 1820W        W 2817   0.252   6.321   5.505
 1821W        W 2818   2.669   5.857   0.711
 1822W        W 2819   2.109   6.761   4.220
 1823W        W 2820   1.855   0.008   4.644
 1824W        W 2821   1.808   0.282   6.695
 1825W        W 2822   4.581   3.576   0.203
 1826W        W 2823   1.275   3.983   5.953
 1827W        W 2824   7.166   7.340   7.073
 1828W        W 2825   4.955   7.670   5.810
 1829W        W 2826   4.206   1.064   4.467
 1830W        W 2827   0.902   5.098   5.379
 1831W        W 2828   0.218   5.814   7.459
 1832W        W 2829   7.382   1.826   7.628
 1833W        W 2830   0.652   1.996   3.002
 1834W        W 2831   3.335   7.377   3.873
 1835W        W 2832   1.988   3.482   3.790
 1836W        W 2833   6.788   4.567   1.136
 1837W        W 2834   6.986   1.091   7.327
 1838W        W 2835   6.021   2.005   3.662
 1839W        W 2836   7.208   6.114   2.773
 1840W        W 2837   2.721   6.087   2.596
 1841W        W 2838   2.496   3.248   1.568
 1842W        W 2839   5.125   4.333   6.740
 1843W        W 2840   3.246   3.966   4.592
 1844W        W 2841   4.933   3.135   0.230
 1845W        W 2842   5.919   0.474   3.160
 1846W        W 2843   2.226   5.983   3.793
 1847W        W 2844   3.987   5.360   6.617
 1848W        W 2845   6.694   0.054   2.632
 1849W        W 2846   3.568   5.426   3.695
 1850W        W 2847   1.183   2.925   4.479
 1851W        W 2848   2.377   6.324   2.837
 1852W        W 2849   2.756   1.468   7.538
 1853W        W 2850   2.851   1.354   4.767
 1854W        W 2851   4.930   2.152   0.417
 1855W        W 2852   1.365   5.575   2.878
 1856W        W 2853   5.550   0.934   0.903
 1857W        W 2854   2.230   4.743   2.211
 1858W        W 2855   3.090   7.742   7.182
 1859W        W 2856   2.129   7.321   4.267
 1860W        W 2857   1.609   5.640   1.037
 1861W        W 2858   6.337   6.748   3.548
 1862W        W 2859   7.606   6.997   3.671
 1863W        W 2860   5.458   7.250   7.553
 1864W        W 2861   4.716   6.765   3.543
 1865W        W 2862   7.744   3.892   3.563
 1866W        W 2863   0.779   0.999   0.453
 1867W        W 2864   5.931   6.818   6.623
 1868W        W 2865   1.308   3.509   7.007
 1869W        W 2866   1.279   7.200   7.412
 1870W        W 2867   3.090   7.656   1.864
 1871W        W 2868   4.389   6.038   6.102
 1872W        W 2869   3.083   3.534   2.502
 1873W        W 2870   5.890   4.705   6.356
 1874W        W 2871   1.669   5.554   4.272
 1875W        W 2872   1.354   1.459   6.841
 1876W        W 2873   0.538   5.265   0.141
 1877W        W 2874   3.837   6.798   3.835
 1878W        W 2875   7.790   7.073   6.995
 1879W        W 2876   4.247   6.437   7.319
 1880W        W 2877   7.244   0.813   4.263
 1881W        W 2878   5.303   5.041   3.127
 1882W        W 2879   3.117   3.294   7.520
 1883W        W 2880   0.376   5.804   6.950
 1884W        W 2881   1.110   3.821   1.276
 1885W        W 2882   1.421   1.628   3.957
 1886W        W 2883   0.104   6.058   0.834
 1887W        W 2884   3.947   3.026   4.696
 1888W        W 2885   5.989   6.834   2.167
 1889W        W 2886   1.529   5.814   1.707
 1890W        W 2887   6.769   6.851   5.832
 1891W        W 2888   6.058   0.478   4.867
 1892W        W 2889   4.480   1.822   4.931
 1893W        W 2890   4.725   0.042   3.589
 1894W        W 2891   7.475   1.578   0.488
 1895W        W 2892   1.804   0.351   5.506
 1896W        W 2893   6.088   4.661   1.547
 1897W        W 2894   5.708   1.903   0.037
 1898W        W 2895   5.630   6.787   1.121
 1899W        W 2896   4.373   0.793   0.964
 1900W        W 2897   4.092   1.777   3.399
 1901W        W 2898   0.644   2.928   1.359
 1902W        W 2899   6.453   3.035   7.293
 1903W        W 2900   4.664   1.779   1.867
 1904W        W 2901   7.704   1.951   6.328
 1905W        W 2902   5.886   0.027   5.063
 1906W        W 2903   0.372   2.585   6.091
 1907W        W 2904   0.018   7.813   7.121
 1908W        W 2905   7.154   1.682   3.069
 1909W        W 2906   1.520   5.386   2.095
 1910W        W 2907   1.019   1.694   5.050
 1911W        W 2908   2.013   0.075   6.290
 1912W        W 2909   7.083   1.412   3.457
 1913W        W 2910   2.583   0.053   0.162
 1914W        W 2911   2.198   3.979   4.941
 1915W        W 2912   7.338   6.605   1.920
 1916W        W 2913   1.641   7.805   5.591
 1917W        W 2914   5.860   1.826   3.177
 1918W        W 2915   4.464   2.025   0.416
 1919W        W 2916   6.616   3.000   2.510
 1920W        W 2917   7.880   4.695   2.447
 1921W        W 2918   1.089   0.951   6.147
 1922W        W 2919   7.939   7.609   1.269
 1923W        W 2920   7.814   6.561   6.840
 1924W        W 2921   4.960   4.899   5.403
 1925W        W 2922   3.399   1.465   7.873
 1926W        W 2923   4.192   6.397   4.677
 1927W        W 2924   0.905   2.939   1.780
 1928W        W 2925   1.069   1.086   6.610
 1929W        W 2926   7.490   3.705   5.539
 1930W        W 2927   6.257   2.546   7.049
 1931W        W 2928   4.510   0.641   0.463
 1932W        W 2929   3.231   4.870   3.951
 1933W        W 2930   2.786   2.278   2.540
 1934W        W 2931   3.359   7.246   2.620
 1935W        W 2932   1.111   5.001   6.637
 1936W        W 2933   1.914   4.505   0.423
 1937W        W 2934   4.808   0.959   5.238
 1938W        W 2935   6.547   1.250   2.513
 1939W        W 2936   3.953   4.801   4.660
 1940W        W 2937   3.942   5.517   7.113
 1941W        W 2938   2.064   5.285   4.671
 1942W        W 2939   0.980   5.934   6.746
 1943W        W 2940   2.474   4.554   3.569
 1944W        W 2941   4.230   3.791   5.564
 1945W        W 2942   7.683   7.643   1.674
 1946W        W 2943   4.058   2.877   5.157
 1947W        W 2944   2.263   0.605   6.523
 1948W        W 2945   6.693   0.490   2.870
 1949W        W 2946   2.684   4.019   1.933
 1950W        W 2947   1.815   1.539   3.692
 1951W        W 2948   2.143   5.431   0.147
 1952W        W 2949   4.020   3.477   7.739
 1953W        W 2950   4.912   7.167   6.819
 1954W        W 2951   7.252   3.724   3.317
 1955W        W 2952   0.162   1.208   6.194
 1956W        W 2953   4.949   4.012   3.649
 1957W        W 2954   0.939   2.608   1.054
 1958W        W 2955   6.930   3.290   1.548
 1959W        W 2956   5.167   2.924   7.698
 1960W        W 2957   6.875   2.443   7.941
 1961W        W 2958   2.224   7.372   2.325
 1962W        W 2959   1.354   6.380   3.694
 1963W        W 2960   0.232   0.326   0.117
 1964W        W 2961   6.595   7.303   4.501
 1965W        W 2962   7.065   3.438   6.826
 1966W        W 2963   2.483   2.831   2.485
 1967W        W 2964   4.043   3.532   1.679
 1968W        W 2965   7.006   7.441   1.834
 1969W        W 2966   2.497   5.128   0.319
 1970W        W 2967   5.769   2.356   6.202
 1971W        W 2968   6.145   3.224   7.673
 1972W        W 2969   5.229   1.415   3.787
 1973W        W 2970   7.013   5.180   2.507
 1974W        W 2971   2.883   2.815   3.299
 1975W        W 2972   6.393   6.526   5.815
 1976W        W 2973   2.329   1.970   4.965
 1977W        W 2974   1.610   4.718   1.373
 1978W        W 2975   1.421   4.692   0.411
 1979W        W 2976   5.711   2.009   6.919
 1980W        W 2977   0.714   2.734   4.520
 1981W        W 2978   0.744   3.989   0.786
 1982W        W 2979   0.895   3.346   2.040
 1983W        W 2980   3.964   0.095   7.596
 1984W        W 2981   0.810   3.740   4.701
 1985W        W 2982   4.173   0.688   4.726
 1986W        W 2983   6.142   3.025   2.139
 1987W        W 2984   2.978   5.242   6.632
 1988W        W 2985   7.896   6.912   3.206
 1989W        W 2986   5.367   4.123   7.115
 1990W        W 2987   6.887   0.308   4.326
 1991W        W 2988   7.839   1.862   0.694
 1992W        W 2989   6.764   7.893   6.301
 1993W        W 2990   6.847   7.061   6.775
 1994W        W 2991   5.428   4.338   6.311
 1995W        W 2992   0.696   2.593   5.201
 1996W        W 2993   4.785   7.683   3.005
 1997W        W 2994   3.725   7.776   2.289
 1998W        W 2995   3.485   1.510   4.750
 1999W        W 2996   6.052   5.610   7.202
 2000W        W 2997   5.622   2.695   7.608
 2001W        W 2998   5.561   2.458   2.033
 2002W        W 2999   0.203   4.385   2.512
 2003W        W 3000   7.213   2.023   6.405
 2004W        W 3001   3.345   1.759   6.980
 2005W        W 3002   7.265   3.383   4.131
 2006W        W 3003   0.897   2.437   1.927
 2007W        W 3004   6.744   5.944   5.570
 2008W        W 3005   3.267   7.841   2.957
 2009W        W 3006   5.191   4.403   4.922
 2010W        W 3007   4.041   0.098   2.881
 2011W        W 3008   1.931   5.643   1.890
 2012W        W 3009   5.361   5.747   4.392
 2013W        W 3010   5.443   6.904   6.586
 2014W        W 3011   5.150   4.302   1.191
 2015W        W 3012   7.346   5.819   4.287
 2016W        W 3013   2.175   4.301   4.528
 2017W        W 3014   4.747   2.482   2.916
 2018W        W 3015   7.028   7.809   1.031
 2019W        W 3016   5.490   1.311   1.813
 2020W        W 3017   1.715   3.751   2.946
 2021W        W 3018   1.969   0.800   7.492
 2022W        W 3019   5.755   4.057   4.010
 2023W        W 3020   3.614   5.681   6.101
 2024W        W 3021   6.375   0.152   3.029
 2025W        W 3022   6.007   2.726   6.585
 2026W        W 3023   5.124   7.519   0.590
 2027W        W 3024   2.343   4.822   4.155
 2028W        W 3025   0.904   0.203   6.894
 2029W        W 3026   6.977   2.464   1.216
 2030W        W 3027   4.050   4.918   1.443
 2031W        W 3028   1.003   7.335   3.802
 2032W        W 3029   7.680   2.976   3.495
 2033W        W 3030   6.036   4.268   4.576
 2034W        W 3031   7.041   7.097   7.540
 2035W        W 3032   0.184   4.545   7.415
 2036W        W 3033   3.354   2.013   1.790
 2037W        W 3034   2.768   0.619   3.835
 2038W        W 3035   2.150   0.807   5.092
 2039W        W 3036   5.449   2.810   6.303
 2040W        W 3037   1.060   6.492   1.365
 2041W        W 3038   5.555   7.621   7.290
 2042W        W 3039   3.691   5.193   2.841
 2043W        W 3040   6.516   0.704   5.207
 2044W        W 3041   7.685   3.752   0.675
 2045W        W 3042   7.342   4.455   4.127
 2046W        W 3043   0.872   0.546   1.706
 2047W        W 3044   3.516   5.082   0.621
 2048W        W 3045   5.756   2.698   0.226
 2049W        W 3046   6.722   6.583   0.658
 2050W        W 3047   1.899   2.264   4.275
 2051W        W 3048   6.558   6.847   0.143
 2052W        W 3049   0.443   7.415   7.157
 2053W        W 3050   1.247   2.453   5.273
 2054W        W 3051   1.708   0.644   5.006
 2055W        W 3052   2.120   6.678   2.532
 2056W        W 3053   5.907   4.243   7.130
 2057W        W 3054   4.331   5.525   0.889
 2058W        W 3055   2.074   1.051   0.724
 2059W        W 3056   6.704   5.388   4.885
 2060W        W 3057   6.397   7.263   3.116
 2061W        W 3058   5.363   1.553   5.650
 2062W        W 3059   5.110   0.027   7.707
 2063W        W 3060   5.725   3.801   4.419
 2064W        W 3061   4.911   1.143   4.080
 2065W        W 3062   3.717   5.742   5.093
 2066W        W 3063   4.792   2.132   4.068
 2067W        W 3064   7.123   6.255   4.071
 2068W        W 3065   7.317   7.223   4.236
 2069W        W 3066   1.078   7.080   2.087
 2070W        W 3067   0.613   0.002   0.178
 2071W        W 3068   6.944   3.436   0.304
 2072W        W 3069   6.871   3.910   6.229
 2073W        W 3070   2.419   6.278   0.534
 2074W        W 3071   7.835   2.327   2.343
 2075W        W 3072   2.330   4.349   0.738
 2076W        W 3073   5.207   3.082   6.648
 2077W        W 3074   3.010   2.529   6.167
 2078W        W 3075   1.520   3.293   3.084
 2079W        W 3076   5.039   4.198   2.823
 2080W        W 3077   2.634   6.972   4.249
 2081W        W 3078   7.788   2.970   6.560
 2082W        W 3079   4.204   0.818   0.112
 2083W        W 3080   4.422   0.979   3.282
 2084W        W 3081   4.621   4.225   5.770
 2085W        W 3082   4.923   0.493   1.603
 2086W        W 3083   6.733   6.893   7.191
 2087W        W 3084   5.080   6.180   0.174
 2088W        W 3085   1.728   0.347   1.988
 2089W        W 3086   4.916   3.628   2.192
 2090W        W 3087   4.574   7.926   4.492
 2091W        W 3088   6.431   2.981   4.706
 2092W        W 3089   4.453   1.194   1.762
 2093W        W 3090   3.291   6.397   4.633
 2094W        W 3091   3.663   7.116   1.159
 2095W        W 3092   0.132   4.937   6.495
 2096W        W 3093   1.314   4.224   6.464
 2097W        W 3094   5.599   6.659   2.415
 2098W        W 3095   6.565   1.234   0.507
 2099W        W 3096   6.632   4.112   7.472
 2100W        W 3097   4.568   6.102   7.586
 2101W        W 3098   6.335   5.825   4.635
 2102W        W 3099   4.731   1.141   2.898
 2103W        W 3100   1.793   7.700   4.061
 2104W        W 3101   0.518   0.560   5.704
 2105W        W 3102   3.605   6.627   0.859
 2106W        W 3103   7.566   3.554   1.996
 2107W        W 3104   6.440   5.876   3.756
 2108W        W 3105   7.455   4.821   1.507
 2109W        W 3106   7.360   2.670   0.803
 2110W        W 3107   7.054   1.237   0.668
 2111W        W 3108   3.747   0.504   7.963
 2112W        W 3109   0.305   2.608   4.757
 2113W        W 3110   4.485   1.081   3.947
 2114W        W 3111   7.461   0.564   5.467
 2115W        W 3112   1.196   2.100   3.814
 2116W        W 3113   7.560   2.897   0.353
 2117W        W 3114   3.531   2.557   3.964
 2118W        W 3115   4.115   3.401   3.527
 2119W        W 3116   4.010   0.363   7.172
 2120W        W 3117   2.665   1.281   2.603
 2121W        W 3118   6.451   7.251   5.908
 2122W        W 3119   5.734   6.775   3.586
 2123W        W 3120   1.369   0.912   4.711
 2124W        W 3121   3.060   7.139   1.803
 2125W        W 3122   0.136   7.306   4.068
 2126W        W 3123   7.712   2.916   1.059
 2127W        W 3124   6.502   4.965   6.060
 2128W        W 3125   3.713   3.025   7.632
 2129W        W 3126   1.917   1.758   4.161
 2130W        W 3127   6.005   5.173   6.258
 2131W        W 3128   6.293   5.731   2.574
 2132W        W 3129   6.619   6.289   4.656
 2133W        W 3130   1.946   6.233   2.305
 2134W        W 3131   6.194   2.331   4.114
 2135W        W 3132   6.335   2.501   4.544
 2136W        W 3133   3.845   7.229   3.597
 2137W        W 3134   3.094   5.030   7.484
 2138W        W 3135   7.127   5.552   6.250
 2139W        W 3136   6.832   3.459   3.281
 2140W        W 3137   7.644   1.662   4.360
 2141W        W 3138   1.927   5.742   3.512
 2142W        W 3139   6.951   5.347   4.430
 2143W        W 3140   4.809   7.388   6.248
 2144W        W 3141   6.239   7.153   2.653
 2145W        W 3142   6.896   5.240   6.613
 2146W        W 3143   0.248   6.419   4.520
 2147W        W 3144   5.987   6.706   4.450
 2148W        W 3145   6.414   5.671   0.829
 2149W        W 3146   4.150   6.563   3.433
 2150W        W 3147   1.709   3.452   2.051
 2151W        W 3148   5.853   5.479   3.467
 2152W        W 3149   5.027   6.128   3.666
 2153W        W 3150   1.676   0.131   1.333
 2154W        W 3151   6.462   3.965   1.228
 2155W        W 3152   1.542   2.613   4.929
 2156W        W 3153   6.478   7.410   2.230
 2157W        W 3154   2.854   6.739   5.971
 2158W        W 3155   6.433   1.727   2.370
 2159W        W 3156   3.951   3.773   3.846
 2160W        W 3157   3.476   6.216   6.247
 2161W        W 3158   4.144   1.086   0.563
 2162W        W 3159   5.976   4.273   1.778
 2163W        W 3160   4.231   3.468   6.724
 2164W        W 3161   7.483   5.725   2.533
 2165W        W 3162   0.953   1.296   4.738
 2166W        W 3163   4.059   6.338   7.776
 2167W        W 3164   6.695   3.304   5.453
 2168W        W 3165   2.926   2.115   7.123
 2169W        W 3166   2.477   6.826   2.954
 2170W        W 3167   5.555   3.660   3.024
 2171W        W 3168   2.376   4.450   5.033
 2172W        W 3169   2.247   4.159   6.946
 2173W        W 3170   5.390   3.030   1.382
 2174W        W 3171   6.106   2.278   6.644
 2175W        W 3172   2.685   5.626   4.663
 2176W        W 3173   4.984   1.447   5.905
 2177W        W 3174   1.410   4.859   2.240
 2178W        W 3175   2.423   0.289   3.616
 2179W        W 3176   1.099   2.567   4.093
 2180W        W 3177   1.967   3.293   3.298
 2181W        W 3178   1.714   3.865   5.086
 2182W        W 3179   6.123   4.246   6.524
 2183W        W 3180   5.251   3.082   4.908
 2184W        W 3181   5.037   5.659   3.284
 2185W        W 3182   7.133   3.427   5.196
 2186W        W 3183   3.815   5.509   3.243
 2187W        W 3184   3.029   1.021   7.718
 2188W        W 3185   0.292   7.669   4.888
 2189W        W 3186   7.219   4.737   3.237
 2190W        W 3187   7.135   7.534   6.400
 2191W        W 3188   4.574   3.697   5.924
 2192W        W 3189   2.107   2.008   0.655
 2193W        W 3190   6.875   3.095   0.971
 2194W        W 3191   5.652   6.236   1.100
 2195W        W 3192   3.255   7.550   6.398
 2196W        W 3193   3.218   6.107   1.907
 2197W        W 3194   6.686   6.003   4.203
 2198W        W 3195   1.544   0.199   5.038
 2199W        W 3196   1.450   0.460   4.087
 2200W        W 3197   2.841   6.672   1.246
 2201W        W 3198   1.278   3.882   4.863
 2202W        W 3199   5.001   5.580   7.208
 2203W        W 3200   6.966   4.513   7.226
 2204W        W 3201   5.764   7.175   5.399
 2205W        W 3202   4.330   1.230   4.911
 2206W        W 3203   3.341   5.430   3.134
 2207W        W 3204   1.903   2.693   0.976
 2208W        W 3205   5.820   0.175   0.058
 2209W        W 3206   5.564   5.823   5.305
 2210W        W 3207   4.043   5.097   0.883
 2211W        W 3208   5.302   6.684   0.721
 2212W        W 3209   5.586   1.293   3.450
 2213W        W 3210   0.690   5.426   4.971
 2214W        W 3211   2.518   0.477   4.889
 2215W        W 3212   0.700   3.652   7.780
 2216W        W 3213   3.209   1.862   4.540
 2217W        W 3214   3.809   7.745   2.842
 2218W        W 3215   6.523   5.783   7.263
 2219W        W 3216   3.752   0.503   6.073
 2220W        W 3217   7.441   5.738   4.790
 2221W        W 3218   0.513   1.830   4.811
 2222W        W 3219   4.783   6.740   2.770
 2223W        W 3220   3.101   5.711   1.584
 2224W        W 3221   0.525   2.920   5.693
 2225W        W 3222   6.967   2.028   1.001
 2226W        W 3223   4.198   2.082   1.728
 2227W        W 3224   2.406   5.881   1.700
 2228W        W 3225   3.858   0.726   2.009
 2229W        W 3226   1.931   6.158   1.784
 2230W        W 3227   2.208   0.347   1.461
 2231W        W 3228   5.854   4.893   3.268
 2232W        W 3229   1.214   5.196   5.003
 2233W        W 3230   2.459   0.814   2.590
 2234W        W 3231   6.746   2.628   6.981
 2235W        W 3232   7.754   1.383   6.869
 2236W        W 3233   7.678   3.352   3.801
 2237W        W 3234   3.599   4.221   3.202
 2238W        W 3235   4.835   6.475   6.102
 2239W        W 3236   2.079   7.093   2.774
 2240W        W 3237   0.333   0.955   2.018
 2241W        W 3238   6.668   1.202   5.647
 2242W        W 3239   3.288   3.576   0.228
 2243W        W 3240   2.251   4.376   7.539
 2244W        W 3241   4.640   3.769   4.008
 2245W        W 3242   1.216   3.720   3.284
 2246W        W 3243   6.590   5.412   2.234
 2247W        W 3244   6.456   1.651   3.801
 2248W        W 3245   6.677   7.587   0.570
 2249W        W 3246   4.989   1.796   3.641
 2250W        W 3247   5.051   0.339   4.028
 2251W        W 3248   3.642   3.473   2.554
 2252W        W 3249   1.544   5.166   0.676
 2253W        W 3250   0.378   6.253   4.988
 2254W        W 3251   7.775   6.169   2.697
 2255W        W 3252   6.416   1.033   4.864
 2256W        W 3253   6.368   3.887   6.190
 2257W        W 3254   1.510   2.028   4.292
 2258W        W 3255   0.429   1.961   2.520
 2259W        W 3256   4.657   2.781   7.385
 2260W        W 3257   1.677   1.401   4.370
 2261W        W 3258   2.523   4.450   1.529
 2262W        W 3259   7.815   3.313   6.166
 2263W        W 3260   6.936   1.818   5.127
 2264W        W 3261   6.375   5.073   3.197
 2265W        W 3262   0.129   3.465   3.483
 2266W        W 3263   7.636   6.668   2.387
 2267W        W 3264   6.046   2.979   1.639
 2268W        W 3265   2.842   3.989   1.144
 2269W        W 3266   3.608   5.888   6.603
 2270W        W 3267   2.886   6.345   3.040
 2271W        W 3268   2.489   5.551   3.482
 2272W        W 3269   6.005   6.215   4.596
 2273W        W 3270   4.665   0.310   2.633
 2274W        W 3271   0.728   5.926   4.751
 2275W        W 3272   7.587   2.137   1.851
 2276W        W 3273   1.426   4.453   7.332
 2277W        W 3274   7.780   3.028   2.000
 2278W        W 3275   5.125   4.773   4.623
 2279W        W 3276   5.635   0.753   5.704
 2280W        W 3277   6.228   5.542   5.016
 2281W        W 3278   2.889   1.781   2.951
 2282W        W 3279   6.794   5.913   0.044
 2283W        W 3280   3.016   0.458   6.063
 2284W        W 3281   4.167   2.570   2.006
 2285W        W 3282   7.516   3.142   2.407
 2286W        W 3283   6.396   3.310   4.315
 2287W        W 3284   6.085   6.156   1.349
 2288W        W 3285   5.216   2.380   5.041
 2289W        W 3286   3.280   5.508   2.105
 2290W        W 3287   2.648   4.766   7.577
 2291W        W 3288   1.845   4.741   3.263
 2292W        W 3289   7.701   6.138   2.143
 2293W        W 3290   5.475   5.899   7.382
 2294W        W 3291   1.669   4.319   6.824
 2295W        W 3292   3.161   6.835   0.380
 2296W        W 3293   4.757   3.484   4.378
 2297W        W 3294   0.737   3.278   4.419
 2298W        W 3295   2.713   1.525   3.347
 2299W        W 3296   6.111   6.953   5.798
 2300W        W 3297   4.017   1.925   0.666
 2301W        W 3298   2.654   5.614   5.578
 2302W        W 3299   0.277   2.676   4.247
 2303W        W 3300   0.895   0.387   2.244
 2304W        W 3301   1.253   7.497   6.562
 2305W        W 3302   2.128   1.851   0.100
 2306W        W 3303   2.124   1.533   0.523
 2307W        W 3304   1.473   0.910   7.377
 2308W        W 3305   5.721   2.465   5.275
 2309W        W 3306   7.246   2.710   7.094
 2310W        W 3307   2.497   2.480   7.671
 2311W        W 3308   6.748   0.224   3.354
 2312W        W 3309   7.420   6.188   3.252
 2313W        W 3310   2.365   4.870   1.741
 2314W        W 3311   4.668   2.637   5.943
 2315W        W 3312   0.714   0.625   1.251
 2316W        W 3313   6.664   1.625   4.260
 2317W        W 3314   6.093   2.588   7.528
 2318W        W 3315   2.472   4.007   7.906
 2319W        W 3316   5.545   7.827   1.351
 2320W        W 3317   0.124   0.319   5.971
 2321W        W 3318   3.785   5.977   1.942
 2322W        W 3319   6.416   1.162   0.953
 2323W        W 3320   6.089   6.457   7.037
 2324W        W 3321   4.948   4.407   4.291
 2325W        W 3322   1.874   6.790   5.058
 2326W        W 3323   7.388   7.790   0.654
 2327W        W 3324   5.809   3.002   6.001
 2328W        W 3325   1.058   6.603   5.652
 2329W        W 3326   5.939   0.068   0.571
 2330W        W 3327   0.399   6.776   7.109
 2331W        W 3328   1.515   5.928   3.133
 2332W        W 3329   0.562   5.079   2.993
 2333W        W 3330   0.048   2.331   1.604
 2334W        W 3331   5.876   3.898   5.409
 2335W        W 3332   1.970   3.726   1.046
 2336W        W 3333   6.328   3.468   2.389
 2337W        W 3334   7.739   4.039   4.773
 2338W        W 3335   7.054   3.440   6.324
 2339W        W 3336   0.449   6.542   6.282
 2340W        W 3337   3.318   0.495   0.563
 2341W        W 3338   4.597   5.111   0.743
 2342W        W 3339   1.876   1.648   5.698
 2343W        W 3340   6.973   7.115   6.179
 2344W        W 3341   3.531   5.749   1.316
 2345W        W 3342   5.920   3.782   2.504
 2346W        W 3343   4.475   6.827   5.437
 2347W        W 3344   1.503   1.777   7.208
 2348W        W 3345   6.714   0.337   0.696
 2349W        W 3346   3.046   5.043   3.254
 2350W        W 3347   3.563   3.407   1.516
 2351W        W 3348   1.387   1.882   1.261
 2352W        W 3349   0.260   2.685   6.922
 2353W        W 3350   1.723   7.499   2.662
 2354W        W 3351   5.693   3.337   6.945
 2355W        W 3352   0.535   3.169   6.935
 2356W        W 3353   4.471   3.153   5.026
 2357W        W 3354   1.766   0.051   7.825
 2358W        W 3355   2.558   7.414   1.910
 2359W        W 3356   0.105   3.608   2.334
 2360W        W 3357   0.006   4.725   1.240
 2361W        W 3358   5.667   1.540   7.806
 2362W        W 3359   3.560   7.734   1.169
 2363W        W 3360   7.490   5.391   5.845
 2364W        W 3361   6.955   5.023   1.962
 2365W        W 3362   2.977   3.056   5.062
 2366W        W 3363   0.345   7.358   4.519
 2367W        W 3364   6.805   5.598   0.408
 2368W        W 3365   7.418   0.932   6.603
 2369W        W 3366   6.976   0.385   5.312
 2370W        W 3367   7.733   5.711   0.834
 2371W        W 3368   2.811   0.996   3.451
 2372W        W 3369   0.812   1.661   2.568
 2373W        W 3370   4.363   5.885   3.957
 2374W        W 3371   3.529   3.205   7.190
 2375W        W 3372   4.083   5.937   0.694
 2376W        W 3373   5.164   0.648   5.404
 2377W        W 3374   4.376   6.682   0.408
 2378W        W 3375   0.497   7.269   5.866
 2379W        W 3376   3.632   4.877   5.559
 2380W        W 3377   1.813   1.007   5.984
 2381W        W 3378   6.800   6.619   4.339
 2382W        W 3379   7.448   2.473   3.769
 2383W        W 3380   5.906   1.622   7.385
 2384W        W 3381   1.573   6.450   1.006
 2385W        W 3382   2.864   7.593   2.671
 2386W        W 3383   5.937   4.965   0.338
 2387W        W 3384   0.337   0.353   1.144
 2388W        W 3385   5.234   1.069   5.671
 2389W        W 3386   4.977   0.911   0.710
 2390W        W 3387   6.980   4.215   0.385
 2391W        W 3388   6.265   4.616   0.497
 2392W        W 3389   0.693   2.947   6.170
 2393W        W 3390   0.556   1.485   3.769
 2394W        W 3391   5.735   7.279   4.881
 2395W        W 3392   0.652   7.721   6.337
 2396W        W 3393   4.213   6.881   7.181
 2397W        W 3394   6.424   0.415   7.258
 2398W        W 3395   3.671   0.622   3.031
 2399W        W 3396   2.970   3.943   0.026
 2400W        W 3397   1.423   7.909   2.635
 2401W        W 3398   2.742   3.623   7.659
 2402W        W 3399   2.320   0.459   7.355
 2403W        W 3400   7.126   4.794   0.006
 2404W        W 3401   4.994   5.218   1.131
 2405W        W 3402   2.401   7.662   2.614
 2406W        W 3403   2.248   3.767   3.332
 2407W        W 3404   2.496   0.292   6.236
 2408W        W 3405   5.732   7.474   3.623
 2409W        W 3406   4.112   5.575   5.922
 2410W        W 3407   6.792   3.656   4.180
 2411W        W 3408   4.207   2.737   1.044
 2412W        W 3409   3.397   7.189   6.759
 2413W        W 3410   2.364   0.408   5.367
 2414W        W 3411   4.589   4.633   0.505
 2415W        W 3412   6.606   0.809   6.475
 2416W        W 3413   3.922   1.346   3.645
 2417W        W 3414   7.095   3.638   1.883
 2418W        W 3415   3.593   1.170   1.919
 2419W        W 3416   2.097   5.184   6.334
 2420W        W 3417   1.702   3.344   5.098
 2421W        W 3418   3.425   4.146   7.431
 2422W        W 3419   4.193   1.589   4.560
 2423W        W 3420   4.005   6.727   5.289
 2424W        W 3421   0.075   6.754   4.087
 2425W        W 3422   5.718   2.274   3.918
 2426W        W 3423   5.662   4.097   6.666
 2427W        W 3424   3.058   2.220   2.966
 2428W        W 3425   0.782   4.666   5.703
 2429W        W 3426   5.589   7.199   3.195
 2430W        W 3427   5.912   6.695   5.431
 2431W        W 3428   6.210   6.125   0.825
 2432W        W 3429   4.046   4.061   1.727
 2433W        W 3430   3.890   2.319   1.078
 2434W        W 3431   0.509   3.820   0.246
 2435W        W 3432   0.234   1.455   4.714
 2436W        W 3433   4.380   7.188   1.236
 2437W        W 3434   7.499   0.765   1.802
 2438W        W 3435   2.671   1.025   0.761
 2439W        W 3436   1.379   4.820   5.301
 2440W        W 3437   7.607   1.091   5.214
 2441W        W 3438   5.702   2.681   2.897
 2442W        W 3439   5.216   4.017   4.122
 2443W        W 3440   0.181   7.594   3.207
 2444W        W 3441   0.159   5.154   6.984
 2445W        W 3442   1.156   7.763   4.077
 2446W        W 3443   6.451   5.179   0.423
 2447W        W 3444   1.880   6.525   1.425
 2448W        W 3445   0.325   7.020   6.262
 2449W        W 3446   4.205   2.435   0.133
 2450W        W 3447   3.630   3.316   3.366
 2451W        W 3448   2.681   5.839   6.015
 2452W        W 3449   1.880   3.799   7.031
 2453W        W 3450   1.731   4.155   1.392
 2454W        W 3451   6.251   4.524   3.358
 2455W        W 3452   0.198   5.841   5.600
 2456W        W 3453   6.189   2.807   3.303
 2457W        W 3454   2.589   2.262   0.769
 2458W        W 3455   1.427   7.550   7.745
 2459W        W 3456   7.312   3.500   2.806
 2460W        W 3457   2.270   7.639   3.887
 2461W        W 3458   0.281   1.747   3.311
 2462W        W 3459   5.383   6.156   3.094
 2463W        W 3460   5.276   7.496   3.361
 2464W        W 3461   3.836   4.279   7.706
 2465W        W 3462   6.428   5.386   6.414
 2466W        W 3463   1.161   0.759   2.502
 2467W        W 3464   4.167   6.508   5.791
 2468W        W 3465   2.758   4.150   3.712
 2469W        W 3466   0.785   0.665   6.697
 2470W        W 3467   3.474   1.128   1.159
 2471W        W 3468   1.960   1.695   1.705
 2472W        W 3469   7.498   5.787   5.313
 2473W        W 3470   6.566   6.957   1.403
 2474W        W 3471   3.566   6.301   0.415
 2475W        W 3472   5.530   4.333   4.443
 2476W        W 3473   1.692   2.810   0.502
 2477W        W 3474   3.939   6.346   6.518
 2478W        W 3475   5.311   5.943   1.339
 2479W        W 3476   4.580   5.062   2.598
 2480W        W 3477   2.388   1.718   5.486
 2481W        W 3478   4.038   4.363   2.595
 2482W        W 3479   1.036   2.117   4.309
 2483W        W 3480   1.007   4.147   7.490
 2484W        W 3481   2.507   5.349   1.600
 2485W        W 3482   5.623   3.214   3.584
 2486W        W 3483   4.043   7.312   6.964
 2487W        W 3484   4.386   1.266   6.179
 2488W        W 3485   6.120   0.530   5.931
 2489W        W 3486   5.972   0.220   7.443
 2490W        W 3487   7.751   4.845   6.838
 2491W        W 3488   0.706   3.205   5.310
 2492W        W 3489   3.636   5.054   7.798
 2493W        W 3490   2.852   5.828   2.154
 2494W        W 3491   1.063   1.896   1.708
 2495W        W 3492   3.314   3.757   3.485
 2496W        W 3493   3.992   2.676   3.703
 2497W        W 3494   7.847   6.382   4.938
 2498W        W 3495   6.192   1.503   5.375
 2499W        W 3496   7.272   5.695   3.401
 2500W        W 3497   1.524   2.580   4.421
 2501W        W 3498   6.971   1.765   6.738
 2502W        W 3499   3.514   5.623   2.727
 2503W        W 3500   7.586   2.940   2.819
 2504W        W 3501   2.941   3.943   5.629
 2505W        W 3502   2.582   6.225   0.985
 2506W        W 3503   6.619   1.096   7.711
 2507W        W 3504   2.931   3.060   2.293
 2508W        W 3505   2.894   2.756   0.642
 2509W        W 3506   4.966   7.599   3.900
 2510W        W 3507   2.811   7.005   5.059
 2511W        W 3508   0.876   7.198   7.053
 2512W        W 3509   5.157   6.276   1.024
 2513W        W 3510   6.893   5.071   5.193
 2514W        W 3511   5.243   7.000   3.580
 2515W        W 3512   7.417   4.170   5.291
 2516W        W 3513   6.913   4.042   7.070
 2517W        W 3514   7.773   5.127   4.943
 2518W        W 3515   6.335   5.809   0.360
 2519W        W 3516   4.672   6.359   0.959
 2520W        W 3517   4.944   0.346   4.545
 2521W        W 3518   7.732   1.634   1.085
 2522W        W 3519   1.000   5.871   6.157
 2523W        W 3520   3.535   5.832   7.183
 2524W        W 3521   6.059   7.050   0.013
 2525W        W 3522   2.436   1.738   1.533
 2526W        W 3523   0.779   4.868   6.282
 2527W        W 3524   3.260   4.584   3.289
 2528W        W 3525   6.609   2.451   5.908
 2529W        W 3526   4.436   4.952   4.700
 2530W        W 3527   5.545   2.630   5.819
 2531W        W 3528   1.404   2.020   2.185
 2532W        W 3529   5.132   2.349   6.064
 2533W        W 3530   2.704   7.130   1.074
 2534W        W 3531   0.081   4.084   7.220
 2535W        W 3532   2.168   1.323   7.575
 2536W        W 3533   1.284   0.581   5.247
 2537W        W 3534   3.938   2.545   4.599
 2538W        W 3535   1.451   5.430   3.326
 2539W        W 3536   1.892   7.075   6.058
 2540W        W 3537   5.047   1.882   4.796
 2541W        W 3538   7.404   4.451   6.934
 2542W        W 3539   2.539   1.081   3.998
 2543W        W 3540   2.725   4.810   0.696
 2544W        W 3541   7.445   5.691   7.374
 2545W        W 3542   1.779   5.837   7.500
 2546W        W 3543   5.602   1.385   0.253
 2547W        W 3544   5.429   3.434   7.437
 2548W        W 3545   4.773   4.473   2.067
 2549W        W 3546   6.054   0.955   2.444
 2550W        W 3547   0.097   5.353   7.504
 2551W        W 3548   6.928   6.967   5.344
 2552W        W 3549   1.612   1.833   0.224
 2553W        W 3550   3.662   7.024   7.143
 2554W        W 3551   1.880   7.500   6.780
 2555W        W 3552   1.968   1.488   6.143
 2556W        W 3553   3.397   2.205   7.298
 2557W        W 3554   6.586   7.082   1.879
 2558W        W 3555   4.848   0.703   3.729
 2559W        W 3556   3.136   6.729   2.686
 2560W        W 3557   2.348   4.055   1.148
 2561W        W 3558   0.843   4.232   3.082
 2562W        W 3559   0.508   2.250   4.451
 2563W        W 3560   6.508   3.033   1.689
 2564W        W 3561   5.181   0.446   6.438
 2565W        W 3562   4.795   2.756   5.034
 2566W        W 3563   3.099   7.176   5.902
 2567W        W 3564   3.253   7.249   7.232
 2568W        W 3565   2.627   2.178   0.225
 2569W        W 3566   1.382   2.455   5.771
 2570W        W 3567   5.668   0.645   2.311
 2571W        W 3568   7.350   7.728   2.054
 2572W        W 3569   1.239   2.793   6.385
 2573W        W 3570   4.636   2.873   3.803
 2574W        W 3571   6.603   2.841   0.006
 2575W        W 3572   0.430   5.011   7.394
 2576W        W 3573   0.863   5.963   2.829
 2577W        W 3574   7.716   4.485   2.925
 2578W        W 3575   3.848   3.998   2.857
 2579W        W 3576   6.099   2.473   1.796
 2580W        W 3577   7.255   5.264   7.623
 2581W        W 3578   5.504   6.736   7.705
 2582W        W 3579   5.202   0.037   2.373
 2583W        W 3580   7.401   2.665   2.003
 2584W        W 3581   3.132   4.363   5.842
 2585W        W 3582   0.499   4.755   1.322
 2586W        W 3583   5.062   5.024   3.872
 2587W        W 3584   0.352   3.961   6.317
 2588W        W 3585   4.134   6.265   2.040
 2589W        W 3586   4.417   5.805   3.064
 2590W        W 3587   0.969   1.205   2.800
 2591W        W 3588   0.752   5.058   0.935
 2592W        W 3589   4.385   6.437   5.180
 2593W        W 3590   7.356   5.329   4.073
 2594W        W 3591   4.171   6.358   1.576
 2595W        W 3592   5.206   5.593   5.697
 2596W        W 3593   0.825   0.879   2.137
 2597W        W 3594   3.461   1.513   3.831
 2598W        W 3595   7.386   1.230   2.345
 2599W        W 3596   0.189   2.819   5.303
 2600W        W 3597   2.350   6.068   4.704
 2601W        W 3598   1.185   6.849   3.728
 2602W        W 3599   4.809   7.666   4.916
 2603W        W 3600   1.055   2.595   4.830
 2604W        W 3601   1.461   1.022   3.999
 2605W        W 3602   3.793   7.193   5.104
 2606W        W 3603   2.762   6.512   1.723
 2607W        W 3604   1.038   2.119   2.606
 2608W        W 3605   1.083   5.656   5.157
 2609W        W 3606   2.196   0.491   2.292
 2610W        W 3607   3.878   4.063   2.239
 2611W        W 3608   4.292   3.186   5.500
 2612W        W 3609   6.480   6.745   3.036
 2613W        W 3610   6.777   7.642   3.739
 2614W        W 3611   0.762   6.766   6.653
 2615W        W 3612   7.490   3.208   7.014
 2616W        W 3613   5.611   6.297   3.644
 2617W        W 3614   4.681   5.141   7.481
 2618W        W 3615   6.710   6.103   0.598
 2619W        W 3616   4.766   5.849   5.820
 2620W        W 3617   1.903   0.933   3.265
 2621W        W 3618   6.676   2.153   7.067
 2622W        W 3619   0.618   7.271   2.359
 2623W        W 3620   6.139   4.093   3.673
 2624W        W 3621   7.397   1.834   5.380
 2625W        W 3622   5.077   6.977   7.837
 2626W        W 3623   5.399   2.034   2.209
 2627W        W 3624   0.097   1.645   2.686
 2628W        W 3625   7.627   5.361   6.743
 2629W        W 3626   6.924   3.067   7.126
 2630W        W 3627   7.252   4.129   4.787
 2631W        W 3628   6.126   7.167   3.521
 2632W        W 3629   3.113   4.473   1.188
 2633W        W 3630   1.579   4.825   6.908
 2634W        W 3631   0.923   3.950   6.474
 2635W        W 3632   2.529   0.223   1.072
 2636W        W 3633   1.892   1.084   4.711
 2637W        W 3634   2.588   6.705   3.512
 2638W        W 3635   6.264   4.465   6.034
 2639W        W 3636   7.156   1.072   1.734
 2640W        W 3637   1.471   7.468   0.395
 2641W        W 3638   5.913   3.291   4.130
 2642W        W 3639   0.900   0.799   4.854
 2643W        W 3640   4.417   7.592   1.710
 2644W        W 3641   3.628   7.147   7.756
 2645W        W 3642   4.921   4.007   5.106
 2646W        W 3643   1.994   4.544   1.703
 2647W        W 3644   2.027   1.735   7.303
 2648W        W 3645   1.845   6.662   7.885
 2649W        W 3646   6.505   4.558   6.465
 2650W        W 3647   1.938   6.318   0.345
 2651W        W 3648   3.143   5.886   6.904
 2652W        W 3649   6.866   6.457   0.176
 2653W        W 3650   5.227   6.506   2.741
 2654W        W 3651   7.761   5.808   5.718
 2655W        W 3652   2.470   7.346   3.011
 2656W        W 3653   2.774   0.661   1.141
 2657W        W 3654   1.544   1.318   6.401
 2658W        W 3655   5.895   2.844   5.518
 2659W        W 3656   4.647   1.710   2.690
 2660W        W 3657   1.334   1.755   3.481
 2661W        W 3658   6.828   7.374   1.374
 2662W        W 3659   7.032   0.145   7.198
 2663W        W 3660   5.015   4.413   1.647
 2664W        W 3661   2.377   7.658   3.376
 2665W        W 3662   6.726   5.555   2.871
 2666W        W 3663   4.227   7.814   2.319
 2667W        W 3664   3.500   6.059   0.857
 2668W        W 3665   2.778   1.518   2.149
 2669W        W 3666   3.114   0.284   1.877
 2670W        W 3667   6.688   4.732   0.235
 2671W        W 3668   1.257   7.387   3.048
 2672W        W 3669   4.750   6.637   7.774
 2673W        W 3670   0.682   6.778   0.893
 2674W        W 3671   4.266   1.732   7.505
 2675W        W 3672   0.761   6.207   5.806
 2676W        W 3673   3.093   5.717   6.377
 2677W        W 3674   2.812   0.644   6.459
 2678W        W 3675   3.022   2.365   1.678
 2679W        W 3676   1.236   2.223   0.976
 2680W        W 3677   0.268   6.081   1.350
 2681W        W 3678   7.427   2.251   1.110
 2682W        W 3679   4.780   2.316   4.770
 2683W        W 3680   0.300   2.243   2.072
 2684W        W 3681   7.054   2.484   6.316
 2685W        W 3682   5.241   7.376   6.419
 2686W        W 3683   7.014   4.872   5.627
 2687W        W 3684   5.210   6.529   3.447
 2688W        W 3685   2.503   3.328   4.440
 2689W        W 3686   3.177   7.439   0.985
 2690W        W 3687   5.496   6.863   5.721
 2691W        W 3688   1.265   6.610   6.551
 2692W        W 3689   2.670   1.308   1.681
 2693W        W 3690   2.553   2.281   1.779
 2694W        W 3691   7.995   4.407   0.012
 2695W        W 3692   1.432   6.112   2.098
 2696W        W 3693   4.557   6.856   5.957
 2697W        W 3694   7.828   4.101   1.053
 2698W        W 3695   5.467   4.236   1.979
 2699W        W 3696   3.857   5.043   7.024
 2700W        W 3697   7.588   6.424   3.991
 2701W        W 3698   1.312   3.725   6.570
 2702W        W 3699   3.829   3.872   5.880
 2703W        W 3700   3.929   1.036   1.031
 2704W        W 3701   0.733   4.972   4.744
 2705W        W 3702   6.109   1.360   2.777
 2706W        W 3703   4.303   6.481   6.838
 2707W        W 3704   2.069   5.553   3.951
 2708W        W 3705   1.171   3.364   5.533
 2709W        W 3706   7.431   1.347   7.389
 2710W        W 3707   2.386   1.780   2.018
 2711W        W 3708   2.782   3.308   4.014
 2712W        W 3709   3.462   4.041   7.919
 2713W        W 3710   5.130   1.191   1.112
 2714W        W 3711   6.228   2.505   5.386
 2715W        W 3712   3.890   6.814   6.146
 2716W        W 3713   2.451   1.045   0.253
 2717W        W 3714   5.116   0.269   2.912
 2718W        W 3715   0.544   5.485   5.421
 2719W        W 3716   4.003   5.369   0.467
 2720W        W 3717   4.037   6.694   4.344
 2721W        W 3718   3.452   6.677   6.000
 2722W        W 3719   5.389   0.482   1.891
 2723W        W 3720   7.941   6.055   5.316
 2724W        W 3721   2.360   6.946   4.741
 2725W        W 3722   2.878   4.314   0.739
 2726W        W 3723   6.525   1.137   3.432
 2727W        W 3724   1.075   6.621   1.856
 2728W        W 3725   0.939   4.389   0.443
 2729W        W 3726   4.791   4.159   7.194
 2730W        W 3727   5.113   3.858   7.496
 2731W        W 3728   3.123   7.930   0.926
 2732W        W 3729   5.332   0.055   0.376
 2733W        W 3730   4.658   5.974   0.586
 2734W        W 3731   7.689   6.814   0.833
 2735W        W 3732   6.705   0.463   6.850
 2736W        W 3733   0.723   0.353   7.704
 2737W        W 3734   2.138   5.733   4.407
 2738W        W 3735   6.503   0.341   6.225
 2739W        W 3736   6.703   6.035   2.894
 2740W        W 3737   5.022   0.460   7.970
 2741W        W 3738   4.594   5.518   1.316
 2742W        W 3739   3.435   4.136   1.398
 2743W        W 3740   3.846   3.499   2.137
 2744W        W 3741   3.785   3.769   4.648
 2745W        W 3742   5.190   1.025   7.842
 2746W        W 3743   3.707   1.731   7.446
 2747W        W 3744   4.641   0.832   4.653
 2748W        W 3745   5.799   1.516   6.729
 2749W        W 3746   2.385   2.815   7.083
 2750W        W 3747   1.796   7.496   0.951
 2751W        W 3748   7.297   4.839   4.492
 2752W        W 3749   7.584   6.276   1.574
 2753W        W 3750   2.254   3.860   6.311
 2754W        W 3751   6.126   0.209   3.525
 2755W        W 3752   5.687   3.382   2.159
 2756W        W 3753   4.016   6.331   0.237
 2757W        W 3754   4.801   5.121   1.656
 2758W        W 3755   4.336   7.618   4.809
 2759W        W 3756   3.910   0.086   4.446
 2760W        W 3757   6.373   4.905   7.174
 2761W        W 3758   1.493   0.848   2.986
 2762W        W 3759   2.774   5.314   6.002
 2763W        W 3760   7.739   7.456   0.833
 2764W        W 3761   0.761   0.940   5.366
 2765W        W 3762   0.982   3.436   3.674
 2766W        W 3763   3.916   3.835   3.337
 2767W        W 3764   6.796   2.900   6.122
 2768W        W 3765   7.473   1.552   3.920
 2769W        W 3766   6.432   6.538   1.062
 2770W        W 3767   0.220   1.001   5.359
 2771W        W 3768   0.941   3.356   0.176
 2772W        W 3769   2.667   6.644   2.569
 2773W        W 3770   4.850   1.182   3.539
 2774W        W 3771   3.463   1.956   2.433
 2775W        W 3772   0.250   1.530   1.152
 2776W        W 3773   4.635   5.937   0.069
 2777W        W 3774   4.637   7.129   1.814
 2778W        W 3775   4.674   3.536   2.702
 2779W        W 3776   0.630   6.261   1.041
 2780W        W 3777   7.152   6.783   3.943
 2781W        W 3778   3.817   5.864   3.572
 2782W        W 3779   2.049   2.758   4.720
 2783W        W 3780   5.943   0.509   3.955
 2784W        W 3781   0.722   6.187   4.321
 2785W        W 3782   7.444   6.524   6.521
 2786W        W 3783   2.067   6.578   5.473
 2787W        W 3784   7.135   2.193   3.270
 2788W        W 3785   2.512   7.486   5.134
 2789W        W 3786   0.387   2.810   1.919
 2790W        W 3787   7.310   4.114   7.364
 2791W        W 3788   6.324   0.187   4.276
 2792W        W 3789   1.866   7.262   3.833
 2793W        W 3790   6.491   6.887   2.316
 2794W        W 3791   7.849   5.118   0.833
 2795W        W 3792   2.445   7.618   5.628
 2796W        W 3793   4.318   3.264   4.015
 2797W        W 3794   6.852   3.196   4.480
 2798W        W 3795   6.506   5.397   6.891
 2799W        W 3796   7.929   3.969   3.127
 2800W        W 3797   6.516   0.948   7.197
 2801W        W 3798   2.589   0.126   4.024
 2802W        W 3799   3.821   6.636   1.848
 2803W        W 3800   7.194   2.185   2.763
 2804W        W 3801   0.609   2.654   3.781
 2805W        W 3802   5.449   3.143   4.019
 2806W        W 3803   3.265   4.502   4.341
 2807W        W 3804   5.207   5.080   7.280
 2808W        W 3805   3.690   2.010   3.009
 2809W        W 3806   5.853   0.378   1.704
 2810W        W 3807   2.337   2.456   4.426
 2811W        W 3808   4.266   5.567   3.487
 2812W        W 3809   7.176   4.189   5.776
 2813W        W 3810   3.824   4.257   4.527
 2814W        W 3811   4.083   6.909   0.739
 2815W        W 3812   6.551   6.337   3.385
 2816W        W 3813   4.449   3.025   0.132
 2817W        W 3814   6.007   2.740   4.951
 2818W        W 3815   2.389   6.198   5.755
 2819W        W 3816   7.035   2.623   3.040
 2820W        W 3817   7.060   0.992   6.108
 2821W        W 3818   2.876   2.267   4.482
 2822W        W 3819   7.997   7.211   6.058
 2823W        W 3820   5.536   1.543   0.854
 2824W        W 3821   7.716   4.618   6.419
 2825W        W 3822   5.772   2.082   7.512
 2826W        W 3823   7.672   3.288   5.198
 2827W        W 3824   3.922   3.847   5.160
 2828W        W 3825   6.164   0.806   7.529
 2829W        W 3826   4.176   1.545   6.597
 2830W        W 3827   3.814   1.110   4.758
 2831W        W 3828   7.371   1.735   2.626
 2832W        W 3829   7.463   6.667   4.408
 2833W        W 3830   2.099   4.948   1.359
 2834W        W 3831   1.979   2.925   5.196
 2835W        W 3832   3.567   2.859   4.372
 2836W        W 3833   0.837   1.481   6.899
 2837W        W 3834   3.885   4.587   3.527
 2838W        W 3835   5.523   0.151   3.237
 2839W        W 3836   3.007   3.151   4.463
 2840W        W 3837   2.301   0.606   3.159
 2841W        W 3838   5.200   2.707   0.208
 2842W        W 3839   0.113   2.912   1.570
 2843W        W 3840   6.683   3.322   2.064
 2844W        W 3841   4.895   6.566   0.445
 2845W        W 3842   0.468   0.338   3.131
 2846W        W 3843   1.134   0.975   3.303
 2847W        W 3844   2.335   1.946   4.406
 2848W        W 3845   3.106   0.945   3.996
 2849W        W 3846   6.253   7.750   4.413
 2850W        W 3847   6.458   6.458   7.333
 2851W        W 3848   1.186   5.948   7.210
 2852W        W 3849   4.661   3.696   6.931
 2853W        W 3850   3.393   6.711   5.111
 2854W        W 3851   5.439   6.812   5.209
 2855W        W 3852   0.477   4.680   7.818
 2856W        W 3853   6.272   7.621   7.019
 2857W        W 3854   4.463   2.393   4.383
 2858W        W 3855   2.908   0.750   2.849
 2859W        W 3856   6.942   4.132   2.518
 2860W        W 3857   6.941   1.260   5.189
 2861W        W 3858   0.193   4.663   2.090
 2862W        W 3859   6.306   3.879   4.150
 2863W        W 3860   4.621   4.786   3.974
 2864W        W 3861   5.298   5.955   6.066
 2865W        W 3862   1.740   0.626   7.870
 2866W        W 3863   6.875   7.217   4.084
 2867W        W 3864   2.720   4.298   5.305
 2868W        W 3865   3.233   1.042   4.825
 2869W        W 3866   0.961   5.005   7.124
 2870W        W 3867   7.381   6.703   1.307
 2871W        W 3868   7.847   5.814   1.770
 2872W        W 3869   4.836   0.853   6.407
 2873W        W 3870   1.339   0.179   6.485
 2874W        W 3871   7.211   5.433   1.623
 2875W        W 3872   3.147   5.745   5.887
 2876W        W 3873   1.844   2.214   4.828
 2877W        W 3874   3.966   4.713   7.561
 2878W        W 3875   3.231   0.502   3.725
 2879W        W 3876   3.846   1.435   2.737
 2880W        W 3877   5.974   6.562   0.828
 2881W        W 3878   1.681   2.878   2.678
 2882W        W 3879   3.556   5.427   6.785
 2883W        W 3880   7.958   3.791   7.836
 2884W        W 3881   3.629   0.469   7.455
 2885W        W 3882   1.492   4.113   0.441
 2886W        W 3883   4.536   6.672   1.547
 2887W        W 3884   5.346   3.719   1.866
 2888W        W 3885   6.950   4.984   4.108
 2889W        W 3886   7.131   6.392   4.615
 2890W        W 3887   6.548   6.166   1.709
 2891W        W 3888   0.735   3.389   2.605
 2892W        W 3889   6.677   0.579   0.207
 2893W        W 3890   6.740   5.774   6.680
 2894W        W 3891   1.848   4.244   7.305
 2895W        W 3892   0.741   7.139   2.825
 2896W        W 3893   7.347   5.199   5.365
 2897W        W 3894   0.199   4.902   2.766
 2898W        W 3895   0.103   1.926   5.540
 2899W        W 3896   3.458   1.292   6.421
 2900W        W 3897   4.924   7.144   5.798
 2901W        W 3898   1.753   3.227   0.841
 2902W        W 3899   0.011   0.347   6.489
 2903W        W 3900   5.957   1.783   5.860
 2904W        W 3901   4.403   5.594   6.848
 2905W        W 3902   0.038   1.318   7.673
 2906W        W 3903   1.552   3.619   4.057
 2907W        W 3904   1.999   6.453   4.619
 2908W        W 3905   4.345   6.035   1.101
 2909W        W 3906   7.672   7.282   0.382
 2910W        W 3907   1.700   0.416   3.184
 2911W        W 3908   2.213   7.194   0.983
 2912W        W 3909   6.255   0.468   0.821
 2913W        W 3910   6.146   2.516   3.667
 2914W        W 3911   5.005   1.973   5.732
 2915W        W 3912   0.570   4.590   2.863
 2916W        W 3913   3.708   5.585   0.030
 2917W        W 3914   5.793   5.722   6.116
 2918W        W 3915   4.357   3.115   6.390
 2919W        W 3916   1.294   7.133   2.618
 2920W        W 3917   7.555   5.064   6.251
 2921W        W 3918   5.662   0.735   5.122
 2922W        W 3919   3.298   2.570   5.788
 2923W        W 3920   4.334   2.648   4.820
 2924W        W 3921   6.690   1.098   1.598
 2925W        W 3922   3.062   3.244   3.540
 2926W        W 3923   0.322   1.238   0.690
 2927W        W 3924   1.297   7.142   5.489
 2928W        W 3925   7.196   4.701   4.959
 2929W        W 3926   4.532   1.628   5.858
 2930W        W 3927   7.669   7.724   6.275
 2931W        W 3928   0.802   6.497   3.760
 2932W        W 3929   3.797   1.379   0.326
 2933W        W 3930   6.368   0.883   3.857
 2934W        W 3931   6.456   0.607   3.388
 2935W        W 3932   7.161   5.829   5.822
 2936W        W 3933   3.023   0.525   4.222
 2937W        W 3934   0.586   1.288   5.096
 2938W        W 3935   7.395   2.613   2.506
 2939W        W 3936   3.339   1.113   0.121
 2940W        W 3937   3.579   7.078   5.626
 2941W        W 3938   1.069   6.801   5.081
 2942W        W 3939   3.610   6.196   1.519
 2943W        W 3940   1.576   7.372   4.357
 2944W        W 3941   0.269   3.535   4.534
 2945W        W 3942   4.395   6.037   6.675
 2946W        W 3943   2.917   0.717   1.827
 2947W        W 3944   7.936   0.045   3.374
 2948W        W 3945   4.820   1.380   1.488
 2949W        W 3946   5.654   5.918   6.928
 2950W        W 3947   3.329   4.732   1.585
 2951W        W 3948   5.061   1.881   6.200
 2952W        W 3949   6.287   3.901   7.209
 2953W        W 3950   5.218   7.600   6.861
 2954W        W 3951   6.414   6.968   6.282
 2955W        W 3952   6.056   3.713   0.443
 2956W        W 3953   2.456   2.126   3.058
 2957W        W 3954   4.299   4.938   0.303
 2958W        W 3955   4.623   3.627   1.139
 2959W        W 3956   4.431   3.785   3.552
 2960W        W 3957   3.115   7.387   7.729
 2961W        W 3958   1.918   2.978   6.992
 2962W        W 3959   6.150   2.592   5.916
 2963W        W 3960   5.071   7.037   0.369
 2964W        W 3961   1.485   7.108   5.036
 2965W        W 3962   7.614   2.536   4.288
 2966W        W 3963   2.879   2.641   1.273
 2967W        W 3964   3.604   3.791   1.787
 2968W        W 3965   5.474   0.937   0.396
 2969W        W 3966   4.891   3.539   4.947
 2970W        W 3967   2.626   5.089   2.396
 2971W        W 3968   4.911   2.512   5.450
 2972W        W 3969   5.991   7.197   0.743
 2973W        W 3970   1.639   2.667   7.350
 2974W        W 3971   1.709   2.541   5.395
 2975W        W 3972   6.757   7.780   4.432
 2976W        W 3973   1.482   4.089   7.696
 2977W        W 3974   7.366   2.889   4.010
 2978W        W 3975   0.833   4.579   5.175
 2979W        W 3976   0.157   5.371   4.594
 2980W        W 3977   7.425   1.828   6.828
 2981W        W 3978   5.314   5.322   3.530
 2982W        W 3979   3.005   1.747   0.189
 2983W        W 3980   4.818   4.703   6.672
 2984W        W 3981   6.049   3.731   6.692
 2985W        W 3982   7.040   2.248   7.471
 2986W        W 3983   2.837   2.853   1.729
 2987W        W 3984   2.291   0.105   0.592
 2988W        W 3985   5.591   5.385   7.412
 2989W        W 3986   0.816   2.248   7.328
 2990W        W 3987   5.689   2.749   3.395
 2991W        W 3988   0.989   7.181   5.893
 2992W        W 3989   6.030   7.377   6.199
 2993W        W 3990   4.826   7.426   5.397
 2994W        W 3991   3.940   7.340   2.486
 2995W        W 3992   1.952   6.073   6.014
 2996W        W 3993   3.271   4.436   5.319
 2997W        W 3994   5.992   7.705   1.618
 2998W        W 3995   4.662   3.089   7.772
 2999W        W 3996   6.305   3.372   2.875
 3000W        W 3997   4.055   2.844   4.184
 3001W        W 3998   3.670   7.549   7.346
 3002W        W 3999   3.107   4.155   6.390
 3003W        W 4000   7.077   2.092   3.833
 3004W        W 4001   4.392   3.644   4.943
 3005W        W 4002   7.484   5.038   0.358
 3006W        W 4003   2.018   1.156   6.546
 3007W        W 4004   6.581   4.574   5.619
 3008W        W 4005   0.141   1.204   3.687
 3009W        W 4006   2.468   4.585   7.133
 3010W        W 4007   6.267   2.332   7.882
 3011W        W 4008   5.195   6.807   6.129
 3012W        W 4009   1.967   3.374   7.300
 3013W        W 4010   2.384   6.654   7.205
 3014W        W 4011   3.565   6.423   2.238
 3015W        W 4012   4.917   6.443   7.328
 3016W        W 4013   0.673   7.302   0.692
 3017W        W 4014   7.359   0.249   4.208
 3018W        W 4015   1.656   6.815   3.614
 3019W        W 4016   1.911   3.441   6.744
 3020W        W 4017   3.941   3.366   5.051
 3021W        W 4018   6.840   0.130   1.750
 3022W        W 4019   7.356   0.399   6.885
 3023W        W 4020   3.847   1.849   3.887
 3024W        W 4021   2.627   0.199   2.204
 3025W        W 4022   7.965   4.383   6.936
 3026W        W 4023   4.598   7.895   6.204
 3027W        W 4024   5.238   3.845   6.036
 3028W        W 4025   6.464   1.507   1.426
 3029W        W 4026   0.529   2.351   0.221
 3030W        W 4027   3.222   3.049   1.437
 3031W        W 4028   1.865   7.054   5.545
 3032W        W 4029   1.870   4.466   4.112
 3033W        W 4030   4.787   4.708   5.009
 3034W        W 4031   0.538   6.621   2.092
 3035W        W 4032   2.206   2.504   5.098
 3036W        W 4033   0.199   2.664   2.385
 3037W        W 4034   2.388   2.894   3.322
 3038W        W 4035   4.762   3.283   6.702
 3039W        W 4036   0.011   6.640   2.133
 3040W        W 4037   0.424   4.086   2.870
 3041W        W 4038   4.348   6.071   2.605
 3042W        W 4039   2.374   0.800   3.608
 3043W        W 4040   0.866   5.105   7.626
 3044W        W 4041   7.648   3.556   7.534
 3045W        W 4042   4.329   6.924   2.543
 3046W        W 4043   0.096   2.253   4.014
 3047W        W 4044   4.731   5.343   5.846
 3048W        W 4045   7.823   6.377   6.175
 3049W        W 4046   7.460   3.734   4.470
 3050W        W 4047   1.655   6.398   5.748
 3051W        W 4048   4.495   2.886   6.830
 3052W        W 4049   7.342   1.875   1.439
 3053W        W 4050   6.106   5.019   0.801
 3054W        W 4051   2.340   2.748   1.443
 3055W        W 4052   4.225   0.833   5.986
 3056W        W 4053   0.754   7.033   5.499
 3057W        W 4054   3.506   3.556   3.897
 3058W        W 4055   4.222   5.349   7.994
 3059W        W 4056   2.484   0.855   1.479
 3060W        W 4057   2.493   0.891   5.441
 3061W        W 4058   1.903   4.814   6.494
 3062W        W 4059   7.211   6.690   6.082
 3063W        W 4060   5.457   1.338   7.069
 3064W        W 4061   6.236   3.846   4.679
 3065W        W 4062   0.298   7.556   0.935
 3066W        W 4063   5.305   1.714   6.755
 3067W        W 4064   6.219   6.928   7.135
 3068W        W 4065   6.839   7.016   2.689
 3069W        W 4066   7.820   0.238   1.153
 3070W        W 4067   0.391   1.970   7.560
 3071W        W 4068   0.704   3.334   5.832
 3072W        W 4069   7.118   1.325   4.286
 3073W        W 4070   6.967   3.881   2.949
 3074W        W 4071   7.328   3.863   2.312
 3075W        W 4072   3.482   7.576   5.630
 3076W        W 4073   4.550   0.363   7.039
 3077W        W 4074   0.932   1.406   5.423
 3078W        W 4075   2.476   6.900   6.206
 3079W        W 4076   6.257   4.506   7.463
 3080W        W 4077   6.836   0.740   3.996
 3081W        W 4078   3.410   7.503   3.382
 3082W        W 4079   2.245   3.002   6.036
 3083W        W 4080   1.736   3.761   4.586
 3084W        W 4081   7.561   1.375   5.985
 3085W        W 4082   5.838   1.012   6.843
 3086W        W 4083   4.542   6.351   3.727
 3087W        W 4084   0.253   3.344   5.539
 3088W        W 4085   5.395   5.350   4.708
 3089W        W 4086   1.146   1.681   6.469
 3090W        W 4087   1.109   6.546   2.791
 3091W        W 4088   0.761   4.388   6.603
 3092W        W 4089   0.823   2.017   2.145
 3093W        W 4090   6.092   0.274   1.284
 3094W        W 4091   2.240   0.195   2.898
 3095W        W 4092   6.921   1.503   6.044
 3096W        W 4093   2.090   6.952   1.632
 3097W        W 4094   0.868   6.791   2.487
 3098W        W 4095   3.458   7.616   0.611
 3099W        W 4096   6.345   4.669   4.617
 3100W        W 4097   3.035   5.330   1.266
 3101W        W 4098   5.119   0.728   4.881
 3102W        W 4099   3.309   3.119   2.635
 3103W        W 4100   2.782   0.521   3.309
 3104W        W 4101   7.962   3.768   6.359
 3105W        W 4102   0.510   7.646   1.389
 3106W        W 4103   5.491   2.630   6.781
 3107W        W 4104   1.843   4.437   7.851
 3108W        W 4105   0.082   3.144   2.636
 3109W        W 4106   6.795   1.871   3.414
 3110W        W 4107   5.071   3.741   6.542
 3111W        W 4108   2.142   2.488   6.770
 3112W        W 4109   1.977   7.542   3.071
 3113W        W 4110   4.433   2.152   2.679
 3114W        W 4111   7.477   0.812   1.332
 3115W        W 4112   3.612   2.999   2.269
 3116W        W 4113   6.862   1.258   6.570
 3117W        W 4114   3.182   2.071   6.049
 3118W        W 4115   1.807   0.803   4.299
 3119W        W 4116   5.569   3.620   3.944
 3120W        W 4117   4.315   4.419   0.137
 3121W        W 4118   7.057   2.002   0.095
 3122W        W 4119   6.481   4.268   0.208
 3123W        W 4120   3.480   3.995   5.478
 3124W        W 4121   0.999   3.896   0.369
 3125W        W 4122   1.253   6.368   6.075
 3126W        W 4123   4.509   2.980   2.716
 3127W        W 4124   7.290   4.529   1.008
 3128W        W 4125   0.824   3.061   4.860
 3129W        W 4126   4.312   5.065   4.226
 3130W        W 4127   2.838   2.910   7.734
 3131W        W 4128   4.730   5.030   2.123
 3132W        W 4129   5.302   4.533   3.096
 3133W        W 4130   5.535   5.510   2.482
 3134W        W 4131   7.332   1.354   6.404
 3135W        W 4132   3.270   3.087   4.014
 3136W        W 4133   7.820   1.633   1.681
 3137W        W 4134   3.135   4.905   0.947
 3138W        W 4135   1.015   7.828   1.460
 3139W        W 4136   1.355   5.842   7.738
 3140W        W 4137   5.179   2.493   0.708
 3141W        W 4138   4.732   0.192   6.578
 3142W        W 4139   6.118   1.947   1.675
 3143W        W 4140   5.865   0.965   1.984
 3144NA+     NA 4141   4.204   3.886   1.026
 3145NA+     NA 4142   5.923   0.865   0.157
 3146NA+     NA 4143   1.439   3.755   2.342
 3147NA+     NA 4144   0.068   0.328   2.342
 3148NA+     NA 4145   1.257   2.988   3.634
 3149NA+     NA 4146   5.677   6.043   5.750
 3150NA+     NA 4147   5.119   3.721   2.772
 3151NA+     NA 4148   1.016   1.658   3.062
 3152NA+     NA 4149   0.573   6.303   0.535
 3153NA+     NA 4150   0.731   3.864   1.693
 3154NA+     NA 4151   1.273   1.200   2.197
 3155NA+     NA 4152   6.441   5.309   7.423
 3156NA+     NA 4153   6.100   1.214   7.252
 3157NA+     NA 4154   2.383   7.524   6.951
 3158NA+     NA 4155   4.900   5.178   4.854
 3159NA+     NA 4156   1.396   5.128   1.171
 3160NA+     NA 4157   3.634   0.799   1.537
 3161NA+     NA 4158   5.187   5.137   2.376
 3162NA+     NA 4159   6.962   5.885   4.657
 3163NA+     NA 4160   2.286   5.863   6.341
 3164NA+     NA 4161   4.720   2.586   0.151
 3165NA+     NA 4162   5.543   6.725   3.066
 3166NA+     NA 4163   7.621   3.237   5.727
 3167NA+     NA 4164   5.750   2.488   7.144
 3168NA+     NA 4165   1.637   3.652   1.536
 3169NA+     NA 4166   4.700   5.783   3.570
 3170NA+     NA 4167   7.712   6.556   5.491
 3171NA+     NA 4168   0.603   3.088   3.538
 3172NA+     NA 4169   6.893   6.693   6.422
 3173NA+     NA 4170   4.491   2.303   7.446
 3174NA+     NA 4171   3.582   0.331   2.203
 3175NA+     NA 4172   1.819   5.613   0.564
 3176NA+     NA 4173   1.569   5.996   5.173
 3177NA+     NA 4174   5.143   1.691   1.760
 3178NA+     NA 4175   3.817   0.298   5.391
 3179NA+     NA 4176   4.487   5.108   6.605
 3180NA+     NA 4177   4.503   2.133   5.680
 3181NA+     NA 4178   6.741   2.980   6.628
 3182NA+     NA 4179   0.833   7.622   6.778
 3183NA+     NA 4180   0.300   4.453   6.463
 3184NA+     NA 4181   2.815   2.610   7.300
 3185NA+     NA 4182   5.171   7.381   2.880
 3186NA+     NA 4183   4.984   0.197   5.627
 3187NA+     NA 4184   2.006   2.364   7.588
 3188NA+     NA 4185   3.573   2.011   3.508
 3189NA+     NA 4186   6.542   2.731   2.102
 3190NA+     NA 4187   4.021   1.985   0.088
 3191NA+     NA 4188   7.396   2.144   2.285
 3192NA+     NA 4189   1.996   0.039   3.378
 3193NA+     NA 4190   6.670   2.988   3.101
 3194NA+     NA 4191   4.177   4.628   3.946
 3195NA+     NA 4192   2.848   5.053   4.266
 3196NA+     NA 4193   4.512   0.027   1.725
 3197NA+     NA 4194   6.074   4.177   2.809
 3198NA+     NA 4195   4.886   3.186   5.348
 3199NA+     NA 4196   3.148   2.064   6.582
 3200NA+     NA 4197   7.590   4.065   6.029
 3201NA+     NA 4198   7.161   2.308   6.846
 3202NA+     NA 4199   2.386   7.083   7.388
 3203NA+     NA 4200   1.082   0.725   7.076
 3204NA+     NA 4201   2.739   3.922   6.057
 3205NA+     NA 4202   1.537   7.087   1.849
 3206NA+     NA 4203   2.121   3.572   5.233
 3207NA+     NA 4204   2.827   0.854   6.900
 3208NA+     NA 4205   0.456   6.649   3.371
 3209NA+     NA 4206   5.980   0.222   6.923
 3210NA+     NA 4207   0.806   3.828   6.025
 3211NA+     NA 4208   1.136   2.339   1.479
 3212NA+     NA 4209   6.605   0.380   5.674
 3213NA+     NA 4210   6.952   7.493   2.838
 3214NA+     NA 4211   5.764   7.248   1.329
 3215NA+     NA 4212   5.739   3.897   4.912
 3216NA+     NA 4213   4.997   3.088   4.195
 3217NA+     NA 4214   1.044   1.307   4.171
 3218NA+     NA 4215   4.833   2.440   3.589
 3219NA+     NA 4216   3.419   3.750   6.563
 3220NA+     NA 4217   1.582   1.811   6.262
 3221NA+     NA 4218   0.735   2.176   3.923
 3222NA+     NA 4219   1.422   7.697   1.736
 3223NA+     NA 4220   2.339   1.238   5.069
 3224NA+     NA 4221   0.361   1.744   7.038
 3225NA+     NA 4222   0.565   5.424   2.066
 3226NA+     NA 4223   1.558   7.899   6.714
 3227NA+     NA 4224   1.393   2.884   0.928
 3228NA+     NA 4225   2.683   4.563   2.004
 3229NA+     NA 4226   5.279   4.300   5.811
 3230NA+     NA 4227   5.407   0.866   7.115
 3231NA+     NA 4228   3.636   7.107   4.286
 3232NA+     NA 4229   7.997   0.619   5.394
 3233NA+     NA 4230   5.206   1.422   7.569
 3234NA+     NA 4231   4.180   1.537   4.027
 3235NA+     NA 4232   5.725   3.392   1.641
 3236NA+     NA 4233   6.544   4.202   4.525
 3237NA+     NA 4234   4.835   6.747   6.495
 3238NA+     NA 4235   2.260   6.919   2.093
 3239NA+     NA 4236   7.116   3.414   2.333
 3240NA+     NA 4237   2.032   4.469   1.172
 3241NA+     NA 4238   5.249   6.548   4.832
 3242NA+     NA 4239   6.792   4.912   4.668
 3243NA+     NA 4240   6.110   6.320   6.552
   8.00000   8.00000   8.00000
