; MARTINI (martini22) Coarse Grained topology file for "TYR-HIS-TYR"
; Created by py version 2.4 
; Using the following options:  -f ../2_Creating_coordinates/TYR-HIS-TYR_aa.pdb -name TYR-HIS-TYR -o TYR-HIS-TYR.top -x TYR-HIS-TYR.pdb -ff martini22 -ss EEE -nt
; Sequence:
; YHY
; Secondary Structure:
; EEE

[ moleculetype ]
; Name         Exclusions
TYR-HIS-TYR       1

[ atoms ]
    1   Nda     1   TYR    BB     1  0.0000 ; E
    2   SC4     1   TYR   SC1     2  0.0000 ; E
    3   SC4     1   TYR   SC2     3  0.0000 ; E
    4   SP1     1   TYR   SC3     4  0.0000 ; E
    5   Nda     2   HIS    BB     5  0.0000 ; E
    6   SC4     2   HIS   SC1     6  0.0000 ; E
    7   SP1     2   HIS   SC2     7  0.0000 ; E
    8   SP1     2   HIS   SC3     8  0.0000 ; E
    9   Nda     3   TYR    BB     9  0.0000 ; E
   10   SC4     3   TYR   SC1    10  0.0000 ; E
   11   SC4     3   TYR   SC2    11  0.0000 ; E
   12   SP1     3   TYR   SC3    12  0.0000 ; E

[ bonds ]
; Backbone bonds
    1     5      1   0.35000  1250 ; TYR(E)-HIS(E)
    5     9      1   0.35000  1250 ; HIS(E)-TYR(E)
; Sidechain bonds
    1     2      1   0.32000  5000 ; TYR
    5     6      1   0.32000  7500 ; HIS
    9    10      1   0.32000  5000 ; TYR

[ constraints ]
    2     3      1   0.27000 ; TYR
    2     4      1   0.27000 ; TYR
    3     4      1   0.27000 ; TYR
    6     7      1   0.27000 ; HIS
    6     8      1   0.27000 ; HIS
    7     8      1   0.27000 ; HIS
   10    11      1   0.27000 ; TYR
   10    12      1   0.27000 ; TYR
   11    12      1   0.27000 ; TYR

[ angles ]
; Backbone angles
    1     5     9      2    134    25 ; TYR(E)-HIS(E)-TYR(E)
; Backbone-sidechain angles
    2     1     5      2    100    25 ; TYR(E)-HIS(E) SBB
    1     5     6      2    100    25 ; TYR(E)-HIS(E) SBB
    5     9    10      2    100    25 ; HIS(E)-TYR(E) SBB
; Sidechain angles
    1     2     3      2    150    50 ; TYR
    1     2     4      2    150    50 ; TYR
    5     6     7      2    150    50 ; HIS
    5     6     8      2    150    50 ; HIS
    9    10    11      2    150    50 ; TYR
    9    10    12      2    150    50 ; TYR

[ dihedrals ]
; Backbone dihedrals
; Sidechain improper dihedrals
    1     3     4     2      2      0    50 ; TYR
    5     7     8     6      2      0    50 ; HIS
    9    11    12    10      2      0    50 ; TYR