Martini system from ../2_Creating_coordinates/TYR-ALA-TYR_aa.pdb
 4142
    1TYR     BB    1   3.000   4.984   7.448
    1TYR    SC1    2   3.265   5.056   7.594
    1TYR    SC2    3   3.166   5.116   7.805
    1TYR    SC3    4   3.352   5.014   7.925
    2ALA     BB    5   2.885   4.797   7.746
    3TYR     BB    6   2.780   4.886   8.053
    3TYR    SC1    7   3.014   4.894   8.227
    3TYR    SC2    8   2.938   4.953   8.448
    3TYR    SC3    9   3.093   4.793   8.546
    1TYR     BB   10   8.310   1.118   1.472
    1TYR    SC1   11   8.060   1.188   1.645
    1TYR    SC2   12   7.907   1.219   1.462
    1TYR    SC3   13   7.728   1.115   1.590
    2ALA     BB   14   8.104   0.893   1.263
    3TYR     BB   15   7.864   0.944   1.032
    3TYR    SC1   16   7.608   0.945   1.170
    3TYR    SC2   17   7.436   0.975   1.004
    3TYR    SC3   18   7.293   0.814   1.118
    1TYR     BB   19   7.013   5.961   5.367
    1TYR    SC1   20   6.994   6.125   5.630
    1TYR    SC2   21   6.944   5.941   5.776
    1TYR    SC3   22   7.082   6.038   5.951
    2ALA     BB   23   7.216   5.704   5.542
    3TYR     BB   24   7.147   5.469   5.772
    3TYR    SC1   25   7.188   5.589   6.035
    3TYR    SC2   26   7.145   5.419   6.200
    3TYR    SC3   27   7.333   5.496   6.333
    1TYR     BB   28   4.678   3.566   2.131
    1TYR    SC1   29   4.497   3.318   2.080
    1TYR    SC2   30   4.429   3.285   2.309
    1TYR    SC3   31   4.205   3.225   2.237
    2ALA     BB   32   4.418   3.713   2.350
    3TYR     BB   33   4.303   3.640   2.657
    3TYR    SC1   34   4.081   3.454   2.626
    3TYR    SC2   35   3.995   3.407   2.846
    3TYR    SC3   36   3.768   3.413   2.762
    1TYR     BB   37   7.013   3.578   6.164
    1TYR    SC1   38   7.152   3.783   5.976
    1TYR    SC2   39   7.164   3.964   6.134
    1TYR    SC3   40   7.383   4.027   6.050
    2ALA     BB   41   7.245   3.670   6.437
    3TYR     BB   42   7.278   3.941   6.634
    3TYR    SC1   43   7.464   4.123   6.502
    3TYR    SC2   44   7.493   4.314   6.645
    3TYR    SC3   45   7.730   4.320   6.594
    1TYR     BB   46   4.990   0.904   5.811
    1TYR    SC1   47   4.768   0.966   5.602
    1TYR    SC2   48   4.700   0.738   5.564
    1TYR    SC3   49   4.468   0.806   5.547
    2ALA     BB   50   4.763   0.667   5.983
    3TYR     BB   51   4.644   0.362   5.908
    3TYR    SC1   52   4.393   0.398   5.765
    3TYR    SC2   53   4.304   0.179   5.717
    3TYR    SC3   54   4.079   0.256   5.767
    1TYR     BB   55   2.499   2.269   0.732
    1TYR    SC1   56   2.412   2.487   0.527
    1TYR    SC2   57   2.606   2.471   0.384
    1TYR    SC3   58   2.467   2.502   0.187
    2ALA     BB   59   2.601   2.047   0.454
    3TYR     BB   60   2.856   2.049   0.235
    3TYR    SC1   61   2.768   2.196  -0.001
    3TYR    SC2   62   2.948   2.193  -0.160
    3TYR    SC3   63   2.791   2.160  -0.342
    1TYR     BB   64   4.983   0.133   4.032
    1TYR    SC1   65   5.163   0.022   3.804
    1TYR    SC2   66   4.986  -0.074   3.671
    1TYR    SC3   67   5.099  -0.005   3.467
    2ALA     BB   68   4.745   0.265   3.781
    3TYR     BB   69   4.523   0.123   3.572
    3TYR    SC1   70   4.660   0.070   3.321
    3TYR    SC2   71   4.499  -0.026   3.169
    3TYR    SC3   72   4.591   0.104   2.985
    1TYR     BB   73   2.444   1.337   2.294
    1TYR    SC1   74   2.612   1.228   2.056
    1TYR    SC2   75   2.426   1.180   1.910
    1TYR    SC3   76   2.555   1.255   1.717
    2ALA     BB   77   2.238   1.536   2.060
    3TYR     BB   78   2.003   1.460   1.832
    3TYR    SC1   79   2.139   1.418   1.577
    3TYR    SC2   80   1.970   1.370   1.412
    3TYR    SC3   81   2.087   1.505   1.248
    1TYR     BB   82   2.113   4.722   5.781
    1TYR    SC1   83   2.309   4.951   5.704
    1TYR    SC2   84   2.345   4.882   5.476
    1TYR    SC3   85   2.348   5.114   5.403
    2ALA     BB   86   1.930   4.770   5.463
    3TYR     BB   87   2.000   4.703   5.141
    3TYR    SC1   88   2.129   4.938   5.028
    3TYR    SC2   89   2.174   4.892   4.796
    3TYR    SC3   90   2.110   5.119   4.736
    1TYR     BB   91   7.303   4.541   7.976
    1TYR    SC1   92   7.467   4.280   7.933
    1TYR    SC2   93   7.403   4.243   7.704
    1TYR    SC3   94   7.627   4.165   7.652
    2ALA     BB   95   7.421   4.669   7.649
    3TYR     BB   96   7.354   4.590   7.329
    3TYR    SC1   97   7.546   4.387   7.247
    3TYR    SC2   98   7.502   4.335   7.016
    3TYR    SC3   99   7.741   4.322   6.970
    1TYR     BB  100   0.520   6.668   0.394
    1TYR    SC1  101   0.716   6.734   0.627
    1TYR    SC2  102   0.602   6.931   0.705
    1TYR    SC3  103   0.651   6.871   0.936
    2ALA     BB  104   0.232   6.732   0.617
    3TYR     BB  105   0.098   7.010   0.752
    3TYR    SC1  106   0.225   7.052   1.010
    3TYR    SC2  107   0.125   7.247   1.109
    3TYR    SC3  108   0.126   7.141   1.328
    1TYR     BB  109   2.100   7.333   7.771
    1TYR    SC1  110   1.964   7.131   7.577
    1TYR    SC2  111   1.801   7.283   7.487
    1TYR    SC3  112   1.826   7.184   7.267
    2ALA     BB  113   2.102   7.589   7.504
    3TYR     BB  114   1.863   7.775   7.357
    3TYR    SC1  115   1.766   7.627   7.126
    3TYR    SC2  116   1.599   7.763   7.017
    3TYR    SC3  117   1.684   7.697   6.799
    1TYR     BB  118   3.074   1.136   4.940
    1TYR    SC1  119   2.821   1.245   5.085
    1TYR    SC2  120   2.853   1.125   5.291
    1TYR    SC3  121   2.773   1.316   5.418
    2ALA     BB  122   3.275   1.191   5.245
    3TYR     BB  123   3.290   1.040   5.545
    3TYR    SC1  124   3.102   1.175   5.722
    3TYR    SC2  125   3.117   1.071   5.938
    3TYR    SC3  126   3.098   1.287   6.047
    1TYR     BB  127   4.831   6.524   7.422
    1TYR    SC1  128   4.756   6.348   7.177
    1TYR    SC2  129   4.953   6.394   7.047
    1TYR    SC3  130   4.959   6.164   6.968
    2ALA     BB  131   5.176   6.389   7.415
    3TYR     BB  132   5.438   6.431   7.209
    3TYR    SC1  133   5.422   6.226   7.003
    3TYR    SC2  134   5.614   6.252   6.859
    3TYR    SC3  135   5.639   6.011   6.844
    1TYR     BB  136   4.643   2.511   0.748
    1TYR    SC1  137   4.608   2.787   0.887
    1TYR    SC2  138   4.492   2.707   1.082
    1TYR    SC3  139   4.610   2.865   1.222
    2ALA     BB  140   4.746   2.360   1.069
    3TYR     BB  141   4.584   2.281   1.353
    3TYR    SC1  142   4.598   2.512   1.530
    3TYR    SC2  143   4.487   2.453   1.735
    3TYR    SC3  144   4.657   2.569   1.864
    1TYR     BB  145   1.931   2.644   7.031
    1TYR    SC1  146   2.130   2.787   7.224
    1TYR    SC2  147   1.970   2.836   7.397
    1TYR    SC3  148   2.137   2.790   7.568
    2ALA     BB  149   1.789   2.456   7.316
    3TYR     BB  150   1.593   2.539   7.577
    3TYR    SC1  151   1.768   2.614   7.797
    3TYR    SC2  152   1.628   2.667   7.986
    3TYR    SC3  153   1.784   2.557   8.136
    1TYR     BB  154   5.741   4.877   0.444
    1TYR    SC1  155   5.667   5.166   0.533
    1TYR    SC2  156   5.448   5.114   0.618
    1TYR    SC3  157   5.479   5.271   0.801
    2ALA     BB  158   5.610   4.744   0.763
    3TYR     BB  159   5.301   4.706   0.892
    3TYR    SC1  160   5.238   4.949   1.040
    3TYR    SC2  161   5.019   4.919   1.138
    3TYR    SC3  162   5.092   5.028   1.342
    1TYR     BB  163   0.066   2.783   7.762
    1TYR    SC1  164   0.152   3.054   7.635
    1TYR    SC2  165   0.244   2.962   7.432
    1TYR    SC3  166   0.157   3.149   7.304
    2ALA     BB  167  -0.074   2.674   7.437
    3TYR     BB  168   0.062   2.580   7.144
    3TYR    SC1  169   0.090   2.818   6.979
    3TYR    SC2  170   0.181   2.750   6.767
    3TYR    SC3  171   0.035   2.905   6.651
    1TYR     BB  172   4.432   0.359   5.057
    1TYR    SC1  173   4.439   0.596   5.260
    1TYR    SC2  174   4.615   0.720   5.152
    1TYR    SC3  175   4.504   0.929   5.205
    2ALA     BB  176   4.447   0.599   4.776
    3TYR     BB  177   4.688   0.797   4.650
    3TYR    SC1  178   4.668   1.055   4.784
    3TYR    SC2  179   4.837   1.199   4.690
    3TYR    SC3  180   4.683   1.387   4.694
    1TYR     BB  181   0.912   2.361   5.587
    1TYR    SC1  182   1.184   2.494   5.516
    1TYR    SC2  183   1.188   2.650   5.699
    1TYR    SC3  184   1.428   2.619   5.724
    2ALA     BB  185   1.012   2.342   5.943
    3TYR     BB  186   1.051   2.570   6.187
    3TYR    SC1  187   1.327   2.662   6.179
    3TYR    SC2  188   1.356   2.820   6.358
    3TYR    SC3  189   1.575   2.729   6.408
    1TYR     BB  190   1.868   7.682   0.992
    1TYR    SC1  191   2.029   7.421   0.940
    1TYR    SC2  192   2.248   7.520   0.948
    1TYR    SC3  193   2.336   7.325   1.062
    2ALA     BB  194   2.103   7.775   1.262
    3TYR     BB  195   2.422   7.881   1.268
    3TYR    SC1  196   2.593   7.646   1.287
    3TYR    SC2  197   2.821   7.723   1.298
    3TYR    SC3  198   2.873   7.554   1.464
    1TYR     BB  199   3.477   7.642  -0.025
    1TYR    SC1  200   3.274   7.468   0.133
    1TYR    SC2  201   3.422   7.406   0.313
    1TYR    SC3  202   3.240   7.424   0.473
    2ALA     BB  203   3.586   7.803   0.290
    3TYR     BB  204   3.766   7.701   0.555
    3TYR    SC1  205   3.579   7.591   0.750
    3TYR    SC2  206   3.707   7.523   0.943
    3TYR    SC3  207   3.534   7.607   1.091
    1TYR     BB  208   6.475   0.494   6.708
    1TYR    SC1  209   6.179   0.408   6.756
    1TYR    SC2  210   6.209   0.328   6.981
    1TYR    SC3  211   5.992   0.418   7.045
    2ALA     BB  212   6.483   0.653   7.042
    3TYR     BB  213   6.490   0.535   7.357
    3TYR    SC1  214   6.214   0.510   7.447
    3TYR    SC2  215   6.219   0.431   7.675
    3TYR    SC3  216   6.035   0.580   7.733
    1TYR     BB  217   4.365   7.652   2.045
    1TYR    SC1  218   4.134   7.579   2.240
    1TYR    SC2  219   4.272   7.498   2.420
    1TYR    SC3  220   4.122   7.597   2.584
    2ALA     BB  221   4.551   7.810   2.323
    3TYR     BB  222   4.714   7.692   2.592
    3TYR    SC1  223   4.523   7.679   2.812
    3TYR    SC2  224   4.642   7.600   3.007
    3TYR    SC3  225   4.521   7.757   3.147
    1TYR     BB  226   0.973   7.867   6.594
    1TYR    SC1  227   0.898   8.093   6.394
    1TYR    SC2  228   1.034   8.015   6.211
    1TYR    SC3  229   0.862   8.080   6.052
    2ALA     BB  230   0.932   7.614   6.327
    3TYR     BB  231   1.108   7.533   6.052
    3TYR    SC1  232   1.004   7.692   5.831
    3TYR    SC2  233   1.127   7.629   5.633
    3TYR    SC3  234   0.923   7.639   5.500
    1TYR     BB  235   2.819   2.990   1.100
    1TYR    SC1  236   2.804   2.910   0.800
    1TYR    SC2  237   2.681   3.103   0.725
    1TYR    SC3  238   2.810   3.110   0.519
    2ALA     BB  239   2.909   3.336   1.005
    3TYR     BB  240   2.740   3.592   0.868
    3TYR    SC1  241   2.770   3.573   0.579
    3TYR    SC2  242   2.655   3.760   0.481
    3TYR    SC3  243   2.832   3.789   0.318
    1TYR     BB  244   6.153   7.109   3.558
    1TYR    SC1  245   6.216   6.826   3.669
    1TYR    SC2  246   6.278   6.895   3.891
    1TYR    SC3  247   6.170   6.699   3.985
    2ALA     BB  248   5.967   7.190   3.868
    3TYR     BB  249   6.059   7.253   4.185
    3TYR    SC1  250   6.059   6.998   4.328
    3TYR    SC2  251   6.119   7.044   4.557
    3TYR    SC3  252   5.955   6.883   4.635
    1TYR     BB  253   6.442   3.630   0.907
    1TYR    SC1  254   6.250   3.784   0.718
    1TYR    SC2  255   6.393   3.784   0.524
    1TYR    SC3  256   6.202   3.750   0.379
    2ALA     BB  257   6.516   3.388   0.638
    3TYR     BB  258   6.690   3.403   0.350
    3TYR    SC1  259   6.505   3.484   0.140
    3TYR    SC2  260   6.629   3.489  -0.067
    3TYR    SC3  261   6.440   3.393  -0.185
    1TYR     BB  262   2.636   2.327   2.627
    1TYR    SC1  263   2.824   2.562   2.704
    1TYR    SC2  264   2.704   2.633   2.900
    1TYR    SC3  265   2.912   2.681   3.015
    2ALA     BB  266   2.626   2.218   2.981
    3TYR     BB  267   2.483   2.341   3.259
    3TYR    SC1  268   2.676   2.520   3.386
    3TYR    SC2  269   2.576   2.603   3.588
    3TYR    SC3  270   2.788   2.583   3.705
    1TYR     BB  271   5.352   2.586   8.033
    1TYR    SC1  272   5.476   2.834   7.892
    1TYR    SC2  273   5.578   2.715   7.709
    1TYR    SC3  274   5.522   2.896   7.556
    2ALA     BB  275   5.233   2.459   7.706
    3TYR     BB  276   5.386   2.324   7.439
    3TYR    SC1  277   5.453   2.542   7.257
    3TYR    SC2  278   5.557   2.444   7.063
    3TYR    SC3  279   5.438   2.599   6.918
    1TYR     BB  280   6.554   1.964   3.567
    1TYR    SC1  281   6.643   1.666   3.572
    1TYR    SC2  282   6.450   1.581   3.689
    1TYR    SC3  283   6.452   1.380   3.552
    2ALA     BB  284   6.213   1.862   3.468
    3TYR     BB  285   5.958   1.711   3.627
    3TYR    SC1  286   5.987   1.424   3.586
    3TYR    SC2  287   5.801   1.317   3.695
    3TYR    SC3  288   5.780   1.160   3.511
    1TYR     BB  289   3.998   5.574   7.286
    1TYR    SC1  290   3.750   5.651   7.458
    1TYR    SC2  291   3.822   5.545   7.662
    1TYR    SC3  292   3.731   5.728   7.793
    2ALA     BB  293   4.222   5.669   7.565
    3TYR     BB  294   4.293   5.533   7.864
    3TYR    SC1  295   4.108   5.648   8.059
    3TYR    SC2  296   4.163   5.556   8.274
    3TYR    SC3  297   4.126   5.771   8.379
    1TYR     BB  298   2.355   0.404   2.361
    1TYR    SC1  299   2.425   0.707   2.335
    1TYR    SC2  300   2.344   0.774   2.552
    1TYR    SC3  301   2.529   0.929   2.577
    2ALA     BB  302   2.494   0.400   2.704
    3TYR     BB  303   2.392   0.527   2.999
    3TYR    SC1  304   2.506   0.793   3.025
    3TYR    SC2  305   2.439   0.881   3.238
    3TYR    SC3  306   2.659   0.979   3.271
    1TYR     BB  307   2.708   7.196   6.247
    1TYR    SC1  308   2.815   6.919   6.155
    1TYR    SC2  309   3.049   6.970   6.176
    1TYR    SC3  310   3.094   6.746   6.259
    2ALA     BB  311   2.950   7.198   6.527
    3TYR     BB  312   3.284   7.236   6.547
    3TYR    SC1  313   3.404   6.972   6.529
    3TYR    SC2  314   3.642   6.999   6.550
    3TYR    SC3  315   3.656   6.799   6.688
    1TYR     BB  316   7.750   4.363   1.003
    1TYR    SC1  317   7.517   4.319   0.802
    1TYR    SC2  318   7.500   4.080   0.830
    1TYR    SC3  319   7.258   4.092   0.813
    2ALA     BB  320   7.585   4.139   1.247
    3TYR     BB  321   7.534   3.807   1.263
    3TYR    SC1  322   7.279   3.751   1.134
    3TYR    SC2  323   7.240   3.514   1.151
    3TYR    SC3  324   7.005   3.552   1.197
    1TYR     BB  325   3.853   4.565   4.370
    1TYR    SC1  326   4.154   4.588   4.445
    1TYR    SC2  327   4.130   4.532   4.678
    1TYR    SC3  328   4.338   4.407   4.674
    2ALA     BB  329   3.828   4.249   4.562
    3TYR     BB  330   3.829   4.175   4.890
    3TYR    SC1  331   4.106   4.126   4.968
    3TYR    SC2  332   4.106   4.066   5.202
    3TYR    SC3  333   4.275   3.897   5.162
    1TYR     BB  334   5.261   6.165   4.831
    1TYR    SC1  335   4.984   6.081   4.946
    1TYR    SC2  336   4.870   6.061   4.735
    1TYR    SC3  337   4.749   5.867   4.815
    2ALA     BB  338   5.235   5.902   4.572
    3TYR     BB  339   5.048   5.863   4.296
    3TYR    SC1  340   4.805   5.721   4.373
    3TYR    SC2  341   4.674   5.688   4.174
    3TYR    SC3  342   4.613   5.465   4.248
    1TYR     BB  343   7.169   1.889   6.553
    1TYR    SC1  344   7.136   1.704   6.305
    1TYR    SC2  345   7.177   1.872   6.138
    1TYR    SC3  346   7.299   1.713   6.002
    2ALA     BB  347   7.472   2.039   6.402
    3TYR     BB  348   7.525   2.249   6.145
    3TYR    SC1  349   7.564   2.087   5.906
    3TYR    SC2  350   7.608   2.237   5.723
    3TYR    SC3  351   7.777   2.086   5.636
    1TYR     BB  352   0.568   3.627   1.001
    1TYR    SC1  353   0.690   3.499   0.746
    1TYR    SC2  354   0.750   3.704   0.636
    1TYR    SC3  355   0.955   3.604   0.553
    2ALA     BB  356   0.855   3.860   1.023
    3TYR     BB  357   0.952   4.128   0.844
    3TYR    SC1  358   1.128   4.032   0.632
    3TYR    SC2  359   1.203   4.224   0.508
    3TYR    SC3  360   1.426   4.130   0.490
    1TYR     BB  361   3.350   6.736   4.752
    1TYR    SC1  362   3.483   6.606   4.503
    1TYR    SC2  363   3.300   6.461   4.444
    1TYR    SC3  364   3.341   6.500   4.208
    2ALA     BB  365   3.035   6.778   4.562
    3TYR     BB  366   2.798   6.566   4.452
    3TYR    SC1  367   2.873   6.482   4.184
    3TYR    SC2  368   2.700   6.335   4.103
    3TYR    SC3  369   2.715   6.435   3.882
    1TYR     BB  370   0.881   4.823   5.492
    1TYR    SC1  371   0.807   4.815   5.794
    1TYR    SC2  372   0.757   5.049   5.817
    1TYR    SC3  373   0.572   4.998   5.967
    2ALA     BB  374   0.586   5.035   5.423
    3TYR     BB  375   0.508   5.356   5.490
    3TYR    SC1  376   0.373   5.361   5.748
    3TYR    SC2  377   0.311   5.590   5.793
    3TYR    SC3  378   0.098   5.518   5.884
    1TYR     BB  379   7.174   4.466   5.119
    1TYR    SC1  380   7.036   4.727   5.215
    1TYR    SC2  381   7.001   4.824   4.997
    1TYR    SC3  382   6.785   4.911   5.066
    2ALA     BB  383   6.918   4.427   4.854
    3TYR     BB  384   6.854   4.588   4.566
    3TYR    SC1  385   6.667   4.804   4.625
    3TYR    SC2  386   6.616   4.915   4.418
    3TYR    SC3  387   6.383   4.936   4.483
    1TYR     BB  388   3.434   5.127   5.523
    1TYR    SC1  389   3.158   4.998   5.461
    1TYR    SC2  390   3.178   4.811   5.612
    1TYR    SC3  391   2.943   4.828   5.669
    2ALA     BB  392   3.376   5.077   5.886
    3TYR     BB  393   3.372   4.808   6.087
    3TYR    SC1  394   3.099   4.708   6.095
    3TYR    SC2  395   3.095   4.519   6.244
    3TYR    SC3  396   2.881   4.591   6.334
    1TYR     BB  397   7.812   6.025   3.409
    1TYR    SC1  398   7.871   6.315   3.313
    1TYR    SC2  399   7.690   6.331   3.155
    1TYR    SC3  400   7.653   6.563   3.216
    2ALA     BB  401   7.451   6.106   3.432
    3TYR     BB  402   7.209   6.161   3.206
    3TYR    SC1  403   7.204   6.447   3.150
    3TYR    SC2  404   7.026   6.488   2.993
    3TYR    SC3  405   6.964   6.691   3.110
    1TYR     BB  406   7.595   7.416   1.992
    1TYR    SC1  407   7.572   7.384   2.301
    1TYR    SC2  408   7.805   7.419   2.351
    1TYR    SC3  409   7.748   7.543   2.551
    2ALA     BB  410   7.812   7.713   2.037
    3TYR     BB  411   8.129   7.757   2.141
    3TYR    SC1  412   8.122   7.797   2.430
    3TYR    SC2  413   8.348   7.836   2.503
    3TYR    SC3  414   8.272   8.007   2.657
    1TYR     BB  415   6.740   0.665   5.046
    1TYR    SC1  416   6.619   0.411   5.179
    1TYR    SC2  417   6.815   0.349   5.306
    1TYR    SC3  418   6.676   0.280   5.492
    2ALA     BB  419   6.884   0.768   5.371
    3TYR     BB  420   7.138   0.655   5.561
    3TYR    SC1  421   7.029   0.457   5.744
    3TYR    SC2  422   7.210   0.381   5.884
    3TYR    SC3  423   7.063   0.378   6.078
    1TYR     BB  424   8.090   2.658   3.466
    1TYR    SC1  425   7.836   2.752   3.620
    1TYR    SC2  426   7.812   2.963   3.507
    1TYR    SC3  427   7.570   2.940   3.509
    2ALA     BB  428   7.938   2.767   3.146
    3TYR     BB  429   7.875   3.068   3.009
    3TYR    SC1  430   7.606   3.146   3.090
    3TYR    SC2  431   7.558   3.358   2.986
    3TYR    SC3  432   7.330   3.288   2.940
    1TYR     BB  433   4.325   5.505   3.593
    1TYR    SC1  434   4.356   5.812   3.554
    1TYR    SC2  435   4.129   5.871   3.607
    1TYR    SC3  436   4.204   6.071   3.723
    2ALA     BB  437   4.137   5.562   3.906
    3TYR     BB  438   3.829   5.678   3.976
    3TYR    SC1  439   3.849   5.967   4.011
    3TYR    SC2  440   3.630   6.049   4.067
    3TYR    SC3  441   3.725   6.203   4.228
    1TYR     BB  442   2.212   3.055   5.611
    1TYR    SC1  443   2.401   3.219   5.796
    1TYR    SC2  444   2.567   3.269   5.629
    1TYR    SC3  445   2.597   3.492   5.722
    2ALA     BB  446   2.246   3.312   5.347
    3TYR     BB  447   2.495   3.401   5.139
    3TYR    SC1  448   2.650   3.609   5.272
    3TYR    SC2  449   2.824   3.677   5.120
    3TYR    SC3  450   2.793   3.909   5.185
    1TYR     BB  451   2.694   1.701   3.788
    1TYR    SC1  452   2.673   1.794   4.085
    1TYR    SC2  453   2.459   1.693   4.131
    1TYR    SC3  454   2.533   1.634   4.355
    2ALA     BB  455   2.580   1.363   3.885
    3TYR     BB  456   2.285   1.234   3.983
    3TYR    SC1  457   2.274   1.251   4.274
    3TYR    SC2  458   2.065   1.154   4.344
    3TYR    SC3  459   2.175   1.048   4.534
    1TYR     BB  460   2.729   0.139   5.491
    1TYR    SC1  461   2.492  -0.031   5.600
    1TYR    SC2  462   2.516   0.032   5.831
    1TYR    SC3  463   2.274   0.037   5.858
    2ALA     BB  464   2.619   0.426   5.696
    3TYR     BB  465   2.624   0.494   6.025
    3TYR    SC1  466   2.372   0.399   6.138
    3TYR    SC2  467   2.373   0.453   6.373
    3TYR    SC3  468   2.139   0.515   6.363
    1TYR     BB  469   2.696   2.033   5.912
    1TYR    SC1  470   2.856   1.803   5.777
    1TYR    SC2  471   2.887   1.911   5.564
    1TYR    SC3  472   3.111   1.820   5.546
    2ALA     BB  473   2.935   2.281   5.777
    3TYR     BB  474   2.997   2.403   5.469
    3TYR    SC1  475   3.200   2.234   5.347
    3TYR    SC2  476   3.248   2.325   5.129
    3TYR    SC3  477   3.485   2.281   5.159
    1TYR     BB  478   2.161   1.128   7.547
    1TYR    SC1  479   2.179   1.095   7.238
    1TYR    SC2  480   2.383   1.220   7.207
    1TYR    SC3  481   2.457   1.063   7.037
    2ALA     BB  482   2.521   1.051   7.578
    3TYR     BB  483   2.803   1.218   7.501
    3TYR    SC1  484   2.876   1.145   7.228
    3TYR    SC2  485   3.082   1.260   7.175
    3TYR    SC3  486   3.165   1.063   7.059
    1TYR     BB  487   5.919   4.302   2.780
    1TYR    SC1  488   6.173   4.127   2.820
    1TYR    SC2  489   6.244   4.127   2.590
    1TYR    SC3  490   6.477   4.141   2.659
    2ALA     BB  491   6.111   4.535   2.567
    3TYR     BB  492   6.239   4.516   2.256
    3TYR    SC1  493   6.511   4.413   2.279
    3TYR    SC2  494   6.604   4.406   2.057
    3TYR    SC3  495   6.818   4.484   2.141
    1TYR     BB  496   1.794   5.457   0.389
    1TYR    SC1  497   1.625   5.212   0.479
    1TYR    SC2  498   1.434   5.335   0.558
    1TYR    SC3  499   1.284   5.165   0.471
    2ALA     BB  500   1.495   5.605   0.229
    3TYR     BB  501   1.213   5.747   0.346
    3TYR    SC1  502   1.014   5.536   0.375
    3TYR    SC2  503   0.811   5.638   0.453
    3TYR    SC3  504   0.679   5.496   0.307
    1TYR     BB  505   6.852   0.326   1.486
    1TYR    SC1  506   6.591   0.171   1.553
    1TYR    SC2  507   6.651   0.109   1.777
    1TYR    SC3  508   6.422   0.143   1.852
    2ALA     BB  509   6.838   0.494   1.815
    3TYR     BB  510   6.890   0.393   2.132
    3TYR    SC1  511   6.634   0.302   2.238
    3TYR    SC2  512   6.670   0.235   2.467
    3TYR    SC3  513   6.459   0.335   2.533
    1TYR     BB  514   6.785   3.636   2.689
    1TYR    SC1  515   6.943   3.423   2.851
    1TYR    SC2  516   6.984   3.558   3.045
    1TYR    SC3  517   6.951   3.366   3.190
    2ALA     BB  518   6.591   3.723   2.992
    3TYR     BB  519   6.664   3.885   3.278
    3TYR    SC1  520   6.754   3.685   3.471
    3TYR    SC2  521   6.801   3.800   3.677
    3TYR    SC3  522   6.703   3.617   3.804
    1TYR     BB  523   7.675   6.494   6.622
    1TYR    SC1  524   7.912   6.493   6.824
    1TYR    SC2  525   7.945   6.731   6.832
    1TYR    SC3  526   7.993   6.719   7.070
    2ALA     BB  527   7.518   6.773   6.808
    3TYR     BB  528   7.589   7.100   6.844
    3TYR    SC1  529   7.762   7.127   7.076
    3TYR    SC2  530   7.808   7.362   7.105
    3TYR    SC3  531   7.789   7.339   7.346
    1TYR     BB  532   7.520   1.624   4.023
    1TYR    SC1  533   7.270   1.561   4.197
    1TYR    SC2  534   7.377   1.584   4.411
    1TYR    SC3  535   7.178   1.688   4.503
    2ALA     BB  536   7.602   1.910   4.244
    3TYR     BB  537   7.720   1.936   4.558
    3TYR    SC1  538   7.491   1.946   4.737
    3TYR    SC2  539   7.576   1.971   4.961
    3TYR    SC3  540   7.397   2.127   5.015
    1TYR     BB  541   3.639   5.102   2.639
    1TYR    SC1  542   3.649   5.396   2.742
    1TYR    SC2  543   3.849   5.461   2.626
    1TYR    SC3  544   3.756   5.681   2.582
    2ALA     BB  545   3.716   5.219   2.297
    3TYR     BB  546   3.992   5.342   2.148
    3TYR    SC1  547   3.985   5.632   2.176
    3TYR    SC2  548   4.179   5.720   2.064
    3TYR    SC3  549   4.048   5.905   1.976
    1TYR     BB  550   3.958   7.732   6.380
    1TYR    SC1  551   3.980   7.483   6.564
    1TYR    SC2  552   4.150   7.368   6.437
    1TYR    SC3  553   4.256   7.291   6.642
    2ALA     BB  554   4.327   7.752   6.361
    3TYR     BB  555   4.564   7.567   6.208
    3TYR    SC1  556   4.648   7.361   6.396
    3TYR    SC2  557   4.822   7.233   6.289
    3TYR    SC3  558   4.946   7.221   6.498
    1TYR     BB  559   3.845   2.248   8.266
    1TYR    SC1  560   4.075   2.312   8.067
    1TYR    SC2  561   4.138   2.084   8.021
    1TYR    SC3  562   4.179   2.138   7.788
    2ALA     BB  563   3.720   1.984   8.039
    3TYR     BB  564   3.831   1.678   7.953
    3TYR    SC1  565   4.002   1.709   7.719
    3TYR    SC2  566   4.077   1.490   7.653
    3TYR    SC3  567   4.050   1.547   7.419
    1TYR     BB  568   1.159   1.865   1.913
    1TYR    SC1  569   1.133   2.169   1.852
    1TYR    SC2  570   1.296   2.177   1.676
    1TYR    SC3  571   1.160   2.336   1.552
    2ALA     BB  572   1.155   1.791   1.550
    3TYR     BB  573   1.375   1.837   1.300
    3TYR    SC1  574   1.322   2.098   1.183
    3TYR    SC2  575   1.476   2.128   1.000
    3TYR    SC3  576   1.301   2.232   0.866
    1TYR     BB  577   6.121   2.800   6.450
    1TYR    SC1  578   5.869   2.655   6.562
    1TYR    SC2  579   5.909   2.705   6.794
    1TYR    SC3  580   5.671   2.737   6.830
    2ALA     BB  581   6.053   3.090   6.670
    3TYR     BB  582   6.077   3.142   7.001
    3TYR    SC1  583   5.821   3.073   7.120
    3TYR    SC2  584   5.836   3.117   7.356
    3TYR    SC3  585   5.610   3.206   7.358
    1TYR     BB  586   1.963   4.078   3.040
    1TYR    SC1  587   1.905   3.952   2.761
    1TYR    SC2  588   1.681   4.036   2.737
    1TYR    SC3  589   1.718   4.073   2.500
    2ALA     BB  590   1.816   4.398   2.926
    3TYR     BB  591   1.502   4.501   2.860
    3TYR    SC1  592   1.451   4.450   2.578
    3TYR    SC2  593   1.229   4.530   2.529
    3TYR    SC3  594   1.303   4.618   2.316
    1TYR     BB  595   3.932   1.264   2.858
    1TYR    SC1  596   3.682   1.364   2.703
    1TYR    SC2  597   3.777   1.572   2.627
    1TYR    SC3  598   3.663   1.549   2.414
    2ALA     BB  599   4.149   1.363   2.575
    3TYR     BB  600   4.251   1.659   2.451
    3TYR    SC1  601   4.057   1.741   2.249
    3TYR    SC2  602   4.134   1.949   2.156
    3TYR    SC3  603   4.067   1.878   1.934
    1TYR     BB  604   1.538   0.469   4.487
    1TYR    SC1  605   1.525   0.454   4.797
    1TYR    SC2  606   1.467   0.685   4.835
    1TYR    SC3  607   1.319   0.622   5.016
    2ALA     BB  608   1.223   0.663   4.481
    3TYR     BB  609   1.141   0.978   4.568
    3TYR    SC1  610   1.059   0.973   4.847
    3TYR    SC2  611   0.994   1.197   4.908
    3TYR    SC3  612   0.807   1.112   5.037
    1TYR     BB  613   0.536   7.549   4.170
    1TYR    SC1  614   0.373   7.289   4.117
    1TYR    SC2  615   0.558   7.155   4.040
    1TYR    SC3  616   0.468   6.960   4.153
    2ALA     BB  617   0.801   7.351   4.335
    3TYR     BB  618   1.036   7.137   4.224
    3TYR    SC1  619   0.921   6.869   4.230
    3TYR    SC2  620   1.091   6.715   4.157
    3TYR    SC3  621   1.022   6.554   4.325
    1TYR     BB  622   4.535   4.345   3.002
    1TYR    SC1  623   4.508   4.035   2.983
    1TYR    SC2  624   4.594   3.985   3.202
    1TYR    SC3  625   4.432   3.806   3.228
    2ALA     BB  626   4.391   4.337   3.343
    3TYR     BB  627   4.504   4.234   3.642
    3TYR    SC1  628   4.428   3.954   3.673
    3TYR    SC2  629   4.503   3.882   3.890
    3TYR    SC3  630   4.298   3.755   3.922
    1TYR     BB  631   0.374   1.310   6.942
    1TYR    SC1  632   0.352   1.305   7.253
    1TYR    SC2  633   0.251   1.088   7.271
    1TYR    SC3  634   0.381   1.041   7.471
    2ALA     BB  635   0.500   0.962   6.945
    3TYR     BB  636   0.359   0.663   7.006
    3TYR    SC1  637   0.389   0.608   7.291
    3TYR    SC2  638   0.294   0.391   7.334
    3TYR    SC3  639   0.474   0.339   7.488
    1TYR     BB  640   3.536   2.090   1.658
    1TYR    SC1  641   3.787   2.127   1.838
    1TYR    SC2  642   3.929   2.223   1.669
    1TYR    SC3  643   4.026   2.375   1.833
    2ALA     BB  644   3.584   2.430   1.519
    3TYR     BB  645   3.807   2.567   1.309
    3TYR    SC1  646   4.027   2.671   1.470
    3TYR    SC2  647   4.184   2.775   1.319
    3TYR    SC3  648   4.219   2.956   1.477
    1TYR     BB  649   0.851   3.756   5.078
    1TYR    SC1  650   0.971   3.566   5.293
    1TYR    SC2  651   0.888   3.684   5.486
    1TYR    SC3  652   0.845   3.475   5.600
    2ALA     BB  653   0.529   3.762   5.261
    3TYR     BB  654   0.428   3.902   5.550
    3TYR    SC1  655   0.472   3.707   5.762
    3TYR    SC2  656   0.393   3.805   5.968
    3TYR    SC3  657   0.300   3.592   6.037
    1TYR     BB  658   0.707   6.007   2.749
    1TYR    SC1  659   0.666   5.719   2.640
    1TYR    SC2  660   0.899   5.655   2.640
    1TYR    SC3  661   0.841   5.431   2.712
    2ALA     BB  662   0.943   5.879   3.004
    3TYR     BB  663   1.257   5.759   2.992
    3TYR    SC1  664   1.239   5.470   2.956
    3TYR    SC2  665   1.463   5.383   2.953
    3TYR    SC3  666   1.394   5.191   3.084
    1TYR     BB  667   1.983   4.945   7.127
    1TYR    SC1  668   1.786   4.729   7.232
    1TYR    SC2  669   1.584   4.836   7.155
    1TYR    SC3  670   1.489   4.620   7.096
    2ALA     BB  671   1.801   4.959   6.806
    3TYR     BB  672   1.502   5.080   6.712
    3TYR    SC1  673   1.307   4.864   6.740
    3TYR    SC2  674   1.094   4.949   6.666
    3TYR    SC3  675   1.044   4.738   6.557
    1TYR     BB  676   2.677   3.637   1.995
    1TYR    SC1  677   2.821   3.913   1.985
    1TYR    SC2  678   2.669   4.019   1.832
    1TYR    SC3  679   2.688   4.228   1.954
    2ALA     BB  680   2.350   3.807   2.029
    3TYR     BB  681   2.157   3.985   1.819
    3TYR    SC1  682   2.234   4.265   1.845
    3TYR    SC2  683   2.091   4.393   1.699
    3TYR    SC3  684   2.072   4.568   1.866
    1TYR     BB  685   5.671   5.515   1.527
    1TYR    SC1  686   5.783   5.753   1.693
    1TYR    SC2  687   6.015   5.691   1.678
    1TYR    SC3  688   6.079   5.925   1.657
    2ALA     BB  689   5.939   5.563   1.275
    3TYR     BB  690   6.270   5.506   1.273
    3TYR    SC1  691   6.401   5.750   1.366
    3TYR    SC2  692   6.639   5.711   1.358
    3TYR    SC3  693   6.676   5.937   1.276
    1TYR     BB  694   4.535   4.584   5.169
    1TYR    SC1  695   4.404   4.332   5.294
    1TYR    SC2  696   4.578   4.285   5.454
    1TYR    SC3  697   4.412   4.218   5.619
    2ALA     BB  698   4.619   4.710   5.507
    3TYR     BB  699   4.841   4.618   5.742
    3TYR    SC1  700   4.711   4.424   5.915
    3TYR    SC2  701   4.868   4.363   6.087
    3TYR    SC3  702   4.691   4.363   6.254
    1TYR     BB  703   1.176   2.458   3.427
    1TYR    SC1  704   1.352   2.672   3.568
    1TYR    SC2  705   1.210   2.706   3.759
    1TYR    SC3  706   1.403   2.728   3.903
    2ALA     BB  707   1.128   2.284   3.750
    3TYR     BB  708   0.953   2.353   4.029
    3TYR    SC1  709   1.129   2.501   4.208
    3TYR    SC2  710   1.005   2.545   4.410
    3TYR    SC3  711   1.203   2.500   4.544
    1TYR     BB  712   1.620   1.679   0.399
    1TYR    SC1  713   1.900   1.558   0.343
    1TYR    SC2  714   1.826   1.335   0.293
    1TYR    SC3  715   1.993   1.315   0.118
    2ALA     BB  716   1.485   1.511   0.099
    3TYR     BB  717   1.414   1.191   0.023
    3TYR    SC1  718   1.653   1.074  -0.097
    3TYR    SC2  719   1.600   0.847  -0.158
    3TYR    SC3  720   1.725   0.870  -0.365
    1TYR     BB  721   3.994   2.927   4.524
    1TYR    SC1  722   4.124   2.656   4.604
    1TYR    SC2  723   4.185   2.718   4.829
    1TYR    SC3  724   4.127   2.496   4.909
    2ALA     BB  725   3.817   2.940   4.849
    3TYR     BB  726   3.914   2.993   5.166
    3TYR    SC1  727   3.978   2.734   5.284
    3TYR    SC2  728   4.041   2.772   5.513
    3TYR    SC3  729   3.921   2.573   5.582
    1TYR     BB  730   6.163   7.152   6.788
    1TYR    SC1  731   5.928   7.104   6.986
    1TYR    SC2  732   5.869   6.884   6.908
    1TYR    SC3  733   5.822   6.813   7.135
    2ALA     BB  734   6.288   6.810   6.853
    3TYR     BB  735   6.181   6.502   6.770
    3TYR    SC1  736   6.005   6.409   6.983
    3TYR    SC2  737   5.934   6.187   6.926
    3TYR    SC3  738   5.956   6.117   7.157
    1TYR     BB  739   4.841   3.396   3.392
    1TYR    SC1  740   5.150   3.425   3.414
    1TYR    SC2  741   5.153   3.539   3.626
    1TYR    SC3  742   5.352   3.416   3.693
    2ALA     BB  743   4.824   3.290   3.746
    3TYR     BB  744   4.864   3.449   4.039
    3TYR    SC1  745   5.145   3.429   4.113
    3TYR    SC2  746   5.172   3.537   4.327
    3TYR    SC3  747   5.325   3.363   4.399
    1TYR     BB  748   7.082   7.139   5.252
    1TYR    SC1  749   7.081   7.211   4.949
    1TYR    SC2  750   6.961   7.017   4.873
    1TYR    SC3  751   6.842   7.151   4.710
    2ALA     BB  752   6.724   7.045   5.231
    3TYR     BB  753   6.558   6.787   5.093
    3TYR    SC1  754   6.488   6.864   4.821
    3TYR    SC2  755   6.363   6.682   4.724
    3TYR    SC3  756   6.212   6.839   4.616
    1TYR     BB  757   4.212   2.257   4.084
    1TYR    SC1  758   4.461   2.254   3.898
    1TYR    SC2  759   4.461   2.018   3.853
    1TYR    SC3  760   4.527   2.058   3.623
    2ALA     BB  761   4.032   2.035   3.848
    3TYR     BB  762   4.060   1.711   3.765
    3TYR    SC1  763   4.245   1.693   3.541
    3TYR    SC2  764   4.260   1.461   3.477
    3TYR    SC3  765   4.262   1.523   3.242
    1TYR     BB  766   1.036   5.615   1.388
    1TYR    SC1  767   1.101   5.359   1.552
    1TYR    SC2  768   1.338   5.356   1.507
    1TYR    SC3  769   1.383   5.282   1.734
    2ALA     BB  770   1.331   5.785   1.532
    3TYR     BB  771   1.663   5.752   1.490
    3TYR    SC1  772   1.758   5.559   1.686
    3TYR    SC2  773   1.997   5.540   1.660
    3TYR    SC3  774   2.025   5.530   1.901
    1TYR     BB  775   8.023   4.717   2.376
    1TYR    SC1  776   7.730   4.820   2.359
    1TYR    SC2  777   7.624   4.620   2.442
    1TYR    SC3  778   7.461   4.753   2.564
    2ALA     BB  779   7.955   4.577   2.712
    3TYR     BB  780   7.777   4.315   2.825
    3TYR    SC1  781   7.507   4.410   2.880
    3TYR    SC2  782   7.381   4.224   2.967
    3TYR    SC3  783   7.272   4.369   3.128
    1TYR     BB  784   7.597   7.584   4.204
    1TYR    SC1  785   7.435   7.327   4.271
    1TYR    SC2  786   7.218   7.414   4.212
    1TYR    SC3  787   7.154   7.199   4.119
    2ALA     BB  788   7.408   7.622   3.888
    3TYR     BB  789   7.093   7.711   3.814
    3TYR    SC1  790   6.932   7.468   3.806
    3TYR    SC2  791   6.707   7.531   3.746
    3TYR    SC3  792   6.687   7.336   3.604
    1TYR     BB  793   5.753   3.645   4.311
    1TYR    SC1  794   5.657   3.399   4.146
    1TYR    SC2  795   5.608   3.519   3.943
    1TYR    SC3  796   5.693   3.334   3.810
    2ALA     BB  797   5.953   3.762   4.023
    3TYR     BB  798   5.876   3.898   3.725
    3TYR    SC1  799   5.846   3.680   3.534
    3TYR    SC2  800   5.797   3.777   3.320
    3TYR    SC3  801   5.941   3.616   3.210
    1TYR     BB  802   5.502   1.757   2.496
    1TYR    SC1  803   5.263   1.668   2.318
    1TYR    SC2  804   5.329   1.787   2.120
    1TYR    SC3  805   5.253   1.603   1.980
    2ALA     BB  806   5.736   1.690   2.217
    3TYR     BB  807   5.799   1.843   1.924
    3TYR    SC1  808   5.626   1.723   1.723
    3TYR    SC2  809   5.676   1.828   1.512
    3TYR    SC3  810   5.656   1.615   1.398
    1TYR     BB  811   7.490   3.773   2.179
    1TYR    SC1  812   7.757   3.928   2.138
    1TYR    SC2  813   7.904   3.751   2.208
    1TYR    SC3  814   8.064   3.811   2.036
    2ALA     BB  815   7.636   3.475   2.015
    3TYR     BB  816   7.869   3.249   2.105
    3TYR    SC1  817   8.127   3.348   2.014
    3TYR    SC2  818   8.292   3.183   2.073
    3TYR    SC3  819   8.406   3.216   1.861
    1TYR     BB  820   5.205   5.216   7.271
    1TYR    SC1  821   4.894   5.198   7.287
    1TYR    SC2  822   4.880   5.160   7.524
    1TYR    SC3  823   4.682   5.300   7.538
    2ALA     BB  824   5.209   5.433   7.571
    3TYR     BB  825   5.154   5.379   7.899
    3TYR    SC1  826   4.871   5.425   7.949
    3TYR    SC2  827   4.833   5.392   8.184
    3TYR    SC3  828   4.680   5.581   8.188
    1TYR     BB  829   6.788   6.952   0.863
    1TYR    SC1  830   6.617   6.873   0.615
    1TYR    SC2  831   6.405   6.863   0.728
    1TYR    SC3  832   6.294   6.959   0.535
    2ALA     BB  833   6.532   7.201   0.961
    3TYR     BB  834   6.222   7.179   1.088
    3TYR    SC1  835   6.036   7.171   0.864
    3TYR    SC2  836   5.813   7.162   0.955
    3TYR    SC3  837   5.733   7.314   0.783
    1TYR     BB  838   8.038   1.751   3.305
    1TYR    SC1  839   7.798   1.553   3.305
    1TYR    SC2  840   7.639   1.700   3.201
    1TYR    SC3  841   7.545   1.514   3.076
    2ALA     BB  842   7.960   1.846   2.956
    3TYR     BB  843   7.714   2.024   2.811
    3TYR    SC1  844   7.501   1.839   2.741
    3TYR    SC2  845   7.328   1.966   2.632
    3TYR    SC3  846   7.292   1.786   2.472
    1TYR     BB  847   5.635   5.839   2.470
    1TYR    SC1  848   5.557   5.621   2.678
    1TYR    SC2  849   5.690   5.707   2.860
    1TYR    SC3  850   5.516   5.649   3.019
    2ALA     BB  851   5.589   6.102   2.726
    3TYR     BB  852   5.762   6.195   2.999
    3TYR    SC1  853   5.655   6.046   3.225
    3TYR    SC2  854   5.775   6.117   3.422
    3TYR    SC3  855   5.570   6.112   3.552
    1TYR     BB  856   4.672   2.497   5.431
    1TYR    SC1  857   4.583   2.304   5.658
    1TYR    SC2  858   4.723   2.396   5.831
    1TYR    SC3  859   4.547   2.363   5.995
    2ALA     BB  860   4.644   2.784   5.664
    3TYR     BB  861   4.825   2.890   5.927
    3TYR    SC1  862   4.711   2.767   6.166
    3TYR    SC2  863   4.836   2.848   6.355
    3TYR    SC3  864   4.633   2.867   6.486
    1TYR     BB  865   6.536   5.772   8.317
    1TYR    SC1  866   6.266   5.792   8.164
    1TYR    SC2  867   6.352   5.900   7.967
    1TYR    SC3  868   6.203   5.769   7.826
    2ALA     BB  869   6.704   5.656   8.008
    3TYR     BB  870   6.792   5.805   7.720
    3TYR    SC1  871   6.569   5.774   7.534
    3TYR    SC2  872   6.635   5.875   7.325
    3TYR    SC3  873   6.529   5.695   7.201
    1TYR     BB  874   6.450   5.703   3.452
    1TYR    SC1  875   6.747   5.716   3.361
    1TYR    SC2  876   6.844   5.718   3.581
    1TYR    SC3  877   7.027   5.577   3.506
    2ALA     BB  878   6.536   5.444   3.702
    3TYR     BB  879   6.703   5.448   3.994
    3TYR    SC1  880   6.984   5.394   3.935
    3TYR    SC2  881   7.102   5.390   4.145
    3TYR    SC3  882   7.236   5.201   4.069
    1TYR     BB  883   7.282   0.506   6.818
    1TYR    SC1  884   7.020   0.643   6.916
    1TYR    SC2  885   7.117   0.765   7.099
    1TYR    SC3  886   6.973   0.955   7.053
    2ALA     BB  887   7.463   0.827   6.850
    3TYR     BB  888   7.567   1.012   7.112
    3TYR    SC1  889   7.354   1.198   7.178
    3TYR    SC2  890   7.431   1.335   7.361
    3TYR    SC3  891   7.328   1.531   7.262
    1TYR     BB  892   0.887   0.261   3.611
    1TYR    SC1  893   0.642   0.357   3.777
    1TYR    SC2  894   0.477   0.323   3.606
    1TYR    SC3  895   0.317   0.246   3.772
    2ALA     BB  896   0.693  -0.030   3.491
    3TYR     BB  897   0.438  -0.067   3.275
    3TYR    SC1  898   0.190  -0.046   3.428
    3TYR    SC2  899   0.007  -0.079   3.274
    3TYR    SC3  900  -0.112  -0.210   3.440
    4W        W  901   0.349   1.633   2.100
    5W        W  902   4.010   5.867   1.494
    6W        W  903   5.106   7.621   1.686
    7W        W  904   3.772   4.299   0.403
    8W        W  905   5.683   0.072   4.002
    9W        W  906   3.484   7.360   2.147
   10W        W  907   2.537   3.319   3.106
   11W        W  908   3.102   5.951   3.455
   12W        W  909   3.373   7.676   5.025
   13W        W  910   3.635   6.731   2.684
   14W        W  911   3.112   3.406   6.189
   15W        W  912   6.617   2.508   3.357
   16W        W  913   0.928   6.753   6.162
   17W        W  914   2.972   7.428   4.929
   18W        W  915   7.158   3.321   3.628
   19W        W  916   6.117   6.459   3.240
   20W        W  917   7.256   3.126   1.905
   21W        W  918   3.548   2.037   0.913
   22W        W  919   4.204   3.886   1.026
   23W        W  920   3.255   5.763   3.879
   24W        W  921   2.552   6.182   3.404
   25W        W  922   5.594   4.501   0.154
   26W        W  923   3.957   5.410   1.281
   27W        W  924   0.331   3.089   3.924
   28W        W  925   1.975   6.238   5.081
   29W        W  926   5.364   2.299   5.526
   30W        W  927   2.937   0.037   5.008
   31W        W  928   1.453   4.276   3.805
   32W        W  929   0.429   6.932   3.776
   33W        W  930   7.929   1.101   3.258
   34W        W  931   0.180   4.842   4.244
   35W        W  932   7.654   6.841   5.972
   36W        W  933   3.181   1.827   1.211
   37W        W  934   4.354   0.291   4.467
   38W        W  935   3.860   6.313   1.114
   39W        W  936   3.430   4.024   2.538
   40W        W  937   3.545   3.352   0.603
   41W        W  938   2.630   7.135   2.585
   42W        W  939   1.440   7.637   5.136
   43W        W  940   5.533   0.490   3.665
   44W        W  941   2.251   0.633   4.073
   45W        W  942   3.736   4.560   6.753
   46W        W  943   4.568   6.469   2.461
   47W        W  944   5.681   4.462   4.970
   48W        W  945   5.676   1.433   2.966
   49W        W  946   4.819   6.067   6.364
   50W        W  947   0.606   2.177   6.213
   51W        W  948   4.639   0.850   7.747
   52W        W  949   1.119   5.630   1.968
   53W        W  950   2.617   7.080   0.519
   54W        W  951   1.180   3.272   4.125
   55W        W  952   3.481   0.246   1.393
   56W        W  953   6.733   1.195   3.868
   57W        W  954   1.407   0.692   3.619
   58W        W  955   3.987   7.321   3.032
   59W        W  956   1.242   7.332   1.453
   60W        W  957   1.855   6.457   3.898
   61W        W  958   5.253   5.959   0.677
   62W        W  959   2.220   4.370   2.646
   63W        W  960   6.449   1.641   4.888
   64W        W  961   0.387   1.607   7.962
   65W        W  962   1.261   6.947   0.428
   66W        W  963   3.367   3.532   4.367
   67W        W  964   3.230   4.191   0.394
   68W        W  965   4.803   0.282   2.107
   69W        W  966   3.462   3.638   5.146
   70W        W  967   6.619   6.519   2.671
   71W        W  968   7.309   0.266   0.194
   72W        W  969   3.211   0.699   7.320
   73W        W  970   6.292   0.807   0.486
   74W        W  971   7.424   3.158   0.769
   75W        W  972   5.880   5.100   7.157
   76W        W  973   2.098   2.272   1.668
   77W        W  974   6.438   4.924   7.950
   78W        W  975   5.937   5.515   6.608
   79W        W  976   1.608   1.490   1.416
   80W        W  977   0.024   0.654   7.928
   81W        W  978   6.084   2.032   2.232
   82W        W  979   5.349   6.095   3.993
   83W        W  980   5.173   2.658   1.706
   84W        W  981   6.188   7.690   0.733
   85W        W  982   7.814   7.422   5.045
   86W        W  983   0.819   0.266   0.956
   87W        W  984   0.750   1.601   4.399
   88W        W  985   1.797   0.656   7.022
   89W        W  986   4.102   4.177   4.143
   90W        W  987   5.650   7.086   2.695
   91W        W  988   6.056   5.766   5.520
   92W        W  989   5.269   3.839   4.784
   93W        W  990   7.915   3.693   5.877
   94W        W  991   2.142   3.523   0.605
   95W        W  992   5.241   5.224   4.271
   96W        W  993   2.032   0.198   0.976
   97W        W  994   5.922   4.214   1.251
   98W        W  995   2.383   2.228   2.244
   99W        W  996   0.546   4.305   3.982
  100W        W  997   2.239   4.351   6.496
  101W        W  998   6.496   5.044   1.240
  102W        W  999   0.275   5.572   1.494
  103W        W 1000   3.515   4.667   4.942
  104W        W 1001   3.714   5.802   5.639
  105W        W 1002   0.394   3.751   3.247
  106W        W 1003   2.626   4.308   5.785
  107W        W 1004   7.728   0.116   7.149
  108W        W 1005   2.906   4.490   0.247
  109W        W 1006   3.678   0.463   4.635
  110W        W 1007   3.544   5.250   4.852
  111W        W 1008   7.724   7.128   1.245
  112W        W 1009   4.011   0.806   7.564
  113W        W 1010   0.569   2.820   0.459
  114W        W 1011   5.281   7.196   5.432
  115W        W 1012   1.384   0.021   3.146
  116W        W 1013   0.853   7.400   1.141
  117W        W 1014   2.052   0.513   6.055
  118W        W 1015   5.561   0.088   6.628
  119W        W 1016   0.770   0.423   0.434
  120W        W 1017   2.607   7.020   6.969
  121W        W 1018   2.810   7.885   0.487
  122W        W 1019   3.742   4.648   2.876
  123W        W 1020   3.497   4.702   7.377
  124W        W 1021   2.552   4.984   3.352
  125W        W 1022   2.997   4.317   1.667
  126W        W 1023   1.083   6.169   5.039
  127W        W 1024   6.865   3.091   5.000
  128W        W 1025   3.990   4.941   5.149
  129W        W 1026   5.907   7.058   7.581
  130W        W 1027   3.354   0.720   1.981
  131W        W 1028   2.808   2.563   2.111
  132W        W 1029   4.190   2.869   5.895
  133W        W 1030   7.276   5.425   2.118
  134W        W 1031   6.424   7.762   5.954
  135W        W 1032   2.332   2.230   1.251
  136W        W 1033   0.846   5.585   3.603
  137W        W 1034   4.572   5.569   2.581
  138W        W 1035   3.491   7.120   0.669
  139W        W 1036   3.830   6.778   4.809
  140W        W 1037   4.149   3.775   0.503
  141W        W 1038   4.457   1.760   0.882
  142W        W 1039   1.068   1.917   5.980
  143W        W 1040   5.990   6.957   3.045
  144W        W 1041   3.216   4.376   2.811
  145W        W 1042   2.615   3.713   1.550
  146W        W 1043   3.555   4.534   2.444
  147W        W 1044   2.818   0.909   4.513
  148W        W 1045   7.292   5.438   1.135
  149W        W 1046   4.900   2.969   1.462
  150W        W 1047   4.043   3.164   1.239
  151W        W 1048   2.314   6.966   3.819
  152W        W 1049   5.000   7.333   7.344
  153W        W 1050   3.631   5.801   0.429
  154W        W 1051   6.190   6.168   2.866
  155W        W 1052   0.307   4.777   6.065
  156W        W 1053   0.564   4.822   1.825
  157W        W 1054   4.805   5.036   6.253
  158W        W 1055   3.710   7.655   3.799
  159W        W 1056   7.245   2.690   7.612
  160W        W 1057   5.786   5.809   0.667
  161W        W 1058   0.018   3.626   5.211
  162W        W 1059   2.590   4.619   1.098
  163W        W 1060   0.505   5.802   6.467
  164W        W 1061   1.273   0.657   6.567
  165W        W 1062   7.214   5.267   4.884
  166W        W 1063   0.325   6.638   1.251
  167W        W 1064   4.013   7.430   1.986
  168W        W 1065   5.923   0.865   0.157
  169W        W 1066   2.861   6.097   1.457
  170W        W 1067   2.192   5.954   2.613
  171W        W 1068   3.774   1.376   4.335
  172W        W 1069   3.628   3.244   0.059
  173W        W 1070   0.347   7.146   3.114
  174W        W 1071   3.678   3.672   0.904
  175W        W 1072   7.741   0.449   0.390
  176W        W 1073   1.469   6.671   5.382
  177W        W 1074   2.608   7.013   1.645
  178W        W 1075   6.769   5.310   0.874
  179W        W 1076   6.324   2.586   2.869
  180W        W 1077   6.121   1.236   7.826
  181W        W 1078   7.235   4.956   6.943
  182W        W 1079   3.061   4.133   3.268
  183W        W 1080   3.865   0.144   3.816
  184W        W 1081   7.603   5.308   4.528
  185W        W 1082   5.208   1.841   7.851
  186W        W 1083   4.545   3.698   6.398
  187W        W 1084   3.100   4.999   4.788
  188W        W 1085   5.971   3.294   4.615
  189W        W 1086   1.229   1.111   5.164
  190W        W 1087   2.950   7.365   2.256
  191W        W 1088   1.495   6.815   1.374
  192W        W 1089   0.800   1.759   3.437
  193W        W 1090   3.060   1.377   1.006
  194W        W 1091   1.439   3.755   2.342
  195W        W 1092   6.225   4.142   0.710
  196W        W 1093   7.406   4.118   1.879
  197W        W 1094   4.317   0.499   1.908
  198W        W 1095   1.345   2.618   2.437
  199W        W 1096   0.190   2.337   5.226
  200W        W 1097   2.368   0.020   4.519
  201W        W 1098   2.731   6.631   0.322
  202W        W 1099   0.428   1.998   1.685
  203W        W 1100   1.161   0.086   5.427
  204W        W 1101   5.285   7.593   5.142
  205W        W 1102   7.071   3.024   0.035
  206W        W 1103   5.973   2.274   4.878
  207W        W 1104   6.196   7.507   4.890
  208W        W 1105   3.485   4.051   4.160
  209W        W 1106   2.242   4.833   0.719
  210W        W 1107   5.497   6.915   4.538
  211W        W 1108   0.298   4.821   0.245
  212W        W 1109   1.186   3.504   2.720
  213W        W 1110   3.843   3.473   5.560
  214W        W 1111   4.348   6.632   6.331
  215W        W 1112   0.068   0.328   2.342
  216W        W 1113   5.498   6.883   4.043
  217W        W 1114   6.524   1.236   6.236
  218W        W 1115   5.849   0.071   4.560
  219W        W 1116   7.408   6.166   4.959
  220W        W 1117   5.832   7.786   6.897
  221W        W 1118   0.698   6.968   1.731
  222W        W 1119   0.445   4.265   0.421
  223W        W 1120   2.499   6.618   5.107
  224W        W 1121   2.303   2.590   3.904
  225W        W 1122   0.907   7.773   0.823
  226W        W 1123   0.171   7.871   4.160
  227W        W 1124   0.862   3.544   6.816
  228W        W 1125   3.565   0.598   0.972
  229W        W 1126   7.556   5.320   3.163
  230W        W 1127   7.566   2.429   7.824
  231W        W 1128   3.559   1.697   5.985
  232W        W 1129   6.247   7.451   7.550
  233W        W 1130   3.618   0.917   3.868
  234W        W 1131   1.347   4.575   1.821
  235W        W 1132   0.626   1.066   4.390
  236W        W 1133   6.745   7.306   0.052
  237W        W 1134   6.058   3.145   0.224
  238W        W 1135   2.843   6.163   4.726
  239W        W 1136   3.664   4.151   3.681
  240W        W 1137   2.867   2.023   2.130
  241W        W 1138   3.002   6.463   5.114
  242W        W 1139   7.841   5.773   4.474
  243W        W 1140   6.988   1.672   0.535
  244W        W 1141   7.317   7.251   0.731
  245W        W 1142   2.995   1.542   6.545
  246W        W 1143   7.851   2.088   6.810
  247W        W 1144   1.278   4.324   5.223
  248W        W 1145   1.768   4.770   0.877
  249W        W 1146   4.800   6.174   2.801
  250W        W 1147   0.995   2.283   0.036
  251W        W 1148   1.393   3.615   0.220
  252W        W 1149   2.434   5.388   4.233
  253W        W 1150   2.627   0.058   3.162
  254W        W 1151   6.572   3.457   4.822
  255W        W 1152   2.301   7.087   5.753
  256W        W 1153   1.958   2.741   4.232
  257W        W 1154   1.209   3.848   3.757
  258W        W 1155   6.131   1.084   5.860
  259W        W 1156   6.559   4.297   3.034
  260W        W 1157   1.930   4.403   3.622
  261W        W 1158   1.653   2.963   7.762
  262W        W 1159   0.845   0.004   1.893
  263W        W 1160   3.685   4.593   1.142
  264W        W 1161   2.903   4.153   4.253
  265W        W 1162   4.763   6.233   1.425
  266W        W 1163   1.429   1.504   5.383
  267W        W 1164   3.548   0.353   4.147
  268W        W 1165   1.814   4.223   0.816
  269W        W 1166   1.022   4.864   2.682
  270W        W 1167   5.328   7.070   1.319
  271W        W 1168   5.922   4.946   4.852
  272W        W 1169   5.649   3.354   2.642
  273W        W 1170   5.659   4.976   2.782
  274W        W 1171   7.641   5.803   3.075
  275W        W 1172   5.314   0.911   3.796
  276W        W 1173   5.943   4.663   6.881
  277W        W 1174   0.846   4.409   1.617
  278W        W 1175   7.103   5.197   3.607
  279W        W 1176   0.108   5.363   5.096
  280W        W 1177   7.672   6.207   4.515
  281W        W 1178   5.229   4.522   7.471
  282W        W 1179   1.375   3.430   1.164
  283W        W 1180   1.671   4.157   5.560
  284W        W 1181   7.044   7.394   2.370
  285W        W 1182   1.383   5.875   3.643
  286W        W 1183   5.422   3.768   7.884
  287W        W 1184   6.533   5.993   5.084
  288W        W 1185   3.025   4.593   7.244
  289W        W 1186   4.435   3.823   1.570
  290W        W 1187   5.675   6.250   7.689
  291W        W 1188   2.804   4.582   3.176
  292W        W 1189   3.775   3.827   1.334
  293W        W 1190   0.524   2.258   3.431
  294W        W 1191   5.677   6.043   5.750
  295W        W 1192   0.087   7.329   0.257
  296W        W 1193   1.748   1.354   0.943
  297W        W 1194   1.742   1.862   7.722
  298W        W 1195   0.114   5.180   2.143
  299W        W 1196   2.731   4.151   6.901
  300W        W 1197   0.792   5.281   1.646
  301W        W 1198   0.422   5.714   0.978
  302W        W 1199   4.647   7.242   4.709
  303W        W 1200   4.992   0.675   6.877
  304W        W 1201   2.805   1.992   3.466
  305W        W 1202   6.557   0.721   1.160
  306W        W 1203   0.535   4.424   3.478
  307W        W 1204   1.979   2.104   6.411
  308W        W 1205   3.150   3.798   1.634
  309W        W 1206   4.588   6.991   0.788
  310W        W 1207   4.848   2.907   0.667
  311W        W 1208   6.939   4.095   0.989
  312W        W 1209   0.632   3.857   7.284
  313W        W 1210   1.758   0.699   6.406
  314W        W 1211   0.524   7.235   5.057
  315W        W 1212   6.416   6.936   7.574
  316W        W 1213   4.635   4.146   6.694
  317W        W 1214   2.712   4.367   2.746
  318W        W 1215   5.425   3.722   2.390
  319W        W 1216   6.697   4.696   3.271
  320W        W 1217   5.016   5.636   1.548
  321W        W 1218   7.176   0.692   0.412
  322W        W 1219   1.617   1.242   2.597
  323W        W 1220   2.148   5.449   2.572
  324W        W 1221   3.105   0.486   4.764
  325W        W 1222   4.110   0.556   3.277
  326W        W 1223   2.191   7.073   3.340
  327W        W 1224   6.899   1.528   7.660
  328W        W 1225   0.805   4.184   0.003
  329W        W 1226   5.704   5.121   3.873
  330W        W 1227   0.520   2.210   6.938
  331W        W 1228   2.932   0.801   0.370
  332W        W 1229   2.837   5.883   7.389
  333W        W 1230   7.173   3.649   0.718
  334W        W 1231   4.889   1.207   6.940
  335W        W 1232   6.705   3.832   0.546
  336W        W 1233   6.985   6.398   1.029
  337W        W 1234   1.004   5.143   2.218
  338W        W 1235   5.003   2.040   3.247
  339W        W 1236   3.324   5.958   2.361
  340W        W 1237   6.530   3.909   6.745
  341W        W 1238   2.133   6.592   5.974
  342W        W 1239   1.283   4.261   2.374
  343W        W 1240   2.328   1.500   4.662
  344W        W 1241   6.342   1.268   6.690
  345W        W 1242   1.301   6.551   2.309
  346W        W 1243   0.777   1.492   0.827
  347W        W 1244   2.547   1.040   6.531
  348W        W 1245   3.382   1.587   2.877
  349W        W 1246   7.406   4.704   5.392
  350W        W 1247   6.076   0.833   5.340
  351W        W 1248   2.768   3.633   7.114
  352W        W 1249   6.681   7.391   7.347
  353W        W 1250   5.999   6.606   7.491
  354W        W 1251   1.627   0.717   2.411
  355W        W 1252   0.098   2.832   0.606
  356W        W 1253   2.497   5.124   1.054
  357W        W 1254   5.570   2.933   1.837
  358W        W 1255   5.911   3.237   3.193
  359W        W 1256   7.768   3.432   4.713
  360W        W 1257   4.981   5.828   7.675
  361W        W 1258   4.575   2.868   4.304
  362W        W 1259   0.994   4.818   1.317
  363W        W 1260   4.481   7.411   7.134
  364W        W 1261   2.646   5.930   6.748
  365W        W 1262   6.496   1.454   1.899
  366W        W 1263   5.321   1.660   3.240
  367W        W 1264   6.156   3.098   3.705
  368W        W 1265   4.818   5.202   6.966
  369W        W 1266   5.537   3.717   0.458
  370W        W 1267   4.323   2.836   0.552
  371W        W 1268   0.886   5.340   6.281
  372W        W 1269   4.573   1.429   2.257
  373W        W 1270   0.306   1.856   4.245
  374W        W 1271   7.326   2.967   4.964
  375W        W 1272   4.214   5.143   5.601
  376W        W 1273   5.152   1.309   0.457
  377W        W 1274   6.462   2.244   2.499
  378W        W 1275   2.413   5.702   5.113
  379W        W 1276   2.356   4.649   0.183
  380W        W 1277   2.193   3.020   0.659
  381W        W 1278   3.073   3.541   4.860
  382W        W 1279   7.972   4.131   5.298
  383W        W 1280   7.456   5.787   1.422
  384W        W 1281   5.332   1.206   5.178
  385W        W 1282   5.119   3.721   2.772
  386W        W 1283   7.500   3.732   7.005
  387W        W 1284   4.862   0.087   1.302
  388W        W 1285   1.016   1.658   3.062
  389W        W 1286   6.397   4.930   5.059
  390W        W 1287   4.367   0.630   6.638
  391W        W 1288   1.921   5.198   1.019
  392W        W 1289   7.573   0.969   0.532
  393W        W 1290   5.668   7.368   6.679
  394W        W 1291   0.892   2.859   2.310
  395W        W 1292   1.603   4.785   3.774
  396W        W 1293   7.206   6.744   0.661
  397W        W 1294   3.928   5.259   4.369
  398W        W 1295   6.934   1.523   1.598
  399W        W 1296   6.265   3.953   2.164
  400W        W 1297   3.423   1.148   3.498
  401W        W 1298   0.241   3.307   1.316
  402W        W 1299   0.825   0.474   5.265
  403W        W 1300   5.192   6.883   7.365
  404W        W 1301   5.184   4.770   1.939
  405W        W 1302   1.362   4.615   3.381
  406W        W 1303   5.576   7.464   1.775
  407W        W 1304   1.752   2.802   3.190
  408W        W 1305   2.681   4.176   7.386
  409W        W 1306   0.707   7.542   3.167
  410W        W 1307   6.379   5.864   6.323
  411W        W 1308   1.168   3.771   4.365
  412W        W 1309   3.601   2.142   5.778
  413W        W 1310   0.563   6.180   0.034
  414W        W 1311   0.615   1.893   5.790
  415W        W 1312   3.021   6.917   3.273
  416W        W 1313   2.204   3.416   0.101
  417W        W 1314   6.666   3.551   7.171
  418W        W 1315   4.694   0.868   1.349
  419W        W 1316   3.953   1.633   4.995
  420W        W 1317   6.228   2.115   7.354
  421W        W 1318   0.166   5.804   4.064
  422W        W 1319   2.339   0.609   0.742
  423W        W 1320   6.492   5.083   5.554
  424W        W 1321   0.225   6.259   7.246
  425W        W 1322   0.928   1.731   3.962
  426W        W 1323   7.648   1.659   2.228
  427W        W 1324   2.513   1.885   7.289
  428W        W 1325   0.595   3.849   4.288
  429W        W 1326   6.042   1.134   3.217
  430W        W 1327   3.435   2.324   4.412
  431W        W 1328   4.477   3.244   7.145
  432W        W 1329   5.180   3.234   1.965
  433W        W 1330   0.566   6.664   5.754
  434W        W 1331   3.374   6.613   3.132
  435W        W 1332   7.344   7.811   6.781
  436W        W 1333   0.731   3.864   1.693
  437W        W 1334   7.213   1.344   6.940
  438W        W 1335   0.737   2.109   1.248
  439W        W 1336   6.718   4.841   6.852
  440W        W 1337   4.272   7.015   3.315
  441W        W 1338   1.687   4.864   5.992
  442W        W 1339   5.991   0.370   6.393
  443W        W 1340   5.310   2.779   5.362
  444W        W 1341   2.167   5.026   7.731
  445W        W 1342   6.254   6.507   4.976
  446W        W 1343   0.761   1.889   0.418
  447W        W 1344   2.568   3.468   6.353
  448W        W 1345   7.669   4.637   0.673
  449W        W 1346   6.150   4.390   4.087
  450W        W 1347   4.450   6.418   4.240
  451W        W 1348   4.368   6.712   2.046
  452W        W 1349   4.959   3.917   5.607
  453W        W 1350   6.680   1.515   3.000
  454W        W 1351   0.909   0.784   7.552
  455W        W 1352   1.139   0.905   1.385
  456W        W 1353   3.147   0.050   4.128
  457W        W 1354   1.467   5.549   4.738
  458W        W 1355   2.707   0.257   1.550
  459W        W 1356   7.276   2.491   0.280
  460W        W 1357   1.401   0.343   7.024
  461W        W 1358   5.050   7.122   0.900
  462W        W 1359   1.652   5.783   5.755
  463W        W 1360   3.212   4.240   6.956
  464W        W 1361   6.014   3.418   5.597
  465W        W 1362   5.206   1.158   3.101
  466W        W 1363   7.671   3.454   3.286
  467W        W 1364   3.274   1.647   2.093
  468W        W 1365   5.842   1.869   0.596
  469W        W 1366   6.665   6.398   5.403
  470W        W 1367   7.928   0.867   6.951
  471W        W 1368   6.904   5.757   2.450
  472W        W 1369   3.069   3.815   3.953
  473W        W 1370   2.757   4.564   4.506
  474W        W 1371   0.201   7.539   6.349
  475W        W 1372   1.409   7.471   2.213
  476W        W 1373   1.523   3.008   5.442
  477W        W 1374   4.673   2.041   7.892
  478W        W 1375   6.652   7.714   3.202
  479W        W 1376   2.427   3.180   2.033
  480W        W 1377   6.265   7.347   0.304
  481W        W 1378   7.092   2.642   5.770
  482W        W 1379   2.646   2.891   3.764
  483W        W 1380   6.769   2.803   5.426
  484W        W 1381   1.299   3.182   0.545
  485W        W 1382   1.273   1.200   2.197
  486W        W 1383   7.431   1.580   4.839
  487W        W 1384   7.412   3.771   5.062
  488W        W 1385   0.548   4.539   4.546
  489W        W 1386   0.391   3.199   3.101
  490W        W 1387   4.249   7.158   6.207
  491W        W 1388   4.071   4.230   5.690
  492W        W 1389   3.950   2.589   7.550
  493W        W 1390   7.042   2.932   0.499
  494W        W 1391   1.247   5.733   2.433
  495W        W 1392   4.685   3.375   1.712
  496W        W 1393   2.995   7.596   5.450
  497W        W 1394   6.508   7.541   1.735
  498W        W 1395   6.934   7.511   5.920
  499W        W 1396   5.246   2.577   1.201
  500W        W 1397   2.135   5.526   1.287
  501W        W 1398   0.639   4.149   1.266
  502W        W 1399   7.077   6.869   0.119
  503W        W 1400   1.810   1.959   3.307
  504W        W 1401   2.555   5.326   7.457
  505W        W 1402   2.006   2.279   5.823
  506W        W 1403   5.703   3.147   5.174
  507W        W 1404   2.697   7.460   4.056
  508W        W 1405   4.633   0.642   4.197
  509W        W 1406   3.496   3.235   4.749
  510W        W 1407   2.983   1.256   3.038
  511W        W 1408   5.067   6.904   3.109
  512W        W 1409   0.177   6.841   5.469
  513W        W 1410   0.100   5.858   0.041
  514W        W 1411   5.120   6.472   2.237
  515W        W 1412   7.425   1.891   3.543
  516W        W 1413   3.346   3.366   2.062
  517W        W 1414   4.943   3.212   7.333
  518W        W 1415   2.905   0.493   5.326
  519W        W 1416   1.813   1.775   4.665
  520W        W 1417   1.215   4.687   0.844
  521W        W 1418   7.582   0.005   3.042
  522W        W 1419   0.201   3.645   6.965
  523W        W 1420   0.830   1.719   7.354
  524W        W 1421   5.349   4.628   4.057
  525W        W 1422   4.353   3.959   0.011
  526W        W 1423   4.966   2.867   6.984
  527W        W 1424   1.262   3.033   5.054
  528W        W 1425   6.613   7.421   6.380
  529W        W 1426   4.620   3.907   0.719
  530W        W 1427   4.987   7.461   7.894
  531W        W 1428   7.222   7.579   7.508
  532W        W 1429   7.792   6.749   0.286
  533W        W 1430   7.772   0.232   5.642
  534W        W 1431   5.982   5.966   5.055
  535W        W 1432   0.497   0.157   4.251
  536W        W 1433   6.420   7.919   0.320
  537W        W 1434   5.940   6.054   0.239
  538W        W 1435   2.628   3.594   2.729
  539W        W 1436   7.318   0.141   6.262
  540W        W 1437   6.209   0.931   1.592
  541W        W 1438   0.889   5.918   0.791
  542W        W 1439   0.322   3.167   4.880
  543W        W 1440   4.184   0.803   1.556
  544W        W 1441   5.660   4.132   7.602
  545W        W 1442   1.283   4.695   6.268
  546W        W 1443   1.247   6.209   5.510
  547W        W 1444   4.110   1.383   5.752
  548W        W 1445   4.118   4.271   1.307
  549W        W 1446   4.773   7.483   0.258
  550W        W 1447   1.712   6.500   6.804
  551W        W 1448   7.238   4.283   6.320
  552W        W 1449   7.635   5.228   2.470
  553W        W 1450   0.324   3.610   2.813
  554W        W 1451   1.908   6.078   7.028
  555W        W 1452   3.835   1.255   7.451
  556W        W 1453   5.502   3.440   1.015
  557W        W 1454   0.033   4.036   6.689
  558W        W 1455   7.723   6.265   7.387
  559W        W 1456   5.805   4.808   1.212
  560W        W 1457   6.441   5.309   7.423
  561W        W 1458   7.520   2.191   7.253
  562W        W 1459   4.744   5.516   5.387
  563W        W 1460   3.375   4.107   0.903
  564W        W 1461   3.017   5.364   3.640
  565W        W 1462   0.318   4.358   1.668
  566W        W 1463   0.425   4.345   5.912
  567W        W 1464   1.437   0.553   6.083
  568W        W 1465   2.542   1.777   2.588
  569W        W 1466   7.378   5.867   1.885
  570W        W 1467   5.808   0.551   0.559
  571W        W 1468   7.877   2.039   7.607
  572W        W 1469   5.204   3.543   1.426
  573W        W 1470   2.582   7.435   4.585
  574W        W 1471   1.677   2.861   5.916
  575W        W 1472   2.080   0.539   4.640
  576W        W 1473   4.426   0.669   2.879
  577W        W 1474   4.071   2.436   0.616
  578W        W 1475   5.158   5.228   6.585
  579W        W 1476   0.143   0.560   4.410
  580W        W 1477   4.606   5.967   5.119
  581W        W 1478   7.413   4.681   5.948
  582W        W 1479   7.991   5.633   6.639
  583W        W 1480   3.832   7.376   0.280
  584W        W 1481   0.286   5.890   4.577
  585W        W 1482   2.289   0.991   6.095
  586W        W 1483   2.265   7.063   5.248
  587W        W 1484   7.324   0.298   1.252
  588W        W 1485   2.160   2.927   2.892
  589W        W 1486   1.774   5.224   7.423
  590W        W 1487   4.993   5.267   2.821
  591W        W 1488   5.627   3.686   6.405
  592W        W 1489   7.259   2.940   1.332
  593W        W 1490   2.877   6.251   5.587
  594W        W 1491   1.227   1.237   0.955
  595W        W 1492   3.396   7.434   1.537
  596W        W 1493   4.232   3.931   7.043
  597W        W 1494   1.236   7.565   4.667
  598W        W 1495   5.740   1.246   1.262
  599W        W 1496   3.007   1.081   6.393
  600W        W 1497   3.604   3.499   6.074
  601W        W 1498   5.221   1.061   6.166
  602W        W 1499   4.930   6.797   1.256
  603W        W 1500   2.289   3.106   4.016
  604W        W 1501   5.397   7.156   7.021
  605W        W 1502   1.186   5.085   5.902
  606W        W 1503   1.348   2.195   4.747
  607W        W 1504   5.230   6.346   6.416
  608W        W 1505   7.176   0.904   7.736
  609W        W 1506   2.805   4.665   6.760
  610W        W 1507   6.100   1.214   7.252
  611W        W 1508   4.819   3.146   4.692
  612W        W 1509   7.781   7.076   4.202
  613W        W 1510   5.101   1.691   1.163
  614W        W 1511   2.383   7.524   6.951
  615W        W 1512   2.800   6.112   3.806
  616W        W 1513   3.158   2.409   3.475
  617W        W 1514   7.563   0.563   0.850
  618W        W 1515   0.424   7.201   6.711
  619W        W 1516   0.152   2.032   6.016
  620W        W 1517   5.202   0.039   1.816
  621W        W 1518   3.216   2.553   6.908
  622W        W 1519   4.016   0.967   6.795
  623W        W 1520   0.603   5.519   7.381
  624W        W 1521   6.426   3.661   7.654
  625W        W 1522   5.652   1.070   7.518
  626W        W 1523   4.900   5.178   4.854
  627W        W 1524   1.500   7.354   5.865
  628W        W 1525   3.738   3.949   6.893
  629W        W 1526   6.105   3.523   5.085
  630W        W 1527   1.396   5.128   1.171
  631W        W 1528   5.814   6.463   4.070
  632W        W 1529   1.918   1.408   3.199
  633W        W 1530   7.084   0.246   7.757
  634W        W 1531   4.761   4.458   7.624
  635W        W 1532   2.863   3.651   4.411
  636W        W 1533   7.319   0.592   3.824
  637W        W 1534   0.942   3.312   3.162
  638W        W 1535   0.700   2.625   7.709
  639W        W 1536   7.696   4.389   5.619
  640W        W 1537   3.732   1.920   4.338
  641W        W 1538   5.663   7.312   0.318
  642W        W 1539   5.389   2.908   7.218
  643W        W 1540   6.666   1.431   7.086
  644W        W 1541   4.791   5.033   4.367
  645W        W 1542   7.727   7.693   5.756
  646W        W 1543   6.520   5.539   5.383
  647W        W 1544   3.053   0.148   6.574
  648W        W 1545   3.165   0.879   0.806
  649W        W 1546   2.648   2.429   4.900
  650W        W 1547   4.099   7.265   7.501
  651W        W 1548   7.142   7.191   3.641
  652W        W 1549   5.414   4.967   5.019
  653W        W 1550   5.643   4.973   1.712
  654W        W 1551   3.923   5.851   2.934
  655W        W 1552   1.047   0.730   0.842
  656W        W 1553   3.634   0.799   1.537
  657W        W 1554   3.739   6.172   4.685
  658W        W 1555   7.646   0.601   5.030
  659W        W 1556   1.802   3.796   0.068
  660W        W 1557   4.654   7.471   0.948
  661W        W 1558   5.444   5.721   6.519
  662W        W 1559   1.008   3.978   2.077
  663W        W 1560   0.677   1.078   1.695
  664W        W 1561   7.017   4.256   1.494
  665W        W 1562   6.891   6.336   5.858
  666W        W 1563   5.465   1.586   6.276
  667W        W 1564   1.614   5.297   3.790
  668W        W 1565   1.659   3.056   1.384
  669W        W 1566   1.408   3.908   7.214
  670W        W 1567   1.016   3.415   6.237
  671W        W 1568   5.187   5.137   2.376
  672W        W 1569   4.676   2.608   2.394
  673W        W 1570   5.945   7.734   0.261
  674W        W 1571   0.843   5.491   6.891
  675W        W 1572   7.895   6.664   1.385
  676W        W 1573   6.962   5.885   4.657
  677W        W 1574   4.583   7.146   2.891
  678W        W 1575   1.597   5.021   4.554
  679W        W 1576   4.845   3.903   4.494
  680W        W 1577   1.797   6.203   3.493
  681W        W 1578   4.333   6.850   4.869
  682W        W 1579   2.900   5.411   5.076
  683W        W 1580   3.117   0.315   2.395
  684W        W 1581   6.485   0.695   2.439
  685W        W 1582   2.286   5.863   6.341
  686W        W 1583   3.708   0.846   7.169
  687W        W 1584   5.315   1.012   2.156
  688W        W 1585   1.212   6.050   4.135
  689W        W 1586   4.418   4.685   2.333
  690W        W 1587   3.302   5.552   5.361
  691W        W 1588   3.398   6.302   2.719
  692W        W 1589   7.441   2.521   4.771
  693W        W 1590   5.560   3.464   4.792
  694W        W 1591   3.114   6.425   0.093
  695W        W 1592   3.636   4.251   6.241
  696W        W 1593   1.587   1.163   3.531
  697W        W 1594   7.052   4.064   4.338
  698W        W 1595   6.124   5.431   3.999
  699W        W 1596   2.929   3.730   6.663
  700W        W 1597   4.720   2.586   0.151
  701W        W 1598   3.666   1.042   2.376
  702W        W 1599   4.892   0.678   3.118
  703W        W 1600   6.602   4.315   3.583
  704W        W 1601   5.543   6.725   3.066
  705W        W 1602   4.428   4.893   7.861
  706W        W 1603   0.894   5.629   7.825
  707W        W 1604   1.349   4.504   5.750
  708W        W 1605   7.084   3.028   2.700
  709W        W 1606   5.021   6.502   4.099
  710W        W 1607   5.809   4.553   3.736
  711W        W 1608   7.200   6.199   0.631
  712W        W 1609   7.508   3.429   0.331
  713W        W 1610   7.863   0.510   3.663
  714W        W 1611   0.355   1.834   0.726
  715W        W 1612   3.006   4.287   2.349
  716W        W 1613   7.125   2.817   3.551
  717W        W 1614   6.192   5.055   6.704
  718W        W 1615   0.096   5.650   2.097
  719W        W 1616   5.053   5.760   2.776
  720W        W 1617   4.905   1.783   2.274
  721W        W 1618   0.547   1.496   2.918
  722W        W 1619   0.045   5.409   0.230
  723W        W 1620   3.246   0.574   7.868
  724W        W 1621   6.209   6.210   5.412
  725W        W 1622   0.915   3.151   0.918
  726W        W 1623   3.496   1.107   2.959
  727W        W 1624   1.212   3.620   1.771
  728W        W 1625   1.071   5.493   0.947
  729W        W 1626   6.261   0.329   0.226
  730W        W 1627   7.595   7.058   4.752
  731W        W 1628   5.221   7.081   1.783
  732W        W 1629   2.680   2.372   6.812
  733W        W 1630   0.272   4.236   0.905
  734W        W 1631   5.840   5.692   4.668
  735W        W 1632   6.359   6.594   1.848
  736W        W 1633   5.430   2.222   2.987
  737W        W 1634   0.352   0.725   0.326
  738W        W 1635   5.441   5.763   1.841
  739W        W 1636   2.954   1.700   1.674
  740W        W 1637   7.621   3.237   5.727
  741W        W 1638   0.649   2.401   2.353
  742W        W 1639   1.721   3.936   3.585
  743W        W 1640   3.599   7.066   1.749
  744W        W 1641   6.342   3.027   5.733
  745W        W 1642   4.090   4.384   7.175
  746W        W 1643   5.545   4.090   2.682
  747W        W 1644   2.264   5.237   2.081
  748W        W 1645   5.913   7.713   4.093
  749W        W 1646   3.245   6.402   1.144
  750W        W 1647   3.932   3.889   7.439
  751W        W 1648   5.110   0.302   7.294
  752W        W 1649   4.040   7.897   1.758
  753W        W 1650   5.233   2.606   3.191
  754W        W 1651   5.567   7.716   0.647
  755W        W 1652   4.869   1.991   7.449
  756W        W 1653   3.390   3.753   2.940
  757W        W 1654   0.812   1.401   2.087
  758W        W 1655   3.202   6.231   7.403
  759W        W 1656   1.524   6.920   4.096
  760W        W 1657   1.421   1.412   3.028
  761W        W 1658   7.420   1.326   1.427
  762W        W 1659   2.017   4.018   0.446
  763W        W 1660   2.558   2.666   6.394
  764W        W 1661   4.214   0.131   6.769
  765W        W 1662   7.147   2.379   4.286
  766W        W 1663   3.022   1.017   1.382
  767W        W 1664   6.438   3.904   5.094
  768W        W 1665   3.171   7.858   5.933
  769W        W 1666   5.918   1.346   4.481
  770W        W 1667   7.354   5.835   6.709
  771W        W 1668   1.022   7.298   5.068
  772W        W 1669   1.637   3.652   1.536
  773W        W 1670   4.700   5.783   3.570
  774W        W 1671   4.056   4.719   5.852
  775W        W 1672   5.083   0.796   4.373
  776W        W 1673   3.569   7.764   1.852
  777W        W 1674   3.311   0.291   3.292
  778W        W 1675   1.888   2.036   1.124
  779W        W 1676   3.141   5.918   4.320
  780W        W 1677   5.900   4.482   7.822
  781W        W 1678   2.393   6.021   7.142
  782W        W 1679   3.662   1.541   5.473
  783W        W 1680   3.203   4.382   3.852
  784W        W 1681   3.175   1.203   2.536
  785W        W 1682   4.765   0.817   1.985
  786W        W 1683   0.138   4.991   3.804
  787W        W 1684   6.678   2.203   6.575
  788W        W 1685   4.582   7.078   7.520
  789W        W 1686   7.080   0.317   2.566
  790W        W 1687   7.047   0.066   2.996
  791W        W 1688   1.420   6.824   7.049
  792W        W 1689   2.137   6.064   3.184
  793W        W 1690   1.079   1.219   7.341
  794W        W 1691   6.324   7.800   5.275
  795W        W 1692   3.814   6.348   3.067
  796W        W 1693   0.638   6.022   7.278
  797W        W 1694   3.896   0.582   2.569
  798W        W 1695   7.838   7.938   6.760
  799W        W 1696   5.724   3.797   7.221
  800W        W 1697   1.694   6.996   6.608
  801W        W 1698   6.550   6.219   6.919
  802W        W 1699   4.366   4.879   1.892
  803W        W 1700   3.890   4.464   5.227
  804W        W 1701   4.322   4.220   2.198
  805W        W 1702   7.712   6.556   5.491
  806W        W 1703   3.641   2.035   4.803
  807W        W 1704   5.137   0.074   6.827
  808W        W 1705   1.201   2.145   0.449
  809W        W 1706   5.710   6.609   4.849
  810W        W 1707   3.286   6.929   2.196
  811W        W 1708   7.891   6.294   0.069
  812W        W 1709   6.538   2.591   5.035
  813W        W 1710   6.993   6.038   1.494
  814W        W 1711   6.291   2.003   5.622
  815W        W 1712   1.628   5.686   7.034
  816W        W 1713   0.372   5.154   0.568
  817W        W 1714   3.695   6.274   7.428
  818W        W 1715   1.536   1.917   5.082
  819W        W 1716   7.188   6.624   5.549
  820W        W 1717   2.387   1.610   3.010
  821W        W 1718   2.750   7.132   5.512
  822W        W 1719   1.472   4.161   3.223
  823W        W 1720   3.574   6.717   1.410
  824W        W 1721   5.807   3.849   2.025
  825W        W 1722   4.042   6.809   2.948
  826W        W 1723   2.298   5.809   2.189
  827W        W 1724   1.396   7.287   3.533
  828W        W 1725   1.489   6.440   3.203
  829W        W 1726   5.793   4.260   3.313
  830W        W 1727   5.584   4.019   1.010
  831W        W 1728   7.298   7.951   2.552
  832W        W 1729   4.137   1.128   2.129
  833W        W 1730   3.710   2.616   7.064
  834W        W 1731   3.496   1.347   0.700
  835W        W 1732   4.900   1.727   0.701
  836W        W 1733   5.959   1.680   4.854
  837W        W 1734   4.010   1.473   0.865
  838W        W 1735   3.907   1.399   6.185
  839W        W 1736   2.220   5.611   5.922
  840W        W 1737   5.565   4.482   1.544
  841W        W 1738   0.017   2.878   5.815
  842W        W 1739   5.654   3.685   5.857
  843W        W 1740   4.875   6.902   5.078
  844W        W 1741   0.603   3.088   3.538
  845W        W 1742   2.782   0.548   7.621
  846W        W 1743   0.824   2.973   4.029
  847W        W 1744   3.367   0.318   5.128
  848W        W 1745   4.797   7.291   3.383
  849W        W 1746   2.473   6.320   6.284
  850W        W 1747   2.635   3.243   6.778
  851W        W 1748   2.664   7.910   6.859
  852W        W 1749   7.209   0.112   5.633
  853W        W 1750   5.711   6.140   6.348
  854W        W 1751   6.674   2.198   4.234
  855W        W 1752   1.766   4.509   2.203
  856W        W 1753   1.742   2.104   3.805
  857W        W 1754   3.532   5.255   7.353
  858W        W 1755   6.076   2.859   0.746
  859W        W 1756   6.840   2.037   1.491
  860W        W 1757   4.746   7.648   6.686
  861W        W 1758   1.311   2.704   1.901
  862W        W 1759   5.397   2.054   0.944
  863W        W 1760   6.285   2.643   0.354
  864W        W 1761   3.694   0.903   0.452
  865W        W 1762   1.893   0.839   0.304
  866W        W 1763   5.081   3.448   5.746
  867W        W 1764   7.060   2.886   2.249
  868W        W 1765   7.262   3.375   4.721
  869W        W 1766   4.021   3.014   6.903
  870W        W 1767   1.218   0.494   3.184
  871W        W 1768   0.889   0.470   6.247
  872W        W 1769   0.735   2.826   3.144
  873W        W 1770   1.304   4.926   7.471
  874W        W 1771   5.556   0.551   6.714
  875W        W 1772   6.728   3.740   2.280
  876W        W 1773   5.114   4.551   0.243
  877W        W 1774   7.038   6.970   1.620
  878W        W 1775   3.822   4.518   1.635
  879W        W 1776   4.001   1.172   5.234
  880W        W 1777   0.496   5.291   6.603
  881W        W 1778   0.546   3.519   6.411
  882W        W 1779   2.529   7.416   0.197
  883W        W 1780   0.703   1.015   5.857
  884W        W 1781   7.105   6.582   2.538
  885W        W 1782   3.681   1.747   6.533
  886W        W 1783   5.293   4.796   6.354
  887W        W 1784   0.915   3.159   7.669
  888W        W 1785   1.332   0.205   1.773
  889W        W 1786   5.819   7.572   7.811
  890W        W 1787   5.235   5.420   5.229
  891W        W 1788   3.351   4.753   2.063
  892W        W 1789   5.804   2.667   1.240
  893W        W 1790   4.362   1.525   5.319
  894W        W 1791   7.313   0.298   1.797
  895W        W 1792   0.001   1.151   2.642
  896W        W 1793   3.087   7.268   4.331
  897W        W 1794   2.723   7.498   7.370
  898W        W 1795   1.157   0.291   0.019
  899W        W 1796   0.068   3.400   6.557
  900W        W 1797   3.296   3.517   5.610
  901W        W 1798   4.511   5.557   4.874
  902W        W 1799   3.140   5.477   4.628
  903W        W 1800   6.893   6.693   6.422
  904W        W 1801   4.391   2.575   3.360
  905W        W 1802   2.871   6.934   7.424
  906W        W 1803   0.478   0.095   5.483
  907W        W 1804   1.796   1.134   5.320
  908W        W 1805   1.500   0.397   0.922
  909W        W 1806   5.036   3.241   1.043
  910W        W 1807   6.763   3.246   7.585
  911W        W 1808   7.846   6.979   6.494
  912W        W 1809   4.943   4.920   7.811
  913W        W 1810   2.943   6.998   3.799
  914W        W 1811   6.608   1.653   0.232
  915W        W 1812   1.326   5.599   6.604
  916W        W 1813   0.515   7.604   2.725
  917W        W 1814   2.104   3.453   2.841
  918W        W 1815   5.360   4.774   6.942
  919W        W 1816   3.958   6.118   6.932
  920W        W 1817   4.563   5.871   1.652
  921W        W 1818   0.128   4.512   3.746
  922W        W 1819   6.709   2.108   2.927
  923W        W 1820   1.515   2.327   6.240
  924W        W 1821   5.805   4.177   6.037
  925W        W 1822   7.004   1.155   1.234
  926W        W 1823   4.005   3.468   7.190
  927W        W 1824   6.670   0.107   7.514
  928W        W 1825   5.202   7.213   4.833
  929W        W 1826   0.297   4.506   5.010
  930W        W 1827   0.271   4.677   5.534
  931W        W 1828   4.491   2.303   7.446
  932W        W 1829   4.296   4.753   2.859
  933W        W 1830   2.726   5.544   0.325
  934W        W 1831   3.337   2.878   3.083
  935W        W 1832   3.582   0.331   2.203
  936W        W 1833   6.898   1.536   4.724
  937W        W 1834   4.864   5.840   1.046
  938W        W 1835   6.844   3.175   3.995
  939W        W 1836   5.552   1.919   4.293
  940W        W 1837   6.644   6.410   3.846
  941W        W 1838   5.767   1.207   5.472
  942W        W 1839   7.590   5.210   7.218
  943W        W 1840   6.334   2.871   1.214
  944W        W 1841   1.164   0.380   1.302
  945W        W 1842   1.428   5.400   5.470
  946W        W 1843   2.839   4.805   5.160
  947W        W 1844   0.454   3.077   0.898
  948W        W 1845   1.276   5.980   1.156
  949W        W 1846   4.396   0.151   0.998
  950W        W 1847   3.757   0.708   5.103
  951W        W 1848   5.179   7.568   1.086
  952W        W 1849   3.198   1.616   3.374
  953W        W 1850   7.319   5.022   0.938
  954W        W 1851   6.514   6.061   2.216
  955W        W 1852   3.070   4.476   4.871
  956W        W 1853   3.013   2.894   6.527
  957W        W 1854   0.221   2.667   1.105
  958W        W 1855   5.527   2.920   0.879
  959W        W 1856   7.000   1.626   3.893
  960W        W 1857   0.082   5.279   5.631
  961W        W 1858   6.018   0.832   1.040
  962W        W 1859   3.547   2.545   2.758
  963W        W 1860   1.077   0.354   4.798
  964W        W 1861   2.600   5.145   3.858
  965W        W 1862   5.689   2.920   2.350
  966W        W 1863   6.357   6.420   4.224
  967W        W 1864   2.504   2.739   0.926
  968W        W 1865   2.973   3.959   2.779
  969W        W 1866   7.246   1.188   5.668
  970W        W 1867   5.555   0.154   7.125
  971W        W 1868   4.456   7.403   5.796
  972W        W 1869   3.083   2.675   4.172
  973W        W 1870   2.269   6.175   1.319
  974W        W 1871   0.625   5.859   1.817
  975W        W 1872   0.003   4.041   0.383
  976W        W 1873   7.406   6.131   6.248
  977W        W 1874   7.332   7.423   1.373
  978W        W 1875   4.236   3.011   7.500
  979W        W 1876   1.180   6.272   4.569
  980W        W 1877   3.501   0.218   0.224
  981W        W 1878   7.113   1.939   1.921
  982W        W 1879   7.415   4.354   2.392
  983W        W 1880   2.056   1.011   2.319
  984W        W 1881   6.751   7.606   6.813
  985W        W 1882   3.062   5.826   2.898
  986W        W 1883   6.567   3.433   6.491
  987W        W 1884   4.902   7.280   1.376
  988W        W 1885   1.908   5.662   4.953
  989W        W 1886   4.602   6.999   0.081
  990W        W 1887   4.303   6.390   2.982
  991W        W 1888   6.280   6.292   7.885
  992W        W 1889   6.389   7.684   2.789
  993W        W 1890   0.843   4.714   3.298
  994W        W 1891   1.900   0.251   4.031
  995W        W 1892   5.444   2.473   2.541
  996W        W 1893   5.227   4.048   0.225
  997W        W 1894   2.799   3.654   3.432
  998W        W 1895   3.530   7.966   7.123
  999W        W 1896   5.449   3.091   3.041
 1000W        W 1897   5.641   5.643   3.982
 1001W        W 1898   7.776   5.874   7.021
 1002W        W 1899   4.843   4.339   0.739
 1003W        W 1900   0.195   1.231   0.158
 1004W        W 1901   0.354   7.844   6.757
 1005W        W 1902   3.928   6.100   6.005
 1006W        W 1903   2.580   4.977   6.336
 1007W        W 1904   1.569   5.996   5.173
 1008W        W 1905   4.949   4.583   3.597
 1009W        W 1906   3.142   6.756   5.561
 1010W        W 1907   1.693   3.645   5.545
 1011W        W 1908   1.664   3.058   4.620
 1012W        W 1909   6.564   2.752   0.738
 1013W        W 1910   3.505   2.500   0.225
 1014W        W 1911   7.628   3.244   1.543
 1015W        W 1912   5.518   2.090   3.465
 1016W        W 1913   2.215   3.016   6.558
 1017W        W 1914   6.436   0.366   3.845
 1018W        W 1915   7.726   2.999   7.922
 1019W        W 1916   1.697   7.012   2.333
 1020W        W 1917   2.470   5.045   6.798
 1021W        W 1918   2.699   4.150   4.825
 1022W        W 1919   0.296   1.363   4.181
 1023W        W 1920   0.897   3.350   1.464
 1024W        W 1921   3.724   1.509   3.200
 1025W        W 1922   1.622   3.374   2.600
 1026W        W 1923   4.354   7.543   3.313
 1027W        W 1924   7.034   5.787   3.834
 1028W        W 1925   3.507   3.142   5.294
 1029W        W 1926   3.004   0.352   0.136
 1030W        W 1927   4.364   0.457   7.512
 1031W        W 1928   0.452   4.205   7.641
 1032W        W 1929   5.168   0.548   2.339
 1033W        W 1930   1.032   4.046   6.922
 1034W        W 1931   4.476   0.410   1.428
 1035W        W 1932   2.368   6.709   7.733
 1036W        W 1933   5.465   5.845   0.242
 1037W        W 1934   3.378   4.676   0.238
 1038W        W 1935   3.341   5.214   1.690
 1039W        W 1936   5.398   2.125   6.481
 1040W        W 1937   4.562   1.263   0.791
 1041W        W 1938   1.465   6.290   7.881
 1042W        W 1939   2.826   6.337   7.059
 1043W        W 1940   4.891   6.400   5.183
 1044W        W 1941   2.804   7.722   6.385
 1045W        W 1942   1.821   0.355   0.484
 1046W        W 1943   0.775   7.207   6.385
 1047W        W 1944   1.342   1.666   2.598
 1048W        W 1945   5.338   1.827   0.456
 1049W        W 1946   2.874   4.892   1.459
 1050W        W 1947   1.834   0.195   2.522
 1051W        W 1948   6.239   7.300   5.351
 1052W        W 1949   4.969   4.629   2.548
 1053W        W 1950   0.777   3.832   3.508
 1054W        W 1951   5.149   6.670   6.909
 1055W        W 1952   6.085   1.512   6.300
 1056W        W 1953   7.465   2.577   3.265
 1057W        W 1954   1.638   2.544   6.727
 1058W        W 1955   0.385   4.034   4.797
 1059W        W 1956   0.482   1.379   5.674
 1060W        W 1957   0.242   4.853   3.310
 1061W        W 1958   3.665   3.092   5.783
 1062W        W 1959   5.309   6.489   1.442
 1063W        W 1960   3.938   1.744   6.996
 1064W        W 1961   0.524   3.550   3.870
 1065W        W 1962   0.786   3.743   2.892
 1066W        W 1963   4.999   6.683   5.574
 1067W        W 1964   1.681   4.256   4.748
 1068W        W 1965   0.938   1.418   6.009
 1069W        W 1966   5.440   4.797   3.544
 1070W        W 1967   4.939   7.991   5.248
 1071W        W 1968   1.130   4.601   0.022
 1072W        W 1969   0.559   1.736   5.308
 1073W        W 1970   1.912   7.623   0.138
 1074W        W 1971   6.608   3.807   1.743
 1075W        W 1972   3.360   2.001   4.042
 1076W        W 1973   1.248   6.889   3.215
 1077W        W 1974   0.386   0.180   0.625
 1078W        W 1975   7.818   0.030   0.051
 1079W        W 1976   1.154   2.878   1.361
 1080W        W 1977   0.217   5.175   1.127
 1081W        W 1978   3.241   7.779   2.356
 1082W        W 1979   6.462   0.782   4.379
 1083W        W 1980   5.998   1.762   4.130
 1084W        W 1981   1.353   3.223   6.577
 1085W        W 1982   6.247   1.885   2.814
 1086W        W 1983   0.016   0.103   4.674
 1087W        W 1984   1.278   1.701   4.585
 1088W        W 1985   6.061   1.630   1.049
 1089W        W 1986   4.359   1.204   1.277
 1090W        W 1987   7.505   0.577   6.032
 1091W        W 1988   2.201   1.277   5.682
 1092W        W 1989   7.471   0.804   3.433
 1093W        W 1990   4.863   6.071   2.328
 1094W        W 1991   7.267   0.286   3.432
 1095W        W 1992   0.667   1.209   3.347
 1096W        W 1993   6.712   4.690   7.639
 1097W        W 1994   1.447   1.939   2.961
 1098W        W 1995   3.201   5.503   0.365
 1099W        W 1996   3.084   1.142   1.986
 1100W        W 1997   5.634   6.317   5.254
 1101W        W 1998   6.265   4.431   5.015
 1102W        W 1999   6.228   7.698   3.540
 1103W        W 2000   3.817   0.298   5.391
 1104W        W 2001   7.453   2.320   5.309
 1105W        W 2002   2.261   0.455   0.278
 1106W        W 2003   0.618   6.358   1.648
 1107W        W 2004   5.950   2.835   4.406
 1108W        W 2005   3.496   0.941   7.629
 1109W        W 2006   3.541   0.154   2.723
 1110W        W 2007   3.276   2.798   1.962
 1111W        W 2008   6.605   4.633   3.981
 1112W        W 2009   2.097   5.571   7.236
 1113W        W 2010   3.938   4.747   0.571
 1114W        W 2011   3.676   6.414   3.541
 1115W        W 2012   0.629   1.559   1.554
 1116W        W 2013   5.639   1.258   2.512
 1117W        W 2014   6.580   2.519   7.484
 1118W        W 2015   3.073   6.453   2.278
 1119W        W 2016   1.672   7.002   0.107
 1120W        W 2017   6.582   2.142   0.206
 1121W        W 2018   3.323   6.757   7.436
 1122W        W 2019   7.066   7.436   4.566
 1123W        W 2020   4.897   3.388   6.199
 1124W        W 2021   4.086   7.244   4.600
 1125W        W 2022   4.753   6.501   4.682
 1126W        W 2023   7.787   1.222   1.973
 1127W        W 2024   0.973   2.798   0.005
 1128W        W 2025   2.719   3.061   6.067
 1129W        W 2026   0.311   2.970   6.510
 1130W        W 2027   3.989   1.950   5.393
 1131W        W 2028   4.207   2.560   7.067
 1132W        W 2029   3.163   6.994   1.347
 1133W        W 2030   3.157   2.765   4.711
 1134W        W 2031   7.860   4.910   5.399
 1135W        W 2032   6.256   1.267   4.194
 1136W        W 2033   3.739   5.514   1.710
 1137W        W 2034   3.727   2.511   2.244
 1138W        W 2035   4.923   1.444   5.399
 1139W        W 2036   2.640   2.948   4.716
 1140W        W 2037   3.330   4.647   6.497
 1141W        W 2038   2.232   2.089   3.938
 1142W        W 2039   3.494   5.968   3.092
 1143W        W 2040   5.105   5.474   6.177
 1144W        W 2041   6.122   1.669   0.272
 1145W        W 2042   7.264   2.924   4.477
 1146W        W 2043   5.446   0.715   3.238
 1147W        W 2044   1.736   7.025   0.934
 1148W        W 2045   4.487   5.108   6.605
 1149W        W 2046   6.668   2.283   5.422
 1150W        W 2047   7.317   2.931   5.472
 1151W        W 2048   3.832   3.164   3.826
 1152W        W 2049   1.718   5.164   5.019
 1153W        W 2050   4.167   7.871   5.845
 1154W        W 2051   0.744   0.647   3.507
 1155W        W 2052   1.061   2.166   6.440
 1156W        W 2053   3.500   4.993   3.530
 1157W        W 2054   1.456   6.088   6.783
 1158W        W 2055   0.721   5.777   4.064
 1159W        W 2056   6.049   4.942   5.816
 1160W        W 2057   4.093   7.270   4.077
 1161W        W 2058   6.821   2.684   4.519
 1162W        W 2059   0.176   4.104   4.233
 1163W        W 2060   4.662   3.662   5.389
 1164W        W 2061   3.102   2.998   5.602
 1165W        W 2062   2.564   0.491   4.434
 1166W        W 2063   6.150   4.255   5.563
 1167W        W 2064   0.487   1.568   6.136
 1168W        W 2065   1.649   2.257   0.717
 1169W        W 2066   3.816   3.033   2.810
 1170W        W 2067   7.100   3.206   5.790
 1171W        W 2068   7.677   5.164   1.867
 1172W        W 2069   0.980   6.467   3.292
 1173W        W 2070   3.674   6.573   5.610
 1174W        W 2071   6.041   4.914   7.650
 1175W        W 2072   1.498   1.382   4.905
 1176W        W 2073   6.991   5.747   0.853
 1177W        W 2074   3.953   0.469   0.623
 1178W        W 2075   7.739   5.277   1.321
 1179W        W 2076   5.560   2.026   4.787
 1180W        W 2077   5.736   6.995   6.161
 1181W        W 2078   0.339   7.377   1.948
 1182W        W 2079   0.921   6.228   2.177
 1183W        W 2080   1.042   6.311   7.583
 1184W        W 2081   1.148   4.542   6.912
 1185W        W 2082   6.086   5.191   1.483
 1186W        W 2083   4.388   0.124   0.498
 1187W        W 2084   6.891   5.013   7.314
 1188W        W 2085   6.918   4.515   6.020
 1189W        W 2086   6.321   3.066   5.216
 1190W        W 2087   7.212   6.156   2.290
 1191W        W 2088   6.741   2.980   6.628
 1192W        W 2089   2.993   6.432   0.665
 1193W        W 2090   5.777   5.716   7.713
 1194W        W 2091   1.153   2.669   0.473
 1195W        W 2092   1.910   7.212   0.497
 1196W        W 2093   2.532   6.671   0.820
 1197W        W 2094   4.139   7.036   1.675
 1198W        W 2095   3.777   5.041   3.983
 1199W        W 2096   6.230   5.550   1.949
 1200W        W 2097   1.666   2.182   2.557
 1201W        W 2098   2.492   6.273   2.169
 1202W        W 2099   2.663   7.517   0.802
 1203W        W 2100   3.737   2.660   6.034
 1204W        W 2101   6.420   2.814   4.139
 1205W        W 2102   2.111   3.553   1.486
 1206W        W 2103   0.056   0.427   2.832
 1207W        W 2104   6.219   5.873   6.812
 1208W        W 2105   2.025   3.961   7.673
 1209W        W 2106   2.661   4.839   5.864
 1210W        W 2107   3.781   0.367   1.725
 1211W        W 2108   7.508   0.166   2.258
 1212W        W 2109   1.347   6.122   2.686
 1213W        W 2110   2.943   0.783   2.344
 1214W        W 2111   4.079   6.023   4.351
 1215W        W 2112   4.425   1.954   7.083
 1216W        W 2113   3.688   2.512   3.309
 1217W        W 2114   0.591   5.175   3.517
 1218W        W 2115   4.496   2.126   2.183
 1219W        W 2116   4.290   5.304   1.647
 1220W        W 2117   5.587   2.360   1.548
 1221W        W 2118   3.663   0.579   3.519
 1222W        W 2119   3.412   2.518   6.484
 1223W        W 2120   1.800   6.958   4.553
 1224W        W 2121   6.351   1.034   2.079
 1225W        W 2122   0.347   5.778   5.098
 1226W        W 2123   0.176   3.893   3.716
 1227W        W 2124   6.373   3.359   3.339
 1228W        W 2125   4.649   1.885   4.478
 1229W        W 2126   6.861   1.993   2.479
 1230W        W 2127   6.455   5.133   2.675
 1231W        W 2128   3.810   5.574   0.861
 1232W        W 2129   5.481   0.448   7.577
 1233W        W 2130   4.876   1.732   6.991
 1234W        W 2131   0.850   0.708   2.890
 1235W        W 2132   0.172   5.419   6.260
 1236W        W 2133   1.607   3.627   7.575
 1237W        W 2134   4.993   6.619   1.777
 1238W        W 2135   0.447   3.259   0.140
 1239W        W 2136   6.302   6.449   0.468
 1240W        W 2137   3.927   1.219   1.525
 1241W        W 2138   5.914   2.344   3.234
 1242W        W 2139   1.936   7.458   1.801
 1243W        W 2140   2.191   5.884   0.891
 1244W        W 2141   2.946   3.010   7.081
 1245W        W 2142   0.403   0.677   2.529
 1246W        W 2143   3.607   4.399   5.713
 1247W        W 2144   6.651   4.122   5.875
 1248W        W 2145   3.650   1.181   5.817
 1249W        W 2146   6.839   0.103   0.252
 1250W        W 2147   3.229   2.330   2.286
 1251W        W 2148   1.304   2.260   7.257
 1252W        W 2149   0.355   6.905   2.535
 1253W        W 2150   6.057   2.553   2.331
 1254W        W 2151   6.922   4.117   1.982
 1255W        W 2152   6.060   5.321   2.393
 1256W        W 2153   3.696   3.430   6.748
 1257W        W 2154   6.034   3.740   0.950
 1258W        W 2155   3.728   0.913   6.345
 1259W        W 2156   3.315   4.899   2.817
 1260W        W 2157   5.217   4.981   5.881
 1261W        W 2158   5.230   5.305   1.880
 1262W        W 2159   3.032   1.755   2.519
 1263W        W 2160   4.184   5.626   5.296
 1264W        W 2161   2.294   6.490   1.731
 1265W        W 2162   5.000   2.260   2.551
 1266W        W 2163   5.754   4.647   7.351
 1267W        W 2164   4.997   6.915   4.465
 1268W        W 2165   3.596   2.501   0.732
 1269W        W 2166   0.936   4.322   6.089
 1270W        W 2167   4.062   5.318   4.870
 1271W        W 2168   2.040   0.260   5.024
 1272W        W 2169   3.889   6.723   7.542
 1273W        W 2170   1.014   0.208   4.188
 1274W        W 2171   1.124   3.015   2.735
 1275W        W 2172   0.300   4.453   6.463
 1276W        W 2173   1.384   3.156   1.782
 1277W        W 2174   0.285   5.537   3.614
 1278W        W 2175   0.325   0.641   1.620
 1279W        W 2176   4.457   7.728   5.363
 1280W        W 2177   1.853   7.749   2.223
 1281W        W 2178   5.461   4.541   2.447
 1282W        W 2179   1.550   0.760   5.615
 1283W        W 2180   0.517   7.623   7.632
 1284W        W 2181   5.951   7.552   2.617
 1285W        W 2182   0.764   5.254   4.025
 1286W        W 2183   7.025   4.993   6.147
 1287W        W 2184   1.355   0.207   2.311
 1288W        W 2185   4.323   6.866   3.803
 1289W        W 2186   6.591   2.008   1.994
 1290W        W 2187   2.815   2.610   7.300
 1291W        W 2188   6.963   0.777   3.486
 1292W        W 2189   5.027   1.383   6.502
 1293W        W 2190   5.171   7.381   2.880
 1294W        W 2191   0.061   1.487   5.192
 1295W        W 2192   4.114   0.242   2.343
 1296W        W 2193   4.686   0.030   7.445
 1297W        W 2194   5.301   0.539   0.683
 1298W        W 2195   3.173   1.837   7.517
 1299W        W 2196   7.601   7.132   5.439
 1300W        W 2197   1.914   4.956   0.181
 1301W        W 2198   2.414   3.338   3.550
 1302W        W 2199   5.515   3.154   0.293
 1303W        W 2200   5.947   0.852   4.478
 1304W        W 2201   5.108   5.571   3.873
 1305W        W 2202   6.119   4.913   3.718
 1306W        W 2203   6.069   3.507   6.110
 1307W        W 2204   7.708   1.714   7.231
 1308W        W 2205   1.076   5.248   4.481
 1309W        W 2206   7.738   1.006   6.227
 1310W        W 2207   4.952   5.119   0.358
 1311W        W 2208   3.882   7.454   1.443
 1312W        W 2209   7.136   7.857   5.127
 1313W        W 2210   4.823   2.843   3.268
 1314W        W 2211   1.508   2.550   1.237
 1315W        W 2212   3.943   0.452   6.544
 1316W        W 2213   7.671   4.616   1.903
 1317W        W 2214   4.984   0.197   5.627
 1318W        W 2215   1.266   3.859   5.422
 1319W        W 2216   4.074   1.852   1.220
 1320W        W 2217   2.767   6.856   2.116
 1321W        W 2218   2.694   1.833   6.786
 1322W        W 2219   1.433   6.839   5.911
 1323W        W 2220   0.937   6.741   7.292
 1324W        W 2221   3.873   2.918   0.695
 1325W        W 2222   4.633   1.684   6.480
 1326W        W 2223   3.132   5.419   7.093
 1327W        W 2224   5.136   5.654   2.250
 1328W        W 2225   5.669   0.753   6.255
 1329W        W 2226   3.789   6.089   2.538
 1330W        W 2227   2.176   6.495   3.556
 1331W        W 2228   4.946   7.098   3.972
 1332W        W 2229   2.105   6.729   6.482
 1333W        W 2230   0.188   7.660   5.751
 1334W        W 2231   6.740   4.741   2.733
 1335W        W 2232   2.082   3.323   4.749
 1336W        W 2233   5.952   6.594   1.539
 1337W        W 2234   3.296   2.774   7.354
 1338W        W 2235   2.922   5.931   5.199
 1339W        W 2236   1.617   6.714   2.744
 1340W        W 2237   5.128   4.140   2.311
 1341W        W 2238   3.305   5.931   0.083
 1342W        W 2239   4.899   1.989   5.242
 1343W        W 2240   6.758   2.202   4.719
 1344W        W 2241   1.693   7.448   6.320
 1345W        W 2242   0.718   1.108   1.178
 1346W        W 2243   5.579   3.161   7.796
 1347W        W 2244   4.543   5.476   0.451
 1348W        W 2245   6.331   0.780   2.972
 1349W        W 2246   4.908   4.412   5.364
 1350W        W 2247   7.587   5.823   0.334
 1351W        W 2248   7.290   1.129   3.799
 1352W        W 2249   7.237   5.494   2.855
 1353W        W 2250   3.796   6.571   6.955
 1354W        W 2251   7.591   2.620   1.561
 1355W        W 2252   1.116   5.761   4.478
 1356W        W 2253   5.633   5.043   6.633
 1357W        W 2254   7.688   3.141   4.289
 1358W        W 2255   3.902   6.224   5.291
 1359W        W 2256   7.548   7.130   7.445
 1360W        W 2257   4.078   6.811   1.228
 1361W        W 2258   7.388   6.661   7.393
 1362W        W 2259   2.617   2.730   5.294
 1363W        W 2260   0.066   4.405   4.621
 1364W        W 2261   0.529   5.970   3.629
 1365W        W 2262   1.082   5.121   3.580
 1366W        W 2263   6.769   6.635   7.704
 1367W        W 2264   0.164   6.131   6.648
 1368W        W 2265   1.351   0.689   0.338
 1369W        W 2266   0.785   4.239   2.560
 1370W        W 2267   5.822   4.122   0.417
 1371W        W 2268   3.554   3.598   7.563
 1372W        W 2269   0.559   3.992   6.820
 1373W        W 2270   1.324   3.160   2.276
 1374W        W 2271   2.800   4.596   3.966
 1375W        W 2272   4.534   1.931   3.184
 1376W        W 2273   5.336   6.642   0.219
 1377W        W 2274   5.751   4.630   2.029
 1378W        W 2275   2.358   2.337   7.234
 1379W        W 2276   5.462   7.445   5.905
 1380W        W 2277   3.398   6.171   5.759
 1381W        W 2278   5.394   7.332   3.924
 1382W        W 2279   1.932   6.657   7.394
 1383W        W 2280   5.947   3.208   1.205
 1384W        W 2281   3.313   3.006   6.108
 1385W        W 2282   7.018   4.293   7.774
 1386W        W 2283   5.677   0.823   1.485
 1387W        W 2284   4.061   5.772   6.440
 1388W        W 2285   0.514   7.411   3.602
 1389W        W 2286   1.272   7.091   6.285
 1390W        W 2287   6.063   2.971   2.700
 1391W        W 2288   6.957   3.770   7.577
 1392W        W 2289   4.540   2.522   6.452
 1393W        W 2290   3.530   0.381   6.928
 1394W        W 2291   7.183   0.281   0.651
 1395W        W 2292   3.573   2.011   3.508
 1396W        W 2293   5.642   1.206   5.954
 1397W        W 2294   0.590   4.329   2.097
 1398W        W 2295   1.725   4.283   6.180
 1399W        W 2296   4.089   2.308   3.037
 1400W        W 2297   3.429   0.065   4.510
 1401W        W 2298   6.949   0.172   3.822
 1402W        W 2299   1.038   3.576   7.433
 1403W        W 2300   2.652   5.645   1.216
 1404W        W 2301   6.126   6.337   3.747
 1405W        W 2302   6.615   3.402   5.975
 1406W        W 2303   1.999   3.934   4.185
 1407W        W 2304   0.093   1.727   6.402
 1408W        W 2305   3.957   7.669   5.072
 1409W        W 2306   1.754   2.981   6.474
 1410W        W 2307   6.848   5.103   3.094
 1411W        W 2308   3.094   5.313   2.624
 1412W        W 2309   7.130   4.711   6.527
 1413W        W 2310   5.257   2.207   6.949
 1414W        W 2311   0.545   6.512   7.548
 1415W        W 2312   1.963   6.059   5.524
 1416W        W 2313   0.439   1.282   2.433
 1417W        W 2314   6.040   4.928   4.276
 1418W        W 2315   7.192   2.343   1.678
 1419W        W 2316   0.855   0.673   0.025
 1420W        W 2317   1.077   4.228   4.581
 1421W        W 2318   5.578   0.261   5.410
 1422W        W 2319   2.568   4.130   3.144
 1423W        W 2320   6.233   7.846   2.339
 1424W        W 2321   3.342   0.838   6.064
 1425W        W 2322   5.847   3.300   0.705
 1426W        W 2323   1.049   2.854   5.481
 1427W        W 2324   3.880   1.009   3.305
 1428W        W 2325   3.349   0.740   2.617
 1429W        W 2326   3.414   0.026   3.754
 1430W        W 2327   5.279   3.992   3.233
 1431W        W 2328   1.204   1.112   5.672
 1432W        W 2329   4.636   3.366   0.664
 1433W        W 2330   5.867   1.910   6.439
 1434W        W 2331   6.972   4.184   3.358
 1435W        W 2332   1.757   5.758   2.386
 1436W        W 2333   4.545   0.159   7.952
 1437W        W 2334   2.785   0.380   0.604
 1438W        W 2335   7.453   7.326   6.059
 1439W        W 2336   5.881   6.534   6.110
 1440W        W 2337   4.576   5.573   6.286
 1441W        W 2338   4.989   5.452   0.756
 1442W        W 2339   4.415   1.467   7.041
 1443W        W 2340   7.622   2.966   7.407
 1444W        W 2341   0.696   0.010   4.939
 1445W        W 2342   5.107   6.191   5.599
 1446W        W 2343   2.370   4.307   4.069
 1447W        W 2344   3.922   7.605   7.838
 1448W        W 2345   2.765   6.116   0.203
 1449W        W 2346   6.542   2.731   2.102
 1450W        W 2347   5.764   6.814   0.460
 1451W        W 2348   4.776   6.357   6.772
 1452W        W 2349   5.685   5.510   5.672
 1453W        W 2350   7.032   1.800   7.258
 1454W        W 2351   7.466   0.457   7.432
 1455W        W 2352   1.287   5.443   7.476
 1456W        W 2353   5.107   0.975   1.586
 1457W        W 2354   2.976   2.602   0.038
 1458W        W 2355   6.839   7.828   2.078
 1459W        W 2356   5.096   0.342   3.456
 1460W        W 2357   7.444   6.258   6.994
 1461W        W 2358   0.981   1.980   6.889
 1462W        W 2359   1.698   6.040   0.745
 1463W        W 2360   4.291   7.260   5.202
 1464W        W 2361   1.832   1.599   6.802
 1465W        W 2362   1.571   0.159   3.661
 1466W        W 2363   2.094   1.166   2.820
 1467W        W 2364   4.369   0.714   2.394
 1468W        W 2365   1.978   2.923   3.614
 1469W        W 2366   4.646   5.944   7.121
 1470W        W 2367   7.515   7.059   1.667
 1471W        W 2368   5.632   6.273   0.555
 1472W        W 2369   7.772   5.007   2.868
 1473W        W 2370   0.832   7.449   1.820
 1474W        W 2371   1.489   3.457   3.598
 1475W        W 2372   7.830   0.337   1.667
 1476W        W 2373   4.464   7.476   4.318
 1477W        W 2374   7.209   1.608   1.007
 1478W        W 2375   7.819   2.425   0.823
 1479W        W 2376   7.616   1.182   4.268
 1480W        W 2377   3.777   5.363   5.362
 1481W        W 2378   0.808   4.842   0.512
 1482W        W 2379   0.557   0.767   0.837
 1483W        W 2380   7.396   2.144   2.285
 1484W        W 2381   3.286   1.367   7.418
 1485W        W 2382   0.073   7.311   2.727
 1486W        W 2383   6.108   0.476   2.685
 1487W        W 2384   5.061   3.422   7.793
 1488W        W 2385   5.746   0.169   2.180
 1489W        W 2386   0.618   1.067   6.389
 1490W        W 2387   6.417   4.384   7.015
 1491W        W 2388   3.487   2.871   3.580
 1492W        W 2389   3.098   0.309   1.107
 1493W        W 2390   5.510   5.288   6.214
 1494W        W 2391   0.645   6.649   2.890
 1495W        W 2392   0.532   6.204   3.129
 1496W        W 2393   3.502   4.934   4.472
 1497W        W 2394   3.043   0.357   7.017
 1498W        W 2395   3.017   4.769   2.442
 1499W        W 2396   6.702   1.587   1.012
 1500W        W 2397   2.018   2.511   2.460
 1501W        W 2398   5.339   2.579   3.728
 1502W        W 2399   2.529   5.449   6.412
 1503W        W 2400   3.428   5.126   6.378
 1504W        W 2401   7.373   3.802   3.851
 1505W        W 2402   2.520   0.357   6.877
 1506W        W 2403   7.254   2.918   6.584
 1507W        W 2404   2.553   1.263   1.173
 1508W        W 2405   0.615   4.878   2.424
 1509W        W 2406   0.527   1.313   7.570
 1510W        W 2407   7.116   5.438   7.039
 1511W        W 2408   1.996   0.039   3.378
 1512W        W 2409   7.485   2.874   6.173
 1513W        W 2410   0.213   6.878   1.741
 1514W        W 2411   6.753   7.597   4.938
 1515W        W 2412   3.436   4.257   2.072
 1516W        W 2413   7.335   1.510   1.843
 1517W        W 2414   1.189   5.528   3.936
 1518W        W 2415   3.193   1.760   0.687
 1519W        W 2416   3.407   4.553   0.697
 1520W        W 2417   1.650   1.108   1.739
 1521W        W 2418   4.816   2.432   7.080
 1522W        W 2419   5.085   2.746   4.577
 1523W        W 2420   6.311   1.793   6.945
 1524W        W 2421   4.427   7.403   7.943
 1525W        W 2422   7.248   0.490   4.654
 1526W        W 2423   0.710   6.439   5.324
 1527W        W 2424   1.578   0.561   1.513
 1528W        W 2425   0.163   4.900   4.767
 1529W        W 2426   1.390   3.206   7.456
 1530W        W 2427   5.150   3.670   7.039
 1531W        W 2428   5.962   7.482   3.126
 1532W        W 2429   1.789   5.157   2.912
 1533W        W 2430   7.661   4.491   5.009
 1534W        W 2431   6.670   2.988   3.101
 1535W        W 2432   3.016   3.384   3.020
 1536W        W 2433   1.410   4.579   4.291
 1537W        W 2434   5.463   1.985   5.925
 1538W        W 2435   1.992   2.594   6.242
 1539W        W 2436   0.177   2.228   6.485
 1540W        W 2437   4.453   4.650   6.316
 1541W        W 2438   5.435   6.421   5.905
 1542W        W 2439   6.318   4.527   1.141
 1543W        W 2440   5.505   4.971   7.689
 1544W        W 2441   5.537   4.004   1.517
 1545W        W 2442   6.639   4.827   0.731
 1546W        W 2443   1.803   5.346   5.932
 1547W        W 2444   3.276   1.815   5.063
 1548W        W 2445   1.989   5.266   3.367
 1549W        W 2446   4.133   0.137   6.210
 1550W        W 2447   1.441   0.409   2.745
 1551W        W 2448   6.397   3.710   5.643
 1552W        W 2449   5.358   4.297   3.635
 1553W        W 2450   0.576   4.406   7.164
 1554W        W 2451   1.734   0.332   7.420
 1555W        W 2452   5.772   2.401   0.733
 1556W        W 2453   4.438   5.155   5.178
 1557W        W 2454   2.671   1.960   6.346
 1558W        W 2455   1.765   6.611   2.013
 1559W        W 2456   2.391   3.822   4.472
 1560W        W 2457   0.692   1.024   3.893
 1561W        W 2458   3.205   0.791   3.265
 1562W        W 2459   5.526   5.410   6.960
 1563W        W 2460   1.990   2.427   0.388
 1564W        W 2461   2.868   5.553   4.098
 1565W        W 2462   0.980   5.608   5.702
 1566W        W 2463   5.858   2.253   5.700
 1567W        W 2464   0.274   4.709   0.782
 1568W        W 2465   2.491   4.948   4.695
 1569W        W 2466   2.467   0.548   1.911
 1570W        W 2467   2.000   6.580   3.082
 1571W        W 2468   1.486   6.327   1.615
 1572W        W 2469   6.531   4.885   2.258
 1573W        W 2470   3.216   3.324   6.769
 1574W        W 2471   2.016   0.649   2.763
 1575W        W 2472   2.458   2.247   5.464
 1576W        W 2473   0.776   7.026   3.448
 1577W        W 2474   6.257   0.049   7.804
 1578W        W 2475   2.769   2.332   3.953
 1579W        W 2476   2.647   5.507   6.980
 1580W        W 2477   2.657   2.848   4.251
 1581W        W 2478   7.808   6.537   3.566
 1582W        W 2479   3.516   7.607   4.272
 1583W        W 2480   3.424   6.925   3.613
 1584W        W 2481   2.790   1.854   5.222
 1585W        W 2482   0.483   0.297   6.555
 1586W        W 2483   1.912   1.926   2.155
 1587W        W 2484   4.429   4.711   7.357
 1588W        W 2485   1.396   6.712   7.553
 1589W        W 2486   4.099   3.364   5.994
 1590W        W 2487   3.853   4.818   0.070
 1591W        W 2488   5.960   1.198   4.977
 1592W        W 2489   5.033   5.651   0.213
 1593W        W 2490   5.166   3.297   2.554
 1594W        W 2491   6.900   2.318   0.600
 1595W        W 2492   1.111   2.459   6.875
 1596W        W 2493   4.177   4.628   3.946
 1597W        W 2494   5.798   2.784   3.902
 1598W        W 2495   7.073   4.583   3.715
 1599W        W 2496   7.179   3.464   7.307
 1600W        W 2497   4.388   4.202   7.528
 1601W        W 2498   1.875   5.670   2.863
 1602W        W 2499   4.097   2.644   2.627
 1603W        W 2500   4.638   6.353   5.644
 1604W        W 2501   3.580   3.200   1.064
 1605W        W 2502   2.526   3.282   7.359
 1606W        W 2503   3.843   0.785   5.595
 1607W        W 2504   1.962   0.517   3.593
 1608W        W 2505   7.330   6.644   5.037
 1609W        W 2506   2.521   4.185   0.344
 1610W        W 2507   3.114   6.868   0.871
 1611W        W 2508   1.413   2.944   7.000
 1612W        W 2509   5.574   2.616   4.746
 1613W        W 2510   3.474   0.799   4.361
 1614W        W 2511   2.069   7.374   4.854
 1615W        W 2512   0.448   0.638   6.210
 1616W        W 2513   1.566   1.004   6.819
 1617W        W 2514   2.584   5.970   4.201
 1618W        W 2515   0.985   4.245   5.589
 1619W        W 2516   1.110   1.259   3.675
 1620W        W 2517   5.261   0.686   1.193
 1621W        W 2518   5.874   0.817   3.559
 1622W        W 2519   1.037   0.452   5.780
 1623W        W 2520   6.299   6.001   5.856
 1624W        W 2521   6.143   0.541   2.088
 1625W        W 2522   5.531   6.685   1.928
 1626W        W 2523   2.042   2.409   3.534
 1627W        W 2524   2.566   1.447   6.183
 1628W        W 2525   4.419   0.971   7.169
 1629W        W 2526   2.848   5.053   4.266
 1630W        W 2527   5.473   6.391   4.374
 1631W        W 2528   6.034   5.371   2.947
 1632W        W 2529   7.386   3.899   0.274
 1633W        W 2530   1.230   7.334   0.843
 1634W        W 2531   1.219   1.645   0.593
 1635W        W 2532   2.223   1.625   6.504
 1636W        W 2533   6.641   4.362   0.719
 1637W        W 2534   3.288   3.889   5.962
 1638W        W 2535   0.890   2.120   4.923
 1639W        W 2536   2.443   6.161   5.267
 1640W        W 2537   3.406   2.905   0.505
 1641W        W 2538   7.425   4.879   2.271
 1642W        W 2539   5.567   7.750   2.973
 1643W        W 2540   4.133   5.179   7.571
 1644W        W 2541   2.783   3.019   2.816
 1645W        W 2542   1.930   7.493   5.355
 1646W        W 2543   1.720   5.963   4.000
 1647W        W 2544   6.384   7.461   3.976
 1648W        W 2545   0.612   2.337   0.724
 1649W        W 2546   4.255   5.130   6.119
 1650W        W 2547   6.893   2.676   4.015
 1651W        W 2548   7.917   1.335   0.567
 1652W        W 2549   2.199   1.995   6.868
 1653W        W 2550   0.589   3.749   2.325
 1654W        W 2551   5.467   4.137   5.269
 1655W        W 2552   7.769   0.007   0.609
 1656W        W 2553   3.719   0.018   3.235
 1657W        W 2554   4.320   7.270   0.451
 1658W        W 2555   4.813   4.765   3.028
 1659W        W 2556   2.061   6.437   0.850
 1660W        W 2557   2.863   5.175   5.543
 1661W        W 2558   2.775   4.943   2.837
 1662W        W 2559   2.021   3.080   1.712
 1663W        W 2560   6.124   0.950   6.361
 1664W        W 2561   7.318   7.049   6.474
 1665W        W 2562   0.326   0.362   5.032
 1666W        W 2563   4.045   6.518   2.556
 1667W        W 2564   3.916   2.169   2.571
 1668W        W 2565   0.726   0.133   1.450
 1669W        W 2566   5.090   2.202   1.444
 1670W        W 2567   4.726   6.268   3.282
 1671W        W 2568   2.015   3.447   4.292
 1672W        W 2569   0.942   0.045   7.397
 1673W        W 2570   4.214   6.426   0.818
 1674W        W 2571   0.938   2.908   6.753
 1675W        W 2572   4.512   0.027   1.725
 1676W        W 2573   0.766   6.490   4.750
 1677W        W 2574   6.610   2.008   7.665
 1678W        W 2575   5.943   7.490   2.121
 1679W        W 2576   3.714   6.869   0.295
 1680W        W 2577   4.883   0.308   0.446
 1681W        W 2578   2.308   3.787   7.320
 1682W        W 2579   2.179   4.201   5.958
 1683W        W 2580   4.270   4.141   6.190
 1684W        W 2581   4.616   1.846   1.382
 1685W        W 2582   1.293   4.122   1.702
 1686W        W 2583   1.215   3.061   5.914
 1687W        W 2584   1.364   0.711   1.909
 1688W        W 2585   0.721   5.963   5.409
 1689W        W 2586   0.454   0.381   2.065
 1690W        W 2587   2.170   4.913   3.719
 1691W        W 2588   6.632   3.002   3.596
 1692W        W 2589   5.205   3.388   0.588
 1693W        W 2590   4.047   6.348   3.892
 1694W        W 2591   4.296   3.258   4.496
 1695W        W 2592   5.036   3.868   1.023
 1696W        W 2593   3.318   1.371   1.550
 1697W        W 2594   2.112   6.221   4.236
 1698W        W 2595   3.852   3.025   1.763
 1699W        W 2596   6.383   1.554   7.511
 1700W        W 2597   3.671   7.465   4.715
 1701W        W 2598   4.329   4.651   0.978
 1702W        W 2599   0.715   6.990   4.646
 1703W        W 2600   4.883   4.704   7.157
 1704W        W 2601   6.255   2.020   4.540
 1705W        W 2602   0.548   2.462   1.569
 1706W        W 2603   4.487   5.047   1.235
 1707W        W 2604   2.172   6.763   0.433
 1708W        W 2605   2.230   5.879   0.403
 1709W        W 2606   1.522   4.102   4.276
 1710W        W 2607   2.072   5.509   5.415
 1711W        W 2608   4.080   4.237   6.683
 1712W        W 2609   6.735   0.824   0.649
 1713W        W 2610   4.665   1.165   0.297
 1714W        W 2611   4.929   5.654   6.654
 1715W        W 2612   4.505   1.092   6.669
 1716W        W 2613   0.290   6.139   6.042
 1717W        W 2614   6.005   7.506   5.724
 1718W        W 2615   3.982   4.589   2.126
 1719W        W 2616   5.631   0.344   2.737
 1720W        W 2617   5.580   7.423   4.392
 1721W        W 2618   5.927   2.244   2.715
 1722W        W 2619   5.787   1.949   5.289
 1723W        W 2620   7.447   6.249   5.807
 1724W        W 2621   2.034   0.786   1.824
 1725W        W 2622   7.803   0.754   4.114
 1726W        W 2623   4.717   4.169   0.270
 1727W        W 2624   0.612   7.069   7.615
 1728W        W 2625   2.352   5.459   0.670
 1729W        W 2626   1.368   7.756   1.100
 1730W        W 2627   4.551   5.998   4.611
 1731W        W 2628   0.932   1.536   7.806
 1732W        W 2629   1.355   7.960   7.427
 1733W        W 2630   3.856   3.053   6.327
 1734W        W 2631   2.370   6.774   1.299
 1735W        W 2632   4.830   1.667   0.222
 1736W        W 2633   7.390   6.099   1.076
 1737W        W 2634   3.657   1.297   6.978
 1738W        W 2635   4.447   4.458   4.385
 1739W        W 2636   6.983   6.902   2.143
 1740W        W 2637   3.032   2.300   0.911
 1741W        W 2638   3.076   6.488   3.479
 1742W        W 2639   3.312   3.741   7.089
 1743W        W 2640   3.918   2.826   0.213
 1744W        W 2641   4.656   6.791   7.052
 1745W        W 2642   3.806   6.906   2.221
 1746W        W 2643   1.634   1.361   7.526
 1747W        W 2644   6.781   5.229   7.787
 1748W        W 2645   0.824   4.641   7.502
 1749W        W 2646   3.539   2.936   6.742
 1750W        W 2647   0.574   4.829   6.865
 1751W        W 2648   0.809   6.249   6.416
 1752W        W 2649   1.505   1.445   5.910
 1753W        W 2650   2.334   4.612   3.045
 1754W        W 2651   6.421   3.439   1.378
 1755W        W 2652   2.523   3.767   3.990
 1756W        W 2653   4.141   2.110   4.654
 1757W        W 2654   3.156   3.795   2.145
 1758W        W 2655   7.337   2.077   0.571
 1759W        W 2656   7.699   6.299   0.657
 1760W        W 2657   4.276   5.978   5.638
 1761W        W 2658   5.976   1.385   1.665
 1762W        W 2659   2.449   1.452   6.961
 1763W        W 2660   7.434   7.999   7.757
 1764W        W 2661   6.953   3.751   4.740
 1765W        W 2662   3.286   7.186   5.262
 1766W        W 2663   3.228   1.384   4.333
 1767W        W 2664   1.714   7.015   3.110
 1768W        W 2665   2.732   1.795   4.676
 1769W        W 2666   6.096   7.198   1.694
 1770W        W 2667   3.501   5.123   1.203
 1771W        W 2668   0.218   3.341   0.548
 1772W        W 2669   6.651   5.012   3.663
 1773W        W 2670   2.243   6.374   6.846
 1774W        W 2671   3.839   5.018   1.902
 1775W        W 2672   6.737   1.683   5.535
 1776W        W 2673   2.236   1.807   3.504
 1777W        W 2674   3.303   4.917   6.917
 1778W        W 2675   6.465   4.263   1.682
 1779W        W 2676   4.609   3.604   7.491
 1780W        W 2677   0.145   7.014   7.565
 1781W        W 2678   6.803   1.985   6.028
 1782W        W 2679   5.795   7.642   5.286
 1783W        W 2680   6.118   6.671   2.613
 1784W        W 2681   1.076   6.421   0.699
 1785W        W 2682   4.283   4.278   0.635
 1786W        W 2683   3.646   5.627   4.519
 1787W        W 2684   0.041   3.567   4.054
 1788W        W 2685   5.750   0.903   2.899
 1789W        W 2686   2.062   0.753   5.628
 1790W        W 2687   6.958   3.903   5.267
 1791W        W 2688   1.268   3.395   4.717
 1792W        W 2689   4.620   4.195   1.225
 1793W        W 2690   0.701   2.712   7.109
 1794W        W 2691   0.211   6.146   2.027
 1795W        W 2692   4.886   3.186   5.348
 1796W        W 2693   3.319   6.605   1.799
 1797W        W 2694   0.096   0.840   5.805
 1798W        W 2695   0.478   5.827   0.451
 1799W        W 2696   5.625   4.828   4.497
 1800W        W 2697   1.130   4.680   3.813
 1801W        W 2698   7.385   6.463   0.108
 1802W        W 2699   0.993   4.627   2.170
 1803W        W 2700   1.239   3.952   2.832
 1804W        W 2701   4.080   1.861   5.925
 1805W        W 2702   6.219   3.480   1.869
 1806W        W 2703   0.039   1.014   4.501
 1807W        W 2704   1.488   3.470   6.015
 1808W        W 2705   6.354   2.104   5.081
 1809W        W 2706   1.212   4.380   1.303
 1810W        W 2707   6.844   4.263   6.637
 1811W        W 2708   1.089   6.075   1.719
 1812W        W 2709   0.263   5.949   2.745
 1813W        W 2710   4.371   5.161   7.115
 1814W        W 2711   2.051   0.698   1.134
 1815W        W 2712   5.958   1.234   0.640
 1816W        W 2713   7.117   4.665   0.600
 1817W        W 2714   5.474   0.387   4.764
 1818W        W 2715   7.461   4.369   3.499
 1819W        W 2716   5.412   4.293   0.654
 1820W        W 2717   5.084   2.527   6.522
 1821W        W 2718   2.245   1.882   6.034
 1822W        W 2719   1.216   2.837   3.160
 1823W        W 2720   7.207   7.464   0.255
 1824W        W 2721   5.989   2.246   0.315
 1825W        W 2722   7.474   4.896   3.837
 1826W        W 2723   0.162   5.335   3.125
 1827W        W 2724   0.563   6.360   6.866
 1828W        W 2725   1.679   3.131   3.960
 1829W        W 2726   4.232   7.719   1.172
 1830W        W 2727   1.862   5.139   2.330
 1831W        W 2728   5.347   1.805   7.285
 1832W        W 2729   4.147   1.825   2.859
 1833W        W 2730   2.121   5.639   6.736
 1834W        W 2731   0.173   6.455   2.522
 1835W        W 2732   3.278   2.746   0.980
 1836W        W 2733   0.910   2.543   2.820
 1837W        W 2734   7.288   0.628   2.954
 1838W        W 2735   5.340   0.979   6.624
 1839W        W 2736   6.087   0.257   5.507
 1840W        W 2737   1.905   5.102   4.144
 1841W        W 2738   6.699   5.577   6.068
 1842W        W 2739   1.514   6.414   4.897
 1843W        W 2740   3.148   2.064   6.582
 1844W        W 2741   7.778   2.212   3.494
 1845W        W 2742   2.633   6.592   6.671
 1846W        W 2743   7.161   2.308   6.846
 1847W        W 2744   1.516   6.114   0.282
 1848W        W 2745   2.008   2.416   2.989
 1849W        W 2746   6.247   5.436   5.905
 1850W        W 2747   5.797   3.576   0.022
 1851W        W 2748   6.622   0.755   5.958
 1852W        W 2749   1.246   4.714   4.776
 1853W        W 2750   2.197   0.056   1.894
 1854W        W 2751   2.090   3.210   2.385
 1855W        W 2752   3.004   6.184   6.099
 1856W        W 2753   1.817   4.992   1.822
 1857W        W 2754   4.865   2.099   6.601
 1858W        W 2755   6.064   3.808   1.584
 1859W        W 2756   5.454   0.482   0.221
 1860W        W 2757   3.931   4.829   6.378
 1861W        W 2758   4.674   1.634   4.049
 1862W        W 2759   3.206   0.200   7.426
 1863W        W 2760   3.348   5.392   4.159
 1864W        W 2761   6.829   1.081   2.116
 1865W        W 2762   3.873   3.403   4.280
 1866W        W 2763   0.250   5.444   2.615
 1867W        W 2764   2.171   3.129   1.158
 1868W        W 2765   2.897   5.189   1.945
 1869W        W 2766   0.252   6.321   5.505
 1870W        W 2767   2.669   5.857   0.711
 1871W        W 2768   2.109   6.761   4.220
 1872W        W 2769   1.855   0.008   4.644
 1873W        W 2770   1.808   0.282   6.695
 1874W        W 2771   4.581   3.576   0.203
 1875W        W 2772   1.275   3.983   5.953
 1876W        W 2773   7.166   7.340   7.073
 1877W        W 2774   4.955   7.670   5.810
 1878W        W 2775   3.845   4.224   0.864
 1879W        W 2776   4.206   1.064   4.467
 1880W        W 2777   3.553   7.069   3.098
 1881W        W 2778   0.218   5.814   7.459
 1882W        W 2779   6.828   2.538   2.613
 1883W        W 2780   7.382   1.826   7.628
 1884W        W 2781   0.652   1.996   3.002
 1885W        W 2782   3.335   7.377   3.873
 1886W        W 2783   1.988   3.482   3.790
 1887W        W 2784   6.788   4.567   1.136
 1888W        W 2785   3.232   3.637   1.184
 1889W        W 2786   7.208   6.114   2.773
 1890W        W 2787   2.721   6.087   2.596
 1891W        W 2788   2.496   3.248   1.568
 1892W        W 2789   5.125   4.333   6.740
 1893W        W 2790   3.246   3.966   4.592
 1894W        W 2791   4.933   3.135   0.230
 1895W        W 2792   5.919   0.474   3.160
 1896W        W 2793   2.226   5.983   3.793
 1897W        W 2794   3.987   5.360   6.617
 1898W        W 2795   4.480   4.619   1.488
 1899W        W 2796   7.046   1.351   2.748
 1900W        W 2797   3.568   5.426   3.695
 1901W        W 2798   1.183   2.925   4.479
 1902W        W 2799   5.804   2.326   4.417
 1903W        W 2800   2.377   6.324   2.837
 1904W        W 2801   4.930   2.152   0.417
 1905W        W 2802   5.550   0.934   0.903
 1906W        W 2803   2.230   4.743   2.211
 1907W        W 2804   7.504   0.718   2.275
 1908W        W 2805   3.090   7.742   7.182
 1909W        W 2806   4.484   4.262   1.770
 1910W        W 2807   2.129   7.321   4.267
 1911W        W 2808   1.609   5.640   1.037
 1912W        W 2809   4.734   1.451   7.433
 1913W        W 2810   7.606   6.997   3.671
 1914W        W 2811   5.458   7.250   7.553
 1915W        W 2812   5.494   0.598   4.215
 1916W        W 2813   4.716   6.765   3.543
 1917W        W 2814   1.042   4.241   4.080
 1918W        W 2815   7.744   3.892   3.563
 1919W        W 2816   0.779   0.999   0.453
 1920W        W 2817   1.308   3.509   7.007
 1921W        W 2818   1.600   0.992   1.243
 1922W        W 2819   1.279   7.200   7.412
 1923W        W 2820   1.781   2.625   1.639
 1924W        W 2821   2.386   7.083   7.388
 1925W        W 2822   3.090   7.656   1.864
 1926W        W 2823   4.389   6.038   6.102
 1927W        W 2824   3.083   3.534   2.502
 1928W        W 2825   1.068   6.386   6.983
 1929W        W 2826   5.890   4.705   6.356
 1930W        W 2827   1.229   0.181   0.542
 1931W        W 2828   1.669   5.554   4.272
 1932W        W 2829   1.354   1.459   6.841
 1933W        W 2830   1.082   0.725   7.076
 1934W        W 2831   0.538   5.265   0.141
 1935W        W 2832   6.805   6.437   2.152
 1936W        W 2833   3.837   6.798   3.835
 1937W        W 2834   4.247   6.437   7.319
 1938W        W 2835   7.244   0.813   4.263
 1939W        W 2836   5.303   5.041   3.127
 1940W        W 2837   3.117   3.294   7.520
 1941W        W 2838   2.739   3.922   6.057
 1942W        W 2839   0.376   5.804   6.950
 1943W        W 2840   1.421   1.628   3.957
 1944W        W 2841   0.104   6.058   0.834
 1945W        W 2842   5.507   5.082   5.500
 1946W        W 2843   5.989   6.834   2.167
 1947W        W 2844   6.769   6.851   5.832
 1948W        W 2845   6.058   0.478   4.867
 1949W        W 2846   4.480   1.822   4.931
 1950W        W 2847   7.475   1.578   0.488
 1951W        W 2848   1.804   0.351   5.506
 1952W        W 2849   1.537   7.087   1.849
 1953W        W 2850   6.088   4.661   1.547
 1954W        W 2851   5.708   1.903   0.037
 1955W        W 2852   5.630   6.787   1.121
 1956W        W 2853   4.373   0.793   0.964
 1957W        W 2854   0.644   2.928   1.359
 1958W        W 2855   6.453   3.035   7.293
 1959W        W 2856   4.664   1.779   1.867
 1960W        W 2857   6.258   2.288   0.773
 1961W        W 2858   5.886   0.027   5.063
 1962W        W 2859   0.372   2.585   6.091
 1963W        W 2860   0.018   7.813   7.121
 1964W        W 2861   7.154   1.682   3.069
 1965W        W 2862   1.773   5.616   6.378
 1966W        W 2863   1.520   5.386   2.095
 1967W        W 2864   1.019   1.694   5.050
 1968W        W 2865   2.013   0.075   6.290
 1969W        W 2866   7.173   7.619   3.381
 1970W        W 2867   7.083   1.412   3.457
 1971W        W 2868   2.583   0.053   0.162
 1972W        W 2869   2.198   3.979   4.941
 1973W        W 2870   7.338   6.605   1.920
 1974W        W 2871   5.544   1.009   4.693
 1975W        W 2872   1.641   7.805   5.591
 1976W        W 2873   5.860   1.826   3.177
 1977W        W 2874   4.464   2.025   0.416
 1978W        W 2875   1.119   1.322   1.653
 1979W        W 2876   6.616   3.000   2.510
 1980W        W 2877   1.498   6.300   7.258
 1981W        W 2878   1.089   0.951   6.147
 1982W        W 2879   7.939   7.609   1.269
 1983W        W 2880   3.399   1.465   7.873
 1984W        W 2881   4.192   6.397   4.677
 1985W        W 2882   0.905   2.939   1.780
 1986W        W 2883   6.565   5.266   1.696
 1987W        W 2884   2.230   5.745   7.698
 1988W        W 2885   1.069   1.086   6.610
 1989W        W 2886   2.942   1.370   0.471
 1990W        W 2887   7.490   3.705   5.539
 1991W        W 2888   7.928   7.158   1.884
 1992W        W 2889   3.392   6.196   5.279
 1993W        W 2890   2.781   0.949   5.994
 1994W        W 2891   6.257   2.546   7.049
 1995W        W 2892   4.510   0.641   0.463
 1996W        W 2893   3.231   4.870   3.951
 1997W        W 2894   3.359   7.246   2.620
 1998W        W 2895   1.914   4.505   0.423
 1999W        W 2896   6.547   1.250   2.513
 2000W        W 2897   0.980   5.934   6.746
 2001W        W 2898   2.474   4.554   3.569
 2002W        W 2899   4.230   3.791   5.564
 2003W        W 2900   0.227   0.752   3.516
 2004W        W 2901   0.232   0.842   4.000
 2005W        W 2902   6.693   0.490   2.870
 2006W        W 2903   1.815   1.539   3.692
 2007W        W 2904   2.143   5.431   0.147
 2008W        W 2905   6.948   5.099   0.420
 2009W        W 2906   4.020   3.477   7.739
 2010W        W 2907   2.827   0.854   6.900
 2011W        W 2908   4.912   7.167   6.819
 2012W        W 2909   7.252   3.724   3.317
 2013W        W 2910   0.162   1.208   6.194
 2014W        W 2911   4.949   4.012   3.649
 2015W        W 2912   0.939   2.608   1.054
 2016W        W 2913   6.930   3.290   1.548
 2017W        W 2914   5.167   2.924   7.698
 2018W        W 2915   6.875   2.443   7.941
 2019W        W 2916   2.224   7.372   2.325
 2020W        W 2917   1.354   6.380   3.694
 2021W        W 2918   0.232   0.326   0.117
 2022W        W 2919   6.595   7.303   4.501
 2023W        W 2920   7.065   3.438   6.826
 2024W        W 2921   2.483   2.831   2.485
 2025W        W 2922   4.043   3.532   1.679
 2026W        W 2923   7.006   7.441   1.834
 2027W        W 2924   2.497   5.128   0.319
 2028W        W 2925   5.769   2.356   6.202
 2029W        W 2926   6.145   3.224   7.673
 2030W        W 2927   5.229   1.415   3.787
 2031W        W 2928   7.013   5.180   2.507
 2032W        W 2929   2.883   2.815   3.299
 2033W        W 2930   4.945   3.942   1.648
 2034W        W 2931   6.393   6.526   5.815
 2035W        W 2932   2.329   1.970   4.965
 2036W        W 2933   1.610   4.718   1.373
 2037W        W 2934   1.421   4.692   0.411
 2038W        W 2935   5.711   2.009   6.919
 2039W        W 2936   3.969   2.968   3.260
 2040W        W 2937   0.714   2.734   4.520
 2041W        W 2938   0.895   3.346   2.040
 2042W        W 2939   3.964   0.095   7.596
 2043W        W 2940   6.964   1.535   2.299
 2044W        W 2941   1.916   6.162   6.509
 2045W        W 2942   3.886   2.596   6.532
 2046W        W 2943   6.142   3.025   2.139
 2047W        W 2944   0.879   4.754   4.268
 2048W        W 2945   2.978   5.242   6.632
 2049W        W 2946   7.896   6.912   3.206
 2050W        W 2947   5.367   4.123   7.115
 2051W        W 2948   6.887   0.308   4.326
 2052W        W 2949   7.839   1.862   0.694
 2053W        W 2950   6.764   7.893   6.301
 2054W        W 2951   2.869   5.454   3.157
 2055W        W 2952   0.456   6.649   3.371
 2056W        W 2953   6.847   7.061   6.775
 2057W        W 2954   6.100   5.880   4.204
 2058W        W 2955   5.428   4.338   6.311
 2059W        W 2956   0.696   2.593   5.201
 2060W        W 2957   3.725   7.776   2.289
 2061W        W 2958   3.485   1.510   4.750
 2062W        W 2959   6.052   5.610   7.202
 2063W        W 2960   5.561   2.458   2.033
 2064W        W 2961   3.345   1.759   6.980
 2065W        W 2962   7.265   3.383   4.131
 2066W        W 2963   0.897   2.437   1.927
 2067W        W 2964   3.267   7.841   2.957
 2068W        W 2965   5.191   4.403   4.922
 2069W        W 2966   4.155   3.388   0.822
 2070W        W 2967   1.011   4.268   3.553
 2071W        W 2968   4.041   0.098   2.881
 2072W        W 2969   5.443   6.904   6.586
 2073W        W 2970   5.150   4.302   1.191
 2074W        W 2971   2.904   0.136   3.613
 2075W        W 2972   7.346   5.819   4.287
 2076W        W 2973   3.982   0.049   1.331
 2077W        W 2974   0.950   7.602   7.897
 2078W        W 2975   2.175   4.301   4.528
 2079W        W 2976   4.747   2.482   2.916
 2080W        W 2977   7.028   7.809   1.031
 2081W        W 2978   5.490   1.311   1.813
 2082W        W 2979   1.715   3.751   2.946
 2083W        W 2980   4.339   5.586   4.381
 2084W        W 2981   3.614   5.681   6.101
 2085W        W 2982   6.375   0.152   3.029
 2086W        W 2983   5.124   7.519   0.590
 2087W        W 2984   0.631   2.561   6.552
 2088W        W 2985   6.940   7.160   3.148
 2089W        W 2986   2.343   4.822   4.155
 2090W        W 2987   0.904   0.203   6.894
 2091W        W 2988   6.977   2.464   1.216
 2092W        W 2989   4.050   4.918   1.443
 2093W        W 2990   1.003   7.335   3.802
 2094W        W 2991   6.036   4.268   4.576
 2095W        W 2992   7.041   7.097   7.540
 2096W        W 2993   0.184   4.545   7.415
 2097W        W 2994   2.768   0.619   3.835
 2098W        W 2995   2.150   0.807   5.092
 2099W        W 2996   5.449   2.810   6.303
 2100W        W 2997   0.665   0.563   4.547
 2101W        W 2998   1.060   6.492   1.365
 2102W        W 2999   5.555   7.621   7.290
 2103W        W 3000   7.685   3.752   0.675
 2104W        W 3001   7.342   4.455   4.127
 2105W        W 3002   0.872   0.546   1.706
 2106W        W 3003   7.572   0.771   0.087
 2107W        W 3004   3.516   5.082   0.621
 2108W        W 3005   5.756   2.698   0.226
 2109W        W 3006   1.899   2.264   4.275
 2110W        W 3007   6.558   6.847   0.143
 2111W        W 3008   0.443   7.415   7.157
 2112W        W 3009   1.786   7.842   0.605
 2113W        W 3010   7.451   7.665   4.820
 2114W        W 3011   2.120   6.678   2.532
 2115W        W 3012   5.907   4.243   7.130
 2116W        W 3013   6.799   7.672   5.475
 2117W        W 3014   0.806   3.828   6.025
 2118W        W 3015   4.331   5.525   0.889
 2119W        W 3016   2.074   1.051   0.724
 2120W        W 3017   7.492   0.128   5.132
 2121W        W 3018   5.073   7.462   4.394
 2122W        W 3019   6.704   5.388   4.885
 2123W        W 3020   6.397   7.263   3.116
 2124W        W 3021   5.363   1.553   5.650
 2125W        W 3022   5.110   0.027   7.707
 2126W        W 3023   3.310   5.472   0.875
 2127W        W 3024   4.911   1.143   4.080
 2128W        W 3025   3.717   5.742   5.093
 2129W        W 3026   4.792   2.132   4.068
 2130W        W 3027   7.123   6.255   4.071
 2131W        W 3028   1.492   0.154   5.789
 2132W        W 3029   2.571   4.005   2.386
 2133W        W 3030   1.078   7.080   2.087
 2134W        W 3031   0.613   0.002   0.178
 2135W        W 3032   2.419   6.278   0.534
 2136W        W 3033   7.835   2.327   2.343
 2137W        W 3034   2.330   4.349   0.738
 2138W        W 3035   5.207   3.082   6.648
 2139W        W 3036   3.010   2.529   6.167
 2140W        W 3037   1.520   3.293   3.084
 2141W        W 3038   5.039   4.198   2.823
 2142W        W 3039   2.634   6.972   4.249
 2143W        W 3040   4.629   6.282   1.933
 2144W        W 3041   4.204   0.818   0.112
 2145W        W 3042   4.422   0.979   3.282
 2146W        W 3043   1.565   6.430   4.329
 2147W        W 3044   0.408   0.875   3.054
 2148W        W 3045   6.818   5.697   1.894
 2149W        W 3046   4.923   0.493   1.603
 2150W        W 3047   6.733   6.893   7.191
 2151W        W 3048   5.080   6.180   0.174
 2152W        W 3049   1.728   0.347   1.988
 2153W        W 3050   4.574   7.926   4.492
 2154W        W 3051   6.431   2.981   4.706
 2155W        W 3052   4.453   1.194   1.762
 2156W        W 3053   6.050   6.236   2.412
 2157W        W 3054   3.663   7.116   1.159
 2158W        W 3055   0.318   6.306   3.936
 2159W        W 3056   0.132   4.937   6.495
 2160W        W 3057   1.314   4.224   6.464
 2161W        W 3058   5.599   6.659   2.415
 2162W        W 3059   7.719   2.776   5.212
 2163W        W 3060   6.565   1.234   0.507
 2164W        W 3061   6.858   0.999   4.632
 2165W        W 3062   6.632   4.112   7.472
 2166W        W 3063   4.568   6.102   7.586
 2167W        W 3064   6.335   5.825   4.635
 2168W        W 3065   4.731   1.141   2.898
 2169W        W 3066   1.793   7.700   4.061
 2170W        W 3067   0.518   0.560   5.704
 2171W        W 3068   3.605   6.627   0.859
 2172W        W 3069   5.144   0.091   0.880
 2173W        W 3070   5.644   4.654   5.854
 2174W        W 3071   7.455   4.821   1.507
 2175W        W 3072   7.360   2.670   0.803
 2176W        W 3073   7.054   1.237   0.668
 2177W        W 3074   3.747   0.504   7.963
 2178W        W 3075   0.305   2.608   4.757
 2179W        W 3076   3.042   6.882   7.897
 2180W        W 3077   4.836   0.914   2.460
 2181W        W 3078   4.485   1.081   3.947
 2182W        W 3079   2.814   2.144   1.301
 2183W        W 3080   7.560   2.897   0.353
 2184W        W 3081   3.531   2.557   3.964
 2185W        W 3082   4.115   3.401   3.527
 2186W        W 3083   4.010   0.363   7.172
 2187W        W 3084   6.451   7.251   5.908
 2188W        W 3085   5.734   6.775   3.586
 2189W        W 3086   3.903   3.805   0.033
 2190W        W 3087   1.245   1.892   7.627
 2191W        W 3088   6.143   5.036   1.992
 2192W        W 3089   3.060   7.139   1.803
 2193W        W 3090   7.712   2.916   1.059
 2194W        W 3091   6.502   4.965   6.060
 2195W        W 3092   3.713   3.025   7.632
 2196W        W 3093   1.917   1.758   4.161
 2197W        W 3094   6.005   5.173   6.258
 2198W        W 3095   2.016   3.438   6.221
 2199W        W 3096   6.293   5.731   2.574
 2200W        W 3097   6.619   6.289   4.656
 2201W        W 3098   1.946   6.233   2.305
 2202W        W 3099   6.194   2.331   4.114
 2203W        W 3100   6.335   2.501   4.544
 2204W        W 3101   7.197   7.111   5.707
 2205W        W 3102   3.845   7.229   3.597
 2206W        W 3103   1.483   2.462   2.911
 2207W        W 3104   2.259   4.979   2.707
 2208W        W 3105   1.927   5.742   3.512
 2209W        W 3106   6.951   5.347   4.430
 2210W        W 3107   4.527   7.290   3.814
 2211W        W 3108   1.508   0.918   0.706
 2212W        W 3109   2.419   6.193   7.567
 2213W        W 3110   1.471   1.984   5.645
 2214W        W 3111   6.239   7.153   2.653
 2215W        W 3112   6.896   5.240   6.613
 2216W        W 3113   0.248   6.419   4.520
 2217W        W 3114   6.414   5.671   0.829
 2218W        W 3115   4.150   6.563   3.433
 2219W        W 3116   1.709   3.452   2.051
 2220W        W 3117   5.853   5.479   3.467
 2221W        W 3118   5.027   6.128   3.666
 2222W        W 3119   1.676   0.131   1.333
 2223W        W 3120   6.952   7.493   2.838
 2224W        W 3121   6.462   3.965   1.228
 2225W        W 3122   1.542   2.613   4.929
 2226W        W 3123   6.478   7.410   2.230
 2227W        W 3124   4.171   7.735   0.390
 2228W        W 3125   6.433   1.727   2.370
 2229W        W 3126   3.951   3.773   3.846
 2230W        W 3127   3.476   6.216   6.247
 2231W        W 3128   4.144   1.086   0.563
 2232W        W 3129   5.976   4.273   1.778
 2233W        W 3130   4.231   3.468   6.724
 2234W        W 3131   7.483   5.725   2.533
 2235W        W 3132   4.059   6.338   7.776
 2236W        W 3133   6.695   3.304   5.453
 2237W        W 3134   5.764   7.248   1.329
 2238W        W 3135   4.039   0.591   4.170
 2239W        W 3136   2.926   2.115   7.123
 2240W        W 3137   2.477   6.826   2.954
 2241W        W 3138   5.555   3.660   3.024
 2242W        W 3139   2.376   4.450   5.033
 2243W        W 3140   2.247   4.159   6.946
 2244W        W 3141   5.390   3.030   1.382
 2245W        W 3142   6.106   2.278   6.644
 2246W        W 3143   2.685   5.626   4.663
 2247W        W 3144   4.984   1.447   5.905
 2248W        W 3145   7.443   7.093   3.193
 2249W        W 3146   5.739   3.897   4.912
 2250W        W 3147   2.423   0.289   3.616
 2251W        W 3148   1.967   3.293   3.298
 2252W        W 3149   1.714   3.865   5.086
 2253W        W 3150   6.123   4.246   6.524
 2254W        W 3151   5.251   3.082   4.908
 2255W        W 3152   5.037   5.659   3.284
 2256W        W 3153   7.133   3.427   5.196
 2257W        W 3154   3.815   5.509   3.243
 2258W        W 3155   1.780   2.873   2.126
 2259W        W 3156   0.292   7.669   4.888
 2260W        W 3157   7.219   4.737   3.237
 2261W        W 3158   7.135   7.534   6.400
 2262W        W 3159   4.574   3.697   5.924
 2263W        W 3160   2.107   2.008   0.655
 2264W        W 3161   6.875   3.095   0.971
 2265W        W 3162   5.652   6.236   1.100
 2266W        W 3163   3.218   6.107   1.907
 2267W        W 3164   6.686   6.003   4.203
 2268W        W 3165   1.544   0.199   5.038
 2269W        W 3166   2.841   6.672   1.246
 2270W        W 3167   1.278   3.882   4.863
 2271W        W 3168   5.001   5.580   7.208
 2272W        W 3169   5.764   7.175   5.399
 2273W        W 3170   4.330   1.230   4.911
 2274W        W 3171   3.341   5.430   3.134
 2275W        W 3172   1.903   2.693   0.976
 2276W        W 3173   5.820   0.175   0.058
 2277W        W 3174   0.478   6.759   5.044
 2278W        W 3175   5.564   5.823   5.305
 2279W        W 3176   4.043   5.097   0.883
 2280W        W 3177   5.302   6.684   0.721
 2281W        W 3178   0.690   5.426   4.971
 2282W        W 3179   2.518   0.477   4.889
 2283W        W 3180   0.700   3.652   7.780
 2284W        W 3181   3.209   1.862   4.540
 2285W        W 3182   1.044   1.307   4.171
 2286W        W 3183   3.809   7.745   2.842
 2287W        W 3184   3.752   0.503   6.073
 2288W        W 3185   7.441   5.738   4.790
 2289W        W 3186   0.513   1.830   4.811
 2290W        W 3187   4.783   6.740   2.770
 2291W        W 3188   3.101   5.711   1.584
 2292W        W 3189   3.629   3.848   0.435
 2293W        W 3190   5.246   2.146   3.864
 2294W        W 3191   0.525   2.920   5.693
 2295W        W 3192   6.967   2.028   1.001
 2296W        W 3193   2.406   5.881   1.700
 2297W        W 3194   4.833   2.440   3.589
 2298W        W 3195   3.858   0.726   2.009
 2299W        W 3196   1.931   6.158   1.784
 2300W        W 3197   2.208   0.347   1.461
 2301W        W 3198   5.854   4.893   3.268
 2302W        W 3199   1.214   5.196   5.003
 2303W        W 3200   6.746   2.628   6.981
 2304W        W 3201   7.754   1.383   6.869
 2305W        W 3202   7.678   3.352   3.801
 2306W        W 3203   3.599   4.221   3.202
 2307W        W 3204   4.835   6.475   6.102
 2308W        W 3205   2.079   7.093   2.774
 2309W        W 3206   0.333   0.955   2.018
 2310W        W 3207   6.668   1.202   5.647
 2311W        W 3208   3.288   3.576   0.228
 2312W        W 3209   5.373   4.605   5.382
 2313W        W 3210   2.251   4.376   7.539
 2314W        W 3211   1.031   7.581   2.617
 2315W        W 3212   1.216   3.720   3.284
 2316W        W 3213   6.590   5.412   2.234
 2317W        W 3214   6.677   7.587   0.570
 2318W        W 3215   4.944   2.586   4.064
 2319W        W 3216   4.989   1.796   3.641
 2320W        W 3217   3.650   0.017   5.881
 2321W        W 3218   4.218   7.699   3.800
 2322W        W 3219   0.378   6.253   4.988
 2323W        W 3220   7.775   6.169   2.697
 2324W        W 3221   6.416   1.033   4.864
 2325W        W 3222   6.368   3.887   6.190
 2326W        W 3223   1.510   2.028   4.292
 2327W        W 3224   0.429   1.961   2.520
 2328W        W 3225   4.657   2.781   7.385
 2329W        W 3226   1.677   1.401   4.370
 2330W        W 3227   2.210   7.171   6.605
 2331W        W 3228   2.523   4.450   1.529
 2332W        W 3229   7.815   3.313   6.166
 2333W        W 3230   6.936   1.818   5.127
 2334W        W 3231   6.375   5.073   3.197
 2335W        W 3232   0.129   3.465   3.483
 2336W        W 3233   7.636   6.668   2.387
 2337W        W 3234   6.046   2.979   1.639
 2338W        W 3235   2.842   3.989   1.144
 2339W        W 3236   3.608   5.888   6.603
 2340W        W 3237   3.419   3.750   6.563
 2341W        W 3238   2.886   6.345   3.040
 2342W        W 3239   2.489   5.551   3.482
 2343W        W 3240   6.005   6.215   4.596
 2344W        W 3241   7.345   7.023   2.639
 2345W        W 3242   4.665   0.310   2.633
 2346W        W 3243   0.728   5.926   4.751
 2347W        W 3244   7.587   2.137   1.851
 2348W        W 3245   1.582   1.811   6.262
 2349W        W 3246   5.125   4.773   4.623
 2350W        W 3247   5.635   0.753   5.704
 2351W        W 3248   6.228   5.542   5.016
 2352W        W 3249   2.889   1.781   2.951
 2353W        W 3250   3.983   2.134   7.231
 2354W        W 3251   7.516   3.142   2.407
 2355W        W 3252   6.396   3.310   4.315
 2356W        W 3253   4.122   0.905   3.715
 2357W        W 3254   6.085   6.156   1.349
 2358W        W 3255   5.216   2.380   5.041
 2359W        W 3256   3.280   5.508   2.105
 2360W        W 3257   6.948   5.027   1.369
 2361W        W 3258   1.845   4.741   3.263
 2362W        W 3259   7.701   6.138   2.143
 2363W        W 3260   5.475   5.899   7.382
 2364W        W 3261   1.669   4.319   6.824
 2365W        W 3262   3.161   6.835   0.380
 2366W        W 3263   0.737   3.278   4.419
 2367W        W 3264   2.713   1.525   3.347
 2368W        W 3265   6.111   6.953   5.798
 2369W        W 3266   4.017   1.925   0.666
 2370W        W 3267   2.654   5.614   5.578
 2371W        W 3268   0.277   2.676   4.247
 2372W        W 3269   0.895   0.387   2.244
 2373W        W 3270   2.128   1.851   0.100
 2374W        W 3271   1.473   0.910   7.377
 2375W        W 3272   5.721   2.465   5.275
 2376W        W 3273   7.246   2.710   7.094
 2377W        W 3274   2.497   2.480   7.671
 2378W        W 3275   0.382   2.418   2.772
 2379W        W 3276   6.748   0.224   3.354
 2380W        W 3277   7.149   4.594   1.848
 2381W        W 3278   2.365   4.870   1.741
 2382W        W 3279   2.344   5.361   3.023
 2383W        W 3280   5.416   0.299   1.415
 2384W        W 3281   0.714   0.625   1.251
 2385W        W 3282   6.664   1.625   4.260
 2386W        W 3283   6.093   2.588   7.528
 2387W        W 3284   2.472   4.007   7.906
 2388W        W 3285   5.545   7.827   1.351
 2389W        W 3286   0.124   0.319   5.971
 2390W        W 3287   6.416   1.162   0.953
 2391W        W 3288   0.616   5.456   4.477
 2392W        W 3289   4.770   0.497   1.006
 2393W        W 3290   4.948   4.407   4.291
 2394W        W 3291   4.021   0.525   1.183
 2395W        W 3292   6.944   0.792   2.590
 2396W        W 3293   1.874   6.790   5.058
 2397W        W 3294   7.388   7.790   0.654
 2398W        W 3295   5.809   3.002   6.001
 2399W        W 3296   1.058   6.603   5.652
 2400W        W 3297   5.939   0.068   0.571
 2401W        W 3298   5.789   1.072   3.986
 2402W        W 3299   1.422   7.697   1.736
 2403W        W 3300   0.399   6.776   7.109
 2404W        W 3301   2.339   1.238   5.069
 2405W        W 3302   2.571   6.662   5.562
 2406W        W 3303   0.562   5.079   2.993
 2407W        W 3304   0.048   2.331   1.604
 2408W        W 3305   5.876   3.898   5.409
 2409W        W 3306   1.970   3.726   1.046
 2410W        W 3307   6.328   3.468   2.389
 2411W        W 3308   7.739   4.039   4.773
 2412W        W 3309   0.449   6.542   6.282
 2413W        W 3310   3.318   0.495   0.563
 2414W        W 3311   4.597   5.111   0.743
 2415W        W 3312   1.876   1.648   5.698
 2416W        W 3313   6.973   7.115   6.179
 2417W        W 3314   0.422   0.924   4.851
 2418W        W 3315   3.531   5.749   1.316
 2419W        W 3316   5.920   3.782   2.504
 2420W        W 3317   4.475   6.827   5.437
 2421W        W 3318   1.503   1.777   7.208
 2422W        W 3319   6.714   0.337   0.696
 2423W        W 3320   3.046   5.043   3.254
 2424W        W 3321   3.563   3.407   1.516
 2425W        W 3322   0.611   1.831   6.543
 2426W        W 3323   6.870   7.807   7.817
 2427W        W 3324   1.723   7.499   2.662
 2428W        W 3325   5.693   3.337   6.945
 2429W        W 3326   1.849   1.647   2.752
 2430W        W 3327   0.535   3.169   6.935
 2431W        W 3328   4.471   3.153   5.026
 2432W        W 3329   1.766   0.051   7.825
 2433W        W 3330   2.558   7.414   1.910
 2434W        W 3331   0.006   4.725   1.240
 2435W        W 3332   5.667   1.540   7.806
 2436W        W 3333   5.573   7.132   2.179
 2437W        W 3334   6.955   5.023   1.962
 2438W        W 3335   2.977   3.056   5.062
 2439W        W 3336   0.345   7.358   4.519
 2440W        W 3337   4.143   5.910   4.855
 2441W        W 3338   7.733   5.711   0.834
 2442W        W 3339   1.947   3.795   2.443
 2443W        W 3340   0.812   1.661   2.568
 2444W        W 3341   3.529   3.205   7.190
 2445W        W 3342   4.083   5.937   0.694
 2446W        W 3343   5.164   0.648   5.404
 2447W        W 3344   4.376   6.682   0.408
 2448W        W 3345   1.649   6.723   0.546
 2449W        W 3346   3.604   2.147   6.891
 2450W        W 3347   1.018   7.369   0.304
 2451W        W 3348   0.497   7.269   5.866
 2452W        W 3349   1.307   0.519   7.608
 2453W        W 3350   1.813   1.007   5.984
 2454W        W 3351   6.402   2.012   1.215
 2455W        W 3352   6.800   6.619   4.339
 2456W        W 3353   7.448   2.473   3.769
 2457W        W 3354   5.906   1.622   7.385
 2458W        W 3355   5.255   0.737   2.779
 2459W        W 3356   1.573   6.450   1.006
 2460W        W 3357   5.969   5.424   0.189
 2461W        W 3358   2.864   7.593   2.671
 2462W        W 3359   2.968   3.367   1.743
 2463W        W 3360   0.337   0.353   1.144
 2464W        W 3361   0.361   1.744   7.038
 2465W        W 3362   5.133   6.178   1.843
 2466W        W 3363   4.977   0.911   0.710
 2467W        W 3364   6.980   4.215   0.385
 2468W        W 3365   6.265   4.616   0.497
 2469W        W 3366   0.693   2.947   6.170
 2470W        W 3367   0.556   1.485   3.769
 2471W        W 3368   5.365   5.581   1.020
 2472W        W 3369   5.735   7.279   4.881
 2473W        W 3370   0.565   5.424   2.066
 2474W        W 3371   4.213   6.881   7.181
 2475W        W 3372   5.180   2.272   4.394
 2476W        W 3373   3.671   0.622   3.031
 2477W        W 3374   2.970   3.943   0.026
 2478W        W 3375   1.914   5.865   0.026
 2479W        W 3376   7.019   2.481   5.075
 2480W        W 3377   1.423   7.909   2.635
 2481W        W 3378   5.348   3.596   5.300
 2482W        W 3379   2.742   3.623   7.659
 2483W        W 3380   2.320   0.459   7.355
 2484W        W 3381   2.188   4.181   5.445
 2485W        W 3382   2.401   7.662   2.614
 2486W        W 3383   2.248   3.767   3.332
 2487W        W 3384   2.027   6.950   7.004
 2488W        W 3385   5.732   7.474   3.623
 2489W        W 3386   7.351   5.460   0.594
 2490W        W 3387   4.112   5.575   5.922
 2491W        W 3388   6.792   3.656   4.180
 2492W        W 3389   4.589   4.633   0.505
 2493W        W 3390   7.105   2.168   5.639
 2494W        W 3391   7.095   3.638   1.883
 2495W        W 3392   3.593   1.170   1.919
 2496W        W 3393   2.097   5.184   6.334
 2497W        W 3394   1.702   3.344   5.098
 2498W        W 3395   5.229   7.800   4.676
 2499W        W 3396   3.425   4.146   7.431
 2500W        W 3397   4.772   6.931   2.233
 2501W        W 3398   4.193   1.589   4.560
 2502W        W 3399   4.005   6.727   5.289
 2503W        W 3400   6.422   1.648   5.957
 2504W        W 3401   0.075   6.754   4.087
 2505W        W 3402   5.718   2.274   3.918
 2506W        W 3403   5.662   4.097   6.666
 2507W        W 3404   1.393   2.884   0.928
 2508W        W 3405   3.058   2.220   2.966
 2509W        W 3406   5.589   7.199   3.195
 2510W        W 3407   5.912   6.695   5.431
 2511W        W 3408   6.210   6.125   0.825
 2512W        W 3409   4.046   4.061   1.727
 2513W        W 3410   5.753   5.306   4.319
 2514W        W 3411   0.509   3.820   0.246
 2515W        W 3412   0.234   1.455   4.714
 2516W        W 3413   5.437   7.804   5.547
 2517W        W 3414   4.380   7.188   1.236
 2518W        W 3415   7.499   0.765   1.802
 2519W        W 3416   2.671   1.025   0.761
 2520W        W 3417   1.379   4.820   5.301
 2521W        W 3418   0.570   7.420   0.092
 2522W        W 3419   7.607   1.091   5.214
 2523W        W 3420   1.402   5.197   2.583
 2524W        W 3421   5.702   2.681   2.897
 2525W        W 3422   5.216   4.017   4.122
 2526W        W 3423   0.181   7.594   3.207
 2527W        W 3424   0.159   5.154   6.984
 2528W        W 3425   5.437   1.667   5.133
 2529W        W 3426   1.156   7.763   4.077
 2530W        W 3427   2.675   1.722   1.055
 2531W        W 3428   6.451   5.179   0.423
 2532W        W 3429   1.880   6.525   1.425
 2533W        W 3430   0.325   7.020   6.262
 2534W        W 3431   3.630   3.316   3.366
 2535W        W 3432   2.681   5.839   6.015
 2536W        W 3433   1.880   3.799   7.031
 2537W        W 3434   1.731   4.155   1.392
 2538W        W 3435   6.251   4.524   3.358
 2539W        W 3436   0.198   5.841   5.600
 2540W        W 3437   6.189   2.807   3.303
 2541W        W 3438   1.427   7.550   7.745
 2542W        W 3439   2.270   7.639   3.887
 2543W        W 3440   3.305   6.341   6.872
 2544W        W 3441   5.276   7.496   3.361
 2545W        W 3442   3.836   4.279   7.706
 2546W        W 3443   2.683   4.563   2.004
 2547W        W 3444   6.428   5.386   6.414
 2548W        W 3445   4.001   7.482   5.566
 2549W        W 3446   1.161   0.759   2.502
 2550W        W 3447   4.167   6.508   5.791
 2551W        W 3448   2.758   4.150   3.712
 2552W        W 3449   0.785   0.665   6.697
 2553W        W 3450   3.474   1.128   1.159
 2554W        W 3451   3.669   1.598   1.698
 2555W        W 3452   6.566   6.957   1.403
 2556W        W 3453   5.279   4.300   5.811
 2557W        W 3454   2.570   5.866   3.061
 2558W        W 3455   3.566   6.301   0.415
 2559W        W 3456   5.530   4.333   4.443
 2560W        W 3457   1.692   2.810   0.502
 2561W        W 3458   3.939   6.346   6.518
 2562W        W 3459   5.311   5.943   1.339
 2563W        W 3460   4.580   5.062   2.598
 2564W        W 3461   4.269   3.752   4.336
 2565W        W 3462   2.388   1.718   5.486
 2566W        W 3463   4.038   4.363   2.595
 2567W        W 3464   1.007   4.147   7.490
 2568W        W 3465   2.507   5.349   1.600
 2569W        W 3466   4.043   7.312   6.964
 2570W        W 3467   4.386   1.266   6.179
 2571W        W 3468   6.120   0.530   5.931
 2572W        W 3469   2.690   0.122   7.272
 2573W        W 3470   5.972   0.220   7.443
 2574W        W 3471   7.751   4.845   6.838
 2575W        W 3472   0.706   3.205   5.310
 2576W        W 3473   3.636   5.054   7.798
 2577W        W 3474   2.852   5.828   2.154
 2578W        W 3475   2.323   3.788   5.739
 2579W        W 3476   3.314   3.757   3.485
 2580W        W 3477   3.992   2.676   3.703
 2581W        W 3478   7.847   6.382   4.938
 2582W        W 3479   6.192   1.503   5.375
 2583W        W 3480   1.751   3.885   6.434
 2584W        W 3481   1.524   2.580   4.421
 2585W        W 3482   5.407   0.866   7.115
 2586W        W 3483   2.941   3.943   5.629
 2587W        W 3484   6.937   2.368   2.131
 2588W        W 3485   2.582   6.225   0.985
 2589W        W 3486   5.544   1.766   3.837
 2590W        W 3487   6.619   1.096   7.711
 2591W        W 3488   2.931   3.060   2.293
 2592W        W 3489   4.837   1.539   3.198
 2593W        W 3490   6.963   6.473   7.093
 2594W        W 3491   4.966   7.599   3.900
 2595W        W 3492   2.811   7.005   5.059
 2596W        W 3493   0.876   7.198   7.053
 2597W        W 3494   5.157   6.276   1.024
 2598W        W 3495   5.243   7.000   3.580
 2599W        W 3496   3.974   5.042   3.227
 2600W        W 3497   6.913   4.042   7.070
 2601W        W 3498   7.155   6.183   7.506
 2602W        W 3499   7.773   5.127   4.943
 2603W        W 3500   4.672   6.359   0.959
 2604W        W 3501   4.944   0.346   4.545
 2605W        W 3502   7.732   1.634   1.085
 2606W        W 3503   1.000   5.871   6.157
 2607W        W 3504   3.535   5.832   7.183
 2608W        W 3505   4.285   1.510   0.373
 2609W        W 3506   6.059   7.050   0.013
 2610W        W 3507   2.436   1.738   1.533
 2611W        W 3508   0.779   4.868   6.282
 2612W        W 3509   3.260   4.584   3.289
 2613W        W 3510   6.609   2.451   5.908
 2614W        W 3511   0.387   3.370   7.539
 2615W        W 3512   1.338   5.068   4.095
 2616W        W 3513   4.436   4.952   4.700
 2617W        W 3514   5.545   2.630   5.819
 2618W        W 3515   5.132   2.349   6.064
 2619W        W 3516   2.704   7.130   1.074
 2620W        W 3517   0.081   4.084   7.220
 2621W        W 3518   1.451   5.430   3.326
 2622W        W 3519   6.564   4.721   1.683
 2623W        W 3520   1.892   7.075   6.058
 2624W        W 3521   3.305   6.248   3.908
 2625W        W 3522   5.047   1.882   4.796
 2626W        W 3523   2.725   4.810   0.696
 2627W        W 3524   7.445   5.691   7.374
 2628W        W 3525   1.779   5.837   7.500
 2629W        W 3526   5.602   1.385   0.253
 2630W        W 3527   4.773   4.473   2.067
 2631W        W 3528   6.054   0.955   2.444
 2632W        W 3529   0.097   5.353   7.504
 2633W        W 3530   3.662   7.024   7.143
 2634W        W 3531   7.754   2.915   4.730
 2635W        W 3532   1.968   1.488   6.143
 2636W        W 3533   3.397   2.205   7.298
 2637W        W 3534   2.638   5.580   2.656
 2638W        W 3535   6.586   7.082   1.879
 2639W        W 3536   4.848   0.703   3.729
 2640W        W 3537   3.136   6.729   2.686
 2641W        W 3538   2.348   4.055   1.148
 2642W        W 3539   1.020   6.960   7.857
 2643W        W 3540   0.843   4.232   3.082
 2644W        W 3541   0.961   3.154   7.178
 2645W        W 3542   0.508   2.250   4.451
 2646W        W 3543   6.508   3.033   1.689
 2647W        W 3544   5.181   0.446   6.438
 2648W        W 3545   4.795   2.756   5.034
 2649W        W 3546   3.099   7.176   5.902
 2650W        W 3547   5.938   5.882   3.728
 2651W        W 3548   3.253   7.249   7.232
 2652W        W 3549   3.636   7.107   4.286
 2653W        W 3550   1.843   3.847   5.953
 2654W        W 3551   5.668   0.645   2.311
 2655W        W 3552   4.636   2.873   3.803
 2656W        W 3553   6.603   2.841   0.006
 2657W        W 3554   0.430   5.011   7.394
 2658W        W 3555   0.116   2.283   0.522
 2659W        W 3556   3.848   3.998   2.857
 2660W        W 3557   6.099   2.473   1.796
 2661W        W 3558   7.255   5.264   7.623
 2662W        W 3559   5.504   6.736   7.705
 2663W        W 3560   5.202   0.037   2.373
 2664W        W 3561   7.401   2.665   2.003
 2665W        W 3562   4.008   3.318   0.342
 2666W        W 3563   0.901   0.212   2.792
 2667W        W 3564   3.132   4.363   5.842
 2668W        W 3565   0.499   4.755   1.322
 2669W        W 3566   5.062   5.024   3.872
 2670W        W 3567   0.352   3.961   6.317
 2671W        W 3568   4.134   6.265   2.040
 2672W        W 3569   4.965   1.280   1.954
 2673W        W 3570   3.070   7.349   3.021
 2674W        W 3571   5.671   5.060   2.273
 2675W        W 3572   4.417   5.805   3.064
 2676W        W 3573   0.969   1.205   2.800
 2677W        W 3574   0.752   5.058   0.935
 2678W        W 3575   4.385   6.437   5.180
 2679W        W 3576   4.171   6.358   1.576
 2680W        W 3577   5.206   5.593   5.697
 2681W        W 3578   4.412   1.606   7.945
 2682W        W 3579   0.825   0.879   2.137
 2683W        W 3580   3.461   1.513   3.831
 2684W        W 3581   7.386   1.230   2.345
 2685W        W 3582   4.391   5.286   2.990
 2686W        W 3583   0.189   2.819   5.303
 2687W        W 3584   2.350   6.068   4.704
 2688W        W 3585   4.935   0.979   7.392
 2689W        W 3586   1.185   6.849   3.728
 2690W        W 3587   4.809   7.666   4.916
 2691W        W 3588   1.055   2.595   4.830
 2692W        W 3589   1.461   1.022   3.999
 2693W        W 3590   5.537   3.055   4.506
 2694W        W 3591   3.793   7.193   5.104
 2695W        W 3592   2.762   6.512   1.723
 2696W        W 3593   1.038   2.119   2.606
 2697W        W 3594   4.810   3.757   3.169
 2698W        W 3595   1.083   5.656   5.157
 2699W        W 3596   4.510   6.921   4.274
 2700W        W 3597   3.878   4.063   2.239
 2701W        W 3598   4.292   3.186   5.500
 2702W        W 3599   6.480   6.745   3.036
 2703W        W 3600   0.762   6.766   6.653
 2704W        W 3601   7.490   3.208   7.014
 2705W        W 3602   1.337   5.535   6.050
 2706W        W 3603   6.710   6.103   0.598
 2707W        W 3604   4.766   5.849   5.820
 2708W        W 3605   1.903   0.933   3.265
 2709W        W 3606   6.676   2.153   7.067
 2710W        W 3607   0.618   7.271   2.359
 2711W        W 3608   2.197   2.656   1.953
 2712W        W 3609   7.397   1.834   5.380
 2713W        W 3610   5.077   6.977   7.837
 2714W        W 3611   1.755   2.388   2.059
 2715W        W 3612   7.627   5.361   6.743
 2716W        W 3613   6.924   3.067   7.126
 2717W        W 3614   7.252   4.129   4.787
 2718W        W 3615   3.113   4.473   1.188
 2719W        W 3616   0.923   3.950   6.474
 2720W        W 3617   6.915   2.815   1.792
 2721W        W 3618   1.892   1.084   4.711
 2722W        W 3619   2.588   6.705   3.512
 2723W        W 3620   4.226   4.744   6.801
 2724W        W 3621   6.264   4.465   6.034
 2725W        W 3622   6.873   1.063   0.166
 2726W        W 3623   7.156   1.072   1.734
 2727W        W 3624   1.471   7.468   0.395
 2728W        W 3625   3.628   7.147   7.756
 2729W        W 3626   4.921   4.007   5.106
 2730W        W 3627   0.275   5.333   4.146
 2731W        W 3628   2.027   1.735   7.303
 2732W        W 3629   6.999   5.985   7.067
 2733W        W 3630   1.845   6.662   7.885
 2734W        W 3631   6.505   4.558   6.465
 2735W        W 3632   1.938   6.318   0.345
 2736W        W 3633   3.143   5.886   6.904
 2737W        W 3634   3.971   3.809   6.387
 2738W        W 3635   6.866   6.457   0.176
 2739W        W 3636   5.227   6.506   2.741
 2740W        W 3637   7.761   5.808   5.718
 2741W        W 3638   2.470   7.346   3.011
 2742W        W 3639   2.774   0.661   1.141
 2743W        W 3640   1.544   1.318   6.401
 2744W        W 3641   5.895   2.844   5.518
 2745W        W 3642   4.647   1.710   2.690
 2746W        W 3643   1.334   1.755   3.481
 2747W        W 3644   6.828   7.374   1.374
 2748W        W 3645   7.032   0.145   7.198
 2749W        W 3646   5.015   4.413   1.647
 2750W        W 3647   2.377   7.658   3.376
 2751W        W 3648   6.726   5.555   2.871
 2752W        W 3649   3.500   6.059   0.857
 2753W        W 3650   0.531   2.883   2.695
 2754W        W 3651   3.114   0.284   1.877
 2755W        W 3652   3.112   5.929   0.543
 2756W        W 3653   6.688   4.732   0.235
 2757W        W 3654   1.455   7.857   0.155
 2758W        W 3655   1.257   7.387   3.048
 2759W        W 3656   0.761   6.207   5.806
 2760W        W 3657   3.093   5.717   6.377
 2761W        W 3658   1.941   2.051   5.285
 2762W        W 3659   2.812   0.644   6.459
 2763W        W 3660   3.022   2.365   1.678
 2764W        W 3661   0.268   6.081   1.350
 2765W        W 3662   7.427   2.251   1.110
 2766W        W 3663   4.780   2.316   4.770
 2767W        W 3664   3.384   0.432   5.697
 2768W        W 3665   0.300   2.243   2.072
 2769W        W 3666   7.054   2.484   6.316
 2770W        W 3667   5.241   7.376   6.419
 2771W        W 3668   7.014   4.872   5.627
 2772W        W 3669   7.304   7.566   5.508
 2773W        W 3670   5.210   6.529   3.447
 2774W        W 3671   2.503   3.328   4.440
 2775W        W 3672   3.177   7.439   0.985
 2776W        W 3673   5.496   6.863   5.721
 2777W        W 3674   1.265   6.610   6.551
 2778W        W 3675   2.553   2.281   1.779
 2779W        W 3676   7.995   4.407   0.012
 2780W        W 3677   1.432   6.112   2.098
 2781W        W 3678   4.557   6.856   5.957
 2782W        W 3679   5.467   4.236   1.979
 2783W        W 3680   3.857   5.043   7.024
 2784W        W 3681   2.349   3.674   6.796
 2785W        W 3682   7.588   6.424   3.991
 2786W        W 3683   1.312   3.725   6.570
 2787W        W 3684   3.829   3.872   5.880
 2788W        W 3685   3.929   1.036   1.031
 2789W        W 3686   0.733   4.972   4.744
 2790W        W 3687   6.109   1.360   2.777
 2791W        W 3688   5.725   5.373   5.069
 2792W        W 3689   4.303   6.481   6.838
 2793W        W 3690   4.388   3.358   3.107
 2794W        W 3691   2.069   5.553   3.951
 2795W        W 3692   1.171   3.364   5.533
 2796W        W 3693   3.438   0.478   6.425
 2797W        W 3694   2.782   3.308   4.014
 2798W        W 3695   3.462   4.041   7.919
 2799W        W 3696   5.130   1.191   1.112
 2800W        W 3697   6.228   2.505   5.386
 2801W        W 3698   3.890   6.814   6.146
 2802W        W 3699   5.211   7.900   6.282
 2803W        W 3700   2.451   1.045   0.253
 2804W        W 3701   5.116   0.269   2.912
 2805W        W 3702   4.003   5.369   0.467
 2806W        W 3703   4.037   6.694   4.344
 2807W        W 3704   3.452   6.677   6.000
 2808W        W 3705   5.389   0.482   1.891
 2809W        W 3706   5.394   3.290   6.177
 2810W        W 3707   7.941   6.055   5.316
 2811W        W 3708   2.360   6.946   4.741
 2812W        W 3709   2.878   4.314   0.739
 2813W        W 3710   1.075   6.621   1.856
 2814W        W 3711   0.939   4.389   0.443
 2815W        W 3712   4.791   4.159   7.194
 2816W        W 3713   5.113   3.858   7.496
 2817W        W 3714   3.123   7.930   0.926
 2818W        W 3715   5.332   0.055   0.376
 2819W        W 3716   4.658   5.974   0.586
 2820W        W 3717   7.689   6.814   0.833
 2821W        W 3718   7.997   0.619   5.394
 2822W        W 3719   0.723   0.353   7.704
 2823W        W 3720   2.138   5.733   4.407
 2824W        W 3721   6.503   0.341   6.225
 2825W        W 3722   3.811   7.291   6.022
 2826W        W 3723   6.703   6.035   2.894
 2827W        W 3724   5.022   0.460   7.970
 2828W        W 3725   4.594   5.518   1.316
 2829W        W 3726   3.435   4.136   1.398
 2830W        W 3727   3.846   3.499   2.137
 2831W        W 3728   3.785   3.769   4.648
 2832W        W 3729   5.190   1.025   7.842
 2833W        W 3730   1.686   3.701   0.635
 2834W        W 3731   5.675   0.338   0.975
 2835W        W 3732   5.453   2.644   4.223
 2836W        W 3733   3.707   1.731   7.446
 2837W        W 3734   5.799   1.516   6.729
 2838W        W 3735   7.297   4.839   4.492
 2839W        W 3736   5.885   2.144   1.156
 2840W        W 3737   7.584   6.276   1.574
 2841W        W 3738   2.254   3.860   6.311
 2842W        W 3739   1.839   6.214   2.803
 2843W        W 3740   6.126   0.209   3.525
 2844W        W 3741   5.687   3.382   2.159
 2845W        W 3742   4.016   6.331   0.237
 2846W        W 3743   5.477   1.529   4.653
 2847W        W 3744   4.801   5.121   1.656
 2848W        W 3745   4.336   7.618   4.809
 2849W        W 3746   3.910   0.086   4.446
 2850W        W 3747   6.373   4.905   7.174
 2851W        W 3748   1.493   0.848   2.986
 2852W        W 3749   2.774   5.314   6.002
 2853W        W 3750   7.739   7.456   0.833
 2854W        W 3751   0.761   0.940   5.366
 2855W        W 3752   0.982   3.436   3.674
 2856W        W 3753   3.916   3.835   3.337
 2857W        W 3754   6.796   2.900   6.122
 2858W        W 3755   6.432   6.538   1.062
 2859W        W 3756   0.220   1.001   5.359
 2860W        W 3757   0.941   3.356   0.176
 2861W        W 3758   2.667   6.644   2.569
 2862W        W 3759   4.850   1.182   3.539
 2863W        W 3760   3.463   1.956   2.433
 2864W        W 3761   0.250   1.530   1.152
 2865W        W 3762   4.635   5.937   0.069
 2866W        W 3763   4.637   7.129   1.814
 2867W        W 3764   0.630   6.261   1.041
 2868W        W 3765   5.158   3.024   3.637
 2869W        W 3766   7.152   6.783   3.943
 2870W        W 3767   3.817   5.864   3.572
 2871W        W 3768   2.049   2.758   4.720
 2872W        W 3769   2.636   7.239   3.517
 2873W        W 3770   5.943   0.509   3.955
 2874W        W 3771   0.722   6.187   4.321
 2875W        W 3772   2.121   2.068   2.654
 2876W        W 3773   2.067   6.578   5.473
 2877W        W 3774   7.135   2.193   3.270
 2878W        W 3775   2.512   7.486   5.134
 2879W        W 3776   0.387   2.810   1.919
 2880W        W 3777   7.310   4.114   7.364
 2881W        W 3778   5.206   1.422   7.569
 2882W        W 3779   6.324   0.187   4.276
 2883W        W 3780   1.866   7.262   3.833
 2884W        W 3781   4.173   2.329   6.114
 2885W        W 3782   6.491   6.887   2.316
 2886W        W 3783   7.849   5.118   0.833
 2887W        W 3784   2.445   7.618   5.628
 2888W        W 3785   4.318   3.264   4.015
 2889W        W 3786   6.852   3.196   4.480
 2890W        W 3787   6.506   5.397   6.891
 2891W        W 3788   7.929   3.969   3.127
 2892W        W 3789   2.589   0.126   4.024
 2893W        W 3790   3.821   6.636   1.848
 2894W        W 3791   2.995   7.608   3.578
 2895W        W 3792   0.609   2.654   3.781
 2896W        W 3793   5.449   3.143   4.019
 2897W        W 3794   3.265   4.502   4.341
 2898W        W 3795   3.690   2.010   3.009
 2899W        W 3796   5.853   0.378   1.704
 2900W        W 3797   2.337   2.456   4.426
 2901W        W 3798   7.176   4.189   5.776
 2902W        W 3799   2.282   7.631   6.474
 2903W        W 3800   6.912   6.537   1.504
 2904W        W 3801   4.083   6.909   0.739
 2905W        W 3802   6.551   6.337   3.385
 2906W        W 3803   4.449   3.025   0.132
 2907W        W 3804   6.007   2.740   4.951
 2908W        W 3805   2.389   6.198   5.755
 2909W        W 3806   7.035   2.623   3.040
 2910W        W 3807   7.060   0.992   6.108
 2911W        W 3808   2.876   2.267   4.482
 2912W        W 3809   7.997   7.211   6.058
 2913W        W 3810   4.297   1.238   7.592
 2914W        W 3811   5.536   1.543   0.854
 2915W        W 3812   7.716   4.618   6.419
 2916W        W 3813   0.216   2.031   1.173
 2917W        W 3814   1.534   6.012   6.275
 2918W        W 3815   5.772   2.082   7.512
 2919W        W 3816   7.672   3.288   5.198
 2920W        W 3817   6.859   6.702   3.503
 2921W        W 3818   4.176   1.545   6.597
 2922W        W 3819   3.814   1.110   4.758
 2923W        W 3820   7.463   6.667   4.408
 2924W        W 3821   2.099   4.948   1.359
 2925W        W 3822   1.979   2.925   5.196
 2926W        W 3823   5.512   3.226   5.652
 2927W        W 3824   3.567   2.859   4.372
 2928W        W 3825   4.035   6.915   6.663
 2929W        W 3826   0.837   1.481   6.899
 2930W        W 3827   4.079   2.097   6.622
 2931W        W 3828   3.885   4.587   3.527
 2932W        W 3829   1.239   6.828   0.948
 2933W        W 3830   5.523   0.151   3.237
 2934W        W 3831   3.007   3.151   4.463
 2935W        W 3832   2.064   7.514   6.003
 2936W        W 3833   6.560   1.717   6.454
 2937W        W 3834   0.113   2.912   1.570
 2938W        W 3835   6.683   3.322   2.064
 2939W        W 3836   4.895   6.566   0.445
 2940W        W 3837   0.468   0.338   3.131
 2941W        W 3838   1.134   0.975   3.303
 2942W        W 3839   2.335   1.946   4.406
 2943W        W 3840   3.106   0.945   3.996
 2944W        W 3841   6.253   7.750   4.413
 2945W        W 3842   6.458   6.458   7.333
 2946W        W 3843   5.521   0.287   5.946
 2947W        W 3844   1.186   5.948   7.210
 2948W        W 3845   4.661   3.696   6.931
 2949W        W 3846   4.648   5.509   2.021
 2950W        W 3847   1.514   2.009   6.748
 2951W        W 3848   5.649   6.180   1.642
 2952W        W 3849   5.439   6.812   5.209
 2953W        W 3850   0.477   4.680   7.818
 2954W        W 3851   6.272   7.621   7.019
 2955W        W 3852   2.908   0.750   2.849
 2956W        W 3853   6.942   4.132   2.518
 2957W        W 3854   6.941   1.260   5.189
 2958W        W 3855   4.621   4.786   3.974
 2959W        W 3856   7.592   0.064   3.783
 2960W        W 3857   5.298   5.955   6.066
 2961W        W 3858   2.720   4.298   5.305
 2962W        W 3859   0.961   5.005   7.124
 2963W        W 3860   7.381   6.703   1.307
 2964W        W 3861   6.790   0.918   3.051
 2965W        W 3862   7.971   4.394   3.352
 2966W        W 3863   7.875   5.553   3.502
 2967W        W 3864   7.847   5.814   1.770
 2968W        W 3865   4.836   0.853   6.407
 2969W        W 3866   1.339   0.179   6.485
 2970W        W 3867   7.211   5.433   1.623
 2971W        W 3868   3.147   5.745   5.887
 2972W        W 3869   1.844   2.214   4.828
 2973W        W 3870   3.966   4.713   7.561
 2974W        W 3871   3.231   0.502   3.725
 2975W        W 3872   5.974   6.562   0.828
 2976W        W 3873   1.681   2.878   2.678
 2977W        W 3874   3.556   5.427   6.785
 2978W        W 3875   7.958   3.791   7.836
 2979W        W 3876   3.629   0.469   7.455
 2980W        W 3877   4.536   6.672   1.547
 2981W        W 3878   5.346   3.719   1.866
 2982W        W 3879   6.950   4.984   4.108
 2983W        W 3880   7.187   1.433   0.056
 2984W        W 3881   7.131   6.392   4.615
 2985W        W 3882   6.548   6.166   1.709
 2986W        W 3883   0.735   3.389   2.605
 2987W        W 3884   6.677   0.579   0.207
 2988W        W 3885   7.471   6.588   2.948
 2989W        W 3886   6.740   5.774   6.680
 2990W        W 3887   1.848   4.244   7.305
 2991W        W 3888   0.741   7.139   2.825
 2992W        W 3889   7.347   5.199   5.365
 2993W        W 3890   6.027   5.222   5.402
 2994W        W 3891   0.103   1.926   5.540
 2995W        W 3892   3.458   1.292   6.421
 2996W        W 3893   4.924   7.144   5.798
 2997W        W 3894   1.753   3.227   0.841
 2998W        W 3895   0.011   0.347   6.489
 2999W        W 3896   5.957   1.783   5.860
 3000W        W 3897   4.403   5.594   6.848
 3001W        W 3898   0.038   1.318   7.673
 3002W        W 3899   1.552   3.619   4.057
 3003W        W 3900   3.051   6.778   6.892
 3004W        W 3901   1.999   6.453   4.619
 3005W        W 3902   4.345   6.035   1.101
 3006W        W 3903   7.672   7.282   0.382
 3007W        W 3904   1.700   0.416   3.184
 3008W        W 3905   6.255   0.468   0.821
 3009W        W 3906   6.146   2.516   3.667
 3010W        W 3907   5.005   1.973   5.732
 3011W        W 3908   0.570   4.590   2.863
 3012W        W 3909   5.793   5.722   6.116
 3013W        W 3910   7.382   5.652   7.936
 3014W        W 3911   4.357   3.115   6.390
 3015W        W 3912   1.294   7.133   2.618
 3016W        W 3913   7.555   5.064   6.251
 3017W        W 3914   5.725   3.392   1.641
 3018W        W 3915   5.662   0.735   5.122
 3019W        W 3916   6.843   6.020   6.234
 3020W        W 3917   3.298   2.570   5.788
 3021W        W 3918   4.943   2.315   2.041
 3022W        W 3919   7.351   1.161   3.073
 3023W        W 3920   6.690   1.098   1.598
 3024W        W 3921   3.062   3.244   3.540
 3025W        W 3922   0.322   1.238   0.690
 3026W        W 3923   0.511   5.687   3.208
 3027W        W 3924   1.297   7.142   5.489
 3028W        W 3925   4.532   1.628   5.858
 3029W        W 3926   7.395   1.030   4.715
 3030W        W 3927   7.669   7.724   6.275
 3031W        W 3928   0.802   6.497   3.760
 3032W        W 3929   6.560   6.379   6.363
 3033W        W 3930   3.797   1.379   0.326
 3034W        W 3931   6.368   0.883   3.857
 3035W        W 3932   6.456   0.607   3.388
 3036W        W 3933   3.737   2.173   6.263
 3037W        W 3934   3.023   0.525   4.222
 3038W        W 3935   7.395   2.613   2.506
 3039W        W 3936   3.339   1.113   0.121
 3040W        W 3937   3.579   7.078   5.626
 3041W        W 3938   1.069   6.801   5.081
 3042W        W 3939   3.610   6.196   1.519
 3043W        W 3940   1.576   7.372   4.357
 3044W        W 3941   0.269   3.535   4.534
 3045W        W 3942   4.395   6.037   6.675
 3046W        W 3943   7.734   4.078   4.226
 3047W        W 3944   2.917   0.717   1.827
 3048W        W 3945   1.687   7.264   1.384
 3049W        W 3946   6.117   7.001   4.924
 3050W        W 3947   4.820   1.380   1.488
 3051W        W 3948   3.329   4.732   1.585
 3052W        W 3949   5.061   1.881   6.200
 3053W        W 3950   6.287   3.901   7.209
 3054W        W 3951   5.218   7.600   6.861
 3055W        W 3952   6.414   6.968   6.282
 3056W        W 3953   4.299   4.938   0.303
 3057W        W 3954   4.623   3.627   1.139
 3058W        W 3955   5.945   4.666   5.380
 3059W        W 3956   3.115   7.387   7.729
 3060W        W 3957   6.150   2.592   5.916
 3061W        W 3958   5.071   7.037   0.369
 3062W        W 3959   1.485   7.108   5.036
 3063W        W 3960   7.614   2.536   4.288
 3064W        W 3961   5.584   6.238   2.162
 3065W        W 3962   3.604   3.791   1.787
 3066W        W 3963   5.474   0.937   0.396
 3067W        W 3964   4.891   3.539   4.947
 3068W        W 3965   4.135   7.007   5.707
 3069W        W 3966   2.626   5.089   2.396
 3070W        W 3967   2.566   3.027   0.228
 3071W        W 3968   1.709   2.541   5.395
 3072W        W 3969   6.757   7.780   4.432
 3073W        W 3970   1.482   4.089   7.696
 3074W        W 3971   7.366   2.889   4.010
 3075W        W 3972   0.157   5.371   4.594
 3076W        W 3973   0.620   4.815   3.816
 3077W        W 3974   5.314   5.322   3.530
 3078W        W 3975   3.620   1.601   1.189
 3079W        W 3976   6.544   4.202   4.525
 3080W        W 3977   4.818   4.703   6.672
 3081W        W 3978   6.049   3.731   6.692
 3082W        W 3979   7.040   2.248   7.471
 3083W        W 3980   2.837   2.853   1.729
 3084W        W 3981   6.252   2.164   6.140
 3085W        W 3982   5.157   2.816   2.233
 3086W        W 3983   1.168   2.728   7.465
 3087W        W 3984   2.291   0.105   0.592
 3088W        W 3985   5.155   7.009   2.498
 3089W        W 3986   0.816   2.248   7.328
 3090W        W 3987   5.689   2.749   3.395
 3091W        W 3988   6.030   7.377   6.199
 3092W        W 3989   4.826   7.426   5.397
 3093W        W 3990   3.940   7.340   2.486
 3094W        W 3991   1.952   6.073   6.014
 3095W        W 3992   3.271   4.436   5.319
 3096W        W 3993   5.992   7.705   1.618
 3097W        W 3994   4.662   3.089   7.772
 3098W        W 3995   6.305   3.372   2.875
 3099W        W 3996   3.670   7.549   7.346
 3100W        W 3997   3.107   4.155   6.390
 3101W        W 3998   4.697   4.268   4.767
 3102W        W 3999   7.077   2.092   3.833
 3103W        W 4000   4.392   3.644   4.943
 3104W        W 4001   7.484   5.038   0.358
 3105W        W 4002   2.018   1.156   6.546
 3106W        W 4003   6.581   4.574   5.619
 3107W        W 4004   0.141   1.204   3.687
 3108W        W 4005   2.468   4.585   7.133
 3109W        W 4006   6.267   2.332   7.882
 3110W        W 4007   5.195   6.807   6.129
 3111W        W 4008   1.967   3.374   7.300
 3112W        W 4009   2.384   6.654   7.205
 3113W        W 4010   3.565   6.423   2.238
 3114W        W 4011   0.673   7.302   0.692
 3115W        W 4012   7.359   0.249   4.208
 3116W        W 4013   6.546   1.892   0.675
 3117W        W 4014   1.656   6.815   3.614
 3118W        W 4015   2.814   5.380   0.765
 3119W        W 4016   1.911   3.441   6.744
 3120W        W 4017   4.835   6.747   6.495
 3121W        W 4018   5.238   3.845   6.036
 3122W        W 4019   6.237   5.294   4.611
 3123W        W 4020   6.464   1.507   1.426
 3124W        W 4021   0.529   2.351   0.221
 3125W        W 4022   3.222   3.049   1.437
 3126W        W 4023   1.865   7.054   5.545
 3127W        W 4024   1.870   4.466   4.112
 3128W        W 4025   2.052   2.898   0.179
 3129W        W 4026   0.538   6.621   2.092
 3130W        W 4027   2.206   2.504   5.098
 3131W        W 4028   0.199   2.664   2.385
 3132W        W 4029   2.388   2.894   3.322
 3133W        W 4030   4.762   3.283   6.702
 3134W        W 4031   0.011   6.640   2.133
 3135W        W 4032   0.424   4.086   2.870
 3136W        W 4033   4.348   6.071   2.605
 3137W        W 4034   7.746   4.835   3.349
 3138W        W 4035   2.374   0.800   3.608
 3139W        W 4036   0.866   5.105   7.626
 3140W        W 4037   7.648   3.556   7.534
 3141W        W 4038   4.329   6.924   2.543
 3142W        W 4039   6.581   2.494   1.553
 3143W        W 4040   0.096   2.253   4.014
 3144W        W 4041   4.731   5.343   5.846
 3145W        W 4042   0.201   6.891   4.609
 3146W        W 4043   7.823   6.377   6.175
 3147W        W 4044   7.460   3.734   4.470
 3148W        W 4045   2.260   6.919   2.093
 3149W        W 4046   1.655   6.398   5.748
 3150W        W 4047   4.495   2.886   6.830
 3151W        W 4048   7.342   1.875   1.439
 3152W        W 4049   6.106   5.019   0.801
 3153W        W 4050   5.124   1.674   4.270
 3154W        W 4051   2.340   2.748   1.443
 3155W        W 4052   4.225   0.833   5.986
 3156W        W 4053   0.754   7.033   5.499
 3157W        W 4054   7.116   3.414   2.333
 3158W        W 4055   1.705   6.551   6.245
 3159W        W 4056   3.506   3.556   3.897
 3160W        W 4057   2.484   0.855   1.479
 3161W        W 4058   2.493   0.891   5.441
 3162W        W 4059   1.995   1.598   5.111
 3163W        W 4060   5.116   1.352   2.599
 3164W        W 4061   7.211   6.690   6.082
 3165W        W 4062   7.024   6.258   6.679
 3166W        W 4063   5.457   1.338   7.069
 3167W        W 4064   6.236   3.846   4.679
 3168W        W 4065   0.298   7.556   0.935
 3169W        W 4066   4.997   7.370   2.187
 3170W        W 4067   3.320   5.956   4.833
 3171W        W 4068   5.305   1.714   6.755
 3172W        W 4069   6.839   7.016   2.689
 3173W        W 4070   7.820   0.238   1.153
 3174W        W 4071   0.391   1.970   7.560
 3175W        W 4072   0.265   3.825   1.387
 3176W        W 4073   3.482   7.576   5.630
 3177W        W 4074   4.550   0.363   7.039
 3178W        W 4075   0.932   1.406   5.423
 3179W        W 4076   6.257   4.506   7.463
 3180W        W 4077   6.836   0.740   3.996
 3181W        W 4078   3.410   7.503   3.382
 3182W        W 4079   2.245   3.002   6.036
 3183W        W 4080   1.736   3.761   4.586
 3184W        W 4081   1.303   6.840   4.637
 3185W        W 4082   7.561   1.375   5.985
 3186W        W 4083   5.838   1.012   6.843
 3187W        W 4084   4.542   6.351   3.727
 3188W        W 4085   0.253   3.344   5.539
 3189W        W 4086   5.395   5.350   4.708
 3190W        W 4087   1.146   1.681   6.469
 3191W        W 4088   1.109   6.546   2.791
 3192W        W 4089   2.838   6.456   7.571
 3193W        W 4090   7.641   0.391   2.676
 3194W        W 4091   0.761   4.388   6.603
 3195W        W 4092   2.032   4.469   1.172
 3196W        W 4093   0.823   2.017   2.145
 3197W        W 4094   6.092   0.274   1.284
 3198W        W 4095   6.921   1.503   6.044
 3199W        W 4096   2.090   6.952   1.632
 3200W        W 4097   0.868   6.791   2.487
 3201W        W 4098   3.035   5.330   1.266
 3202W        W 4099   5.119   0.728   4.881
 3203W        W 4100   3.309   3.119   2.635
 3204W        W 4101   2.782   0.521   3.309
 3205W        W 4102   7.962   3.768   6.359
 3206W        W 4103   0.510   7.646   1.389
 3207W        W 4104   1.843   4.437   7.851
 3208W        W 4105   0.082   3.144   2.636
 3209W        W 4106   5.071   3.741   6.542
 3210W        W 4107   1.977   7.542   3.071
 3211W        W 4108   7.326   6.667   3.432
 3212W        W 4109   4.433   2.152   2.679
 3213W        W 4110   1.671   5.985   4.610
 3214W        W 4111   3.612   2.999   2.269
 3215W        W 4112   1.716   3.265   0.226
 3216W        W 4113   6.862   1.258   6.570
 3217W        W 4114   3.182   2.071   6.049
 3218W        W 4115   1.807   0.803   4.299
 3219W        W 4116   4.315   4.419   0.137
 3220W        W 4117   7.057   2.002   0.095
 3221W        W 4118   3.079   5.876   1.077
 3222W        W 4119   6.481   4.268   0.208
 3223W        W 4120   3.480   3.995   5.478
 3224W        W 4121   0.999   3.896   0.369
 3225W        W 4122   1.253   6.368   6.075
 3226W        W 4123   4.509   2.980   2.716
 3227W        W 4124   7.290   4.529   1.008
 3228W        W 4125   0.824   3.061   4.860
 3229W        W 4126   5.076   2.845   2.800
 3230W        W 4127   4.312   5.065   4.226
 3231W        W 4128   2.838   2.910   7.734
 3232W        W 4129   4.730   5.030   2.123
 3233W        W 4130   5.302   4.533   3.096
 3234W        W 4131   5.460   7.517   2.475
 3235W        W 4132   4.717   5.174   3.466
 3236W        W 4133   7.332   1.354   6.404
 3237W        W 4134   3.270   3.087   4.014
 3238W        W 4135   5.425   1.206   4.254
 3239W        W 4136   7.820   1.633   1.681
 3240W        W 4137   3.135   4.905   0.947
 3241W        W 4138   1.015   7.828   1.460
 3242W        W 4139   1.355   5.842   7.738
 3243W        W 4140   5.179   2.493   0.708
 3244W        W 4141   4.732   0.192   6.578
 3245W        W 4142   5.865   0.965   1.984
   8.00000   8.00000   8.00000
