; MARTINI (martini22) Coarse Grained topology file for "TYR-ARG-TYR"
; Created by py version 2.4 
; Using the following options:  -f ../2_Creating_coordinates/TYR-ARG-TYR_aa.pdb -name TYR-ARG-TYR -o TYR-ARG-TYR.top -x TYR-ARG-TYR.pdb -ff martini22 -ss EEE -nt
; Sequence:
; YRY
; Secondary Structure:
; EEE

[ moleculetype ]
; Name         Exclusions
TYR-ARG-TYR       1

[ atoms ]
    1   Nda     1   TYR    BB     1  0.0000 ; E
    2   SC4     1   TYR   SC1     2  0.0000 ; E
    3   SC4     1   TYR   SC2     3  0.0000 ; E
    4   SP1     1   TYR   SC3     4  0.0000 ; E
    5   Nda     2   ARG    BB     5  0.0000 ; E
    6    N0     2   ARG   SC1     6  0.0000 ; E
    7    Qd     2   ARG   SC2     7  1.0000 ; E
    8   Nda     3   TYR    BB     8  0.0000 ; E
    9   SC4     3   TYR   SC1     9  0.0000 ; E
   10   SC4     3   TYR   SC2    10  0.0000 ; E
   11   SP1     3   TYR   SC3    11  0.0000 ; E

[ bonds ]
; Backbone bonds
    1     5      1   0.35000  1250 ; TYR(E)-ARG(E)
    5     8      1   0.35000  1250 ; ARG(E)-TYR(E)
; Sidechain bonds
    1     2      1   0.32000  5000 ; TYR
    5     6      1   0.33000  5000 ; ARG
    6     7      1   0.34000  5000 ; ARG
    8     9      1   0.32000  5000 ; TYR

[ constraints ]
    2     3      1   0.27000 ; TYR
    2     4      1   0.27000 ; TYR
    3     4      1   0.27000 ; TYR
    9    10      1   0.27000 ; TYR
    9    11      1   0.27000 ; TYR
   10    11      1   0.27000 ; TYR

[ angles ]
; Backbone angles
    1     5     8      2    134    25 ; TYR(E)-ARG(E)-TYR(E)
; Backbone-sidechain angles
    2     1     5      2    100    25 ; TYR(E)-ARG(E) SBB
    1     5     6      2    100    25 ; TYR(E)-ARG(E) SBB
    5     8     9      2    100    25 ; ARG(E)-TYR(E) SBB
; Sidechain angles
    1     2     3      2    150    50 ; TYR
    1     2     4      2    150    50 ; TYR
    5     6     7      2    180    25 ; ARG
    8     9    10      2    150    50 ; TYR
    8     9    11      2    150    50 ; TYR

[ dihedrals ]
; Backbone dihedrals
; Sidechain improper dihedrals
    1     3     4     2      2      0    50 ; TYR
    8    10    11     9      2      0    50 ; TYR