Martini system from ../2_Creating_coordinates/TYR-GLN-TYR_aa.pdb
 4188
    1TYR     BB    1   2.942   6.034   1.082 -0.4259 -0.0392  0.0703
    1TYR    SC1    2   3.052   5.979   0.835 -0.1876  0.1685 -0.0612
    1TYR    SC2    3   3.291   5.943   0.714 -0.0793  0.1891  0.1421
    1TYR    SC3    4   3.068   5.833   0.608  0.1051 -0.3361  0.2615
    2GLN     BB    5   3.023   5.959   1.322 -0.0687  0.0288  0.0238
    2GLN    SC1    6   3.150   5.629   1.223 -0.2220  0.1097  0.2263
    3TYR     BB    7   2.907   6.075   1.579 -0.0958 -0.2187 -0.2850
    3TYR    SC1    8   3.113   6.309   1.657 -0.0125 -0.0621  0.0123
    3TYR    SC2    9   3.290   6.501   1.723 -0.0051 -0.1671  0.3206
    3TYR    SC3   10   3.288   6.400   1.473 -0.0856  0.3083  0.1145
    1TYR     BB   11   6.921   6.386   1.836 -0.0114 -0.1109  0.1549
    1TYR    SC1   12   6.899   6.191   1.629 -0.0555 -0.2428  0.0750
    1TYR    SC2   13   6.986   6.128   1.382  0.1959 -0.1748  0.1423
    1TYR    SC3   14   6.746   6.038   1.468 -0.1414  0.2231 -0.3146
    2GLN     BB   15   6.943   6.738   1.735 -0.0387  0.0835 -0.1796
    2GLN    SC1   16   7.301   6.911   1.793 -0.0533  0.1311 -0.3148
    3TYR     BB   17   6.827   6.839   1.517 -0.1158 -0.1174 -0.0253
    3TYR    SC1   18   6.880   6.677   1.244 -0.0855  0.1327  0.0346
    3TYR    SC2   19   7.028   6.533   1.069 -0.0708  0.0559  0.1098
    3TYR    SC3   20   6.777   6.455   1.131 -0.0732  0.0785  0.1291
    1TYR     BB   21   0.983   7.390   0.270 -0.4681  0.0955 -0.4044
    1TYR    SC1   22   1.053   7.337  -0.040  0.3106 -0.0124  0.0506
    1TYR    SC2   23   1.033   7.186  -0.263  0.1263  0.1816 -0.0687
    1TYR    SC3   24   1.132   7.437  -0.278 -0.0789  0.2710  0.0292
    2GLN     BB   25   1.116   7.659   0.396  0.0706  0.0399 -0.0429
    2GLN    SC1   26   1.437   7.617   0.122 -0.0863 -0.2118 -0.0886
    3TYR     BB   27   0.975   7.780   0.694  0.2411 -0.0021 -0.0436
    3TYR    SC1   28   1.173   7.719   0.916 -0.1275 -0.0265 -0.1040
    3TYR    SC2   29   1.200   7.517   1.092 -0.1193  0.1702  0.1266
    3TYR    SC3   30   1.216   7.773   1.177 -0.8322  0.2915 -0.0244
    1TYR     BB   31   0.897   5.901   1.748 -0.2046  0.0473 -0.2294
    1TYR    SC1   32   0.902   5.802   1.458 -0.2657 -0.1086  0.0106
    1TYR    SC2   33   0.888   5.840   1.191  0.2437 -0.1910 -0.0403
    1TYR    SC3   34   1.013   5.623   1.290 -0.1743 -0.3060  0.2741
    2GLN     BB   35   0.529   5.936   1.753 -0.0690 -0.3843 -0.0829
    2GLN    SC1   36   0.395   6.047   1.447  0.1819  0.1331 -0.1574
    3TYR     BB   37   0.263   5.739   1.789 -0.0115  0.4632 -0.1847
    3TYR    SC1   38   0.088   5.515   1.722  0.0257  0.1827  0.0698
    3TYR    SC2   39   0.040   5.250   1.725  0.2267  0.1438  0.0095
    3TYR    SC3   40  -0.026   5.397   1.509 -0.1538  0.1991  0.1545
    1TYR     BB   41   3.142   6.555   0.901  0.0246 -0.0538 -0.5960
    1TYR    SC1   42   2.935   6.835   0.912 -0.0771  0.0494 -0.0950
    1TYR    SC2   43   2.720   6.996   0.879 -0.1284 -0.0076 -0.0443
    1TYR    SC3   44   2.960   7.102   0.942 -0.1421  0.0562 -0.0978
    2GLN     BB   45   3.334   6.448   0.753  0.3406  0.0729  0.0745
    2GLN    SC1   46   3.481   6.198   1.041 -0.0753 -0.0214 -0.0145
    3TYR     BB   47   3.564   6.550   0.553 -0.0243  0.1422  0.6700
    3TYR    SC1   48   3.501   6.542   0.256  0.2112 -0.0048 -0.0323
    3TYR    SC2   49   3.437   6.736   0.078 -0.0197 -0.1877 -0.1559
    3TYR    SC3   50   3.366   6.480   0.030  0.1967 -0.2914  0.0512
    1TYR     BB   51   7.182   0.426   0.301 -0.0336 -0.2535 -0.1008
    1TYR    SC1   52   7.235   0.255   0.063  0.1705 -0.0218  0.1344
    1TYR    SC2   53   7.479   0.150   0.017  0.1418 -0.0076 -0.0604
    1TYR    SC3   54   7.258  -0.004  -0.007  0.1319 -0.0279  0.1438
    2GLN     BB   55   7.156   0.381   0.587  0.2507  0.0382 -0.1602
    2GLN    SC1   56   7.316   0.020   0.562 -0.0052  0.1736 -0.0392
    3TYR     BB   57   6.918   0.498   0.769  0.0097 -0.1248 -0.0836
    3TYR    SC1   58   6.663   0.347   0.790 -0.2444 -0.2196  0.1194
    3TYR    SC2   59   6.417   0.295   0.887 -0.2898 -0.2185  0.0074
    3TYR    SC3   60   6.470   0.254   0.626 -0.1076 -0.4330  0.0737
    1TYR     BB   61   1.388   4.991   1.815  0.0057 -0.2234  0.0898
    1TYR    SC1   62   1.261   5.312   1.877  0.1825  0.0520 -0.2496
    1TYR    SC2   63   1.097   5.467   1.728  0.0252  0.1826  0.0472
    1TYR    SC3   64   1.163   5.542   1.979 -0.0171 -0.2080  0.1846
    2GLN     BB   65   1.339   4.830   2.118  0.0756  0.0203 -0.0558
    2GLN    SC1   66   1.163   4.463   2.049  0.0315  0.0914  0.2796
    3TYR     BB   67   1.409   4.916   2.387  0.1160 -0.1371 -0.0120
    3TYR    SC1   68   1.355   5.199   2.430  0.0169 -0.0117  0.2581
    3TYR    SC2   69   1.324   5.462   2.378 -0.1533 -0.1064 -0.1761
    3TYR    SC3   70   1.303   5.371   2.631  0.0261  0.3069 -0.0006
    1TYR     BB   71   2.748   7.363   0.514 -0.2813  0.1198 -0.0871
    1TYR    SC1   72   2.596   7.475   0.259  0.2671  0.0677 -0.1376
    1TYR    SC2   73   2.440   7.477   0.039 -0.2454 -0.3336  0.1913
    1TYR    SC3   74   2.473   7.703   0.182  0.0520 -0.0809 -0.2461
    2GLN     BB   75   3.058   7.466   0.562  0.2791  0.2542 -0.1056
    2GLN    SC1   76   3.077   7.732   0.279 -0.1568  0.1196  0.1157
    3TYR     BB   77   3.219   7.560   0.744  0.2518 -0.0809  0.0617
    3TYR    SC1   78   3.432   7.713   0.877 -0.2853  0.1384 -0.0268
    3TYR    SC2   79   3.537   7.942   0.974 -0.2426  0.0149  0.2298
    3TYR    SC3   80   3.588   7.708   1.098 -0.1035 -0.1684 -0.1535
    1TYR     BB   81   6.325   0.335   7.480 -0.4198 -0.1210 -0.0150
    1TYR    SC1   82   6.428   0.071   7.611 -0.2911 -0.0416  0.1086
    1TYR    SC2   83   6.461  -0.003   7.869 -0.1043  0.1581  0.1454
    1TYR    SC3   84   6.558  -0.158   7.671 -0.0554  0.1130  0.2042
    2GLN     BB   85   6.171   0.501   7.542 -0.2314  0.1629 -0.0561
    2GLN    SC1   86   6.143   0.458   7.927  0.1818  0.0585 -0.1144
    3TYR     BB   87   5.978   0.726   7.418 -0.0103  0.2302  0.1572
    3TYR    SC1   88   6.102   0.907   7.200  0.2234 -0.2395  0.0572
    3TYR    SC2   89   6.183   1.164   7.185 -0.0388 -0.1576 -0.0287
    3TYR    SC3   90   6.270   0.984   7.004  0.0481 -0.1027 -0.0424
    1TYR     BB   91   2.300   6.152   2.092 -0.3608 -0.2000 -0.1045
    1TYR    SC1   92   2.581   6.304   2.037 -0.1779  0.4265  0.2328
    1TYR    SC2   93   2.804   6.255   2.182 -0.0530 -0.0308 -0.0849
    1TYR    SC3   94   2.805   6.450   1.995  0.1100 -0.0786 -0.1361
    2GLN     BB   95   2.249   5.892   2.148  0.0444 -0.0537 -0.3205
    2GLN    SC1   96   2.394   6.017   2.536  0.4988  0.1975  0.1856
    3TYR     BB   97   2.133   5.665   2.022 -0.0277  0.1452  0.1584
    3TYR    SC1   98   1.864   5.535   2.050  0.0544 -0.0006  0.0027
    3TYR    SC2   99   1.598   5.571   2.022  0.0318 -0.0552  0.1399
    3TYR    SC3  100   1.700   5.321   2.027  0.1107 -0.0315 -0.1218
    1TYR     BB  101   2.199   0.331   1.766  0.2008  0.1635  0.2376
    1TYR    SC1  102   2.002   0.335   1.518 -0.2039 -0.1906  0.0736
    1TYR    SC2  103   1.924   0.402   1.268  0.0227  0.0720  0.0668
    1TYR    SC3  104   1.794   0.503   1.482  0.0820  0.1772  0.0541
    2GLN     BB  105   2.120   0.070   1.904  0.2305  0.2222  0.4059
    2GLN    SC1  106   1.818   0.255   2.042 -0.0048  0.0006 -0.1204
    3TYR     BB  107   1.903  -0.162   1.733 -0.4251 -0.0435  0.2384
    3TYR    SC1  108   1.716  -0.007   1.546  0.0706 -0.0526 -0.1665
    3TYR    SC2  109   1.631   0.072   1.302 -0.0920  0.0987 -0.0642
    3TYR    SC3  110   1.500   0.154   1.523  0.0513 -0.0399  0.0753
    1TYR     BB  111   5.646   0.010   0.502  0.0925  0.2566 -0.0235
    1TYR    SC1  112   5.638  -0.217   0.664  0.2921 -0.0207 -0.1354
    1TYR    SC2  113   5.757  -0.408   0.813  0.3008  0.0000 -0.1156
    1TYR    SC3  114   5.496  -0.432   0.745  0.3302 -0.0728 -0.2058
    2GLN     BB  115   6.000   0.014   0.472 -0.0781  0.0657 -0.3475
    2GLN    SC1  116   6.032   0.032   0.861 -0.0861 -0.1278 -0.0023
    3TYR     BB  117   5.986   0.027   0.084 -0.0507  0.0640 -0.3951
    3TYR    SC1  118   5.735   0.122   0.017 -0.2661 -0.0153  0.2013
    3TYR    SC2  119   5.671   0.384   0.004  0.1591  0.0952  0.1417
    3TYR    SC3  120   5.477   0.199   0.037 -0.1794  0.3922 -0.0864
    1TYR     BB  121   6.515   6.803   0.488 -0.0761 -0.2342 -0.0635
    1TYR    SC1  122   6.360   7.061   0.603 -0.3606 -0.2227 -0.0786
    1TYR    SC2  123   6.445   7.317   0.612  0.1056 -0.3649 -0.1147
    1TYR    SC3  124   6.243   7.236   0.771  0.1612 -0.0476  0.1291
    2GLN     BB  125   6.778   6.862   0.707  0.0333  0.2551 -0.0076
    2GLN    SC1  126   6.705   7.085   0.973  0.2285 -0.2099 -0.0911
    3TYR     BB  127   7.004   6.755   0.673  0.1057 -0.1116  0.1872
    3TYR    SC1  128   7.257   6.740   0.491  0.0538  0.0601  0.2037
    3TYR    SC2  129   7.517   6.675   0.526 -0.0813 -0.6557  0.0770
    3TYR    SC3  130   7.423   6.726   0.278 -0.0161 -0.0714  0.1559
    1TYR     BB  131   0.460   5.792   2.261 -0.0049  0.0597 -0.0352
    1TYR    SC1  132   0.245   6.020   2.251 -0.2805 -0.2810 -0.0277
    1TYR    SC2  133   0.096   6.239   2.304  0.0519  0.0383 -0.3413
    1TYR    SC3  134   0.010   6.059   2.122 -0.3397 -0.2401  0.0907
    2GLN     BB  135   0.717   5.903   2.223  0.1180 -0.0114  0.3308
    2GLN    SC1  136   0.983   5.778   2.404 -0.1030 -0.0168 -0.0512
    3TYR     BB  137   0.778   6.187   2.134  0.2260  0.1696 -0.3227
    3TYR    SC1  138   0.579   6.353   2.299 -0.3190 -0.2716 -0.2248
    3TYR    SC2  139   0.441   6.541   2.435  0.0283 -0.0293 -0.1912
    3TYR    SC3  140   0.486   6.299   2.547 -0.1777 -0.0355 -0.1163
    1TYR     BB  141   0.771   4.014   2.859  0.0729 -0.3034  0.2264
    1TYR    SC1  142   0.503   3.858   2.865 -0.1007 -0.0108  0.1525
    1TYR    SC2  143   0.239   3.801   2.874 -0.0988 -0.0770 -0.1198
    1TYR    SC3  144   0.419   3.603   2.837 -0.0122 -0.0265  0.0216
    2GLN     BB  145   1.124   3.929   2.907  0.1124  0.0541 -0.2297
    2GLN    SC1  146   1.182   4.370   2.940 -0.2558 -0.1799 -0.0330
    3TYR     BB  147   1.228   3.687   2.976 -0.0001 -0.0362 -0.0156
    3TYR    SC1  148   1.049   3.458   3.063 -0.0196 -0.0827  0.1505
    3TYR    SC2  149   0.779   3.464   3.071 -0.0251 -0.0615 -0.0101
    3TYR    SC3  150   0.910   3.229   3.094 -0.0594 -0.0790  0.0057
    1TYR     BB  151   3.860   6.908   0.273 -0.3055  0.0037 -0.1770
    1TYR    SC1  152   3.897   6.659   0.097  0.2475 -0.0709  0.1455
    1TYR    SC2  153   3.985   6.451  -0.051  0.4881  0.0866  0.0591
    1TYR    SC3  154   3.924   6.685  -0.170 -0.0385 -0.0034  0.1187
    2GLN     BB  155   4.190   6.877   0.391  0.0798  0.1065 -0.2333
    2GLN    SC1  156   4.366   6.938   0.099  0.0344  0.0275  0.1304
    3TYR     BB  157   4.377   7.090   0.559  0.0215  0.0213 -0.2476
    3TYR    SC1  158   4.395   7.036   0.859  0.0046 -0.1949  0.2222
    3TYR    SC2  159   4.274   6.878   1.041 -0.0534  0.0825  0.4325
    3TYR    SC3  160   4.302   7.142   1.089  0.0309  0.1424  0.0839
    1TYR     BB  161   7.373   7.226   0.295  0.0757  0.0073  0.0983
    1TYR    SC1  162   7.271   7.173   0.582  0.3252 -0.0759  0.1617
    1TYR    SC2  163   7.382   7.097   0.815  0.0539 -0.1428  0.2743
    1TYR    SC3  164   7.152   7.237   0.816  0.2124  0.1313  0.0513
    2GLN     BB  165   7.103   7.072   0.164  0.1125 -0.2995  0.1701
    2GLN    SC1  166   7.229   6.901  -0.142  0.0846  0.1033  0.0837
    3TYR     BB  167   6.822   7.148   0.236 -0.1719  0.3234 -0.1319
    3TYR    SC1  168   6.830   7.403   0.392 -0.0051 -0.0336 -0.0906
    3TYR    SC2  169   6.836   7.573   0.602  0.0208 -0.0646 -0.0660
    3TYR    SC3  170   6.872   7.666   0.351 -0.1357 -0.0085 -0.0690
    1TYR     BB  171   5.895   6.237   0.712 -0.0198 -0.1672  0.2277
    1TYR    SC1  172   5.874   6.034   0.913 -0.2776  0.0641 -0.1525
    1TYR    SC2  173   5.744   5.946   1.133  0.1849  0.0014  0.1137
    1TYR    SC3  174   5.782   5.781   0.923 -0.2751  0.0668 -0.0348
    2GLN     BB  175   6.079   6.169   0.481 -0.1506 -0.1684  0.0820
    2GLN    SC1  176   6.131   5.806   0.554  0.1577  0.3106 -0.3563
    3TYR     BB  177   6.041   6.293   0.235 -0.4504  0.1296 -0.1992
    3TYR    SC1  178   6.241   6.434   0.110 -0.1978  0.2705  0.1616
    3TYR    SC2  179   6.312   6.384  -0.146 -0.0500  0.2503  0.2055
    3TYR    SC3  180   6.483   6.513   0.019  0.0296 -0.1000  0.4107
    1TYR     BB  181   1.304   6.977   0.158 -0.0792  0.1405 -0.0476
    1TYR    SC1  182   1.394   6.776   0.425  0.2060  0.0677 -0.3129
    1TYR    SC2  183   1.424   6.508   0.431  0.0919  0.0536 -0.3602
    1TYR    SC3  184   1.342   6.639   0.652 -0.1249  0.0151 -0.4144
    2GLN     BB  185   1.321   6.647  -0.044  0.1222 -0.1446 -0.0584
    2GLN    SC1  186   1.248   6.732  -0.420  0.1355  0.1622 -0.1433
    3TYR     BB  187   1.339   6.307  -0.049 -0.3854 -0.2656 -0.5000
    3TYR    SC1  188   1.130   6.242  -0.247  0.0047  0.0174 -0.2005
    3TYR    SC2  189   0.907   6.356  -0.347 -0.0633  0.1608  0.1026
    3TYR    SC3  190   1.003   6.130  -0.458 -0.5068 -0.0509  0.1213
    1TYR     BB  191   1.465   4.375   4.417  0.1074 -0.1467  0.2562
    1TYR    SC1  192   1.300   4.628   4.483 -0.3064 -0.0886 -0.4115
    1TYR    SC2  193   1.206   4.877   4.437 -0.2867  0.0401  0.1467
    1TYR    SC3  194   1.392   4.837   4.629 -0.1822 -0.3936 -0.0309
    2GLN     BB  195   1.499   4.230   4.658 -0.1749 -0.1682 -0.1242
    2GLN    SC1  196   1.574   4.461   4.917 -0.4273  0.1090 -0.1401
    3TYR     BB  197   1.669   3.997   4.703 -0.0069 -0.2767 -0.0302
    3TYR    SC1  198   1.719   3.776   4.862 -0.1409  0.0420 -0.0264
    3TYR    SC2  199   1.749   3.522   4.947  0.0739  0.0380 -0.1075
    3TYR    SC3  200   1.936   3.707   5.007 -0.1852  0.2316  0.1361
    1TYR     BB  201   2.138   6.667   1.268  0.1043 -0.0238 -0.0164
    1TYR    SC1  202   2.310   6.535   1.447  0.0963  0.1947 -0.0310
    1TYR    SC2  203   2.526   6.457   1.589  0.0544  0.0172 -0.0615
    1TYR    SC3  204   2.304   6.540   1.717 -0.0005 -0.1895 -0.0177
    2GLN     BB  205   2.022   6.875   1.127 -0.0354 -0.3209 -0.1747
    2GLN    SC1  206   2.150   7.111   0.860  0.3035 -0.1231 -0.2584
    3TYR     BB  207   1.893   7.154   1.299  0.1055  0.1392  0.2962
    3TYR    SC1  208   1.995   7.433   1.247 -0.2624  0.0992  0.1800
    3TYR    SC2  209   2.193   7.597   1.328  0.0460 -0.1600 -0.0185
    3TYR    SC3  210   2.075   7.637   1.089  0.2777 -0.3467 -0.1698
    1TYR     BB  211   1.485   5.701   1.118 -0.1123  0.1930 -0.0374
    1TYR    SC1  212   1.498   5.393   1.066 -0.3971  0.2211  0.0287
    1TYR    SC2  213   1.400   5.156   0.985 -0.0812  0.0556  0.1084
    1TYR    SC3  214   1.621   5.164   1.140  0.1519  0.4121 -0.2206
    2GLN     BB  215   1.594   5.899   0.929  0.0953  0.0098 -0.1142
    2GLN    SC1  216   1.699   5.708   0.668  0.3004 -0.1064  0.0997
    3TYR     BB  217   1.530   6.190   0.843 -0.1744  0.1669  0.2783
    3TYR    SC1  218   1.502   6.352   1.087 -0.0865  0.0598  0.0166
    3TYR    SC2  219   1.444   6.570   1.235  0.0794  0.0352  0.1207
    3TYR    SC3  220   1.701   6.495   1.199  0.0372 -0.0077 -0.1125
    1TYR     BB  221   3.352   7.006   0.626  0.0795  0.1324  0.2204
    1TYR    SC1  222   3.115   6.840   0.468  0.1018  0.1216 -0.2860
    1TYR    SC2  223   3.036   6.648   0.296 -0.0375 -0.0716 -0.0149
    1TYR    SC3  224   2.853   6.781   0.444  0.0821  0.0720  0.0069
    2GLN     BB  225   3.483   7.179   0.474  0.0241  0.2282  0.3068
    2GLN    SC1  226   3.243   7.221   0.160  0.2154  0.0254  0.0898
    3TYR     BB  227   3.719   7.345   0.226  0.1503 -0.1946  0.1065
    3TYR    SC1  228   3.751   7.667   0.284 -0.2244 -0.0480 -0.3660
    3TYR    SC2  229   3.662   7.920   0.252  0.1933  0.1412 -0.1327
    3TYR    SC3  230   3.691   7.817   0.500 -0.0041 -0.1550 -0.2258
    1TYR     BB  231   2.148   7.037   1.695 -0.2067 -0.3773  0.2496
    1TYR    SC1  232   2.211   7.138   1.949  0.0027 -0.0547  0.0742
    1TYR    SC2  233   2.216   7.168   2.217  0.2436 -0.0342  0.0704
    1TYR    SC3  234   2.421   7.261   2.067  0.1884 -0.1899 -0.1055
    2GLN     BB  235   2.379   7.066   1.495 -0.3079  0.2864  0.0015
    2GLN    SC1  236   2.711   6.937   1.679 -0.2804  0.0732 -0.1992
    3TYR     BB  237   2.471   7.142   1.256 -0.0678  0.0010  0.0291
    3TYR    SC1  238   2.500   7.379   1.083 -0.0797 -0.0977  0.0896
    3TYR    SC2  239   2.469   7.527   0.860  0.0722  0.0094  0.1376
    3TYR    SC3  240   2.709   7.517   0.983 -0.0163 -0.0269  0.3115
    1TYR     BB  241   2.499   4.998   3.760 -0.1704  0.2175  0.0442
    1TYR    SC1  242   2.548   5.193   3.966 -0.0324 -0.1391 -0.0317
    1TYR    SC2  243   2.598   5.294   4.212  0.4026 -0.2531 -0.0630
    1TYR    SC3  244   2.585   5.459   3.998 -0.1626 -0.1290  0.0460
    2GLN     BB  245   2.184   5.082   3.656  0.1106  0.2679 -0.0896
    2GLN    SC1  246   2.138   5.464   3.710  0.0595  0.1730 -0.0368
    3TYR     BB  247   1.938   4.929   3.742 -0.1279  0.0536 -0.2569
    3TYR    SC1  248   1.872   4.761   3.517 -0.0190 -0.0219 -0.1478
    3TYR    SC2  249   1.868   4.542   3.359  0.1455  0.0113 -0.2015
    3TYR    SC3  250   1.861   4.788   3.249 -0.2499  0.0396 -0.1346
    1TYR     BB  251   0.379   3.571   3.337 -0.2199  0.0878 -0.1920
    1TYR    SC1  252   0.353   3.765   3.564 -0.0328  0.1687 -0.0296
    1TYR    SC2  253   0.462   3.832   3.802  0.1569  0.1286 -0.1030
    1TYR    SC3  254   0.257   3.976   3.702  0.2383  0.2979 -0.0312
    2GLN     BB  255   0.328   3.270   3.440 -0.0612  0.0626 -0.1603
    2GLN    SC1  256   0.253   3.330   3.834 -0.0626 -0.1006 -0.3470
    3TYR     BB  257   0.368   3.070   3.250  0.2888 -0.3785 -0.0902
    3TYR    SC1  258   0.570   2.859   3.181 -0.1274  0.1445  0.1003
    3TYR    SC2  259   0.738   2.789   2.982 -0.0557  0.3654  0.0800
    3TYR    SC3  260   0.763   2.676   3.225  0.3323  0.6137  0.1672
    1TYR     BB  261   0.464   5.544   1.322 -0.1650  0.2785 -0.1951
    1TYR    SC1  262   0.316   5.361   1.146 -0.1451  0.0657 -0.0936
    1TYR    SC2  263   0.105   5.222   1.052  0.0508 -0.1279 -0.2611
    1TYR    SC3  264   0.249   5.379   0.886 -0.0827  0.1733 -0.1032
    2GLN     BB  265   0.577   5.393   1.568  0.1682 -0.0308  0.0180
    2GLN    SC1  266   0.426   5.078   1.502  0.0580 -0.2105 -0.2025
    3TYR     BB  267   0.652   5.494   1.882 -0.2591  0.0340 -0.1214
    3TYR    SC1  268   0.472   5.241   2.028  0.2200 -0.2445 -0.1360
    3TYR    SC2  269   0.371   5.126   2.251  0.0038  0.0097 -0.0970
    3TYR    SC3  270   0.296   5.037   2.007  0.1113 -0.1582 -0.0711
    1TYR     BB  271   0.273   5.745   0.521 -0.0517 -0.0174  0.1188
    1TYR    SC1  272   0.349   5.588   0.219 -0.0844 -0.0567  0.0214
    1TYR    SC2  273   0.344   5.401   0.024  0.3859  0.0805 -0.1397
    1TYR    SC3  274   0.537   5.591   0.025  0.0650  0.4261  0.1545
    2GLN     BB  275   0.195   6.013   0.535  0.3056  0.1672 -0.0429
    2GLN    SC1  276   0.415   6.109   0.236  0.2330 -0.1396  0.0285
    3TYR     BB  277   0.036   6.251   0.653 -0.1021 -0.1956 -0.3182
    3TYR    SC1  278  -0.069   6.153   0.934 -0.0110  0.2307 -0.4405
    3TYR    SC2  279  -0.004   6.239   1.182  0.0062  0.2998 -0.4688
    3TYR    SC3  280  -0.259   6.170   1.125  0.0501  0.0356 -0.3596
    1TYR     BB  281   0.717   0.415   7.195  0.1571 -0.0576 -0.1194
    1TYR    SC1  282   0.505   0.325   7.015  0.0172 -0.1141 -0.1296
    1TYR    SC2  283   0.240   0.312   6.961 -0.0688 -0.4038  0.2963
    1TYR    SC3  284   0.411   0.141   6.842  0.0220  0.0925 -0.3589
    2GLN     BB  285   0.766   0.598   7.407 -0.1812 -0.0644 -0.0715
    2GLN    SC1  286   0.840   0.982   7.329 -0.0216  0.2142  0.2411
    3TYR     BB  287   0.628   0.706   7.648  0.0366 -0.2580  0.2783
    3TYR    SC1  288   0.392   0.818   7.843  0.0778  0.3318  0.1331
    3TYR    SC2  289   0.173   0.942   7.940 -0.1338 -0.1902  0.3732
    3TYR    SC3  290   0.364   0.853   8.109  0.1645  0.0615  0.1822
    1TYR     BB  291   6.170   7.334   7.318  0.1764  0.0442 -0.2029
    1TYR    SC1  292   6.242   7.212   7.573  0.1181  0.1546  0.2920
    1TYR    SC2  293   6.234   7.232   7.842  0.3786  0.1131  0.3058
    1TYR    SC3  294   6.307   6.999   7.725 -0.0675  0.0202  0.1883
    2GLN     BB  295   6.307   7.387   7.005  0.2365  0.0778 -0.0878
    2GLN    SC1  296   6.538   7.087   6.999  0.4081  0.3646  0.2420
    3TYR     BB  297   6.501   7.621   7.141 -0.1679  0.0842  0.0159
    3TYR    SC1  298   6.731   7.461   7.260 -0.0479  0.0035  0.2216
    3TYR    SC2  299   6.984   7.503   7.174 -0.1016 -0.0647  0.0236
    3TYR    SC3  300   6.932   7.304   7.349 -0.0069  0.0041  0.1317
    1TYR     BB  301   1.352   3.431   2.514  0.0694 -0.1651 -0.0823
    1TYR    SC1  302   1.063   3.532   2.497  0.0698 -0.1937  0.2555
    1TYR    SC2  303   0.858   3.571   2.668  0.2313 -0.1564  0.4451
    1TYR    SC3  304   0.814   3.574   2.402  0.0077 -0.0280  0.4804
    2GLN     BB  305   1.275   3.121   2.543 -0.1760  0.1250 -0.0315
    2GLN    SC1  306   1.552   2.950   2.282  0.0067  0.1895  0.2810
    3TYR     BB  307   1.065   2.986   2.697 -0.1781  0.1651 -0.0422
    3TYR    SC1  308   0.776   3.145   2.691  0.2170  0.1199 -0.0419
    3TYR    SC2  309   0.554   3.224   2.559  0.1772  0.2337  0.0888
    3TYR    SC3  310   0.541   3.171   2.823  0.2406 -0.0575  0.0378
    1TYR     BB  311   7.106   1.092   6.749  0.0673  0.0336 -0.0045
    1TYR    SC1  312   7.090   0.851   6.559  0.1414  0.1112 -0.1037
    1TYR    SC2  313   7.196   0.611   6.494  0.0349  0.0072  0.0932
    1TYR    SC3  314   7.071   0.759   6.306  0.3662  0.0516 -0.1015
    2GLN     BB  315   7.148   1.123   7.020 -0.1590  0.4155 -0.0020
    2GLN    SC1  316   7.409   1.347   7.032  0.0287 -0.1267  0.1313
    3TYR     BB  317   7.195   0.892   7.210 -0.1802  0.0646 -0.0356
    3TYR    SC1  318   7.011   0.958   7.471 -0.1756 -0.0766 -0.1158
    3TYR    SC2  319   6.924   1.106   7.680 -0.0834  0.0865 -0.1911
    3TYR    SC3  320   6.964   0.841   7.710 -0.0454  0.1128  0.0062
    1TYR     BB  321   6.330   0.059   6.637  0.2414  0.0936 -0.1297
    1TYR    SC1  322   6.093  -0.001   6.499 -0.0979  0.1132  0.0637
    1TYR    SC2  323   5.952  -0.115   6.299 -0.0936 -0.0088  0.1288
    1TYR    SC3  324   5.960   0.154   6.323 -0.1893  0.0033  0.0346
    2GLN     BB  325   6.543   0.181   6.407  0.4059 -0.0459  0.0381
    2GLN    SC1  326   6.475  -0.080   6.169 -0.3462  0.0144 -0.1454
    3TYR     BB  327   6.671   0.473   6.433 -0.1788 -0.0235 -0.1483
    3TYR    SC1  328   6.793   0.452   6.750  0.5583 -0.2603 -0.0365
    3TYR    SC2  329   6.849   0.340   6.989  0.0106  0.1984  0.3432
    3TYR    SC3  330   6.980   0.562   6.910  0.2592 -0.0070  0.1542
    1TYR     BB  331   0.644   7.367   0.588 -0.0154 -0.1536 -0.1905
    1TYR    SC1  332   0.360   7.239   0.556 -0.1788  0.1867  0.1243
    1TYR    SC2  333   0.116   7.212   0.669 -0.1787 -0.2362  0.0428
    1TYR    SC3  334   0.180   7.070   0.448  0.1700 -0.1977  0.1112
    2GLN     BB  335   0.888   7.262   0.743 -0.0987 -0.5643  0.2780
    2GLN    SC1  336   0.753   7.317   1.059  0.0778  0.2980 -0.4182
    3TYR     BB  337   1.144   7.149   0.694 -0.0657 -0.3490  0.2570
    3TYR    SC1  338   1.351   7.056   0.900 -0.0610  0.1497  0.1402
    3TYR    SC2  339   1.404   6.999   1.158 -0.0466 -0.0571  0.0932
    3TYR    SC3  340   1.576   6.923   0.965 -0.1355 -0.0453  0.0085
    1TYR     BB  341   0.824   6.838   0.476 -0.1841 -0.1467  0.0984
    1TYR    SC1  342   0.572   6.837   0.606 -0.0317 -0.3381  0.0730
    1TYR    SC2  343   0.321   6.759   0.669 -0.0038 -0.4525  0.0455
    1TYR    SC3  344   0.473   6.887   0.852 -0.2158 -0.0347 -0.0555
    2GLN     BB  345   0.934   6.598   0.263 -0.0533  0.3283  0.0174
    2GLN    SC1  346   0.859   6.789  -0.085  0.1302 -0.3876 -0.2218
    3TYR     BB  347   0.888   6.350   0.274 -0.0314  0.1865  0.4584
    3TYR    SC1  348   0.872   6.121   0.076 -0.0502 -0.2702  0.4597
    3TYR    SC2  349   0.727   5.996  -0.115  0.2030  0.2891 -0.1495
    3TYR    SC3  350   0.947   5.877  -0.012 -0.0849 -0.1317  0.0135
    1TYR     BB  351   6.541   0.863   6.147 -0.0476 -0.1551 -0.1677
    1TYR    SC1  352   6.318   0.638   6.085  0.1687 -0.0624 -0.0112
    1TYR    SC2  353   6.076   0.647   5.965  0.0833 -0.2914  0.1343
    1TYR    SC3  354   6.209   0.413   5.984  0.2690 -0.1876  0.1514
    2GLN     BB  355   6.529   0.991   6.381  0.3582 -0.2178  0.0698
    2GLN    SC1  356   6.784   1.237   6.302  0.0775  0.1554  0.1937
    3TYR     BB  357   6.594   0.926   6.672 -0.1552 -0.3753 -0.1866
    3TYR    SC1  358   6.623   1.175   6.795  0.1594  0.1102 -0.1553
    3TYR    SC2  359   6.632   1.338   7.010  0.3014  0.1481 -0.1890
    3TYR    SC3  360   6.735   1.420   6.774  0.1149  0.1206 -0.2820
    1TYR     BB  361   6.812   1.027   0.554  0.0143 -0.1307  0.0697
    1TYR    SC1  362   7.104   0.883   0.520  0.0518 -0.0138  0.1219
    1TYR    SC2  363   7.369   0.833   0.526  0.0674  0.0080 -0.1870
    1TYR    SC3  364   7.273   1.034   0.374 -0.1154  0.1041  0.0469
    2GLN     BB  365   6.917   1.311   0.638 -0.2337 -0.2351 -0.1254
    2GLN    SC1  366   6.722   1.600   0.454  0.2101 -0.0539 -0.2323
    3TYR     BB  367   6.864   1.389   0.894 -0.1132  0.3414 -0.0509
    3TYR    SC1  368   6.793   1.132   1.059 -0.2295  0.0395 -0.2935
    3TYR    SC2  369   6.748   0.868   1.091  0.2471 -0.0458 -0.2345
    3TYR    SC3  370   6.572   1.048   1.189 -0.0142 -0.3357 -0.1502
    1TYR     BB  371   1.297   3.599   4.704  0.4452  0.2323 -0.1927
    1TYR    SC1  372   1.324   3.347   4.890 -0.3222 -0.0215  0.0085
    1TYR    SC2  373   1.283   3.082   4.920 -0.0726 -0.0901 -0.2124
    1TYR    SC3  374   1.278   3.244   5.135  0.0559 -0.3169 -0.0325
    2GLN     BB  375   1.426   3.600   4.483  0.1556  0.1829  0.0699
    2GLN    SC1  376   1.726   3.376   4.391  0.4979  0.0953  0.0959
    3TYR     BB  377   1.498   3.830   4.251 -0.0286 -0.3423 -0.3076
    3TYR    SC1  378   1.649   3.774   4.002 -0.3203  0.0744 -0.2357
    3TYR    SC2  379   1.873   3.638   3.940 -0.0729  0.3131  0.0888
    3TYR    SC3  380   1.764   3.807   3.760  0.1427  0.3685  0.0062
    1TYR     BB  381   1.550   3.111   3.864  0.1120 -0.3947  0.0569
    1TYR    SC1  382   1.398   2.903   3.868 -0.1725 -0.0062 -0.3569
    1TYR    SC2  383   1.228   2.734   3.991 -0.0333  0.1744  0.1119
    1TYR    SC3  384   1.411   2.639   3.817 -0.1011 -0.1250  0.1973
    2GLN     BB  385   1.833   3.210   3.786  0.3825 -0.0824  0.1662
    2GLN    SC1  386   2.074   3.204   4.073 -0.1182  0.0263 -0.1520
    3TYR     BB  387   1.894   3.314   3.575 -0.0754 -0.0941  0.0951
    3TYR    SC1  388   2.086   3.510   3.522  0.2442  0.1439 -0.1495
    3TYR    SC2  389   2.152   3.734   3.385  0.0345  0.2353 -0.1057
    3TYR    SC3  390   2.332   3.535   3.413  0.1861  0.3502 -0.2410
    1TYR     BB  391   0.515   4.104   5.115 -0.0702  0.1125  0.1310
    1TYR    SC1  392   0.366   3.849   5.131 -0.2242  0.1500  0.0147
    1TYR    SC2  393   0.152   3.707   5.049 -0.1084 -0.1419  0.1972
    1TYR    SC3  394   0.381   3.580   5.114  0.1889  0.1752 -0.1697
    2GLN     BB  395   0.710   4.052   5.345 -0.0654 -0.2448 -0.2285
    2GLN    SC1  396   0.472   4.209   5.658 -0.0320 -0.1419  0.1257
    3TYR     BB  397   0.961   4.093   5.490 -0.1738  0.0540 -0.0974
    3TYR    SC1  398   1.200   4.298   5.417 -0.1800 -0.1544 -0.1255
    3TYR    SC2  399   1.412   4.456   5.360 -0.1753 -0.0451  0.1739
    3TYR    SC3  400   1.249   4.518   5.566 -0.3737 -0.2484  0.0832
    1TYR     BB  401   0.704   6.491   1.728  0.2326  0.1072  0.0448
    1TYR    SC1  402   0.444   6.428   1.829 -0.0508  0.1160 -0.1726
    1TYR    SC2  403   0.190   6.335   1.830 -0.0620  0.1432  0.0682
    1TYR    SC3  404   0.259   6.542   1.990  0.0051  0.4416 -0.3288
    2GLN     BB  405   0.836   6.781   1.598 -0.1917  0.1034 -0.2398
    2GLN    SC1  406   0.698   7.130   1.709 -0.0713 -0.0862 -0.1347
    3TYR     BB  407   1.164   6.861   1.580 -0.6309 -0.2521  0.0957
    3TYR    SC1  408   1.212   7.147   1.573 -0.2318  0.0008  0.0506
    3TYR    SC2  409   1.163   7.412   1.578 -0.0454  0.0381 -0.0233
    3TYR    SC3  410   1.397   7.320   1.481 -0.1793 -0.1646 -0.1627
    1TYR     BB  411   6.323   6.529   0.874  0.5187  0.1213 -0.1073
    1TYR    SC1  412   6.371   6.250   0.934  0.1771  0.1668 -0.0270
    1TYR    SC2  413   6.576   6.075   0.925  0.0089 -0.0340 -0.0518
    1TYR    SC3  414   6.326   5.987   0.977 -0.0804  0.2001 -0.0714
    2GLN     BB  415   6.349   6.733   1.071 -0.1282 -0.0848 -0.0027
    2GLN    SC1  416   5.973   6.805   1.043  0.0572  0.1711  0.0599
    3TYR     BB  417   6.387   6.891   1.279 -0.1200 -0.2474  0.0054
    3TYR    SC1  418   6.146   6.870   1.508 -0.1951 -0.0906  0.0726
    3TYR    SC2  419   6.025   6.737   1.710 -0.1121  0.1178  0.2648
    3TYR    SC3  420   5.899   6.943   1.589 -0.1571  0.0005  0.1083
    1TYR     BB  421   2.099   3.169   3.136 -0.1032  0.0817 -0.1719
    1TYR    SC1  422   2.116   3.112   2.831 -0.1117 -0.2174  0.0416
    1TYR    SC2  423   2.079   3.096   2.564 -0.2811  0.1910  0.0309
    1TYR    SC3  424   2.295   2.979   2.677 -0.2969 -0.1374 -0.2540
    2GLN     BB  425   1.953   2.908   3.251 -0.0764 -0.1451 -0.0930
    2GLN    SC1  426   2.042   2.630   2.982 -0.1369  0.3530 -0.0930
    3TYR     BB  427   1.697   2.877   3.391  0.0706  0.1506  0.0668
    3TYR    SC1  428   1.397   2.763   3.321 -0.3583  0.1960  0.4818
    3TYR    SC2  429   1.196   2.585   3.293 -0.1798  0.0431  0.0772
    3TYR    SC3  430   1.179   2.826   3.173  0.1248 -0.2045 -0.5157
    1TYR     BB  431   0.797   3.849   3.309 -0.0489 -0.0964  0.0686
    1TYR    SC1  432   0.815   3.672   3.531 -0.0383  0.0358 -0.0906
    1TYR    SC2  433   0.803   3.406   3.486 -0.0364 -0.0153  0.1924
    1TYR    SC3  434   0.758   3.504   3.734 -0.3647  0.2762  0.0281
    2GLN     BB  435   1.001   4.143   3.349  0.2686  0.0880 -0.2955
    2GLN    SC1  436   0.700   4.272   3.577 -0.3829  0.0545  0.2785
    3TYR     BB  437   1.164   4.402   3.517 -0.4629  0.2560 -0.4021
    3TYR    SC1  438   1.445   4.315   3.705  0.0553  0.2055 -0.2942
    3TYR    SC2  439   1.578   4.201   3.910 -0.2411 -0.2432 -0.3346
    3TYR    SC3  440   1.715   4.318   3.709  0.0608 -0.0854 -0.0495
    1TYR     BB  441   5.496   6.721   0.753  0.0738 -0.1876 -0.1899
    1TYR    SC1  442   5.712   6.835   0.567  0.1877  0.0706  0.0867
    1TYR    SC2  443   5.885   7.004   0.448 -0.0212  0.0796 -0.2193
    1TYR    SC3  444   5.946   6.742   0.471  0.1545  0.1316 -0.0554
    2GLN     BB  445   5.269   6.734   0.728  0.0106  0.1385 -0.3887
    2GLN    SC1  446   5.035   6.809   0.432  0.1108  0.0654 -0.2349
    3TYR     BB  447   5.112   6.832   1.011 -0.3443  0.1116  0.2489
    3TYR    SC1  448   4.851   6.854   1.091  0.1350 -0.1423  0.1873
    3TYR    SC2  449   4.703   6.974   1.282 -0.1079 -0.0498 -0.0515
    3TYR    SC3  450   4.656   6.716   1.217 -0.2973  0.0304 -0.2510
    1TYR     BB  451   1.059   5.073   4.003 -0.2387 -0.1431  0.1720
    1TYR    SC1  452   0.755   4.987   3.943 -0.1048  0.0950 -0.3490
    1TYR    SC2  453   0.579   4.783   3.928 -0.0583  0.0375 -0.1482
    1TYR    SC3  454   0.535   4.987   4.099  0.0676  0.0240 -0.0981
    2GLN     BB  455   1.174   4.955   3.704 -0.2222  0.0951 -0.0048
    2GLN    SC1  456   0.895   4.821   3.469 -0.1940  0.0027  0.1617
    3TYR     BB  457   1.423   4.886   3.738 -0.0407  0.0919 -0.1556
    3TYR    SC1  458   1.562   4.731   3.971 -0.3220  0.0207  0.3397
    3TYR    SC2  459   1.766   4.619   4.108 -0.1049 -0.1040 -0.0643
    3TYR    SC3  460   1.617   4.812   4.222  0.1613 -0.0916  0.2841
    1TYR     BB  461   1.894   4.623   4.575  0.1776  0.1552 -0.0880
    1TYR    SC1  462   2.024   4.376   4.749 -0.1176  0.0044 -0.1779
    1TYR    SC2  463   2.038   4.221   4.969 -0.1238 -0.1392 -0.2773
    1TYR    SC3  464   2.177   4.153   4.747  0.1432  0.1777 -0.2157
    2GLN     BB  465   1.879   4.866   4.684  0.1745 -0.0118 -0.2061
    2GLN    SC1  466   1.689   4.953   5.017  0.0124  0.0185 -0.2771
    3TYR     BB  467   1.862   5.221   4.646 -0.0489 -0.0260  0.0746
    3TYR    SC1  468   1.599   5.274   4.482  0.1163  0.1946 -0.0298
    3TYR    SC2  469   1.379   5.228   4.332  0.0681 -0.0616  0.1131
    3TYR    SC3  470   1.402   5.459   4.470 -0.0404  0.0311 -0.0205
    1TYR     BB  471   7.038   5.908   0.868 -0.0131  0.0105 -0.2592
    1TYR    SC1  472   7.151   5.792   1.181  0.0360  0.0167 -0.0229
    1TYR    SC2  473   7.258   5.646   1.382 -0.0033  0.0155 -0.0028
    1TYR    SC3  474   6.991   5.685   1.371  0.0172  0.1830  0.0569
    2GLN     BB  475   7.226   5.911   0.680 -0.0903  0.2101  0.1623
    2GLN    SC1  476   7.202   6.308   0.639  0.0464  0.2991 -0.0784
    3TYR     BB  477   7.425   5.752   0.487  0.1335  0.0692 -0.3385
    3TYR    SC1  478   7.405   5.588   0.212 -0.2557 -0.1098  0.1602
    3TYR    SC2  479   7.284   5.584  -0.030  0.0991 -0.0265 -0.0273
    3TYR    SC3  480   7.439   5.376   0.047  0.0302 -0.0289  0.1083
    1TYR     BB  481   0.017   7.166   1.456 -0.1015  0.0804 -0.0972
    1TYR    SC1  482  -0.283   7.129   1.314  0.0329 -0.1106  0.0260
    1TYR    SC2  483  -0.538   7.196   1.368  0.0075 -0.1683 -0.0211
    1TYR    SC3  484  -0.485   7.008   1.182  0.0918  0.0024 -0.1730
    2GLN     BB  485   0.236   7.223   1.232 -0.1369  0.2287 -0.3929
    2GLN    SC1  486   0.448   7.536   1.435  0.2334 -0.0778  0.0668
    3TYR     BB  487   0.487   7.000   1.315 -0.0045  0.0232 -0.0729
    3TYR    SC1  488   0.363   6.763   1.453 -0.2928  0.0450  0.0933
    3TYR    SC2  489   0.123   6.712   1.565 -0.1021 -0.2734  0.3827
    3TYR    SC3  490   0.243   6.524   1.413 -0.2994  0.1049 -0.2921
    1TYR     BB  491   6.464   6.460   1.564  0.0893 -0.1273  0.0828
    1TYR    SC1  492   6.452   6.631   1.811  0.0833  0.2661 -0.0282
    1TYR    SC2  493   6.410   6.728   2.060  0.2903  0.2309  0.0227
    1TYR    SC3  494   6.432   6.898   1.851 -0.1512  0.2503 -0.0204
    2GLN     BB  495   6.266   6.295   1.381  0.1185 -0.1381  0.0390
    2GLN    SC1  496   6.295   5.995   1.576 -0.0397  0.0053  0.1871
    3TYR     BB  497   5.988   6.399   1.348  0.0447 -0.1727  0.0966
    3TYR    SC1  498   5.803   6.236   1.510  0.1330  0.0608  0.0215
    3TYR    SC2  499   5.626   6.122   1.679  0.1431 -0.0630 -0.0497
    3TYR    SC3  500   5.790   5.967   1.531  0.2173  0.0477 -0.0847
    1TYR     BB  501   2.877   7.320   1.405  0.0016 -0.1677 -0.1054
    1TYR    SC1  502   2.751   7.548   1.552 -0.0423 -0.1749  0.1864
    1TYR    SC2  503   2.515   7.523   1.681 -0.2220  0.0848 -0.0761
    1TYR    SC3  504   2.573   7.751   1.548  0.2395  0.0796  0.0941
    2GLN     BB  505   3.200   7.426   1.247 -0.1798  0.1170 -0.2574
    2GLN    SC1  506   3.291   7.631   1.546 -0.0867 -0.1128  0.0603
    3TYR     BB  507   3.445   7.234   1.092  0.2853  0.2138 -0.1334
    3TYR    SC1  508   3.707   7.254   1.245  0.2200 -0.2289  0.1629
    3TYR    SC2  509   3.945   7.139   1.303  0.2196 -0.1059  0.4257
    3TYR    SC3  510   3.882   7.380   1.409 -0.0180 -0.1318  0.3501
    1TYR     BB  511   5.408   6.192   0.763 -0.1775  0.2257 -0.1677
    1TYR    SC1  512   5.458   6.010   0.538  0.0036 -0.0359 -0.0761
    1TYR    SC2  513   5.655   5.982   0.356  0.2145 -0.0536  0.1483
    1TYR    SC3  514   5.544   5.764   0.469  0.1403 -0.0406  0.1012
    2GLN     BB  515   5.128   6.255   0.799  0.1139 -0.2391  0.0756
    2GLN    SC1  516   5.090   6.295   0.402 -0.1544 -0.4785 -0.2641
    3TYR     BB  517   4.965   6.361   0.910  0.3014 -0.1413  0.2119
    3TYR    SC1  518   4.733   6.513   0.742  0.2175  0.4953 -0.2763
    3TYR    SC2  519   4.488   6.621   0.781 -0.0157 -0.0750 -0.0149
    3TYR    SC3  520   4.609   6.643   0.541 -0.2085  0.4127 -0.0817
    1TYR     BB  521   0.544   7.099   7.265 -0.0314  0.0732 -0.1762
    1TYR    SC1  522   0.663   6.875   7.133  0.4610 -0.0118 -0.0558
    1TYR    SC2  523   0.500   6.662   7.101 -0.2015  0.4623 -0.1066
    1TYR    SC3  524   0.749   6.658   6.997 -0.0845 -0.3598  0.1118
    2GLN     BB  525   0.368   7.086   7.491  0.0368  0.0772 -0.0397
    2GLN    SC1  526   0.582   7.194   7.761 -0.1270 -0.1657 -0.0052
    3TYR     BB  527   0.153   6.942   7.590  0.0875 -0.0836 -0.0783
    3TYR    SC1  528   0.242   6.761   7.786 -0.0167 -0.1631 -0.0861
    3TYR    SC2  529   0.476   6.630   7.813 -0.1059 -0.3288 -0.0979
    3TYR    SC3  530   0.252   6.529   7.924 -0.1886 -0.2169 -0.1608
    1TYR     BB  531   0.644   0.145   0.264 -0.1360  0.0266  0.0734
    1TYR    SC1  532   0.352   0.003   0.223 -0.1997  0.0289  0.0554
    1TYR    SC2  533   0.110  -0.056   0.327 -0.2251 -0.1940 -0.1185
    1TYR    SC3  534   0.192  -0.176   0.100  0.0084 -0.0436 -0.1187
    2GLN     BB  535   0.747   0.145  -0.006  0.0256 -0.0741 -0.1919
    2GLN    SC1  536   1.110   0.317  -0.057 -0.0486  0.1620  0.1016
    3TYR     BB  537   0.666  -0.030  -0.218  0.1430 -0.1694  0.2601
    3TYR    SC1  538   0.383   0.002  -0.308 -0.0350  0.2002 -0.0088
    3TYR    SC2  539   0.117   0.049  -0.329 -0.0131  0.1733 -0.4575
    3TYR    SC3  540   0.235  -0.138  -0.485  0.1898 -0.2068  0.1102
    1TYR     BB  541   5.200   6.844   1.509 -0.0069  0.1348  0.2360
    1TYR    SC1  542   5.030   6.583   1.495  0.3075 -0.0035 -0.0330
    1TYR    SC2  543   4.951   6.337   1.417  0.0875  0.0825 -0.0898
    1TYR    SC3  544   5.044   6.376   1.668 -0.1759 -0.0008  0.0262
    2GLN     BB  545   5.441   6.631   1.299 -0.0766 -0.0488 -0.1256
    2GLN    SC1  546   5.564   6.970   1.158 -0.0998 -0.2200 -0.4622
    3TYR     BB  547   5.485   6.399   1.194  0.0786 -0.0326 -0.2745
    3TYR    SC1  548   5.353   6.150   1.282 -0.0332 -0.1520 -0.0845
    3TYR    SC2  549   5.311   5.908   1.169 -0.1923 -0.0901 -0.1617
    3TYR    SC3  550   5.188   5.972   1.400 -0.1473 -0.0843 -0.1392
    1TYR     BB  551   1.143   4.715   5.060  0.1357 -0.0768  0.0592
    1TYR    SC1  552   1.147   5.019   4.984  0.3492 -0.0450  0.1218
    1TYR    SC2  553   1.257   5.196   4.812 -0.1641  0.1790  0.0009
    1TYR    SC3  554   1.264   5.244   5.078 -0.0185  0.2137 -0.0083
    2GLN     BB  555   0.855   4.613   4.955  0.0752 -0.1681 -0.1595
    2GLN    SC1  556   0.628   4.882   5.086 -0.0003 -0.1448  0.0140
    3TYR     BB  557   0.868   4.318   4.904 -0.2322  0.0046  0.0672
    3TYR    SC1  558   0.970   4.236   4.647 -0.0916 -0.1376  0.0330
    3TYR    SC2  559   1.025   4.182   4.389  0.2848  0.0702  0.0615
    3TYR    SC3  560   1.099   4.008   4.582  0.1774  0.0065  0.0463
    1TYR     BB  561   7.030   0.085   1.043  0.0690  0.0630  0.0343
    1TYR    SC1  562   7.285  -0.036   1.111  0.2226 -0.1656  0.0990
    1TYR    SC2  563   7.500  -0.156   1.001  0.1561 -0.0115 -0.2138
    1TYR    SC3  564   7.515  -0.054   1.250  0.3611 -0.2312 -0.1313
    2GLN     BB  565   6.753  -0.040   1.112 -0.0438 -0.0273  0.0379
    2GLN    SC1  566   6.615   0.274   1.318  0.2276 -0.0184  0.0742
    3TYR     BB  567   6.471  -0.139   1.108 -0.0737 -0.1132 -0.0141
    3TYR    SC1  568   6.248  -0.243   1.259  0.0278 -0.0505  0.0975
    3TYR    SC2  569   6.086  -0.298   1.468  0.1821 -0.0820  0.2105
    3TYR    SC3  570   6.019  -0.382   1.221  0.0876 -0.2039  0.2759
    1TYR     BB  571   0.017   4.184   4.969  0.1494 -0.0163 -0.3297
    1TYR    SC1  572  -0.123   4.334   5.177  0.5036 -0.0744  0.0352
    1TYR    SC2  573  -0.181   4.597   5.189 -0.1181 -0.1968  0.1862
    1TYR    SC3  574  -0.271   4.431   5.381  0.3039 -0.5245  0.1190
    2GLN     BB  575  -0.102   4.240   4.703  0.1499 -0.1969 -0.0287
    2GLN    SC1  576  -0.404   4.481   4.652  0.2214  0.2910 -0.0673
    3TYR     BB  577   0.034   4.153   4.485 -0.1026 -0.1005  0.0954
    3TYR    SC1  578   0.319   4.018   4.560 -0.1132 -0.1077 -0.0781
    3TYR    SC2  579   0.423   3.786   4.653  0.0053 -0.0768 -0.1312
    3TYR    SC3  580   0.586   3.976   4.551 -0.0664  0.1230  0.1130
    1TYR     BB  581   7.569   6.489   7.475 -0.1587  0.1703  0.1596
    1TYR    SC1  582   7.866   6.399   7.452 -0.0692 -0.3269 -0.0620
    1TYR    SC2  583   8.133   6.386   7.488 -0.0268  0.3517  0.0431
    1TYR    SC3  584   8.019   6.267   7.274  0.3176 -0.1223  0.1027
    2GLN     BB  585   7.500   6.647   7.198 -0.2682 -0.1937 -0.0930
    2GLN    SC1  586   7.173   6.503   7.117 -0.0121  0.1334  0.2538
    3TYR     BB  587   7.662   6.903   7.126  0.1929  0.1147  0.1150
    3TYR    SC1  588   7.585   7.167   7.244 -0.0405 -0.0274 -0.0381
    3TYR    SC2  589   7.421   7.378   7.204 -0.1272 -0.0752  0.0585
    3TYR    SC3  590   7.506   7.319   7.453 -0.0928 -0.1467  0.0300
    1TYR     BB  591   7.475   0.719   7.604 -0.0884 -0.0503 -0.4170
    1TYR    SC1  592   7.730   0.602   7.603  0.1177  0.2169  0.1709
    1TYR    SC2  593   7.906   0.498   7.427 -0.0472 -0.0814  0.1746
    1TYR    SC3  594   7.877   0.387   7.672 -0.1465  0.0458  0.2219
    2GLN     BB  595   7.585   1.053   7.499 -0.0902  0.1172  0.0169
    2GLN    SC1  596   7.974   1.024   7.405  0.2095 -0.2119  0.1632
    3TYR     BB  597   7.437   1.303   7.513  0.0482 -0.0018 -0.1108
    3TYR    SC1  598   7.731   1.516   7.418  0.2232  0.1227  0.3151
    3TYR    SC2  599   7.995   1.572   7.413  0.2262  0.1043 -0.0023
    3TYR    SC3  600   7.867   1.509   7.184 -0.0754  0.2077  0.1322
    1TYR     BB  601   2.604   3.171   3.195 -0.0084  0.0686  0.1144
    1TYR    SC1  602   2.494   2.885   3.144 -0.1368 -0.2430 -0.0623
    1TYR    SC2  603   2.435   2.661   3.283 -0.2033 -0.2494 -0.1002
    1TYR    SC3  604   2.622   2.654   3.089  0.0931 -0.1765  0.1734
    2GLN     BB  605   2.597   3.378   2.969  0.1534 -0.0769  0.0304
    2GLN    SC1  606   2.832   3.154   2.720  0.1800  0.2849  0.2142
    3TYR     BB  607   2.362   3.523   2.830  0.2017  0.1632 -0.0264
    3TYR    SC1  608   2.497   3.738   2.669  0.2150  0.0350  0.0437
    3TYR    SC2  609   2.676   3.841   2.495  0.1121 -0.0943 -0.1425
    3TYR    SC3  610   2.550   4.003   2.671  0.1439  0.0561 -0.2551
    1TYR     BB  611   2.775   6.279   0.625 -0.0912  0.2269  0.2203
    1TYR    SC1  612   2.993   6.249   0.409  0.1017 -0.2390  0.2144
    1TYR    SC2  613   3.249   6.181   0.358  0.3231  0.5315  0.1501
    1TYR    SC3  614   3.062   6.159   0.164  0.4134  0.3026  0.0844
    2GLN     BB  615   2.458   6.231   0.501 -0.0820 -0.2044 -0.0175
    2GLN    SC1  616   2.623   5.900   0.336 -0.2697 -0.0492 -0.1199
    3TYR     BB  617   2.309   6.419   0.335 -0.0251 -0.1189  0.1524
    3TYR    SC1  618   2.315   6.734   0.412  0.1363  0.1888 -0.0557
    3TYR    SC2  619   2.431   6.946   0.533 -0.5161  0.3366  0.3819
    3TYR    SC3  620   2.203   6.979   0.392 -0.2369  0.0179 -0.1927
    1TYR     BB  621   1.730   3.582   3.159 -0.0758 -0.1257  0.0172
    1TYR    SC1  622   1.665   3.350   3.015  0.0071 -0.0828 -0.3161
    1TYR    SC2  623   1.437   3.205   3.003 -0.0592 -0.0635  0.3055
    1TYR    SC3  624   1.646   3.141   2.845 -0.3773 -0.2823 -0.0480
    2GLN     BB  625   1.881   3.783   2.940  0.0640  0.4157 -0.0629
    2GLN    SC1  626   1.609   3.902   2.669 -0.0649 -0.1514  0.0308
    3TYR     BB  627   2.106   3.928   2.914 -0.1777 -0.2798 -0.1143
    3TYR    SC1  628   2.150   4.223   2.988  0.3018  0.3786 -0.1449
    3TYR    SC2  629   2.086   4.478   2.929  0.0551  0.3788  0.1018
    3TYR    SC3  630   2.237   4.424   3.146 -0.0161  0.3076  0.1343
    1TYR     BB  631   4.771   5.936   1.175  0.0276 -0.2289 -0.0121
    1TYR    SC1  632   4.536   6.177   1.234 -0.2567 -0.1581  0.0352
    1TYR    SC2  633   4.401   6.351   1.078 -0.0994 -0.0407  0.0274
    1TYR    SC3  634   4.347   6.336   1.342  0.0672  0.2148  0.0809
    2GLN     BB  635   4.686   5.687   1.085 -0.1615  0.1560 -0.2931
    2GLN    SC1  636   4.458   5.691   1.401 -0.3510  0.1965  0.0200
    3TYR     BB  637   4.729   5.456   0.973 -0.1633  0.0431 -0.1457
    3TYR    SC1  638   4.683   5.397   0.690  0.0191 -0.1416 -0.0366
    3TYR    SC2  639   4.788   5.483   0.456  0.3265 -0.2116  0.0691
    3TYR    SC3  640   4.542   5.566   0.533  0.2751 -0.0861 -0.2147
    1TYR     BB  641   7.377   6.189   0.241 -0.1168  0.0056 -0.0793
    1TYR    SC1  642   7.089   6.373   0.168  0.0636  0.1406 -0.0861
    1TYR    SC2  643   6.889   6.547   0.225  0.0641  0.0487  0.2209
    1TYR    SC3  644   6.939   6.476  -0.031 -0.2417  0.1370  0.1323
    2GLN     BB  645   7.526   6.065   0.062 -0.3441 -0.2535 -0.2989
    2GLN    SC1  646   7.258   6.093  -0.225 -0.3488 -0.0823 -0.2587
    3TYR     BB  647   7.726   5.905  -0.074 -0.2534 -0.1807 -0.0559
    3TYR    SC1  648   7.689   5.678  -0.197  0.2928  0.3065 -0.2930
    3TYR    SC2  649   7.522   5.569  -0.379  0.1744 -0.3266  0.1524
    3TYR    SC3  650   7.758   5.450  -0.324  0.2573 -0.0875  0.3388
    1TYR     BB  651   0.877   3.257   4.656  0.0980  0.1948 -0.2023
    1TYR    SC1  652   1.080   3.203   4.453 -0.1033 -0.1111  0.2041
    1TYR    SC2  653   1.143   3.122   4.203 -0.0547  0.2568  0.0888
    1TYR    SC3  654   1.306   3.062   4.410 -0.1627 -0.1650  0.0630
    2GLN     BB  655   0.837   3.493   4.929 -0.4469  0.3156  0.0209
    2GLN    SC1  656   0.670   3.197   5.120 -0.0410 -0.3158  0.1754
    3TYR     BB  657   0.851   3.787   4.957  0.0698 -0.3196  0.0646
    3TYR    SC1  658   1.102   3.874   5.101  0.0417  0.0702  0.0703
    3TYR    SC2  659   1.356   3.801   5.157  0.0500  0.0030 -0.0489
    3TYR    SC3  660   1.301   4.055   5.081  0.0364  0.0998  0.2673
    1TYR     BB  661   7.526   0.353   0.920  0.0420  0.0245  0.1250
    1TYR    SC1  662   7.633   0.394   0.641  0.0101 -0.0017  0.0262
    1TYR    SC2  663   7.623   0.439   0.375 -0.2010  0.1970  0.0638
    1TYR    SC3  664   7.861   0.398   0.497 -0.1013  0.1198 -0.1510
    2GLN     BB  665   7.368   0.611   1.068  0.0835 -0.2438  0.1640
    2GLN    SC1  666   7.162   0.458   1.305 -0.2979 -0.2748  0.0271
    3TYR     BB  667   7.225   0.883   1.001  0.0279 -0.0483  0.0274
    3TYR    SC1  668   7.343   1.151   0.869  0.0878  0.0654 -0.1916
    3TYR    SC2  669   7.498   1.284   0.692  0.0769  0.2300 -0.0805
    3TYR    SC3  670   7.351   1.421   0.872 -0.0650  0.0702 -0.0712
    1TYR     BB  671   0.628   6.414   1.144 -0.1039  0.2001 -0.0632
    1TYR    SC1  672   0.830   6.628   1.073  0.1462  0.0212  0.0265
    1TYR    SC2  673   0.909   6.882   1.121  0.0889  0.0940 -0.2432
    1TYR    SC3  674   1.074   6.711   0.993  0.0728  0.0375 -0.1892
    2GLN     BB  675   0.533   6.168   1.001 -0.3106  0.1012 -0.0116
    2GLN    SC1  676   0.520   6.338   0.671 -0.2865  0.0639  0.2647
    3TYR     BB  677   0.473   5.912   0.930  0.0832  0.2225  0.0642
    3TYR    SC1  678   0.205   5.821   1.022 -0.0261 -0.1635  0.2955
    3TYR    SC2  679   0.019   5.761   1.207 -0.3460  0.0448  0.0553
    3TYR    SC3  680  -0.032   5.717   0.945 -0.2705  0.5661 -0.0602
    1TYR     BB  681   0.531   5.291   0.500  0.0621 -0.1991 -0.1908
    1TYR    SC1  682   0.240   5.170   0.472  0.2223 -0.0988 -0.1138
    1TYR    SC2  683   0.017   5.321   0.490  0.2330 -0.0653 -0.2542
    1TYR    SC3  684   0.024   5.110   0.321  0.1776 -0.2959  0.0223
    2GLN     BB  685   0.728   5.554   0.566  0.0855 -0.1005 -0.2522
    2GLN    SC1  686   0.755   5.423   0.911 -0.2655 -0.1730 -0.3766
    3TYR     BB  687   0.740   5.799   0.476 -0.1119  0.0366 -0.2079
    3TYR    SC1  688   0.873   6.016   0.660 -0.0108 -0.0833  0.3089
    3TYR    SC2  689   1.065   5.956   0.841  0.0512 -0.0028  0.2709
    3TYR    SC3  690   1.034   6.211   0.757  0.1221 -0.0625  0.0567
    1TYR     BB  691   1.903   5.026   1.552  0.4679 -0.1325 -0.2191
    1TYR    SC1  692   1.744   5.279   1.567  0.0349 -0.2638  0.3162
    1TYR    SC2  693   1.533   5.444   1.530  0.0027 -0.3964 -0.1692
    1TYR    SC3  694   1.776   5.547   1.587 -0.0891 -0.2094 -0.1052
    2GLN     BB  695   2.233   5.080   1.700  0.0151  0.3359  0.2083
    2GLN    SC1  696   2.428   4.822   1.441  0.3226 -0.0030 -0.0751
    3TYR     BB  697   2.330   5.373   1.599  0.0160 -0.1493  0.0438
    3TYR    SC1  698   2.164   5.535   1.376 -0.0390  0.2912 -0.1962
    3TYR    SC2  699   1.988   5.695   1.247 -0.3564 -0.0262 -0.1751
    3TYR    SC3  700   1.972   5.426   1.220  0.1327 -0.0675 -0.1703
    1TYR     BB  701   0.813   4.912   1.712  0.1829 -0.2127  0.1504
    1TYR    SC1  702   0.965   5.073   1.504  0.2628  0.3490 -0.0464
    1TYR    SC2  703   1.155   5.221   1.381  0.3399  0.2446 -0.0551
    1TYR    SC3  704   0.926   5.159   1.251  0.3271  0.3168 -0.0676
    2GLN     BB  705   0.865   4.942   1.990 -0.0706  0.0675 -0.0948
    2GLN    SC1  706   0.642   4.637   2.099  0.1260 -0.0701  0.2730
    3TYR     BB  707   0.921   5.103   2.216  0.0938  0.1103  0.3850
    3TYR    SC1  708   0.820   5.277   2.410  0.0720 -0.1264 -0.0464
    3TYR    SC2  709   0.625   5.415   2.535  0.1021 -0.0075 -0.1284
    3TYR    SC3  710   0.827   5.307   2.678  0.0185 -0.0640 -0.0517
    1TYR     BB  711   0.298   3.634   4.212  0.1440  0.3405 -0.2000
    1TYR    SC1  712   0.058   3.784   4.101 -0.0415 -0.3015  0.3250
    1TYR    SC2  713  -0.130   3.760   3.909  0.1502  0.4042  0.0059
    1TYR    SC3  714  -0.195   3.868   4.148 -0.0554 -0.3425  0.3237
    2GLN     BB  715   0.602   3.569   4.198  0.1883 -0.0280 -0.4642
    2GLN    SC1  716   0.614   3.199   4.173 -0.0780  0.1296  0.3116
    3TYR     BB  717   0.932   3.633   4.273 -0.2297 -0.3040  0.3058
    3TYR    SC1  718   0.978   3.882   4.101 -0.2410  0.0914 -0.1069
    3TYR    SC2  719   0.927   3.952   3.845 -0.0021  0.5416 -0.0439
    3TYR    SC3  720   1.135   4.063   3.976 -0.0740  0.2621  0.3278
    1TYR     BB  721   1.176   0.592   0.842 -0.1731 -0.4055 -0.2265
    1TYR    SC1  722   0.984   0.631   0.616 -0.2599  0.1198  0.1020
    1TYR    SC2  723   0.863   0.844   0.501  0.0251  0.0526 -0.3544
    1TYR    SC3  724   0.775   0.594   0.449  0.0102  0.0316 -0.2319
    2GLN     BB  725   1.452   0.475   0.711 -0.0168  0.0678 -0.1089
    2GLN    SC1  726   1.344   0.441   0.349 -0.2700  0.1683 -0.0038
    3TYR     BB  727   1.676   0.376   0.855 -0.1694  0.0811  0.1702
    3TYR    SC1  728   1.625   0.064   0.836  0.2277 -0.0194  0.2365
    3TYR    SC2  729   1.634  -0.199   0.897  0.0070 -0.0464  0.1616
    3TYR    SC3  730   1.497  -0.115   0.679 -0.0561  0.1444  0.2722
    1TYR     BB  731   5.990   0.126   7.082 -0.1672  0.0078 -0.0796
    1TYR    SC1  732   5.771  -0.056   7.152 -0.1311  0.2018 -0.0036
    1TYR    SC2  733   5.522  -0.075   7.255 -0.2440  0.1025 -0.2818
    1TYR    SC3  734   5.598  -0.238   7.053  0.1113  0.0061 -0.0818
    2GLN     BB  735   6.118   0.383   6.974 -0.0584 -0.1594  0.0795
    2GLN    SC1  736   5.802   0.646   6.896  0.2198  0.2296  0.0218
    3TYR     BB  737   6.353   0.496   6.999  0.0460 -0.0186  0.2368
    3TYR    SC1  738   6.525   0.681   7.150  0.2675  0.2192 -0.0242
    3TYR    SC2  739   6.524   0.825   7.379  0.3497  0.2068 -0.0154
    3TYR    SC3  740   6.713   0.871   7.192  0.2509  0.2542 -0.1055
    1TYR     BB  741   1.893   6.646   0.725  0.1018 -0.0725 -0.1016
    1TYR    SC1  742   1.858   6.654   0.397  0.2121  0.2795 -0.2102
    1TYR    SC2  743   1.777   6.831   0.210 -0.0820  0.1046 -0.2575
    1TYR    SC3  744   1.762   6.566   0.160 -0.2777  0.0515  0.0524
    2GLN     BB  745   2.063   6.420   0.810 -0.2215  0.2087 -0.0465
    2GLN    SC1  746   2.343   6.637   0.857 -0.0619  0.0191  0.0340
    3TYR     BB  747   2.048   6.137   0.831  0.0263 -0.4030 -0.1224
    3TYR    SC1  748   2.252   5.932   0.852 -0.1487 -0.1766  0.1895
    3TYR    SC2  749   2.356   5.717   0.978  0.2429  0.0755  0.3195
    3TYR    SC3  750   2.511   5.866   0.815 -0.1250  0.0453 -0.0790
    1TYR     BB  751   0.425   4.438   4.761 -0.0534  0.1072  0.1262
    1TYR    SC1  752   0.239   4.647   4.842  0.1292  0.1007 -0.4229
    1TYR    SC2  753   0.191   4.907   4.898  0.1350  0.0802 -0.3204
    1TYR    SC3  754   0.001   4.757   4.777  0.1320  0.1321 -0.3806
    2GLN     BB  755   0.540   4.518   4.494 -0.0960  0.0457  0.1871
    2GLN    SC1  756   0.226   4.590   4.303 -0.0664  0.0492  0.2542
    3TYR     BB  757   0.738   4.607   4.402  0.1111 -0.0789 -0.4186
    3TYR    SC1  758   0.924   4.587   4.178 -0.2678 -0.0217  0.0255
    3TYR    SC2  759   0.915   4.517   3.917  0.2251 -0.1037  0.0175
    3TYR    SC3  760   1.150   4.512   4.050  0.0040  0.0493  0.4388
    1TYR     BB  761   1.303   5.978   0.376 -0.0968  0.2288  0.2611
    1TYR    SC1  762   1.655   6.034   0.293  0.0264  0.4882  0.1248
    1TYR    SC2  763   1.840   6.154   0.448  0.1272  0.1459  0.2800
    1TYR    SC3  764   1.878   6.137   0.182  0.1153  0.4400  0.2559
    2GLN     BB  765   1.268   5.718   0.497  0.1069  0.1275 -0.2619
    2GLN    SC1  766   1.310   5.502   0.187  0.0350 -0.1108 -0.3010
    3TYR     BB  767   1.203   5.517   0.673 -0.1858 -0.0614  0.2477
    3TYR    SC1  768   1.131   5.221   0.587  0.2043  0.0073 -0.2933
    3TYR    SC2  769   1.245   4.977   0.572 -0.1304 -0.2004  0.1982
    3TYR    SC3  770   0.977   4.999   0.590 -0.1362  0.2352 -0.1927
    1TYR     BB  771   2.300   4.598   3.943 -0.1427  0.1360 -0.0650
    1TYR    SC1  772   2.320   4.473   4.205  0.3221  0.2671 -0.0315
    1TYR    SC2  773   2.435   4.260   4.324  0.2839  0.1322 -0.2297
    1TYR    SC3  774   2.408   4.492   4.459 -0.0485 -0.1052  0.1395
    2GLN     BB  775   2.261   4.490   3.661  0.3049  0.2397 -0.2928
    2GLN    SC1  776   2.576   4.563   3.457 -0.3225  0.0231  0.0367
    3TYR     BB  777   2.251   4.154   3.642 -0.0920  0.0177 -0.1612
    3TYR    SC1  778   2.322   4.006   3.908  0.1144 -0.1695 -0.2556
    3TYR    SC2  779   2.309   3.736   3.924  0.2001 -0.1653 -0.0840
    3TYR    SC3  780   2.474   3.873   4.088 -0.1016  0.0183  0.0780
    1TYR     BB  781   2.493   6.212   1.174  0.1718 -0.0890 -0.1855
    1TYR    SC1  782   2.673   6.452   1.179 -0.3958 -0.0577  0.5362
    1TYR    SC2  783   2.871   6.531   1.346 -0.2105 -0.0550  0.3208
    1TYR    SC3  784   2.696   6.712   1.247  0.0699  0.0603  0.0135
    2GLN     BB  785   2.426   5.962   1.427  0.0226 -0.1932  0.2989
    2GLN    SC1  786   2.674   5.618   1.389 -0.0458 -0.1160 -0.0133
    3TYR     BB  787   2.437   5.961   1.705  0.4207  0.0263  0.1035
    3TYR    SC1  788   2.641   5.839   1.863  0.1857 -0.3196 -0.2413
    3TYR    SC2  789   2.681   5.590   1.960  0.0398 -0.1922  0.1721
    3TYR    SC3  790   2.779   5.805   2.092  0.1153 -0.0202 -0.1484
    1TYR     BB  791   7.306   3.875   5.082  0.1848  0.0162  0.2045
    1TYR    SC1  792   7.119   4.089   5.150  0.1104  0.3156  0.2773
    1TYR    SC2  793   6.943   4.206   5.318 -0.2552 -0.1219  0.2253
    1TYR    SC3  794   6.946   4.274   5.057 -0.3139 -0.0793  0.2355
    2GLN     BB  795   7.394   3.787   4.710 -0.1872 -0.1908 -0.0010
    2GLN    SC1  796   7.065   4.022   4.592  0.1453 -0.0418  0.1353
    3TYR     BB  797   7.597   3.580   4.572  0.1160 -0.1660  0.0001
    3TYR    SC1  798   7.768   3.395   4.713  0.1031  0.2064 -0.1212
    3TYR    SC2  799   8.032   3.342   4.717  0.1373  0.3760  0.0591
    3TYR    SC3  800   7.861   3.185   4.854  0.0769 -0.0314 -0.4421
    1TYR     BB  801   6.291   0.952   0.187 -0.0260 -0.0614 -0.1055
    1TYR    SC1  802   6.395   1.195  -0.007 -0.2946  0.0653 -0.2769
    1TYR    SC2  803   6.554   1.286  -0.205  0.1525 -0.0334  0.0193
    1TYR    SC3  804   6.557   1.407   0.036 -0.3747  0.0773 -0.0147
    2GLN     BB  805   6.504   0.784   0.245 -0.4706 -0.0198  0.0583
    2GLN    SC1  806   6.359   0.766   0.630 -0.3488 -0.1657  0.0936
    3TYR     BB  807   6.661   0.509   0.245 -0.1697 -0.1091  0.2438
    3TYR    SC1  808   6.806   0.445   0.017 -0.2682 -0.0493 -0.0610
    3TYR    SC2  809   6.826   0.239  -0.156 -0.1729 -0.0115 -0.0957
    3TYR    SC3  810   6.818   0.493  -0.248 -0.1652  0.0066 -0.0469
    1TYR     BB  811   2.105   3.944   2.385 -0.0675  0.2888  0.2224
    1TYR    SC1  812   1.970   3.637   2.378 -0.1376  0.3842  0.0951
    1TYR    SC2  813   1.864   3.460   2.553 -0.1151  0.2171 -0.0555
    1TYR    SC3  814   1.830   3.424   2.288  0.1034  0.3014 -0.0983
    2GLN     BB  815   1.958   4.217   2.392  0.1485  0.1626 -0.0199
    2GLN    SC1  816   1.609   4.331   2.300  0.2310 -0.2744  0.1444
    3TYR     BB  817   2.041   4.510   2.476 -0.0996  0.0177 -0.1782
    3TYR    SC1  818   1.921   4.736   2.243 -0.1006  0.0566 -0.0103
    3TYR    SC2  819   1.873   4.891   2.028  0.0821 -0.1301 -0.1922
    3TYR    SC3  820   1.887   5.002   2.274  0.0534  0.1146 -0.2966
    1TYR     BB  821   1.633   6.331   2.202  0.2428 -0.1097  0.0197
    1TYR    SC1  822   1.877   6.548   2.210  0.1527 -0.0328 -0.0610
    1TYR    SC2  823   2.041   6.692   2.052  0.0426 -0.0628 -0.2054
    1TYR    SC3  824   2.017   6.754   2.313  0.2253 -0.0116 -0.1987
    2GLN     BB  825   1.770   6.084   2.333 -0.0035  0.1345 -0.0596
    2GLN    SC1  826   1.906   6.193   2.691 -0.1190  0.0953 -0.2369
    3TYR     BB  827   1.597   5.886   2.435  0.0886  0.3553 -0.0937
    3TYR    SC1  828   1.761   5.623   2.502  0.1416  0.0978  0.3259
    3TYR    SC2  829   1.763   5.353   2.506 -0.1279  0.0891  0.1937
    3TYR    SC3  830   1.992   5.490   2.460 -0.0306 -0.1223  0.0267
    1TYR     BB  831   0.559   0.454   0.827  0.0759 -0.1023 -0.0730
    1TYR    SC1  832   0.453   0.174   0.789  0.0393  0.3550  0.1217
    1TYR    SC2  833   0.246   0.014   0.721  0.2816  0.1846 -0.2553
    1TYR    SC3  834   0.387  -0.036   0.946 -0.0644  0.2908 -0.0054
    2GLN     BB  835   0.670   0.512   1.074 -0.2360 -0.1636  0.0845
    2GLN    SC1  836   0.773   0.189   1.178 -0.2560 -0.1401 -0.1009
    3TYR     BB  837   0.903   0.747   1.247  0.1366  0.0959 -0.0960
    3TYR    SC1  838   1.190   0.743   1.375 -0.0143  0.0537  0.2453
    3TYR    SC2  839   1.415   0.801   1.513 -0.0673 -0.2622  0.4776
    3TYR    SC3  840   1.388   0.560   1.393  0.0868  0.0816 -0.3319
    1TYR     BB  841   3.329   3.839   3.510  0.3116  0.4267  0.1050
    1TYR    SC1  842   3.199   3.834   3.232 -0.0196 -0.3580 -0.0997
    1TYR    SC2  843   3.189   4.007   3.024  0.1765 -0.1997  0.0188
    1TYR    SC3  844   2.966   3.875   3.101  0.0631 -0.1282 -0.1804
    2GLN     BB  845   3.056   3.834   3.697  0.1642  0.0094 -0.1002
    2GLN    SC1  846   3.264   3.978   3.970 -0.1316 -0.0291  0.0216
    3TYR     BB  847   2.765   3.851   3.676  0.0924  0.1759 -0.0121
    3TYR    SC1  848   2.608   3.856   3.395  0.2068 -0.1302 -0.1957
    3TYR    SC2  849   2.526   3.874   3.138  0.0092  0.2231 -0.1166
    3TYR    SC3  850   2.579   4.098   3.278  0.1937  0.0319  0.1308
    1TYR     BB  851   2.192   0.437   0.702  0.0203  0.0773 -0.1733
    1TYR    SC1  852   2.281   0.374   0.997  0.0160  0.2616  0.1484
    1TYR    SC2  853   2.477   0.232   1.117  0.0897 -0.0354 -0.2946
    1TYR    SC3  854   2.370   0.446   1.242  0.3108 -0.1889  0.1890
    2GLN     BB  855   2.095   0.125   0.592  0.1062 -0.0939 -0.1741
    2GLN    SC1  856   1.763   0.234   0.412  0.0620 -0.1048 -0.1235
    3TYR     BB  857   2.145  -0.116   0.499 -0.0434  0.2247 -0.0910
    3TYR    SC1  858   1.903  -0.335   0.446  0.0716 -0.0882 -0.0196
    3TYR    SC2  859   1.658  -0.399   0.351  0.0281 -0.1270  0.1166
    3TYR    SC3  860   1.760  -0.530   0.564  0.0849  0.0211  0.1828
    1TYR     BB  861   0.085   1.291   1.155  0.0788  0.1165  0.0163
    1TYR    SC1  862   0.141   1.025   0.979  0.4541 -0.0152 -0.1752
    1TYR    SC2  863   0.069   0.853   0.784 -0.0107 -0.0277 -0.0074
    1TYR    SC3  864   0.227   0.769   0.986 -0.2708 -0.2828  0.0989
    2GLN     BB  865  -0.091   1.318   1.357  0.2346 -0.0356 -0.0155
    2GLN    SC1  866   0.066   1.342   1.703 -0.0627  0.1202 -0.0281
    3TYR     BB  867  -0.397   1.284   1.353  0.1236  0.1977 -0.2389
    3TYR    SC1  868  -0.671   1.096   1.457 -0.1203 -0.2174 -0.2308
    3TYR    SC2  869  -0.870   1.015   1.622  0.1045 -0.0341  0.1488
    3TYR    SC3  870  -0.671   0.844   1.555 -0.1028 -0.1778 -0.1270
    1TYR     BB  871   2.007   3.747   4.475 -0.1001 -0.1615 -0.2527
    1TYR    SC1  872   2.054   3.965   4.307  0.0739  0.0384  0.0641
    1TYR    SC2  873   1.963   4.092   4.087 -0.2017  0.0040  0.1541
    1TYR    SC3  874   1.977   4.223   4.323 -0.0702 -0.0087  0.1542
    2GLN     BB  875   2.233   3.500   4.434  0.0420  0.2122 -0.1112
    2GLN    SC1  876   2.173   3.326   4.763  0.0697  0.0487  0.3584
    3TYR     BB  877   2.495   3.398   4.303 -0.1331 -0.0587  0.0616
    3TYR    SC1  878   2.763   3.517   4.310  0.0719 -0.0381 -0.1579
    3TYR    SC2  879   2.920   3.649   4.133  0.1556 -0.2939 -0.2820
    3TYR    SC3  880   3.032   3.511   4.337  0.0612 -0.0339 -0.0457
    1TYR     BB  881   0.658   1.028   0.918  0.0347 -0.0148 -0.2241
    1TYR    SC1  882   0.559   1.023   1.206 -0.4225  0.2673 -0.1326
    1TYR    SC2  883   0.391   0.946   1.403  0.1133 -0.0845  0.2223
    1TYR    SC3  884   0.582   1.130   1.453 -0.2756  0.4927 -0.2394
    2GLN     BB  885   0.567   1.206   0.791 -0.1114 -0.0457  0.1197
    2GLN    SC1  886   0.903   1.323   0.642 -0.1285  0.1553 -0.1045
    3TYR     BB  887   0.354   1.324   0.657  0.0094  0.3838 -0.0106
    3TYR    SC1  888   0.205   1.381   0.437  0.1698 -0.0656  0.1317
    3TYR    SC2  889   0.200   1.430   0.171 -0.2468  0.1181  0.1644
    3TYR    SC3  890  -0.028   1.366   0.301 -0.0651  0.1159  0.4959
    1TYR     BB  891   2.126   4.922   4.222  0.2322 -0.1860  0.0673
    1TYR    SC1  892   2.330   4.990   4.425 -0.4047  0.0560  0.1810
    1TYR    SC2  893   2.366   5.215   4.570 -0.0517  0.1008  0.0375
    1TYR    SC3  894   2.440   4.975   4.671  0.1497  0.1265 -0.0426
    2GLN     BB  895   1.961   5.203   4.121 -0.2440  0.1644 -0.1593
    2GLN    SC1  896   2.081   5.501   4.325  0.0829 -0.2736 -0.1523
    3TYR     BB  897   1.630   5.265   3.923  0.0789 -0.3247  0.0178
    3TYR    SC1  898   1.425   5.389   3.806  0.0837 -0.0729 -0.1836
    3TYR    SC2  899   1.286   5.522   3.616  0.1456  0.0963 -0.1127
    3TYR    SC3  900   1.211   5.539   3.875  0.0776 -0.1122 -0.1166
    1TYR     BB  901   7.494   6.024   1.602  0.1047 -0.2972  0.0197
    1TYR    SC1  902   7.340   5.930   1.816 -0.0554 -0.2831 -0.0160
    1TYR    SC2  903   7.290   5.734   1.995  0.0866 -0.0742  0.2627
    1TYR    SC3  904   7.169   5.974   2.019  0.2428  0.0148  0.1848
    2GLN     BB  905   7.374   6.389   1.620  0.2524  0.2551  0.2390
    2GLN    SC1  906   7.344   6.468   1.998  0.2146  0.1989  0.2609
    3TYR     BB  907   7.304   6.567   1.437  0.1779  0.1604 -0.1267
    3TYR    SC1  908   7.463   6.676   1.203  0.0363 -0.6626 -0.3664
    3TYR    SC2  909   7.657   6.782   1.047 -0.0600 -0.1121 -0.1411
    3TYR    SC3  910   7.459   6.636   0.936 -0.0471  0.1414 -0.5189
    1TYR     BB  911   7.016   5.384   0.388  0.1297 -0.2120 -0.0733
    1TYR    SC1  912   7.152   5.371   0.656 -0.0030 -0.1797  0.0481
    1TYR    SC2  913   7.332   5.323   0.851 -0.1617 -0.3893  0.1484
    1TYR    SC3  914   7.104   5.455   0.908  0.1263  0.2506 -0.0601
    2GLN     BB  915   6.883   5.658   0.358 -0.1194 -0.0059 -0.0424
    2GLN    SC1  916   6.638   5.669   0.672 -0.1712  0.3739 -0.0939
    3TYR     BB  917   6.941   5.913   0.302 -0.2651 -0.1935  0.3021
    3TYR    SC1  918   6.761   6.114   0.486  0.1392 -0.3574  0.2834
    3TYR    SC2  919   6.560   6.291   0.452  0.3332 -0.2054 -0.1805
    3TYR    SC3  920   6.749   6.336   0.639  0.1701 -0.1291 -0.0307
    1TYR     BB  921   3.903   6.913   0.766  0.0526 -0.0231 -0.0538
    1TYR    SC1  922   3.860   7.219   0.807  0.1202 -0.0098 -0.2231
    1TYR    SC2  923   3.988   7.421   0.934 -0.1515 -0.0383  0.1144
    1TYR    SC3  924   3.801   7.476   0.746  0.0122  0.0117 -0.0372
    2GLN     BB  925   3.816   6.728   0.979 -0.4879  0.2426  0.2256
    2GLN    SC1  926   3.910   6.417   1.047  0.3293 -0.2271 -0.1708
    3TYR     BB  927   3.546   6.735   1.160  0.5391  0.1760  0.2250
    3TYR    SC1  928   3.371   6.851   1.380 -0.0578  0.1447 -0.1213
    3TYR    SC2  929   3.153   6.888   1.536 -0.0306 -0.3554  0.0602
    3TYR    SC3  930   3.365   7.054   1.557 -0.2844 -0.0205  0.0693
    1TYR     BB  931   1.470   6.947   2.205  0.0626  0.0269  0.1979
    1TYR    SC1  932   1.332   6.709   2.022 -0.0956  0.2134 -0.2111
    1TYR    SC2  933   1.237   6.491   1.896  0.0552  0.0037  0.0262
    1TYR    SC3  934   1.106   6.590   2.110  0.0874  0.0322  0.0326
    2GLN     BB  935   1.686   7.107   1.948 -0.0303  0.2910 -0.0829
    2GLN    SC1  936   1.658   7.420   2.185 -0.0372 -0.2160 -0.0034
    3TYR     BB  937   1.684   6.991   1.699 -0.0983  0.2243 -0.0145
    3TYR    SC1  938   1.687   6.694   1.680 -0.1671 -0.0564 -0.0516
    3TYR    SC2  939   1.605   6.439   1.649 -0.0137 -0.1333  0.1447
    3TYR    SC3  940   1.868   6.498   1.635 -0.0176 -0.0390  0.4072
    1TYR     BB  941   5.734   7.279   7.575  0.3823  0.0103 -0.2312
    1TYR    SC1  942   5.550   7.253   7.837  0.0468  0.1831 -0.0652
    1TYR    SC2  943   5.456   7.012   7.913 -0.1112  0.2675  0.0144
    1TYR    SC3  944   5.286   7.219   7.882  0.0447  0.4167  0.1287
    2GLN     BB  945   5.789   7.012   7.507  0.0710 -0.3052 -0.1301
    2GLN    SC1  946   5.801   6.975   7.117 -0.3142 -0.1763  0.1224
    3TYR     BB  947   5.862   6.750   7.622  0.1019  0.0877  0.0444
    3TYR    SC1  948   5.629   6.608   7.795 -0.0272  0.0349 -0.2932
    3TYR    SC2  949   5.579   6.345   7.757  0.0531 -0.0251 -0.0071
    3TYR    SC3  950   5.556   6.453   8.004 -0.0782  0.2604 -0.1393
    1TYR     BB  951   1.318   3.801   3.491  0.1208  0.2421  0.1951
    1TYR    SC1  952   1.500   3.992   3.345 -0.0306 -0.3280  0.0504
    1TYR    SC2  953   1.744   4.108   3.340 -0.1292 -0.1078  0.1564
    1TYR    SC3  954   1.573   4.144   3.135 -0.0709 -0.2740  0.0754
    2GLN     BB  955   1.383   3.518   3.566 -0.1685  0.1918  0.2087
    2GLN    SC1  956   1.224   3.542   3.905  0.2284  0.0198 -0.0683
    3TYR     BB  957   1.336   3.272   3.472  0.5533 -0.1275  0.0765
    3TYR    SC1  958   1.096   3.078   3.539  0.0002 -0.1101  0.0090
    3TYR    SC2  959   1.004   2.830   3.593  0.0352 -0.1657 -0.1795
    3TYR    SC3  960   0.924   3.040   3.744  0.0420 -0.2970  0.0109
    1TYR     BB  961   6.819   7.534   6.704 -0.2392  0.0900 -0.2221
    1TYR    SC1  962   6.943   7.275   6.818  0.1141 -0.1904 -0.4286
    1TYR    SC2  963   7.031   7.074   6.977 -0.0127  0.3849  0.4568
    1TYR    SC3  964   7.206   7.212   6.824  0.1022 -0.2376 -0.0204
    2GLN     BB  965   7.065   7.707   6.594  0.1063  0.1605 -0.3533
    2GLN    SC1  966   7.026   7.727   6.237  0.0738  0.1522 -0.0086
    3TYR     BB  967   7.274   7.736   6.810  0.2768  0.2477 -0.3046
    3TYR    SC1  968   7.308   7.875   7.080 -0.3169  0.4076  0.1599
    3TYR    SC2  969   7.482   8.051   7.187  0.0644  0.0758  0.1137
    3TYR    SC3  970   7.247   8.001   7.311  0.2731  0.0696  0.5300
    1TYR     BB  971   2.607   3.406   3.787 -0.0636 -0.0862 -0.3117
    1TYR    SC1  972   2.843   3.390   3.575  0.3975  0.1299  0.0577
    1TYR    SC2  973   3.052   3.302   3.427  0.2115  0.0856 -0.1867
    1TYR    SC3  974   2.895   3.502   3.335 -0.2967 -0.3679 -0.3723
    2GLN     BB  975   2.443   3.153   3.758  0.0288  0.1919  0.0985
    2GLN    SC1  976   2.554   2.958   4.079 -0.4290 -0.0690  0.0412
    3TYR     BB  977   2.352   3.031   3.579  0.1697 -0.1218  0.0094
    3TYR    SC1  978   2.159   2.796   3.681 -0.1824  0.1291  0.1219
    3TYR    SC2  979   2.075   2.554   3.595  0.1311  0.1246 -0.1980
    3TYR    SC3  980   1.914   2.705   3.750 -0.1419 -0.2074 -0.1430
    1TYR     BB  981   1.390   5.879   1.603  0.2971 -0.0040 -0.1440
    1TYR    SC1  982   1.253   6.094   1.372  0.1840  0.0463  0.2793
    1TYR    SC2  983   1.105   6.267   1.517 -0.0305  0.0020  0.1199
    1TYR    SC3  984   1.085   6.265   1.247 -0.1523 -0.3719  0.1240
    2GLN     BB  985   1.503   5.976   1.821 -0.0985 -0.2143  0.1144
    2GLN    SC1  986   1.269   5.992   2.078  0.0074  0.0725 -0.2001
    3TYR     BB  987   1.830   6.009   1.844 -0.0505  0.2396  0.1084
    3TYR    SC1  988   1.915   6.042   1.570  0.3323  0.4047 -0.0461
    3TYR    SC2  989   1.745   6.079   1.364  0.1466 -0.0869  0.0028
    3TYR    SC3  990   2.003   6.154   1.341  0.1514 -0.2028 -0.4426
    1TYR     BB  991   4.303   6.019   0.787  0.1156  0.1109  0.0990
    1TYR    SC1  992   4.233   6.247   0.624  0.1847 -0.1116 -0.1533
    1TYR    SC2  993   4.250   6.398   0.401 -0.0903  0.0725 -0.0560
    1TYR    SC3  994   4.023   6.397   0.546 -0.0559 -0.3536  0.0101
    2GLN     BB  995   4.650   6.027   0.694 -0.4216  0.0874 -0.1128
    2GLN    SC1  996   4.640   5.997   0.302  0.1115 -0.0261  0.1147
    3TYR     BB  997   4.958   5.844   0.701 -0.0469  0.2781 -0.0526
    3TYR    SC1  998   5.146   5.643   0.779 -0.2301 -0.2068  0.1946
    3TYR    SC2  999   5.238   5.524   1.003 -0.0630  0.2125  0.3602
    3TYR    SC3 1000   5.384   5.515   0.776 -0.2996 -0.3391  0.2087
    4W        W 1001   7.533   0.826   1.566 -0.0747  0.0717  0.0556
    5W        W 1002   2.405   3.807   5.172 -0.0631  0.0622 -0.0164
    6W        W 1003   6.425   1.870   0.106 -0.2101 -0.1207 -0.0693
    7W        W 1004   5.608   5.377   1.230  0.0340  0.0257  0.2741
    8W        W 1005   5.948   0.886   2.877  0.2575 -0.0332  0.4252
    9W        W 1006   1.128   2.533   7.595  0.0337 -0.0899  0.0242
   10W        W 1007   6.773   3.436   0.791 -0.6328 -0.4064 -0.2585
   11W        W 1008   4.468   1.998   2.824  0.1422  0.1692  0.0397
   12W        W 1009   3.311   6.961   3.479 -0.2057 -0.2609  0.2928
   13W        W 1010   7.026   5.416   3.391 -0.0933  0.0315 -0.1862
   14W        W 1011   5.621   2.518   0.471  0.1869 -0.1250 -0.0869
   15W        W 1012   5.817   0.835   5.066 -0.1036  0.0215  0.3994
   16W        W 1013   0.002   7.240   2.776 -0.0263 -0.1369  0.0622
   17W        W 1014   0.548   2.197   3.381  0.0524 -0.2732 -0.2586
   18W        W 1015   3.342   0.051   4.638 -0.0857 -0.2317  0.6075
   19W        W 1016   4.766   0.420   3.756  0.0370 -0.1448  0.1162
   20W        W 1017   2.982   2.843   5.504 -0.2550 -0.0775  0.3326
   21W        W 1018   6.583   2.374   6.185 -0.1240  0.0607 -0.0017
   22W        W 1019   6.846   7.513   4.373  0.1082 -0.4577 -0.0710
   23W        W 1020   4.507   5.847   2.687  0.1969 -0.5264  0.0535
   24W        W 1021   4.599   1.245   5.481  0.1491 -0.1359  0.0439
   25W        W 1022   3.395   7.388   6.020 -0.1257 -0.0109  0.0630
   26W        W 1023   5.518   2.562   1.705  0.2006  0.2387 -0.1922
   27W        W 1024   2.919   4.391   2.024  0.0618 -0.0427 -0.0533
   28W        W 1025   5.755   1.511   2.969 -0.0943  0.1273 -0.0429
   29W        W 1026   6.279   3.317   2.919  0.0311 -0.0586 -0.1465
   30W        W 1027   5.997   4.041   1.777 -0.0368 -0.0359  0.0250
   31W        W 1028   2.594   1.452   5.629  0.1303  0.0570  0.2582
   32W        W 1029   4.591   6.432   5.137 -0.1399  0.1753 -0.3177
   33W        W 1030   4.436   0.916   5.806  0.1723  0.1877  0.2650
   34W        W 1031   6.876   3.348   4.146  0.1197  0.0369  0.1594
   35W        W 1032   3.313   3.113   0.652 -0.1925 -0.0387 -0.1720
   36W        W 1033   1.396   0.496   3.906  0.3134 -0.1742 -0.2202
   37W        W 1034   2.424   4.558   5.620  0.1621 -0.1281  0.3750
   38W        W 1035   1.633   1.500   4.370 -0.2146  0.0243  0.3731
   39W        W 1036   1.796   1.285   7.335 -0.1479 -0.4208  0.2576
   40W        W 1037   2.800   5.073   4.979 -0.2250 -0.4813  0.2026
   41W        W 1038   3.996   3.510   6.050 -0.0962  0.2664  0.2126
   42W        W 1039   5.859   7.611   3.804 -0.4241  0.1336  0.0506
   43W        W 1040   7.169   3.478   0.489  0.0255 -0.1830  0.2004
   44W        W 1041   5.902   1.564   6.225  0.0909 -0.0483  0.1627
   45W        W 1042   1.516   6.296   7.130  0.0511 -0.0516  0.1804
   46W        W 1043   6.663   0.470   4.939 -0.1029 -0.1032 -0.0538
   47W        W 1044   5.587   5.656   5.741 -0.0467  0.1654 -0.0556
   48W        W 1045   2.624   0.051   6.603 -0.1781 -0.2410 -0.4155
   49W        W 1046   7.583   6.694   5.812 -0.1328  0.0628  0.1073
   50W        W 1047   5.270   5.717   4.941 -0.1141  0.1094  0.5088
   51W        W 1048   1.817   0.534   2.489  0.0285 -0.1526  0.0665
   52W        W 1049   3.317   5.050   2.519  0.0976  0.0228 -0.1176
   53W        W 1050   5.386   0.592   2.733  0.0157  0.0198  0.1529
   54W        W 1051   4.533   6.191   4.540  0.1189  0.0155 -0.1357
   55W        W 1052   6.271   4.731   4.370 -0.1925 -0.0510  0.2274
   56W        W 1053   7.520   5.822   6.203  0.1652 -0.0057  0.0497
   57W        W 1054   5.662   3.705   5.681  0.0067 -0.1390  0.1855
   58W        W 1055   4.455   5.604   1.909  0.1712 -0.0348 -0.1380
   59W        W 1056   2.443   5.544   7.571 -0.3121  0.0210 -0.0805
   60W        W 1057   6.084   0.382   2.831 -0.1683 -0.0619 -0.3423
   61W        W 1058   2.938   4.584   6.602  0.1588 -0.0615  0.0668
   62W        W 1059   0.009   6.790   5.251  0.1854  0.0550  0.0907
   63W        W 1060   6.926   3.998   0.178  0.0286  0.1240  0.1235
   64W        W 1061   3.281   7.102   4.898 -0.3730 -0.2023 -0.0100
   65W        W 1062   1.119   4.859   2.767 -0.0618  0.4350  0.1294
   66W        W 1063   5.569   3.426   6.434  0.2634  0.1765  0.1050
   67W        W 1064   5.970   4.464   3.776  0.1161 -0.1549  0.2462
   68W        W 1065   6.203   3.152   1.943  0.1670 -0.1533 -0.0349
   69W        W 1066   6.561   5.161   1.659  0.0359 -0.2886  0.1172
   70W        W 1067   0.440   7.547   2.723 -0.2069 -0.1897  0.2273
   71W        W 1068   4.893   3.087   2.189 -0.0493 -0.2130 -0.2412
   72W        W 1069   4.055   3.411   5.113 -0.0365 -0.1639 -0.1545
   73W        W 1070   2.244   6.692   5.038 -0.1637 -0.0377 -0.1318
   74W        W 1071   2.609   0.485   3.097 -0.0642  0.0010 -0.0424
   75W        W 1072   4.798   1.934   7.097 -0.0990 -0.0755 -0.0419
   76W        W 1073   6.627   6.541   7.031  0.1251 -0.1988  0.1467
   77W        W 1074   3.751   2.980   6.755 -0.3447 -0.1960  0.0537
   78W        W 1075   3.526   4.040   1.640  0.0904  0.2666  0.0184
   79W        W 1076   1.528   7.349   3.390  0.0645  0.1851 -0.2369
   80W        W 1077   3.058   1.078   1.410 -0.0259  0.0097 -0.0602
   81W        W 1078   4.923   5.695   4.094 -0.1137 -0.2617 -0.1683
   82W        W 1079   2.127   3.378   0.957 -0.1885 -0.0983  0.0030
   83W        W 1080   2.139   5.450   4.969 -0.0097 -0.0608 -0.0708
   84W        W 1081   0.733   7.346   6.489  0.3149  0.0427  0.0068
   85W        W 1082   3.663   4.725   5.891 -0.3050  0.0155 -0.2016
   86W        W 1083   6.074   3.459   3.804 -0.1395  0.1673 -0.0208
   87W        W 1084   1.108   2.000   2.142  0.2355  0.1723 -0.0018
   88W        W 1085   4.425   2.276   5.740 -0.0252  0.1247 -0.0840
   89W        W 1086   2.412   2.004   7.387 -0.2874  0.0379 -0.0723
   90W        W 1087   2.411   6.911   3.188  0.2035 -0.0274  0.3760
   91W        W 1088   5.917   2.705   1.916 -0.0537 -0.0370  0.0226
   92W        W 1089   0.344   1.714   3.715 -0.2044  0.0034 -0.2186
   93W        W 1090   2.388   5.780   7.112  0.1465  0.1308 -0.1333
   94W        W 1091   6.283   2.131   4.365  0.1256 -0.0714 -0.1362
   95W        W 1092   6.715   3.460   5.812  0.0295 -0.0249 -0.0001
   96W        W 1093   6.961   4.892   4.934  0.0656 -0.0766  0.0000
   97W        W 1094   1.107   1.367   5.758 -0.2678  0.1061  0.0413
   98W        W 1095   1.721   2.481   6.129  0.1714 -0.1949 -0.3152
   99W        W 1096   2.714   5.352   5.562 -0.0054  0.1176  0.1779
  100W        W 1097   6.072   5.742   5.816 -0.2174 -0.0115  0.0907
  101W        W 1098   3.385   4.812   6.668 -0.0656  0.0365  0.0630
  102W        W 1099   0.978   3.955   7.297  0.2721  0.0198  0.0540
  103W        W 1100   3.100   2.684   5.959 -0.0607  0.0482  0.1899
  104W        W 1101   6.594   0.961   2.077  0.1591 -0.0837  0.1683
  105W        W 1102   6.294   2.896   6.269  0.0884 -0.1198  0.1142
  106W        W 1103   4.022   0.860   0.346 -0.2688 -0.3030 -0.0627
  107W        W 1104   3.389   3.993   7.205 -0.0589 -0.3262 -0.3831
  108W        W 1105   2.692   4.486   7.417  0.5612  0.1896 -0.1288
  109W        W 1106   1.374   6.254   6.122  0.1865 -0.3272 -0.0006
  110W        W 1107   3.773   6.226   7.246 -0.1668 -0.3032  0.1870
  111W        W 1108   4.156   4.038   5.677 -0.0101 -0.0779 -0.0006
  112W        W 1109   3.855   4.743   3.341 -0.1553  0.0792  0.1037
  113W        W 1110   6.358   2.336   2.342  0.0047  0.1136  0.0316
  114W        W 1111   4.283   5.439   5.068  0.3174 -0.0888  0.1608
  115W        W 1112   3.609   0.988   6.629 -0.0589 -0.0170 -0.2863
  116W        W 1113   2.437   7.360   5.777  0.0926  0.1662 -0.1655
  117W        W 1114   7.564   6.605   4.236 -0.0774 -0.3227 -0.0736
  118W        W 1115   3.553   3.235   1.951 -0.0088 -0.1767  0.2491
  119W        W 1116   1.902   2.485   4.718  0.0770 -0.2342 -0.0981
  120W        W 1117   6.900   2.921   4.422 -0.0953 -0.0437  0.0400
  121W        W 1118   4.275   6.049   7.551  0.0565 -0.0943  0.0894
  122W        W 1119   4.171   6.274   2.680 -0.1424 -0.2219 -0.0287
  123W        W 1120   4.687   5.468   2.324 -0.0428 -0.1163  0.1048
  124W        W 1121   1.779   3.049   1.756  0.0870  0.2653 -0.1039
  125W        W 1122   0.689   5.457   5.683 -0.0342  0.1829 -0.1355
  126W        W 1123   0.593   1.222   5.643 -0.1037  0.0726 -0.0263
  127W        W 1124   6.438   3.614   6.598 -0.1123  0.0811 -0.4664
  128W        W 1125   5.243   5.892   7.101  0.1892  0.2047 -0.2380
  129W        W 1126   2.174   0.500   3.394 -0.1595 -0.1712 -0.3861
  130W        W 1127   7.344   5.872   2.478 -0.2280 -0.1225 -0.0532
  131W        W 1128   2.020   2.816   7.031  0.2156 -0.3991 -0.3494
  132W        W 1129   4.879   6.154   2.909 -0.0684  0.2212 -0.2624
  133W        W 1130   6.257   1.713   2.919  0.1785  0.0822 -0.0382
  134W        W 1131   6.912   2.218   6.539 -0.0290  0.1817 -0.2802
  135W        W 1132   3.991   0.119   2.728  0.0407  0.2377 -0.2777
  136W        W 1133   5.316   6.835   5.134 -0.2603 -0.1053  0.1419
  137W        W 1134   5.578   2.462   5.871  0.1308 -0.1804 -0.2331
  138W        W 1135   7.004   6.771   2.250  0.2708 -0.1398 -0.1038
  139W        W 1136   5.758   2.770   7.087 -0.0006  0.0744  0.0602
  140W        W 1137   3.228   4.025   0.227  0.0037  0.0570  0.0910
  141W        W 1138   7.189   1.068   2.407  0.0438  0.2209 -0.0205
  142W        W 1139   0.043   1.696   4.545 -0.2274  0.1228  0.0291
  143W        W 1140   7.375   1.754   5.505  0.0232  0.1175 -0.1985
  144W        W 1141   5.678   1.855   1.074  0.2010  0.2658 -0.0191
  145W        W 1142   4.551   5.272   5.503  0.0106 -0.0029 -0.1365
  146W        W 1143   6.297   6.400   5.190 -0.0653 -0.2083  0.2227
  147W        W 1144   1.773   2.374   0.079 -0.2548 -0.3814  0.1313
  148W        W 1145   4.527   6.548   6.767 -0.0993 -0.1698 -0.3440
  149W        W 1146   6.456   7.560   2.694 -0.1391  0.0219 -0.2670
  150W        W 1147   3.694   6.335   6.759 -0.2926  0.1387 -0.2422
  151W        W 1148   1.939   5.551   7.206  0.1883  0.0747 -0.0095
  152W        W 1149   0.929   1.575   4.784  0.0385  0.1060  0.2976
  153W        W 1150   3.943   0.444   2.245 -0.2748  0.1671  0.2789
  154W        W 1151   4.202   7.184   3.584 -0.2590 -0.2055  0.0094
  155W        W 1152   4.231   6.040   5.262  0.2484  0.3533  0.0208
  156W        W 1153   2.218   3.172   1.538  0.0731  0.0226  0.1858
  157W        W 1154   3.026   2.347   5.636  0.1347  0.0131  0.0088
  158W        W 1155   1.635   5.371   6.787  0.0108  0.1162 -0.2182
  159W        W 1156   0.489   6.765   6.560 -0.2211  0.4563  0.1659
  160W        W 1157   0.869   3.679   0.257 -0.1754 -0.1490 -0.0299
  161W        W 1158   4.038   0.297   0.943 -0.1369  0.0839  0.0304
  162W        W 1159   6.958   3.097   0.035  0.0016 -0.0251 -0.0394
  163W        W 1160   6.719   6.218   4.737  0.0545  0.3212 -0.4122
  164W        W 1161   5.271   5.319   0.337 -0.0121 -0.0615  0.3451
  165W        W 1162   5.903   0.488   0.708 -0.1419  0.0627  0.2509
  166W        W 1163   1.447   0.190   2.466  0.1927  0.1878  0.0389
  167W        W 1164   1.729   3.713   0.870 -0.3182  0.0763 -0.3751
  168W        W 1165   3.076   5.148   0.215  0.1492  0.0480 -0.0324
  169W        W 1166   5.408   3.819   4.162 -0.0166 -0.1591 -0.0408
  170W        W 1167   4.300   1.701   6.923 -0.0073 -0.0149  0.3785
  171W        W 1168   3.025   0.680   2.242  0.5650  0.0404 -0.1026
  172W        W 1169   7.270   3.487   5.842  0.0370  0.0469 -0.0768
  173W        W 1170   7.355   5.466   2.745 -0.0704 -0.0208 -0.1355
  174W        W 1171   2.776   2.018   2.113 -0.2771 -0.3047  0.1508
  175W        W 1172   4.504   1.061   4.969 -0.0310 -0.1010 -0.0790
  176W        W 1173   1.044   2.722   4.587  0.1691  0.3769  0.2861
  177W        W 1174   6.500   1.664   1.012 -0.3181 -0.1028  0.0377
  178W        W 1175   0.436   0.278   4.839  0.0238 -0.0173  0.5354
  179W        W 1176   2.616   6.972   0.025 -0.1086  0.1812 -0.3001
  180W        W 1177   4.191   2.532   7.173  0.2588  0.0410  0.1332
  181W        W 1178   6.891   5.550   1.869 -0.0301 -0.5104  0.0002
  182W        W 1179   4.827   7.543   3.891 -0.0931  0.3476 -0.0222
  183W        W 1180   2.328   1.555   7.620  0.2446  0.3331  0.0163
  184W        W 1181   6.529   4.278   0.370  0.1929 -0.0683  0.2683
  185W        W 1182   6.106   6.144   3.008 -0.0206 -0.1448  0.1487
  186W        W 1183   0.948   5.456   7.294 -0.0053 -0.0796 -0.1034
  187W        W 1184   4.250   3.719   2.204  0.2603  0.0650 -0.0450
  188W        W 1185   5.425   0.678   4.230 -0.2600  0.2053 -0.0038
  189W        W 1186   2.770   4.219   4.869  0.4820  0.0564  0.0960
  190W        W 1187   5.824   2.898   4.553 -0.1701 -0.1603 -0.2396
  191W        W 1188   5.397   6.286   5.112  0.1092 -0.2769 -0.0525
  192W        W 1189   3.242   6.245   4.863 -0.0513  0.0534 -0.2281
  193W        W 1190   2.932   0.093   3.256 -0.0408 -0.1986  0.0927
  194W        W 1191   4.265   0.142   7.134 -0.1245 -0.2220 -0.0536
  195W        W 1192   6.649   5.785   6.967  0.0820 -0.0778 -0.2480
  196W        W 1193   2.782   1.225   5.988  0.0388 -0.4074 -0.2793
  197W        W 1194   3.731   7.629   1.819  0.1157 -0.0640 -0.1475
  198W        W 1195   1.430   0.182   3.377 -0.3319  0.0237  0.1468
  199W        W 1196   1.445   2.395   4.416 -0.2578 -0.2899  0.0034
  200W        W 1197   3.549   0.255   3.920  0.0230  0.1716 -0.0924
  201W        W 1198   3.207   2.373   1.454  0.0065  0.0609  0.1129
  202W        W 1199   3.155   2.475   2.804  0.1149  0.3453  0.1161
  203W        W 1200   0.411   6.087   3.086  0.3892  0.0847  0.2334
  204W        W 1201   0.263   2.306   5.239  0.0356 -0.2255 -0.0933
  205W        W 1202   3.601   5.660   1.953  0.1798 -0.0154 -0.1539
  206W        W 1203   3.310   4.317   4.647  0.0380  0.2114  0.1344
  207W        W 1204   1.332   7.139   3.848  0.3859 -0.0918 -0.1110
  208W        W 1205   3.158   5.374   5.969 -0.0417 -0.0168  0.0302
  209W        W 1206   4.481   4.011   0.435 -0.2241 -0.2700 -0.0878
  210W        W 1207   2.501   6.308   3.480 -0.2995 -0.3853 -0.0015
  211W        W 1208   5.233   6.770   6.428 -0.1513  0.3364 -0.0405
  212W        W 1209   1.596   0.524   6.954 -0.2160 -0.1080 -0.1302
  213W        W 1210   1.520   3.857   2.080  0.1698  0.0613  0.0125
  214W        W 1211   2.200   1.421   4.954 -0.0898  0.2559  0.1805
  215W        W 1212   1.345   1.808   2.762  0.0750  0.0372  0.1479
  216W        W 1213   3.876   0.099   3.230  0.1432  0.0197  0.1699
  217W        W 1214   0.333   2.982   1.083  0.0353  0.0331  0.1607
  218W        W 1215   1.198   7.420   4.996 -0.1496  0.1358  0.0984
  219W        W 1216   1.035   2.968   6.083 -0.0806 -0.1530  0.1910
  220W        W 1217   4.812   6.618   4.240 -0.0581  0.0142 -0.0782
  221W        W 1218   2.508   3.791   6.918  0.0127 -0.1218 -0.2161
  222W        W 1219   3.394   6.970   6.321  0.2546 -0.0338  0.1963
  223W        W 1220   3.252   1.117   7.014  0.0060  0.0774 -0.1721
  224W        W 1221   3.450   2.314   4.661  0.1772  0.2181  0.3300
  225W        W 1222   3.224   2.622   7.617  0.1498 -0.1011 -0.1623
  226W        W 1223   2.113   6.598   4.177  0.0440 -0.1151 -0.0667
  227W        W 1224   4.772   4.491   0.267  0.3773  0.0047 -0.4168
  228W        W 1225   6.653   0.371   2.350  0.4427  0.0978  0.2104
  229W        W 1226   3.697   6.620   6.295 -0.4757  0.2312  0.0602
  230W        W 1227   7.235   2.228   1.370 -0.1196  0.1764  0.0406
  231W        W 1228   0.342   2.945   7.386  0.0390  0.3530 -0.2002
  232W        W 1229   5.725   4.898   1.301 -0.0201 -0.1637 -0.2623
  233W        W 1230   0.241   2.565   3.264  0.3970  0.2266 -0.1394
  234W        W 1231   5.708   5.067   6.923  0.1539  0.3873 -0.1719
  235W        W 1232   3.130   2.366   2.213 -0.2891  0.1978  0.2060
  236W        W 1233   4.551   3.689   1.349 -0.0298 -0.0502  0.0018
  237W        W 1234   4.687   4.618   1.159 -0.2522  0.0393 -0.1002
  238W        W 1235   0.493   0.921   1.897  0.1657  0.1760 -0.0477
  239W        W 1236   2.279   0.150   4.394 -0.0268  0.4232 -0.1239
  240W        W 1237   1.644   6.890   5.900 -0.1437 -0.2038  0.1220
  241W        W 1238   5.667   0.647   6.376  0.1354 -0.0513  0.0311
  242W        W 1239   5.544   4.152   2.916  0.2621  0.1954  0.2383
  243W        W 1240   3.994   3.328   2.219 -0.1520 -0.0076 -0.1628
  244W        W 1241   0.059   7.498   4.001 -0.2186  0.2660 -0.1598
  245W        W 1242   6.477   4.669   3.871  0.2716  0.2046 -0.0779
  246W        W 1243   6.741   2.272   3.526 -0.0269  0.0926 -0.0967
  247W        W 1244   0.519   0.832   6.948  0.0516 -0.0375 -0.0260
  248W        W 1245   3.140   3.181   6.846 -0.0893 -0.2847  0.0543
  249W        W 1246   3.342   4.266   1.166  0.0007  0.3844  0.4024
  250W        W 1247   6.788   0.791   2.536  0.2954 -0.0718  0.2161
  251W        W 1248   5.322   3.598   6.858 -0.0210 -0.1772  0.0613
  252W        W 1249   7.546   5.811   5.690  0.0126 -0.1592 -0.3716
  253W        W 1250   6.366   5.073   6.141  0.0544 -0.3029 -0.3245
  254W        W 1251   6.428   1.485   6.011  0.2805 -0.1405  0.0557
  255W        W 1252   0.651   1.693   3.367 -0.0276 -0.2430 -0.0283
  256W        W 1253   3.848   1.392   1.904  0.2966  0.2782 -0.4423
  257W        W 1254   6.272   5.758   3.740  0.0440 -0.0489 -0.0050
  258W        W 1255   0.769   2.708   4.101 -0.0933  0.0848  0.0647
  259W        W 1256   4.114   4.660   5.174  0.1288 -0.3086  0.3204
  260W        W 1257   6.874   1.641   4.757 -0.2844 -0.3239 -0.0753
  261W        W 1258   0.282   0.408   2.654  0.0067  0.1466 -0.0177
  262W        W 1259   4.592   4.413   6.315  0.1412 -0.3152  0.0330
  263W        W 1260   7.595   5.992   7.022 -0.2319  0.1120  0.0163
  264W        W 1261   3.347   2.355   3.252  0.0361  0.0359  0.1510
  265W        W 1262   3.979   7.500   7.453 -0.1007 -0.0367  0.1898
  266W        W 1263   5.530   3.697   3.170 -0.1640 -0.0673  0.0690
  267W        W 1264   0.917   0.489   2.122  0.0593  0.0441 -0.0847
  268W        W 1265   5.972   5.195   3.131  0.0621 -0.3162  0.1101
  269W        W 1266   4.042   4.956   4.314  0.0969  0.2285  0.1026
  270W        W 1267   1.525   1.959   0.308 -0.0571  0.0365 -0.1343
  271W        W 1268   3.838   0.321   1.453  0.1297  0.0690  0.3380
  272W        W 1269   7.594   2.643   6.638  0.0523 -0.0927 -0.4712
  273W        W 1270   5.754   4.916   2.120  0.2674 -0.0788 -0.1819
  274W        W 1271   4.770   6.339   3.380 -0.0542  0.0084  0.2579
  275W        W 1272   0.776   1.370   3.945 -0.2358 -0.0644 -0.2825
  276W        W 1273   4.409   5.101   2.109 -0.0944  0.0396  0.0174
  277W        W 1274   5.032   3.131   5.202 -0.3519 -0.0807  0.2195
  278W        W 1275   4.635   1.057   3.745 -0.2530  0.2176  0.2063
  279W        W 1276   7.345   3.408   1.591  0.2752 -0.0648  0.0474
  280W        W 1277   5.713   6.995   5.608 -0.0459 -0.3629 -0.1868
  281W        W 1278   6.682   5.183   0.868  0.0345  0.1125 -0.3335
  282W        W 1279   0.146   5.411   6.336  0.0102 -0.0898 -0.4357
  283W        W 1280   7.380   4.676   7.583  0.3719 -0.2490  0.0295
  284W        W 1281   6.232   5.808   5.327  0.2949  0.0488 -0.0076
  285W        W 1282   5.133   6.622   0.001  0.0516  0.0183 -0.0548
  286W        W 1283   6.380   4.271   5.821  0.0431 -0.4537  0.2507
  287W        W 1284   6.287   5.636   6.220  0.0482  0.0012 -0.1951
  288W        W 1285   7.567   1.797   6.867  0.4010  0.1667 -0.2269
  289W        W 1286   5.649   0.790   1.144  0.0700  0.1236  0.0322
  290W        W 1287   2.218   0.180   2.896  0.2681  0.0859 -0.3444
  291W        W 1288   0.127   5.175   2.786 -0.0239 -0.2072 -0.1414
  292W        W 1289   4.864   6.177   5.714  0.0861 -0.3086 -0.1078
  293W        W 1290   5.777   7.410   5.235 -0.1432 -0.3192 -0.0636
  294W        W 1291   3.876   6.552   3.001 -0.0078  0.0785  0.0866
  295W        W 1292   4.289   4.555   1.637 -0.3590 -0.1028 -0.1844
  296W        W 1293   1.323   3.363   5.837 -0.1006 -0.2682  0.2837
  297W        W 1294   5.032   3.788   1.501  0.1684 -0.0541 -0.0738
  298W        W 1295   4.583   0.372   1.003  0.1019 -0.1276  0.2294
  299W        W 1296   6.406   4.268   2.575  0.2111 -0.0214 -0.2787
  300W        W 1297   4.676   6.414   2.264 -0.1487  0.3717  0.1782
  301W        W 1298   4.791   3.515   2.323 -0.3445  0.0761  0.1352
  302W        W 1299   4.776   5.862   6.345 -0.1061 -0.2383  0.1357
  303W        W 1300   7.584   4.825   5.677 -0.0394 -0.0588 -0.1533
  304W        W 1301   3.188   5.649   4.227 -0.1365 -0.1979 -0.0460
  305W        W 1302   2.205   0.178   6.820 -0.2825  0.1274  0.4133
  306W        W 1303   5.667   6.449   5.488  0.2949 -0.1725  0.0500
  307W        W 1304   0.760   0.369   5.896  0.1297 -0.0944  0.0474
  308W        W 1305   2.879   0.871   4.661  0.1624  0.0861  0.0584
  309W        W 1306   3.075   5.155   4.388  0.2335  0.1205  0.0988
  310W        W 1307   0.727   1.892   7.049 -0.0309  0.0857 -0.2093
  311W        W 1308   1.782   3.966   5.860 -0.1698  0.0228 -0.2367
  312W        W 1309   3.743   2.356   1.504  0.1437 -0.0719  0.0616
  313W        W 1310   0.043   0.838   6.273 -0.0961  0.0334  0.3197
  314W        W 1311   5.495   6.706   2.343 -0.0794 -0.0226 -0.0431
  315W        W 1312   3.210   3.167   0.188 -0.1450  0.0428  0.3434
  316W        W 1313   2.325   0.480   5.992 -0.1779 -0.0255  0.1849
  317W        W 1314   5.146   5.092   4.862 -0.2574  0.0787 -0.2282
  318W        W 1315   2.431   0.947   6.202  0.2366  0.1766 -0.2155
  319W        W 1316   5.319   7.301   3.862  0.0938 -0.0133  0.0442
  320W        W 1317   5.826   4.881   6.241 -0.3456 -0.2626  0.0625
  321W        W 1318   1.792   1.601   2.552  0.3885  0.1786 -0.4624
  322W        W 1319   3.792   5.519   0.641 -0.0127  0.0617 -0.1134
  323W        W 1320   4.578   1.414   5.986 -0.1044 -0.1372  0.0309
  324W        W 1321   4.215   5.525   0.889  0.0322 -0.2991 -0.1383
  325W        W 1322   3.571   5.412   3.897 -0.1638 -0.1296 -0.2400
  326W        W 1323   5.381   6.892   6.945  0.1989  0.2022  0.1227
  327W        W 1324   0.587   1.676   1.536  0.1041 -0.1599  0.1917
  328W        W 1325   5.208   0.083   6.894 -0.0397  0.0704 -0.2363
  329W        W 1326   5.500   1.145   2.728 -0.2210  0.1730  0.2489
  330W        W 1327   6.378   6.541   6.260 -0.0286  0.2780  0.1219
  331W        W 1328   5.751   4.670   4.253  0.0212  0.0188  0.0401
  332W        W 1329   2.816   1.241   1.920  0.0867  0.0430  0.2737
  333W        W 1330   2.456   1.597   6.976  0.1967 -0.0915  0.1969
  334W        W 1331   5.799   1.378   2.425 -0.0426  0.0095 -0.2229
  335W        W 1332   5.593   4.856   0.419 -0.0173  0.0659 -0.0780
  336W        W 1333   2.440   1.891   3.850 -0.0226 -0.0344 -0.2656
  337W        W 1334   7.011   5.131   6.763 -0.2943  0.0959  0.3405
  338W        W 1335   3.853   4.587   2.666  0.2015 -0.2399  0.0496
  339W        W 1336   0.888   7.582   2.374  0.0871  0.0100  0.0114
  340W        W 1337   5.575   6.553   1.894 -0.2675  0.2035  0.0589
  341W        W 1338   7.542   4.189   6.848 -0.0510  0.0581 -0.0923
  342W        W 1339   4.085   6.828   2.580 -0.1843  0.0531 -0.0687
  343W        W 1340   3.382   6.613   4.562  0.0288  0.3138 -0.1671
  344W        W 1341   0.458   6.881   4.495 -0.2389  0.2988 -0.1899
  345W        W 1342   1.757   1.806   3.161  0.1366 -0.2454  0.1083
  346W        W 1343   1.872   2.850   7.482  0.4886 -0.1104 -0.2236
  347W        W 1344   1.195   1.152   6.911 -0.0967  0.0420  0.0594
  348W        W 1345   4.484   2.792   2.224  0.0896  0.0743  0.1004
  349W        W 1346   4.429   7.344   7.415 -0.2419  0.0987 -0.5201
  350W        W 1347   6.928   6.324   6.602  0.0499 -0.3230 -0.0600
  351W        W 1348   1.371   4.760   3.256 -0.0082 -0.0479 -0.2909
  352W        W 1349   1.108   2.623   2.334  0.1633  0.2170 -0.0213
  353W        W 1350   0.236   0.507   1.977 -0.2267 -0.2087  0.1086
  354W        W 1351   0.005   1.325   4.905 -0.2319 -0.1289  0.1150
  355W        W 1352   3.264   1.084   3.239 -0.0788 -0.1160 -0.2037
  356W        W 1353   0.942   4.405   5.940  0.1053 -0.1778 -0.0618
  357W        W 1354   6.008   5.669   4.503  0.0500  0.0030  0.0434
  358W        W 1355   0.596   3.240   0.380  0.1944  0.2040  0.0019
  359W        W 1356   7.043   3.943   0.706  0.0911  0.2050 -0.2114
  360W        W 1357   0.965   2.292   4.289  0.0618 -0.0873 -0.1353
  361W        W 1358   2.639   0.690   1.941  0.1042 -0.0236  0.0685
  362W        W 1359   0.048   1.783   0.711 -0.1403  0.0107  0.2005
  363W        W 1360   4.749   3.984   5.529  0.1945  0.3075  0.0764
  364W        W 1361   4.586   6.830   3.359  0.1053  0.0011 -0.2527
  365W        W 1362   6.415   6.643   2.554 -0.0488  0.1724  0.2025
  366W        W 1363   3.103   0.561   2.805  0.0110 -0.3771  0.3777
  367W        W 1364   4.711   2.871   1.165  0.1829  0.0371  0.1095
  368W        W 1365   4.374   0.539   2.466  0.0138 -0.0691  0.0501
  369W        W 1366   2.377   3.015   0.664  0.0575 -0.4909  0.1435
  370W        W 1367   2.259   2.773   5.007  0.0569 -0.0333  0.0906
  371W        W 1368   2.450   4.876   0.414 -0.2713  0.0659  0.0830
  372W        W 1369   7.043   6.643   3.932  0.1614 -0.1435  0.3059
  373W        W 1370   4.180   1.073   2.178 -0.0212 -0.0696 -0.4608
  374W        W 1371   6.169   0.652   5.468  0.0151  0.1285  0.1570
  375W        W 1372   1.256   5.432   5.632  0.1159 -0.0998 -0.2360
  376W        W 1373   6.421   4.203   2.017 -0.4282 -0.0256 -0.0827
  377W        W 1374   4.577   2.329   1.146  0.0713 -0.1983  0.3257
  378W        W 1375   0.517   2.807   5.587 -0.1625 -0.1981  0.1723
  379W        W 1376   0.875   5.276   0.130 -0.3827  0.1415 -0.2480
  380W        W 1377   2.056   4.963   6.902  0.0376 -0.3022  0.0515
  381W        W 1378   0.390   6.281   6.393  0.3433  0.2148 -0.0505
  382W        W 1379   5.944   1.393   4.332 -0.1191  0.1184 -0.3562
  383W        W 1380   0.813   0.948   4.554  0.1539 -0.2709 -0.3503
  384W        W 1381   1.653   0.441   7.617  0.4443  0.0588  0.1231
  385W        W 1382   2.727   4.721   1.041  0.2013  0.0777 -0.0989
  386W        W 1383   6.923   3.676   1.652 -0.3317 -0.1198  0.1862
  387W        W 1384   5.464   0.868   7.346 -0.1933  0.1425  0.3800
  388W        W 1385   4.788   1.659   5.111  0.1595 -0.1784  0.2452
  389W        W 1386   6.836   0.477   4.315  0.2993 -0.2739 -0.3269
  390W        W 1387   1.832   3.559   1.771 -0.1636 -0.0510  0.1937
  391W        W 1388   4.116   4.666   5.686  0.1663  0.0538 -0.0005
  392W        W 1389   6.485   0.768   4.579 -0.1236  0.0054 -0.2070
  393W        W 1390   5.537   6.330   6.444  0.1379  0.0390  0.0678
  394W        W 1391   1.954   7.144   5.574  0.0607 -0.3191  0.2277
  395W        W 1392   1.977   2.886   5.768 -0.3052  0.0254 -0.1028
  396W        W 1393   7.080   2.083   4.815 -0.0809  0.0742  0.0854
  397W        W 1394   6.236   6.803   7.270 -0.2043 -0.0076 -0.1002
  398W        W 1395   6.371   3.724   2.183 -0.0268 -0.0647  0.1114
  399W        W 1396   5.695   5.791   6.344 -0.0207 -0.1698  0.1155
  400W        W 1397   6.853   1.018   5.793  0.2288  0.3196  0.1050
  401W        W 1398   0.628   6.503   3.306 -0.0363  0.0614 -0.0200
  402W        W 1399   2.672   1.972   4.362  0.1050  0.0641  0.0483
  403W        W 1400   7.188   5.174   1.785 -0.0830 -0.0186  0.2393
  404W        W 1401   2.117   5.321   0.750 -0.1158  0.2628 -0.0385
  405W        W 1402   5.677   5.463   3.502  0.3765 -0.1172 -0.2901
  406W        W 1403   1.150   0.015   5.561  0.0490  0.0509 -0.1540
  407W        W 1404   0.991   0.683   6.825  0.1154 -0.3275  0.0372
  408W        W 1405   6.571   2.075   4.770 -0.0121  0.0285  0.1978
  409W        W 1406   1.791   3.426   5.907  0.0145 -0.0453 -0.3817
  410W        W 1407   3.653   0.908   2.096 -0.1350 -0.1707 -0.0726
  411W        W 1408   1.568   2.174   4.895  0.0947  0.0142  0.0489
  412W        W 1409   6.024   5.295   2.291 -0.0406  0.3177 -0.2120
  413W        W 1410   6.346   5.103   2.690  0.0548  0.3849 -0.2317
  414W        W 1411   7.126   3.527   2.319  0.0205 -0.2653  0.0447
  415W        W 1412   0.269   2.022   7.195 -0.1609  0.0416  0.1886
  416W        W 1413   3.460   2.741   5.642  0.0694  0.1368  0.1581
  417W        W 1414   4.858   5.018   2.390 -0.2642  0.2498  0.1038
  418W        W 1415   4.079   5.099   5.403  0.1953  0.0743 -0.2108
  419W        W 1416   6.530   5.635   4.696 -0.0843  0.0939 -0.0923
  420W        W 1417   1.624   6.283   3.588  0.0767  0.1418  0.0979
  421W        W 1418   6.589   1.922   2.621  0.0649  0.0553 -0.0396
  422W        W 1419   1.959   7.578   0.032 -0.0868  0.0261 -0.4090
  423W        W 1420   5.105   3.799   2.014  0.0275  0.1570  0.1264
  424W        W 1421   1.925   1.171   6.400  0.1135 -0.0717  0.0016
  425W        W 1422   7.125   3.541   1.155 -0.1463  0.0577 -0.1971
  426W        W 1423   0.722   4.578   7.149 -0.0360  0.3127 -0.0046
  427W        W 1424   2.206   2.669   6.186 -0.0634  0.1514 -0.1533
  428W        W 1425   0.553   4.382   7.609  0.3120 -0.3156  0.1227
  429W        W 1426   5.381   3.430   2.368 -0.0098  0.2638  0.3383
  430W        W 1427   3.413   4.074   5.131  0.0118 -0.2023 -0.1263
  431W        W 1428   0.702   1.156   0.177 -0.1934 -0.0137  0.0535
  432W        W 1429   7.307   3.667   2.733 -0.3265 -0.1523  0.1856
  433W        W 1430   5.250   3.923   5.507 -0.0176 -0.2170 -0.0692
  434W        W 1431   7.394   0.382   5.291  0.1349 -0.2793  0.3288
  435W        W 1432   6.198   5.120   1.230 -0.0504 -0.0278 -0.2282
  436W        W 1433   6.093   5.683   3.289  0.2430 -0.0858 -0.0579
  437W        W 1434   7.266   6.537   3.033  0.0790  0.2255 -0.1108
  438W        W 1435   6.055   1.802   5.284  0.0667 -0.0754 -0.1688
  439W        W 1436   7.217   3.569   7.540 -0.2211 -0.1913 -0.1741
  440W        W 1437   6.432   1.562   5.486  0.1412  0.1700 -0.1624
  441W        W 1438   5.305   1.901   6.024  0.1904 -0.2163  0.1551
  442W        W 1439   5.987   5.660   0.110 -0.0399  0.1408  0.0396
  443W        W 1440   4.299   3.442   3.373  0.2411  0.2502 -0.3513
  444W        W 1441   2.975   3.635   5.888 -0.1219 -0.1327  0.1012
  445W        W 1442   1.802   1.490   0.196  0.1964  0.4935 -0.0161
  446W        W 1443   0.890   1.530   1.146  0.1893 -0.1865  0.3163
  447W        W 1444   1.894   5.104   7.481 -0.2418 -0.1191  0.2494
  448W        W 1445   5.278   5.103   1.481  0.0371  0.0586 -0.0515
  449W        W 1446   6.944   2.956   1.743 -0.2609 -0.2339  0.3276
  450W        W 1447   3.726   0.564   6.801  0.2646 -0.0215  0.4257
  451W        W 1448   3.348   4.476   5.493 -0.3185 -0.3237 -0.1465
  452W        W 1449   1.562   7.211   7.479 -0.0432  0.0292 -0.1051
  453W        W 1450   0.889   2.484   6.292  0.2500 -0.1100 -0.0877
  454W        W 1451   6.797   4.417   6.162 -0.2119 -0.1069  0.1042
  455W        W 1452   2.272   1.261   1.711 -0.1085  0.3265  0.1035
  456W        W 1453   5.092   2.672   2.425  0.1041 -0.0579 -0.3006
  457W        W 1454   6.620   7.390   5.315  0.0821 -0.1919 -0.0077
  458W        W 1455   4.768   0.154   3.298 -0.1072 -0.0661  0.3002
  459W        W 1456   6.304   2.450   5.298  0.0115 -0.0259  0.0669
  460W        W 1457   4.094   7.403   2.065 -0.0631 -0.0451 -0.0524
  461W        W 1458   0.328   6.517   5.561  0.0349 -0.2365  0.0783
  462W        W 1459   3.528   4.896   0.487 -0.0068  0.1266  0.4062
  463W        W 1460   3.792   0.730   1.098 -0.0919  0.2972  0.1133
  464W        W 1461   2.256   1.013   2.106  0.2072 -0.4869 -0.2305
  465W        W 1462   0.731   4.581   0.697  0.1072  0.1372  0.0631
  466W        W 1463   4.085   6.577   5.928  0.1159  0.2106 -0.1619
  467W        W 1464   5.124   1.715   3.460 -0.2910 -0.1333  0.0197
  468W        W 1465   6.660   4.202   3.748  0.0968  0.0131  0.1242
  469W        W 1466   1.607   4.572   7.493 -0.0798 -0.1756 -0.1153
  470W        W 1467   6.317   2.540   1.066  0.0530 -0.2232  0.4797
  471W        W 1468   4.640   4.082   7.599 -0.1507 -0.3651 -0.1319
  472W        W 1469   6.034   1.858   6.601 -0.0311 -0.0314  0.4347
  473W        W 1470   4.000   5.975   1.280 -0.3242  0.3471  0.2061
  474W        W 1471   6.209   4.834   3.335 -0.0123  0.0041 -0.1710
  475W        W 1472   1.558   1.378   1.120  0.1096 -0.1086 -0.1048
  476W        W 1473   7.597   3.971   1.150 -0.1569 -0.0415  0.0480
  477W        W 1474   2.854   4.363   5.365 -0.0901  0.1307  0.2385
  478W        W 1475   7.244   6.198   3.821 -0.0801 -0.2232  0.0313
  479W        W 1476   4.277   4.276   7.104  0.2747  0.1857  0.0148
  480W        W 1477   0.360   1.945   6.104 -0.0902 -0.4295  0.0678
  481W        W 1478   5.095   2.466   5.866 -0.0033  0.0998 -0.0568
  482W        W 1479   4.057   5.359   4.077 -0.3630  0.0092  0.2747
  483W        W 1480   1.193   5.578   6.491 -0.0748  0.1522 -0.2479
  484W        W 1481   6.729   1.542   3.174  0.1459 -0.5066 -0.0135
  485W        W 1482   0.840   1.490   2.512 -0.0082  0.1913 -0.1534
  486W        W 1483   5.265   4.866   0.009  0.2009 -0.2267  0.1195
  487W        W 1484   0.996   3.397   0.662  0.0906 -0.3112 -0.1686
  488W        W 1485   4.350   4.137   4.696  0.1513  0.0726  0.2784
  489W        W 1486   6.880   1.859   1.695  0.2229  0.0115  0.0177
  490W        W 1487   5.304   4.806   5.246  0.1019  0.3752  0.1036
  491W        W 1488   5.010   1.102   6.875 -0.3975  0.0041 -0.1698
  492W        W 1489   4.520   0.389   5.686 -0.0656 -0.0279 -0.1801
  493W        W 1490   5.017   0.349   2.868 -0.1913  0.2015 -0.2951
  494W        W 1491   5.206   6.105   3.276 -0.1220 -0.0279 -0.2332
  495W        W 1492   5.599   3.824   4.589 -0.1644 -0.1326 -0.0734
  496W        W 1493   4.667   3.602   1.849 -0.0737 -0.2328 -0.2415
  497W        W 1494   0.818   6.686   5.523 -0.1847  0.3064  0.3532
  498W        W 1495   6.503   0.131   5.714  0.1129 -0.0511 -0.0012
  499W        W 1496   2.084   0.743   4.389  0.2732  0.0806  0.0465
  500W        W 1497   4.423   3.100   3.055 -0.0408 -0.0289  0.0515
  501W        W 1498   5.583   4.536   2.509 -0.0433  0.0123  0.0424
  502W        W 1499   3.567   2.903   3.139 -0.1242 -0.0274 -0.1304
  503W        W 1500   4.434   0.639   4.079 -0.0487  0.2212 -0.0149
  504W        W 1501   3.638   7.122   7.384 -0.3264 -0.1135  0.0344
  505W        W 1502   2.059   4.427   6.953 -0.1078  0.3110  0.0136
  506W        W 1503   2.493   2.310   6.897 -0.0582 -0.2563  0.1037
  507W        W 1504   4.724   7.488   1.269 -0.0829  0.0932 -0.1633
  508W        W 1505   3.806   3.180   0.573  0.3624 -0.3361  0.0177
  509W        W 1506   3.552   4.907   5.359 -0.0146 -0.0112  0.1432
  510W        W 1507   1.008   1.111   2.216  0.0325  0.0593  0.0273
  511W        W 1508   3.325   4.132   2.109  0.1213 -0.3129 -0.0478
  512W        W 1509   5.407   1.570   1.725 -0.0636  0.0897  0.0381
  513W        W 1510   2.691   1.551   2.798 -0.1159 -0.2693 -0.1034
  514W        W 1511   2.854   7.263   6.583 -0.3061  0.1793 -0.0209
  515W        W 1512   2.510   4.489   2.606 -0.1284 -0.1119 -0.1892
  516W        W 1513   4.199   2.328   0.050  0.0755  0.0509 -0.0291
  517W        W 1514   3.961   3.083   3.477 -0.0723  0.3888 -0.0990
  518W        W 1515   3.861   4.087   2.905  0.1637 -0.0616 -0.1423
  519W        W 1516   0.753   6.416   4.339 -0.0361  0.2849 -0.0341
  520W        W 1517   5.952   4.939   0.795  0.0552 -0.1311  0.2093
  521W        W 1518   5.217   3.325   2.884 -0.4104  0.0265 -0.2312
  522W        W 1519   0.788   5.782   5.336  0.0280  0.4029 -0.1091
  523W        W 1520   2.042   1.690   0.736  0.2926 -0.0756 -0.2109
  524W        W 1521   5.949   4.502   2.943 -0.0132  0.1605  0.0097
  525W        W 1522   5.902   6.660   6.102  0.1266  0.2460 -0.0876
  526W        W 1523   4.878   0.797   4.109  0.2862  0.3098  0.1057
  527W        W 1524   1.866   0.822   7.292  0.0676  0.1948  0.0789
  528W        W 1525   1.240   6.072   3.863  0.1526  0.1284 -0.0358
  529W        W 1526   1.113   1.422   4.326  0.1667 -0.0433 -0.1894
  530W        W 1527   0.819   0.200   6.584  0.0409 -0.1861 -0.1073
  531W        W 1528   4.105   5.135   5.939  0.2747 -0.1486  0.1193
  532W        W 1529   4.935   4.049   0.628  0.0901  0.2304  0.0976
  533W        W 1530   0.549   2.834   6.089 -0.0453 -0.0021  0.0220
  534W        W 1531   4.465   0.178   5.168 -0.2520  0.0664  0.3649
  535W        W 1532   6.624   1.921   5.798  0.1432  0.0369  0.0098
  536W        W 1533   3.616   5.562   3.045 -0.0587  0.2449 -0.0176
  537W        W 1534   2.051   0.622   5.621 -0.2402 -0.0260  0.0448
  538W        W 1535   1.629   4.514   2.765  0.1856 -0.0243  0.1305
  539W        W 1536   6.025   5.575   1.391 -0.4207  0.1996 -0.0273
  540W        W 1537   7.265   7.264   4.066 -0.1698 -0.1303  0.1726
  541W        W 1538   6.316   5.583   1.880 -0.0218  0.2287 -0.0868
  542W        W 1539   1.084   2.051   6.530 -0.0571  0.5243  0.1939
  543W        W 1540   4.442   2.438   4.973  0.0449  0.1274  0.0202
  544W        W 1541   7.329   7.129   5.485  0.0470  0.1745  0.1238
  545W        W 1542   2.806   2.015   1.319  0.1021 -0.0725  0.1947
  546W        W 1543   2.640   2.508   4.245  0.1650  0.1189 -0.1573
  547W        W 1544   5.265   6.400   6.907 -0.0244 -0.0673 -0.2257
  548W        W 1545   4.437   3.236   2.013  0.0256  0.0427  0.0541
  549W        W 1546   4.998   7.128   6.695 -0.0861  0.0999  0.0854
  550W        W 1547   6.307   1.747   1.630  0.0889 -0.0964 -0.1055
  551W        W 1548   6.099   2.821   2.895  0.0887 -0.0616  0.1015
  552W        W 1549   0.748   7.271   5.440  0.1486  0.0955  0.0109
  553W        W 1550   0.334   6.477   4.013 -0.1880  0.0419 -0.0247
  554W        W 1551   3.021   3.138   3.964 -0.0056 -0.3662  0.0045
  555W        W 1552   3.497   4.089   2.536  0.3274  0.1689 -0.0818
  556W        W 1553   2.025   6.457   6.968  0.2365 -0.2155  0.0992
  557W        W 1554   4.002   2.790   4.881 -0.3745  0.0223 -0.0844
  558W        W 1555   6.375   1.850   3.446  0.1213 -0.1968  0.0052
  559W        W 1556   2.621   0.408   2.603 -0.0306  0.3485  0.1564
  560W        W 1557   6.232   3.721   5.178  0.0531  0.0697  0.1340
  561W        W 1558   6.882   0.193   5.330  0.1127 -0.0030  0.0851
  562W        W 1559   5.489   7.254   4.826  0.1994 -0.0278  0.0210
  563W        W 1560   4.192   6.415   2.033 -0.3484  0.0737 -0.3752
  564W        W 1561   4.758   7.527   2.612 -0.0395 -0.1206  0.0182
  565W        W 1562   5.470   7.356   1.582 -0.0709 -0.0068  0.0035
  566W        W 1563   4.580   4.271   3.756 -0.0329 -0.0211  0.1733
  567W        W 1564   3.725   6.234   4.605 -0.4091  0.3430 -0.0089
  568W        W 1565   4.140   5.596   5.549 -0.0670 -0.0189 -0.1009
  569W        W 1566   5.538   3.682   0.849 -0.0375 -0.0474 -0.1234
  570W        W 1567   0.907   6.190   3.019  0.2030 -0.1525  0.1635
  571W        W 1568   0.519   2.675   3.667 -0.0748 -0.0696 -0.3091
  572W        W 1569   2.088   2.712   0.336 -0.0766  0.2867 -0.1488
  573W        W 1570   4.118   2.459   1.866  0.2308  0.2828 -0.1744
  574W        W 1571   2.816   3.346   2.005  0.0168  0.0471 -0.0491
  575W        W 1572   7.064   5.996   5.058 -0.2997 -0.2314 -0.2478
  576W        W 1573   5.991   7.165   2.023 -0.0518  0.0648  0.1856
  577W        W 1574   7.570   4.629   6.500  0.3251  0.2458  0.1039
  578W        W 1575   3.260   1.390   5.886 -0.1014  0.3460  0.4086
  579W        W 1576   0.813   2.022   1.124  0.1034  0.2136  0.3441
  580W        W 1577   3.312   1.502   5.366 -0.0729 -0.0211  0.0832
  581W        W 1578   6.586   4.401   6.760 -0.3608  0.1057  0.0193
  582W        W 1579   7.271   2.869   1.313 -0.2397 -0.0683 -0.4045
  583W        W 1580   7.356   3.266   4.046  0.3534 -0.1884 -0.0793
  584W        W 1581   4.883   2.317   4.487 -0.3426  0.0746 -0.4393
  585W        W 1582   7.335   4.338   0.338  0.1067 -0.1617 -0.0622
  586W        W 1583   3.488   3.816   6.730  0.0159 -0.0193 -0.0944
  587W        W 1584   6.605   5.236   7.210 -0.1211  0.2152  0.0465
  588W        W 1585   0.289   0.792   4.648 -0.1349 -0.0968  0.2650
  589W        W 1586   1.277   0.719   7.259  0.1386  0.1801 -0.0770
  590W        W 1587   2.833   6.031   5.200  0.4071  0.4220  0.1880
  591W        W 1588   4.000   2.116   4.352  0.0589  0.0672  0.2614
  592W        W 1589   4.991   3.047   3.838  0.1010  0.0895  0.0777
  593W        W 1590   6.145   4.186   7.173  0.1025 -0.3127  0.0660
  594W        W 1591   1.434   0.817   6.400  0.1019  0.1879  0.1398
  595W        W 1592   3.926   3.497   3.756 -0.1264  0.1008  0.0451
  596W        W 1593   2.177   0.420   5.179  0.3188  0.0664 -0.0085
  597W        W 1594   4.879   5.232   3.743  0.1841 -0.0064  0.0416
  598W        W 1595   4.984   1.135   0.404  0.0126 -0.0112 -0.1982
  599W        W 1596   5.244   0.039   3.536  0.2047  0.0197  0.0244
  600W        W 1597   1.659   6.996   3.003 -0.4430 -0.1715 -0.1738
  601W        W 1598   6.036   6.623   3.678  0.0623 -0.0375 -0.0507
  602W        W 1599   2.351   6.009   6.168  0.4099  0.1235  0.0330
  603W        W 1600   3.895   5.599   7.543  0.4307 -0.0999  0.2888
  604W        W 1601   2.059   7.356   6.648  0.1147  0.2330  0.1219
  605W        W 1602   4.954   4.221   2.841 -0.1730  0.0600 -0.1991
  606W        W 1603   2.980   6.153   3.941 -0.0204 -0.1012 -0.0118
  607W        W 1604   6.082   1.979   4.846  0.1745 -0.0966 -0.0222
  608W        W 1605   7.515   6.068   4.798 -0.1740 -0.1071 -0.1754
  609W        W 1606   4.314   0.040   6.275 -0.2009  0.2868 -0.2674
  610W        W 1607   0.612   4.802   0.274 -0.0573  0.0961  0.0011
  611W        W 1608   4.160   4.670   1.062  0.1839  0.4112 -0.4500
  612W        W 1609   7.325   4.400   0.844  0.1397 -0.0987 -0.0409
  613W        W 1610   4.577   6.551   3.781 -0.1035  0.2551 -0.0058
  614W        W 1611   3.135   2.680   0.494 -0.0753 -0.0999  0.1340
  615W        W 1612   0.605   2.701   2.527  0.1826 -0.1625  0.2774
  616W        W 1613   6.930   2.434   1.680  0.0840 -0.0490 -0.0344
  617W        W 1614   5.045   6.638   2.514 -0.1020  0.0045  0.0048
  618W        W 1615   1.409   0.530   1.943 -0.0009 -0.3116  0.3800
  619W        W 1616   0.982   1.433   5.258  0.0176 -0.4582 -0.3238
  620W        W 1617   7.015   2.656   6.247 -0.1379  0.0314 -0.3406
  621W        W 1618   0.399   1.015   5.136 -0.0292 -0.1255 -0.1996
  622W        W 1619   1.483   1.503   6.602 -0.1386 -0.2596  0.0869
  623W        W 1620   4.912   2.094   5.599  0.1890 -0.1726  0.1832
  624W        W 1621   4.108   5.222   1.722 -0.3806 -0.0103  0.0254
  625W        W 1622   3.786   7.105   5.120 -0.1206  0.1346  0.2101
  626W        W 1623   3.337   0.558   1.398  0.1055  0.3929  0.0073
  627W        W 1624   4.565   2.352   3.277 -0.1862  0.1598  0.0445
  628W        W 1625   1.145   5.229   6.874 -0.0909  0.4406  0.0661
  629W        W 1626   4.465   2.929   7.326  0.0805 -0.0725 -0.2243
  630W        W 1627   6.702   6.888   7.447  0.1005  0.1069  0.0928
  631W        W 1628   7.403   3.312   5.013 -0.5436 -0.0477 -0.2178
  632W        W 1629   2.668   1.565   4.682 -0.0508 -0.1625 -0.2596
  633W        W 1630   3.445   3.600   0.416  0.1624  0.2438  0.1131
  634W        W 1631   5.622   3.136   0.703 -0.0438  0.1858  0.2990
  635W        W 1632   5.341   2.188   6.854  0.2776 -0.0006 -0.0499
  636W        W 1633   5.228   0.274   4.022  0.2359 -0.0894  0.0587
  637W        W 1634   3.095   1.005   4.218 -0.1138  0.0037 -0.3458
  638W        W 1635   0.740   1.649   6.081 -0.1436  0.1077  0.3109
  639W        W 1636   0.370   0.574   3.587 -0.1714 -0.1724  0.4172
  640W        W 1637   7.069   3.196   7.127  0.1985 -0.0579 -0.0186
  641W        W 1638   1.424   6.675   6.349 -0.2553  0.0014  0.1785
  642W        W 1639   4.336   6.049   3.645 -0.2415  0.0473  0.0588
  643W        W 1640   1.214   6.009   4.827 -0.2204  0.0063 -0.0262
  644W        W 1641   5.287   1.578   1.271  0.1187  0.1370  0.2961
  645W        W 1642   4.612   3.369   1.006 -0.2561  0.0070 -0.3278
  646W        W 1643   3.163   5.599   5.001 -0.0233  0.0279 -0.1080
  647W        W 1644   2.587   5.361   2.985 -0.2198  0.1648 -0.1600
  648W        W 1645   3.215   5.980   2.006  0.3187 -0.4127 -0.1498
  649W        W 1646   6.337   2.146   0.796  0.0637  0.0370 -0.1638
  650W        W 1647   3.746   2.978   3.911  0.2127  0.0729 -0.0138
  651W        W 1648   2.270   5.525   5.467 -0.0212 -0.0424 -0.0042
  652W        W 1649   6.715   1.162   4.829 -0.0705 -0.0273 -0.1465
  653W        W 1650   3.930   0.794   4.559 -0.0706 -0.2877  0.1620
  654W        W 1651   2.398   0.944   5.678  0.1442  0.0444 -0.1725
  655W        W 1652   4.696   4.920   0.100  0.0590  0.0137  0.0248
  656W        W 1653   2.021   3.270   6.871  0.1783 -0.0342  0.0965
  657W        W 1654   5.437   2.267   1.292 -0.0841  0.1607  0.1458
  658W        W 1655   3.330   1.375   1.979  0.1793 -0.2407 -0.0579
  659W        W 1656   4.094   2.177   6.333  0.1297 -0.2303 -0.1609
  660W        W 1657   4.560   4.405   0.725 -0.0230  0.2472 -0.2421
  661W        W 1658   5.207   0.490   3.302  0.2267 -0.1038 -0.0478
  662W        W 1659   1.008   2.441   1.480  0.4347 -0.0740 -0.3331
  663W        W 1660   5.413   3.379   4.762  0.2392 -0.4961 -0.2666
  664W        W 1661   1.780   4.558   6.171  0.0529  0.0716 -0.0597
  665W        W 1662   1.974   5.013   2.778  0.1600 -0.0190  0.1095
  666W        W 1663   1.311   1.292   4.815 -0.0016  0.0613  0.4790
  667W        W 1664   1.526   2.564   7.265  0.2877 -0.2189 -0.2429
  668W        W 1665   2.779   1.821   0.041 -0.1290  0.3276 -0.0731
  669W        W 1666   5.523   3.606   7.308 -0.1213 -0.2092  0.1765
  670W        W 1667   5.516   0.328   1.525 -0.1462 -0.0736 -0.0219
  671W        W 1668   7.139   5.812   4.578 -0.1350 -0.0679  0.1270
  672W        W 1669   2.367   4.439   0.132 -0.1843  0.3513 -0.0444
  673W        W 1670   5.682   3.331   4.389  0.0822  0.1496  0.0119
  674W        W 1671   7.609   4.319   3.990  0.1200  0.1438  0.2084
  675W        W 1672   3.505   2.824   4.731 -0.1424  0.2657 -0.1117
  676W        W 1673   0.427   4.692   5.879 -0.0102  0.0943 -0.0129
  677W        W 1674   6.871   4.385   3.320  0.0433 -0.0196  0.1585
  678W        W 1675   1.413   1.124   1.902  0.2727 -0.0699  0.0515
  679W        W 1676   1.907   1.040   2.551  0.2353  0.2949 -0.0129
  680W        W 1677   0.111   4.207   1.944 -0.0013 -0.2503 -0.0798
  681W        W 1678   6.463   0.664   1.585  0.2994  0.2686 -0.2143
  682W        W 1679   1.653   2.002   5.903 -0.2378 -0.3097  0.3151
  683W        W 1680   6.281   2.273   6.612  0.2865 -0.0744 -0.0840
  684W        W 1681   4.549   3.698   4.600  0.2060 -0.3153  0.1670
  685W        W 1682   6.304   0.539   2.011  0.0050 -0.1513  0.0571
  686W        W 1683   5.521   3.714   1.744  0.3128  0.1074  0.1032
  687W        W 1684   3.516   7.186   4.424 -0.1421  0.0995  0.0932
  688W        W 1685   7.355   3.076   5.449 -0.1302  0.0046  0.2118
  689W        W 1686   2.206   5.854   3.394  0.0003  0.0862 -0.3053
  690W        W 1687   1.612   3.406   5.440 -0.2548  0.1864  0.1227
  691W        W 1688   7.434   2.113   6.506  0.1978  0.0714 -0.0187
  692W        W 1689   3.294   7.362   7.134 -0.1703 -0.1249 -0.0696
  693W        W 1690   2.200   2.075   1.069 -0.2563 -0.2414 -0.1897
  694W        W 1691   0.038   3.922   7.340 -0.0646  0.1880  0.1490
  695W        W 1692   4.855   1.076   2.047  0.1612  0.0349 -0.1577
  696W        W 1693   6.301   3.366   4.338 -0.1882 -0.2063  0.2228
  697W        W 1694   5.474   4.260   5.822  0.0764 -0.1129  0.1127
  698W        W 1695   2.074   1.678   4.023  0.0006 -0.1137 -0.0838
  699W        W 1696   4.339   1.973   5.125  0.1371 -0.0637  0.0577
  700W        W 1697   5.927   2.001   3.161 -0.0086  0.3131  0.2380
  701W        W 1698   5.403   5.210   5.831  0.0901  0.3027  0.0977
  702W        W 1699   5.157   2.292   7.276 -0.0308 -0.2419 -0.2463
  703W        W 1700   7.434   5.582   6.758  0.1061  0.1023  0.2931
  704W        W 1701   2.518   5.665   6.505 -0.2393  0.1004  0.0267
  705W        W 1702   2.746   3.407   4.779 -0.0957 -0.0048 -0.0040
  706W        W 1703   3.102   0.090   6.295 -0.1648  0.2167  0.0614
  707W        W 1704   3.642   5.303   4.399  0.1251  0.2997 -0.0691
  708W        W 1705   4.121   0.441   5.389  0.2062 -0.5717 -0.2475
  709W        W 1706   6.699   7.625   4.849 -0.2093  0.1224 -0.0573
  710W        W 1707   4.169   5.888   6.414 -0.2881  0.1764 -0.3160
  711W        W 1708   5.516   1.892   6.532  0.3341  0.0042 -0.0652
  712W        W 1709   6.194   0.477   4.843 -0.0662 -0.1393  0.1660
  713W        W 1710   6.579   1.876   2.133 -0.4215  0.0868 -0.0976
  714W        W 1711   5.628   1.155   6.275  0.5901  0.1145  0.0266
  715W        W 1712   6.799   6.316   2.308  0.0952  0.1376 -0.1084
  716W        W 1713   0.183   4.815   6.994  0.2002  0.1372  0.1958
  717W        W 1714   4.584   6.457   0.056 -0.1451  0.2130 -0.2565
  718W        W 1715   0.155   1.925   0.211 -0.0780 -0.1745  0.2336
  719W        W 1716   5.951   6.702   2.180  0.1206 -0.0473  0.0472
  720W        W 1717   3.699   0.433   5.823  0.3615  0.1500 -0.2996
  721W        W 1718   2.111   5.480   6.714 -0.0906  0.1081 -0.0434
  722W        W 1719   2.639   2.519   1.288  0.1773  0.0948 -0.1109
  723W        W 1720   7.368   2.167   5.197  0.0448  0.0476 -0.0826
  724W        W 1721   1.784   6.777   3.803  0.1979 -0.1201 -0.1268
  725W        W 1722   4.992   6.346   6.512  0.0827  0.1179  0.3206
  726W        W 1723   0.699   6.096   4.732 -0.0082 -0.0550 -0.0587
  727W        W 1724   6.451   2.880   0.041 -0.1620  0.0604 -0.0275
  728W        W 1725   7.318   2.319   3.170 -0.0777  0.0234 -0.1685
  729W        W 1726   5.765   1.462   6.729 -0.3166 -0.1678 -0.1203
  730W        W 1727   0.003   6.735   4.761 -0.1376 -0.2010 -0.2093
  731W        W 1728   5.282   1.494   6.334  0.1900 -0.2951 -0.0250
  732W        W 1729   1.102   0.484   4.410 -0.1838 -0.2149  0.1942
  733W        W 1730   7.450   2.947   2.460  0.0995 -0.1132 -0.2254
  734W        W 1731   6.752   5.474   6.256 -0.0007 -0.0326 -0.0052
  735W        W 1732   6.972   0.730   3.053  0.2397 -0.4514  0.3527
  736W        W 1733   4.706   4.001   2.276 -0.0645 -0.0309  0.0207
  737W        W 1734   5.072   0.973   1.105  0.1623  0.3181 -0.2415
  738W        W 1735   2.848   3.995   0.654  0.3787 -0.4124  0.4513
  739W        W 1736   2.745   0.633   0.949 -0.1944  0.0141 -0.1446
  740W        W 1737   3.157   4.409   0.635  0.0580  0.1269  0.0232
  741W        W 1738   5.150   5.018   6.778  0.0771  0.2404 -0.1445
  742W        W 1739   1.134   4.720   6.880  0.0723 -0.2098 -0.1613
  743W        W 1740   3.696   7.297   3.346 -0.1799 -0.2770  0.0839
  744W        W 1741   0.841   1.498   7.435  0.3710  0.0611  0.2667
  745W        W 1742   0.976   4.248   0.287  0.1354  0.2505 -0.0700
  746W        W 1743   5.016   4.407   5.390  0.0592 -0.1935 -0.0838
  747W        W 1744   3.163   4.718   5.114 -0.0754  0.1187  0.2379
  748W        W 1745   3.553   2.222   5.592 -0.2491 -0.2693 -0.0842
  749W        W 1746   3.926   2.418   0.450  0.1969  0.0366 -0.3226
  750W        W 1747   4.152   5.827   0.322  0.2198 -0.0201 -0.1572
  751W        W 1748   0.485   0.119   4.071 -0.0090  0.2062 -0.0892
  752W        W 1749   3.668   3.764   0.025 -0.0691  0.1994 -0.0116
  753W        W 1750   4.320   1.490   7.366  0.0357 -0.0693 -0.3480
  754W        W 1751   6.584   2.511   0.630  0.1845 -0.2342 -0.2969
  755W        W 1752   6.583   4.122   3.005 -0.1637  0.0736  0.2070
  756W        W 1753   7.276   5.352   6.327 -0.1216  0.2473 -0.4930
  757W        W 1754   4.120   0.628   7.099  0.2998  0.1346  0.2059
  758W        W 1755   6.656   6.448   5.675  0.0586 -0.0619 -0.2223
  759W        W 1756   6.624   3.448   2.496 -0.0299  0.1360  0.3951
  760W        W 1757   1.456   3.299   6.304  0.0190  0.1340  0.3017
  761W        W 1758   7.301   0.934   4.773 -0.0923  0.0306  0.0961
  762W        W 1759   6.244   6.099   2.348  0.1336 -0.0486  0.1012
  763W        W 1760   1.296   4.759   6.002  0.0820  0.0376  0.0651
  764W        W 1761   1.852   3.546   6.449 -0.0100 -0.3265  0.0955
  765W        W 1762   1.260   6.393   4.453  0.1248  0.1700 -0.3355
  766W        W 1763   2.844   0.474   6.313  0.0329 -0.0570  0.2746
  767W        W 1764   0.192   3.301   5.889  0.0229  0.0105 -0.1008
  768W        W 1765   3.562   3.036   6.051  0.1977  0.1371  0.1175
  769W        W 1766   0.146   1.270   6.715  0.1992 -0.1497  0.0402
  770W        W 1767   5.322   0.690   5.051  0.2400 -0.1263  0.0009
  771W        W 1768   5.186   6.106   4.254  0.1094  0.0650 -0.0140
  772W        W 1769   4.867   2.089   0.042 -0.0430  0.0029 -0.0613
  773W        W 1770   5.279   4.358   0.392 -0.0795  0.0792 -0.0985
  774W        W 1771   4.991   4.936   0.536 -0.0188 -0.1903  0.0226
  775W        W 1772   6.690   2.401   6.990  0.2948 -0.0512 -0.1887
  776W        W 1773   0.184   1.849   5.040  0.1096  0.0440  0.0093
  777W        W 1774   5.710   4.394   6.278  0.0810 -0.1612  0.3037
  778W        W 1775   2.695   3.598   7.390  0.2811 -0.1138  0.0306
  779W        W 1776   5.720   1.203   1.538  0.0920  0.3045 -0.2408
  780W        W 1777   5.722   0.875   3.651 -0.5976  0.0924 -0.3539
  781W        W 1778   5.284   0.663   0.287  0.0992  0.0410  0.0629
  782W        W 1779   5.473   2.077   3.670 -0.2517 -0.0919  0.1625
  783W        W 1780   6.149   2.047   7.085  0.0474 -0.3783 -0.0183
  784W        W 1781   7.572   3.624   0.767  0.4447 -0.0895 -0.0103
  785W        W 1782   0.203   1.386   3.209 -0.0063  0.0757  0.2859
  786W        W 1783   4.168   6.407   4.778 -0.1450 -0.2674 -0.1692
  787W        W 1784   4.311   4.558   6.728 -0.0057 -0.0742  0.2197
  788W        W 1785   5.276   3.382   5.927  0.0315  0.0005 -0.3219
  789W        W 1786   1.513   5.940   4.457  0.0520  0.2355  0.0416
  790W        W 1787   2.469   1.434   6.408 -0.0598 -0.1253  0.0275
  791W        W 1788   0.889   3.908   0.728 -0.4013 -0.0461  0.4458
  792W        W 1789   5.854   4.264   4.476  0.1122  0.4576 -0.1768
  793W        W 1790   0.659   1.641   0.222  0.5729  0.2148  0.1040
  794W        W 1791   2.035   2.288   7.204 -0.0285 -0.0083 -0.1292
  795W        W 1792   4.478   7.503   5.806  0.2149 -0.1135  0.0846
  796W        W 1793   6.525   5.094   4.697 -0.1074 -0.0779 -0.0173
  797W        W 1794   4.538   6.595   5.641 -0.0642  0.1599 -0.0790
  798W        W 1795   3.314   6.080   5.361  0.1306  0.1270 -0.1214
  799W        W 1796   4.523   1.762   5.508  0.1273  0.0745  0.0941
  800W        W 1797   3.219   3.767   1.307  0.2297  0.1135 -0.1163
  801W        W 1798   3.552   3.328   3.398  0.0912  0.3246  0.0510
  802W        W 1799   4.459   5.377   2.802 -0.2990  0.0283  0.1959
  803W        W 1800   5.129   3.171   0.929 -0.0266  0.0238  0.1221
  804W        W 1801   2.906   2.111   3.921 -0.1730 -0.1381  0.2323
  805W        W 1802   6.141   1.057   4.711  0.0716 -0.0495  0.1784
  806W        W 1803   0.540   4.231   6.170  0.0524  0.1022 -0.1003
  807W        W 1804   3.802   3.263   5.695 -0.3921 -0.2482  0.2007
  808W        W 1805   7.214   5.094   5.895 -0.0022 -0.0626 -0.0328
  809W        W 1806   1.866   3.064   0.721  0.2538 -0.0119  0.1429
  810W        W 1807   6.761   2.507   2.580  0.0553  0.1230  0.0956
  811W        W 1808   4.507   0.149   0.062  0.0921 -0.2556  0.0417
  812W        W 1809   1.099   2.810   1.113  0.0131 -0.2714 -0.1419
  813W        W 1810   4.783   2.282   2.534  0.2275  0.2409  0.1067
  814W        W 1811   2.435   1.903   2.522 -0.3429  0.0782  0.2470
  815W        W 1812   6.440   3.802   1.705  0.2849 -0.0532  0.3279
  816W        W 1813   1.302   4.119   1.703  0.1299 -0.2223 -0.2394
  817W        W 1814   1.182   0.590   2.968 -0.2478 -0.2470 -0.0097
  818W        W 1815   0.010   4.101   0.623 -0.1547 -0.1636  0.0074
  819W        W 1816   7.117   4.875   5.457 -0.4063  0.0569 -0.3210
  820W        W 1817   2.656   4.106   5.781 -0.2399  0.0780 -0.1030
  821W        W 1818   3.180   5.064   7.003 -0.0659 -0.0181 -0.1611
  822W        W 1819   7.065   0.134   2.188  0.0143  0.1272 -0.1726
  823W        W 1820   3.791   5.110   2.184  0.1929 -0.0438  0.2787
  824W        W 1821   5.897   5.184   1.739 -0.0254 -0.0234  0.2413
  825W        W 1822   1.299   1.820   1.176 -0.1168  0.2570  0.0551
  826W        W 1823   5.889   7.400   5.846 -0.2777  0.2918  0.3613
  827W        W 1824   0.845   5.072   6.471  0.1937  0.0927  0.1614
  828W        W 1825   5.340   5.200   7.225  0.1526  0.0248  0.0212
  829W        W 1826   6.717   6.112   7.355  0.3634 -0.0061 -0.3072
  830W        W 1827   3.956   4.300   0.273 -0.2739 -0.1643  0.0538
  831W        W 1828   4.010   1.376   5.810 -0.2694  0.0213  0.4105
  832W        W 1829   7.627   3.371   3.012  0.1224  0.1701  0.3703
  833W        W 1830   1.659   1.666   4.805  0.0432  0.0421 -0.0122
  834W        W 1831   5.531   2.770   2.699  0.2427  0.1596 -0.1571
  835W        W 1832   3.267   1.800   4.845 -0.2163  0.0208 -0.0687
  836W        W 1833   4.243   0.612   1.301 -0.0940 -0.3218 -0.2685
  837W        W 1834   2.869   3.274   0.632  0.1368 -0.5020 -0.2672
  838W        W 1835   3.066   5.537   3.246 -0.3134 -0.2891 -0.0544
  839W        W 1836   5.295   3.425   1.293  0.0495 -0.0426 -0.0263
  840W        W 1837   3.618   1.106   5.585  0.2625  0.0117  0.1462
  841W        W 1838   4.344   4.182   1.220  0.3115 -0.0002  0.0795
  842W        W 1839   1.479   0.260   5.012  0.1755  0.2408  0.1881
  843W        W 1840   6.961   3.548   6.726  0.1386 -0.3414  0.1498
  844W        W 1841   2.823   2.337   1.769  0.0719 -0.0524 -0.2822
  845W        W 1842   7.415   2.806   4.107  0.2255 -0.0072  0.0971
  846W        W 1843   5.356   5.031   2.520  0.1489 -0.4178 -0.0751
  847W        W 1844   4.609   2.649   0.222  0.0323  0.1203 -0.2185
  848W        W 1845   1.377   0.967   0.567  0.1249 -0.0429  0.1188
  849W        W 1846   5.153   6.775   4.692 -0.2011  0.0065  0.0714
  850W        W 1847   3.319   7.366   6.620 -0.0059  0.0021 -0.0934
  851W        W 1848   7.353   2.124   0.900  0.0049  0.2322  0.4696
  852W        W 1849   2.398   1.121   4.530  0.2455 -0.0469 -0.0305
  853W        W 1850   1.026   4.249   6.873 -0.0227  0.1696 -0.1182
  854W        W 1851   1.526   1.688   7.433 -0.2757  0.1741  0.1739
  855W        W 1852   4.100   4.331   6.152 -0.1481 -0.0400  0.2313
  856W        W 1853   1.343   3.836   5.677  0.1059  0.0217 -0.1629
  857W        W 1854   5.290   4.113   4.973  0.1777  0.0468  0.0709
  858W        W 1855   2.528   0.223   5.624 -0.1383 -0.0032  0.0967
  859W        W 1856   0.547   7.300   2.171  0.0635 -0.0135 -0.0913
  860W        W 1857   7.370   0.451   6.045 -0.1915  0.1819 -0.0710
  861W        W 1858   2.913   7.087   2.868 -0.0274 -0.0856 -0.3086
  862W        W 1859   6.613   3.352   7.333 -0.1171 -0.0345  0.2290
  863W        W 1860   5.083   7.373   2.121  0.1175  0.2698  0.1028
  864W        W 1861   7.512   6.554   6.305 -0.1000  0.0989  0.1918
  865W        W 1862   5.961   2.183   2.037 -0.1263 -0.1815  0.1587
  866W        W 1863   0.219   1.942   5.530  0.0881 -0.0574  0.0670
  867W        W 1864   2.394   0.042   4.944  0.1854 -0.0727 -0.0763
  868W        W 1865   1.282   1.899   4.523 -0.1234 -0.1583  0.1068
  869W        W 1866   0.488   3.745   6.196  0.1074 -0.0334  0.0912
  870W        W 1867   4.359   4.654   3.442 -0.1927  0.0308 -0.1499
  871W        W 1868   3.117   5.243   5.332  0.0833  0.1881  0.0865
  872W        W 1869   7.105   5.171   3.836  0.1556 -0.0421  0.0019
  873W        W 1870   0.399   7.017   2.558 -0.0713 -0.3272  0.0589
  874W        W 1871   2.020   2.301   0.615 -0.1767 -0.1225  0.0247
  875W        W 1872   4.731   0.631   3.269 -0.0811 -0.2174 -0.4446
  876W        W 1873   6.983   6.168   4.257 -0.0189  0.2619 -0.0236
  877W        W 1874   2.766   2.940   5.007 -0.2248 -0.0640 -0.0613
  878W        W 1875   2.482   5.238   1.131 -0.0166 -0.0820  0.0391
  879W        W 1876   3.642   2.387   1.974  0.0751 -0.2192  0.0313
  880W        W 1877   1.267   1.686   6.149 -0.2240 -0.1501  0.0919
  881W        W 1878   5.651   5.893   3.060  0.0596 -0.0261  0.0660
  882W        W 1879   5.634   6.917   3.263 -0.3658  0.0380 -0.1082
  883W        W 1880   0.539   4.954   0.936  0.1629 -0.1226  0.1752
  884W        W 1881   2.962   6.421   5.507 -0.0326 -0.0212  0.2107
  885W        W 1882   5.843   2.358   1.035 -0.2168  0.0364 -0.3668
  886W        W 1883   5.309   2.080   1.747  0.1192 -0.0388 -0.1358
  887W        W 1884   5.547   6.872   3.744 -0.2284 -0.1350  0.1765
  888W        W 1885   5.682   0.323   5.943 -0.0692 -0.0688 -0.0192
  889W        W 1886   0.821   4.254   1.065 -0.1100  0.1677  0.0717
  890W        W 1887   1.324   1.887   3.524  0.0748  0.0920  0.0011
  891W        W 1888   5.166   3.372   4.211  0.1166 -0.0825 -0.1206
  892W        W 1889   4.471   5.572   3.836 -0.1529 -0.1503  0.2508
  893W        W 1890   5.214   4.396   6.326  0.2075  0.0010  0.2984
  894W        W 1891   3.119   1.465   0.066 -0.1296  0.0752 -0.0447
  895W        W 1892   1.536   0.084   7.293  0.0446  0.1987  0.0858
  896W        W 1893   3.062   1.824   0.486 -0.1386  0.3326 -0.1211
  897W        W 1894   2.311   5.908   5.121 -0.0112 -0.0746 -0.4179
  898W        W 1895   4.196   0.906   7.483  0.1719 -0.0101  0.4363
  899W        W 1896   3.034   5.704   6.393  0.0929  0.1350  0.1681
  900W        W 1897   1.484   2.421   5.613 -0.1400 -0.0051 -0.0689
  901W        W 1898   5.263   1.491   4.384  0.0704 -0.0605  0.2166
  902W        W 1899   3.136   5.210   6.442 -0.2724 -0.1727 -0.1181
  903W        W 1900   6.806   4.787   7.079 -0.0788  0.3223 -0.0126
  904W        W 1901   1.795   2.852   6.488 -0.0484  0.0183  0.0348
  905W        W 1902   7.488   2.341   5.648  0.1966 -0.4103  0.0576
  906W        W 1903   1.023   3.759   6.811 -0.0847  0.0448 -0.2099
  907W        W 1904   0.846   1.884   2.789  0.0468  0.0043 -0.1907
  908W        W 1905   5.213   1.670   0.254 -0.2608  0.0922 -0.0909
  909W        W 1906   3.751   6.460   2.499 -0.2843  0.3161  0.0662
  910W        W 1907   7.541   1.962   5.930  0.2985 -0.2046 -0.3695
  911W        W 1908   5.003   4.518   4.837 -0.2331  0.0732 -0.1159
  912W        W 1909   0.527   2.029   0.648  0.0952 -0.0393  0.2281
  913W        W 1910   7.016   0.805   5.109 -0.0097  0.1558  0.1073
  914W        W 1911   2.317   4.421   1.053 -0.0896  0.1327  0.2459
  915W        W 1912   0.646   4.637   1.280  0.2402  0.1055 -0.0457
  916W        W 1913   4.149   2.841   0.431  0.3877  0.0600  0.3093
  917W        W 1914   5.262   1.650   6.911  0.3576 -0.3146 -0.1300
  918W        W 1915   6.850   7.195   3.640 -0.1268  0.6439  0.0867
  919W        W 1916   1.902   6.609   5.533 -0.1186 -0.0304  0.1064
  920W        W 1917   3.397   3.448   3.895 -0.0915  0.3501  0.0681
  921W        W 1918   2.185   4.154   5.468  0.0250 -0.0279  0.4662
  922W        W 1919   0.504   0.886   6.009 -0.0484  0.0919  0.0386
  923W        W 1920   3.220   6.446   6.581 -0.0958 -0.0318  0.0596
  924W        W 1921   3.875   0.507   3.647  0.3419  0.2718 -0.1868
  925W        W 1922   2.680   0.620   4.268  0.0180  0.1298  0.0548
  926W        W 1923   4.290   0.383   6.688 -0.2795 -0.1324  0.1623
  927W        W 1924   1.016   3.864   2.006 -0.0535 -0.2922 -0.1443
  928W        W 1925   1.499   4.915   5.525  0.0529 -0.0828  0.1031
  929W        W 1926   4.351   2.255   6.754 -0.3432  0.1600 -0.4534
  930W        W 1927   7.171   1.243   1.876 -0.0191 -0.0491  0.3511
  931W        W 1928   4.472   2.261   4.232  0.2235  0.0533  0.1220
  932W        W 1929   2.563   1.013   1.293  0.3369 -0.1372 -0.3217
  933W        W 1930   3.462   6.098   6.294 -0.1062 -0.2126  0.2163
  934W        W 1931   3.934   1.674   6.230 -0.0368 -0.2525 -0.1220
  935W        W 1932   4.940   5.499   7.030 -0.1203 -0.0467  0.0213
  936W        W 1933   1.578   5.638   4.931  0.1993  0.1197  0.1571
  937W        W 1934   4.855   4.128   1.165  0.0734 -0.1426  0.0315
  938W        W 1935   0.549   4.170   0.467  0.2014  0.2968 -0.1673
  939W        W 1936   2.977   7.426   1.938 -0.1920  0.0948 -0.0822
  940W        W 1937   0.504   3.323   1.387 -0.2742 -0.2749 -0.0885
  941W        W 1938   7.016   3.088   3.648 -0.3392  0.1235 -0.0477
  942W        W 1939   4.249   0.198   1.776  0.0513 -0.0967 -0.0838
  943W        W 1940   2.889   2.729   0.933  0.1877  0.0780  0.1116
  944W        W 1941   1.605   4.717   0.874 -0.0887 -0.0316 -0.0461
  945W        W 1942   4.454   4.595   4.336 -0.2881  0.1341 -0.0321
  946W        W 1943   1.667   3.405   1.337  0.0871  0.1764 -0.0927
  947W        W 1944   0.551   3.414   0.833  0.0584  0.1328  0.1239
  948W        W 1945   3.570   6.664   7.154  0.1636  0.0075 -0.0868
  949W        W 1946   2.886   6.457   4.513  0.2752  0.0105 -0.1224
  950W        W 1947   1.380   0.783   4.781  0.0343 -0.1492  0.1737
  951W        W 1948   2.681   7.030   4.932  0.0759  0.2790 -0.0853
  952W        W 1949   4.654   5.107   6.796  0.2921 -0.0445 -0.3554
  953W        W 1950   1.626   6.244   5.618  0.1932  0.1997  0.0514
  954W        W 1951   4.022   0.843   4.020  0.0468 -0.2024  0.0897
  955W        W 1952   2.721   6.509   4.993 -0.1581  0.2994  0.1390
  956W        W 1953   2.606   6.818   4.005  0.0317 -0.2341 -0.2424
  957W        W 1954   6.716   1.036   3.894 -0.2070 -0.0985  0.2891
  958W        W 1955   5.863   0.432   2.090 -0.0498  0.3512  0.2880
  959W        W 1956   5.257   2.776   0.680  0.3190 -0.0402 -0.2574
  960W        W 1957   7.258   6.888   2.690 -0.2736  0.0652  0.0246
  961W        W 1958   1.918   1.215   0.777 -0.1626  0.0001 -0.0920
  962W        W 1959   4.040   2.877   2.787  0.0699 -0.0132 -0.1663
  963W        W 1960   5.907   4.161   2.511 -0.2468  0.1638 -0.1342
  964W        W 1961   5.528   2.460   4.385 -0.0010 -0.3861  0.2051
  965W        W 1962   4.769   1.668   2.486  0.1857 -0.1131 -0.0060
  966W        W 1963   3.132   2.765   7.074 -0.1594 -0.2385  0.2051
  967W        W 1964   3.758   2.595   3.470  0.0318  0.0758 -0.0980
  968W        W 1965   0.461   1.684   6.639 -0.1500 -0.0096 -0.1755
  969W        W 1966   5.099   4.544   2.525  0.2050  0.0860 -0.0166
  970W        W 1967   3.240   2.244   7.119 -0.1224 -0.1099 -0.2274
  971W        W 1968   6.309   4.290   1.510 -0.4226  0.1211 -0.1553
  972W        W 1969   4.547   0.938   2.881  0.3236  0.2297 -0.0307
  973W        W 1970   2.807   2.898   6.486 -0.3137  0.2857  0.1761
  974W        W 1971   3.858   4.340   1.898  0.0929 -0.0133  0.1977
  975W        W 1972   3.357   4.497   1.756 -0.1374 -0.0615 -0.0323
  976W        W 1973   3.936   0.434   6.264  0.2609  0.1819 -0.1629
  977W        W 1974   0.543   7.520   5.834 -0.0039  0.0521  0.1965
  978W        W 1975   5.957   4.053   6.042  0.0458  0.0954  0.2490
  979W        W 1976   1.379   5.037   6.490 -0.0879  0.1053  0.1185
  980W        W 1977   3.503   5.736   5.887  0.0051  0.0220  0.0803
  981W        W 1978   4.519   2.639   2.728  0.0283 -0.3864 -0.2416
  982W        W 1979   0.209   7.601   1.842  0.0681  0.0834  0.2076
  983W        W 1980   2.536   3.064   1.124  0.2418  0.0345  0.1210
  984W        W 1981   7.507   6.913   3.219  0.0563  0.2743 -0.0837
  985W        W 1982   1.674   0.675   3.410 -0.0288  0.1728  0.2102
  986W        W 1983   7.443   5.794   5.221  0.0219  0.0215  0.3949
  987W        W 1984   2.115   0.415   0.132  0.1280 -0.0622 -0.1034
  988W        W 1985   0.289   1.131   3.644 -0.2597  0.1111  0.0886
  989W        W 1986   5.093   7.466   7.515 -0.0504 -0.0027 -0.2277
  990W        W 1987   0.153   3.098   4.320 -0.1310 -0.0276  0.3416
  991W        W 1988   7.362   1.720   4.954 -0.2005  0.0787 -0.1739
  992W        W 1989   4.578   5.814   4.935 -0.0178  0.0158 -0.1026
  993W        W 1990   6.329   0.118   3.875  0.0175 -0.1665  0.0465
  994W        W 1991   7.450   2.811   0.512 -0.1656 -0.1493  0.1470
  995W        W 1992   5.335   4.286   4.450  0.1405  0.4553  0.0918
  996W        W 1993   1.603   1.218   5.972  0.0270 -0.1399 -0.1777
  997W        W 1994   7.499   7.141   3.633  0.0531  0.0123 -0.0325
  998W        W 1995   2.469   5.908   3.833  0.0457  0.0638  0.1639
  999W        W 1996   0.033   2.621   1.908  0.2761  0.1911 -0.3580
 1000W        W 1997   1.360   4.041   0.024  0.4254 -0.0510  0.0429
 1001W        W 1998   0.117   7.403   2.352 -0.1291  0.4266  0.0825
 1002W        W 1999   6.021   5.510   2.803 -0.2113  0.1860  0.3077
 1003W        W 2000   5.507   4.637   1.730 -0.2494  0.1473  0.2034
 1004W        W 2001   4.993   5.167   4.221 -0.2706 -0.0422 -0.4219
 1005W        W 2002   6.211   3.714   5.718  0.0883  0.1145  0.1821
 1006W        W 2003   3.705   0.298   7.233 -0.1240  0.1060 -0.1042
 1007W        W 2004   5.863   4.854   7.435 -0.1528  0.2733  0.0836
 1008W        W 2005   2.275   4.758   6.077 -0.0018 -0.0699 -0.1508
 1009W        W 2006   7.560   5.557   4.451 -0.2276  0.3328  0.0549
 1010W        W 2007   7.566   3.421   6.271 -0.0795 -0.1949  0.3025
 1011W        W 2008   6.942   3.981   4.057  0.2032  0.0243 -0.1389
 1012W        W 2009   0.969   1.541   1.872  0.0440 -0.2880 -0.0351
 1013W        W 2010   6.617   2.813   3.590 -0.0276  0.2813  0.1781
 1014W        W 2011   4.152   2.639   3.764 -0.1986  0.3303  0.1249
 1015W        W 2012   5.648   0.167   6.712  0.0333  0.0775  0.1046
 1016W        W 2013   4.237   3.539   5.579  0.0980 -0.0744  0.0461
 1017W        W 2014   5.891   1.570   1.966 -0.0747 -0.3862  0.4601
 1018W        W 2015   4.008   1.898   0.402 -0.2666 -0.3120  0.1053
 1019W        W 2016   5.963   7.208   6.718 -0.1051  0.1596  0.7018
 1020W        W 2017   5.893   2.856   5.462  0.0904  0.1396 -0.1247
 1021W        W 2018   0.440   3.893   0.955 -0.0355  0.2700 -0.0968
 1022W        W 2019   4.112   4.798   6.336  0.0575  0.0577  0.1287
 1023W        W 2020   3.263   2.006   7.614 -0.2517  0.2365  0.2070
 1024W        W 2021   4.964   2.036   0.540 -0.0399 -0.1267  0.1013
 1025W        W 2022   5.953   3.505   3.307 -0.0156  0.0612 -0.1986
 1026W        W 2023   2.914   1.227   0.882 -0.0232  0.0297 -0.1033
 1027W        W 2024   4.078   6.699   3.853  0.0063  0.0874  0.0032
 1028W        W 2025   5.554   1.303   3.467 -0.0789  0.2575 -0.0569
 1029W        W 2026   5.463   2.941   0.210  0.2997 -0.1772  0.0053
 1030W        W 2027   2.416   0.795   0.343  0.3393 -0.0377 -0.0592
 1031W        W 2028   5.986   7.124   3.820 -0.0890 -0.0453  0.4609
 1032W        W 2029   0.755   3.818   1.411 -0.2450  0.0345 -0.1960
 1033W        W 2030   3.274   1.377   0.632  0.3061  0.2901  0.1092
 1034W        W 2031   4.464   2.237   3.749  0.3522  0.4357  0.0457
 1035W        W 2032   6.772   1.812   3.873 -0.0376  0.1699 -0.2264
 1036W        W 2033   6.235   3.437   7.629 -0.1161 -0.3171 -0.2064
 1037W        W 2034   5.110   2.514   0.289 -0.2301 -0.2220  0.0494
 1038W        W 2035   2.558   4.771   2.029  0.0058  0.1563 -0.0640
 1039W        W 2036   1.622   5.617   2.977  0.2121 -0.2937  0.0891
 1040W        W 2037   0.412   2.620   0.626  0.2319  0.0769 -0.0417
 1041W        W 2038   5.651   3.044   1.660  0.3358 -0.0822 -0.2924
 1042W        W 2039   5.003   0.332   0.007 -0.1126 -0.0011  0.1267
 1043W        W 2040   7.518   4.796   1.838 -0.0371  0.2993  0.1316
 1044W        W 2041   6.707   2.829   7.273 -0.1169  0.0859  0.0341
 1045W        W 2042   3.963   0.879   5.910 -0.0513 -0.0136  0.1126
 1046W        W 2043   4.345   4.529   7.578 -0.2754 -0.3243 -0.1296
 1047W        W 2044   5.382   0.989   0.700 -0.0138 -0.0631 -0.1230
 1048W        W 2045   7.564   3.850   3.294  0.2094  0.2219 -0.1118
 1049W        W 2046   6.400   4.143   4.617 -0.1473  0.0952 -0.0363
 1050W        W 2047   5.463   3.854   6.144 -0.1669 -0.4170 -0.4491
 1051W        W 2048   3.765   4.478   1.343  0.2241  0.1095 -0.0718
 1052W        W 2049   1.805   5.016   5.917  0.0495 -0.3200  0.2268
 1053W        W 2050   3.362   0.877   5.983 -0.0568  0.2551  0.2074
 1054W        W 2051   0.886   3.525   5.436  0.0417 -0.1002 -0.1504
 1055W        W 2052   4.668   7.313   6.301  0.0261 -0.3993  0.1501
 1056W        W 2053   0.565   2.353   2.920  0.1873 -0.2044  0.2133
 1057W        W 2054   5.097   0.494   1.215  0.1919  0.0434  0.0557
 1058W        W 2055   3.905   6.774   4.532 -0.1069  0.0669  0.1826
 1059W        W 2056   6.519   5.906   5.766  0.0746  0.0667  0.2178
 1060W        W 2057   5.234   7.350   5.279 -0.1750 -0.2000  0.4174
 1061W        W 2058   6.275   6.148   3.440  0.2147 -0.0146 -0.4021
 1062W        W 2059   4.081   3.941   1.592  0.1640  0.1882  0.2356
 1063W        W 2060   6.867   0.433   5.944  0.0431  0.1395 -0.0930
 1064W        W 2061   3.659   5.007   6.294  0.2209  0.1053  0.2367
 1065W        W 2062   5.709   5.957   6.847 -0.0017 -0.2630  0.2047
 1066W        W 2063   1.440   5.860   7.460 -0.0736 -0.0471 -0.1048
 1067W        W 2064   6.103   1.138   6.134 -0.2199  0.5137  0.1481
 1068W        W 2065   0.670   1.175   3.249  0.0433 -0.0159  0.0945
 1069W        W 2066   6.386   0.899   5.093 -0.1112  0.2079 -0.1827
 1070W        W 2067   2.173   2.317   5.189  0.2752 -0.0892  0.0860
 1071W        W 2068   3.050   5.187   3.903  0.3212  0.2055 -0.0175
 1072W        W 2069   3.877   4.061   4.288 -0.2689 -0.2347 -0.0366
 1073W        W 2070   1.197   6.676   5.893 -0.2569 -0.0651 -0.1826
 1074W        W 2071   6.453   7.188   4.589 -0.3215  0.1181 -0.1304
 1075W        W 2072   2.434   6.707   6.745 -0.0312  0.2423  0.1329
 1076W        W 2073   2.640   4.937   6.462 -0.0850  0.0543  0.4227
 1077W        W 2074   3.101   6.605   4.113 -0.0194  0.0389  0.1217
 1078W        W 2075   3.532   5.544   5.349  0.0573  0.1969  0.1220
 1079W        W 2076   2.861   6.660   3.620  0.3663 -0.0486  0.0380
 1080W        W 2077   5.642   6.798   4.611 -0.0073  0.0327 -0.2051
 1081W        W 2078   2.902   7.286   6.085 -0.0554 -0.0163  0.3022
 1082W        W 2079   6.828   3.854   3.409  0.0760 -0.1625 -0.0043
 1083W        W 2080   1.758   1.338   5.157  0.1982 -0.0852  0.1110
 1084W        W 2081   0.328   7.155   6.310  0.2091 -0.0092  0.2292
 1085W        W 2082   1.150   1.991   7.615 -0.0700 -0.1173  0.1139
 1086W        W 2083   4.514   3.840   7.170  0.1780 -0.0865 -0.0844
 1087W        W 2084   0.716   2.948   0.802  0.2386 -0.2086 -0.2141
 1088W        W 2085   0.516   5.226   6.099 -0.1603  0.0334 -0.4292
 1089W        W 2086   7.043   4.742   1.519  0.1028  0.0675 -0.2611
 1090W        W 2087   0.712   2.409   5.389  0.0581  0.1812 -0.0483
 1091W        W 2088   1.975   0.864   6.017 -0.0972  0.1478 -0.2403
 1092W        W 2089   0.668   6.389   5.914  0.2572  0.2835  0.1629
 1093W        W 2090   3.742   3.116   1.378  0.0375 -0.0337  0.1933
 1094W        W 2091   4.484   4.784   7.142 -0.4109 -0.0884  0.1030
 1095W        W 2092   5.751   5.957   4.833 -0.3510 -0.0100  0.1996
 1096W        W 2093   4.958   1.884   6.602 -0.3189  0.0188  0.0725
 1097W        W 2094   4.766   3.173   6.681  0.5431 -0.2068 -0.0829
 1098W        W 2095   4.745   1.432   6.447 -0.0536  0.0683 -0.0629
 1099W        W 2096   5.818   5.506   5.302 -0.1798  0.0370  0.0527
 1100W        W 2097   6.668   0.630   5.462 -0.0819 -0.1451 -0.0479
 1101W        W 2098   4.980   6.917   3.816 -0.0430  0.2171  0.2151
 1102W        W 2099   2.906   7.589   6.978 -0.0638 -0.0386  0.1422
 1103W        W 2100   5.015   2.499   2.921 -0.0945 -0.1359 -0.2005
 1104W        W 2101   6.855   6.237   3.180 -0.1553 -0.2656  0.4797
 1105W        W 2102   4.045   2.271   5.430  0.1129 -0.2889 -0.3020
 1106W        W 2103   0.072   4.988   3.287  0.2164 -0.0234  0.2361
 1107W        W 2104   2.838   5.328   7.342  0.0059  0.1987  0.2550
 1108W        W 2105   2.536   3.838   4.627  0.0947  0.3459  0.0899
 1109W        W 2106   6.236   2.538   7.330  0.1568 -0.1176  0.0285
 1110W        W 2107   2.924   5.177   1.330  0.0747  0.0358 -0.3829
 1111W        W 2108   6.139   2.367   3.383  0.3803  0.1983  0.1150
 1112W        W 2109   6.597   1.881   6.743 -0.2684 -0.1422 -0.1398
 1113W        W 2110   3.159   0.408   0.681  0.3189 -0.0810  0.2682
 1114W        W 2111   5.211   0.735   3.770 -0.0885 -0.1372 -0.0790
 1115W        W 2112   6.360   7.293   5.723  0.2548 -0.1013  0.2338
 1116W        W 2113   4.203   7.525   0.300  0.3391  0.1378  0.1175
 1117W        W 2114   3.959   3.320   3.012 -0.0420  0.3144  0.1665
 1118W        W 2115   0.533   1.390   1.985  0.1941 -0.0944  0.1612
 1119W        W 2116   6.336   7.166   2.344 -0.0330  0.2734  0.0133
 1120W        W 2117   3.940   3.853   7.093 -0.1392 -0.0126  0.1765
 1121W        W 2118   4.508   2.981   3.565 -0.0365  0.3254 -0.1672
 1122W        W 2119   6.052   4.747   6.658 -0.1760 -0.0200 -0.0860
 1123W        W 2120   6.005   1.603   0.791  0.2300 -0.1541 -0.0853
 1124W        W 2121   5.676   4.964   5.545 -0.1449 -0.1514 -0.1464
 1125W        W 2122   5.979   2.150   3.777  0.0054 -0.1399 -0.0460
 1126W        W 2123   6.374   7.099   2.893  0.0303  0.0443  0.2740
 1127W        W 2124   3.902   1.648   5.436  0.1009 -0.2289  0.1277
 1128W        W 2125   6.021   3.975   3.053 -0.1954  0.3889 -0.3376
 1129W        W 2126   2.278   0.433   3.995  0.3434  0.1716  0.0839
 1130W        W 2127   4.781   4.248   4.445 -0.2130  0.1469 -0.0486
 1131W        W 2128   5.664   1.364   0.482  0.0676  0.1999 -0.3207
 1132W        W 2129   0.380   1.782   2.440 -0.1044  0.2945 -0.0755
 1133W        W 2130   6.135   2.782   3.708 -0.0483 -0.0253 -0.0432
 1134W        W 2131   5.458   5.489   6.712 -0.0237  0.4760 -0.1401
 1135W        W 2132   4.376   2.041   2.337  0.1328 -0.1772  0.0473
 1136W        W 2133   4.260   7.336   5.040  0.0583 -0.0007 -0.2190
 1137W        W 2134   4.616   6.724   1.784  0.1072 -0.0064 -0.1461
 1138W        W 2135   5.134   5.493   2.392  0.1838  0.1452  0.0033
 1139W        W 2136   5.154   3.488   3.631  0.3940 -0.0889  0.0471
 1140W        W 2137   4.059   0.984   5.384 -0.2157  0.0648  0.4038
 1141W        W 2138   7.178   5.829   3.540 -0.1772 -0.1312  0.1989
 1142W        W 2139   5.253   6.293   2.114  0.0586 -0.1745  0.0197
 1143W        W 2140   4.115   3.976   7.573  0.1410 -0.0140  0.2200
 1144W        W 2141   0.869   7.200   2.704 -0.2508 -0.2076 -0.0369
 1145W        W 2142   0.770   7.596   4.544  0.4109 -0.1205 -0.0824
 1146W        W 2143   0.322   5.689   5.935 -0.1498 -0.1091  0.1483
 1147W        W 2144   1.194   2.303   5.214 -0.0395 -0.0758  0.1585
 1148W        W 2145   6.199   2.604   5.818  0.1585  0.1329  0.2075
 1149W        W 2146   5.859   0.267   5.119  0.0274 -0.0492  0.0072
 1150W        W 2147   3.947   7.591   5.462 -0.1112  0.0008  0.2075
 1151W        W 2148   0.560   5.052   3.138 -0.3594  0.1369 -0.0678
 1152W        W 2149   6.110   1.798   2.343  0.1128  0.0954 -0.3066
 1153W        W 2150   5.981   3.083   0.270  0.4043 -0.0922  0.1915
 1154W        W 2151   5.346   2.277   0.821  0.2539  0.0016  0.0258
 1155W        W 2152   3.011   0.768   5.092 -0.1301 -0.0803  0.1197
 1156W        W 2153   5.361   2.729   5.195 -0.0661 -0.3536 -0.1716
 1157W        W 2154   1.588   7.449   5.837  0.0076 -0.1419 -0.1263
 1158W        W 2155   0.619   2.813   6.592 -0.0130  0.2465  0.0715
 1159W        W 2156   6.431   5.877   4.274 -0.1817  0.1731 -0.0608
 1160W        W 2157   3.014   0.288   7.324 -0.2502 -0.1530 -0.0922
 1161W        W 2158   4.311   5.000   4.735  0.1044 -0.0571  0.2740
 1162W        W 2159   5.306   2.168   2.602 -0.1310  0.1395  0.0088
 1163W        W 2160   0.135   7.545   3.201  0.0675  0.0010  0.1033
 1164W        W 2161   0.507   1.038   4.178  0.1331  0.1733 -0.1759
 1165W        W 2162   1.164   7.530   6.063 -0.1611  0.1499 -0.0558
 1166W        W 2163   5.705   5.228   4.226  0.3148 -0.3169  0.1373
 1167W        W 2164   1.552   0.939   7.616 -0.2051 -0.0866 -0.3556
 1168W        W 2165   3.716   3.950   6.223  0.1013 -0.1530 -0.2073
 1169W        W 2166   4.423   1.310   3.386 -0.1401 -0.2037  0.1334
 1170W        W 2167   5.950   4.395   2.073 -0.0092  0.1660  0.1219
 1171W        W 2168   1.844   7.119   2.568 -0.2723 -0.1433 -0.1689
 1172W        W 2169   6.393   2.905   4.551  0.0395 -0.0895  0.1259
 1173W        W 2170   6.530   3.401   4.854 -0.1270  0.0962  0.2751
 1174W        W 2171   4.315   7.604   4.047  0.1055  0.0943 -0.4764
 1175W        W 2172   6.513   5.568   1.230  0.4049  0.1221  0.3885
 1176W        W 2173   2.058   1.189   4.167 -0.0374 -0.0540  0.1906
 1177W        W 2174   4.189   6.802   1.514  0.2767  0.3543  0.0650
 1178W        W 2175   1.816   1.924   3.746 -0.1642  0.0900 -0.4733
 1179W        W 2176   3.663   1.904   3.537 -0.1660 -0.0663  0.1060
 1180W        W 2177   6.611   4.656   1.794  0.0441  0.0222 -0.1978
 1181W        W 2178   1.327   0.378   6.534 -0.1824 -0.0374  0.0187
 1182W        W 2179   7.589   1.806   1.259 -0.1251  0.1833 -0.0123
 1183W        W 2180   3.752   3.988   3.805 -0.0358  0.0089  0.0563
 1184W        W 2181   4.921   4.837   6.314 -0.1928  0.1895  0.2484
 1185W        W 2182   4.960   1.541   5.632 -0.0759  0.1232 -0.2380
 1186W        W 2183   3.590   3.670   4.891  0.3186 -0.0765  0.3542
 1187W        W 2184   4.806   3.654   6.791 -0.0211 -0.1918 -0.3688
 1188W        W 2185   6.843   7.131   3.069 -0.1322  0.3249  0.1066
 1189W        W 2186   3.153   5.643   7.140  0.1175 -0.1729  0.1420
 1190W        W 2187   1.032   4.105   6.388 -0.0035  0.2317 -0.0361
 1191W        W 2188   0.325   4.662   1.721 -0.0300  0.2465  0.0449
 1192W        W 2189   1.969   1.387   2.122 -0.1954 -0.4008 -0.1855
 1193W        W 2190   2.691   3.604   0.991  0.0941  0.2642  0.1043
 1194W        W 2191   4.161   1.224   6.249 -0.0932 -0.0210 -0.1155
 1195W        W 2192   6.305   4.959   5.193 -0.3330 -0.3294  0.2159
 1196W        W 2193   6.605   5.979   1.946  0.0979 -0.1129  0.0687
 1197W        W 2194   4.265   0.783   0.844  0.0219  0.0858  0.4262
 1198W        W 2195   6.791   5.538   7.549  0.0321 -0.0802  0.2092
 1199W        W 2196   2.559   5.535   2.513 -0.0178  0.1346  0.1729
 1200W        W 2197   2.856   5.472   0.868 -0.2196 -0.2338  0.0662
 1201W        W 2198   6.993   5.869   6.446 -0.3273  0.1486 -0.1668
 1202W        W 2199   0.881   0.423   2.627 -0.1600 -0.0651 -0.0500
 1203W        W 2200   6.695   3.154   3.113  0.2488  0.3538  0.0742
 1204W        W 2201   0.197   5.817   6.584  0.4108 -0.1461 -0.2154
 1205W        W 2202   4.799   3.080   2.690 -0.0027 -0.0033 -0.2173
 1206W        W 2203   1.427   6.855   3.409  0.0433 -0.1685 -0.1804
 1207W        W 2204   1.021   2.548   5.743 -0.0621 -0.1893  0.2246
 1208W        W 2205   3.348   2.868   6.466 -0.0174 -0.2757 -0.0679
 1209W        W 2206   1.592   2.487   6.789 -0.0085 -0.3388  0.1408
 1210W        W 2207   3.835   1.765   2.712 -0.3838  0.0704  0.1769
 1211W        W 2208   5.231   3.150   7.108  0.0660  0.3658  0.1910
 1212W        W 2209   4.761   6.328   7.237 -0.2426 -0.1381  0.1930
 1213W        W 2210   4.977   1.095   5.086  0.0527  0.1732 -0.4014
 1214W        W 2211   5.409   2.676   7.459 -0.3357 -0.0718 -0.0142
 1215W        W 2212   1.731   7.348   4.337 -0.2702  0.1607 -0.0002
 1216W        W 2213   3.224   6.225   7.138 -0.1432 -0.1338  0.0968
 1217W        W 2214   3.977   1.448   4.336 -0.1830  0.1265 -0.0757
 1218W        W 2215   3.628   4.445   6.350  0.2068  0.2371  0.1529
 1219W        W 2216   2.663   0.269   0.651  0.0455 -0.0168 -0.1292
 1220W        W 2217   0.819   2.912   7.535 -0.2859  0.1478  0.0711
 1221W        W 2218   5.642   3.715   5.114 -0.0148 -0.0559  0.1240
 1222W        W 2219   7.211   0.713   2.006 -0.2526  0.1205  0.1917
 1223W        W 2220   3.544   5.602   6.340  0.0751  0.2897 -0.0119
 1224W        W 2221   5.834   3.790   2.207 -0.3916 -0.1114 -0.2472
 1225W        W 2222   6.418   3.300   0.502  0.2166 -0.2776 -0.2053
 1226W        W 2223   1.468   3.802   6.205 -0.1450 -0.4269  0.0269
 1227W        W 2224   4.300   3.126   1.356 -0.0310 -0.3056  0.0782
 1228W        W 2225   6.823   0.040   3.255  0.2344 -0.0888 -0.2001
 1229W        W 2226   7.402   7.140   6.200  0.1644 -0.1824  0.2018
 1230W        W 2227   6.721   2.185   3.003 -0.4057  0.2962 -0.0657
 1231W        W 2228   5.245   0.067   2.503 -0.0290  0.1999 -0.0390
 1232W        W 2229   1.817   5.568   0.072  0.0696  0.1401  0.0983
 1233W        W 2230   0.767   2.714   0.333 -0.0622 -0.3427 -0.0383
 1234W        W 2231   5.833   7.027   2.536  0.2789 -0.1126 -0.0714
 1235W        W 2232   4.464   6.738   7.274  0.2420 -0.0963  0.0093
 1236W        W 2233   6.796   2.981   0.591 -0.1989  0.1607 -0.2094
 1237W        W 2234   7.540   5.205   4.055  0.0086  0.0433  0.0371
 1238W        W 2235   4.292   5.194   1.220  0.0292  0.1628  0.0257
 1239W        W 2236   5.202   3.086   6.553 -0.0380 -0.1057 -0.2290
 1240W        W 2237   0.680   2.021   7.564  0.3440  0.3432  0.1729
 1241W        W 2238   1.988   1.788   1.787 -0.2831 -0.0422 -0.0456
 1242W        W 2239   2.176   1.693   2.939 -0.0537  0.0095  0.1102
 1243W        W 2240   0.291   6.388   5.047 -0.0916  0.1127 -0.2500
 1244W        W 2241   0.195   3.856   2.419 -0.2817  0.3061  0.1896
 1245W        W 2242   1.165   4.429   7.414  0.2392  0.0790  0.1902
 1246W        W 2243   6.188   2.060   5.756  0.0718 -0.0926 -0.2714
 1247W        W 2244   6.327   1.951   6.216 -0.2563 -0.2641 -0.2064
 1248W        W 2245   4.232   1.322   3.949  0.1232  0.2286  0.4347
 1249W        W 2246   0.760   3.418   7.492  0.0937  0.0407 -0.0784
 1250W        W 2247   4.958   6.051   5.259  0.1771  0.1757  0.2595
 1251W        W 2248   1.656   5.444   6.204 -0.1889  0.0964  0.1812
 1252W        W 2249   2.350   1.368   3.704  0.2104  0.0605 -0.1367
 1253W        W 2250   4.495   1.193   0.272 -0.2629 -0.1047  0.1901
 1254W        W 2251   7.198   1.289   3.086 -0.1306  0.1387 -0.2003
 1255W        W 2252   3.511   0.672   4.123  0.2046  0.0797  0.2340
 1256W        W 2253   0.231   0.553   5.215 -0.0245  0.2511  0.1554
 1257W        W 2254   6.421   3.070   0.992  0.1230 -0.1667 -0.0954
 1258W        W 2255   4.610   5.759   5.465 -0.1551 -0.2698 -0.0645
 1259W        W 2256   6.869   3.974   2.584 -0.1365  0.0037  0.1955
 1260W        W 2257   1.606   2.010   0.778  0.1654 -0.0646  0.1512
 1261W        W 2258   7.229   4.090   3.630 -0.0983 -0.2272  0.3523
 1262W        W 2259   6.253   3.622   0.927  0.0946  0.1569  0.0068
 1263W        W 2260   3.329   5.933   7.485 -0.0770 -0.0688  0.0170
 1264W        W 2261   3.369   4.548   2.753 -0.1778  0.1846 -0.1177
 1265W        W 2262   1.316   5.717   6.957  0.2426  0.1906 -0.3141
 1266W        W 2263   7.016   3.464   4.655  0.1134  0.0568  0.1607
 1267W        W 2264   4.936   6.781   7.120 -0.1083  0.0692 -0.2024
 1268W        W 2265   5.298   6.691   4.170 -0.0140 -0.0546  0.3640
 1269W        W 2266   4.359   0.038   2.377  0.3148  0.1749 -0.1708
 1270W        W 2267   6.388   4.728   0.648  0.1045 -0.2073 -0.1515
 1271W        W 2268   4.838   7.195   1.700 -0.2104 -0.3317  0.1012
 1272W        W 2269   2.068   2.839   2.054  0.0635  0.0265 -0.3626
 1273W        W 2270   5.751   4.861   3.438 -0.1012  0.2842 -0.3517
 1274W        W 2271   4.389   6.138   3.097  0.0850  0.0610 -0.4672
 1275W        W 2272   5.599   5.298   4.836  0.0348  0.1493 -0.0643
 1276W        W 2273   4.831   1.481   0.030  0.2535  0.1052  0.0147
 1277W        W 2274   4.492   7.522   0.795 -0.1458 -0.1547 -0.1130
 1278W        W 2275   7.554   0.900   5.227  0.1071 -0.0792 -0.0047
 1279W        W 2276   6.632   7.015   6.060  0.0037  0.0206  0.1526
 1280W        W 2277   5.555   3.961   0.468  0.2538  0.1011  0.2392
 1281W        W 2278   2.158   5.763   0.352 -0.3694 -0.1081 -0.0281
 1282W        W 2279   5.430   6.263   2.721 -0.2579 -0.3128 -0.2350
 1283W        W 2280   6.121   3.853   1.305  0.0085  0.0379 -0.2004
 1284W        W 2281   2.867   4.692   0.236  0.0114  0.2202 -0.2001
 1285W        W 2282   3.773   2.133   3.093  0.0297 -0.0524  0.1487
 1286W        W 2283   3.263   6.666   5.162 -0.0883 -0.3527  0.3028
 1287W        W 2284   4.837   1.869   4.243  0.0341  0.3655 -0.0229
 1288W        W 2285   7.488   3.305   3.588  0.0234  0.0433 -0.1645
 1289W        W 2286   6.766   1.738   6.250 -0.0022  0.1835 -0.0181
 1290W        W 2287   3.046   2.609   3.978  0.4373  0.0266  0.0267
 1291W        W 2288   3.476   5.783   3.472  0.2694  0.0529  0.1135
 1292W        W 2289   6.961   7.243   1.910 -0.1598  0.1026  0.1557
 1293W        W 2290   7.042   2.017   7.038  0.1310 -0.2442 -0.1825
 1294W        W 2291   1.772   1.251   1.533 -0.1057  0.3076 -0.2204
 1295W        W 2292   7.134   1.669   6.665 -0.1065 -0.0139  0.0141
 1296W        W 2293   0.009   1.937   3.309 -0.1849 -0.1754  0.0552
 1297W        W 2294   6.950   2.753   3.144  0.4336  0.2127 -0.0558
 1298W        W 2295   4.794   1.482   1.047  0.2497  0.0789 -0.0478
 1299W        W 2296   4.980   5.017   1.054 -0.3417  0.0150  0.2780
 1300W        W 2297   3.500   5.918   1.503  0.2133 -0.2849  0.0796
 1301W        W 2298   7.156   1.817   3.034  0.0723  0.1680 -0.0286
 1302W        W 2299   5.810   1.977   2.690  0.0881  0.3869  0.2830
 1303W        W 2300   3.667   3.166   2.613  0.0000 -0.0893  0.1403
 1304W        W 2301   5.662   3.160   7.432  0.1165 -0.0218 -0.1478
 1305W        W 2302   1.681   5.772   4.041 -0.0068 -0.0459  0.0523
 1306W        W 2303   3.360   2.016   1.793 -0.4752 -0.0194 -0.2433
 1307W        W 2304   5.333   0.539   6.757 -0.1439 -0.0485  0.0788
 1308W        W 2305   4.672   4.097   1.636  0.0511  0.3054 -0.0182
 1309W        W 2306   4.901   5.489   5.130  0.1072 -0.0133  0.0859
 1310W        W 2307   0.907   3.837   5.956  0.0799 -0.0909  0.1847
 1311W        W 2308   6.373   0.200   5.262  0.1559 -0.0930  0.2457
 1312W        W 2309   1.965   0.022   3.321  0.0445 -0.0729  0.1243
 1313W        W 2310   0.254   4.688   2.946  0.0872 -0.1221  0.0210
 1314W        W 2311   5.557   0.170   3.041  0.0627 -0.0369 -0.0069
 1315W        W 2312   1.354   5.993   3.309  0.0182 -0.1765 -0.0018
 1316W        W 2313   7.221   2.581   4.776 -0.0604 -0.1039 -0.2701
 1317W        W 2314   5.526   3.254   3.319  0.3255  0.3841 -0.0936
 1318W        W 2315   5.545   5.824   7.497 -0.1699 -0.0701 -0.0366
 1319W        W 2316   1.083   4.736   1.074 -0.0629  0.0632 -0.0421
 1320W        W 2317   0.566   2.843   4.569  0.2572 -0.0710 -0.0186
 1321W        W 2318   3.646   4.544   0.867  0.1493  0.1488  0.1242
 1322W        W 2319   5.812   3.243   6.923  0.1299 -0.2788 -0.0602
 1323W        W 2320   4.274   2.666   6.296 -0.0681 -0.4995  0.0568
 1324W        W 2321   3.008   7.060   5.384 -0.0117 -0.1401 -0.0087
 1325W        W 2322   7.368   5.106   4.568  0.0360  0.1874  0.0513
 1326W        W 2323   6.548   5.386   6.683  0.0891  0.0240  0.4774
 1327W        W 2324   0.049   2.248   4.735  0.1562  0.2742 -0.2613
 1328W        W 2325   5.660   7.252   4.240 -0.2100  0.1004  0.1978
 1329W        W 2326   2.265   1.468   1.215  0.0508 -0.0541  0.1907
 1330W        W 2327   1.902   5.037   6.407  0.1445  0.2514  0.0493
 1331W        W 2328   1.805   7.533   4.827  0.0158 -0.0205  0.1658
 1332W        W 2329   0.570   4.859   2.613 -0.2055  0.2842  0.1052
 1333W        W 2330   1.973   6.807   6.466  0.0604  0.1787 -0.2228
 1334W        W 2331   7.148   2.224   3.877  0.0837  0.2337  0.1382
 1335W        W 2332   0.774   2.352   6.774 -0.0540  0.1183  0.1821
 1336W        W 2333   6.312   1.651   4.424 -0.0148  0.0062  0.0328
 1337W        W 2334   5.670   5.304   7.608  0.1309 -0.1418  0.0524
 1338W        W 2335   5.778   3.839   6.915 -0.3084 -0.1205 -0.0121
 1339W        W 2336   3.014   0.627   3.351 -0.0927 -0.1999  0.0408
 1340W        W 2337   5.997   1.251   3.845 -0.0935  0.1496 -0.4232
 1341W        W 2338   2.584   1.050   4.021 -0.0693  0.1298  0.0100
 1342W        W 2339   2.791   5.968   7.397 -0.1123  0.0815  0.1932
 1343W        W 2340   3.607   0.016   2.366  0.0035 -0.5807  0.1533
 1344W        W 2341   6.420   5.934   0.119  0.0571 -0.0093 -0.0310
 1345W        W 2342   4.668   3.587   0.047 -0.0607  0.1868 -0.0625
 1346W        W 2343   2.522   3.649   5.661 -0.3899  0.0919  0.0014
 1347W        W 2344   2.886   0.275   4.883  0.1326 -0.1128 -0.2559
 1348W        W 2345   0.344   4.163   3.256 -0.1482 -0.1922 -0.1979
 1349W        W 2346   6.729   6.195   6.089  0.1610  0.2429 -0.0996
 1350W        W 2347   2.701   2.357   2.576 -0.2894 -0.1919 -0.1195
 1351W        W 2348   4.275   3.889   3.104  0.1547 -0.0753 -0.0427
 1352W        W 2349   7.436   2.771   7.189 -0.0524 -0.0624 -0.2040
 1353W        W 2350   5.379   1.418   4.917 -0.0464  0.0480  0.1306
 1354W        W 2351   0.288   6.117   3.563 -0.1410 -0.0307  0.1383
 1355W        W 2352   4.696   1.885   3.265  0.2489  0.2377  0.3331
 1356W        W 2353   0.784   6.261   5.198 -0.1166 -0.5141  0.0051
 1357W        W 2354   4.323   7.299   1.632 -0.2554 -0.0014 -0.0408
 1358W        W 2355   7.011   4.206   6.923  0.3096  0.3471  0.1369
 1359W        W 2356   4.058   3.679   4.684  0.0254  0.0664  0.0316
 1360W        W 2357   3.695   2.827   2.222 -0.4731  0.0616  0.2916
 1361W        W 2358   5.837   6.938   5.163  0.2915 -0.1766 -0.0887
 1362W        W 2359   5.795   5.554   7.181 -0.1748 -0.1392 -0.2007
 1363W        W 2360   3.684   4.267   7.493  0.3095 -0.0333 -0.1352
 1364W        W 2361   7.353   0.182   4.160 -0.0912 -0.4147 -0.1479
 1365W        W 2362   5.987   1.026   6.571  0.2450  0.2681  0.2913
 1366W        W 2363   0.989   6.816   4.433 -0.3064 -0.2090  0.0588
 1367W        W 2364   6.409   4.227   5.151  0.0001  0.3894  0.2524
 1368W        W 2365   0.786   7.150   4.805 -0.0471  0.2219  0.0261
 1369W        W 2366   0.640   6.172   6.802 -0.2910  0.1248 -0.4228
 1370W        W 2367   2.720   5.836   3.021  0.1699 -0.1411  0.1572
 1371W        W 2368   0.124   0.147   5.565 -0.1780  0.1425 -0.3654
 1372W        W 2369   1.822   2.666   5.275 -0.2676 -0.0109 -0.0048
 1373W        W 2370   1.000   2.147   3.214  0.1377  0.3704 -0.2117
 1374W        W 2371   7.502   2.488   6.141 -0.2370 -0.0606  0.2185
 1375W        W 2372   3.992   2.275   4.769 -0.4275 -0.0416  0.0807
 1376W        W 2373   5.034   1.969   1.037  0.1740 -0.0090 -0.0807
 1377W        W 2374   4.278   3.899   5.115  0.3411 -0.1293  0.1492
 1378W        W 2375   4.962   2.857   7.585  0.1209  0.0306 -0.1493
 1379W        W 2376   3.892   4.833   6.796  0.1613 -0.1012 -0.0385
 1380W        W 2377   7.093   6.093   5.568 -0.0813 -0.2209 -0.0838
 1381W        W 2378   3.932   5.258   2.751 -0.0895 -0.1107  0.2244
 1382W        W 2379   0.422   1.401   4.524 -0.1416 -0.0975  0.0581
 1383W        W 2380   4.520   5.187   4.228  0.1988  0.3052  0.0940
 1384W        W 2381   1.222   7.131   5.637  0.2330 -0.3709 -0.1250
 1385W        W 2382   5.510   4.161   1.968 -0.0696 -0.0116 -0.0798
 1386W        W 2383   3.377   5.368   7.490 -0.3953 -0.0566 -0.1422
 1387W        W 2384   2.854   7.426   4.510 -0.2996  0.0345 -0.1796
 1388W        W 2385   5.795   1.903   1.557 -0.2577 -0.0662 -0.2810
 1389W        W 2386   7.541   4.434   3.380 -0.0784 -0.2232  0.0714
 1390W        W 2387   6.968   3.625   6.222 -0.1579  0.1332  0.1044
 1391W        W 2388   0.990   2.372   3.750  0.4198 -0.2427  0.1737
 1392W        W 2389   5.411   4.956   4.497  0.0206  0.2710  0.2367
 1393W        W 2390   4.885   3.252   4.722 -0.2739 -0.0218 -0.0777
 1394W        W 2391   7.375   4.006   2.311  0.1327  0.2768 -0.0601
 1395W        W 2392   2.971   4.197   2.562 -0.2433 -0.0098 -0.2411
 1396W        W 2393   6.008   2.410   1.518 -0.1391  0.0725  0.2885
 1397W        W 2394   4.438   5.706   4.293 -0.0363 -0.0305  0.1761
 1398W        W 2395   1.253   1.256   7.386 -0.1044 -0.1656 -0.0714
 1399W        W 2396   6.877   1.711   5.267  0.0075 -0.0120 -0.2331
 1400W        W 2397   7.556   6.269   5.408  0.0755  0.0846 -0.0097
 1401W        W 2398   3.793   3.227   4.672  0.2205  0.3360 -0.0166
 1402W        W 2399   7.277   0.081   5.657  0.2145 -0.0247  0.0672
 1403W        W 2400   2.941   4.708   1.552 -0.2566 -0.1216  0.1432
 1404W        W 2401   4.494   5.176   6.335 -0.0578 -0.0561  0.0971
 1405W        W 2402   2.572   6.358   4.107  0.2592 -0.0140 -0.0900
 1406W        W 2403   1.259   3.540   7.516  0.1424 -0.0775 -0.1927
 1407W        W 2404   4.239   0.599   4.949 -0.2998  0.1359 -0.0732
 1408W        W 2405   3.567   2.642   7.186 -0.2456  0.2814  0.2691
 1409W        W 2406   4.883   2.664   4.882  0.4936 -0.2535  0.3288
 1410W        W 2407   0.062   4.022   5.486 -0.2236 -0.4432 -0.1518
 1411W        W 2408   2.412   4.865   3.103 -0.1513 -0.3073 -0.1065
 1412W        W 2409   1.127   1.301   1.480 -0.2206  0.2455 -0.1532
 1413W        W 2410   6.449   4.610   2.926 -0.0893  0.4023  0.3023
 1414W        W 2411   4.543   1.994   4.671  0.0253 -0.0313 -0.0946
 1415W        W 2412   4.362   3.138   2.532  0.1582 -0.0797  0.3677
 1416W        W 2413   2.406   2.281   0.157  0.2024 -0.1483  0.1124
 1417W        W 2414   1.093   6.214   5.613 -0.0419 -0.0162  0.2949
 1418W        W 2415   2.017   6.946   6.952 -0.2418 -0.1663 -0.0594
 1419W        W 2416   0.271   1.931   4.184 -0.0747 -0.2598 -0.2717
 1420W        W 2417   2.039   5.743   5.901 -0.2175  0.1341 -0.0317
 1421W        W 2418   7.547   3.290   7.265  0.3474  0.0889 -0.3331
 1422W        W 2419   2.169   4.113   1.470 -0.1330  0.0493 -0.0672
 1423W        W 2420   0.419   5.628   3.589  0.1339  0.0264  0.0579
 1424W        W 2421   2.923   2.269   0.315 -0.1681 -0.1881  0.4089
 1425W        W 2422   6.336   6.957   5.053 -0.0189 -0.0747 -0.0534
 1426W        W 2423   4.138   6.887   6.575  0.1236  0.3598  0.3303
 1427W        W 2424   1.124   6.435   3.441  0.1651 -0.2370 -0.1723
 1428W        W 2425   2.338   5.048   5.214 -0.1774 -0.1316  0.2742
 1429W        W 2426   0.017   2.697   4.548  0.0377  0.2744  0.2621
 1430W        W 2427   4.854   4.614   6.721 -0.1416 -0.3437 -0.0106
 1431W        W 2428   6.065   6.645   3.149 -0.1549  0.1550  0.1322
 1432W        W 2429   1.785   0.754   0.441 -0.1472  0.3798  0.1899
 1433W        W 2430   2.593   0.636   5.312 -0.2087  0.0663 -0.0235
 1434W        W 2431   0.251   2.682   4.097  0.0317 -0.1772 -0.0437
 1435W        W 2432   4.289   3.257   0.680 -0.1857 -0.0073 -0.0301
 1436W        W 2433   4.567   3.523   2.843  0.0600 -0.0093 -0.0574
 1437W        W 2434   0.093   6.226   5.956  0.1210  0.0987 -0.1331
 1438W        W 2435   5.504   3.879   3.638 -0.2843 -0.1184  0.1467
 1439W        W 2436   1.844   2.132   2.684 -0.1846  0.1643 -0.2202
 1440W        W 2437   1.036   0.320   1.636  0.1692 -0.2473  0.0031
 1441W        W 2438   4.675   3.337   4.253  0.1956  0.3958  0.0122
 1442W        W 2439   3.621   4.548   4.963 -0.1338 -0.1005 -0.1527
 1443W        W 2440   2.176   6.803   5.972 -0.0178  0.0978  0.0261
 1444W        W 2441   0.342   5.114   3.662  0.0477 -0.1587  0.0380
 1445W        W 2442   5.958   3.338   5.444  0.1106 -0.0628 -0.0895
 1446W        W 2443   1.500   2.653   2.813  0.1998 -0.0604  0.1605
 1447W        W 2444   2.370   3.855   1.855 -0.2176 -0.0298 -0.1933
 1448W        W 2445   4.943   5.404   6.524  0.3905  0.1479 -0.1010
 1449W        W 2446   0.928   0.199   5.014  0.0214 -0.1456 -0.2368
 1450W        W 2447   4.600   3.490   5.138  0.1343 -0.4415 -0.0832
 1451W        W 2448   5.110   2.347   6.360  0.1761  0.1831 -0.4924
 1452W        W 2449   4.304   1.469   5.139 -0.3651  0.0867 -0.1615
 1453W        W 2450   7.493   5.075   6.735  0.0990 -0.1950  0.2784
 1454W        W 2451   7.089   5.675   5.938 -0.0373  0.4132  0.0705
 1455W        W 2452   6.172   6.095   6.106 -0.0990  0.0122 -0.0323
 1456W        W 2453   5.087   7.522   3.069  0.0054 -0.1769  0.1494
 1457W        W 2454   0.980   1.467   3.009  0.0286 -0.0752  0.2516
 1458W        W 2455   6.924   0.506   3.467  0.0239 -0.2756 -0.3536
 1459W        W 2456   7.548   2.308   4.261  0.1048  0.0846  0.2550
 1460W        W 2457   7.513   1.505   3.565 -0.0301  0.0740  0.0467
 1461W        W 2458   6.512   2.612   3.090  0.0064 -0.3334 -0.2881
 1462W        W 2459   5.949   3.024   4.081  0.1502  0.1313 -0.3398
 1463W        W 2460   4.801   6.989   5.359 -0.0897  0.2758 -0.1392
 1464W        W 2461   3.509   6.915   2.957 -0.2873  0.1552 -0.0309
 1465W        W 2462   4.047   1.811   4.723  0.3224 -0.2334 -0.1646
 1466W        W 2463   3.557   4.278   3.268 -0.2299  0.0548  0.1446
 1467W        W 2464   5.766   4.420   6.924  0.2736 -0.0715  0.0123
 1468W        W 2465   5.812   5.353   0.473 -0.0170 -0.1026  0.0926
 1469W        W 2466   6.005   5.010   4.639 -0.0188 -0.0852 -0.3853
 1470W        W 2467   6.813   1.473   4.250 -0.0849  0.0157  0.0865
 1471W        W 2468   0.193   0.097   3.626 -0.0978  0.1093  0.1635
 1472W        W 2469   3.971   2.557   6.680  0.1283 -0.4615 -0.2673
 1473W        W 2470   2.719   5.886   4.261 -0.1331  0.3511  0.1756
 1474W        W 2471   3.825   4.831   1.782  0.1455  0.2116 -0.0640
 1475W        W 2472   3.495   3.635   5.852  0.1437  0.3281 -0.3141
 1476W        W 2473   6.057   2.815   0.702 -0.0734  0.0785  0.0649
 1477W        W 2474   3.504   5.714   0.273 -0.1299  0.1595  0.1916
 1478W        W 2475   5.827   4.104   0.912 -0.2706  0.2389  0.0596
 1479W        W 2476   3.053   0.399   3.808  0.0709 -0.1150  0.1498
 1480W        W 2477   3.910   1.373   6.656  0.2854 -0.1519 -0.3289
 1481W        W 2478   7.478   6.620   3.660 -0.2919 -0.1898 -0.2341
 1482W        W 2479   5.504   7.273   2.943  0.3711  0.1695  0.2485
 1483W        W 2480   2.417   0.543   6.497  0.3729  0.0955  0.0105
 1484W        W 2481   0.985   5.738   5.985  0.0454 -0.2490 -0.1987
 1485W        W 2482   1.297   2.293   1.054 -0.0369  0.0239 -0.1139
 1486W        W 2483   5.912   4.521   5.840 -0.0220 -0.0060 -0.2533
 1487W        W 2484   5.065   1.849   4.732  0.4441 -0.2324 -0.2762
 1488W        W 2485   7.410   0.347   1.755 -0.0696 -0.0007 -0.1088
 1489W        W 2486   2.318   0.728   7.474 -0.4351 -0.0921  0.0988
 1490W        W 2487   5.504   1.901   0.589  0.2468  0.1406  0.2069
 1491W        W 2488   3.436   0.131   5.528  0.1297  0.1288  0.1554
 1492W        W 2489   2.267   1.390   2.529  0.0545  0.3563  0.0925
 1493W        W 2490   0.817   5.361   3.573  0.2602  0.0689  0.1099
 1494W        W 2491   3.491   1.745   2.250 -0.2366  0.1084 -0.0545
 1495W        W 2492   3.183   4.933   5.715 -0.1825 -0.0516 -0.0961
 1496W        W 2493   5.681   1.622   0.031  0.1020  0.1752  0.0378
 1497W        W 2494   2.675   1.908   6.616 -0.0940 -0.1355 -0.4174
 1498W        W 2495   7.197   6.613   5.499 -0.2401 -0.1381 -0.0153
 1499W        W 2496   2.545   1.624   0.849 -0.1912  0.0633  0.1598
 1500W        W 2497   0.309   6.758   3.572 -0.0282  0.2882 -0.0543
 1501W        W 2498   3.416   1.424   3.574 -0.2453 -0.0997  0.3144
 1502W        W 2499   4.745   3.258   1.512  0.1476  0.0748 -0.1211
 1503W        W 2500   2.218   6.074   6.691 -0.2696 -0.1818  0.3613
 1504W        W 2501   3.349   1.892   3.012  0.0458 -0.0038  0.4863
 1505W        W 2502   5.703   0.264   2.511 -0.1097  0.2184  0.1353
 1506W        W 2503   1.358   0.090   4.493  0.0139  0.1672 -0.0933
 1507W        W 2504   6.127   5.239   6.927  0.1906 -0.0553  0.1067
 1508W        W 2505   2.019   3.128   5.295  0.0704 -0.0992  0.0465
 1509W        W 2506   3.783   4.284   6.806 -0.2559 -0.2215 -0.1411
 1510W        W 2507   0.016   0.728   5.672 -0.0593 -0.0241  0.0003
 1511W        W 2508   3.413   3.092   4.323 -0.0808  0.0837  0.2930
 1512W        W 2509   6.974   7.531   2.784 -0.0687 -0.4543  0.2061
 1513W        W 2510   3.019   5.625   0.147  0.0789  0.0751 -0.2696
 1514W        W 2511   4.874   3.097   6.088 -0.0233 -0.1396 -0.0018
 1515W        W 2512   2.398   2.955   4.533  0.0590 -0.0084 -0.0868
 1516W        W 2513   5.549   0.372   3.620 -0.1684 -0.3033  0.0316
 1517W        W 2514   7.079   2.134   6.052  0.1366 -0.0872 -0.1749
 1518W        W 2515   6.267   5.313   5.585  0.0153  0.0779 -0.0167
 1519W        W 2516   3.607   6.448   4.134 -0.3043  0.0762 -0.2023
 1520W        W 2517   0.019   5.553   2.222  0.1607  0.1214  0.2054
 1521W        W 2518   5.369   5.308   5.283  0.1538 -0.2138  0.2079
 1522W        W 2519   0.902   6.605   6.305 -0.1050  0.0346  0.1326
 1523W        W 2520   7.411   7.138   4.966  0.1532 -0.1963  0.0207
 1524W        W 2521   1.175   0.258   6.985  0.0540  0.2847 -0.0463
 1525W        W 2522   7.558   3.672   1.996 -0.0224 -0.1558 -0.2812
 1526W        W 2523   4.545   4.777   5.475  0.0033  0.1756 -0.0502
 1527W        W 2524   3.686   0.863   1.594  0.0338  0.2380 -0.0200
 1528W        W 2525   4.311   7.119   4.622 -0.0550 -0.0379  0.2181
 1529W        W 2526   6.088   6.252   1.908 -0.2146 -0.0558  0.0049
 1530W        W 2527   0.854   5.964   3.472  0.0923 -0.0494  0.3108
 1531W        W 2528   4.556   2.653   1.617  0.1553  0.1608  0.0113
 1532W        W 2529   4.014   1.740   0.893 -0.1985  0.1266 -0.0990
 1533W        W 2530   2.156   7.200   5.016 -0.0001  0.0932 -0.1143
 1534W        W 2531   1.889   3.835   0.397  0.2037  0.0562  0.0597
 1535W        W 2532   0.970   5.562   4.772 -0.2984 -0.1772 -0.1930
 1536W        W 2533   5.682   6.324   3.315  0.1929 -0.0783 -0.3270
 1537W        W 2534   4.850   5.949   3.626  0.0665  0.2320  0.1243
 1538W        W 2535   4.037   3.559   1.232  0.3233 -0.2492  0.1318
 1539W        W 2536   4.925   3.714   3.188  0.3504  0.3950  0.0826
 1540W        W 2537   3.924   1.386   3.517 -0.0291  0.0973  0.0270
 1541W        W 2538   3.856   5.290   3.410  0.1039 -0.2397 -0.1696
 1542W        W 2539   3.705   2.587   5.203 -0.2680  0.0739  0.1715
 1543W        W 2540   4.993   5.117   1.889 -0.1453 -0.0410 -0.1884
 1544W        W 2541   6.873   2.617   0.210  0.1598 -0.1776  0.3068
 1545W        W 2542   3.822   4.312   5.358 -0.1776  0.0195  0.1579
 1546W        W 2543   7.501   5.221   5.288 -0.0959  0.0891 -0.1643
 1547W        W 2544   0.419   7.179   6.814 -0.1330 -0.2403 -0.2087
 1548W        W 2545   4.116   5.901   4.720 -0.0544 -0.1066  0.1731
 1549W        W 2546   6.573   1.787   7.239 -0.2466  0.1786 -0.0790
 1550W        W 2547   0.352   4.162   1.430 -0.0584 -0.2334 -0.1305
 1551W        W 2548   2.434   2.481   2.077  0.0079  0.4393  0.0288
 1552W        W 2549   3.002   3.353   5.212 -0.2450 -0.1131 -0.0708
 1553W        W 2550   6.583   2.952   2.687 -0.3312  0.0939  0.2720
 1554W        W 2551   6.981   5.077   7.554  0.2108  0.0592 -0.0073
 1555W        W 2552   2.155   2.068   2.179  0.1870 -0.1072  0.2581
 1556W        W 2553   0.282   2.891   2.242 -0.0438 -0.2999  0.4079
 1557W        W 2554   0.154   0.210   4.439 -0.0966  0.1137 -0.1768
 1558W        W 2555   6.136   4.566   1.095  0.1775  0.2509 -0.3525
 1559W        W 2556   5.163   0.392   5.779 -0.0145  0.0159  0.2281
 1560W        W 2557   3.523   1.263   4.039  0.2483  0.1597 -0.0272
 1561W        W 2558   2.452   0.084   3.479 -0.0373  0.0643  0.0779
 1562W        W 2559   4.697   7.173   3.003  0.0186  0.0355  0.0123
 1563W        W 2560   5.920   3.792   6.449  0.2369 -0.0480 -0.1031
 1564W        W 2561   0.687   1.299   6.979 -0.1380  0.1888  0.1287
 1565W        W 2562   2.109   1.622   4.495 -0.2748 -0.1867  0.3161
 1566W        W 2563   3.784   2.170   7.073 -0.4552 -0.2546 -0.1304
 1567W        W 2564   3.030   4.722   3.679 -0.1487 -0.0267 -0.1904
 1568W        W 2565   3.637   5.675   7.148 -0.0448 -0.1553 -0.0733
 1569W        W 2566   6.075   4.577   5.388  0.2319 -0.1796 -0.0044
 1570W        W 2567   4.685   7.025   5.878 -0.0371  0.0532 -0.0041
 1571W        W 2568   4.164   1.115   1.613 -0.3434  0.2035  0.2971
 1572W        W 2569   1.833   6.095   3.207  0.2739 -0.0259 -0.3019
 1573W        W 2570   4.253   6.927   2.063 -0.1314  0.2990 -0.0184
 1574W        W 2571   7.410   6.138   6.563  0.0775  0.1055  0.1236
 1575W        W 2572   6.628   5.766   3.366 -0.1230 -0.0539 -0.2647
 1576W        W 2573   3.760   2.611   6.232 -0.0117 -0.0202  0.0600
 1577W        W 2574   6.457   1.575   5.014  0.1094 -0.0668 -0.3175
 1578W        W 2575   1.273   3.581   1.616  0.0034  0.2741  0.0313
 1579W        W 2576   4.664   5.401   4.637  0.2113 -0.1921  0.0455
 1580W        W 2577   7.538   4.789   3.729 -0.1803  0.1094  0.0578
 1581W        W 2578   4.560   4.353   5.801  0.0122  0.2692 -0.2818
 1582W        W 2579   3.775   7.011   5.995  0.1165  0.1648  0.0741
 1583W        W 2580   6.810   4.210   1.623 -0.0339 -0.0442 -0.0536
 1584W        W 2581   5.626   1.325   0.999 -0.0968 -0.1014 -0.1741
 1585W        W 2582   3.907   2.913   1.799 -0.0449  0.3533 -0.3658
 1586W        W 2583   4.049   2.231   0.960  0.0477 -0.0721  0.1919
 1587W        W 2584   1.704   5.764   3.573  0.0784 -0.1967 -0.3431
 1588W        W 2585   0.187   6.399   6.827  0.1770 -0.0580 -0.1485
 1589W        W 2586   5.446   3.277   5.434  0.0835 -0.2951  0.1251
 1590W        W 2587   7.568   0.209   2.263 -0.0659  0.0585  0.3121
 1591W        W 2588   6.867   3.127   1.256 -0.0310 -0.0354 -0.2606
 1592W        W 2589   3.964   0.960   3.198  0.1350 -0.1954  0.1276
 1593W        W 2590   6.542   3.723   3.927 -0.1043  0.0744  0.1101
 1594W        W 2591   2.031   0.047   2.440 -0.0419 -0.0173  0.0969
 1595W        W 2592   5.105   3.880   7.245  0.1148 -0.5016 -0.0958
 1596W        W 2593   3.847   4.999   4.860 -0.0847  0.1386  0.1769
 1597W        W 2594   7.082   2.383   4.355  0.1665  0.0178 -0.1110
 1598W        W 2595   3.712   6.704   2.075  0.2156 -0.3031 -0.2520
 1599W        W 2596   7.087   2.650   6.818 -0.2168  0.2593  0.1468
 1600W        W 2597   4.950   4.799   7.273  0.0681 -0.1086 -0.0584
 1601W        W 2598   2.817   3.893   2.064 -0.0248 -0.3900 -0.0018
 1602W        W 2599   2.582   7.401   5.330 -0.3497  0.0470  0.3455
 1603W        W 2600   4.508   4.545   4.867  0.4155 -0.1407 -0.0163
 1604W        W 2601   3.818   1.351   0.617 -0.0395  0.3076  0.1054
 1605W        W 2602   3.845   1.030   7.095 -0.1028  0.0341 -0.0844
 1606W        W 2603   0.739   4.490   3.093 -0.0827  0.1421  0.1718
 1607W        W 2604   7.139   1.792   2.165  0.1658  0.4196  0.2691
 1608W        W 2605   0.341   2.385   5.831  0.1774  0.0044 -0.0482
 1609W        W 2606   0.188   2.624   1.398  0.4621  0.1395  0.0089
 1610W        W 2607   0.539   2.178   1.608  0.0373  0.2140  0.0975
 1611W        W 2608   5.756   5.998   5.327 -0.1924 -0.0388 -0.0470
 1612W        W 2609   2.953   4.682   2.489  0.1717 -0.2102 -0.0913
 1613W        W 2610   6.503   5.994   6.547 -0.0264 -0.1046  0.0334
 1614W        W 2611   1.359   2.085   4.042 -0.1936  0.1548  0.0497
 1615W        W 2612   3.416   6.880   2.482 -0.1776 -0.1391 -0.0359
 1616W        W 2613   3.710   6.984   6.809 -0.2652  0.1781  0.2204
 1617W        W 2614   5.869   5.590   3.951  0.0854 -0.2916 -0.3180
 1618W        W 2615   5.110   4.152   3.864  0.2190 -0.2465 -0.1148
 1619W        W 2616   3.974   3.045   7.188 -0.0193  0.1679  0.1273
 1620W        W 2617   6.262   4.872   2.042 -0.2556 -0.2832 -0.1770
 1621W        W 2618   7.030   0.664   3.925 -0.1127  0.0659  0.0249
 1622W        W 2619   5.341   4.187   1.471  0.0493  0.2644 -0.3552
 1623W        W 2620   3.931   4.831   0.137 -0.3017  0.2737  0.0896
 1624W        W 2621   1.434   4.303   5.959  0.3638 -0.1715 -0.0995
 1625W        W 2622   3.665   3.524   0.905 -0.0037 -0.3142  0.0105
 1626W        W 2623   3.191   4.695   1.129 -0.2363 -0.0112  0.1268
 1627W        W 2624   3.048   3.612   2.721  0.1038 -0.0113 -0.1917
 1628W        W 2625   2.212   4.559   6.500  0.0329  0.1400 -0.2719
 1629W        W 2626   5.334   1.112   5.424 -0.0997 -0.1017 -0.4140
 1630W        W 2627   2.354   4.051   7.290 -0.0388  0.0028 -0.3040
 1631W        W 2628   1.430   7.634   3.834 -0.1199  0.2144 -0.3418
 1632W        W 2629   3.228   6.908   6.886  0.0473 -0.2565  0.1527
 1633W        W 2630   7.211   2.601   3.561 -0.1636 -0.1714 -0.0512
 1634W        W 2631   7.005   4.436   5.713 -0.2835 -0.5619  0.1645
 1635W        W 2632   1.105   3.156   0.221  0.0248 -0.1138 -0.4487
 1636W        W 2633   5.827   1.699   3.632 -0.2078  0.1088  0.2180
 1637W        W 2634   4.926   6.675   2.998 -0.4819 -0.5412  0.2858
 1638W        W 2635   3.275   3.260   4.816  0.0892 -0.0542 -0.0957
 1639W        W 2636   1.392   1.562   3.949  0.0324  0.0004  0.0130
 1640W        W 2637   7.065   1.731   1.157  0.1928  0.1780  0.1638
 1641W        W 2638   3.426   2.154   2.544  0.0612 -0.1197  0.1812
 1642W        W 2639   7.185   4.840   0.997  0.0505 -0.3009  0.1067
 1643W        W 2640   3.411   5.143   1.030  0.2739 -0.1066 -0.1390
 1644W        W 2641   2.379   7.067   2.660  0.2097  0.1631  0.0529
 1645W        W 2642   0.135   1.440   4.042 -0.2479  0.3660  0.3509
 1646W        W 2643   4.435   2.222   0.478  0.0546  0.1344 -0.0566
 1647W        W 2644   6.078   2.556   4.249 -0.3846  0.0934  0.1432
 1648W        W 2645   4.037   6.576   6.954 -0.0835 -0.0380 -0.2422
 1649W        W 2646   3.128   6.881   2.025 -0.0013 -0.0934 -0.0397
 1650W        W 2647   5.171   5.521   3.400 -0.1317 -0.2920  0.0595
 1651W        W 2648   2.115   7.089   4.118  0.0967  0.0280  0.1519
 1652W        W 2649   6.135   7.020   4.275  0.2253 -0.0784  0.1290
 1653W        W 2650   5.027   0.199   5.357  0.1847 -0.2159 -0.1187
 1654W        W 2651   3.624   5.558   2.485 -0.0584 -0.1782 -0.0266
 1655W        W 2652   7.568   1.756   2.801  0.0805  0.3909 -0.1709
 1656W        W 2653   1.754   2.478   2.301 -0.0480 -0.0930 -0.0083
 1657W        W 2654   2.743   4.763   4.214  0.0367  0.0935 -0.1981
 1658W        W 2655   1.140   1.652   7.046  0.0121 -0.0686  0.1724
 1659W        W 2656   4.206   5.238   6.985 -0.1105 -0.0592  0.1032
 1660W        W 2657   1.017   0.982   4.103  0.0038 -0.0741  0.3472
 1661W        W 2658   2.980   5.435   2.687  0.1760 -0.0968 -0.1065
 1662W        W 2659   1.094   1.172   6.210 -0.1352 -0.1958  0.0497
 1663W        W 2660   6.874   3.774   7.248 -0.1431  0.2764 -0.2902
 1664W        W 2661   7.495   1.866   3.833  0.1673  0.2965 -0.0003
 1665W        W 2662   6.453   6.486   4.226 -0.0018 -0.0839  0.2252
 1666W        W 2663   7.169   0.664   5.610  0.1679 -0.1088  0.3917
 1667W        W 2664   1.172   1.530   0.181  0.0845  0.0779 -0.1605
 1668W        W 2665   1.313   1.526   2.311  0.0488  0.0063  0.1480
 1669W        W 2666   0.596   0.708   2.404 -0.1227 -0.1984  0.0846
 1670W        W 2667   0.230   0.601   4.106 -0.1122 -0.1576  0.2930
 1671W        W 2668   4.716   7.516   4.403 -0.1492 -0.1729 -0.3660
 1672W        W 2669   7.376   2.991   6.182 -0.0324 -0.0446 -0.2534
 1673W        W 2670   2.875   7.113   3.366 -0.1304  0.0062  0.0497
 1674W        W 2671   0.433   0.145   2.279  0.0615 -0.1076  0.2211
 1675W        W 2672   2.276   3.242   5.736  0.0540 -0.1500  0.3184
 1676W        W 2673   1.122   6.845   2.552 -0.2754  0.4282  0.1177
 1677W        W 2674   3.538   3.633   2.849  0.0880  0.0404 -0.3321
 1678W        W 2675   4.678   7.306   3.479  0.1003 -0.0089  0.0489
 1679W        W 2676   1.390   6.106   2.796  0.1807  0.0559 -0.1288
 1680W        W 2677   2.952   2.396   6.777 -0.1882  0.1827  0.1100
 1681W        W 2678   3.998   5.049   0.774 -0.1210  0.1923 -0.3796
 1682W        W 2679   3.003   1.563   2.319  0.2199  0.1876  0.0922
 1683W        W 2680   2.219   1.338   5.943 -0.0129 -0.0810 -0.1099
 1684W        W 2681   5.856   2.397   6.815  0.1451 -0.1488  0.1264
 1685W        W 2682   0.216   7.029   1.907  0.3141  0.1847  0.2283
 1686W        W 2683   5.318   2.702   6.897  0.0786  0.0091  0.0019
 1687W        W 2684   0.688   1.018   6.521  0.1944 -0.0588  0.3077
 1688W        W 2685   4.669   3.536   5.906  0.0453 -0.0483 -0.1017
 1689W        W 2686   0.042   6.927   6.625 -0.2313 -0.2012 -0.2408
 1690W        W 2687   4.929   2.131   3.834 -0.4594  0.2831  0.1174
 1691W        W 2688   3.279   4.730   6.180 -0.1221 -0.2538  0.0549
 1692W        W 2689   4.878   1.411   4.663  0.0102 -0.0656  0.1596
 1693W        W 2690   4.860   4.728   3.520  0.3361 -0.0743 -0.2151
 1694W        W 2691   3.992   1.174   1.052  0.0749  0.2869 -0.0097
 1695W        W 2692   4.983   5.352   7.615  0.2559  0.1127  0.1620
 1696W        W 2693   5.431   5.030   0.906  0.3430 -0.2366 -0.0129
 1697W        W 2694   7.254   2.530   2.272  0.1442 -0.1009 -0.0093
 1698W        W 2695   4.505   7.078   4.060  0.0801  0.1313 -0.0056
 1699W        W 2696   7.534   7.076   4.437 -0.0727  0.1438 -0.1187
 1700W        W 2697   2.711   4.073   0.108  0.1504 -0.3234 -0.0917
 1701W        W 2698   3.391   0.343   5.025 -0.1862  0.0957 -0.1252
 1702W        W 2699   4.548   6.262   6.105  0.0826 -0.4049  0.1986
 1703W        W 2700   3.857   7.368   4.673 -0.1172  0.4460  0.0211
 1704W        W 2701   4.804   1.431   1.624 -0.0695  0.1612 -0.3350
 1705W        W 2702   5.977   3.531   1.693  0.1534 -0.1866  0.0671
 1706W        W 2703   0.170   2.839   2.802 -0.0276 -0.1461 -0.0257
 1707W        W 2704   6.050   1.197   5.297 -0.0017  0.0993  0.0709
 1708W        W 2705   3.503   6.332   3.289 -0.1748 -0.3089  0.1342
 1709W        W 2706   3.765   7.331   2.870 -0.1435 -0.2051  0.0265
 1710W        W 2707   4.395   1.781   6.445  0.1548  0.2054  0.0580
 1711W        W 2708   0.036   2.242   2.865  0.2182 -0.0253  0.2080
 1712W        W 2709   0.122   4.404   7.301 -0.0555 -0.3242  0.0830
 1713W        W 2710   5.357   6.086   5.616  0.2993 -0.1044 -0.0385
 1714W        W 2711   3.592   6.963   3.888  0.1797 -0.4284 -0.2752
 1715W        W 2712   4.125   5.408   4.568  0.1009 -0.2372  0.0270
 1716W        W 2713   4.163   6.370   6.446 -0.0143 -0.1767 -0.0720
 1717W        W 2714   7.595   0.748   2.444  0.1335  0.1652 -0.0483
 1718W        W 2715   3.854   3.738   3.333 -0.3210  0.1773 -0.2132
 1719W        W 2716   7.128   4.045   3.056  0.2295 -0.2852 -0.1352
 1720W        W 2717   6.214   0.036   3.167  0.2908  0.1225  0.0754
 1721W        W 2718   7.521   6.892   2.245 -0.1608 -0.1633  0.0187
 1722W        W 2719   0.671   7.278   3.930 -0.3535  0.0735  0.1765
 1723W        W 2720   3.277   4.243   6.810 -0.2191  0.1651 -0.0318
 1724W        W 2721   2.601   1.962   5.437 -0.0286  0.1864  0.3350
 1725W        W 2722   0.895   2.406   1.933  0.2786 -0.1750 -0.0841
 1726W        W 2723   3.479   4.913   4.026 -0.3225 -0.1873 -0.0223
 1727W        W 2724   6.185   3.569   7.066  0.0758 -0.3772 -0.0280
 1728W        W 2725   4.816   0.760   2.509 -0.0831 -0.3708  0.1762
 1729W        W 2726   3.061   3.243   1.120 -0.2854 -0.0588 -0.0187
 1730W        W 2727   0.424   4.323   2.685  0.0929 -0.0113  0.1856
 1731W        W 2728   6.677   6.743   6.584  0.1112 -0.0362  0.0000
 1732W        W 2729   4.122   7.120   5.555  0.2359 -0.1088 -0.0191
 1733W        W 2730   6.743   4.949   0.402 -0.0571  0.0708  0.1070
 1734W        W 2731   5.297   2.064   4.162  0.1779  0.0467  0.1648
 1735W        W 2732   1.910   7.465   7.133  0.0584  0.1353 -0.1429
 1736W        W 2733   6.160   0.091   2.283  0.1895 -0.2211  0.0283
 1737W        W 2734   5.374   5.444   3.947 -0.1311 -0.0157  0.4485
 1738W        W 2735   6.017   4.035   0.237  0.0429 -0.0944 -0.0514
 1739W        W 2736   1.418   6.624   5.410  0.1643  0.0679  0.1347
 1740W        W 2737   6.664   4.281   7.312  0.1068  0.2296 -0.0793
 1741W        W 2738   3.375   5.892   6.739  0.2851  0.0429  0.1881
 1742W        W 2739   2.927   3.844   5.377  0.2374  0.2988 -0.0732
 1743W        W 2740   1.968   6.590   3.360 -0.2305  0.0785 -0.1601
 1744W        W 2741   4.521   1.256   2.452  0.1411  0.0372 -0.1420
 1745W        W 2742   2.795   1.152   3.435  0.3193 -0.0769 -0.0039
 1746W        W 2743   5.031   4.337   1.997 -0.2241  0.2144 -0.2915
 1747W        W 2744   4.514   7.064   6.867  0.0982  0.0798 -0.1465
 1748W        W 2745   3.260   1.756   3.885  0.3794  0.2895  0.1295
 1749W        W 2746   4.329   5.116   3.621 -0.1343  0.0035 -0.0706
 1750W        W 2747   1.173   7.152   3.090  0.0557  0.0344 -0.1182
 1751W        W 2748   4.461   4.468   2.484  0.0255 -0.0856  0.1801
 1752W        W 2749   3.977   7.576   5.954 -0.0838  0.1253  0.1330
 1753W        W 2750   2.260   3.875   0.938 -0.0526  0.0797 -0.1927
 1754W        W 2751   0.196   6.993   3.990 -0.0629 -0.1139 -0.2845
 1755W        W 2752   6.591   7.292   1.572 -0.0157 -0.2151  0.3195
 1756W        W 2753   4.079   4.663   2.167  0.2846  0.2471  0.1064
 1757W        W 2754   5.295   1.822   7.407  0.1789  0.2096  0.0021
 1758W        W 2755   4.990   4.691   5.809  0.1310  0.4554  0.2056
 1759W        W 2756   5.792   1.048   5.779 -0.0882 -0.0255 -0.0225
 1760W        W 2757   5.048   5.314   2.899  0.2423 -0.2208  0.0373
 1761W        W 2758   5.881   6.536   2.725 -0.1893  0.2161  0.1788
 1762W        W 2759   1.120   6.420   6.755  0.0524  0.1184 -0.0094
 1763W        W 2760   0.340   7.384   4.408 -0.3110  0.1240 -0.2010
 1764W        W 2761   1.145   1.035   3.175  0.0045 -0.1754  0.1357
 1765W        W 2762   6.824   3.944   2.062  0.0706  0.0707  0.0402
 1766W        W 2763   5.356   2.320   4.876 -0.1819  0.1197 -0.0789
 1767W        W 2764   6.818   4.526   0.786 -0.3347  0.1271  0.1232
 1768W        W 2765   3.534   4.606   7.123 -0.0662 -0.1354 -0.1190
 1769W        W 2766   2.648   1.120   2.369 -0.1283 -0.1920 -0.1970
 1770W        W 2767   5.856   2.052   6.118 -0.0501 -0.0942 -0.2699
 1771W        W 2768   1.106   6.948   5.142 -0.5796  0.1000 -0.1813
 1772W        W 2769   0.180   1.787   1.848  0.2842  0.1906 -0.0936
 1773W        W 2770   4.065   4.130   2.431  0.2399 -0.0135 -0.1760
 1774W        W 2771   4.807   0.138   7.206 -0.1589  0.1236  0.2453
 1775W        W 2772   1.081   1.425   3.512  0.0467  0.5570  0.0342
 1776W        W 2773   5.092   4.376   7.516  0.1247 -0.0660 -0.3352
 1777W        W 2774   6.798   7.173   2.559  0.0504 -0.1174  0.2289
 1778W        W 2775   5.217   7.530   4.489  0.0404 -0.0359  0.1779
 1779W        W 2776   4.316   5.670   7.217  0.0808 -0.1175  0.1865
 1780W        W 2777   6.784   2.953   5.458 -0.2369 -0.1295  0.0107
 1781W        W 2778   1.398   3.213   0.902  0.1407  0.1536  0.3566
 1782W        W 2779   3.611   4.235   5.862  0.1191 -0.0744 -0.0822
 1783W        W 2780   0.872   0.973   3.667 -0.1454 -0.0977 -0.2271
 1784W        W 2781   0.795   6.289   3.866 -0.0177 -0.3355  0.1031
 1785W        W 2782   6.345   2.906   5.036  0.0775  0.3689 -0.1980
 1786W        W 2783   5.414   6.745   2.844  0.1800 -0.0352 -0.3120
 1787W        W 2784   1.737   6.759   7.359  0.3104  0.0546 -0.1480
 1788W        W 2785   1.689   3.960   1.472 -0.4038 -0.2243  0.0960
 1789W        W 2786   1.020   6.321   2.512 -0.1908  0.1705 -0.1895
 1790W        W 2787   3.787   4.972   1.294  0.3364  0.0034 -0.0535
 1791W        W 2788   6.234   2.831   2.374 -0.1121  0.0875 -0.3466
 1792W        W 2789   5.235   6.153   6.096 -0.0924 -0.2376 -0.3001
 1793W        W 2790   3.634   0.086   6.559  0.2997  0.0003 -0.1093
 1794W        W 2791   3.969   5.630   6.015 -0.0646 -0.1093 -0.0904
 1795W        W 2792   1.826   0.291   3.706 -0.2189 -0.0622  0.0072
 1796W        W 2793   3.548   0.646   3.299 -0.2073  0.2972 -0.0409
 1797W        W 2794   3.745   5.149   7.229 -0.0794 -0.2236  0.0174
 1798W        W 2795   2.418   6.808   7.224  0.1347 -0.2440  0.1288
 1799W        W 2796   4.417   2.733   4.579 -0.0207 -0.0987  0.1849
 1800W        W 2797   2.166   4.587   1.812  0.2363 -0.0085  0.0221
 1801W        W 2798   4.504   4.003   2.686 -0.0555 -0.0943 -0.2960
 1802W        W 2799   5.033   3.590   6.311  0.0603  0.0957  0.0842
 1803W        W 2800   0.160   3.655   1.526  0.3987  0.3359 -0.1932
 1804W        W 2801   2.712   0.182   4.059  0.2441  0.0172 -0.0982
 1805W        W 2802   0.620   4.190   4.083 -0.1244 -0.1824 -0.3632
 1806W        W 2803   7.015   5.189   1.276  0.1217 -0.0692 -0.0600
 1807W        W 2804   5.343   5.900   3.706  0.1342  0.0591 -0.3896
 1808W        W 2805   3.717   6.002   5.105  0.0432  0.1103  0.3727
 1809W        W 2806   2.369   2.226   2.923  0.1773  0.2722  0.0687
 1810W        W 2807   4.253   7.289   2.678 -0.3199  0.1138  0.1674
 1811W        W 2808   2.326   4.038   0.470  0.0937 -0.5903  0.0927
 1812W        W 2809   6.320   1.388   2.205  0.2965  0.1053  0.1748
 1813W        W 2810   5.568   4.151   7.259  0.6014  0.1945 -0.0559
 1814W        W 2811   3.418   2.801   1.125 -0.1693  0.1454  0.1230
 1815W        W 2812   2.336   6.205   3.043 -0.3278 -0.1260  0.0510
 1816W        W 2813   4.766   2.802   3.180  0.0016  0.1642  0.1501
 1817W        W 2814   2.126   5.287   3.200 -0.1364 -0.1063  0.1424
 1818W        W 2815   0.654   4.079   2.314  0.1369  0.0418  0.2127
 1819W        W 2816   2.331   3.672   0.079  0.2618  0.1425 -0.0099
 1820W        W 2817   5.521   5.338   2.132 -0.0894 -0.0180 -0.0718
 1821W        W 2818   4.718   7.364   0.241  0.3249 -0.0529 -0.2573
 1822W        W 2819   6.051   2.495   6.292 -0.1320 -0.0603  0.2104
 1823W        W 2820   3.460   2.760   1.607 -0.0314 -0.2240  0.0473
 1824W        W 2821   5.365   5.129   6.332 -0.1465 -0.2386 -0.0848
 1825W        W 2822   5.637   1.983   5.107 -0.0397  0.0613 -0.0448
 1826W        W 2823   4.089   0.851   6.556  0.0742 -0.1486  0.0491
 1827W        W 2824   4.655   1.890   1.946 -0.2387  0.1021 -0.0124
 1828W        W 2825   2.570   2.842   1.713  0.0910 -0.3168  0.0669
 1829W        W 2826   3.029   1.100   5.490  0.2190 -0.2985  0.1406
 1830W        W 2827   4.307   2.602   0.829  0.2693 -0.0197  0.2102
 1831W        W 2828   2.954   5.919   2.540  0.0198 -0.3890 -0.0738
 1832W        W 2829   7.238   1.697   6.203 -0.0797  0.2208 -0.0189
 1833W        W 2830   7.244   4.601   2.994 -0.0908 -0.2107 -0.2014
 1834W        W 2831   0.245   3.074   6.896  0.0640  0.0637 -0.1422
 1835W        W 2832   4.957   5.694   1.916  0.0010 -0.1820 -0.2531
 1836W        W 2833   4.636   2.723   5.885  0.0602  0.0069  0.1550
 1837W        W 2834   6.378   3.745   3.274 -0.2245  0.0251  0.1510
 1838W        W 2835   2.082   7.326   2.944 -0.0359  0.1197  0.1893
 1839W        W 2836   2.507   1.586   2.121  0.0310  0.2561  0.1663
 1840W        W 2837   6.575   3.378   3.564 -0.1891  0.1649  0.0438
 1841W        W 2838   3.049   4.276   3.408 -0.0420  0.1465  0.1252
 1842W        W 2839   1.609   3.378   7.205  0.0417  0.2074 -0.1705
 1843W        W 2840   6.892   4.840   4.257  0.1874 -0.2421  0.2860
 1844W        W 2841   1.312   2.673   6.404 -0.2291 -0.1334  0.0491
 1845W        W 2842   6.077   3.289   6.519  0.1244 -0.0884  0.1800
 1846W        W 2843   7.184   1.793   0.617  0.2130  0.0852 -0.0548
 1847W        W 2844   7.067   4.122   1.158  0.2792  0.0384 -0.0748
 1848W        W 2845   1.586   6.639   2.619  0.1620 -0.2779 -0.0276
 1849W        W 2846   6.128   3.747   4.641 -0.0945  0.0305  0.3971
 1850W        W 2847   7.492   7.599   6.158 -0.2118 -0.1822 -0.0791
 1851W        W 2848   1.007   3.034   5.602  0.4605 -0.1703  0.4456
 1852W        W 2849   6.279   1.263   2.696 -0.1148  0.0014 -0.0553
 1853W        W 2850   3.100   6.640   3.177  0.0848  0.2176 -0.0756
 1854W        W 2851   3.428   5.740   4.625 -0.3588 -0.3652 -0.2969
 1855W        W 2852   5.058   6.404   3.804  0.0487  0.0060 -0.0350
 1856W        W 2853   2.021   2.360   5.666  0.1315 -0.0712 -0.2696
 1857W        W 2854   5.766   4.382   1.383  0.2093  0.0093  0.0321
 1858W        W 2855   2.331   2.958   6.566 -0.3474  0.2858 -0.1975
 1859W        W 2856   2.789   4.846   5.447 -0.3854  0.1047  0.1022
 1860W        W 2857   0.415   3.727   0.489  0.0280  0.1751  0.1961
 1861W        W 2858   1.205   0.517   5.391 -0.0791  0.3366 -0.0082
 1862W        W 2859   2.491   1.765   1.616 -0.2857  0.0055 -0.1862
 1863W        W 2860   2.296   6.679   3.683 -0.0990 -0.0171  0.0090
 1864W        W 2861   3.493   7.249   5.518  0.0982  0.0764 -0.2246
 1865W        W 2862   6.330   4.835   5.739  0.0414  0.2791  0.3178
 1866W        W 2863   0.857   6.981   3.540  0.0588 -0.0562  0.0461
 1867W        W 2864   4.686   2.953   0.673 -0.1429  0.0928  0.0631
 1868W        W 2865   6.855   2.089   0.865 -0.1715  0.2904  0.1498
 1869W        W 2866   6.646   4.618   5.401  0.3624  0.2241  0.0358
 1870W        W 2867   1.841   1.143   4.718  0.3048  0.1732  0.1958
 1871W        W 2868   4.921   5.421   1.479 -0.2185 -0.3213  0.1585
 1872W        W 2869   1.650   2.097   6.475  0.1583  0.4444 -0.0904
 1873W        W 2870   5.750   6.752   6.581  0.0701  0.2159  0.1090
 1874W        W 2871   1.963   7.270   6.125 -0.0366  0.2724 -0.0793
 1875W        W 2872   4.478   5.582   5.941 -0.1664  0.1442  0.2458
 1876W        W 2873   5.997   2.053   7.575 -0.0871 -0.1193 -0.0572
 1877W        W 2874   4.955   6.289   4.802  0.1785 -0.0521  0.0467
 1878W        W 2875   4.489   2.977   5.072 -0.0633  0.0042 -0.0185
 1879W        W 2876   5.161   7.146   2.558  0.1601  0.1128 -0.0417
 1880W        W 2877   6.320   0.098   1.699  0.1787 -0.1246  0.1133
 1881W        W 2878   0.184   0.474   3.143 -0.3524 -0.1817 -0.1422
 1882W        W 2879   1.430   7.106   4.666 -0.2333  0.0941  0.2239
 1883W        W 2880   2.874   4.022   6.644  0.0193 -0.0147  0.1034
 1884W        W 2881   0.719   3.289   5.919  0.3998 -0.2938 -0.3381
 1885W        W 2882   2.880   3.400   6.510 -0.4957  0.1269  0.0582
 1886W        W 2883   6.154   4.924   0.280  0.1714  0.0906  0.1093
 1887W        W 2884   6.943   0.050   1.628 -0.1858  0.0936 -0.0473
 1888W        W 2885   3.679   0.382   4.541  0.1761 -0.0600 -0.0450
 1889W        W 2886   2.666   0.110   6.075  0.1422 -0.0973 -0.2883
 1890W        W 2887   4.404   1.507   4.670  0.1507  0.4340 -0.0343
 1891W        W 2888   4.894   5.335   6.034 -0.1805  0.3016 -0.0868
 1892W        W 2889   4.094   3.433   1.678  0.2740  0.5239 -0.1902
 1893W        W 2890   3.956   3.679   6.606 -0.1816  0.0765 -0.0130
 1894W        W 2891   3.688   6.191   2.009  0.0107  0.2248 -0.1780
 1895W        W 2892   6.316   4.232   4.126  0.3618 -0.1552 -0.1389
 1896W        W 2893   0.025   7.291   5.818 -0.2820  0.1544 -0.1498
 1897W        W 2894   3.118   1.964   3.444  0.0222  0.2042 -0.0650
 1898W        W 2895   6.761   1.956   4.335 -0.0425  0.3001  0.1444
 1899W        W 2896   0.725   7.618   1.881 -0.0287 -0.2629  0.0780
 1900W        W 2897   6.717   1.099   3.322 -0.0909 -0.1182 -0.0787
 1901W        W 2898   7.572   4.893   1.348 -0.1058  0.1401  0.0826
 1902W        W 2899   6.324   1.396   6.487  0.0039 -0.1577  0.0596
 1903W        W 2900   5.192   4.302   6.990 -0.2815 -0.0833 -0.1866
 1904W        W 2901   4.879   2.481   0.735  0.1996 -0.1578  0.2259
 1905W        W 2902   4.292   3.223   4.716  0.1769  0.3092 -0.1548
 1906W        W 2903   7.271   4.517   2.428 -0.3036 -0.0065  0.1680
 1907W        W 2904   4.518   3.472   3.824  0.0048  0.0693  0.1166
 1908W        W 2905   3.878   5.849   6.818 -0.0729 -0.3668  0.2597
 1909W        W 2906   6.591   2.508   4.352 -0.2865 -0.2248  0.0483
 1910W        W 2907   4.225   2.715   3.264  0.0179  0.0413 -0.0790
 1911W        W 2908   2.741   4.343   3.922 -0.0465  0.0173  0.0706
 1912W        W 2909   0.065   2.191   1.580  0.3068 -0.4443  0.0430
 1913W        W 2910   5.830   5.035   2.666  0.3617 -0.0116 -0.2096
 1914W        W 2911   3.447   7.380   3.742  0.2486 -0.0787 -0.1134
 1915W        W 2912   2.902   3.088   7.360 -0.1772 -0.2772 -0.2321
 1916W        W 2913   1.128   6.977   6.750  0.1750  0.0379  0.1605
 1917W        W 2914   0.710   2.924   7.053 -0.1180 -0.2250 -0.1445
 1918W        W 2915   3.435   0.016   7.506  0.3732  0.0695 -0.1081
 1919W        W 2916   5.371   0.841   5.933  0.2015 -0.1176 -0.3596
 1920W        W 2917   5.151   0.039   0.367 -0.0498  0.1149  0.1717
 1921W        W 2918   3.753   6.562   1.574  0.1611 -0.3008 -0.2604
 1922W        W 2919   2.186   7.585   3.964  0.2330 -0.2401  0.2966
 1923W        W 2920   3.813   1.483   1.419  0.2584 -0.2341  0.2616
 1924W        W 2921   0.395   4.649   3.415  0.2615  0.1730  0.0201
 1925W        W 2922   5.116   6.143   7.541 -0.3393 -0.1927 -0.0675
 1926W        W 2923   4.859   2.361   6.841  0.0485  0.0842  0.1961
 1927W        W 2924   4.780   4.894   4.542 -0.1137 -0.0615  0.0825
 1928W        W 2925   3.981   2.629   4.274 -0.1053 -0.2370  0.2138
 1929W        W 2926   2.636   0.626   3.664 -0.0233 -0.0610 -0.0945
 1930W        W 2927   1.727   5.225   0.472 -0.0836 -0.0846  0.0361
 1931W        W 2928   0.267   7.151   4.847 -0.0862  0.0826  0.0686
 1932W        W 2929   6.727   5.313   5.795  0.2661 -0.2207  0.0016
 1933W        W 2930   7.070   0.404   2.665  0.0672  0.0702  0.1398
 1934W        W 2931   6.707   5.455   3.924  0.1265  0.0253  0.0880
 1935W        W 2932   2.098   3.198   6.223 -0.0872  0.1346 -0.1009
 1936W        W 2933   3.125   2.090   5.240  0.0950 -0.2605 -0.0200
 1937W        W 2934   2.541   6.823   2.156  0.2500 -0.1848  0.2486
 1938W        W 2935   2.533   2.566   0.558  0.0111  0.1577  0.0561
 1939W        W 2936   5.840   6.610   4.157  0.2306 -0.1516 -0.1218
 1940W        W 2937   4.925   7.299   7.123  0.1563  0.0449 -0.1434
 1941W        W 2938   1.812   1.382   3.652  0.1001 -0.1657 -0.2240
 1942W        W 2939   5.139   4.554   3.135 -0.1093 -0.1318 -0.4436
 1943W        W 2940   5.069   6.564   5.501 -0.1188 -0.0726 -0.2912
 1944W        W 2941   4.659   0.689   4.589  0.1389  0.0183  0.3358
 1945W        W 2942   6.243   7.539   4.867  0.0079 -0.2688  0.2361
 1946W        W 2943   3.636   1.974   0.702  0.3479  0.3181 -0.2290
 1947W        W 2944   0.350   5.899   5.011  0.1516 -0.1241 -0.2389
 1948W        W 2945   5.071   5.685   5.638 -0.0059 -0.2511  0.0697
 1949W        W 2946   2.064   0.844   1.128  0.2834 -0.2368 -0.0269
 1950W        W 2947   2.131   1.090   6.850 -0.2505 -0.2195  0.0266
 1951W        W 2948   3.057   4.214   1.587  0.1609  0.1562 -0.0822
 1952W        W 2949   4.750   3.544   0.549  0.1616  0.1068 -0.1378
 1953W        W 2950   3.358   4.995   1.530  0.0624 -0.0063 -0.0266
 1954W        W 2951   4.166   2.624   1.333 -0.0584  0.2530 -0.1882
 1955W        W 2952   4.208   4.479   3.004  0.1295  0.2108 -0.3418
 1956W        W 2953   6.748   3.519   0.182  0.0935 -0.1149  0.3473
 1957W        W 2954   0.963   0.140   4.081 -0.0064  0.1443 -0.2314
 1958W        W 2955   5.908   6.150   7.412  0.0609  0.0501 -0.2972
 1959W        W 2956   5.339   0.257   2.089 -0.2319  0.3194  0.2178
 1960W        W 2957   0.861   2.267   0.337  0.0353  0.1175  0.1152
 1961W        W 2958   7.582   0.750   6.917 -0.0786 -0.1525 -0.1096
 1962W        W 2959   5.562   7.623   1.138 -0.1313  0.0097  0.0735
 1963W        W 2960   4.979   3.127   0.342 -0.0483 -0.0835 -0.1740
 1964W        W 2961   5.892   1.531   4.847 -0.0823 -0.3044 -0.0881
 1965W        W 2962   7.145   1.480   0.211  0.2818 -0.2966  0.2134
 1966W        W 2963   4.586   0.773   6.915 -0.1686  0.0704  0.0251
 1967W        W 2964   2.006   1.945   0.098 -0.1024 -0.1344  0.2580
 1968W        W 2965   3.153   0.723   6.753 -0.1878  0.3147 -0.0810
 1969W        W 2966   4.221   0.495   3.194 -0.0757  0.0114  0.0821
 1970W        W 2967   5.662   4.398   0.076  0.0160 -0.1274 -0.1806
 1971W        W 2968   0.372   4.436   6.717  0.1462  0.0866  0.2938
 1972W        W 2969   5.228   5.800   2.839  0.1896 -0.4851 -0.1056
 1973W        W 2970   5.468   1.205   2.071 -0.0726 -0.1489  0.2124
 1974W        W 2971   2.371   1.270   3.151  0.0268  0.1227 -0.1061
 1975W        W 2972   1.042   7.151   2.131 -0.3598 -0.0952 -0.0261
 1976W        W 2973   7.348   2.202   1.910  0.2287  0.1061 -0.1724
 1977W        W 2974   7.399   7.466   1.753  0.2409  0.0699 -0.3772
 1978W        W 2975   3.829   7.182   2.380 -0.1617  0.0023 -0.0304
 1979W        W 2976   4.725   0.015   1.907 -0.0041 -0.1113  0.2008
 1980W        W 2977   3.327   7.339   2.571  0.3723  0.0673 -0.0509
 1981W        W 2978   5.735   0.847   2.420 -0.2521  0.0464 -0.2412
 1982W        W 2979   4.313   6.573   4.300 -0.1019 -0.2504 -0.1944
 1983W        W 2980   2.628   7.316   4.124 -0.0292 -0.1767  0.0110
 1984W        W 2981   5.500   1.023   6.768 -0.1478 -0.3337  0.2051
 1985W        W 2982   3.738   3.786   2.041 -0.0315 -0.1120 -0.1767
 1986W        W 2983   0.830   0.538   3.894  0.1270  0.1007 -0.0198
 1987W        W 2984   0.714   1.778   5.559  0.3392  0.0300  0.0602
 1988W        W 2985   1.867   6.336   5.120 -0.3146 -0.0061 -0.3224
 1989W        W 2986   0.502   2.745   1.763 -0.1379 -0.1668  0.1000
 1990W        W 2987   6.419   0.228   4.476 -0.2193 -0.2061  0.1746
 1991W        W 2988   7.031   3.502   5.394 -0.1800 -0.2446 -0.1341
 1992W        W 2989   3.445   7.230   2.052  0.0887  0.1858  0.2076
 1993W        W 2990   0.800   1.769   4.236 -0.0486 -0.1334  0.0717
 1994W        W 2991   5.999   0.197   5.601 -0.0699 -0.0303 -0.4906
 1995W        W 2992   2.732   1.028   6.794 -0.1106  0.0616  0.0935
 1996W        W 2993   1.077   0.550   3.477 -0.2832  0.1136 -0.1312
 1997W        W 2994   2.856   5.037   3.376  0.1719  0.2609 -0.0619
 1998W        W 2995   0.295   5.586   5.406  0.0712 -0.2085 -0.0225
 1999W        W 2996   4.692   7.127   2.136  0.1508  0.0904 -0.2740
 2000W        W 2997   6.255   6.745   6.735  0.0478  0.0482 -0.1079
 2001W        W 2998   3.793   3.813   5.438  0.0225  0.2679  0.2284
 2002W        W 2999   2.698   6.463   7.548  0.3231 -0.1085 -0.0151
 2003W        W 3000   7.343   0.644   4.351 -0.1608 -0.0227  0.0530
 2004W        W 3001   3.687   6.071   2.911 -0.0867  0.0377 -0.3326
 2005W        W 3002   7.261   7.367   2.333  0.2055  0.1040 -0.0249
 2006W        W 3003   2.542   3.377   2.365  0.0227  0.2700 -0.5955
 2007W        W 3004   4.922   6.604   6.063  0.0999  0.0668 -0.0530
 2008W        W 3005   5.402   2.547   3.554  0.1847  0.1618  0.4810
 2009W        W 3006   1.849   4.114   7.302 -0.1656 -0.2777 -0.1453
 2010W        W 3007   0.504   2.335   4.445  0.1831  0.2454  0.0995
 2011W        W 3008   3.579   2.115   6.141 -0.1483  0.2232 -0.0408
 2012W        W 3009   4.303   1.375   0.747  0.0509  0.2059 -0.0051
 2013W        W 3010   1.526   5.081   2.937 -0.0033 -0.1097 -0.2293
 2014W        W 3011   5.105   2.986   5.688 -0.0829  0.2595 -0.0494
 2015W        W 3012   0.280   4.402   1.007 -0.0024  0.1058  0.1056
 2016W        W 3013   0.520   1.873   4.655 -0.1626  0.2058 -0.1263
 2017W        W 3014   5.684   3.044   5.048 -0.0518 -0.1210 -0.1011
 2018W        W 3015   2.164   5.253   0.251  0.1867 -0.0749  0.0317
 2019W        W 3016   7.144   2.639   5.254 -0.0147  0.0849  0.0685
 2020W        W 3017   6.860   4.025   6.496 -0.1311  0.0479  0.2700
 2021W        W 3018   6.063   6.226   4.480  0.0269 -0.0380  0.3279
 2022W        W 3019   2.566   2.335   5.852  0.0190  0.1944  0.1044
 2023W        W 3020   2.295   0.648   6.978 -0.2197  0.0786 -0.0016
 2024W        W 3021   3.982   3.666   2.668  0.3636 -0.1913 -0.0631
 2025W        W 3022   5.088   0.901   2.954  0.0566 -0.0345 -0.0180
 2026W        W 3023   4.561   4.967   0.802 -0.1495  0.0306  0.2863
 2027W        W 3024   7.436   1.838   7.429 -0.1495 -0.2290  0.1115
 2028W        W 3025   1.127   1.091   0.991 -0.1067 -0.0275  0.0418
 2029W        W 3026   1.096   0.832   0.103  0.1129 -0.3504 -0.1754
 2030W        W 3027   6.005   0.763   4.280  0.1329 -0.2081  0.0406
 2031W        W 3028   6.310   6.175   7.047  0.1314  0.2662  0.1217
 2032W        W 3029   1.971   2.243   3.234  0.0495  0.1148  0.1850
 2033W        W 3030   4.314   0.799   3.567  0.0291  0.3175 -0.0649
 2034W        W 3031   7.229   3.967   5.626  0.1935 -0.0744  0.1033
 2035W        W 3032   2.254   0.530   2.279  0.0603  0.3817 -0.2067
 2036W        W 3033   3.157   0.998   7.494  0.2787 -0.0714  0.2680
 2037W        W 3034   5.177   2.532   4.056 -0.1916  0.1944  0.1310
 2038W        W 3035   1.321   6.022   6.561  0.0852 -0.0036  0.0454
 2039W        W 3036   2.766   0.505   0.069 -0.0864  0.0315 -0.2979
 2040W        W 3037   7.212   6.757   6.628 -0.0756  0.0264 -0.4202
 2041W        W 3038   3.785   7.300   6.372  0.0326  0.1228 -0.0392
 2042W        W 3039   7.609   5.737   3.849 -0.4949  0.0288 -0.1308
 2043W        W 3040   5.525   0.852   3.194  0.0774  0.2569 -0.0889
 2044W        W 3041   0.061   1.663   6.388  0.2235 -0.1667  0.0033
 2045W        W 3042   0.634   5.023   7.437  0.0721 -0.2813  0.2631
 2046W        W 3043   2.794   0.593   1.472 -0.2595 -0.4100 -0.0322
 2047W        W 3044   1.914   1.683   6.205  0.1520  0.0297 -0.2547
 2048W        W 3045   7.242   6.201   6.072 -0.0932  0.2469 -0.3326
 2049W        W 3046   1.461   4.043   6.664 -0.0359 -0.1131 -0.1434
 2050W        W 3047   3.005   0.356   5.437  0.0625  0.0836  0.1066
 2051W        W 3048   5.457   2.432   2.179  0.0114 -0.1887 -0.1116
 2052W        W 3049   5.067   1.321   7.306  0.1284 -0.1218  0.1233
 2053W        W 3050   5.170   3.842   0.114  0.0628  0.1242  0.0093
 2054W        W 3051   4.022   2.790   5.831 -0.0181 -0.0509 -0.2344
 2055W        W 3052   0.716   6.801   3.992 -0.1876  0.0967 -0.2366
 2056W        W 3053   6.226   3.108   3.331  0.4775  0.1745  0.1154
 2057W        W 3054   6.108   4.645   2.503 -0.1336  0.1329  0.1824
 2058W        W 3055   4.993   4.671   4.181  0.0355  0.4745 -0.0077
 2059W        W 3056   5.573   1.912   2.165  0.2075  0.0113 -0.0838
 2060W        W 3057   1.052   7.449   3.569 -0.0285  0.0781 -0.0335
 2061W        W 3058   3.496   4.765   4.561 -0.0227 -0.0622 -0.1510
 2062W        W 3059   2.295   5.068   5.675  0.2159 -0.0746 -0.0061
 2063W        W 3060   5.080   5.788   0.212  0.0108  0.2043 -0.1330
 2064W        W 3061   5.310   4.505   3.636 -0.2725 -0.0195 -0.2893
 2065W        W 3062   6.785   5.338   2.704 -0.0954  0.0751  0.1810
 2066W        W 3063   6.291   4.562   6.215 -0.2070  0.0779  0.0245
 2067W        W 3064   4.359   1.064   4.350 -0.1379 -0.1681 -0.3336
 2068W        W 3065   3.676   1.232   6.228 -0.0428  0.1616  0.2231
 2069W        W 3066   3.757   3.490   4.204 -0.1389 -0.3239  0.0036
 2070W        W 3067   7.217   7.617   3.586 -0.1674  0.0355 -0.0690
 2071W        W 3068   5.882   5.307   5.923  0.1688 -0.2360  0.0068
 2072W        W 3069   7.391   3.787   6.528 -0.0088 -0.0580 -0.1618
 2073W        W 3070   7.054   3.563   3.745 -0.0967 -0.2162 -0.2642
 2074W        W 3071   2.559   4.991   7.589 -0.0576 -0.1225  0.2657
 2075W        W 3072   1.716   2.037   5.330  0.0260  0.0363 -0.1858
 2076W        W 3073   3.586   1.250   7.457  0.4170  0.1208 -0.0386
 2077W        W 3074   1.486   7.180   6.981 -0.1617  0.0018 -0.0546
 2078W        W 3075   2.232   0.782   1.609  0.2399 -0.2458 -0.0954
 2079W        W 3076   2.975   2.830   1.392 -0.1995 -0.3854  0.2601
 2080W        W 3077   5.663   2.889   6.562  0.0892 -0.0811 -0.1123
 2081W        W 3078   1.876   1.100   5.577 -0.0409 -0.0205  0.1891
 2082W        W 3079   0.611   5.591   3.147  0.0193 -0.1665 -0.0444
 2083W        W 3080   5.437   1.900   3.105  0.1630 -0.1786 -0.0107
 2084W        W 3081   6.088   7.137   3.270 -0.3230  0.2429 -0.1188
 2085W        W 3082   0.824   1.052   2.724  0.1473 -0.0246 -0.2384
 2086W        W 3083   3.620   1.705   5.835 -0.0369 -0.2624  0.4642
 2087W        W 3084   5.997   1.977   0.430 -0.0547  0.3222  0.2458
 2088W        W 3085   6.379   3.513   6.134  0.0164  0.0476 -0.1114
 2089W        W 3086   1.772   6.347   6.573  0.1319 -0.0846  0.2828
 2090W        W 3087   0.558   7.498   5.041 -0.3134  0.1366  0.0925
 2091W        W 3088   0.623   2.199   2.444  0.0952  0.2637 -0.1044
 2092W        W 3089   0.043   4.411   5.956 -0.0406  0.5324 -0.3029
 2093W        W 3090   1.929   6.870   4.629  0.0741 -0.0883 -0.1600
 2094W        W 3091   3.313   4.689   3.274 -0.0239 -0.0110 -0.0618
 2095W        W 3092   6.658   2.683   6.598 -0.1117 -0.1459 -0.1788
 2096W        W 3093   6.173   2.816   6.740 -0.1074  0.2079  0.2895
 2097W        W 3094   1.300   5.841   5.305 -0.1374 -0.3388 -0.1431
 2098W        W 3095   6.211   5.412   4.972 -0.2496  0.3917 -0.1412
 2099W        W 3096   6.868   0.077   3.922 -0.1378  0.3889 -0.1423
 2100W        W 3097   4.308   2.100   1.539  0.0121 -0.1183  0.3050
 2101W        W 3098   1.605   7.566   2.920 -0.2449 -0.1577 -0.1037
 2102W        W 3099   1.622   0.011   6.799  0.0228  0.1530 -0.0235
 2103W        W 3100   5.464   4.695   7.179  0.1507 -0.2354  0.1897
 2104W        W 3101   7.157   7.489   5.127  0.0289 -0.0111 -0.1878
 2105W        W 3102   4.601   6.144   1.767  0.0811  0.0961  0.1098
 2106W        W 3103   4.338   3.895   6.127  0.0645 -0.0583 -0.0788
 2107W        W 3104   1.599   2.312   3.512  0.2153  0.1152 -0.0551
 2108W        W 3105   6.740   1.430   1.897 -0.0443 -0.1376  0.0673
 2109W        W 3106   3.694   2.569   2.668 -0.0601  0.0524  0.1014
 2110W        W 3107   3.712   5.440   1.471 -0.0496  0.1621  0.0461
 2111W        W 3108   6.219   5.381   0.805 -0.1085  0.3834  0.1708
 2112W        W 3109   5.427   5.869   2.222  0.1106 -0.1147  0.1001
 2113W        W 3110   7.568   3.262   1.189 -0.1310 -0.1729 -0.1638
 2114W        W 3111   3.396   0.684   5.447  0.1246 -0.0175 -0.2812
 2115W        W 3112   1.028   0.916   5.757 -0.2644 -0.3008  0.1096
 2116W        W 3113   2.467   6.351   5.339 -0.1325 -0.0095 -0.2829
 2117W        W 3114   5.815   2.350   5.429 -0.2972 -0.0911  0.1144
 2118W        W 3115   2.884   4.053   7.215 -0.2646  0.0221 -0.2625
 2119W        W 3116   1.594   0.244   5.546 -0.0563 -0.0321  0.0529
 2120W        W 3117   7.086   4.568   6.589  0.0479  0.0247  0.1527
 2121W        W 3118   4.769   3.840   3.626  0.2836 -0.1110 -0.1183
 2122W        W 3119   4.841   7.027   7.590  0.1942 -0.1193  0.3262
 2123W        W 3120   3.863   4.075   4.905  0.0860 -0.0234  0.2454
 2124W        W 3121   4.923   7.190   4.849  0.3684  0.0968  0.5478
 2125W        W 3122   4.502   4.799   5.998  0.0926 -0.1538 -0.0687
 2126W        W 3123   1.195   4.031   2.411  0.2209  0.0618  0.0527
 2127W        W 3124   5.274   5.941   6.617  0.1984 -0.3282  0.0397
 2128W        W 3125   7.573   3.540   5.431 -0.1898  0.1148 -0.0537
 2129W        W 3126   0.026   2.314   0.547  0.0455 -0.2271  0.0129
 2130W        W 3127   0.661   5.881   2.713  0.3222  0.0854 -0.2490
 2131W        W 3128   6.690   5.294   5.122  0.1902  0.1303  0.0988
 2132W        W 3129   1.663   1.964   6.990 -0.2027 -0.3169  0.2677
 2133W        W 3130   5.863   5.958   2.613 -0.0047  0.2766 -0.3021
 2134W        W 3131   5.828   5.977   3.611 -0.0290  0.4884  0.0293
 2135W        W 3132   0.550   3.907   7.628 -0.2514 -0.0303  0.2765
 2136W        W 3133   3.710   1.510   4.970 -0.0996  0.2418  0.2815
 2137W        W 3134   0.213   3.416   0.008 -0.0597  0.0230  0.1173
 2138W        W 3135   6.916   3.044   4.930 -0.2058  0.0316  0.0577
 2139W        W 3136   5.897   3.485   6.060  0.0394  0.0224 -0.2668
 2140W        W 3137   3.887   2.074   2.313  0.0527 -0.1241  0.0389
 2141W        W 3138   7.250   4.634   6.087  0.0297 -0.2380  0.0444
 2142W        W 3139   5.346   4.064   2.410 -0.1848 -0.0719 -0.4039
 2143W        W 3140   4.686   4.653   2.063  0.1152 -0.1811  0.1834
 2144W        W 3141   7.313   4.632   7.059  0.0972 -0.2739  0.0735
 2145W        W 3142   6.517   3.365   5.383  0.0214 -0.3152 -0.0837
 2146W        W 3143   0.478   4.092   7.122 -0.4505 -0.1390 -0.1742
 2147W        W 3144   3.643   5.220   5.759 -0.1319 -0.3596 -0.2440
 2148W        W 3145   6.158   3.046   7.199 -0.5259  0.0463 -0.0963
 2149W        W 3146   3.086   0.337   1.843  0.0741  0.1703 -0.0836
 2150W        W 3147   1.268   4.541   6.459 -0.0748  0.2695  0.2201
 2151W        W 3148   7.028   1.414   3.583  0.1551  0.0566 -0.2062
 2152W        W 3149   0.254   0.440   6.010  0.1436  0.0558  0.0272
 2153W        W 3150   6.368   5.609   2.440  0.0254 -0.2998  0.3242
 2154W        W 3151   6.573   4.857   6.623 -0.0456 -0.1364 -0.1666
 2155W        W 3152   1.963   4.760   0.194  0.1663 -0.1855  0.1736
 2156W        W 3153   3.457   3.854   4.390  0.3022  0.0425  0.1172
 2157W        W 3154   2.796   1.520   1.277 -0.0206  0.0445 -0.0840
 2158W        W 3155   4.020   4.255   3.447 -0.0778  0.1123 -0.2699
 2159W        W 3156   6.458   6.436   3.002  0.1093 -0.0125  0.1398
 2160W        W 3157   6.225   6.854   5.558  0.0406 -0.1695  0.0493
 2161W        W 3158   0.734   4.226   1.759 -0.3433 -0.0571 -0.0837
 2162W        W 3159   5.269   2.855   3.150  0.0611 -0.0263 -0.1737
 2163W        W 3160   2.103   7.602   5.360  0.3238  0.2168  0.1999
 2164W        W 3161   7.398   4.707   4.231 -0.3133 -0.2636 -0.1944
 2165W        W 3162   0.375   1.917   2.976  0.0154 -0.0551 -0.3735
 2166W        W 3163   7.446   3.863   0.219 -0.0212 -0.0739  0.2146
 2167W        W 3164   2.635   5.534   6.059  0.1257  0.1104 -0.1366
 2168W        W 3165   1.604   2.818   0.276 -0.0535 -0.1143  0.0699
 2169W        W 3166   1.296   2.269   6.098  0.1187  0.0702  0.0606
 2170W        W 3167   1.099   0.014   2.906 -0.0752 -0.1537  0.1182
 2171W        W 3168   3.744   1.291   2.425  0.1957 -0.0138  0.0734
 2172W        W 3169   5.663   7.461   2.267  0.0768 -0.0383 -0.0281
 2173W        W 3170   2.813   4.466   3.014 -0.0474 -0.0550 -0.1924
 2174W        W 3171   4.711   0.915   1.600  0.0932  0.2547  0.0089
 2175W        W 3172   2.042   0.091   5.847 -0.1487  0.2148 -0.1157
 2176W        W 3173   5.580   3.435   3.907  0.1126  0.1701 -0.0224
 2177W        W 3174   5.607   1.644   4.061  0.1913  0.2098 -0.0267
 2178W        W 3175   2.251   1.929   4.916  0.1136  0.0095  0.1028
 2179W        W 3176   5.428   4.052   6.628 -0.1544 -0.0460 -0.2707
 2180W        W 3177   6.971   3.030   2.320  0.2936 -0.4152  0.1379
 2181W        W 3178   1.862   1.277   3.030 -0.5066  0.0667 -0.0134
 2182W        W 3179   1.325   6.489   4.928 -0.0473 -0.1432 -0.1319
 2183W        W 3180   5.661   1.520   5.278 -0.3531 -0.1074  0.0246
 2184W        W 3181   7.272   7.363   3.152  0.2799 -0.1059  0.0377
 2185W        W 3182   2.497   6.799   4.508  0.3805 -0.0755  0.2565
 2186W        W 3183   3.188   3.013   2.399 -0.0957  0.0510  0.0319
 2187W        W 3184   4.086   2.187   3.428  0.1363  0.2739  0.2043
 2188W        W 3185   2.410   1.867   0.390 -0.0648  0.1014 -0.3468
 2189W        W 3186   1.531   0.863   4.292  0.1001 -0.1203 -0.1462
 2190W        W 3187   1.737   2.891   1.185 -0.2601 -0.4225 -0.1506
 2191W        W 3188   1.516   0.772   5.712  0.1745 -0.1812  0.1951
 2192W        W 3189   0.239   2.906   0.232 -0.0325 -0.1175 -0.2323
 2193W        W 3190   0.292   2.607   7.020  0.1450  0.1244 -0.1354
 2194W        W 3191   0.902   3.102   2.185  0.0841 -0.2427  0.1705
 2195W        W 3192   7.178   1.544   2.589 -0.1537  0.1288  0.1715
 2196W        W 3193   1.842   5.769   5.303 -0.0727  0.0650 -0.0491
 2197W        W 3194   5.665   1.857   7.058  0.0132  0.3552  0.0116
 2198W        W 3195   6.213   1.743   3.925  0.1570 -0.1829 -0.3360
 2199W        W 3196   2.523   2.488   3.761  0.1865  0.0767 -0.0045
 2200W        W 3197   2.794   0.443   6.868  0.3717 -0.2234 -0.0015
 2201W        W 3198   6.037   3.921   3.603 -0.1307 -0.1672 -0.2864
 2202W        W 3199   2.583   3.295   6.129  0.1522 -0.1560  0.0194
 2203W        W 3200   1.592   0.880   2.911 -0.1593 -0.0783 -0.0816
 2204W        W 3201   1.507   4.443   7.020  0.0593  0.1004  0.0586
 2205W        W 3202   2.037   1.065   0.097 -0.2125  0.3120  0.3451
 2206W        W 3203   7.069   6.946   5.884 -0.1866  0.1908  0.1536
 2207W        W 3204   2.214   5.343   6.178  0.1796  0.0468 -0.1160
 2208W        W 3205   0.373   3.218   6.353  0.1222  0.2855 -0.0377
 2209W        W 3206   3.282   3.215   5.619 -0.2624  0.1491 -0.3168
 2210W        W 3207   3.336   0.272   6.916  0.1847 -0.1143  0.0872
 2211W        W 3208   2.383   7.321   7.044  0.1736 -0.2460 -0.1019
 2212W        W 3209   2.837   3.637   0.269 -0.1452  0.0591  0.0942
 2213W        W 3210   0.352   3.498   7.192  0.1031 -0.2743  0.2140
 2214W        W 3211   3.050   1.507   3.139  0.0063 -0.3530 -0.1096
 2215W        W 3212   3.195   5.557   2.261 -0.1381 -0.0332 -0.0292
 2216W        W 3213   3.179   0.844   0.950 -0.2651  0.1204  0.1103
 2217W        W 3214   4.625   7.579   6.774 -0.3108  0.4079  0.1683
 2218W        W 3215   2.021   6.659   2.877 -0.1232  0.1403  0.2930
 2219W        W 3216   6.693   3.174   6.351 -0.0979 -0.0308 -0.0232
 2220W        W 3217   3.310   2.803   3.584 -0.2543  0.1822 -0.0238
 2221W        W 3218   6.901   2.639   3.959 -0.0923 -0.0031 -0.2661
 2222W        W 3219   7.009   5.506   7.087 -0.1210  0.1559 -0.1453
 2223W        W 3220   5.106   1.022   4.439  0.0185 -0.1194  0.2179
 2224W        W 3221   3.566   4.483   3.737 -0.1204 -0.2989 -0.2305
 2225W        W 3222   2.324   6.028   7.570  0.3291  0.3851 -0.1139
 2226W        W 3223   7.623   0.984   2.024 -0.2012  0.1041  0.1034
 2227W        W 3224   7.090   3.129   2.774 -0.0933  0.1472  0.0741
 2228W        W 3225   7.265   3.107   0.851  0.0260  0.0348 -0.3491
 2229W        W 3226   4.700   1.034   0.795  0.0830  0.2628 -0.2241
 2230W        W 3227   4.730   4.325   7.116 -0.0322 -0.2419 -0.1080
 2231W        W 3228   4.493   6.755   6.239  0.1069 -0.1418  0.2054
 2232W        W 3229   6.600   4.758   1.246  0.1153  0.1089  0.2974
 2233W        W 3230   1.563   6.696   6.800 -0.1338 -0.1484 -0.4216
 2234W        W 3231   2.660   3.849   6.182  0.2042  0.1032 -0.0730
 2235W        W 3232   6.781   6.047   3.788 -0.0451  0.1869 -0.2596
 2236W        W 3233   6.552   2.033   5.261  0.0861 -0.0826  0.0695
 2237W        W 3234   1.948   0.676   6.541  0.0183  0.0884  0.3815
 2238W        W 3235   0.530   1.487   5.101 -0.0049 -0.3950 -0.1745
 2239W        W 3236   0.416   6.056   5.584 -0.0852  0.1669  0.0271
 2240W        W 3237   3.943   5.975   2.363 -0.2374  0.2929 -0.2490
 2241W        W 3238   0.075   3.368   2.448 -0.0087  0.1802 -0.0480
 2242W        W 3239   5.861   6.514   7.019 -0.0236  0.0372 -0.1957
 2243W        W 3240   4.105   4.502   3.880 -0.0300  0.2224 -0.0901
 2244W        W 3241   1.975   4.655   5.277  0.0238 -0.1051 -0.0607
 2245W        W 3242   6.546   3.155   6.829  0.2944 -0.1459  0.2871
 2246W        W 3243   4.778   0.324   4.251 -0.0600 -0.0663 -0.3147
 2247W        W 3244   4.947   0.904   0.006  0.1900 -0.2167 -0.3450
 2248W        W 3245   3.342   0.668   7.212 -0.0258  0.2676  0.2202
 2249W        W 3246   0.152   4.180   0.143 -0.1487 -0.0844 -0.1573
 2250W        W 3247   1.337   0.791   2.482  0.1604 -0.0573  0.2028
 2251W        W 3248   2.177   3.726   6.046  0.0415 -0.2433  0.1455
 2252W        W 3249   6.891   5.370   4.431  0.1723 -0.0196  0.0067
 2253W        W 3250   4.768   1.454   2.951 -0.0229 -0.2419 -0.1034
 2254W        W 3251   2.150   1.993   6.863 -0.0001  0.3100  0.2693
 2255W        W 3252   7.566   0.499   4.799 -0.4315  0.0905  0.2489
 2256W        W 3253   2.386   5.226   2.143  0.0294  0.1926  0.1020
 2257W        W 3254   7.225   4.379   1.940  0.0074 -0.1591  0.0788
 2258W        W 3255   4.412   0.547   6.185  0.0148 -0.1111  0.0714
 2259W        W 3256   4.044   1.133   4.871 -0.0753  0.1942 -0.2214
 2260W        W 3257   0.166   6.510   3.145 -0.0161 -0.0284 -0.1163
 2261W        W 3258   3.799   7.623   4.256  0.1464 -0.0695  0.1763
 2262W        W 3259   7.131   5.485   5.476  0.0710  0.0565 -0.0668
 2263W        W 3260   4.807   2.202   1.604 -0.2591 -0.3785 -0.0602
 2264W        W 3261   4.853   0.116   4.799 -0.1503 -0.2415  0.3065
 2265W        W 3262   2.807   5.973   6.881 -0.2086  0.0991  0.0661
 2266W        W 3263   2.467   2.137   3.406 -0.1924  0.2328 -0.1782
 2267W        W 3264   5.947   7.188   4.712 -0.1242  0.1366 -0.0222
 2268W        W 3265   3.269   5.828   2.903  0.4775 -0.0641 -0.2001
 2269W        W 3266   4.448   5.622   6.718 -0.2571 -0.1209  0.0404
 2270W        W 3267   3.056   3.659   6.956 -0.1166  0.1515 -0.1338
 2271W        W 3268   1.858   1.729   1.311  0.0077 -0.0754  0.0217
 2272W        W 3269   2.057   6.190   3.780 -0.0074  0.1531 -0.0765
 2273W        W 3270   0.413   0.543   6.528 -0.0325 -0.0955  0.0384
 2274W        W 3271   0.821   2.393   4.869  0.0407 -0.3381  0.0286
 2275W        W 3272   4.555   0.629   1.984  0.0518  0.1423 -0.2433
 2276W        W 3273   3.043   4.526   7.103  0.0951 -0.0265 -0.0760
 2277W        W 3274   2.700   2.421   5.175  0.1729 -0.2196 -0.0576
 2278W        W 3275   2.138   2.705   1.459  0.1378  0.2902  0.0168
 2279W        W 3276   0.465   1.450   2.815  0.4105  0.0786  0.2037
 2280W        W 3277   3.893   3.829   0.503 -0.1104 -0.1955  0.0726
 2281W        W 3278   0.227   5.120   4.451  0.1514  0.5389 -0.1159
 2282W        W 3279   3.470   0.504   6.370  0.1487  0.0486 -0.0153
 2283W        W 3280   4.170   0.382   4.371  0.0830  0.2312  0.1092
 2284W        W 3281   0.832   5.658   6.833  0.0154  0.1852  0.2524
 2285W        W 3282   5.720   6.176   5.945  0.3183 -0.0493  0.2026
 2286W        W 3283   2.992   6.513   6.146  0.1878  0.0705  0.0823
 2287W        W 3284   3.212   4.476   4.131  0.0262 -0.5740  0.2087
 2288W        W 3285   4.927   5.825   4.602  0.3019  0.3078  0.1225
 2289W        W 3286   5.449   2.129   0.160 -0.2476 -0.3059  0.1813
 2290W        W 3287   1.432   5.026   0.107 -0.2729  0.1664 -0.1661
 2291W        W 3288   1.460   5.373   7.362 -0.1290  0.0891  0.2084
 2292W        W 3289   6.198   2.302   2.849  0.0166 -0.3394 -0.3575
 2293W        W 3290   6.111   1.243   1.157  0.1250  0.2373  0.0083
 2294W        W 3291   5.688   0.253   4.233  0.2447 -0.0927  0.0622
 2295W        W 3292   0.375   0.069   6.311 -0.2095  0.1568  0.1014
 2296W        W 3293   5.221   7.008   5.687  0.2195 -0.1609  0.1481
 2297W        W 3294   5.490   0.699   1.823  0.0033  0.0965  0.0457
 2298W        W 3295   2.493   6.921   5.388 -0.3360  0.5002 -0.2199
 2299W        W 3296   5.252   0.793   2.291  0.2736  0.1636 -0.1897
 2300W        W 3297   0.013   0.030   5.013  0.0925  0.2465  0.1268
 2301W        W 3298   2.556   3.223   0.226 -0.2694  0.1055  0.0353
 2302W        W 3299   1.875   0.432   4.700  0.0340 -0.0055  0.0642
 2303W        W 3300   5.005   5.092   5.531 -0.0559 -0.1158  0.1471
 2304W        W 3301   6.650   2.247   7.477 -0.2172  0.0764 -0.1973
 2305W        W 3302   1.376   3.298   2.017  0.1006 -0.0776  0.0109
 2306W        W 3303   6.914   4.528   0.133 -0.1931  0.1747 -0.0430
 2307W        W 3304   5.265   6.616   3.423  0.0017  0.0872 -0.0178
 2308W        W 3305   6.950   1.860   0.002 -0.0521 -0.1402 -0.0141
 2309W        W 3306   7.477   0.095   2.766 -0.1449 -0.2096 -0.1724
 2310W        W 3307   4.254   3.379   7.436  0.1423 -0.0961  0.1409
 2311W        W 3308   1.226   3.881   1.179  0.0257 -0.0412  0.1529
 2312W        W 3309   0.092   5.769   3.231 -0.0515  0.2124 -0.2277
 2313W        W 3310   6.924   7.207   6.368  0.1568 -0.2641  0.0713
 2314W        W 3311   6.288   5.242   4.268  0.1904 -0.2736  0.0442
 2315W        W 3312   4.204   7.154   6.101 -0.3568  0.2382  0.2804
 2316W        W 3313   3.930   1.823   7.535 -0.0097 -0.0243  0.3048
 2317W        W 3314   4.819   2.807   7.020 -0.0049 -0.0289 -0.4753
 2318W        W 3315   3.598   3.531   7.171 -0.1441  0.0947 -0.4958
 2319W        W 3316   2.138   6.470   7.476 -0.0098 -0.0766  0.2351
 2320W        W 3317   5.320   0.140   4.960 -0.1152  0.1902 -0.2455
 2321W        W 3318   2.970   6.952   4.494 -0.0953 -0.1530  0.4049
 2322W        W 3319   5.728   3.729   2.715  0.0796  0.0659  0.1062
 2323W        W 3320   3.582   1.800   4.494 -0.0632 -0.1479 -0.3151
 2324W        W 3321   2.945   1.709   1.790 -0.3268  0.5003  0.2196
 2325W        W 3322   3.381   3.647   5.338  0.2000 -0.0600  0.0852
 2326W        W 3323   1.797   5.278   5.448  0.0912 -0.1922  0.1425
 2327W        W 3324   2.642   5.547   5.101 -0.1811  0.1386 -0.0562
 2328W        W 3325   0.307   6.733   6.095 -0.1661  0.3364 -0.1646
 2329W        W 3326   1.749   3.672   7.633  0.3181  0.1764  0.3048
 2330W        W 3327   3.128   0.482   4.458 -0.1093  0.2243  0.1654
 2331W        W 3328   5.893   5.758   2.168  0.1328  0.0023  0.2328
 2332W        W 3329   7.127   1.295   5.110 -0.0465  0.0361 -0.0757
 2333W        W 3330   5.003   0.620   7.170  0.0138  0.1032  0.0296
 2334W        W 3331   0.718   7.415   3.204  0.2244  0.2617  0.0754
 2335W        W 3332   6.136   5.331   3.595  0.0802  0.0285 -0.3002
 2336W        W 3333   1.465   3.816   7.114 -0.2199  0.0090 -0.2143
 2337W        W 3334   0.323   5.409   6.873 -0.4042  0.0404 -0.1006
 2338W        W 3335   5.526   2.376   3.038 -0.2439 -0.0371 -0.0370
 2339W        W 3336   6.409   7.394   3.546  0.1056 -0.1370 -0.1241
 2340W        W 3337   5.537   2.760   1.175 -0.2809  0.2226 -0.1479
 2341W        W 3338   3.280   5.389   0.584 -0.1520 -0.0919  0.2021
 2342W        W 3339   4.299   4.970   2.605  0.1183 -0.2989  0.1567
 2343W        W 3340   1.655   6.337   4.095  0.0727  0.0454 -0.1467
 2344W        W 3341   1.837   0.244   4.221  0.0431  0.0065  0.3334
 2345W        W 3342   2.895   1.632   5.164  0.0243  0.2466 -0.3063
 2346W        W 3343   3.078   0.160   2.333 -0.1244 -0.0228  0.1064
 2347W        W 3344   4.284   7.492   3.130 -0.3677  0.3589  0.0331
 2348W        W 3345   5.364   1.675   2.597 -0.3159 -0.0487 -0.0998
 2349W        W 3346   2.181   2.690   0.936  0.4053 -0.0667  0.0951
 2350W        W 3347   7.277   4.157   7.431  0.0622 -0.2273 -0.0277
 2351W        W 3348   1.169   5.223   6.102 -0.1672 -0.2083 -0.5219
 2352W        W 3349   5.540   4.540   4.827  0.0422 -0.1511  0.0751
 2353W        W 3350   4.570   4.779   3.893  0.0842  0.0690 -0.1581
 2354W        W 3351   3.037   1.605   6.271 -0.0195  0.4505 -0.0682
 2355W        W 3352   3.991   4.207   0.803  0.0087 -0.0094 -0.1034
 2356W        W 3353   5.174   1.121   1.586 -0.1817 -0.1572  0.0638
 2357W        W 3354   6.632   4.607   4.785  0.2408  0.2478 -0.1698
 2358W        W 3355   6.404   1.265   0.642  0.3206 -0.2102 -0.0274
 2359W        W 3356   4.224   1.852   5.912 -0.0730 -0.2939 -0.1405
 2360W        W 3357   3.272   3.256   2.935  0.1926  0.2994 -0.0722
 2361W        W 3358   2.080   0.719   2.959  0.2379 -0.2333 -0.0624
 2362W        W 3359   1.554   2.920   5.961  0.2000 -0.1160  0.4252
 2363W        W 3360   2.989   1.793   5.709  0.0258 -0.1285 -0.0911
 2364W        W 3361   4.728   5.178   3.241 -0.0122 -0.2270 -0.1566
 2365W        W 3362   1.570   4.619   0.401 -0.0835 -0.0561  0.0214
 2366W        W 3363   1.070   1.911   0.669  0.1674 -0.0057 -0.5786
 2367W        W 3364   1.767   5.938   6.854  0.3110 -0.0354 -0.5463
 2368W        W 3365   5.186   4.107   3.334  0.2255 -0.0492  0.2907
 2369W        W 3366   2.619   1.782   6.088  0.1751 -0.1837  0.0190
 2370W        W 3367   3.239   3.196   1.549 -0.3613  0.1633 -0.3424
 2371W        W 3368   6.859   2.568   1.152  0.2739 -0.0658  0.1737
 2372W        W 3369   3.442   0.850   4.668  0.1219  0.0460  0.0726
 2373W        W 3370   2.177   5.729   2.900 -0.0871 -0.0663  0.2956
 2374W        W 3371   1.931   7.107   3.433  0.2563  0.1385  0.0559
 2375W        W 3372   4.336   4.234   2.019  0.0341  0.0411 -0.1395
 2376W        W 3373   4.287   6.148   6.961  0.0881 -0.1844 -0.1890
 2377W        W 3374   3.206   2.063   4.312 -0.3452 -0.0055 -0.0159
 2378W        W 3375   5.717   2.527   3.923  0.0885  0.3411 -0.1064
 2379W        W 3376   3.372   3.546   2.339  0.1453 -0.2427  0.0948
 2380W        W 3377   3.358   6.464   2.798 -0.0973  0.1255  0.0977
 2381W        W 3378   5.411   6.574   5.941  0.0097 -0.4554  0.0336
 2382W        W 3379   3.629   1.518   3.122  0.3364 -0.0960 -0.1324
 2383W        W 3380   0.075   2.287   3.650  0.1725  0.1197 -0.0566
 2384W        W 3381   6.267   0.701   2.489  0.3117  0.3527 -0.2225
 2385W        W 3382   1.216   2.791   1.844 -0.2213 -0.2867 -0.2087
 2386W        W 3383   7.146   6.609   4.545 -0.0602 -0.3702  0.3505
 2387W        W 3384   6.580   6.450   3.622  0.0386 -0.1451  0.0326
 2388W        W 3385   5.681   4.328   3.380 -0.0724 -0.0349  0.1099
 2389W        W 3386   1.093   3.105   6.609  0.3454  0.1128 -0.1512
 2390W        W 3387   5.714   6.008   4.186 -0.0155  0.1514  0.0522
 2391W        W 3388   0.512   2.282   3.960 -0.3060  0.1524 -0.1109
 2392W        W 3389   0.085   5.459   4.892 -0.3407 -0.3014 -0.2133
 2393W        W 3390   0.405   6.997   3.103 -0.3060 -0.0639  0.0559
 2394W        W 3391   0.362   5.462   4.074 -0.0292  0.3410 -0.0351
 2395W        W 3392   6.794   4.402   4.323 -0.1669  0.4218  0.2909
 2396W        W 3393   0.855   4.905   5.901 -0.0139 -0.1219  0.0877
 2397W        W 3394   4.344   3.156   5.974 -0.2176  0.0934  0.0404
 2398W        W 3395   3.993   1.282   0.129  0.1443  0.0050 -0.1368
 2399W        W 3396   6.555   4.817   7.562 -0.1574 -0.0738 -0.0278
 2400W        W 3397   3.316   6.485   3.702  0.1802  0.3512 -0.0462
 2401W        W 3398   3.169   0.394   5.931 -0.1779 -0.2727 -0.0500
 2402W        W 3399   3.194   1.968   6.578 -0.1179 -0.1696 -0.1488
 2403W        W 3400   7.276   1.415   4.042  0.1888  0.2423  0.0208
 2404W        W 3401   6.436   4.096   6.271  0.2077 -0.2141  0.0837
 2405W        W 3402   2.517   5.033   2.588 -0.2175  0.0365  0.2438
 2406W        W 3403   6.544   6.847   3.332 -0.1021 -0.0991  0.1768
 2407W        W 3404   1.539   6.858   4.269  0.0872  0.2113  0.0859
 2408W        W 3405   5.843   2.468   2.447 -0.0879 -0.2822 -0.4505
 2409W        W 3406   6.390   1.126   4.241  0.0416  0.0950 -0.2147
 2410W        W 3407   5.850   2.930   6.051  0.0899 -0.2066 -0.1494
 2411W        W 3408   2.178   2.668   4.172 -0.0509  0.3067 -0.1402
 2412W        W 3409   2.639   4.378   6.241 -0.2625 -0.0599 -0.0456
 2413W        W 3410   4.009   2.779   7.600  0.3377  0.2728 -0.0267
 2414W        W 3411   1.816   5.894   6.335 -0.2745  0.2618  0.0898
 2415W        W 3412   6.038   3.247   4.817 -0.1431 -0.3072 -0.0069
 2416W        W 3413   0.469   5.616   4.574 -0.0824  0.2186  0.0007
 2417W        W 3414   6.148   0.695   1.138 -0.4362 -0.0895 -0.1627
 2418W        W 3415   2.133   0.153   6.302 -0.0496 -0.4260  0.0993
 2419W        W 3416   4.185   6.459   3.426 -0.1488 -0.0714 -0.0730
 2420W        W 3417   2.207   1.939   5.854 -0.0178  0.3466 -0.1771
 2421W        W 3418   0.480   3.696   5.641 -0.1985 -0.0380  0.0187
 2422W        W 3419   3.841   6.216   3.710 -0.0526 -0.1377 -0.0118
 2423W        W 3420   3.062   2.097   6.138  0.2034  0.1026 -0.1608
 2424W        W 3421   4.998   0.673   0.705 -0.0154 -0.0651 -0.0941
 2425W        W 3422   0.014   1.083   4.429 -0.0420 -0.3714  0.0406
 2426W        W 3423   4.359   1.752   4.239 -0.0954 -0.1588  0.4509
 2427W        W 3424   0.660   5.663   6.359  0.1632  0.0637 -0.0957
 2428W        W 3425   4.787   1.831   6.103 -0.2047 -0.0330  0.3075
 2429W        W 3426   6.670   5.148   3.531  0.1837  0.0768  0.0265
 2430W        W 3427   5.495   4.731   5.956  0.0404 -0.1162  0.2870
 2431W        W 3428   6.072   1.270   3.242 -0.3108  0.2105 -0.0298
 2432W        W 3429   5.441   7.560   6.093  0.2560  0.2747  0.0851
 2433W        W 3430   0.030   7.469   6.598  0.1806 -0.2166  0.0273
 2434W        W 3431   2.348   7.287   4.491 -0.0660  0.1346  0.0414
 2435W        W 3432   3.964   5.957   3.292  0.1356  0.1113  0.3293
 2436W        W 3433   5.325   7.036   7.418  0.0856  0.3175  0.0936
 2437W        W 3434   2.868   5.931   4.726  0.0871 -0.2416 -0.1300
 2438W        W 3435   5.089   0.974   6.367  0.1286  0.3041 -0.2075
 2439W        W 3436   3.108   3.809   4.743  0.0957  0.4940  0.2288
 2440W        W 3437   1.346   3.004   7.434  0.0241 -0.4074 -0.0349
 2441W        W 3438   4.434   6.606   2.927 -0.0621 -0.2046 -0.1264
 2442W        W 3439   6.340   1.065   5.680 -0.1489 -0.0522 -0.1266
 2443W        W 3440   4.724   5.024   5.060 -0.1428 -0.1866  0.0053
 2444W        W 3441   6.875   6.662   2.771  0.2451  0.1912 -0.2157
 2445W        W 3442   4.045   4.539   4.619 -0.0691 -0.2547  0.0801
 2446W        W 3443   1.305   1.769   5.093 -0.3310  0.0154  0.1601
 2447W        W 3444   2.863   7.216   2.366 -0.1952  0.1860  0.0711
 2448W        W 3445   2.637   1.672   3.413 -0.0329  0.2391  0.0212
 2449W        W 3446   3.080   1.059   6.382  0.1943  0.1401 -0.1926
 2450W        W 3447   4.409   3.975   6.704 -0.3432 -0.0589  0.2209
 2451W        W 3448   5.889   1.187   7.571 -0.0169  0.2093  0.1080
 2452W        W 3449   3.158   4.063   5.762 -0.3866 -0.0738 -0.0052
 2453W        W 3450   6.414   2.392   3.885  0.0345 -0.0265  0.0386
 2454W        W 3451   3.222   6.157   4.371  0.0424 -0.0634  0.1301
 2455W        W 3452   7.018   0.979   4.384 -0.0376 -0.1738  0.1829
 2456W        W 3453   5.912   3.532   0.567  0.0718  0.0508  0.0400
 2457W        W 3454   1.110   3.276   7.071  0.0698 -0.0218 -0.0381
 2458W        W 3455   0.593   4.008   6.623  0.1254 -0.1702 -0.0401
 2459W        W 3456   2.557   7.413   3.099 -0.1242  0.1223  0.0313
 2460W        W 3457   2.657   2.379   6.338  0.2701  0.2146 -0.0867
 2461W        W 3458   3.733   6.604   4.997  0.2418 -0.3775  0.1241
 2462W        W 3459   5.526   7.078   2.005 -0.0459  0.0026 -0.0865
 2463W        W 3460   5.637   3.871   1.304 -0.4269 -0.1140 -0.0599
 2464W        W 3461   5.465   7.300   6.576 -0.0017  0.1114 -0.2292
 2465W        W 3462   1.122   4.716   0.196  0.0638  0.0897 -0.0434
 2466W        W 3463   2.904   7.514   3.717  0.0247 -0.0356  0.0203
 2467W        W 3464   6.559   4.761   2.426 -0.2098  0.0851  0.2466
 2468W        W 3465   5.210   1.519   0.769 -0.2151  0.0040 -0.0385
 2469W        W 3466   2.979   5.669   3.772  0.0016 -0.2289  0.1204
 2470W        W 3467   6.757   4.966   3.048 -0.0770  0.1694  0.1406
 2471W        W 3468   4.602   6.945   2.570 -0.0234  0.3020 -0.1107
 2472W        W 3469   4.094   7.072   7.160  0.1029  0.2800  0.0089
 2473W        W 3470   4.236   3.684   4.146  0.0924 -0.1933  0.2582
 2474W        W 3471   3.041   6.037   3.374  0.2012 -0.0378 -0.0633
 2475W        W 3472   0.812   7.412   6.971  0.3074 -0.2774  0.0536
 2476W        W 3473   3.768   0.683   5.085 -0.1197  0.1002  0.0810
 2477W        W 3474   4.370   2.860   6.784 -0.3508 -0.1364  0.0755
 2478W        W 3475   3.108   5.572   1.733  0.3170  0.0898 -0.5073
 2479W        W 3476   0.013   2.806   5.742  0.5603 -0.0082 -0.2475
 2480W        W 3477   0.345   4.988   6.554 -0.1970  0.1234  0.2107
 2481W        W 3478   1.484   3.391   0.412 -0.0050 -0.1371 -0.0244
 2482W        W 3479   4.043   0.463   0.008 -0.1057  0.0705 -0.3198
 2483W        W 3480   7.510   2.266   7.003 -0.0860  0.0745  0.0099
 2484W        W 3481   5.978   7.471   2.731  0.0788 -0.0935  0.5395
 2485W        W 3482   3.772   1.611   7.082  0.0226 -0.2151 -0.2115
 2486W        W 3483   3.095   5.715   5.577 -0.2962  0.2250  0.1152
 2487W        W 3484   2.362   4.066   6.506  0.3349 -0.1859 -0.1011
 2488W        W 3485   4.591   2.715   4.015  0.0608 -0.2889  0.0319
 2489W        W 3486   4.518   3.137   0.199 -0.0321  0.4951 -0.1376
 2490W        W 3487   5.007   1.948   2.884  0.2062  0.1919 -0.1023
 2491W        W 3488   3.538   7.501   5.082 -0.0151  0.1257 -0.0597
 2492W        W 3489   3.530   0.919   2.821  0.1272  0.1117 -0.3342
 2493W        W 3490   4.004   4.692   7.275 -0.1082 -0.4618 -0.2318
 2494W        W 3491   5.065   2.178   3.326 -0.0944 -0.0152  0.1157
 2495W        W 3492   4.191   5.478   2.363 -0.0769  0.0870  0.1941
 2496W        W 3493   0.612   0.510   1.640  0.0907  0.0266  0.1134
 2497W        W 3494   3.125   1.769   1.002 -0.1480 -0.1171 -0.0514
 2498W        W 3495   1.167   2.193   7.025  0.0529  0.2500 -0.0212
 2499W        W 3496   5.992   5.010   3.908  0.1932 -0.0027  0.1126
 2500W        W 3497   4.863   0.699   6.022  0.0601 -0.0125  0.0611
 2501W        W 3498   5.754   2.791   3.285 -0.1036 -0.1735  0.0334
 2502W        W 3499   0.917   5.126   5.444 -0.0600 -0.0010 -0.1149
 2503W        W 3500   0.400   7.261   3.546 -0.0422 -0.2542  0.1482
 2504W        W 3501   2.687   2.099   0.725 -0.0161 -0.0452  0.2994
 2505W        W 3502   0.732   0.721   3.133 -0.2732 -0.2954  0.1576
 2506W        W 3503   2.815   0.715   5.760 -0.2317  0.3496  0.1484
 2507W        W 3504   6.997   1.473   5.787 -0.1704 -0.1267 -0.0572
 2508W        W 3505   6.615   3.905   1.217  0.0316  0.0168 -0.1905
 2509W        W 3506   2.421   7.314   6.306  0.1340  0.1342  0.3590
 2510W        W 3507   3.431   0.187   2.951  0.0274 -0.3841  0.1533
 2511W        W 3508   3.068   6.012   5.986 -0.2521  0.3354  0.1038
 2512W        W 3509   5.745   6.253   2.242 -0.0836 -0.0148  0.1111
 2513W        W 3510   0.837   1.883   3.765  0.2329 -0.5581 -0.3242
 2514W        W 3511   6.445   6.871   3.849 -0.1689 -0.5972  0.1863
 2515W        W 3512   3.044   7.510   5.662 -0.1214  0.2974  0.1304
 2516W        W 3513   4.333   3.457   6.929 -0.2451 -0.0527 -0.0655
 2517W        W 3514   3.796   6.799   3.398  0.1427  0.1005  0.2244
 2518W        W 3515   1.728   4.054   5.353 -0.0792  0.1833 -0.0637
 2519W        W 3516   1.782   2.001   4.373  0.2394  0.2074 -0.3338
 2520W        W 3517   7.261   5.854   3.064 -0.0698 -0.3185 -0.0696
 2521W        W 3518   4.551   0.959   6.413 -0.1256  0.1402 -0.0005
 2522W        W 3519   1.156   2.731   6.956 -0.2385  0.0420  0.1493
 2523W        W 3520   4.627   2.248   6.367  0.2960 -0.2051 -0.0494
 2524W        W 3521   2.619   4.867   7.041  0.3817 -0.1714  0.2676
 2525W        W 3522   2.946   7.619   2.782  0.2980  0.1288 -0.0537
 2526W        W 3523   7.226   4.134   6.172  0.0832 -0.1565 -0.2510
 2527W        W 3524   5.785   0.842   0.310 -0.1779 -0.2203  0.2382
 2528W        W 3525   4.284   6.050   5.747 -0.0890  0.2958 -0.1153
 2529W        W 3526   2.641   1.128   5.080  0.2672  0.3917  0.2400
 2530W        W 3527   0.952   3.535   6.309  0.0122  0.0256  0.1339
 2531W        W 3528   6.730   1.187   5.366  0.0570  0.1068 -0.1850
 2532W        W 3529   5.532   5.285   3.015  0.1140 -0.4318  0.2099
 2533W        W 3530   0.631   3.333   6.733 -0.0663 -0.1296 -0.1020
 2534W        W 3531   0.635   5.029   6.960 -0.0727  0.4397  0.0972
 2535W        W 3532   4.936   2.621   3.577  0.3767 -0.1906 -0.0902
 2536W        W 3533   3.675   2.056   5.109  0.0594 -0.1910 -0.2161
 2537W        W 3534   0.763   2.136   5.908 -0.1490  0.0043  0.4719
 2538W        W 3535   5.306   2.832   4.699  0.0822 -0.2989 -0.0686
 2539W        W 3536   1.114   4.976   7.343  0.3473  0.1800 -0.1164
 2540W        W 3537   1.248   7.630   1.989 -0.1573 -0.2292  0.3729
 2541W        W 3538   6.241   0.875   3.546 -0.0407  0.0651 -0.1762
 2542W        W 3539   6.325   3.367   1.393 -0.1146 -0.1781  0.1282
 2543W        W 3540   5.564   4.258   4.011 -0.2515 -0.1931  0.0156
 2544W        W 3541   1.710   4.637   6.616  0.1443 -0.1661 -0.3451
 2545W        W 3542   5.808   2.524   4.947  0.0179  0.0415 -0.0415
 2546W        W 3543   4.631   0.356   1.497 -0.0220  0.0468  0.1435
 2547W        W 3544   1.355   1.080   3.697 -0.0844 -0.2370  0.0971
 2548W        W 3545   0.356   2.262   2.020 -0.1523  0.3501  0.0867
 2549W        W 3546   5.645   7.370   3.456 -0.0766  0.3138 -0.2382
 2550W        W 3547   6.884   7.427   5.841 -0.2562 -0.4883  0.0290
 2551W        W 3548   0.344   5.987   4.049 -0.0097 -0.0059 -0.2852
 2552W        W 3549   5.342   4.119   0.974  0.1323 -0.1021  0.3309
 2553W        W 3550   4.859   0.559   5.025 -0.0434 -0.0069 -0.4100
 2554W        W 3551   0.552   5.365   5.039 -0.1269  0.2400  0.1164
 2555W        W 3552   7.611   3.815   5.981  0.1020 -0.5432  0.1648
 2556W        W 3553   5.754   3.311   2.059 -0.3430  0.0972 -0.0446
 2557W        W 3554   3.595   3.131   5.223 -0.1379 -0.0072  0.1984
 2558W        W 3555   1.346   1.067   5.303  0.0593  0.1492 -0.0853
 2559W        W 3556   4.043   5.431   6.528  0.1099  0.2719  0.0354
 2560W        W 3557   4.493   0.276   2.835  0.0810 -0.3758 -0.0139
 2561W        W 3558   0.123   1.408   5.405 -0.3695  0.2652 -0.2582
 2562W        W 3559   2.783   2.398   7.264  0.2364  0.2068 -0.0732
 2563W        W 3560   6.523   0.628   3.891  0.0222  0.1092 -0.2892
 2564W        W 3561   6.542   5.862   2.862  0.1481  0.1603  0.3863
 2565W        W 3562   5.599   1.822   4.622 -0.2078 -0.2888 -0.0278
 2566W        W 3563   1.736   2.838   4.240  0.1011  0.1483 -0.3178
 2567W        W 3564   0.323   2.418   6.297 -0.0199 -0.2254 -0.0198
 2568W        W 3565   2.979   5.019   0.718 -0.0411  0.1842  0.1650
 2569W        W 3566   4.601   6.651   4.716 -0.2629  0.1586 -0.0201
 2570W        W 3567   6.850   4.467   2.745 -0.0279 -0.0738 -0.2536
 2571W        W 3568   5.190   1.436   3.875  0.0279 -0.1912  0.1934
 2572W        W 3569   4.801   0.448   6.654  0.0254 -0.2013  0.3003
 2573W        W 3570   6.492   3.892   7.623 -0.1249 -0.1403  0.1184
 2574W        W 3571   3.278   1.611   7.216 -0.1146  0.2531 -0.0004
 2575W        W 3572   3.262   6.902   5.849  0.2083  0.0678 -0.0426
 2576W        W 3573   4.637   1.062   7.306 -0.1740 -0.1885  0.2944
 2577W        W 3574   2.943   4.490   5.867  0.1559 -0.3496 -0.0560
 2578W        W 3575   7.338   3.737   7.040  0.0326 -0.1818  0.0923
 2579W        W 3576   3.823   6.047   5.599 -0.2211  0.0104  0.3100
 2580W        W 3577   2.805   5.475   4.634  0.0051  0.3423  0.0272
 2581W        W 3578   1.472   4.787   1.353 -0.1515 -0.3124 -0.1921
 2582W        W 3579   5.116   3.603   5.073 -0.3194 -0.2442  0.1393
 2583W        W 3580   2.970   4.953   2.910 -0.1689 -0.0166  0.1549
 2584W        W 3581   5.065   6.799   1.990  0.0203 -0.1263  0.2137
 2585W        W 3582   0.253   6.180   4.518 -0.0326  0.1482 -0.0195
 2586W        W 3583   5.848   6.421   4.973 -0.2515 -0.1411  0.3379
 2587W        W 3584   1.813   6.463   6.057  0.0630 -0.0486  0.0243
 2588W        W 3585   5.390   2.935   2.136  0.0437 -0.1330 -0.3411
 2589W        W 3586   1.613   7.135   6.460 -0.0861 -0.2091 -0.1460
 2590W        W 3587   1.415   2.243   2.485 -0.2904  0.0856  0.0557
 2591W        W 3588   5.230   4.642   1.282 -0.1743  0.0101 -0.2311
 2592W        W 3589   4.524   0.698   0.190 -0.0583 -0.1004 -0.2137
 2593W        W 3590   7.480   6.201   3.391 -0.0027  0.0047  0.4280
 2594W        W 3591   2.705   6.317   6.540 -0.1443 -0.0364  0.2808
 2595W        W 3592   5.053   2.166   2.146 -0.1854 -0.1024 -0.1363
 2596W        W 3593   2.579   5.535   3.486 -0.1037 -0.1053 -0.2635
 2597W        W 3594   5.587   2.393   6.411 -0.0418  0.1288  0.4399
 2598W        W 3595   4.706   2.434   7.328  0.0128 -0.0249 -0.0083
 2599W        W 3596   4.116   1.350   2.825  0.3534 -0.0135 -0.0328
 2600W        W 3597   2.906   7.427   7.476 -0.0179  0.1686  0.3409
 2601W        W 3598   2.607   3.277   6.919 -0.0851  0.1586  0.1680
 2602W        W 3599   1.635   4.513   1.796  0.2095  0.1113 -0.3208
 2603W        W 3600   2.796   5.149   1.807  0.0138 -0.0287  0.1569
 2604W        W 3601   6.747   3.652   2.930  0.1255 -0.2855 -0.3313
 2605W        W 3602   2.469   0.251   7.316  0.1144  0.0018 -0.3007
 2606W        W 3603   4.893   3.216   3.311 -0.0418 -0.1087  0.2129
 2607W        W 3604   3.841   7.112   1.787  0.1837  0.1120  0.1080
 2608W        W 3605   3.907   6.140   6.070 -0.0954 -0.1872 -0.1509
 2609W        W 3606   4.683   1.340   4.209 -0.1983 -0.0561  0.1024
 2610W        W 3607   2.053   3.163   0.192 -0.1188  0.0351  0.1967
 2611W        W 3608   5.549   4.554   0.917  0.1405  0.0666 -0.1417
 2612W        W 3609   6.644   5.241   2.228 -0.0411  0.1047  0.1787
 2613W        W 3610   6.315   2.337   0.209  0.2940  0.0017  0.3258
 2614W        W 3611   0.698   0.185   3.530  0.2444  0.2485 -0.1140
 2615W        W 3612   3.425   1.488   6.614 -0.1955 -0.3610  0.1216
 2616W        W 3613   3.428   6.369   5.876  0.0990  0.1312  0.1948
 2617W        W 3614   3.764   7.481   6.986  0.1339 -0.2765  0.0325
 2618W        W 3615   1.167   7.044   6.238  0.0665 -0.1101 -0.0324
 2619W        W 3616   3.051   1.541   4.308 -0.1784  0.0799 -0.0457
 2620W        W 3617   2.311   3.235   7.419 -0.3672  0.3559  0.0361
 2621W        W 3618   5.522   6.561   7.338 -0.1949  0.0040  0.0608
 2622W        W 3619   6.551   3.964   6.963  0.4260  0.3468 -0.0850
 2623W        W 3620   0.746   4.576   5.473 -0.3521 -0.1849  0.2648
 2624W        W 3621   4.076   3.013   5.370 -0.1861 -0.0431  0.0263
 2625W        W 3622   1.321   1.227   2.741  0.2624  0.0931  0.2492
 2626W        W 3623   5.585   5.536   2.560  0.0417 -0.2317 -0.1754
 2627W        W 3624   0.750   6.658   2.844 -0.2153  0.0149 -0.0443
 2628W        W 3625   3.610   0.701   0.586 -0.1774 -0.0636  0.0727
 2629W        W 3626   1.659   1.097   6.832  0.1701 -0.0959  0.0022
 2630W        W 3627   0.455   2.469   0.020 -0.0853  0.2732 -0.2497
 2631W        W 3628   5.661   0.625   5.529  0.1056  0.3516  0.0392
 2632W        W 3629   6.267   4.310   3.393 -0.0023 -0.1720  0.0323
 2633W        W 3630   2.258   3.636   1.374 -0.2423 -0.1526  0.0322
 2634W        W 3631   2.767   1.437   0.444  0.0827  0.0271 -0.3770
 2635W        W 3632   3.034   1.143   2.806 -0.0971  0.1646 -0.2004
 2636W        W 3633   2.437   7.202   3.686  0.0315  0.2617  0.2087
 2637W        W 3634   6.110   1.623   7.420  0.1017  0.0136 -0.0876
 2638W        W 3635   6.956   6.109   2.722 -0.4554 -0.1464  0.0300
 2639W        W 3636   5.475   6.327   4.582  0.1757  0.3685  0.0439
 2640W        W 3637   2.116   6.149   5.643  0.1700 -0.1035 -0.0544
 2641W        W 3638   4.781   2.742   6.435  0.1210  0.2308 -0.0095
 2642W        W 3639   2.262   6.443   6.297  0.1410 -0.1644 -0.2623
 2643W        W 3640   2.966   2.989   4.530 -0.0319  0.0604  0.0685
 2644W        W 3641   6.248   1.191   1.651  0.0554 -0.4570 -0.0380
 2645W        W 3642   1.400   7.299   2.575  0.0460  0.0104 -0.2750
 2646W        W 3643   1.878   6.058   7.322  0.0684 -0.0992  0.0383
 2647W        W 3644   4.885   7.193   0.682 -0.0509 -0.0804 -0.0554
 2648W        W 3645   7.269   2.226   0.250 -0.0779  0.2827  0.1210
 2649W        W 3646   2.112   4.498   0.598 -0.0880  0.2501  0.1110
 2650W        W 3647   4.332   5.148   0.365 -0.1884  0.1648  0.3844
 2651W        W 3648   6.276   4.697   7.135  0.1558 -0.0571 -0.0130
 2652W        W 3649   6.717   2.551   4.962  0.0314 -0.2999  0.2357
 2653W        W 3650   7.039   2.098   5.589 -0.2534  0.0844  0.1553
 2654W        W 3651   5.880   0.501   3.323  0.4492  0.0737 -0.0553
 2655W        W 3652   7.623   2.366   7.487  0.0483 -0.3655  0.1424
 2656W        W 3653   4.632   5.235   7.300 -0.4945  0.0184 -0.4219
 2657W        W 3654   5.417   0.414   0.747  0.3788 -0.0552  0.2207
 2658W        W 3655   2.380   6.495   2.556  0.0637 -0.3010 -0.0459
 2659W        W 3656   4.228   4.643   0.465 -0.1485  0.4164 -0.1687
 2660W        W 3657   2.058   2.481   6.647 -0.0675  0.2161  0.0169
 2661W        W 3658   0.386   0.888   2.844 -0.0715 -0.1938 -0.0816
 2662W        W 3659   3.451   3.091   7.358 -0.1262 -0.4277 -0.0884
 2663W        W 3660   6.811   4.371   2.275 -0.4123 -0.1798  0.5956
 2664W        W 3661   1.786   0.888   3.873  0.0257  0.3483 -0.2734
 2665W        W 3662   5.104   7.174   6.168  0.1439 -0.2505 -0.0691
 2666W        W 3663   1.493   1.485   0.610  0.0604 -0.1187  0.0101
 2667W        W 3664   0.940   0.707   5.034  0.0788 -0.4228  0.2819
 2668W        W 3665   2.816   2.907   3.602  0.2042 -0.0277  0.2638
 2669W        W 3666   2.067   1.029   3.452  0.0172  0.5380 -0.1128
 2670W        W 3667   5.272   1.438   3.037  0.1150 -0.3536 -0.0722
 2671W        W 3668   3.587   5.694   1.047 -0.1791 -0.0621  0.2972
 2672W        W 3669   7.110   2.143   2.614 -0.0318  0.0848  0.2201
 2673W        W 3670   1.857   4.247   0.151 -0.3027  0.1698  0.2739
 2674W        W 3671   1.622   5.209   3.356  0.1682 -0.1718  0.0814
 2675W        W 3672   4.497   3.558   6.425  0.0465  0.2969  0.0315
 2676W        W 3673   3.563   1.989   1.238 -0.0467  0.2968 -0.1900
 2677W        W 3674   0.078   2.453   2.416 -0.2015 -0.4270 -0.1671
 2678W        W 3675   7.563   4.236   2.801  0.1053  0.2846  0.2320
 2679W        W 3676   0.800   5.782   3.929  0.0344 -0.0027  0.2780
 2680W        W 3677   7.114   2.396   7.341 -0.0178  0.1164 -0.1376
 2681W        W 3678   3.986   2.942   0.971  0.0342 -0.1410  0.1449
 2682W        W 3679   5.264   5.675   6.118 -0.1244  0.0148  0.0789
 2683W        W 3680   0.451   5.808   7.108 -0.3218 -0.0602  0.0481
 2684W        W 3681   5.139   7.122   3.366  0.3111  0.0123  0.0352
 2685W        W 3682   6.670   2.865   5.947  0.0871 -0.2411 -0.1863
 2686W        W 3683   4.767   5.829   7.374 -0.3289 -0.1351 -0.0636
 2687W        W 3684   5.049   3.818   4.574  0.0768  0.0086  0.2401
 2688W        W 3685   0.624   2.570   1.201 -0.0690  0.1508  0.3507
 2689W        W 3686   0.141   4.592   2.332  0.0478  0.3404 -0.0092
 2690W        W 3687   2.558   4.390   1.589 -0.0987 -0.0167  0.0027
 2691W        W 3688   3.062   1.315   4.802 -0.3513  0.1513 -0.0431
 2692W        W 3689   3.714   5.266   0.206 -0.2888  0.4893  0.0548
 2693W        W 3690   2.846   5.209   2.290 -0.0093 -0.0469  0.0871
 2694W        W 3691   4.353   3.794   0.828 -0.1712 -0.1511  0.2922
 2695W        W 3692   0.993   0.861   1.752  0.2829 -0.0950  0.0894
 2696W        W 3693   4.078   0.884   2.615  0.0075 -0.0738 -0.2181
 2697W        W 3694   7.419   3.104   1.976  0.0820  0.0321  0.2249
 2698W        W 3695   2.377   4.269   2.123  0.0985  0.0780 -0.2532
 2699W        W 3696   5.936   4.062   5.496  0.3140 -0.1064 -0.0881
 2700W        W 3697   0.601   0.199   5.406  0.0624 -0.1369  0.0254
 2701W        W 3698   0.212   0.365   1.363 -0.1944  0.0166 -0.1283
 2702W        W 3699   1.114   5.177   3.237 -0.1831 -0.2994  0.0818
 2703W        W 3700   5.910   2.646   0.080  0.0143 -0.0223  0.0142
 2704W        W 3701   2.325   5.248   7.205 -0.0001  0.1538 -0.1955
 2705W        W 3702   3.600   2.842   0.232  0.0437  0.2521 -0.1556
 2706W        W 3703   5.538   1.128   4.088  0.1235  0.0790 -0.3653
 2707W        W 3704   0.141   7.284   5.301  0.2506 -0.0041  0.1585
 2708W        W 3705   5.067   7.487   5.776  0.0041  0.1270 -0.2727
 2709W        W 3706   0.032   4.968   6.133  0.2982 -0.0501  0.3958
 2710W        W 3707   4.241   5.018   3.146 -0.2058 -0.0680  0.3786
 2711W        W 3708   3.183   3.713   0.801 -0.2945  0.0137 -0.1379
 2712W        W 3709   5.516   4.772   2.942 -0.1800  0.0791  0.0747
 2713W        W 3710   7.070   4.528   3.879 -0.0481 -0.0770 -0.3258
 2714W        W 3711   0.477   2.736   5.111 -0.3555 -0.2146  0.2467
 2715W        W 3712   5.398   1.216   0.069  0.2636  0.0847  0.1793
 2716W        W 3713   4.130   6.161   4.110 -0.1431  0.1596  0.1738
 2717W        W 3714   3.172   7.595   4.133 -0.0469 -0.1078 -0.2613
 2718W        W 3715   3.619   1.611   0.232  0.0553  0.1536  0.2440
 2719W        W 3716   3.792   2.275   3.883 -0.1965 -0.2052  0.1252
 2720W        W 3717   7.167   5.464   4.926  0.0407 -0.0003 -0.1193
 2721W        W 3718   7.008   7.155   4.651  0.2604  0.1645 -0.1987
 2722W        W 3719   1.840   4.497   5.732 -0.0823 -0.0420  0.0587
 2723W        W 3720   6.638   2.694   2.060 -0.2447  0.1086  0.1008
 2724W        W 3721   7.478   6.077   4.265  0.0752  0.1571  0.0776
 2725W        W 3722   4.582   1.874   0.839  0.1622  0.1371  0.1818
 2726W        W 3723   6.192   0.583   6.516  0.1255  0.0617 -0.3227
 2727W        W 3724   6.103   6.328   5.708  0.0032  0.0572  0.0170
 2728W        W 3725   4.881   4.040   6.073 -0.0640 -0.1413 -0.1518
 2729W        W 3726   6.640   2.069   1.313  0.0488  0.2125 -0.3079
 2730W        W 3727   1.229   6.628   3.937 -0.1292  0.2594  0.2100
 2731W        W 3728   2.502   1.512   4.183  0.0230 -0.1186  0.0312
 2732W        W 3729   4.751   1.565   0.527 -0.0345  0.1347  0.1452
 2733W        W 3730   6.045   6.255   6.574  0.0301  0.0562  0.0547
 2734W        W 3731   1.611   0.887   1.016  0.0121  0.2424  0.2652
 2735W        W 3732   3.705   2.354   7.559 -0.0519  0.0613 -0.0812
 2736W        W 3733   4.047   5.774   2.820 -0.0638  0.2251  0.2383
 2737W        W 3734   4.082   6.514   5.368  0.2941 -0.0839 -0.1021
 2738W        W 3735   3.296   6.398   2.259 -0.1635  0.0987  0.0509
 2739W        W 3736   1.022   5.907   4.393 -0.1495  0.0374 -0.1004
 2740W        W 3737   4.182   7.000   3.072  0.2187 -0.0274  0.1533
 2741W        W 3738   3.432   5.984   2.470 -0.1860 -0.0568 -0.0912
 2742W        W 3739   2.046   6.065   4.274 -0.3145 -0.3709  0.2654
 2743W        W 3740   2.777   4.147   1.105  0.1670 -0.0534 -0.0402
 2744W        W 3741   2.845   6.340   2.844 -0.0047 -0.1830  0.0769
 2745W        W 3742   5.913   4.463   0.588  0.2517  0.1020  0.0333
 2746W        W 3743   2.563   2.854   5.940  0.0739 -0.2573 -0.2769
 2747W        W 3744   6.914   5.004   6.302  0.1847 -0.0888  0.0548
 2748W        W 3745   3.260   7.369   3.118  0.1079 -0.0353 -0.1094
 2749W        W 3746   6.474   7.336   4.052  0.1349  0.0263  0.1678
 2750W        W 3747   1.597   7.396   5.310 -0.1358 -0.2073 -0.0202
 2751W        W 3748   1.309   3.097   1.477 -0.2302 -0.0717 -0.0803
 2752W        W 3749   1.340   2.390   0.405  0.1684  0.1721 -0.0734
 2753W        W 3750   5.294   4.805   2.113 -0.1334  0.0783 -0.0251
 2754W        W 3751   5.564   5.573   1.717 -0.3620  0.2073 -0.0827
 2755W        W 3752   0.951   1.582   6.593 -0.3132  0.2921 -0.0758
 2756W        W 3753   0.341   1.305   6.227 -0.1240 -0.1266 -0.2217
 2757W        W 3754   4.146   3.499   0.257  0.0287  0.1487 -0.0380
 2758W        W 3755   0.655   1.882   2.024  0.0161 -0.0571  0.3349
 2759W        W 3756   4.212   3.180   4.091  0.1468  0.0764 -0.1763
 2760W        W 3757   1.813   7.338   3.820  0.1514 -0.2012 -0.2290
 2761W        W 3758   0.773   6.997   5.973 -0.3450  0.1742 -0.0850
 2762W        W 3759   5.962   1.506   5.766 -0.0984 -0.1356 -0.0417
 2763W        W 3760   3.187   4.207   6.288 -0.0859  0.0441  0.1323
 2764W        W 3761   6.816   5.772   2.340  0.2619  0.0486  0.2433
 2765W        W 3762   3.297   1.576   1.484 -0.1209 -0.2360  0.2556
 2766W        W 3763   6.694   2.412   5.693  0.0928 -0.1756  0.0047
 2767W        W 3764   0.204   3.144   5.365 -0.1580  0.1372 -0.0042
 2768W        W 3765   6.614   3.747   4.435 -0.0312  0.1592  0.0878
 2769W        W 3766   4.114   5.943   1.815 -0.1143  0.0974  0.1494
 2770W        W 3767   4.178   7.370   6.707  0.1186  0.3991  0.1156
 2771W        W 3768   2.551   6.336   5.882 -0.0559  0.0479  0.5190
 2772W        W 3769   7.247   4.883   0.357 -0.1371 -0.0314 -0.4415
 2773W        W 3770   0.968   2.791   5.183 -0.1476  0.3043 -0.0656
 2774W        W 3771   7.035   4.929   2.615 -0.2655 -0.0329  0.1051
 2775W        W 3772   2.147   1.744   3.440  0.1068  0.1779  0.2712
 2776W        W 3773   2.761   3.829   1.492 -0.0312  0.2836  0.1777
 2777W        W 3774   6.100   5.724   6.711 -0.0409 -0.1742 -0.1209
 2778W        W 3775   7.445   2.906   3.256 -0.0395 -0.0490  0.3178
 2779W        W 3776   4.159   2.393   2.908 -0.1648 -0.1553 -0.1340
 2780W        W 3777   4.297   1.189   6.900 -0.0230  0.0753  0.3463
 2781W        W 3778   5.060   2.534   1.193  0.5366 -0.1369  0.0197
 2782W        W 3779   4.981   3.519   5.541  0.1967  0.0584 -0.2212
 2783W        W 3780   5.347   2.797   6.153  0.0889 -0.2693  0.3271
 2784W        W 3781   4.417   1.822   0.111  0.0692 -0.3776 -0.0268
 2785W        W 3782   5.983   0.240   1.317  0.1581 -0.0125 -0.1189
 2786W        W 3783   4.095   2.511   2.372  0.0458 -0.1225 -0.0660
 2787W        W 3784   3.078   7.501   5.170 -0.1302  0.3905 -0.3014
 2788W        W 3785   3.419   0.172   3.452  0.2454  0.3862 -0.1379
 2789W        W 3786   4.192   1.611   2.302 -0.0268 -0.1226 -0.3865
 2790W        W 3787   5.136   0.541   4.603 -0.1993  0.0867 -0.2257
 2791W        W 3788   2.233   2.165   4.220  0.6630  0.2019  0.0031
 2792W        W 3789   4.754   3.356   7.206 -0.0200 -0.0816 -0.1167
 2793W        W 3790   1.655   6.959   5.081  0.0491  0.1323 -0.2403
 2794W        W 3791   5.337   2.272   5.444 -0.2637 -0.1406  0.0512
 2795W        W 3792   5.622   1.054   4.576 -0.1365  0.0390 -0.2117
 2796W        W 3793   4.057   0.639   1.788  0.2306  0.2600 -0.3393
 2797W        W 3794   3.028   0.253   1.167 -0.0170  0.1104  0.0692
 2798W        W 3795   2.935   1.473   6.786  0.0910  0.0578 -0.2834
 2799W        W 3796   6.773   2.122   0.362  0.1931  0.2615 -0.2067
 2800W        W 3797   3.163   2.292   0.833  0.0836 -0.1245  0.4146
 2801W        W 3798   2.211   2.536   2.538 -0.3269 -0.0393  0.1070
 2802W        W 3799   0.887   0.640   6.336 -0.1035 -0.2527  0.1896
 2803W        W 3800   3.490   5.929   3.936  0.0620 -0.0588 -0.1512
 2804W        W 3801   5.981   0.680   1.636  0.1321  0.3903  0.0017
 2805W        W 3802   7.184   5.609   4.089  0.0364  0.1632  0.0286
 2806W        W 3803   2.471   6.286   7.113  0.2495  0.0291  0.1250
 2807W        W 3804   2.709   6.853   5.856 -0.1165 -0.0370  0.0113
 2808W        W 3805   5.675   0.534   4.687  0.0117  0.1066  0.0944
 2809W        W 3806   4.263   0.082   1.292 -0.1618  0.0759 -0.0523
 2810W        W 3807   2.472   1.079   0.822  0.3693 -0.2720 -0.2835
 2811W        W 3808   4.884   4.601   1.615  0.3440 -0.2188  0.1646
 2812W        W 3809   6.663   6.025   5.286  0.2473 -0.0330 -0.1536
 2813W        W 3810   3.665   0.982   3.668 -0.0989  0.0373  0.0831
 2814W        W 3811   6.370   4.215   0.838 -0.1200 -0.0616  0.0851
 2815W        W 3812   7.470   0.514   3.597 -0.4318  0.2754  0.1098
 2816W        W 3813   1.458   2.652   4.895  0.1765  0.1505 -0.2261
 2817W        W 3814   3.188   3.600   7.520 -0.0594 -0.2634 -0.0303
 2818W        W 3815   4.675   6.166   4.082  0.2650 -0.1896  0.3550
 2819W        W 3816   3.611   2.684   0.706 -0.1283  0.1183  0.0662
 2820W        W 3817   3.755   3.275   0.079  0.1182  0.1741  0.0866
 2821W        W 3818   1.544   5.793   5.830 -0.1216  0.0463  0.1506
 2822W        W 3819   6.209   1.539   6.913  0.0407 -0.1808  0.0781
 2823W        W 3820   2.022   1.694   7.238 -0.0841  0.3097  0.0687
 2824W        W 3821   6.149   1.975   1.225 -0.3064  0.1276 -0.3331
 2825W        W 3822   6.768   1.368   2.387 -0.0251  0.0733 -0.0977
 2826W        W 3823   3.957   1.884   1.816  0.0699 -0.0617 -0.0903
 2827W        W 3824   3.832   5.791   4.284  0.1295  0.3028  0.0132
 2828W        W 3825   0.358   7.034   5.658 -0.4004  0.2850  0.0328
 2829W        W 3826   3.306   5.170   4.881  0.2371 -0.3770 -0.0812
 2830W        W 3827   1.200   7.473   6.593  0.3474  0.0177  0.0758
 2831W        W 3828   1.801   2.375   1.132 -0.0627 -0.1065 -0.1096
 2832W        W 3829   1.196   1.997   5.647  0.1194 -0.2705 -0.2106
 2833W        W 3830   1.798   2.331   4.036 -0.1352 -0.0882  0.1731
 2834W        W 3831   7.553   5.366   3.545 -0.1073 -0.2467  0.0917
 2835W        W 3832   2.029   1.531   6.680  0.2546 -0.1022  0.0826
 2836W        W 3833   1.498   6.524   3.080 -0.0488  0.2005  0.3180
 2837W        W 3834   0.899   6.112   6.341  0.2108 -0.0006  0.1320
 2838W        W 3835   3.458   2.577   4.248  0.2123  0.1919  0.1733
 2839W        W 3836   0.612   0.484   4.384  0.0622 -0.0092  0.3096
 2840W        W 3837   0.798   1.925   5.088 -0.0484 -0.3825 -0.1143
 2841W        W 3838   1.743   6.382   4.590  0.1009 -0.3720 -0.2239
 2842W        W 3839   6.370   5.397   0.339 -0.1421  0.2417 -0.1802
 2843W        W 3840   4.853   2.198   5.126  0.2510 -0.1624  0.1674
 2844W        W 3841   0.248   2.285   0.997 -0.0010 -0.0705  0.1123
 2845W        W 3842   2.342   2.626   7.472 -0.0683 -0.0775  0.2572
 2846W        W 3843   5.530   4.736   6.593 -0.1436  0.4600 -0.4161
 2847W        W 3844   3.007   4.885   7.433 -0.1283  0.1381  0.0017
 2848W        W 3845   0.786   2.410   7.292  0.0243  0.1878 -0.1582
 2849W        W 3846   3.769   3.965   1.165  0.0088 -0.0801 -0.2011
 2850W        W 3847   7.530   0.972   3.871  0.2305 -0.3706  0.0481
 2851W        W 3848   5.846   4.134   4.955 -0.1857 -0.1791 -0.2702
 2852W        W 3849   7.474   2.582   0.989 -0.0985  0.0337  0.0308
 2853W        W 3850   3.741   1.914   6.616  0.1978  0.2714 -0.1453
 2854W        W 3851   0.366   5.081   5.462 -0.0336  0.2902  0.2283
 2855W        W 3852   2.333   1.196   7.267  0.2657 -0.1187 -0.0277
 2856W        W 3853   7.600   0.332   6.506  0.3232 -0.0181  0.2130
 2857W        W 3854   3.616   3.539   1.545 -0.0307 -0.4432 -0.1826
 2858W        W 3855   7.429   4.417   1.342  0.0472  0.1383 -0.1051
 2859W        W 3856   2.604   5.915   5.638  0.2132  0.1081 -0.0301
 2860W        W 3857   4.206   1.759   3.679  0.2742 -0.0325 -0.1406
 2861W        W 3858   6.450   5.338   3.165 -0.1707 -0.0635  0.1073
 2862W        W 3859   1.233   4.326   0.688  0.1351 -0.0707 -0.1651
 2863W        W 3860   6.421   2.252   1.791 -0.0850 -0.1934 -0.1159
 2864W        W 3861   2.544   0.871   2.765  0.0575 -0.0884  0.0186
 2865W        W 3862   5.993   5.284   6.438  0.0456  0.0553 -0.1196
 2866W        W 3863   0.441   1.171   2.400 -0.1391  0.3462  0.2888
 2867W        W 3864   3.150   2.634   5.105  0.1824  0.2955 -0.1308
 2868W        W 3865   0.000   1.203   2.705  0.0241  0.3124 -0.1032
 2869W        W 3866   3.923   7.594   3.736 -0.3225  0.0213  0.0483
 2870W        W 3867   0.899   5.443   4.287  0.1802  0.3281  0.2589
 2871W        W 3868   7.091   0.243   4.823 -0.1913  0.2186 -0.2722
 2872W        W 3869   3.331   2.271   3.725  0.0487  0.2766  0.2518
 2873W        W 3870   5.010   0.530   1.771 -0.1005 -0.1681  0.3365
 2874W        W 3871   4.436   6.009   2.234 -0.0417 -0.0441  0.0553
 2875W        W 3872   7.540   5.083   2.331  0.1119 -0.0752 -0.1644
 2876W        W 3873   2.409   5.713   4.605 -0.0520 -0.0323 -0.1172
 2877W        W 3874   2.864   2.399   3.397  0.0594  0.1443  0.1324
 2878W        W 3875   3.498   4.449   0.287 -0.1927  0.2362 -0.0430
 2879W        W 3876   5.143   7.265   1.171 -0.1156  0.2094 -0.1083
 2880W        W 3877   0.007   6.084   2.827 -0.0400 -0.0615 -0.0583
 2881W        W 3878   0.227   5.664   2.684  0.1104  0.0152 -0.0482
 2882W        W 3879   7.005   6.732   3.386 -0.0054 -0.2564  0.3678
 2883W        W 3880   2.838   1.927   7.099 -0.5201  0.3099  0.0189
 2884W        W 3881   6.279   3.078   5.756  0.1847 -0.1823 -0.1888
 2885W        W 3882   2.459   3.306   5.241 -0.1819 -0.0145 -0.2030
 2886W        W 3883   7.439   3.228   0.179 -0.3299 -0.0108 -0.3404
 2887W        W 3884   0.121   3.066   1.613  0.1052 -0.0552 -0.0303
 2888W        W 3885   2.924   4.156   4.378  0.0313 -0.2520 -0.0739
 2889W        W 3886   4.614   2.373   2.029 -0.0377 -0.2398 -0.1087
 2890W        W 3887   4.734   0.279   0.498 -0.0210 -0.0146 -0.0559
 2891W        W 3888   6.702   6.767   4.729  0.0040 -0.1896 -0.1751
 2892W        W 3889   1.902   5.928   4.721 -0.1808  0.1055  0.0447
 2893W        W 3890   0.029   0.931   3.270  0.2826 -0.1344 -0.4959
 2894W        W 3891   6.497   3.063   3.980 -0.4272  0.0296 -0.2103
 2895W        W 3892   2.931   0.921   0.486 -0.1310 -0.3580 -0.0875
 2896W        W 3893   0.646   6.814   2.111  0.1573  0.2645 -0.0885
 2897W        W 3894   2.337   3.548   6.535  0.0537 -0.0389 -0.0788
 2898W        W 3895   3.379   5.148   3.493  0.0481 -0.4105  0.0411
 2899W        W 3896   3.247   0.629   0.180  0.1262 -0.0787  0.1607
 2900W        W 3897   1.660   2.605   0.719 -0.0949 -0.0451 -0.5142
 2901W        W 3898   2.812   1.415   7.270  0.0478 -0.0397 -0.0898
 2902W        W 3899   4.995   1.170   5.951  0.1739  0.2417 -0.1631
 2903W        W 3900   4.866   4.114   6.599 -0.0556 -0.1487  0.1044
 2904W        W 3901   2.409   3.592   0.569  0.0029 -0.0864  0.2438
 2905W        W 3902   4.850   0.329   2.300  0.4118  0.2569 -0.0019
 2906W        W 3903   5.562   4.407   5.303 -0.0314  0.2407  0.5405
 2907W        W 3904   5.617   1.862   5.653 -0.0404 -0.0592  0.0174
 2908W        W 3905   7.085   2.577   0.671  0.0483 -0.1365 -0.1050
 2909W        W 3906   6.793   6.997   4.181 -0.0404  0.0177 -0.1757
 2910W        W 3907   3.631   6.750   5.541 -0.0021 -0.1105  0.0385
 2911W        W 3908   3.059   7.101   3.926  0.4539  0.2805 -0.0589
 2912W        W 3909   4.538   0.544   7.355  0.1006  0.4240 -0.1532
 2913W        W 3910   5.801   7.612   1.763 -0.0122 -0.2221 -0.2452
 2914W        W 3911   0.608   0.746   5.527  0.2797  0.3122  0.2845
 2915W        W 3912   5.429   2.935   4.200 -0.0847  0.5549  0.1291
 2916W        W 3913   3.947   5.719   3.741  0.0465  0.2417  0.1881
 2917W        W 3914   2.615   0.133   2.099  0.1954 -0.4024 -0.2497
 2918W        W 3915   5.921   3.801   4.192 -0.1220 -0.0744 -0.0780
 2919W        W 3916   1.393   2.348   1.877  0.1084  0.0379 -0.0238
 2920W        W 3917   1.599   0.018   6.284 -0.1738 -0.1832 -0.0559
 2921W        W 3918   1.375   4.332   1.207 -0.5039 -0.1026 -0.0161
 2922W        W 3919   5.435   4.921   3.938  0.4255 -0.1221 -0.2091
 2923W        W 3920   3.484   1.291   4.546 -0.3475 -0.1117  0.0443
 2924W        W 3921   3.587   3.382   6.465  0.0517 -0.0874  0.0230
 2925W        W 3922   2.503   7.526   2.523  0.1865  0.2485  0.0723
 2926W        W 3923   7.323   2.750   0.048 -0.1234  0.0406 -0.0213
 2927W        W 3924   6.107   4.538   4.812  0.3544  0.1595 -0.0490
 2928W        W 3925   2.259   1.362   0.421 -0.0245  0.0774  0.1784
 2929W        W 3926   4.807   4.017   4.965 -0.0335 -0.0233 -0.4288
 2930W        W 3927   3.527   5.020   2.965 -0.1084 -0.1114  0.2071
 2931W        W 3928   5.179   2.914   1.519 -0.1559 -0.1410  0.0954
 2932W        W 3929   7.373   1.674   1.748  0.1619  0.1083  0.0828
 2933W        W 3930   7.002   1.538   7.277  0.2011 -0.0824  0.2497
 2934W        W 3931   1.632   2.595   1.523 -0.3668 -0.1898  0.1256
 2935W        W 3932   5.010   0.041   0.869 -0.1456 -0.0645 -0.2032
 2936W        W 3933   3.433   1.108   0.269 -0.0490 -0.1771  0.2083
 2937W        W 3934   0.186   4.838   7.551  0.2359  0.1048  0.1899
 2938W        W 3935   3.895   0.216   4.969  0.1212  0.0781 -0.2557
 2939W        W 3936   7.157   1.870   3.497  0.1743  0.0240 -0.2928
 2940W        W 3937   3.068   3.168   6.090 -0.1008  0.2407 -0.1808
 2941W        W 3938   6.773   6.485   5.162  0.2698 -0.2296  0.0171
 2942W        W 3939   3.787   6.124   0.189  0.0709  0.1428 -0.3159
 2943W        W 3940   7.368   1.208   6.219 -0.3272 -0.0484  0.0637
 2944W        W 3941   6.425   1.379   3.653  0.3009 -0.0473  0.0146
 2945W        W 3942   7.596   1.461   2.194  0.0632  0.1527 -0.1445
 2946W        W 3943   7.085   6.016   6.916  0.3026 -0.0790  0.0525
 2947W        W 3944   0.868   2.987   1.526  0.1441 -0.0568  0.1447
 2948W        W 3945   7.255   1.839   4.280  0.0454  0.0444  0.1051
 2949W        W 3946   3.498   4.079   0.710 -0.1167  0.1495  0.0120
 2950W        W 3947   5.743   0.007   4.682 -0.1282 -0.2932  0.0584
 2951W        W 3948   5.100   1.264   2.464  0.0748  0.1379  0.0623
 2952W        W 3949   5.667   3.547   0.134  0.5876 -0.2128  0.0407
 2953W        W 3950   5.137   3.352   7.545 -0.2698  0.1671 -0.2366
 2954W        W 3951   1.477   2.219   3.062  0.1574  0.1001  0.0538
 2955W        W 3952   7.147   3.397   3.180 -0.0309  0.1024  0.2635
 2956W        W 3953   2.039   3.614   5.505 -0.1329 -0.1513  0.0623
 2957W        W 3954   3.579   0.474   1.879 -0.0656 -0.0536 -0.0501
 2958W        W 3955   4.696   7.441   5.369 -0.1690 -0.3671 -0.2130
 2959W        W 3956   6.190   5.207   7.480 -0.1189 -0.1291 -0.0211
 2960W        W 3957   6.975   6.951   5.126  0.1265  0.1240  0.1764
 2961W        W 3958   0.910   2.424   0.821  0.2385 -0.1260 -0.0778
 2962W        W 3959   5.805   4.901   5.069  0.2024 -0.0954 -0.0571
 2963W        W 3960   7.274   6.468   5.054  0.0177 -0.1376  0.4343
 2964W        W 3961   6.132   4.275   6.627  0.0171  0.1238 -0.1840
 2965W        W 3962   7.143   4.786   3.420 -0.4373 -0.1776 -0.2988
 2966W        W 3963   2.381   2.803   5.455  0.0193  0.1166 -0.0900
 2967W        W 3964   0.745   4.578   6.443 -0.0323 -0.3583  0.1303
 2968W        W 3965   6.698   1.475   1.407  0.0464  0.0268 -0.3351
 2969W        W 3966   4.693   1.450   6.974 -0.0410 -0.0282  0.2063
 2970W        W 3967   1.855   4.531   1.400  0.0165  0.0737 -0.0991
 2971W        W 3968   6.992   6.590   6.223  0.3053  0.0960  0.2472
 2972W        W 3969   6.034   2.912   1.314  0.1333 -0.1235  0.0605
 2973W        W 3970   5.026   3.664   0.965  0.0567 -0.3266  0.3295
 2974W        W 3971   2.276   3.343   1.970  0.1439 -0.0401 -0.0819
 2975W        W 3972   5.213   1.786   5.321  0.2088  0.1474  0.1798
 2976W        W 3973   3.049   6.868   7.417 -0.0219  0.2066 -0.1343
 2977W        W 3974   2.231   4.708   7.332 -0.0026 -0.1579 -0.1553
 2978W        W 3975   1.452   1.445   3.193  0.2097 -0.0130 -0.0516
 2979W        W 3976   7.620   1.990   2.289  0.0631  0.2844 -0.2143
 2980W        W 3977   4.776   6.037   6.868 -0.1076 -0.2388  0.0072
 2981W        W 3978   4.271   3.865   3.666  0.0397 -0.4252  0.0890
 2982W        W 3979   7.607   4.877   0.758  0.0525  0.0760  0.1384
 2983W        W 3980   4.919   5.957   2.444  0.1861 -0.1356 -0.2775
 2984W        W 3981   4.131   1.786   3.149 -0.0146 -0.0887 -0.0982
 2985W        W 3982   4.481   1.139   1.232  0.0616  0.3013  0.2398
 2986W        W 3983   0.411   1.705   1.008 -0.2139  0.0945 -0.2330
 2987W        W 3984   7.386   3.981   1.643 -0.0045 -0.1832 -0.0243
 2988W        W 3985   6.345   3.818   0.512 -0.1956 -0.3788  0.1463
 2989W        W 3986   3.773   5.503   4.922 -0.0706  0.0119 -0.2664
 2990W        W 3987   6.586   0.387   2.891  0.1238 -0.1500 -0.1957
 2991W        W 3988   3.494   4.850   7.559 -0.1838  0.1131  0.1025
 2992W        W 3989   1.426   2.912   5.466  0.0301 -0.1280  0.2301
 2993W        W 3990   6.772   4.820   5.861 -0.0587  0.0681 -0.0410
 2994W        W 3991   6.202   6.698   4.646 -0.0416 -0.0204 -0.4094
 2995W        W 3992   5.979   0.486   3.843 -0.1715 -0.2402  0.1715
 2996W        W 3993   5.271   4.956   3.342 -0.4041 -0.1188  0.0053
 2997W        W 3994   0.295   4.577   5.366  0.0222  0.4036 -0.3226
 2998W        W 3995   3.770   6.029   0.722 -0.2072 -0.4895  0.0425
 2999W        W 3996   1.035   4.494   1.511  0.2974 -0.0282 -0.1410
 3000W        W 3997   0.071   2.865   3.637  0.2529  0.0115  0.1288
 3001W        W 3998   3.159   0.998   3.728 -0.0218  0.3043 -0.2896
 3002W        W 3999   3.177   4.429   7.588  0.0272 -0.0445  0.3340
 3003W        W 4000   0.002   2.712   5.125 -0.0195  0.1486 -0.3303
 3004W        W 4001   1.039   1.971   1.598 -0.1112  0.0413  0.1577
 3005W        W 4002   6.406   0.791   3.055 -0.0165  0.1850  0.4081
 3006W        W 4003   2.785   5.386   6.785 -0.1107 -0.1957  0.1038
 3007W        W 4004   6.429   7.220   6.537 -0.1618  0.0369  0.1628
 3008W        W 4005   6.787   1.201   2.832  0.0291 -0.1907 -0.0617
 3009W        W 4006   5.523   0.380   7.161 -0.2002  0.1352 -0.2534
 3010W        W 4007   3.544   4.606   2.226  0.1263  0.0247 -0.2564
 3011W        W 4008   6.800   0.503   1.884 -0.2599 -0.1419 -0.0157
 3012W        W 4009   2.278   2.260   1.541 -0.2929 -0.0090  0.1382
 3013W        W 4010   0.228   3.645   6.684 -0.0095 -0.0112  0.2192
 3014W        W 4011   7.230   1.400   4.558  0.1104 -0.4355  0.0797
 3015W        W 4012   3.186   0.886   1.863  0.1640  0.2362 -0.0079
 3016W        W 4013   2.167   0.921   5.221 -0.0737  0.0130 -0.0242
 3017W        W 4014   4.393   0.102   3.556  0.0016  0.0339  0.0932
 3018W        W 4015   7.314   2.599   2.755 -0.0690  0.2864 -0.0842
 3019W        W 4016   5.930   1.012   0.719 -0.2133 -0.3866 -0.0334
 3020W        W 4017   6.086   4.752   1.618 -0.1385 -0.0261 -0.3264
 3021W        W 4018   2.186   4.298   6.018  0.1031  0.1006  0.2221
 3022W        W 4019   2.881   6.532   6.962  0.3356 -0.2622  0.3516
 3023W        W 4020   6.813   3.973   5.931 -0.0530 -0.0853 -0.0893
 3024W        W 4021   4.705   4.714   2.865  0.1071  0.0657  0.0126
 3025W        W 4022   6.269   5.719   7.298 -0.0253  0.0835 -0.2182
 3026W        W 4023   2.783   3.223   5.681 -0.0523 -0.1693  0.0364
 3027W        W 4024   2.815   7.101   7.070 -0.0486  0.2466 -0.3697
 3028W        W 4025   4.970   0.846   5.538  0.2082  0.1234  0.3483
 3029W        W 4026   4.735   1.618   3.793 -0.1638  0.0190 -0.0711
 3030W        W 4027   3.495   2.405   6.621 -0.1921  0.0563 -0.2856
 3031W        W 4028   1.860   4.104   6.396  0.1018  0.2919  0.2738
 3032W        W 4029   4.662   3.110   5.526  0.0595  0.0727 -0.2210
 3033W        W 4030   2.873   1.437   3.886  0.1052 -0.0447  0.3267
 3034W        W 4031   2.908   4.681   4.694 -0.0091  0.0704  0.1889
 3035W        W 4032   5.562   1.346   7.233 -0.0940  0.1187  0.4191
 3036W        W 4033   0.265   2.231   6.716 -0.0139 -0.1312  0.1254
 3037W        W 4034   4.777   5.714   3.172  0.0766  0.1068  0.2860
 3038W        W 4035   7.246   5.093   3.034  0.0103 -0.1490 -0.1668
 3039W        W 4036   2.959   1.958   2.614  0.2425  0.1382 -0.0372
 3040W        W 4037   3.909   4.930   3.825 -0.0088 -0.3098 -0.1628
 3041W        W 4038   6.294   3.750   2.692  0.1710  0.1262  0.0493
 3042W        W 4039   0.770   5.058   4.636  0.0071  0.4287  0.0890
 3043W        W 4040   7.425   7.538   4.599 -0.3217 -0.2423 -0.0277
 3044W        W 4041   1.627   1.906   2.132  0.1089 -0.1780 -0.0593
 3045W        W 4042   3.426   1.103   5.096 -0.0525 -0.2728  0.2480
 3046W        W 4043   6.493   0.322   3.455  0.2655  0.2226 -0.0355
 3047W        W 4044   7.359   1.206   5.584 -0.1474 -0.1620  0.1991
 3048W        W 4045   7.098   2.673   5.780  0.0014 -0.1230  0.0273
 3049W        W 4046   1.932   4.119   1.870 -0.2364 -0.1502  0.0061
 3050W        W 4047   1.410   3.888   0.490  0.2400 -0.0268 -0.1606
 3051W        W 4048   2.202   2.152   6.277 -0.2335  0.1268  0.0010
 3052W        W 4049   1.175   2.819   0.634 -0.0447  0.0727 -0.1396
 3053W        W 4050   4.729   3.859   4.133  0.1772  0.0368  0.2678
 3054W        W 4051   1.244   0.473   5.979  0.0019  0.0257  0.0606
 3055W        W 4052   5.031   7.620   6.429 -0.0703 -0.0316 -0.1655
 3056W        W 4053   0.086   4.128   6.362 -0.1651 -0.0402 -0.1520
 3057W        W 4054   1.764   0.414   6.085  0.0523  0.0993 -0.0340
 3058W        W 4055   1.999   3.944   6.822  0.0780 -0.0611  0.0302
 3059W        W 4056   5.223   0.391   6.251  0.0993  0.0760  0.1380
 3060W        W 4057   1.083   5.705   2.916  0.0153 -0.2764  0.4330
 3061W        W 4058   6.074   7.536   4.278 -0.0920 -0.0284  0.2547
 3062W        W 4059   2.658   6.854   6.357 -0.2071 -0.0526  0.2125
 3063W        W 4060   0.729   6.665   4.819 -0.1027  0.1384  0.2373
 3064W        W 4061   2.955   6.717   2.459  0.2415 -0.0959  0.3054
 3065W        W 4062   2.610   4.440   0.613  0.2024  0.1476  0.1625
 3066W        W 4063   6.396   2.830   1.573 -0.0060  0.0422 -0.3215
 3067W        W 4064   2.059   3.629   7.254 -0.1942 -0.1164  0.3474
 3068W        W 4065   5.032   4.523   0.831 -0.4148  0.1631  0.0924
 3069W        W 4066   5.493   1.428   5.845  0.0603  0.0272 -0.1390
 3070W        W 4067   2.580   4.325   6.940 -0.1516  0.0141  0.0609
 3071W        W 4068   6.258   6.006   4.902 -0.2969 -0.0939 -0.1450
 3072W        W 4069   1.717   0.715   5.225  0.1455  0.1363 -0.4879
 3073W        W 4070   3.247   1.099   2.354  0.1806 -0.2697  0.2286
 3074W        W 4071   1.601   2.058   1.561 -0.0092  0.1084  0.0324
 3075W        W 4072   4.499   5.543   0.036  0.2087 -0.1194 -0.1504
 3076W        W 4073   6.682   6.957   5.550  0.3422 -0.1209  0.2843
 3077W        W 4074   4.181   0.372   0.470  0.0336  0.0131 -0.0345
 3078W        W 4075   0.895   4.470   2.566 -0.3058 -0.0576 -0.0757
 3079W        W 4076   2.784   2.039   4.826 -0.1166 -0.2697  0.0518
 3080W        W 4077   2.100   7.108   7.485  0.0701 -0.0606  0.1945
 3081W        W 4078   4.161   5.157   7.479  0.0343 -0.2194  0.0037
 3082W        W 4079   6.596   7.549   2.080 -0.0836 -0.0971  0.1727
 3083W        W 4080   3.492   0.505   2.523 -0.0312 -0.1339  0.1730
 3084W        W 4081   1.025   2.459   2.805 -0.1051  0.1098  0.0047
 3085W        W 4082   1.449   3.480   6.748  0.1914 -0.0589 -0.1171
 3086W        W 4083   1.851   4.205   1.036 -0.0060 -0.1271 -0.0104
 3087W        W 4084   0.128   3.172   0.648  0.2941  0.1792 -0.1539
 3088W        W 4085   6.088   6.201   3.925 -0.4223 -0.1058 -0.2707
 3089W        W 4086   7.634   5.346   5.794 -0.2238  0.3727  0.1583
 3090W        W 4087   5.182   3.314   1.828  0.1368  0.1362 -0.3788
 3091W        W 4088   1.546   2.997   6.884  0.3541  0.2613 -0.0374
 3092W        W 4089   5.098   0.069   1.536 -0.1127 -0.2467 -0.2440
 3093W        W 4090   5.929   1.050   1.989  0.0426  0.2413  0.1958
 3094W        W 4091   5.799   2.082   4.235  0.3356 -0.1427  0.3538
 3095W        W 4092   4.926   2.663   5.385 -0.0250  0.1200  0.0357
 3096W        W 4093   1.504   1.620   1.788  0.0753 -0.2875  0.1444
 3097W        W 4094   4.340   4.157   4.203  0.1061  0.0838  0.1552
 3098W        W 4095   1.572   4.919   7.074  0.0106 -0.0164 -0.3524
 3099W        W 4096   5.832   3.221   2.797 -0.0803 -0.0009 -0.0404
 3100W        W 4097   4.098   3.152   6.458 -0.1973  0.0330  0.1985
 3101W        W 4098   5.444   5.596   4.461  0.1720 -0.4133  0.2070
 3102W        W 4099   3.463   2.298   0.365  0.0123  0.2558  0.3987
 3103W        W 4100   4.050   7.198   4.204 -0.0980 -0.0166 -0.2186
 3104W        W 4101   2.823   2.806   0.181  0.0201 -0.2419  0.1682
 3105W        W 4102   3.252   3.715   6.322  0.0503  0.1499  0.3293
 3106W        W 4103   4.587   5.069   1.649 -0.0563  0.2739  0.1950
 3107W        W 4104   4.343   0.044   4.686  0.4017  0.4565 -0.2438
 3108W        W 4105   2.014   4.894   1.102 -0.2085 -0.1543  0.1892
 3109W        W 4106   5.560   7.033   6.155  0.1599 -0.0589  0.1408
 3110W        W 4107   4.287   5.529   3.259  0.0248 -0.0193  0.0131
 3111W        W 4108   0.347   3.349   2.025  0.1249  0.1658 -0.2233
 3112W        W 4109   3.818   0.515   2.910  0.2202 -0.0175  0.1802
 3113W        W 4110   3.373   1.511   2.685  0.0525 -0.2632 -0.2570
 3114W        W 4111   0.130   4.607   0.400 -0.3161 -0.1886  0.0496
 3115W        W 4112   0.977   3.373   1.194  0.1720 -0.2841 -0.0432
 3116W        W 4113   6.886   2.243   2.135  0.0250  0.2351  0.1731
 3117W        W 4114   5.250   3.548   0.514 -0.1861 -0.0990 -0.2053
 3118W        W 4115   5.539   6.362   3.791 -0.1466 -0.0008 -0.2610
 3119W        W 4116   4.293   6.828   5.009  0.1625 -0.0817 -0.2270
 3120W        W 4117   1.671   0.403   3.016 -0.3016 -0.3074  0.1552
 3121W        W 4118   4.971   2.865   4.378  0.1425 -0.1110 -0.1329
 3122W        W 4119   6.980   4.832   2.102 -0.2913  0.1360 -0.0918
 3123W        W 4120   1.128   7.295   4.246 -0.3403  0.2885  0.1168
 3124W        W 4121   7.167   0.943   3.522  0.1825 -0.0488 -0.3038
 3125W        W 4122   1.973   0.322   7.229 -0.0254 -0.0776  0.2409
 3126W        W 4123   4.649   4.208   3.259  0.1440 -0.0526  0.1126
 3127W        W 4124   2.133   1.588   5.406 -0.3014  0.0160 -0.0414
 3128W        W 4125   6.123   7.083   6.157 -0.0306  0.3884 -0.1338
 3129W        W 4126   5.459   2.974   3.727 -0.3564  0.0000  0.0092
 3130W        W 4127   5.069   1.628   2.137  0.0382  0.0270  0.0381
 3131W        W 4128   3.800   1.631   3.942 -0.1600 -0.0897 -0.2118
 3132W        W 4129   2.752   3.289   1.511 -0.1597  0.0373  0.1208
 3133W        W 4130   2.550   5.393   0.479 -0.1358 -0.1979  0.0009
 3134W        W 4131   5.832   3.345   1.140 -0.0603  0.1903 -0.3234
 3135W        W 4132   1.632   1.571   5.625  0.2277 -0.3599 -0.0495
 3136W        W 4133   3.051   2.853   3.079  0.3811 -0.1442 -0.0582
 3137W        W 4134   3.735   4.505   4.206  0.1272  0.0828  0.0231
 3138W        W 4135   6.111   1.501   0.288 -0.4639 -0.0912  0.1581
 3139W        W 4136   5.912   3.865   7.453 -0.2563  0.3736  0.0656
 3140W        W 4137   6.781   3.794   4.958 -0.0504  0.3436  0.1598
 3141W        W 4138   4.455   4.321   5.300  0.2024 -0.0578 -0.1135
 3142W        W 4139   6.731   3.372   2.035 -0.1283  0.1976 -0.0543
 3143W        W 4140   0.607   0.277   3.047 -0.1129  0.2056  0.0789
 3144W        W 4141   2.434   0.589   4.723 -0.0835 -0.1722  0.1439
 3145W        W 4142   4.429   2.667   5.420  0.0895  0.0688 -0.0275
 3146W        W 4143   3.708   0.768   7.536 -0.0794  0.1693 -0.1159
 3147W        W 4144   7.373   3.162   6.726 -0.0263 -0.2603  0.0725
 3148W        W 4145   3.242   5.028   2.024  0.1330 -0.0700  0.2934
 3149W        W 4146   2.425   4.571   4.987 -0.0437 -0.0539 -0.2737
 3150W        W 4147   6.220   4.448   7.552 -0.2679 -0.0556  0.0957
 3151W        W 4148   4.400   1.400   1.924  0.1423 -0.3404  0.0795
 3152W        W 4149   3.103   2.829   1.940 -0.1732  0.1352 -0.0158
 3153W        W 4150   5.036   7.115   4.327  0.1207  0.0087 -0.1974
 3154W        W 4151   1.833   2.953   4.780 -0.3033 -0.1142 -0.1971
 3155W        W 4152   2.650   1.140   0.043 -0.0460 -0.0728 -0.0777
 3156W        W 4153   4.339   1.600   1.438  0.1745 -0.1330  0.0190
 3157W        W 4154   5.474   0.050   5.528 -0.2641 -0.0747  0.3146
 3158W        W 4155   2.693   2.901   2.313 -0.3061  0.0865  0.2398
 3159W        W 4156   7.378   5.115   7.172 -0.0811  0.0441 -0.0320
 3160W        W 4157   3.612   5.300   6.770  0.3175 -0.0827 -0.1211
 3161W        W 4158   2.816   1.980   3.080 -0.0292 -0.1975 -0.1397
 3162W        W 4159   7.453   0.702   2.920  0.0322 -0.2233  0.0755
 3163W        W 4160   2.657   2.788   6.943  0.0344 -0.0689  0.0996
 3164W        W 4161   5.665   2.311   7.290 -0.0790 -0.0038  0.0212
 3165W        W 4162   0.783   3.425   1.829  0.0258 -0.2554  0.1236
 3166W        W 4163   4.354   2.051   7.280  0.0303 -0.3586 -0.0878
 3167W        W 4164   2.951   2.516   4.623 -0.0163 -0.0654 -0.4646
 3168W        W 4165   3.489   1.188   1.108 -0.0453 -0.1886  0.2026
 3169W        W 4166   2.742   0.794   7.266 -0.0391 -0.3273  0.2718
 3170W        W 4167   7.309   6.429   2.495  0.1964  0.2419  0.0739
 3171W        W 4168   7.351   0.241   3.199  0.0982  0.0412  0.0442
 3172W        W 4169   2.757   4.982   5.924  0.1249 -0.0196  0.3978
 3173W        W 4170   7.110   5.333   2.269 -0.2038  0.0026 -0.0330
 3174W        W 4171   1.788   0.865   1.973 -0.2359 -0.2271 -0.0393
 3175W        W 4172   0.505   6.900   5.190  0.1359 -0.1644 -0.0811
 3176W        W 4173   6.118   3.370   2.423  0.0104  0.0704 -0.0742
 3177W        W 4174   6.640   3.839   5.485 -0.1114 -0.5551 -0.0672
 3178W        W 4175   5.017   2.618   1.867  0.1123 -0.0068 -0.4376
 3179W        W 4176   7.363   3.089   4.549 -0.3030  0.0511 -0.0677
 3180W        W 4177   6.254   2.455   4.731  0.1214  0.2340  0.2248
 3181W        W 4178   2.414   2.396   4.697 -0.0611  0.0358  0.0282
 3182W        W 4179   4.522   0.714   5.360 -0.0794 -0.2968  0.1131
 3183W        W 4180   0.086   6.682   2.705  0.0826 -0.0207 -0.0949
 3184W        W 4181   4.993   1.210   3.399 -0.2121 -0.1063  0.0864
 3185W        W 4182   0.042   1.465   5.872 -0.0553  0.1740  0.4510
 3186W        W 4183   2.377   6.340   4.650  0.0881  0.1331 -0.1601
 3187W        W 4184   4.740   0.196   6.065  0.2776  0.1172  0.1920
 3188W        W 4185   1.929   2.377   1.860  0.2479  0.1819  0.3316
 3189W        W 4186   5.008   3.758   2.681  0.0298  0.0959  0.3249
 3190W        W 4187   0.412   3.812   1.949 -0.2608  0.0418 -0.0690
 3191W        W 4188   3.194   3.639   1.849 -0.0892  0.0980  0.1084
   7.63548   7.63548   7.63548
