Martini system from ../2_Creating_coordinates/TYR-CYS-TYR_aa.pdb
 4222
    1TYR     BB    1   4.616   0.357   5.959  0.1197 -0.0631  0.2204
    1TYR    SC1    2   4.440   0.250   6.167  0.0194  0.2938  0.0863
    1TYR    SC2    3   4.228   0.386   6.265  0.0455  0.1728  0.3195
    1TYR    SC3    4   4.294   0.146   6.369 -0.1565 -0.1549 -0.2519
    2CYS     BB    5   4.595   0.682   5.840  0.0471  0.1612  0.4004
    2CYS    SC1    6   4.527   0.538   5.530  0.0264  0.0713 -0.0940
    3TYR     BB    7   4.280   0.772   5.909 -0.4061  0.1696  0.0529
    3TYR    SC1    8   4.157   0.977   5.693  0.2218  0.2118 -0.0505
    3TYR    SC2    9   4.147   1.210   5.556  0.0670  0.2790  0.0704
    3TYR    SC3   10   3.969   1.014   5.503  0.0667  0.2682  0.1107
    1TYR     BB   11   5.090   1.700   7.593 -0.1344 -0.0028  0.0519
    1TYR    SC1   12   4.986   1.981   7.494  0.0888 -0.1400 -0.2025
    1TYR    SC2   13   4.990   2.187   7.319 -0.3194  0.1303  0.0833
    1TYR    SC3   14   5.088   2.220   7.569 -0.0985 -0.1297  0.0364
    2CYS     BB   15   5.108   1.370   7.454  0.2494 -0.2074 -0.0234
    2CYS    SC1   16   4.906   1.173   7.352 -0.1295 -0.0924  0.0968
    3TYR     BB   17   5.265   1.199   7.658  0.0821 -0.2832  0.0403
    3TYR    SC1   18   5.535   1.260   7.840  0.0839 -0.0211  0.1486
    3TYR    SC2   19   5.777   1.197   7.739 -0.0193 -0.1756 -0.0089
    3TYR    SC3   20   5.758   1.370   7.946  0.2081  0.0226 -0.1470
    1TYR     BB   21   3.009   0.012   4.355  0.1317 -0.0819  0.1850
    1TYR    SC1   22   2.760   0.016   4.157 -0.0945 -0.1796  0.1209
    1TYR    SC2   23   2.507   0.109   4.176 -0.0417  0.0849 -0.3111
    1TYR    SC3   24   2.553  -0.157   4.171 -0.2688  0.0257  0.1406
    2CYS     BB   25   3.209   0.186   4.283 -0.4935 -0.3474  0.0192
    2CYS    SC1   26   3.518   0.212   4.346 -0.0264 -0.2285 -0.1165
    3TYR     BB   27   3.176   0.401   3.988 -0.2849  0.0525  0.0686
    3TYR    SC1   28   3.424   0.544   3.933 -0.1298  0.0085 -0.1366
    3TYR    SC2   29   3.651   0.629   4.051 -0.1342 -0.2608  0.0792
    3TYR    SC3   30   3.639   0.606   3.782  0.1018 -0.2665  0.0662
    1TYR     BB   31   1.842   3.956   3.477 -0.1152 -0.2008  0.1841
    1TYR    SC1   32   1.915   3.822   3.706  0.1534 -0.0674 -0.2609
    1TYR    SC2   33   2.023   3.693   3.918  0.0701 -0.0215 -0.1899
    1TYR    SC3   34   1.764   3.653   3.853 -0.0218  0.2753 -0.0309
    2CYS     BB   35   1.923   4.248   3.552  0.0620 -0.0237  0.1015
    2CYS    SC1   36   1.705   4.381   3.677 -0.0093 -0.0056 -0.1214
    3TYR     BB   37   2.212   4.499   3.657  0.2536  0.0248  0.1079
    3TYR    SC1   38   2.096   4.744   3.690  0.0640  0.0210  0.1312
    3TYR    SC2   39   2.037   4.984   3.799 -0.0864  0.0550 -0.0199
    3TYR    SC3   40   1.861   4.864   3.633 -0.0360 -0.1865  0.0957
    1TYR     BB   41   2.506   4.885   2.968  0.3094  0.0790  0.2959
    1TYR    SC1   42   2.215   4.930   2.838  0.0123 -0.1793  0.0213
    1TYR    SC2   43   1.972   4.824   2.785 -0.1187  0.2043 -0.1898
    1TYR    SC3   44   2.003   5.092   2.798  0.2247  0.1583  0.2079
    2CYS     BB   45   2.574   4.757   2.528 -0.1200  0.1340 -0.1043
    2CYS    SC1   46   2.515   5.069   2.464  0.3148  0.0296 -0.0365
    3TYR     BB   47   2.542   4.436   2.332  0.0532 -0.1400  0.0021
    3TYR    SC1   48   2.782   4.491   2.178  0.0265 -0.3201 -0.1430
    3TYR    SC2   49   2.964   4.565   1.993  0.2222 -0.1348  0.1139
    3TYR    SC3   50   3.036   4.400   2.194  0.1451  0.0406  0.2894
    1TYR     BB   51   5.831   1.136   7.282  0.0566  0.0922 -0.4948
    1TYR    SC1   52   5.628   0.987   7.151 -0.3127 -0.0342  0.1886
    1TYR    SC2   53   5.509   0.816   6.979  0.1531 -0.2735  0.0847
    1TYR    SC3   54   5.410   0.847   7.228 -0.3092 -0.2068 -0.0959
    2CYS     BB   55   6.118   0.969   7.239 -0.1090  0.0653 -0.1297
    2CYS    SC1   56   6.104   0.811   6.967  0.1391  0.1051 -0.1327
    3TYR     BB   57   6.263   0.865   7.415  0.1572 -0.1046 -0.1899
    3TYR    SC1   58   6.159   0.957   7.704  0.0707 -0.4982  0.0618
    3TYR    SC2   59   6.306   1.059   7.906 -0.3228 -0.1005  0.1662
    3TYR    SC3   60   6.138   0.853   7.952 -0.2502 -0.1549  0.1897
    1TYR     BB   61   4.014   3.903   3.815  0.0331  0.2453 -0.2978
    1TYR    SC1   62   4.063   4.226   3.878 -0.0313  0.1473  0.2042
    1TYR    SC2   63   4.059   4.496   3.879  0.0427  0.1489  0.1723
    1TYR    SC3   64   4.160   4.361   4.091  0.3229  0.1546  0.0484
    2CYS     BB   65   3.886   3.899   4.180 -0.0801  0.2690  0.0671
    2CYS    SC1   66   3.604   3.817   4.154 -0.0482  0.4028 -0.1379
    3TYR     BB   67   4.063   3.957   4.450  0.0879  0.0699 -0.0608
    3TYR    SC1   68   3.860   3.983   4.676  0.2256  0.1209  0.1179
    3TYR    SC2   69   3.638   3.936   4.823  0.0179  0.2327 -0.1489
    3TYR    SC3   70   3.763   4.174   4.840  0.2504  0.0979  0.1598
    1TYR     BB   71   2.130   0.775   3.653 -0.0205  0.2142  0.0014
    1TYR    SC1   72   2.110   0.616   3.929 -0.0378 -0.0340  0.1060
    1TYR    SC2   73   1.936   0.578   4.133  0.1080 -0.2169  0.1999
    1TYR    SC3   74   2.199   0.608   4.184  0.1301 -0.1343  0.0457
    2CYS     BB   75   2.331   0.817   3.419  0.0809  0.1412 -0.2321
    2CYS    SC1   76   2.273   0.606   3.200 -0.0827  0.3500  0.1021
    3TYR     BB   77   2.488   1.130   3.426 -0.1294 -0.0964 -0.0954
    3TYR    SC1   78   2.393   1.281   3.157 -0.0872 -0.0489 -0.1574
    3TYR    SC2   79   2.453   1.432   2.941  0.0999  0.2128  0.0680
    3TYR    SC3   80   2.204   1.439   3.046  0.2003  0.6944  0.3112
    1TYR     BB   81   3.016   7.334   3.380 -0.1343  0.1383 -0.0021
    1TYR    SC1   82   2.739   7.234   3.296  0.0261  0.2775 -0.0365
    1TYR    SC2   83   2.593   7.211   3.070  0.1164 -0.2197 -0.0590
    1TYR    SC3   84   2.469   7.230   3.310  0.0083 -0.4337 -0.0945
    2CYS     BB   85   3.236   7.295   3.112  0.1637  0.2399 -0.0912
    2CYS    SC1   86   3.027   7.341   2.859  0.0459 -0.2882 -0.1787
    3TYR     BB   87   3.457   7.152   3.231  0.0943 -0.2145 -0.0156
    3TYR    SC1   88   3.784   7.112   3.175  0.0102  0.4152  0.1146
    3TYR    SC2   89   4.053   7.104   3.205  0.0067  0.3101  0.1228
    3TYR    SC3   90   3.945   7.202   2.977  0.0717 -0.2581 -0.1754
    1TYR     BB   91   3.290   2.825   4.803  0.2084  0.0198 -0.0523
    1TYR    SC1   92   3.137   2.552   4.876 -0.2629  0.1709 -0.3262
    1TYR    SC2   93   2.964   2.347   4.845 -0.1302 -0.0044  0.0281
    1TYR    SC3   94   3.188   2.313   4.992 -0.1688  0.4311  0.2046
    2CYS     BB   95   3.408   2.976   4.538  0.4341  0.0549 -0.2919
    2CYS    SC1   96   3.232   3.233   4.450 -0.2014  0.2070 -0.0705
    3TYR     BB   97   3.646   2.993   4.355  0.0722 -0.0593 -0.0347
    3TYR    SC1   98   3.862   2.735   4.355  0.0278 -0.0677  0.0740
    3TYR    SC2   99   3.944   2.480   4.391  0.2331 -0.0367 -0.1426
    3TYR    SC3  100   4.092   2.684   4.488  0.2652  0.0107 -0.2875
    1TYR     BB  101   2.805   0.560   4.238  0.0864 -0.0160 -0.1194
    1TYR    SC1  102   3.075   0.679   4.365  0.1339  0.2896 -0.1359
    1TYR    SC2  103   3.215   0.831   4.538  0.2551 -0.0529  0.0815
    1TYR    SC3  104   3.328   0.752   4.306  0.1279  0.3233 -0.1197
    2CYS     BB  105   2.703   0.617   3.949 -0.3238  0.0015 -0.3648
    2CYS    SC1  106   2.581   0.845   3.844 -0.1801 -0.0399  0.3196
    3TYR     BB  107   2.669   0.364   3.798  0.2492 -0.0124 -0.0583
    3TYR    SC1  108   2.402   0.319   3.656  0.0201 -0.2287  0.0679
    3TYR    SC2  109   2.139   0.259   3.663  0.0234 -0.2501  0.0166
    3TYR    SC3  110   2.284   0.206   3.441  0.0127  0.0089 -0.0564
    1TYR     BB  111   6.453   1.155   4.928 -0.0391  0.0441 -0.1460
    1TYR    SC1  112   6.584   1.424   4.825  0.0815 -0.2827 -0.1826
    1TYR    SC2  113   6.717   1.658   4.821 -0.1499 -0.1295  0.2427
    1TYR    SC3  114   6.526   1.608   4.637 -0.0718 -0.0029  0.1246
    2CYS     BB  115   6.497   0.925   4.661 -0.3834  0.1107 -0.0953
    2CYS    SC1  116   6.527   0.628   4.704 -0.0216 -0.0460  0.1960
    3TYR     BB  117   6.651   1.093   4.448  0.2650  0.2166  0.2671
    3TYR    SC1  118   6.887   1.233   4.579 -0.2231 -0.1460 -0.0812
    3TYR    SC2  119   7.059   1.417   4.674 -0.3265 -0.0119 -0.1496
    3TYR    SC3  120   7.006   1.194   4.818 -0.2156  0.0202 -0.0570
    1TYR     BB  121   2.142   7.322   4.460  0.2836  0.1606 -0.1112
    1TYR    SC1  122   2.422   7.334   4.549  0.0159  0.4310 -0.0876
    1TYR    SC2  123   2.526   7.286   4.793  0.0942 -0.3099 -0.2369
    1TYR    SC3  124   2.651   7.455   4.624  0.4879 -0.3963 -0.0471
    2CYS     BB  125   2.254   7.066   4.142 -0.0782 -0.1321 -0.1736
    2CYS    SC1  126   2.033   7.155   3.980 -0.0743 -0.3216 -0.0933
    3TYR     BB  127   2.495   7.028   4.224  0.2335  0.1507  0.0531
    3TYR    SC1  128   2.755   7.042   4.354 -0.2148 -0.0840  0.2697
    3TYR    SC2  129   2.999   6.952   4.424  0.0464  0.1396 -0.2784
    3TYR    SC3  130   2.932   7.209   4.470 -0.1866  0.0263  0.0726
    1TYR     BB  131   2.680   5.896   3.748 -0.0693 -0.1102  0.0841
    1TYR    SC1  132   2.649   5.587   3.830 -0.3405  0.1064  0.2112
    1TYR    SC2  133   2.772   5.348   3.803  0.1644  0.3720 -0.0053
    1TYR    SC3  134   2.503   5.360   3.824  0.1284 -0.2092  0.0582
    2CYS     BB  135   2.747   5.937   3.461  0.1763  0.2255 -0.1289
    2CYS    SC1  136   2.625   6.023   3.220  0.1156  0.1309 -0.0114
    3TYR     BB  137   3.083   5.781   3.386  0.1226  0.0288 -0.1941
    3TYR    SC1  138   3.135   5.598   3.633  0.0856 -0.0127 -0.1053
    3TYR    SC2  139   3.134   5.643   3.899 -0.3479 -0.1098 -0.0806
    3TYR    SC3  140   3.220   5.406   3.803  0.6075  0.1957 -0.1090
    1TYR     BB  141   4.146   0.891   2.890 -0.0308 -0.0781 -0.0213
    1TYR    SC1  142   4.332   0.893   2.610 -0.0102 -0.2690 -0.0192
    1TYR    SC2  143   4.482   0.998   2.412 -0.1696  0.1661  0.0768
    1TYR    SC3  144   4.466   0.730   2.441  0.1039  0.0976 -0.2990
    2CYS     BB  145   4.216   0.722   3.042 -0.2224  0.1160 -0.0392
    2CYS    SC1  146   4.352   0.808   3.328  0.1671 -0.2319  0.0319
    3TYR     BB  147   4.302   0.406   2.953  0.2168  0.0006  0.3363
    3TYR    SC1  148   4.154   0.428   2.673 -0.1283 -0.1220 -0.1554
    3TYR    SC2  149   3.974   0.514   2.492 -0.3499  0.0004  0.1123
    3TYR    SC3  150   4.147   0.317   2.428 -0.4069  0.0545 -0.2332
    1TYR     BB  151   5.541   1.546   5.112  0.3383 -0.1324 -0.0143
    1TYR    SC1  152   5.366   1.684   4.900  0.1587 -0.0409 -0.0697
    1TYR    SC2  153   5.297   1.782   4.658  0.4139 -0.1907 -0.2091
    1TYR    SC3  154   5.151   1.584   4.771  0.0483  0.1553 -0.0431
    2CYS     BB  155   5.450   1.362   5.345 -0.0965 -0.1087 -0.1240
    2CYS    SC1  156   5.595   1.428   5.594 -0.0858 -0.1368 -0.0837
    3TYR     BB  157   5.447   1.016   5.448 -0.1054  0.1501  0.2573
    3TYR    SC1  158   5.190   0.966   5.552 -0.0450  0.0068 -0.0812
    3TYR    SC2  159   4.953   0.837   5.555  0.0725 -0.2207  0.3010
    3TYR    SC3  160   5.028   0.987   5.767  0.2007 -0.0077  0.1111
    1TYR     BB  161   2.368   6.711   3.816  0.0778  0.0189 -0.0222
    1TYR    SC1  162   2.065   6.597   3.859 -0.1527  0.0391  0.1489
    1TYR    SC2  163   1.969   6.348   3.901  0.0795 -0.1129 -0.1653
    1TYR    SC3  164   1.812   6.535   3.786 -0.1110 -0.0938  0.1122
    2CYS     BB  165   2.611   6.663   3.551  0.2138 -0.1427 -0.2032
    2CYS    SC1  166   2.467   6.758   3.313 -0.0782  0.1401  0.2907
    3TYR     BB  167   2.793   6.428   3.496  0.0875  0.3175 -0.1622
    3TYR    SC1  168   3.021   6.360   3.340  0.2255  0.4225  0.1578
    3TYR    SC2  169   3.104   6.193   3.144 -0.0200  0.4256  0.0460
    3TYR    SC3  170   3.279   6.364   3.259  0.1493  0.3562 -0.1013
    1TYR     BB  171   5.854   7.267   6.774 -0.2859 -0.0915 -0.1278
    1TYR    SC1  172   6.062   7.148   6.573  0.1221  0.0919  0.1378
    1TYR    SC2  173   6.158   7.247   6.341 -0.2139 -0.0485 -0.0712
    1TYR    SC3  174   6.139   6.980   6.376  0.2612 -0.0502  0.3090
    2CYS     BB  175   5.861   7.600   6.754 -0.2258 -0.1151  0.1163
    2CYS    SC1  176   5.792   7.659   6.475  0.1541 -0.2905 -0.1295
    3TYR     BB  177   6.244   7.571   6.695 -0.0902 -0.1087  0.0254
    3TYR    SC1  178   6.308   7.644   6.430  0.0262  0.0332  0.1127
    3TYR    SC2  179   6.353   7.641   6.164 -0.4650 -0.0449  0.0178
    3TYR    SC3  180   6.244   7.859   6.280 -0.0978  0.0550  0.1947
    1TYR     BB  181   3.526   1.378   2.311 -0.1402 -0.0936  0.4654
    1TYR    SC1  182   3.787   1.426   2.448 -0.1689  0.1101  0.1347
    1TYR    SC2  183   3.913   1.577   2.632  0.2955 -0.0434 -0.0399
    1TYR    SC3  184   3.888   1.311   2.670  0.1846 -0.0413 -0.0937
    2CYS     BB  185   3.344   1.321   2.642 -0.2384  0.1371  0.0719
    2CYS    SC1  186   3.157   1.101   2.548  0.3406 -0.0717 -0.2180
    3TYR     BB  187   3.413   1.545   2.780 -0.0874 -0.0140  0.2928
    3TYR    SC1  188   3.514   1.775   2.627  0.2111 -0.6109  0.0049
    3TYR    SC2  189   3.652   2.006   2.607 -0.2483 -0.3045  0.1564
    3TYR    SC3  190   3.624   1.847   2.391 -0.0888 -0.1231 -0.0026
    1TYR     BB  191   6.419   1.072   5.440 -0.3169  0.1969 -0.1741
    1TYR    SC1  192   6.685   0.854   5.359 -0.0246 -0.0735  0.1480
    1TYR    SC2  193   6.783   0.800   5.114 -0.3513  0.1386 -0.0384
    1TYR    SC3  194   6.931   0.746   5.333  0.0778  0.2310 -0.2903
    2CYS     BB  195   6.431   1.156   5.757 -0.1591 -0.0240  0.1354
    2CYS    SC1  196   6.591   0.901   5.832 -0.1972 -0.2464 -0.4369
    3TYR     BB  197   6.226   1.378   5.767 -0.1844  0.0071  0.0180
    3TYR    SC1  198   6.090   1.539   5.981 -0.0728  0.1302 -0.3491
    3TYR    SC2  199   5.828   1.581   6.033 -0.0579  0.3119 -0.4100
    3TYR    SC3  200   6.000   1.789   6.027  0.2195  0.1395  0.3020
    1TYR     BB  201   2.671   4.513   3.812 -0.3139  0.0006  0.3747
    1TYR    SC1  202   2.985   4.477   3.921  0.1506 -0.1165  0.0892
    1TYR    SC2  203   3.210   4.433   4.066  0.1943  0.0315  0.0683
    1TYR    SC3  204   3.228   4.523   3.812  0.1091  0.4110  0.1891
    2CYS     BB  205   2.533   4.649   4.019  0.0963  0.2646  0.1575
    2CYS    SC1  206   2.505   4.929   4.025 -0.4857 -0.2397 -0.0160
    3TYR     BB  207   2.344   4.519   4.187 -0.1005 -0.1156  0.0800
    3TYR    SC1  208   2.081   4.687   4.166 -0.0574  0.0663 -0.2325
    3TYR    SC2  209   1.883   4.811   4.301  0.2384  0.0622  0.2343
    3TYR    SC3  210   1.834   4.705   4.058 -0.3292  0.0490  0.3356
    1TYR     BB  211   2.540   6.151   4.684  0.1875 -0.0396  0.1450
    1TYR    SC1  212   2.296   6.339   4.706 -0.2557  0.2073 -0.1000
    1TYR    SC2  213   2.035   6.377   4.648 -0.3234  0.0589  0.0958
    1TYR    SC3  214   2.128   6.433   4.895 -0.1269  0.2910 -0.0255
    2CYS     BB  215   2.587   5.867   4.480  0.0773  0.2504 -0.0236
    2CYS    SC1  216   2.690   5.932   4.234  0.1619  0.2119  0.0930
    3TYR     BB  217   2.360   5.685   4.431  0.0612  0.0324  0.0760
    3TYR    SC1  218   2.190   5.433   4.248  0.2440 -0.1197 -0.1781
    3TYR    SC2  219   2.073   5.373   4.012  0.3391 -0.2507 -0.1936
    3TYR    SC3  220   2.109   5.181   4.198  0.4074 -0.1825 -0.1352
    1TYR     BB  221   3.255   5.399   4.322 -0.0316 -0.0573  0.2345
    1TYR    SC1  222   2.946   5.312   4.339  0.0124  0.1214  0.0043
    1TYR    SC2  223   2.692   5.333   4.249 -0.0384  0.2770  0.1772
    1TYR    SC3  224   2.743   5.341   4.515  0.1395  0.1493  0.1496
    2CYS     BB  225   3.405   5.151   4.445 -0.3334 -0.0955  0.1421
    2CYS    SC1  226   3.629   5.020   4.298  0.0216  0.0190 -0.0688
    3TYR     BB  227   3.551   5.155   4.777 -0.1797  0.0369 -0.0440
    3TYR    SC1  228   3.296   5.029   4.863 -0.0055  0.1031 -0.3401
    3TYR    SC2  229   3.126   4.857   4.984  0.2504  0.0044 -0.1069
    3TYR    SC3  230   3.038   5.017   4.785 -0.1533  0.0736  0.1139
    1TYR     BB  231   5.728   2.124   5.809  0.0360  0.2319  0.0144
    1TYR    SC1  232   5.714   2.154   6.107  0.4459  0.1670  0.0961
    1TYR    SC2  233   5.748   2.074   6.362  0.2138 -0.2436  0.0093
    1TYR    SC3  234   5.514   2.185   6.286  0.2638 -0.1697 -0.0375
    2CYS     BB  235   5.526   2.349   5.643  0.0102 -0.0441 -0.2084
    2CYS    SC1  236   5.374   2.494   5.829  0.1660 -0.1674 -0.0570
    3TYR     BB  237   5.582   2.380   5.382 -0.0306  0.0140  0.2276
    3TYR    SC1  238   5.374   2.512   5.206  0.2108 -0.0006 -0.1937
    3TYR    SC2  239   5.422   2.766   5.127 -0.1239  0.2267  0.2739
    3TYR    SC3  240   5.319   2.588   4.952  0.2863  0.3463 -0.1128
    1TYR     BB  241   4.520   1.778   6.451 -0.1689  0.3777 -0.2044
    1TYR    SC1  242   4.657   1.973   6.704 -0.0654 -0.0067  0.2081
    1TYR    SC2  243   4.805   2.092   6.895  0.0105  0.2558 -0.0059
    1TYR    SC3  244   4.563   2.191   6.831 -0.1057  0.0447  0.0919
    2CYS     BB  245   4.614   1.514   6.489 -0.2087  0.1272  0.0639
    2CYS    SC1  246   4.408   1.343   6.493  0.6292 -0.0929 -0.1178
    3TYR     BB  247   4.877   1.527   6.642 -0.2123  0.1574 -0.4048
    3TYR    SC1  248   4.902   1.653   6.912  0.0032 -0.2856  0.3799
    3TYR    SC2  249   4.830   1.684   7.170 -0.2322  0.3936  0.2586
    3TYR    SC3  250   5.074   1.765   7.087 -0.0769 -0.0119  0.2897
    1TYR     BB  251   3.233   6.239   3.768 -0.2057  0.2908  0.3679
    1TYR    SC1  252   3.490   6.413   3.930 -0.0785  0.3677 -0.0158
    1TYR    SC2  253   3.668   6.391   4.132  0.1212  0.1799 -0.2060
    1TYR    SC3  254   3.686   6.597   3.959 -0.0008  0.2962 -0.0837
    2CYS     BB  255   2.994   6.336   3.990 -0.2829 -0.1471  0.2226
    2CYS    SC1  256   2.868   6.609   3.995  0.1380 -0.0609  0.1276
    3TYR     BB  257   3.144   6.367   4.263  0.0610  0.2772 -0.1038
    3TYR    SC1  258   3.260   6.626   4.279  0.1623 -0.1175 -0.0149
    3TYR    SC2  259   3.477   6.768   4.354  0.1424 -0.0107 -0.1549
    3TYR    SC3  260   3.334   6.844   4.138 -0.1277  0.0130  0.0257
    1TYR     BB  261   3.679   0.574   2.979  0.2702 -0.0112 -0.3062
    1TYR    SC1  262   3.599   0.404   2.741 -0.0463 -0.0686 -0.0451
    1TYR    SC2  263   3.423   0.440   2.539  0.0931  0.5267 -0.0848
    1TYR    SC3  264   3.621   0.258   2.515 -0.4277 -0.0861 -0.0797
    2CYS     BB  265   3.618   0.866   2.907  0.2180  0.2497  0.2544
    2CYS    SC1  266   3.600   0.914   2.597  0.0497 -0.1649  0.0477
    3TYR     BB  267   3.582   1.181   3.078  0.1648 -0.3655 -0.0187
    3TYR    SC1  268   3.914   1.295   3.108  0.1481 -0.1223 -0.1651
    3TYR    SC2  269   4.124   1.464   3.089  0.1999 -0.1504  0.0972
    3TYR    SC3  270   4.134   1.255   3.260 -0.0615 -0.1233  0.1517
    1TYR     BB  271   4.959   7.618   6.685  0.1064  0.0130  0.1477
    1TYR    SC1  272   4.765   7.479   6.475 -0.1476 -0.1386  0.3033
    1TYR    SC2  273   4.561   7.482   6.298 -0.0768 -0.2748  0.2182
    1TYR    SC3  274   4.601   7.265   6.454 -0.2544 -0.0846  0.5413
    2CYS     BB  275   4.941   7.530   7.039  0.2207 -0.1051  0.1968
    2CYS    SC1  276   4.968   7.810   7.148 -0.1675  0.1046  0.1481
    3TYR     BB  277   4.866   7.208   7.087  0.1212  0.0745  0.0963
    3TYR    SC1  278   4.934   7.082   6.816 -0.2380  0.0951 -0.1512
    3TYR    SC2  279   5.041   7.105   6.569 -0.0945 -0.1712 -0.1184
    3TYR    SC3  280   4.889   6.891   6.631 -0.0724 -0.1412  0.0457
    1TYR     BB  281   2.732   4.501   4.983  0.2361 -0.1458  0.0051
    1TYR    SC1  282   2.574   4.420   4.787  0.2772  0.5410 -0.4823
    1TYR    SC2  283   2.337   4.480   4.671 -0.2632  0.0084  0.2285
    1TYR    SC3  284   2.452   4.240   4.626 -0.0669  0.1043  0.2051
    2CYS     BB  285   2.562   4.863   4.986 -0.0681  0.1719  0.0129
    2CYS    SC1  286   2.275   4.824   5.068 -0.3210  0.0325  0.1955
    3TYR     BB  287   2.608   5.242   5.073 -0.0902  0.1362 -0.1959
    3TYR    SC1  288   2.911   5.350   5.017  0.0425 -0.0762  0.0155
    3TYR    SC2  289   3.043   5.473   4.817 -0.1049 -0.0322 -0.0570
    3TYR    SC3  290   3.164   5.435   5.055  0.1701 -0.3271 -0.2335
    1TYR     BB  291   5.994   0.502   4.720 -0.0639  0.1092  0.3643
    1TYR    SC1  292   5.679   0.494   4.790 -0.2674 -0.3251  0.0468
    1TYR    SC2  293   5.430   0.394   4.817 -0.3905  0.0098  0.2203
    1TYR    SC3  294   5.569   0.471   5.036 -0.1990 -0.0197  0.1116
    2CYS     BB  295   6.086   0.741   4.790  0.1334 -0.1777 -0.2263
    2CYS    SC1  296   6.247   0.690   5.084 -0.1159  0.3946 -0.1744
    3TYR     BB  297   5.930   1.086   4.754 -0.1511  0.1004 -0.0151
    3TYR    SC1  298   5.659   1.071   4.883  0.1081  0.0984  0.2864
    3TYR    SC2  299   5.404   1.155   4.862  0.1203  0.0850  0.0613
    3TYR    SC3  300   5.459   0.891   4.879  0.1234  0.0826  0.0169
    1TYR     BB  301   5.094   7.451   5.536 -0.0368 -0.1780 -0.0034
    1TYR    SC1  302   5.402   7.597   5.490  0.2727 -0.4088  0.1446
    1TYR    SC2  303   5.623   7.751   5.506  0.2868 -0.4331  0.1872
    1TYR    SC3  304   5.469   7.758   5.284 -0.0297  0.0722  0.4004
    2CYS     BB  305   4.905   7.644   5.348 -0.0977  0.1207 -0.0546
    2CYS    SC1  306   5.032   7.588   5.037 -0.1551 -0.0761  0.1548
    3TYR     BB  307   4.579   7.661   5.546 -0.0880 -0.0426 -0.0734
    3TYR    SC1  308   4.539   7.414   5.648 -0.1344 -0.0365  0.0516
    3TYR    SC2  309   4.716   7.210   5.648  0.2487  0.2782 -0.1870
    3TYR    SC3  310   4.558   7.251   5.863  0.3785 -0.0807 -0.0124
    1TYR     BB  311   3.815   1.955   3.817  0.1073  0.0364  0.1086
    1TYR    SC1  312   3.993   1.911   4.033  0.1169  0.2885 -0.0478
    1TYR    SC2  313   4.164   1.837   4.229 -0.1705  0.0007  0.1052
    1TYR    SC3  314   4.142   2.097   4.161  0.2858  0.0513  0.1131
    2CYS     BB  315   3.853   1.871   3.543 -0.3617  0.2400  0.0448
    2CYS    SC1  316   4.042   2.047   3.390 -0.0963 -0.0209 -0.0214
    3TYR     BB  317   3.774   1.589   3.488 -0.1199  0.0392  0.1382
    3TYR    SC1  318   3.933   1.406   3.641 -0.1240 -0.1316  0.1976
    3TYR    SC2  319   3.995   1.341   3.895  0.3223  0.0661  0.1503
    3TYR    SC3  320   4.165   1.280   3.694  0.1587  0.2554 -0.0516
    1TYR     BB  321   6.264   0.608   5.524 -0.1216 -0.0851 -0.0541
    1TYR    SC1  322   5.959   0.574   5.546  0.0272  0.0381  0.4101
    1TYR    SC2  323   5.802   0.441   5.721 -0.2853  0.0234  0.1320
    1TYR    SC3  324   5.708   0.502   5.475  0.1908 -0.0887 -0.0914
    2CYS     BB  325   6.616   0.451   5.632  0.1204 -0.0316  0.3584
    2CYS    SC1  326   6.554   0.357   5.907 -0.0514 -0.0476  0.1563
    3TYR     BB  327   6.919   0.304   5.553  0.1921 -0.4556 -0.0366
    3TYR    SC1  328   7.178   0.495   5.594 -0.3631  0.4744  0.2984
    3TYR    SC2  329   7.393   0.533   5.435 -0.1349 -0.4048  0.3336
    3TYR    SC3  330   7.391   0.634   5.686 -0.0939  0.2030  0.1093
    1TYR     BB  331   3.251   4.673   4.459 -0.2030  0.3801 -0.1266
    1TYR    SC1  332   3.378   4.631   4.721 -0.3090 -0.4368 -0.0108
    1TYR    SC2  333   3.611   4.618   4.856 -0.1398  0.3178 -0.1700
    1TYR    SC3  334   3.399   4.471   4.938  0.2469 -0.0470  0.2517
    2CYS     BB  335   2.901   4.615   4.468 -0.2728 -0.1172 -0.0386
    2CYS    SC1  336   2.850   4.356   4.370  0.0601  0.0380  0.0021
    3TYR     BB  337   2.677   4.832   4.501  0.3869 -0.0015 -0.0032
    3TYR    SC1  338   2.399   5.006   4.525 -0.0465 -0.2152  0.0590
    3TYR    SC2  339   2.140   5.007   4.600 -0.1003  0.1018 -0.1065
    3TYR    SC3  340   2.297   5.219   4.656  0.0989 -0.0448 -0.0969
    1TYR     BB  341   7.453   1.141   6.928 -0.2932 -0.3055  0.1688
    1TYR    SC1  342   7.564   1.182   6.653 -0.0955  0.0677 -0.2258
    1TYR    SC2  343   7.525   1.394   6.490  0.0455  0.2185 -0.0681
    1TYR    SC3  344   7.653   1.175   6.398  0.0382  0.2635 -0.1876
    2CYS     BB  345   7.331   0.853   6.943 -0.1542 -0.4738 -0.1722
    2CYS    SC1  346   7.414   0.693   6.689 -0.1022  0.0090 -0.0085
    3TYR     BB  347   7.090   0.933   7.219  0.1344  0.1519 -0.2976
    3TYR    SC1  348   7.217   1.146   7.352  0.0306  0.0920  0.1788
    3TYR    SC2  349   7.111   1.311   7.538  0.3065  0.2193  0.2306
    3TYR    SC3  350   7.378   1.306   7.499  0.2745  0.0137  0.0055
    1TYR     BB  351   3.277   3.466   2.556  0.0209  0.0814 -0.3324
    1TYR    SC1  352   3.243   3.695   2.345 -0.1750  0.0276  0.0463
    1TYR    SC2  353   3.124   3.720   2.104 -0.1334  0.0034  0.0232
    1TYR    SC3  354   3.318   3.892   2.176  0.0033 -0.1175 -0.0486
    2CYS     BB  355   3.343   3.550   2.937 -0.1460 -0.1872  0.0934
    2CYS    SC1  356   3.641   3.535   2.970  0.0059 -0.0807  0.1743
    3TYR     BB  357   3.174   3.661   3.109  0.2316  0.2895 -0.1385
    3TYR    SC1  358   3.333   3.737   3.394 -0.0935 -0.1635  0.0936
    3TYR    SC2  359   3.357   3.556   3.593  0.2841 -0.1783  0.0429
    3TYR    SC3  360   3.497   3.787   3.603 -0.2123  0.1380  0.1216
    1TYR     BB  361   6.412   1.815   7.056  0.5966 -0.6603 -0.3901
    1TYR    SC1  362   6.414   1.993   6.841 -0.1334  0.0226 -0.1902
    1TYR    SC2  363   6.543   2.104   6.631 -0.0107  0.2995  0.0237
    1TYR    SC3  364   6.460   2.259   6.836  0.2267 -0.0086  0.3695
    2CYS     BB  365   6.191   1.858   7.336 -0.1156  0.1695 -0.1457
    2CYS    SC1  366   5.985   1.631   7.231  0.2800 -0.1246 -0.0945
    3TYR     BB  367   6.050   2.065   7.431 -0.1132 -0.2707 -0.2405
    3TYR    SC1  368   5.714   2.039   7.395  0.2168  0.1606  0.2603
    3TYR    SC2  369   5.524   2.195   7.506  0.3899  0.7792 -0.2325
    3TYR    SC3  370   5.468   2.050   7.285  0.2803  0.2432  0.1221
    1TYR     BB  371   5.882   1.031   5.772 -0.2637 -0.2314  0.1070
    1TYR    SC1  372   5.926   1.102   5.475 -0.3292  0.0940 -0.0760
    1TYR    SC2  373   5.902   0.975   5.238 -0.0875 -0.1052 -0.0001
    1TYR    SC3  374   5.995   1.228   5.247  0.1309 -0.1786 -0.1049
    2CYS     BB  375   5.952   0.906   6.074  0.0697  0.0192  0.2935
    2CYS    SC1  376   6.095   1.105   6.241  0.2243 -0.4539  0.1077
    3TYR     BB  377   6.182   0.685   6.069 -0.3929 -0.0745  0.3445
    3TYR    SC1  378   6.418   0.770   6.285  0.0318 -0.0455 -0.0802
    3TYR    SC2  379   6.617   0.916   6.395 -0.1260  0.2703 -0.1965
    3TYR    SC3  380   6.398   0.853   6.541  0.0091  0.0072 -0.0988
    1TYR     BB  381   5.573   1.882   6.831 -0.0220 -0.1446 -0.1103
    1TYR    SC1  382   5.808   2.105   6.863  0.0278  0.2550  0.0613
    1TYR    SC2  383   5.880   2.357   6.798  0.2922  0.1400 -0.1146
    1TYR    SC3  384   6.038   2.209   6.960  0.3394 -0.0396 -0.3198
    2CYS     BB  385   5.341   2.004   6.761  0.3925 -0.1681  0.1287
    2CYS    SC1  386   5.153   1.968   6.526  0.1309  0.3723  0.1319
    3TYR     BB  387   5.357   2.322   6.839  0.0296  0.0309  0.2188
    3TYR    SC1  388   5.305   2.507   6.547  0.3876 -0.0855  0.1554
    3TYR    SC2  389   5.264   2.592   6.294 -0.1916 -0.0071  0.2583
    3TYR    SC3  390   5.372   2.759   6.477  0.0127  0.0135  0.1220
    1TYR     BB  391   6.135   0.012   7.186  0.1739 -0.2126 -0.0321
    1TYR    SC1  392   5.980  -0.173   7.355  0.0336  0.1518  0.2896
    1TYR    SC2  393   5.831  -0.399   7.342  0.4093 -0.0945 -0.0566
    1TYR    SC3  394   5.793  -0.223   7.543 -0.0314 -0.3614  0.1108
    2CYS     BB  395   6.161   0.278   7.185 -0.1913  0.0996 -0.0044
    2CYS    SC1  396   6.402   0.478   7.200  0.0884 -0.1229  0.1844
    3TYR     BB  397   5.901   0.462   7.138 -0.2394 -0.0159 -0.2179
    3TYR    SC1  398   5.655   0.358   7.233  0.0267 -0.2471 -0.0782
    3TYR    SC2  399   5.472   0.161   7.229 -0.0715 -0.1728  0.2808
    3TYR    SC3  400   5.412   0.398   7.344  0.1580 -0.0494  0.1533
    1TYR     BB  401   7.091   7.353   5.858  0.2943  0.0958 -0.0447
    1TYR    SC1  402   7.226   7.293   6.171 -0.2086 -0.2546  0.3687
    1TYR    SC2  403   7.351   7.249   6.406  0.3086 -0.0436  0.1525
    1TYR    SC3  404   7.346   7.497   6.301 -0.1886 -0.0733  0.0765
    2CYS     BB  405   6.880   7.589   5.871 -0.0092  0.1788 -0.1711
    2CYS    SC1  406   6.871   7.695   6.143 -0.1176  0.0180 -0.0231
    3TYR     BB  407   6.651   7.518   5.665  0.0946  0.1444 -0.0081
    3TYR    SC1  408   6.749   7.552   5.345  0.3699 -0.0275  0.1214
    3TYR    SC2  409   6.713   7.485   5.086  0.0100  0.3397  0.0656
    3TYR    SC3  410   6.959   7.471   5.195  0.1151 -0.1244 -0.1981
    1TYR     BB  411   1.802   5.416   3.600  0.0714 -0.0407  0.3751
    1TYR    SC1  412   1.663   5.234   3.431 -0.1009  0.1768 -0.0402
    1TYR    SC2  413   1.621   5.119   3.190 -0.2125  0.1712 -0.0187
    1TYR    SC3  414   1.455   5.066   3.397 -0.0429  0.0756  0.0959
    2CYS     BB  415   2.153   5.341   3.437  0.3299  0.0624  0.1486
    2CYS    SC1  416   2.139   5.082   3.315  0.0194 -0.1251  0.1913
    3TYR     BB  417   2.250   5.617   3.473 -0.2939 -0.3916  0.0853
    3TYR    SC1  418   2.163   5.779   3.723  0.0973  0.0255  0.0943
    3TYR    SC2  419   2.241   5.850   3.972  0.0499  0.1320  0.0795
    3TYR    SC3  420   1.992   5.910   3.887  0.0344  0.0126  0.0393
    1TYR     BB  421   4.899   1.019   6.692  0.0973 -0.1164 -0.0344
    1TYR    SC1  422   4.655   0.999   6.864  0.2650 -0.1826 -0.0103
    1TYR    SC2  423   4.537   1.193   7.010  0.1538 -0.1611 -0.1256
    1TYR    SC3  424   4.388   0.994   6.905  0.2126 -0.1121 -0.3075
    2CYS     BB  425   4.776   0.937   6.372  0.1267 -0.1360 -0.2584
    2CYS    SC1  426   4.786   1.176   6.190  0.0333  0.2829  0.1463
    3TYR     BB  427   4.550   0.763   6.337  0.2366  0.2975 -0.3159
    3TYR    SC1  428   4.283   0.818   6.506  0.1177 -0.0006  0.2340
    3TYR    SC2  429   4.065   0.965   6.566  0.1342  0.1587 -0.0741
    3TYR    SC3  430   4.077   0.705   6.639 -0.1186  0.1713  0.0241
    1TYR     BB  431   3.205   1.951   3.012 -0.1074  0.0515  0.1364
    1TYR    SC1  432   3.145   1.996   2.739 -0.0215  0.0767  0.1259
    1TYR    SC2  433   3.167   2.084   2.485  0.2563 -0.1564  0.0628
    1TYR    SC3  434   3.042   1.850   2.536 -0.1734  0.0880  0.1931
    2CYS     BB  435   3.472   2.070   3.124 -0.0685 -0.1333 -0.0761
    2CYS    SC1  436   3.686   1.867   3.044 -0.0874 -0.2840 -0.4313
    3TYR     BB  437   3.569   2.299   3.344 -0.1943 -0.0136  0.2111
    3TYR    SC1  438   3.807   2.434   3.174  0.2120 -0.3446  0.0389
    3TYR    SC2  439   3.955   2.633   3.067 -0.0660 -0.1378  0.0231
    3TYR    SC3  440   3.986   2.379   2.979  0.2564 -0.0986  0.0058
    1TYR     BB  441   3.352   1.980   4.680 -0.2359 -0.1689  0.1141
    1TYR    SC1  442   3.249   1.724   4.579 -0.0072  0.2211  0.1499
    1TYR    SC2  443   3.057   1.551   4.499  0.1319  0.1677 -0.0817
    1TYR    SC3  444   3.283   1.579   4.353  0.1708  0.4495  0.0240
    2CYS     BB  445   3.626   2.198   4.799  0.0300  0.0796  0.1053
    2CYS    SC1  446   3.913   2.078   4.762  0.1072 -0.2634 -0.1807
    3TYR     BB  447   3.608   2.445   4.727 -0.1257 -0.2541  0.0187
    3TYR    SC1  448   3.764   2.735   4.820 -0.2043 -0.0055  0.7867
    3TYR    SC2  449   4.000   2.860   4.863  0.0416  0.0623 -0.3659
    3TYR    SC3  450   3.770   3.000   4.875  0.1039  0.1425  0.1644
    1TYR     BB  451   2.929   5.688   2.937  0.0460 -0.3600 -0.0724
    1TYR    SC1  452   2.749   5.666   2.694 -0.0645  0.3653 -0.1590
    1TYR    SC2  453   2.526   5.782   2.595 -0.3748 -0.1589 -0.1216
    1TYR    SC3  454   2.594   5.532   2.518 -0.0315 -0.1732  0.1905
    2CYS     BB  455   3.060   5.351   2.929 -0.0627  0.4716  0.2065
    2CYS    SC1  456   2.867   5.176   2.786  0.1980 -0.2186  0.0751
    3TYR     BB  457   3.220   5.290   3.147 -0.0322 -0.2113 -0.0461
    3TYR    SC1  458   3.497   5.505   3.111  0.0269 -0.3109 -0.4370
    3TYR    SC2  459   3.717   5.619   3.004  0.0262  0.0315 -0.0996
    3TYR    SC3  460   3.481   5.749   2.998 -0.0100 -0.0154  0.1599
    1TYR     BB  461   3.491   1.577   3.908 -0.1318 -0.4743  0.2745
    1TYR    SC1  462   3.634   1.626   4.167 -0.1505 -0.1893 -0.0016
    1TYR    SC2  463   3.743   1.728   4.392 -0.0960  0.2237 -0.2035
    1TYR    SC3  464   3.839   1.498   4.287 -0.0145  0.1135  0.1000
    2CYS     BB  465   3.444   1.289   3.874  0.1276 -0.2244 -0.0898
    2CYS    SC1  466   3.529   1.103   4.099 -0.2823  0.0459  0.2183
    3TYR     BB  467   3.455   1.163   3.571  0.1420  0.2623 -0.0129
    3TYR    SC1  468   3.737   1.042   3.538  0.2457 -0.0065  0.1728
    3TYR    SC2  469   3.951   0.900   3.622  0.2879 -0.1613 -0.1726
    3TYR    SC3  470   3.840   0.847   3.382 -0.1517 -0.0930  0.0036
    1TYR     BB  471   6.615   1.577   6.646 -0.1908 -0.0929  0.0870
    1TYR    SC1  472   6.405   1.420   6.717 -0.1826  0.3858 -0.1376
    1TYR    SC2  473   6.234   1.211   6.717  0.2602 -0.0157  0.4361
    1TYR    SC3  474   6.161   1.445   6.830 -0.0744 -0.0019  0.2110
    2CYS     BB  475   6.916   1.417   6.637  0.0188  0.2819 -0.0470
    2CYS    SC1  476   6.961   1.221   6.863 -0.1443 -0.0108  0.3122
    3TYR     BB  477   7.136   1.644   6.684  0.1737 -0.0827 -0.0789
    3TYR    SC1  478   7.318   1.771   6.519 -0.3027 -0.0921 -0.1243
    3TYR    SC2  479   7.529   1.835   6.362 -0.4036  0.1235 -0.1764
    3TYR    SC3  480   7.356   2.027   6.442 -0.2318  0.0652  0.3884
    1TYR     BB  481   2.705   2.517   4.187  0.0346  0.1825  0.4569
    1TYR    SC1  482   2.879   2.779   4.113  0.0435 -0.1454  0.2826
    1TYR    SC2  483   3.140   2.845   4.087 -0.0422  0.0221 -0.3779
    1TYR    SC3  484   2.954   3.039   4.117 -0.1136 -0.0874 -0.0700
    2CYS     BB  485   2.929   2.349   4.388  0.0948 -0.0074  0.1656
    2CYS    SC1  486   2.930   2.042   4.430 -0.1121 -0.1717 -0.1076
    3TYR     BB  487   3.234   2.470   4.397  0.0021  0.2353 -0.2548
    3TYR    SC1  488   3.390   2.257   4.292 -0.2066  0.0074  0.0967
    3TYR    SC2  489   3.370   2.026   4.153  0.0027  0.0191  0.0431
    3TYR    SC3  490   3.613   2.122   4.222 -0.0466  0.4550 -0.3277
    1TYR     BB  491   2.346   3.337   4.686  0.0393  0.3345  0.0145
    1TYR    SC1  492   2.173   3.092   4.676  0.3156 -0.2299 -0.0369
    1TYR    SC2  493   1.921   3.032   4.753  0.2371  0.3864  0.2647
    1TYR    SC3  494   2.127   2.876   4.831  0.0005  0.1515  0.4397
    2CYS     BB  495   2.190   3.558   4.689 -0.0089  0.0284 -0.1594
    2CYS    SC1  496   1.916   3.537   4.859 -0.2432 -0.0884  0.0390
    3TYR     BB  497   2.271   3.754   4.368  0.0085  0.0559  0.2632
    3TYR    SC1  498   2.157   4.030   4.273 -0.1796 -0.0858  0.2782
    3TYR    SC2  499   1.968   4.206   4.352 -0.0684  0.0929  0.1555
    3TYR    SC3  500   2.005   4.157   4.089  0.0687  0.0748  0.1773
    1TYR     BB  501   2.980   1.744   3.986 -0.0112 -0.1128  0.0014
    1TYR    SC1  502   2.964   1.500   3.801 -0.0087  0.2512 -0.0459
    1TYR    SC2  503   2.783   1.299   3.785 -0.1306  0.3471  0.0925
    1TYR    SC3  504   2.957   1.341   3.583  0.0349 -0.0261  0.1480
    2CYS     BB  505   2.895   2.078   3.917  0.0664  0.1737 -0.3215
    2CYS    SC1  506   2.628   2.095   3.846  0.0613 -0.1966  0.3523
    3TYR     BB  507   3.053   2.333   3.875 -0.0319 -0.0773 -0.0408
    3TYR    SC1  508   3.112   2.408   3.587  0.0351 -0.1217 -0.1715
    3TYR    SC2  509   3.085   2.376   3.320 -0.1686 -0.2381 -0.1398
    3TYR    SC3  510   3.152   2.617   3.422 -0.1174 -0.1863 -0.2935
    1TYR     BB  511   3.882   0.095   2.976  0.0004  0.1704  0.2423
    1TYR    SC1  512   3.900   0.284   3.230  0.0058  0.0624 -0.0622
    1TYR    SC2  513   3.863   0.431   3.453  0.0491  0.2067 -0.1491
    1TYR    SC3  514   4.073   0.263   3.436 -0.2333 -0.1946  0.1215
    2CYS     BB  515   3.557  -0.008   2.994  0.0227 -0.1716 -0.0808
    2CYS    SC1  516   3.581  -0.231   2.779  0.2379  0.1466  0.2399
    3TYR     BB  517   3.266   0.104   3.005 -0.0176 -0.0650 -0.0162
    3TYR    SC1  518   3.171   0.133   2.721 -0.0217 -0.0262  0.0329
    3TYR    SC2  519   2.986   0.275   2.585  0.1161  0.2025  0.0762
    3TYR    SC3  520   3.007   0.009   2.546 -0.1805  0.1812  0.0293
    1TYR     BB  521   6.054   1.582   4.913 -0.0391 -0.0895 -0.1013
    1TYR    SC1  522   6.104   1.547   4.597 -0.1380  0.5190  0.0017
    1TYR    SC2  523   6.080   1.601   4.334 -0.2099 -0.1007 -0.1366
    1TYR    SC3  524   6.183   1.365   4.415  0.0563  0.1787  0.4048
    2CYS     BB  525   6.327   1.712   5.114  0.3553 -0.0337 -0.0072
    2CYS    SC1  526   6.354   1.937   4.971 -0.3759 -0.1030  0.0015
    3TYR     BB  527   6.369   1.536   5.312 -0.2765  0.0129 -0.1696
    3TYR    SC1  528   6.664   1.434   5.310  0.0208 -0.2564  0.7325
    3TYR    SC2  529   6.898   1.460   5.177 -0.2341  0.0592  0.3109
    3TYR    SC3  530   6.861   1.253   5.348  0.1454 -0.3264 -0.0433
    1TYR     BB  531   4.403   2.125   3.708  0.1735  0.1522 -0.2047
    1TYR    SC1  532   4.211   2.350   3.733 -0.0290 -0.2654 -0.0980
    1TYR    SC2  533   4.005   2.487   3.626  0.0791  0.1515  0.1998
    1TYR    SC3  534   4.002   2.420   3.888  0.1446 -0.2032  0.1152
    2CYS     BB  535   4.351   1.781   3.753 -0.0684  0.4157  0.2202
    2CYS    SC1  536   4.381   1.675   3.430 -0.4094 -0.0375  0.2300
    3TYR     BB  537   4.591   1.545   3.872 -0.1287  0.0351  0.1996
    3TYR    SC1  538   4.634   1.301   3.719 -0.1490  0.2257 -0.3500
    3TYR    SC2  539   4.623   1.199   3.469  0.0556 -0.0571 -0.2498
    3TYR    SC3  540   4.803   1.103   3.647 -0.3839 -0.1873  0.1497
    1TYR     BB  541   3.722   4.571   2.853  0.1512 -0.0739  0.1906
    1TYR    SC1  542   3.752   4.892   2.898 -0.1302  0.0339  0.0395
    1TYR    SC2  543   3.760   5.057   3.112  0.1679 -0.0195  0.0738
    1TYR    SC3  544   3.669   5.148   2.874 -0.2686  0.0109  0.2417
    2CYS     BB  545   3.692   4.334   3.122 -0.1186  0.0553  0.2002
    2CYS    SC1  546   3.906   4.402   3.312 -0.0515  0.0076 -0.0478
    3TYR     BB  547   3.655   4.016   3.111  0.2431 -0.0998 -0.0431
    3TYR    SC1  548   3.926   3.873   3.194  0.0205  0.3130 -0.0257
    3TYR    SC2  549   4.059   3.646   3.255 -0.0343  0.1572 -0.4436
    3TYR    SC3  550   4.159   3.885   3.330  0.1501  0.0115 -0.2074
    1TYR     BB  551   6.821   1.582   7.135 -0.0920 -0.0988  0.1891
    1TYR    SC1  552   7.116   1.656   7.191 -0.1714  0.3685  0.0695
    1TYR    SC2  553   7.366   1.569   7.139 -0.3265 -0.0652  0.0033
    1TYR    SC3  554   7.322   1.733   7.348 -0.0134 -0.1349  0.1321
    2CYS     BB  555   6.696   1.699   7.486 -0.3446  0.3552 -0.0275
    2CYS    SC1  556   6.871   1.921   7.558 -0.1247 -0.2023 -0.0005
    3TYR     BB  557   6.683   1.444   7.751 -0.0006  0.0515  0.1864
    3TYR    SC1  558   6.419   1.459   7.800 -0.3671 -0.1698  0.0410
    3TYR    SC2  559   6.230   1.520   7.983 -0.1387  0.5249  0.0845
    3TYR    SC3  560   6.165   1.507   7.721 -0.4150 -0.2258  0.1579
    1TYR     BB  561   4.166   2.917   3.474 -0.0719 -0.1421  0.2354
    1TYR    SC1  562   4.299   3.213   3.524  0.0859 -0.0425 -0.3448
    1TYR    SC2  563   4.423   3.414   3.393  0.0810  0.0389 -0.2266
    1TYR    SC3  564   4.268   3.468   3.607  0.2056 -0.1055 -0.0973
    2CYS     BB  565   3.770   2.969   3.391  0.0968  0.0736  0.0359
    2CYS    SC1  566   3.759   3.265   3.422 -0.3147  0.0660  0.1954
    3TYR     BB  567   3.600   2.793   3.497 -0.2589  0.0914 -0.1451
    3TYR    SC1  568   3.539   2.636   3.754  0.1078 -0.0006  0.2001
    3TYR    SC2  569   3.540   2.640   4.024 -0.2410 -0.0101  0.2071
    3TYR    SC3  570   3.521   2.405   3.893  0.1153 -0.0227  0.1646
    1TYR     BB  571   3.467   4.726   3.377  0.0576 -0.2346 -0.3084
    1TYR    SC1  572   3.315   4.750   3.151  0.1318  0.0925 -0.0415
    1TYR    SC2  573   3.065   4.822   3.078  0.1343  0.0066 -0.1379
    1TYR    SC3  574   3.271   4.855   2.907  0.1635 -0.0681 -0.1179
    2CYS     BB  575   3.573   4.915   3.624  0.2646  0.2714 -0.2877
    2CYS    SC1  576   3.529   5.174   3.521  0.2620 -0.0234 -0.0044
    3TYR     BB  577   3.656   4.759   3.875  0.0515  0.1726 -0.1987
    3TYR    SC1  578   3.626   4.448   3.756 -0.0486  0.0659  0.1782
    3TYR    SC2  579   3.589   4.252   3.938 -0.0197 -0.2354 -0.1273
    3TYR    SC3  580   3.589   4.193   3.675 -0.1869  0.2083 -0.2381
    1TYR     BB  581   5.693   1.359   6.859 -0.1547 -0.0042  0.1090
    1TYR    SC1  582   5.533   1.435   6.582  0.1226  0.0186 -0.1579
    1TYR    SC2  583   5.295   1.435   6.455 -0.0272 -0.1867  0.1084
    1TYR    SC3  584   5.482   1.620   6.392 -0.1105 -0.2464 -0.3636
    2CYS     BB  585   5.437   1.420   7.050 -0.2687  0.3363 -0.0162
    2CYS    SC1  586   5.212   1.252   6.970 -0.0332 -0.0909  0.5724
    3TYR     BB  587   5.508   1.569   7.292  0.3891  0.1884  0.1488
    3TYR    SC1  588   5.588   1.642   7.586  0.2412  0.2018  0.0869
    3TYR    SC2  589   5.548   1.784   7.812  0.1436 -0.0092  0.2053
    3TYR    SC3  590   5.797   1.760   7.711  0.1509  0.3177  0.1314
    1TYR     BB  591   4.983   1.094   5.118  0.1420  0.1603  0.0506
    1TYR    SC1  592   4.731   0.962   5.119  0.0047  0.1546 -0.6875
    1TYR    SC2  593   4.462   0.975   5.145  0.0437  0.0982 -0.0505
    1TYR    SC3  594   4.582   0.739   5.090 -0.0235  0.0755 -0.1006
    2CYS     BB  595   4.959   1.378   5.219  0.1057 -0.0229  0.3208
    2CYS    SC1  596   4.697   1.523   5.209  0.2221  0.2519  0.3706
    3TYR     BB  597   4.998   1.432   5.557  0.0702  0.0330  0.2054
    3TYR    SC1  598   4.720   1.330   5.686  0.0748 -0.0240  0.0166
    3TYR    SC2  599   4.509   1.214   5.808 -0.0460 -0.0063 -0.1708
    3TYR    SC3  600   4.574   1.144   5.555  0.2408 -0.0901 -0.0788
    1TYR     BB  601   2.317   3.205   3.130 -0.0895  0.1805 -0.0445
    1TYR    SC1  602   2.185   2.930   3.051 -0.3371  0.0044  0.1582
    1TYR    SC2  603   2.085   2.776   2.853  0.2600 -0.1091 -0.0819
    1TYR    SC3  604   2.147   2.665   3.091 -0.1271 -0.0434  0.0586
    2CYS     BB  605   2.642   3.104   3.244  0.0241  0.0463  0.1315
    2CYS    SC1  606   2.760   3.385   3.198 -0.2075 -0.3755  0.1156
    3TYR     BB  607   2.809   2.845   3.150  0.1446  0.2650  0.1400
    3TYR    SC1  608   2.711   2.857   2.813  0.0069 -0.1111  0.0115
    3TYR    SC2  609   2.485   2.835   2.667  0.0854 -0.1505 -0.1062
    3TYR    SC3  610   2.701   2.959   2.562  0.1108 -0.0905  0.0152
    1TYR     BB  611   3.582   6.065   4.453 -0.0864 -0.1226 -0.0599
    1TYR    SC1  612   3.746   5.849   4.474  0.0343  0.1385  0.2263
    1TYR    SC2  613   3.902   5.705   4.308 -0.1396  0.1377  0.0579
    1TYR    SC3  614   3.715   5.581   4.458 -0.2372  0.1780 -0.0294
    2CYS     BB  615   3.342   5.927   4.222  0.0739 -0.1480 -0.0414
    2CYS    SC1  616   3.524   5.920   3.990 -0.2112  0.4187 -0.0521
    3TYR     BB  617   3.119   5.836   4.460  0.2355  0.1303 -0.1520
    3TYR    SC1  618   3.095   6.048   4.664 -0.1716  0.0017 -0.0689
    3TYR    SC2  619   3.008   6.283   4.763 -0.2087 -0.0197 -0.0505
    3TYR    SC3  620   3.036   6.070   4.927  0.2312  0.0825  0.0224
    1TYR     BB  621   2.571   2.518   4.694  0.2320  0.3622 -0.3687
    1TYR    SC1  622   2.507   2.257   4.602  0.0415 -0.1381  0.1716
    1TYR    SC2  623   2.472   2.134   4.365 -0.2492  0.3346 -0.0491
    1TYR    SC3  624   2.344   2.042   4.584 -0.1922  0.0545 -0.1277
    2CYS     BB  625   2.558   2.800   4.591  0.0014 -0.0905  0.1273
    2CYS    SC1  626   2.873   2.849   4.575  0.0738 -0.3398  0.1586
    3TYR     BB  627   2.414   2.891   4.336 -0.1770  0.0170 -0.1552
    3TYR    SC1  628   2.090   2.870   4.287  0.1241  0.5988 -0.1768
    3TYR    SC2  629   1.937   2.853   4.066  0.1800 -0.0629 -0.1874
    3TYR    SC3  630   1.821   2.871   4.309  0.1010 -0.0148 -0.2279
    1TYR     BB  631   6.361   1.965   5.753  0.3068 -0.0569  0.1788
    1TYR    SC1  632   6.510   2.060   5.512  0.3824 -0.0745  0.0014
    1TYR    SC2  633   6.556   2.317   5.443 -0.1230  0.0247 -0.0149
    1TYR    SC3  634   6.646   2.117   5.286 -0.2252  0.2116 -0.3231
    2CYS     BB  635   6.342   2.178   5.972 -0.1203 -0.0235 -0.0972
    2CYS    SC1  636   6.601   2.360   5.995 -0.1412  0.1722 -0.1493
    3TYR     BB  637   6.217   2.237   6.314  0.1292  0.0565  0.0929
    3TYR    SC1  638   5.969   2.507   6.278 -0.1777 -0.0260 -0.0134
    3TYR    SC2  639   5.753   2.572   6.427 -0.2396  0.2881 -0.2268
    3TYR    SC3  640   5.747   2.604   6.159  0.0283  0.1731 -0.2510
    1TYR     BB  641   2.274   3.335   4.135  0.0236 -0.1089 -0.1431
    1TYR    SC1  642   2.011   3.311   4.228 -0.1977  0.6303  0.0919
    1TYR    SC2  643   1.822   3.299   4.420 -0.2896  0.1490 -0.0121
    1TYR    SC3  644   1.751   3.290   4.160 -0.1284 -0.3914 -0.0523
    2CYS     BB  645   2.211   3.223   3.810 -0.0297  0.2174 -0.2027
    2CYS    SC1  646   2.481   3.130   3.737  0.1200  0.1734 -0.1235
    3TYR     BB  647   1.993   3.222   3.666 -0.3591 -0.1624  0.0532
    3TYR    SC1  648   1.901   3.450   3.440  0.0422 -0.0515 -0.0078
    3TYR    SC2  649   1.897   3.582   3.204  0.0552 -0.0943 -0.0322
    3TYR    SC3  650   1.666   3.508   3.322  0.0250  0.3115  0.1868
    1TYR     BB  651   6.025   0.210   5.109  0.1391  0.0854 -0.3087
    1TYR    SC1  652   5.812   0.069   4.936  0.2774  0.0986 -0.2507
    1TYR    SC2  653   5.576  -0.040   4.864  0.0925  0.3148  0.0003
    1TYR    SC3  654   5.808  -0.159   4.793 -0.0910  0.0240 -0.1345
    2CYS     BB  655   6.140  -0.003   5.360 -0.3199  0.0147 -0.2563
    2CYS    SC1  656   6.248  -0.280   5.290 -0.0509 -0.3930 -0.1987
    3TYR     BB  657   6.232   0.115   5.617 -0.0336 -0.1920 -0.0531
    3TYR    SC1  658   6.015   0.038   5.835  0.1098 -0.1191 -0.0892
    3TYR    SC2  659   5.972  -0.163   6.010 -0.0486 -0.0476 -0.0433
    3TYR    SC3  660   5.793   0.038   5.988  0.1478  0.1345 -0.0274
    1TYR     BB  661   3.627   2.986   2.873 -0.4869 -0.2828  0.3895
    1TYR    SC1  662   3.900   3.089   2.885  0.1227  0.1799 -0.3033
    1TYR    SC2  663   4.029   3.321   2.841  0.1015  0.2892  0.1448
    1TYR    SC3  664   4.077   3.182   3.066  0.1166 -0.1520 -0.1169
    2CYS     BB  665   3.358   3.049   3.035 -0.0103 -0.1316  0.2795
    2CYS    SC1  666   3.154   3.079   2.785  0.2532  0.2621 -0.1989
    3TYR     BB  667   3.259   3.173   3.262 -0.0732 -0.3031 -0.1758
    3TYR    SC1  668   3.077   3.123   3.461  0.1035  0.0173  0.1693
    3TYR    SC2  669   2.962   3.257   3.665 -0.0790 -0.0294  0.0999
    3TYR    SC3  670   2.980   2.988   3.673 -0.2725 -0.0483 -0.0344
    1TYR     BB  671   7.657   0.891   7.309 -0.1163 -0.0612  0.0061
    1TYR    SC1  672   7.449   0.797   7.510  0.1055  0.2235 -0.1837
    1TYR    SC2  673   7.439   0.684   7.755  0.1069  0.2534 -0.1698
    1TYR    SC3  674   7.303   0.913   7.706 -0.1512  0.0813 -0.2852
    2CYS     BB  675   7.740   0.637   7.122 -0.0396  0.0570  0.0930
    2CYS    SC1  676   7.729   0.425   7.357  0.0440  0.0851 -0.4256
    3TYR     BB  677   7.860   0.658   6.820  0.2600  0.0318  0.2066
    3TYR    SC1  678   7.960   0.946   6.799 -0.1290  0.0851  0.1155
    3TYR    SC2  679   7.972   1.205   6.876  0.5179  0.0349  0.2559
    3TYR    SC3  680   8.107   1.123   6.657  0.0570 -0.1396  0.0203
    1TYR     BB  681   2.760   4.013   3.092  0.0440 -0.0341  0.1528
    1TYR    SC1  682   2.798   3.914   3.357  0.2127 -0.0625  0.0215
    1TYR    SC2  683   2.908   3.792   3.571  0.2800 -0.1801 -0.0786
    1TYR    SC3  684   2.785   4.030   3.600  0.0984 -0.2950  0.1300
    2CYS     BB  685   2.706   4.280   3.048  0.4740  0.2177  0.1710
    2CYS    SC1  686   2.491   4.387   2.894  0.0607  0.1519  0.0653
    3TYR     BB  687   2.736   4.514   3.315  0.1393 -0.0643  0.4690
    3TYR    SC1  688   2.992   4.377   3.401 -0.1137  0.1191  0.1573
    3TYR    SC2  689   3.165   4.190   3.491 -0.1120 -0.0033 -0.0885
    3TYR    SC3  690   3.209   4.312   3.254 -0.1562  0.2545  0.0310
    1TYR     BB  691   7.092   1.032   5.880 -0.0320  0.0325  0.1212
    1TYR    SC1  692   6.976   0.763   6.014 -0.4630 -0.1404 -0.0164
    1TYR    SC2  693   7.008   0.496   6.001 -0.1730 -0.1088 -0.0254
    1TYR    SC3  694   6.915   0.609   6.227  0.0918 -0.1865  0.1281
    2CYS     BB  695   7.222   1.186   6.123 -0.0073 -0.3662  0.0447
    2CYS    SC1  696   7.130   1.070   6.379  0.0552  0.2270  0.0572
    3TYR     BB  697   7.165   1.508   6.161  0.1714  0.2322 -0.2364
    3TYR    SC1  698   7.001   1.761   6.193 -0.2842 -0.1689 -0.0042
    3TYR    SC2  699   6.900   1.996   6.108 -0.0682 -0.0121  0.1571
    3TYR    SC3  700   6.891   1.932   6.370  0.3400  0.0619  0.1981
    1TYR     BB  701   6.527   7.609   7.535  0.3331 -0.1091 -0.0050
    1TYR    SC1  702   6.667   7.687   7.296  0.2025  0.0975 -0.0191
    1TYR    SC2  703   6.616   7.645   7.034 -0.0767 -0.0844  0.0589
    1TYR    SC3  704   6.830   7.791   7.108 -0.0496  0.0538 -0.2716
    2CYS     BB  705   6.294   7.858   7.647  0.0032 -0.1030 -0.1353
    2CYS    SC1  706   6.421   8.133   7.705  0.2129 -0.2142 -0.1509
    3TYR     BB  707   5.938   7.901   7.623 -0.1134  0.1148 -0.0932
    3TYR    SC1  708   5.842   8.201   7.640  0.1079 -0.2821 -0.0005
    3TYR    SC2  709   5.679   8.399   7.556  0.1153 -0.2900 -0.0336
    3TYR    SC3  710   5.728   8.368   7.819  0.0016 -0.3360 -0.0172
    1TYR     BB  711   2.719   6.885   4.871  0.3454  0.0079 -0.2028
    1TYR    SC1  712   3.002   6.752   4.888  0.1162  0.0702  0.2086
    1TYR    SC2  713   3.219   6.716   4.732  0.0246  0.1668  0.0552
    1TYR    SC3  714   3.219   6.627   4.987  0.0418 -0.3306 -0.1053
    2CYS     BB  715   2.562   6.727   4.692  0.1809  0.0335  0.1265
    2CYS    SC1  716   2.282   6.813   4.605  0.3126 -0.0422 -0.0726
    3TYR     BB  717   2.705   6.587   4.463  0.0154  0.1587 -0.1208
    3TYR    SC1  718   2.479   6.432   4.274 -0.0694  0.3496  0.0830
    3TYR    SC2  719   2.240   6.308   4.252 -0.0194  0.2723 -0.0346
    3TYR    SC3  720   2.430   6.271   4.063  0.2323  0.0143  0.2536
    1TYR     BB  721   3.127   6.803   3.578 -0.0013  0.1384  0.1095
    1TYR    SC1  722   3.065   6.845   3.262  0.3955 -0.0829 -0.1322
    1TYR    SC2  723   2.898   6.893   3.055  0.0745  0.0578  0.1483
    1TYR    SC3  724   3.085   6.700   3.035 -0.1155 -0.1038 -0.1788
    2CYS     BB  725   3.388   6.977   3.678  0.1839  0.0532  0.0844
    2CYS    SC1  726   3.592   6.804   3.534  0.1645 -0.0880  0.2062
    3TYR     BB  727   3.501   7.244   3.706  0.1460  0.1895 -0.2286
    3TYR    SC1  728   3.780   7.327   3.605  0.0011 -0.1540  0.0983
    3TYR    SC2  729   4.030   7.427   3.621 -0.0475 -0.0267  0.0831
    3TYR    SC3  730   3.866   7.505   3.421 -0.2569  0.2592  0.3533
    1TYR     BB  731   6.715   1.607   5.791 -0.2367 -0.0279  0.3453
    1TYR    SC1  732   6.870   1.856   5.665  0.1130  0.1948 -0.1988
    1TYR    SC2  733   7.038   1.957   5.480  0.2191  0.0489 -0.1843
    1TYR    SC3  734   6.946   2.114   5.678  0.0862  0.2133 -0.3711
    2CYS     BB  735   6.603   1.631   6.023  0.1363  0.2343  0.0144
    2CYS    SC1  736   6.616   1.347   6.154  0.0574  0.4009 -0.3579
    3TYR     BB  737   6.432   1.791   6.243  0.0475 -0.3954 -0.0460
    3TYR    SC1  738   6.213   1.688   6.417  0.2816 -0.1934  0.3326
    3TYR    SC2  739   6.040   1.821   6.576 -0.0502 -0.1744 -0.0254
    3TYR    SC3  740   5.969   1.584   6.468  0.1261 -0.1394 -0.2254
    1TYR     BB  741   3.330   7.358   4.203  0.2182  0.1834  0.3130
    1TYR    SC1  742   3.635   7.241   4.174  0.0645  0.2020 -0.0124
    1TYR    SC2  743   3.719   7.005   4.074 -0.4042  0.0582 -0.0984
    1TYR    SC3  744   3.875   7.224   4.052 -0.0825 -0.1778 -0.2737
    2CYS     BB  745   3.064   7.296   3.979 -0.1503  0.1474  0.0430
    2CYS    SC1  746   3.107   7.558   3.831  0.0002 -0.3384  0.2510
    3TYR     BB  747   2.803   7.110   3.812  0.1300  0.0326 -0.2685
    3TYR    SC1  748   2.615   7.366   3.766 -0.0603 -0.0255 -0.2626
    3TYR    SC2  749   2.567   7.554   3.578  0.0888  0.1781 -0.1028
    3TYR    SC3  750   2.371   7.482   3.749  0.0559  0.2538 -0.1079
    1TYR     BB  751   6.558   7.014   6.625  0.1926 -0.0420 -0.1909
    1TYR    SC1  752   6.426   7.139   6.886 -0.0419 -0.2682 -0.0960
    1TYR    SC2  753   6.453   7.269   7.122 -0.0398 -0.2668 -0.0970
    1TYR    SC3  754   6.222   7.142   7.063 -0.2135  0.1146 -0.2844
    2CYS     BB  755   6.636   7.267   6.422  0.0188  0.2219 -0.0518
    2CYS    SC1  756   6.887   7.400   6.521  0.2172  0.1480  0.2486
    3TYR     BB  757   6.617   7.178   6.109 -0.0842 -0.1386 -0.1704
    3TYR    SC1  758   6.353   7.168   5.985 -0.2900 -0.0439  0.1842
    3TYR    SC2  759   6.231   7.192   5.745  0.2005 -0.4732 -0.1383
    3TYR    SC3  760   6.143   7.010   5.924 -0.0000 -0.3426 -0.1003
    1TYR     BB  761   4.989   7.184   6.102  0.3112 -0.1458  0.1342
    1TYR    SC1  762   5.109   6.927   6.170 -0.2539 -0.1608 -0.3180
    1TYR    SC2  763   5.285   6.763   6.048 -0.1338 -0.1612 -0.1488
    1TYR    SC3  764   5.153   6.680   6.268 -0.1203 -0.0543 -0.0998
    2CYS     BB  765   5.104   7.449   6.059 -0.0243  0.3640 -0.1890
    2CYS    SC1  766   5.377   7.465   5.939 -0.0440  0.0519  0.1368
    3TYR     BB  767   4.922   7.681   5.990 -0.4015  0.0349  0.0025
    3TYR    SC1  768   5.093   7.871   5.763 -0.0863 -0.3800 -0.0272
    3TYR    SC2  769   5.280   8.034   5.656 -0.0641 -0.1750  0.3074
    3TYR    SC3  770   5.018   8.072   5.598 -0.0368 -0.2049  0.1596
    1TYR     BB  771   5.653   7.009   6.037  0.2812  0.1129  0.0231
    1TYR    SC1  772   5.777   6.768   6.088 -0.1803 -0.1651  0.1422
    1TYR    SC2  773   5.910   6.556   6.189 -0.0312 -0.1584 -0.0330
    1TYR    SC3  774   5.654   6.529   6.107 -0.1799 -0.1486  0.3953
    2CYS     BB  775   5.578   7.142   6.335 -0.0686  0.0018 -0.0116
    2CYS    SC1  776   5.548   6.936   6.526  0.1125 -0.0881  0.0216
    3TYR     BB  777   5.412   7.391   6.451 -0.0426 -0.1198  0.0443
    3TYR    SC1  778   5.366   7.345   6.796 -0.0605 -0.3517  0.3206
    3TYR    SC2  779   5.446   7.444   7.034  0.2440 -0.3977  0.2428
    3TYR    SC3  780   5.349   7.192   7.018 -0.1551 -0.2630  0.3755
    1TYR     BB  781   5.203   1.138   4.423  0.0750  0.2201 -0.0964
    1TYR    SC1  782   5.413   0.922   4.407  0.2013  0.1134  0.2850
    1TYR    SC2  783   5.418   0.654   4.438  0.2656  0.0320 -0.2856
    1TYR    SC3  784   5.644   0.786   4.373  0.2168  0.2192 -0.0905
    2CYS     BB  785   4.961   0.980   4.616 -0.3337  0.0988 -0.1603
    2CYS    SC1  786   4.718   1.188   4.667 -0.0124  0.0594 -0.2059
    3TYR     BB  787   4.993   0.698   4.740 -0.0297  0.0298  0.1235
    3TYR    SC1  788   5.092   0.620   4.988 -0.1114 -0.3602 -0.3367
    3TYR    SC2  789   5.222   0.623   5.224  0.0098 -0.0255 -0.4011
    3TYR    SC3  790   5.083   0.404   5.149  0.1254 -0.2061 -0.1082
    1TYR     BB  791   3.412   0.612   3.352  0.0303  0.3780 -0.3672
    1TYR    SC1  792   3.193   0.540   3.068  0.0638 -0.2926  0.0244
    1TYR    SC2  793   3.109   0.647   2.835 -0.0150 -0.0483  0.1600
    1TYR    SC3  794   2.937   0.506   2.988 -0.0033 -0.0831  0.1414
    2CYS     BB  795   3.312   0.309   3.476 -0.1981 -0.1288 -0.1096
    2CYS    SC1  796   3.468   0.066   3.499 -0.5734 -0.0278  0.4299
    3TYR     BB  797   3.032   0.250   3.496  0.2424 -0.0191  0.0862
    3TYR    SC1  798   2.852   0.120   3.295  0.0564 -0.2275  0.0020
    3TYR    SC2  799   2.616   0.212   3.202  0.1888  0.0750 -0.0513
    3TYR    SC3  800   2.771   0.055   3.046  0.1127  0.0373 -0.0898
    1TYR     BB  801   6.596   1.016   7.033 -0.1765 -0.1477 -0.2536
    1TYR    SC1  802   6.711   0.752   6.934 -0.0331 -0.0759 -0.0935
    1TYR    SC2  803   6.889   0.549   6.942  0.1938  0.1250  0.2121
    1TYR    SC3  804   6.892   0.724   6.736  0.2208  0.0155  0.1189
    2CYS     BB  805   6.644   1.170   7.296 -0.0198  0.1544 -0.2009
    2CYS    SC1  806   6.371   1.381   7.267 -0.1984  0.0867  0.3234
    3TYR     BB  807   6.741   0.977   7.627  0.0447 -0.0046 -0.0342
    3TYR    SC1  808   6.849   0.679   7.598  0.0250 -0.0477 -0.0326
    3TYR    SC2  809   7.051   0.512   7.531 -0.0783 -0.2033  0.0379
    3TYR    SC3  810   6.833   0.531   7.372  0.0662  0.1000 -0.1341
    1TYR     BB  811   6.130   0.409   6.696  0.3557  0.0542  0.3113
    1TYR    SC1  812   6.450   0.395   6.675  0.0445  0.3452  0.1658
    1TYR    SC2  813   6.619   0.368   6.466 -0.2244  0.1130 -0.0305
    1TYR    SC3  814   6.668   0.237   6.697 -0.1243  0.0659 -0.0776
    2CYS     BB  815   5.944   0.575   6.514 -0.0370  0.1929  0.0121
    2CYS    SC1  816   5.818   0.468   6.278 -0.0719  0.1535  0.0349
    3TYR     BB  817   5.812   0.891   6.560  0.1362 -0.1393  0.0082
    3TYR    SC1  818   5.514   0.877   6.538 -0.0146 -0.0959  0.3344
    3TYR    SC2  819   5.298   0.714   6.539  0.0768 -0.2383 -0.1178
    3TYR    SC3  820   5.280   0.962   6.434  0.0308 -0.0793  0.2449
    1TYR     BB  821   2.812   2.342   2.891 -0.0085 -0.1327  0.3710
    1TYR    SC1  822   2.681   2.061   2.913 -0.6789  0.2980  0.2869
    1TYR    SC2  823   2.634   1.821   3.030 -0.1910 -0.0069 -0.0914
    1TYR    SC3  824   2.656   1.839   2.761  0.2024  0.3808 -0.0471
    2CYS     BB  825   2.833   2.427   2.621  0.0417 -0.1208  0.0693
    2CYS    SC1  826   2.680   2.251   2.431 -0.1166 -0.0304  0.1448
    3TYR     BB  827   3.058   2.617   2.532  0.2253  0.0113 -0.0911
    3TYR    SC1  828   3.284   2.499   2.698  0.2293  0.2271  0.1484
    3TYR    SC2  829   3.387   2.507   2.947  0.2953  0.3727  0.1180
    3TYR    SC3  830   3.541   2.428   2.740  0.1070 -0.2348  0.1836
    1TYR     BB  831   3.170   3.468   4.073 -0.1467 -0.0622  0.2552
    1TYR    SC1  832   3.086   3.779   3.980 -0.2299  0.0636  0.1608
    1TYR    SC2  833   3.203   4.001   3.879 -0.0353 -0.0041  0.2314
    1TYR    SC3  834   2.962   4.018   4.001 -0.0704  0.1494  0.1431
    2CYS     BB  835   3.465   3.333   4.037 -0.2383 -0.3708 -0.1067
    2CYS    SC1  836   3.456   3.125   3.791 -0.4020  0.1154 -0.2977
    3TYR     BB  837   3.840   3.451   3.891 -0.1430  0.2527  0.1088
    3TYR    SC1  838   3.961   3.191   3.913  0.2902  0.1119  0.2095
    3TYR    SC2  839   3.908   2.929   3.952 -0.0664  0.1379 -0.0433
    3TYR    SC3  840   4.164   3.015   3.946  0.0574 -0.2039  0.0315
    1TYR     BB  841   2.148   2.361   4.049 -0.2618  0.0300 -0.3194
    1TYR    SC1  842   2.105   2.392   4.391 -0.1365  0.3131 -0.0381
    1TYR    SC2  843   1.873   2.456   4.512 -0.1647 -0.0565  0.1221
    1TYR    SC3  844   2.095   2.414   4.660 -0.0210  0.1730 -0.0204
    2CYS     BB  845   2.301   2.664   3.779  0.3383 -0.1188 -0.0461
    2CYS    SC1  846   2.131   2.771   3.574  0.2280  0.0965 -0.1576
    3TYR     BB  847   2.653   2.575   3.647  0.0356 -0.2576 -0.1762
    3TYR    SC1  848   2.560   2.395   3.405  0.1265 -0.2249  0.0827
    3TYR    SC2  849   2.558   2.139   3.319  0.1281 -0.1678 -0.0928
    3TYR    SC3  850   2.414   2.326   3.189 -0.0658 -0.1221  0.1771
    1TYR     BB  851   3.699   3.473   4.551 -0.1174  0.1156 -0.0204
    1TYR    SC1  852   3.534   3.430   4.825  0.1945 -0.3893 -0.0011
    1TYR    SC2  853   3.447   3.301   5.045  0.0679 -0.0747  0.1404
    1TYR    SC3  854   3.504   3.565   5.057 -0.0485 -0.0265 -0.2309
    2CYS     BB  855   4.002   3.417   4.651  0.0683  0.0822  0.0188
    2CYS    SC1  856   4.178   3.209   4.548 -0.0264  0.3902  0.0105
    3TYR     BB  857   4.062   3.447   4.980 -0.3991 -0.0250 -0.2306
    3TYR    SC1  858   4.015   3.732   5.064  0.0544  0.0868 -0.0170
    3TYR    SC2  859   3.844   3.840   5.243  0.2939 -0.0247  0.2930
    3TYR    SC3  860   4.041   3.991   5.137  0.0272  0.0989 -0.0504
    1TYR     BB  861   5.737   2.000   5.090  0.2790 -0.0381 -0.2619
    1TYR    SC1  862   5.873   2.011   4.798  0.0380 -0.0370  0.1423
    1TYR    SC2  863   5.781   1.877   4.583  0.0071  0.2655 -0.0401
    1TYR    SC3  864   5.994   2.041   4.559 -0.0932  0.4249  0.1207
    2CYS     BB  865   5.932   1.957   5.277  0.0391 -0.0426 -0.0783
    2CYS    SC1  866   5.933   1.774   5.508 -0.0688  0.3193 -0.3139
    3TYR     BB  867   6.085   2.266   5.292  0.0590 -0.0240 -0.0197
    3TYR    SC1  868   6.082   2.447   5.485  0.2371 -0.0706 -0.1003
    3TYR    SC2  869   6.238   2.596   5.648  0.0098 -0.2087  0.2567
    3TYR    SC3  870   5.997   2.508   5.734 -0.1786 -0.1802 -0.2058
    1TYR     BB  871   2.383   3.727   2.955 -0.0281 -0.2730  0.2017
    1TYR    SC1  872   2.603   3.642   2.743 -0.1563 -0.0418 -0.1635
    1TYR    SC2  873   2.760   3.439   2.660 -0.1783 -0.0246 -0.2485
    1TYR    SC3  874   2.835   3.694   2.615 -0.0903 -0.0101 -0.0326
    2CYS     BB  875   2.251   3.974   3.139 -0.3514 -0.0525 -0.3139
    2CYS    SC1  876   2.339   4.100   3.367 -0.2779 -0.0719  0.0851
    3TYR     BB  877   1.930   4.071   2.988 -0.2636  0.3190  0.1622
    3TYR    SC1  878   1.918   4.349   3.113 -0.1336  0.0891 -0.3569
    3TYR    SC2  879   1.841   4.583   3.224 -0.1362 -0.1410  0.1601
    3TYR    SC3  880   2.103   4.534   3.181 -0.1563  0.0937 -0.3071
    1TYR     BB  881   5.482   0.760   5.925  0.2121 -0.2082 -0.4601
    1TYR    SC1  882   5.428   1.057   5.997  0.1582 -0.0960  0.1062
    1TYR    SC2  883   5.514   1.287   6.109 -0.1008 -0.2349  0.6332
    1TYR    SC3  884   5.288   1.285   5.962  0.4714  0.0417 -0.3748
    2CYS     BB  885   5.303   0.516   6.088 -0.1818 -0.1597 -0.1451
    2CYS    SC1  886   5.047   0.659   6.106 -0.1695  0.2875 -0.3306
    3TYR     BB  887   5.329   0.227   6.247 -0.1890  0.1263 -0.0360
    3TYR    SC1  888   5.341   0.264   6.544 -0.2833  0.1931  0.2043
    3TYR    SC2  889   5.368   0.149   6.786 -0.0470 -0.3369 -0.0536
    3TYR    SC3  890   5.531   0.351   6.714 -0.0285 -0.2671  0.1743
    1TYR     BB  891   4.502   2.130   6.126 -0.0561  0.0413 -0.2228
    1TYR    SC1  892   4.677   2.343   6.336 -0.1590 -0.0915  0.4774
    1TYR    SC2  893   4.872   2.393   6.515  0.1138  0.1953  0.1193
    1TYR    SC3  894   4.650   2.546   6.512  0.0330  0.0856  0.3100
    2CYS     BB  895   4.725   1.859   5.926  0.2111 -0.0660 -0.0866
    2CYS    SC1  896   4.943   1.656   6.088 -0.0273 -0.0159 -0.0148
    3TYR     BB  897   4.755   1.916   5.579  0.1256  0.0870  0.1348
    3TYR    SC1  898   4.827   2.199   5.503 -0.0292 -0.1054 -0.1514
    3TYR    SC2  899   5.069   2.319   5.516  0.1495 -0.4694  0.0831
    3TYR    SC3  900   4.907   2.364   5.305  0.3200 -0.0422  0.0314
    1TYR     BB  901   2.720   5.394   3.338 -0.0139  0.0489  0.0195
    1TYR    SC1  902   2.530   5.416   3.103 -0.3979  0.0113  0.2099
    1TYR    SC2  903   2.387   5.622   3.003 -0.1430  0.0693 -0.0546
    1TYR    SC3  904   2.375   5.380   2.885 -0.0444  0.0679 -0.0622
    2CYS     BB  905   2.763   5.049   3.412  0.1450  0.1760  0.1422
    2CYS    SC1  906   2.521   4.948   3.547 -0.3139 -0.1748 -0.2173
    3TYR     BB  907   3.020   4.898   3.535 -0.1030  0.1182  0.3072
    3TYR    SC1  908   2.998   4.943   3.846 -0.2266 -0.2642  0.0307
    3TYR    SC2  909   3.215   4.956   4.005  0.0184  0.0746 -0.3078
    3TYR    SC3  910   2.968   4.947   4.114  0.1879 -0.1943  0.0834
    1TYR     BB  911   3.131   0.982   3.224  0.5775 -0.1217  0.1080
    1TYR    SC1  912   2.884   0.965   3.077 -0.2765  0.2435  0.3221
    1TYR    SC2  913   2.628   0.909   3.009 -0.1181 -0.0054 -0.1224
    1TYR    SC3  914   2.774   1.079   2.858  0.0276  0.0184  0.0401
    2CYS     BB  915   3.000   0.875   3.538  0.2078  0.0776 -0.1868
    2CYS    SC1  916   2.785   0.669   3.431 -0.0793  0.0421  0.1372
    3TYR     BB  917   3.104   0.879   3.810  0.0380  0.1225 -0.1187
    3TYR    SC1  918   3.046   1.015   4.078 -0.1510 -0.1616 -0.0285
    3TYR    SC2  919   3.037   1.259   4.193  0.2008 -0.3081  0.3444
    3TYR    SC3  920   2.826   1.092   4.214 -0.0854 -0.0127 -0.0044
    1TYR     BB  921   2.987   4.554   2.663  0.0922  0.0952 -0.1356
    1TYR    SC1  922   3.069   4.774   2.472 -0.2468 -0.0913 -0.2532
    1TYR    SC2  923   3.179   4.837   2.233 -0.2068 -0.1744 -0.2571
    1TYR    SC3  924   3.298   4.917   2.462 -0.4650  0.2753 -0.2638
    2CYS     BB  925   3.275   4.342   2.696  0.2280  0.0281  0.0581
    2CYS    SC1  926   3.182   4.078   2.763 -0.3721 -0.0356  0.2069
    3TYR     BB  927   3.539   4.348   2.446  0.1502 -0.1330 -0.0958
    3TYR    SC1  928   3.656   4.025   2.531  0.0528  0.0225  0.1900
    3TYR    SC2  929   3.660   3.755   2.543  0.4684 -0.0139 -0.3115
    3TYR    SC3  930   3.855   3.898   2.663  0.2062  0.0815  0.0212
    1TYR     BB  931   2.642   3.601   3.971  0.0508 -0.0074  0.1827
    1TYR    SC1  932   2.555   3.881   3.930 -0.1801  0.0588  0.4102
    1TYR    SC2  933   2.357   4.042   3.841  0.1776  0.4764  0.3280
    1TYR    SC3  934   2.527   4.130   4.031  0.3335  0.1568  0.3449
    2CYS     BB  935   2.752   3.610   4.278 -0.1018 -0.1346  0.1980
    2CYS    SC1  936   2.723   3.340   4.389  0.0484  0.2082 -0.2139
    3TYR     BB  937   2.730   3.894   4.478 -0.0261  0.2955 -0.1156
    3TYR    SC1  938   2.652   3.855   4.783  0.0814 -0.1595 -0.1283
    3TYR    SC2  939   2.567   3.666   4.956  0.0395 -0.0935 -0.0763
    3TYR    SC3  940   2.477   3.920   4.977  0.4795  0.0545  0.1775
    1TYR     BB  941   3.253   3.722   4.488 -0.1115 -0.0616 -0.2614
    1TYR    SC1  942   3.111   3.613   4.712 -0.2856  0.2079 -0.2964
    1TYR    SC2  943   3.050   3.656   4.972 -0.1500  0.2844 -0.2758
    1TYR    SC3  944   2.972   3.428   4.851  0.4483 -0.1303  0.0566
    2CYS     BB  945   3.226   4.101   4.571 -0.3243 -0.1930 -0.1954
    2CYS    SC1  946   3.039   4.150   4.809 -0.0333  0.2788 -0.0116
    3TYR     BB  947   3.392   4.227   4.453  0.0103  0.1764 -0.0900
    3TYR    SC1  948   3.661   4.374   4.406 -0.1265 -0.0246  0.1361
    3TYR    SC2  949   3.815   4.560   4.285 -0.1325 -0.0619  0.0701
    3TYR    SC3  950   3.905   4.432   4.505 -0.1524  0.0604  0.1505
    1TYR     BB  951   4.524   0.492   6.749 -0.1243  0.0674  0.0286
    1TYR    SC1  952   4.511   0.202   6.890 -0.3353 -0.2225  0.3328
    1TYR    SC2  953   4.484  -0.039   6.772 -0.1102 -0.1111  0.0358
    1TYR    SC3  954   4.449  -0.015   7.038 -0.1182 -0.4723  0.0742
    2CYS     BB  955   4.887   0.448   6.669 -0.2763  0.2896  0.1519
    2CYS    SC1  956   4.843   0.327   6.397  0.2450 -0.0500  0.1492
    3TYR     BB  957   5.043   0.539   6.945  0.0737  0.1296 -0.0070
    3TYR    SC1  958   4.844   0.671   7.178 -0.1733 -0.0055 -0.1300
    3TYR    SC2  959   4.590   0.739   7.237  0.0229  0.5667  0.1449
    3TYR    SC3  960   4.760   0.670   7.434  0.0023 -0.2120 -0.0690
    1TYR     BB  961   5.385   1.852   5.432  0.1991  0.1525  0.3308
    1TYR    SC1  962   5.181   1.946   5.267  0.0228  0.1107 -0.2240
    1TYR    SC2  963   4.988   1.926   5.079 -0.0373 -0.0973 -0.1436
    1TYR    SC3  964   5.171   2.123   5.063 -0.0637 -0.0892 -0.3990
    2CYS     BB  965   5.243   1.937   5.755 -0.3217 -0.0068 -0.0229
    2CYS    SC1  966   5.402   1.756   5.924 -0.1516  0.0799  0.3924
    3TYR     BB  967   5.100   2.140   6.067 -0.1702  0.0817 -0.1034
    3TYR    SC1  968   4.948   2.405   5.987  0.3088  0.0806 -0.2578
    3TYR    SC2  969   4.903   2.670   5.970 -0.0467  0.0553  0.1113
    3TYR    SC3  970   4.764   2.500   5.813 -0.3138  0.0574  0.3345
    1TYR     BB  971   2.936   1.893   3.435 -0.2899  0.3147 -0.0952
    1TYR    SC1  972   2.696   1.732   3.528  0.1248 -0.1359  0.4503
    1TYR    SC2  973   2.506   1.594   3.660 -0.0553 -0.2921  0.0488
    1TYR    SC3  974   2.441   1.737   3.440  0.2314 -0.0299  0.1259
    2CYS     BB  975   3.227   1.785   3.476  0.0616 -0.0005 -0.1015
    2CYS    SC1  976   3.343   1.973   3.659 -0.1174 -0.1506  0.0285
    3TYR     BB  977   3.330   1.537   3.290  0.0735 -0.4832 -0.3358
    3TYR    SC1  978   3.084   1.489   3.124  0.4149 -0.2303  0.1195
    3TYR    SC2  979   2.926   1.512   2.906  0.5036  0.4997  0.1018
    3TYR    SC3  980   2.826   1.412   3.136  0.2196  0.3341 -0.0862
    1TYR     BB  981   7.228   7.475   6.857  0.2827  0.3486 -0.0167
    1TYR    SC1  982   7.130   7.392   7.167 -0.1068 -0.1007 -0.1523
    1TYR    SC2  983   7.102   7.227   7.378  0.0303  0.0945  0.0243
    1TYR    SC3  984   6.885   7.303   7.236 -0.0946  0.1320  0.2293
    2CYS     BB  985   7.253   7.823   6.792 -0.0616  0.0753 -0.0052
    2CYS    SC1  986   7.147   7.904   6.549  0.0302  0.0766  0.0490
    3TYR     BB  987   7.324   8.026   7.039  0.2303 -0.0057 -0.2493
    3TYR    SC1  988   7.237   7.843   7.279  0.0763  0.1068 -0.1920
    3TYR    SC2  989   7.360   7.727   7.489 -0.0983 -0.1822 -0.2415
    3TYR    SC3  990   7.093   7.761   7.492 -0.0829 -0.0406 -0.3522
    1TYR     BB  991   5.333   7.035   5.651 -0.0333 -0.1569  0.2295
    1TYR    SC1  992   5.566   7.196   5.580 -0.0292 -0.4094 -0.0784
    1TYR    SC2  993   5.715   7.304   5.382 -0.0770 -0.3722 -0.0944
    1TYR    SC3  994   5.795   7.326   5.639 -0.1919 -0.1124 -0.0777
    2CYS     BB  995   5.283   6.944   5.290 -0.0202 -0.0133 -0.2380
    2CYS    SC1  996   5.317   7.233   5.132  0.1075 -0.0928 -0.1323
    3TYR     BB  997   5.532   6.777   5.187  0.0974  0.0847 -0.1244
    3TYR    SC1  998   5.757   6.851   5.305  0.0514  0.1065  0.0158
    3TYR    SC2  999   6.014   6.909   5.364  0.0051  0.1317  0.1991
    3TYR    SC3 1000   5.848   6.818   5.557 -0.0505 -0.1573  0.0228
    4W        W 1001   6.165   0.575   2.354  0.0738 -0.1496  0.1489
    5W        W 1002   6.282   3.900   2.089  0.0052  0.2294  0.0938
    6W        W 1003   7.209   3.855   7.390  0.0395 -0.0423 -0.0895
    7W        W 1004   2.344   0.656   5.863  0.1621  0.0098 -0.1172
    8W        W 1005   1.805   4.666   6.258  0.0675 -0.2642  0.1077
    9W        W 1006   6.687   1.069   3.505 -0.1276 -0.2394  0.0840
   10W        W 1007   4.008   0.289   6.828 -0.1479  0.3029 -0.0026
   11W        W 1008   3.427   7.151   4.658 -0.2039 -0.0666  0.1088
   12W        W 1009   4.650   0.561   3.737 -0.0163 -0.3860 -0.1682
   13W        W 1010   5.728   6.937   4.102  0.2261  0.1654  0.3156
   14W        W 1011   0.905   0.087   4.114 -0.2137 -0.0150 -0.4177
   15W        W 1012   6.544   3.114   5.073 -0.4385 -0.1336 -0.1741
   16W        W 1013   6.791   6.455   3.739 -0.0482 -0.0306  0.0223
   17W        W 1014   4.174   3.647   7.381 -0.2352  0.0481  0.2949
   18W        W 1015   6.274   4.558   5.297  0.0914  0.0625 -0.3132
   19W        W 1016   3.050   7.099   1.106 -0.0599 -0.0758 -0.0997
   20W        W 1017   6.956   7.027   2.648  0.1958  0.1057  0.0965
   21W        W 1018   6.618   2.514   0.082 -0.4382 -0.0813 -0.1048
   22W        W 1019   1.413   5.609   3.236 -0.0868  0.0148  0.0293
   23W        W 1020   7.221   0.690   0.982  0.0349  0.2280 -0.1425
   24W        W 1021   1.985   0.028   0.409  0.1014  0.0763 -0.0184
   25W        W 1022   4.568   5.431   5.852 -0.0176  0.1049  0.0762
   26W        W 1023   0.075   4.499   0.553 -0.0463 -0.1793 -0.0882
   27W        W 1024   0.258   4.824   6.214  0.3232 -0.2523 -0.4113
   28W        W 1025   7.525   3.134   1.265 -0.2118  0.4990 -0.1143
   29W        W 1026   1.322   7.333   6.182  0.3560  0.1830 -0.2440
   30W        W 1027   3.383   3.282   2.070 -0.0085  0.2755 -0.3331
   31W        W 1028   0.752   0.554   0.045 -0.0596 -0.0939 -0.0495
   32W        W 1029   6.323   2.333   3.976 -0.4641  0.2545 -0.0017
   33W        W 1030   5.592   2.422   2.715 -0.1977 -0.0616 -0.4256
   34W        W 1031   0.976   5.417   1.671  0.2571 -0.1287  0.1433
   35W        W 1032   4.532   4.171   6.441 -0.0871  0.0069  0.0049
   36W        W 1033   6.383   6.131   1.414  0.0890  0.3138 -0.2432
   37W        W 1034   2.921   1.533   0.191 -0.3221 -0.1570  0.2106
   38W        W 1035   1.112   4.664   5.957  0.1814 -0.1298 -0.1439
   39W        W 1036   2.298   3.447   5.781 -0.1313 -0.0450  0.0771
   40W        W 1037   0.999   5.906   3.986  0.0966 -0.1361 -0.0037
   41W        W 1038   0.228   6.357   5.934 -0.0360 -0.1384 -0.1798
   42W        W 1039   0.970   4.889   0.235 -0.3421 -0.0055  0.1379
   43W        W 1040   3.859   6.933   4.572 -0.1515 -0.0630  0.1016
   44W        W 1041   2.650   6.943   0.313  0.3929  0.1087  0.3935
   45W        W 1042   1.828   0.613   7.398  0.2217  0.2588 -0.0669
   46W        W 1043   4.027   6.858   0.606  0.1468 -0.0490  0.0416
   47W        W 1044   6.374   1.954   0.137  0.3051 -0.1682 -0.1051
   48W        W 1045   6.512   5.148   2.720  0.1478 -0.0133 -0.0825
   49W        W 1046   0.049   5.486   3.285  0.3955 -0.4907  0.0037
   50W        W 1047   0.622   3.268   3.264  0.1427 -0.1624  0.3151
   51W        W 1048   3.166   0.913   5.002  0.1004 -0.0842 -0.1466
   52W        W 1049   4.768   5.694   5.372 -0.0324  0.0033 -0.3843
   53W        W 1050   0.536   7.243   2.480 -0.0703 -0.1529  0.0044
   54W        W 1051   5.858   2.550   7.292 -0.0500 -0.1376 -0.1333
   55W        W 1052   3.252   3.147   1.143 -0.2918 -0.0840  0.0187
   56W        W 1053   5.616   6.338   5.039  0.0483 -0.0765 -0.1009
   57W        W 1054   7.319   4.940   7.519  0.3936  0.0834  0.1728
   58W        W 1055   6.781   4.916   0.583 -0.0629  0.1113  0.0606
   59W        W 1056   4.825   5.531   4.881 -0.0944  0.0594 -0.1136
   60W        W 1057   2.525   4.555   0.267 -0.1020  0.2754  0.1567
   61W        W 1058   7.092   4.542   1.775  0.0217  0.0530  0.1622
   62W        W 1059   6.029   5.118   4.176 -0.1887 -0.1093 -0.0937
   63W        W 1060   3.062   0.491   6.512  0.0636  0.0318  0.1577
   64W        W 1061   3.840   1.517   0.508  0.4073 -0.1170  0.1043
   65W        W 1062   7.558   2.771   0.533 -0.0086 -0.3258 -0.2461
   66W        W 1063   1.232   0.884   0.295 -0.1763 -0.1572  0.0571
   67W        W 1064   1.407   2.145   2.848 -0.2083  0.2273  0.0107
   68W        W 1065   1.805   1.379   0.466  0.2607 -0.1503 -0.0796
   69W        W 1066   0.777   4.094   7.255  0.0566  0.1272  0.3104
   70W        W 1067   2.610   4.090   7.494 -0.1994  0.0824 -0.0513
   71W        W 1068   6.404   3.375   0.559 -0.0661 -0.1530 -0.0115
   72W        W 1069   5.117   5.184   1.617  0.2134 -0.1747  0.1788
   73W        W 1070   6.313   4.812   2.355 -0.2604 -0.2586 -0.1287
   74W        W 1071   5.507   1.126   2.961  0.0985  0.1985  0.1142
   75W        W 1072   2.976   0.584   0.258  0.4385  0.3349 -0.0025
   76W        W 1073   3.162   6.412   7.353 -0.3867 -0.2061  0.1511
   77W        W 1074   5.151   0.259   3.555  0.0148  0.2649  0.0213
   78W        W 1075   4.261   6.245   3.326 -0.0523  0.1589 -0.1843
   79W        W 1076   5.619   6.496   3.269  0.0771 -0.0198  0.2895
   80W        W 1077   3.175   7.340   6.096  0.2482 -0.1945  0.0018
   81W        W 1078   5.111   3.171   3.895 -0.2112 -0.2886 -0.2547
   82W        W 1079   6.944   2.394   6.506  0.3567  0.1601 -0.0441
   83W        W 1080   6.448   3.162   6.923 -0.2770 -0.0760 -0.2786
   84W        W 1081   6.611   3.874   7.285  0.1940  0.0047 -0.4231
   85W        W 1082   0.756   6.281   3.730  0.3413 -0.1969  0.2353
   86W        W 1083   0.927   3.018   4.441 -0.1911 -0.0523 -0.0960
   87W        W 1084   2.513   0.160   0.616 -0.1051 -0.0667 -0.0183
   88W        W 1085   2.946   0.471   5.159  0.1981  0.1804 -0.2253
   89W        W 1086   2.327   2.795   6.600 -0.0749 -0.0474  0.1348
   90W        W 1087   5.573   1.472   2.005  0.3620  0.0454  0.0517
   91W        W 1088   3.053   3.982   0.829 -0.2064 -0.0742 -0.0368
   92W        W 1089   0.187   1.893   2.555 -0.2664  0.1451  0.1475
   93W        W 1090   5.709   1.569   2.861  0.1457  0.3262  0.2353
   94W        W 1091   0.809   5.034   6.731  0.2783  0.0896 -0.1965
   95W        W 1092   1.443   3.262   0.928  0.0517  0.1858  0.2205
   96W        W 1093   6.266   1.520   2.862 -0.0746 -0.3720  0.0373
   97W        W 1094   2.325   0.115   6.934  0.2065 -0.0987 -0.0512
   98W        W 1095   3.618   0.483   7.162 -0.2743 -0.2020 -0.1838
   99W        W 1096   2.665   5.208   6.705 -0.0664  0.2089 -0.0288
  100W        W 1097   0.158   0.112   4.653 -0.1166 -0.1483  0.4088
  101W        W 1098   3.115   3.546   1.680  0.2552 -0.0880  0.2042
  102W        W 1099   7.607   6.532   0.701 -0.0459 -0.1625  0.0093
  103W        W 1100   5.437   5.740   2.473 -0.0923  0.1795 -0.1741
  104W        W 1101   0.260   0.495   3.372 -0.0196  0.1285  0.2810
  105W        W 1102   5.577   4.867   7.384 -0.3643 -0.1386 -0.2519
  106W        W 1103   0.884   6.832   4.030 -0.2804  0.1502 -0.3923
  107W        W 1104   4.367   4.140   7.498 -0.2947  0.1410  0.1543
  108W        W 1105   0.533   4.315   0.589  0.0910  0.0113 -0.3544
  109W        W 1106   7.289   1.299   2.240 -0.0488 -0.2924  0.0992
  110W        W 1107   1.666   3.325   6.574  0.0323 -0.1418  0.3883
  111W        W 1108   2.131   3.568   0.895 -0.1037 -0.1496  0.0213
  112W        W 1109   0.936   1.419   4.329  0.1501  0.1634  0.2312
  113W        W 1110   6.416   6.322   4.518  0.0137 -0.1128 -0.1041
  114W        W 1111   5.634   6.033   4.324  0.4536  0.5200  0.0188
  115W        W 1112   2.386   0.591   2.238  0.3152  0.1642  0.0991
  116W        W 1113   5.901   0.089   4.411 -0.0092 -0.2166 -0.0396
  117W        W 1114   0.980   6.433   7.371  0.4297 -0.2881 -0.1701
  118W        W 1115   0.726   2.896   4.975  0.0236  0.0973 -0.1217
  119W        W 1116   1.746   5.045   0.566  0.0317 -0.1793  0.0846
  120W        W 1117   0.871   1.757   6.310 -0.3088  0.1305 -0.0189
  121W        W 1118   2.987   4.167   5.759 -0.0514  0.0406  0.1176
  122W        W 1119   4.104   6.979   5.937 -0.0722 -0.2558 -0.0449
  123W        W 1120   7.551   5.697   6.282  0.0241  0.2203 -0.1829
  124W        W 1121   5.703   5.482   4.284 -0.2405 -0.2275  0.0634
  125W        W 1122   0.679   0.416   5.890  0.0246 -0.1755 -0.2568
  126W        W 1123   0.677   5.206   6.280  0.0523  0.1226  0.0108
  127W        W 1124   2.001   4.888   1.032  0.0663 -0.2161 -0.2953
  128W        W 1125   7.430   4.529   3.247  0.0004  0.0162  0.4100
  129W        W 1126   7.024   2.763   2.017 -0.0625 -0.0829 -0.0740
  130W        W 1127   4.757   6.592   4.638 -0.1254  0.1335  0.0999
  131W        W 1128   6.078   3.418   6.781  0.0083 -0.2170 -0.2508
  132W        W 1129   0.240   6.841   5.138 -0.0681  0.1863  0.1016
  133W        W 1130   0.622   2.088   2.700 -0.0031  0.2438 -0.5362
  134W        W 1131   0.025   6.041   0.803  0.5052  0.0952 -0.0964
  135W        W 1132   6.958   7.583   2.517  0.3732  0.0650  0.0049
  136W        W 1133   0.247   1.397   5.119 -0.2555  0.0671  0.0182
  137W        W 1134   7.317   4.818   5.069 -0.2040 -0.0329 -0.0415
  138W        W 1135   3.252   6.191   0.150 -0.0302 -0.0458  0.0729
  139W        W 1136   4.171   5.265   3.040 -0.2437  0.2502  0.2063
  140W        W 1137   1.559   4.157   2.676 -0.0571 -0.1004  0.2620
  141W        W 1138   2.313   1.786   1.262  0.0021  0.1768  0.1751
  142W        W 1139   3.962   5.064   5.157 -0.2082  0.1369 -0.1367
  143W        W 1140   5.118   6.412   5.237 -0.0710 -0.3845 -0.0071
  144W        W 1141   4.685   6.271   3.574 -0.0247 -0.1357  0.0547
  145W        W 1142   6.772   1.177   0.478 -0.1964  0.1301  0.3285
  146W        W 1143   4.278   3.845   5.587  0.0431  0.5036 -0.2003
  147W        W 1144   1.847   3.431   1.369 -0.2175 -0.0462  0.2091
  148W        W 1145   2.041   3.002   0.982  0.1145 -0.2171 -0.1567
  149W        W 1146   5.922   6.272   7.122  0.2630  0.0146 -0.3206
  150W        W 1147   5.548   6.476   1.945  0.2806 -0.1230 -0.0827
  151W        W 1148   7.234   3.169   4.372  0.0250 -0.3284  0.0436
  152W        W 1149   0.613   4.928   5.882  0.2146 -0.0288  0.1553
  153W        W 1150   3.814   5.389   1.811  0.3519  0.2475  0.0170
  154W        W 1151   1.157   1.206   5.415  0.2941  0.1798 -0.1706
  155W        W 1152   7.013   4.401   1.050 -0.1661  0.0587  0.0383
  156W        W 1153   2.172   4.296   5.182  0.2430 -0.0464 -0.0892
  157W        W 1154   0.796   2.277   3.365 -0.2229  0.0900 -0.2062
  158W        W 1155   6.707   5.573   3.146  0.2869 -0.0025  0.1124
  159W        W 1156   0.469   4.604   6.659  0.0806 -0.0662 -0.3906
  160W        W 1157   3.308   1.428   5.618 -0.0286 -0.1292 -0.1501
  161W        W 1158   0.877   7.302   5.762  0.2261  0.0349 -0.0262
  162W        W 1159   6.042   3.049   0.064 -0.3595 -0.2181 -0.1178
  163W        W 1160   5.917   0.631   1.371  0.3174  0.1152  0.0057
  164W        W 1161   4.320   6.494   0.615  0.0123  0.3717 -0.0958
  165W        W 1162   7.557   4.178   0.172  0.0077 -0.1562 -0.0550
  166W        W 1163   5.303   5.327   4.633 -0.2633  0.1532 -0.0462
  167W        W 1164   5.589   0.571   2.262 -0.1959 -0.1860  0.0317
  168W        W 1165   4.432   3.084   7.388  0.1176  0.0090  0.0910
  169W        W 1166   7.148   3.654   4.088  0.0194 -0.1106 -0.0393
  170W        W 1167   1.882   0.873   4.557 -0.1169 -0.1003  0.2234
  171W        W 1168   5.658   2.826   5.625  0.1221  0.0436 -0.1807
  172W        W 1169   5.776   4.013   1.322  0.1049  0.3289  0.1164
  173W        W 1170   5.176   7.271   2.105  0.2699  0.1930  0.0645
  174W        W 1171   4.046   3.296   0.855 -0.2416  0.1937  0.1435
  175W        W 1172   1.328   7.147   2.748 -0.0758 -0.2416 -0.1828
  176W        W 1173   1.120   0.828   6.596 -0.1229  0.1305  0.0504
  177W        W 1174   6.712   3.061   3.679  0.2108  0.0507 -0.1593
  178W        W 1175   1.173   5.931   6.276  0.2978 -0.1955 -0.0408
  179W        W 1176   6.185   6.246   6.009 -0.0815  0.3235 -0.0236
  180W        W 1177   1.988   7.350   6.728 -0.1286  0.1256 -0.1194
  181W        W 1178   7.326   3.661   3.109 -0.2475  0.0326  0.2486
  182W        W 1179   1.527   1.095   2.045 -0.0360 -0.0036 -0.2038
  183W        W 1180   4.355   7.657   1.130 -0.1225  0.0032 -0.0847
  184W        W 1181   0.120   3.714   4.984  0.3600 -0.0071 -0.2297
  185W        W 1182   1.454   0.842   5.575 -0.0278 -0.3851  0.0372
  186W        W 1183   0.442   5.241   4.974  0.2238  0.0928  0.0663
  187W        W 1184   3.957   2.369   0.342  0.1560 -0.3319 -0.0781
  188W        W 1185   0.989   4.414   4.233  0.1792  0.0489  0.0178
  189W        W 1186   6.894   7.515   3.737 -0.0439 -0.3180 -0.2709
  190W        W 1187   4.056   5.625   6.538  0.0244  0.3076 -0.2798
  191W        W 1188   0.382   3.275   5.148  0.0910  0.3347  0.0933
  192W        W 1189   6.306   2.754   2.803 -0.1517  0.1152  0.1768
  193W        W 1190   6.973   3.806   2.733  0.0230  0.2003 -0.3588
  194W        W 1191   7.503   3.198   5.146  0.1130  0.0090  0.1134
  195W        W 1192   7.253   2.873   6.516 -0.0534  0.6794  0.3139
  196W        W 1193   7.556   2.218   1.865 -0.0478 -0.0543  0.1980
  197W        W 1194   2.900   5.863   2.213  0.2028 -0.1244  0.2363
  198W        W 1195   2.966   1.587   6.580 -0.3742  0.0700 -0.0206
  199W        W 1196   3.836   6.899   5.482  0.0987 -0.0051  0.1873
  200W        W 1197   6.511   5.333   6.264  0.0924 -0.2341  0.0679
  201W        W 1198   2.244   1.927   2.491  0.2158 -0.3624  0.0181
  202W        W 1199   4.962   5.168   1.061 -0.1422 -0.1017 -0.1781
  203W        W 1200   4.124   5.750   7.553 -0.1576 -0.0681 -0.1213
  204W        W 1201   6.494   5.689   1.138 -0.1766  0.4496 -0.0765
  205W        W 1202   3.914   6.114   5.862  0.0599  0.0138 -0.3011
  206W        W 1203   5.022   5.882   3.564 -0.1838 -0.0593 -0.2851
  207W        W 1204   1.819   1.964   4.214 -0.0882 -0.0592 -0.1731
  208W        W 1205   5.310   4.192   4.954 -0.0002  0.0831 -0.1922
  209W        W 1206   6.817   3.417   7.162 -0.1904  0.0583  0.0353
  210W        W 1207   0.397   0.576   1.416 -0.2593 -0.0040 -0.0188
  211W        W 1208   0.610   1.028   5.193 -0.2077 -0.0319  0.0243
  212W        W 1209   6.652   6.969   4.409  0.0082 -0.1057 -0.0486
  213W        W 1210   7.454   5.671   0.511 -0.4580  0.0960  0.1947
  214W        W 1211   1.218   4.096   7.555 -0.0729 -0.0282  0.0982
  215W        W 1212   1.907   1.306   7.509  0.4168  0.2605 -0.2752
  216W        W 1213   6.769   3.653   6.254  0.2043  0.2994 -0.0103
  217W        W 1214   3.052   6.304   5.385 -0.5006  0.5214 -0.2068
  218W        W 1215   6.474   3.557   3.576  0.3229  0.0964 -0.2065
  219W        W 1216   0.902   7.492   2.720 -0.2987 -0.0789 -0.2616
  220W        W 1217   6.290   4.708   0.650  0.0571  0.1729 -0.0829
  221W        W 1218   1.257   7.626   5.822 -0.3222  0.2798 -0.2315
  222W        W 1219   5.266   4.720   6.768 -0.0440  0.1658  0.0970
  223W        W 1220   1.999   0.958   2.184  0.1761 -0.0308  0.1378
  224W        W 1221   0.444   6.246   2.317  0.1415  0.0644  0.2511
  225W        W 1222   5.949   7.003   2.408 -0.2053 -0.1769 -0.0324
  226W        W 1223   0.904   5.864   2.427  0.0590  0.1646 -0.1811
  227W        W 1224   3.909   1.014   0.285  0.0685 -0.2069  0.2485
  228W        W 1225   0.731   2.085   5.623 -0.1116  0.1627  0.0428
  229W        W 1226   7.073   6.694   0.502 -0.0060 -0.2744 -0.3831
  230W        W 1227   4.550   4.593   3.901  0.0026  0.0194  0.1933
  231W        W 1228   0.867   0.303   3.480 -0.0891  0.2904  0.0600
  232W        W 1229   7.409   2.802   4.841 -0.0618  0.0549  0.0753
  233W        W 1230   3.621   2.780   0.329 -0.0870  0.3084  0.1790
  234W        W 1231   2.417   2.240   1.965 -0.1675  0.0579 -0.0268
  235W        W 1232   6.492   2.290   1.694  0.1574  0.1645  0.1926
  236W        W 1233   4.637   3.943   0.938  0.0261  0.2481 -0.0776
  237W        W 1234   3.591   5.707   1.495  0.3611 -0.2675 -0.3626
  238W        W 1235   6.811   6.504   4.318 -0.0667 -0.0708  0.2813
  239W        W 1236   2.257   7.332   7.152  0.1396 -0.1231 -0.1496
  240W        W 1237   7.575   6.514   1.804  0.2484 -0.2180  0.2346
  241W        W 1238   2.782   0.471   6.053  0.1176 -0.0390 -0.3811
  242W        W 1239   5.660   7.429   4.067  0.1033 -0.2716  0.2051
  243W        W 1240   4.203   0.495   4.766  0.0371 -0.3393  0.2563
  244W        W 1241   2.784   1.290   4.849  0.1573 -0.1280  0.0757
  245W        W 1242   4.156   4.354   1.642  0.0904  0.1259  0.2769
  246W        W 1243   0.655   6.008   0.847 -0.1647 -0.1698 -0.2099
  247W        W 1244   6.145   5.583   0.751  0.3314 -0.0221  0.2901
  248W        W 1245   4.573   2.405   0.985  0.1481 -0.2855 -0.2142
  249W        W 1246   4.093   7.471   6.042 -0.2765  0.1419  0.1744
  250W        W 1247   7.337   6.771   2.273  0.4529 -0.3782 -0.1468
  251W        W 1248   6.016   5.183   1.991  0.0640 -0.0779  0.0587
  252W        W 1249   4.193   2.890   0.532  0.0797  0.0288 -0.0582
  253W        W 1250   0.013   0.387   5.045  0.0582  0.2181  0.1948
  254W        W 1251   5.353   0.652   3.345 -0.4604  0.1937  0.0354
  255W        W 1252   7.067   6.453   7.061  0.1280  0.1227 -0.2140
  256W        W 1253   4.515   5.132   3.466  0.2297  0.0868 -0.5366
  257W        W 1254   2.655   1.907   6.330  0.0490  0.3357 -0.1762
  258W        W 1255   3.600   1.037   1.922 -0.0626  0.0575 -0.0112
  259W        W 1256   1.271   0.547   3.647 -0.3180  0.0481 -0.0998
  260W        W 1257   5.028   4.926   4.427 -0.0168  0.2046 -0.0335
  261W        W 1258   5.913   6.518   3.708 -0.2335 -0.3709 -0.2411
  262W        W 1259   2.367   4.871   6.401 -0.0505  0.0009  0.0909
  263W        W 1260   5.453   7.176   4.609 -0.0458 -0.2201 -0.0422
  264W        W 1261   7.520   1.874   5.367  0.1171 -0.1698  0.2034
  265W        W 1262   2.566   6.824   2.144  0.2580  0.0276  0.1330
  266W        W 1263   0.772   4.661   1.950  0.0205 -0.0014  0.0276
  267W        W 1264   5.692   2.534   3.525 -0.1891  0.1291 -0.3354
  268W        W 1265   0.623   1.053   1.437  0.0390  0.2045  0.0904
  269W        W 1266   6.414   2.148   1.100 -0.1694 -0.1141 -0.0877
  270W        W 1267   4.588   5.090   4.614  0.0488  0.0966 -0.0819
  271W        W 1268   6.435   6.983   2.571 -0.0598 -0.0757  0.0051
  272W        W 1269   1.343   1.172   3.500  0.0388 -0.0013  0.1278
  273W        W 1270   0.137   1.144   2.115  0.0262 -0.1185 -0.2390
  274W        W 1271   0.105   0.120   1.368 -0.2323  0.2293 -0.1361
  275W        W 1272   3.884   1.430   1.346 -0.0683  0.2884  0.1133
  276W        W 1273   5.653   4.778   3.791 -0.4450  0.1151  0.2635
  277W        W 1274   6.481   1.604   2.215  0.2063 -0.1357 -0.1774
  278W        W 1275   2.849   5.327   0.989 -0.1763 -0.1525 -0.2267
  279W        W 1276   6.466   4.958   1.330  0.1567 -0.2942  0.0274
  280W        W 1277   4.945   6.570   0.738 -0.0029  0.0283 -0.0668
  281W        W 1278   1.595   7.377   0.342 -0.3219 -0.0648 -0.1499
  282W        W 1279   4.913   3.265   0.542  0.4429 -0.0422  0.1300
  283W        W 1280   2.443   3.215   0.852 -0.1272 -0.0802  0.1082
  284W        W 1281   1.888   4.740   5.412  0.0198 -0.0364  0.3808
  285W        W 1282   5.997   3.780   2.573  0.2438 -0.1126 -0.0309
  286W        W 1283   5.596   4.542   1.567  0.0288 -0.2032 -0.0374
  287W        W 1284   5.010   1.736   2.410 -0.0175 -0.0543 -0.0237
  288W        W 1285   4.671   4.029   3.142  0.3089 -0.0070 -0.1466
  289W        W 1286   0.826   1.278   6.458  0.0305 -0.0279  0.0721
  290W        W 1287   2.511   7.198   7.570  0.0368 -0.0858  0.1923
  291W        W 1288   7.050   6.527   2.736  0.1255  0.1566 -0.0023
  292W        W 1289   7.157   6.868   1.328 -0.1740  0.0452  0.1419
  293W        W 1290   7.197   4.979   4.622 -0.0632 -0.0274 -0.0554
  294W        W 1291   7.487   5.964   7.302  0.1061 -0.1510 -0.1231
  295W        W 1292   1.622   6.573   4.794 -0.0864 -0.0870  0.0930
  296W        W 1293   2.734   3.088   7.527 -0.2057  0.0066 -0.3757
  297W        W 1294   0.678   2.880   1.126 -0.0561  0.1028  0.3050
  298W        W 1295   0.935   4.543   0.723  0.0643 -0.0894 -0.2956
  299W        W 1296   5.681   1.883   0.622 -0.1222  0.1021 -0.2677
  300W        W 1297   3.678   3.732   6.281 -0.0238 -0.1119  0.0378
  301W        W 1298   3.563   7.258   6.469  0.1220  0.1232 -0.1404
  302W        W 1299   3.465   6.140   5.619  0.1117 -0.4387 -0.0374
  303W        W 1300   2.931   1.722   5.295 -0.1938  0.2980  0.1392
  304W        W 1301   1.033   2.417   4.289  0.1890  0.4250  0.1728
  305W        W 1302   5.454   2.293   4.590 -0.0755 -0.1136  0.5533
  306W        W 1303   4.195   6.311   2.256 -0.0479  0.0982 -0.1779
  307W        W 1304   2.263   1.819   3.980  0.2399 -0.2299 -0.2173
  308W        W 1305   0.456   3.644   4.122  0.2713  0.0726 -0.0725
  309W        W 1306   5.990   2.556   1.878  0.0541  0.0644 -0.0449
  310W        W 1307   7.407   7.308   3.444  0.2308  0.0048 -0.0887
  311W        W 1308   6.874   5.039   0.112  0.0182 -0.1240  0.0351
  312W        W 1309   1.405   0.617   6.988  0.1238  0.0834 -0.1164
  313W        W 1310   0.366   6.412   7.239  0.1189  0.2145  0.0765
  314W        W 1311   3.176   3.588   5.424 -0.4106  0.0428  0.1594
  315W        W 1312   2.718   3.966   2.152 -0.0784  0.1569  0.0194
  316W        W 1313   0.299   0.756   3.964  0.0968 -0.1172  0.0089
  317W        W 1314   3.786   0.626   0.727  0.0450 -0.1404 -0.1446
  318W        W 1315   6.544   6.652   4.832  0.0356 -0.0743 -0.1545
  319W        W 1316   6.543   4.458   0.995  0.3270 -0.3398  0.0451
  320W        W 1317   3.742   6.524   2.432 -0.0378 -0.1685  0.0656
  321W        W 1318   5.605   4.544   3.054 -0.0845  0.0200 -0.1150
  322W        W 1319   5.888   3.908   4.568 -0.1133 -0.1135 -0.0152
  323W        W 1320   1.392   0.528   4.691 -0.0997  0.1811  0.1234
  324W        W 1321   1.738   3.193   2.863  0.0263 -0.2117 -0.1210
  325W        W 1322   2.232   6.401   7.036 -0.0325 -0.0738 -0.0345
  326W        W 1323   6.828   5.359   0.948  0.0236  0.2839  0.0722
  327W        W 1324   1.488   7.299   3.311  0.0194  0.0133 -0.1653
  328W        W 1325   4.271   3.294   1.942  0.1064 -0.1695  0.0898
  329W        W 1326   3.403   0.723   0.455 -0.0446 -0.4834 -0.3710
  330W        W 1327   5.183   6.743   4.834  0.0714 -0.2087 -0.0881
  331W        W 1328   0.049   1.917   0.469 -0.2113 -0.0831  0.0018
  332W        W 1329   4.689   3.783   7.374 -0.1019  0.0377 -0.2579
  333W        W 1330   4.185   4.757   3.099  0.1963  0.0161  0.0192
  334W        W 1331   3.914   0.097   7.303 -0.2213 -0.1246  0.1213
  335W        W 1332   2.949   0.028   0.601 -0.3702  0.0198  0.0204
  336W        W 1333   5.256   3.211   4.921  0.1171  0.1462  0.2129
  337W        W 1334   7.328   5.369   4.306  0.0929 -0.1725 -0.0969
  338W        W 1335   5.603   4.992   3.312  0.4621  0.0548  0.0260
  339W        W 1336   2.985   4.667   0.117 -0.0949 -0.0882  0.1432
  340W        W 1337   1.422   2.451   0.732 -0.1743  0.1770 -0.0856
  341W        W 1338   5.196   2.971   5.539 -0.1563  0.0511  0.1384
  342W        W 1339   5.855   3.506   7.551 -0.0189 -0.0916  0.1364
  343W        W 1340   2.806   6.420   0.141  0.3728 -0.2398 -0.3736
  344W        W 1341   4.072   3.778   1.771  0.1195 -0.2652 -0.0453
  345W        W 1342   4.048   6.738   1.236 -0.0095  0.3063  0.0326
  346W        W 1343   6.561   7.392   1.677 -0.2893 -0.0399 -0.0148
  347W        W 1344   0.279   6.018   6.262 -0.0355  0.0302 -0.2305
  348W        W 1345   5.081   3.150   4.431  0.1583  0.3563  0.1717
  349W        W 1346   3.921   2.770   2.447  0.2703  0.1252  0.1937
  350W        W 1347   6.990   2.870   7.327  0.0669 -0.1415  0.2172
  351W        W 1348   5.887   0.138   2.195  0.0682  0.0276  0.0584
  352W        W 1349   4.697   7.146   1.166 -0.1574  0.0191  0.4179
  353W        W 1350   1.088   5.004   0.725 -0.0008  0.0165  0.3492
  354W        W 1351   6.471   7.209   3.980 -0.1046  0.3547  0.0411
  355W        W 1352   3.467   3.708   6.805 -0.0413 -0.2416 -0.2214
  356W        W 1353   4.406   2.993   1.011  0.1440 -0.0457  0.0126
  357W        W 1354   6.203   3.328   0.996 -0.0198 -0.1128  0.0249
  358W        W 1355   0.710   4.818   3.962 -0.0539 -0.3079  0.1643
  359W        W 1356   2.568   5.716   4.947 -0.0954 -0.0404 -0.0641
  360W        W 1357   6.896   5.759   5.121  0.2202  0.4539 -0.1993
  361W        W 1358   5.595   3.688   4.914 -0.0803  0.1189  0.2369
  362W        W 1359   4.523   6.696   1.050 -0.1243 -0.0430  0.1039
  363W        W 1360   3.416   5.840   7.407  0.2855 -0.1182 -0.2267
  364W        W 1361   6.978   6.916   5.051  0.0963  0.1716  0.1710
  365W        W 1362   0.323   3.067   0.549  0.5324  0.1542 -0.0736
  366W        W 1363   6.266   7.227   3.085 -0.1838 -0.2122  0.1889
  367W        W 1364   7.505   5.105   1.147  0.1528 -0.0334  0.3161
  368W        W 1365   2.617   7.611   1.600  0.1286 -0.1662  0.1209
  369W        W 1366   0.998   6.862   1.273 -0.0727  0.0191 -0.0276
  370W        W 1367   2.327   5.571   5.435  0.1605  0.2924  0.0530
  371W        W 1368   1.879   0.235   6.633  0.0998  0.0006  0.0605
  372W        W 1369   6.803   6.102   2.494  0.0859 -0.1446  0.3001
  373W        W 1370   4.634   5.153   2.436  0.1293 -0.0590  0.0955
  374W        W 1371   4.929   2.745   4.100 -0.0574  0.0516 -0.0300
  375W        W 1372   3.054   2.658   1.257 -0.3183 -0.3368 -0.0080
  376W        W 1373   3.237   0.429   4.746 -0.1780 -0.2508 -0.1567
  377W        W 1374   4.659   6.015   3.168 -0.2763 -0.1592 -0.0399
  378W        W 1375   2.256   3.290   2.686 -0.1424 -0.0385 -0.3593
  379W        W 1376   7.398   1.882   5.903  0.1424 -0.1140 -0.0285
  380W        W 1377   2.293   2.331   2.714 -0.1389 -0.0722 -0.2310
  381W        W 1378   4.913   5.862   6.415  0.0543  0.0340 -0.2085
  382W        W 1379   3.799   2.484   6.305 -0.1067  0.2253 -0.0873
  383W        W 1380   5.358   7.638   3.217  0.0718  0.2692 -0.2529
  384W        W 1381   0.457   3.840   3.173 -0.0492  0.0116  0.0318
  385W        W 1382   7.622   4.581   1.872  0.0032 -0.0463  0.2307
  386W        W 1383   4.944   1.046   1.251 -0.2050 -0.0203 -0.2219
  387W        W 1384   7.618   3.952   4.047  0.0286  0.3509  0.3458
  388W        W 1385   2.361   3.250   0.298 -0.2871 -0.0207  0.6375
  389W        W 1386   2.690   6.362   5.694  0.0534  0.1766  0.3169
  390W        W 1387   0.976   7.339   0.538 -0.1606 -0.1982 -0.0745
  391W        W 1388   0.217   0.593   0.108 -0.4477 -0.2391 -0.0764
  392W        W 1389   7.205   4.010   4.423  0.2150  0.2119 -0.0045
  393W        W 1390   3.711   5.084   0.365 -0.0040  0.2403  0.0788
  394W        W 1391   6.850   2.545   3.926 -0.4594 -0.2357  0.2039
  395W        W 1392   7.248   5.644   3.868 -0.1253  0.2682 -0.0208
  396W        W 1393   7.373   6.239   0.372  0.2791  0.1562  0.0047
  397W        W 1394   5.506   5.536   1.487  0.1758  0.0815 -0.1442
  398W        W 1395   4.661   0.359   2.226 -0.3008 -0.1929 -0.0160
  399W        W 1396   6.098   1.828   1.586 -0.2575 -0.1323 -0.0787
  400W        W 1397   5.461   6.873   2.297 -0.0168 -0.0296 -0.0184
  401W        W 1398   3.218   6.004   6.530 -0.0421  0.2884 -0.1660
  402W        W 1399   4.217   6.519   4.647 -0.1240 -0.1870  0.0692
  403W        W 1400   0.945   0.634   1.578 -0.0289  0.1543 -0.0795
  404W        W 1401   4.484   4.009   4.208  0.1437 -0.1586  0.1827
  405W        W 1402   0.025   5.718   0.068 -0.2055 -0.2318 -0.1364
  406W        W 1403   4.577   6.619   5.149  0.5393  0.1261  0.2349
  407W        W 1404   6.392   7.057   0.478 -0.0168 -0.3409 -0.1458
  408W        W 1405   4.977   4.746   7.196 -0.2479  0.0340 -0.4736
  409W        W 1406   1.889   2.882   1.980  0.1587 -0.0725 -0.1201
  410W        W 1407   1.422   0.404   1.253  0.0213  0.1720  0.3447
  411W        W 1408   5.314   7.052   1.203 -0.0353  0.0249  0.0596
  412W        W 1409   2.125   5.762   6.268  0.4296 -0.2394 -0.2405
  413W        W 1410   1.144   4.192   3.683  0.0620  0.0393  0.0491
  414W        W 1411   0.111   4.941   3.427  0.0721 -0.1503 -0.3775
  415W        W 1412   5.228   4.168   6.782  0.3737  0.0498  0.1097
  416W        W 1413   6.903   4.914   1.082 -0.1118  0.0981  0.1511
  417W        W 1414   4.172   6.836   2.288  0.0563  0.1344 -0.2447
  418W        W 1415   6.864   4.229   6.135 -0.0865 -0.1591 -0.5135
  419W        W 1416   1.806   7.224   1.636  0.3011  0.0829  0.0446
  420W        W 1417   1.937   3.735   2.654 -0.1000  0.1377  0.0323
  421W        W 1418   6.293   0.026   4.772  0.0814  0.2513  0.4167
  422W        W 1419   0.485   3.528   2.758 -0.1568  0.2574  0.0174
  423W        W 1420   0.274   4.601   3.890  0.0567 -0.1321 -0.0216
  424W        W 1421   6.478   4.586   6.271  0.0176  0.1645  0.1993
  425W        W 1422   7.562   7.395   3.958 -0.0507 -0.1083 -0.3485
  426W        W 1423   1.295   4.139   0.757 -0.0480  0.1002 -0.0307
  427W        W 1424   6.516   3.982   5.243  0.2758  0.3003  0.0306
  428W        W 1425   6.311   4.061   2.930 -0.2065  0.0556  0.0036
  429W        W 1426   6.702   5.533   6.694  0.0752 -0.2720 -0.0078
  430W        W 1427   1.320   5.882   4.333  0.1408  0.2571 -0.0227
  431W        W 1428   3.562   6.605   0.042  0.0897 -0.1873 -0.1496
  432W        W 1429   6.590   5.851   4.584  0.0179 -0.2386  0.1314
  433W        W 1430   6.283   7.426   1.230  0.1641 -0.0035  0.2496
  434W        W 1431   1.148   4.219   5.135 -0.1374 -0.1862  0.1621
  435W        W 1432   1.977   5.651   2.452 -0.1798 -0.0166  0.0559
  436W        W 1433   6.937   7.212   3.349 -0.0152 -0.2456 -0.0832
  437W        W 1434   1.802   4.441   0.355 -0.3686  0.1600  0.1575
  438W        W 1435   7.548   5.570   2.024  0.4110 -0.1655 -0.1068
  439W        W 1436   0.445   5.278   1.203  0.2054 -0.2664 -0.2086
  440W        W 1437   2.901   2.339   6.067  0.1182 -0.1772  0.0396
  441W        W 1438   3.071   3.209   0.467  0.5408  0.1352 -0.0013
  442W        W 1439   0.067   1.654   7.627  0.0693 -0.4569  0.0211
  443W        W 1440   1.601   7.160   7.097 -0.1434  0.0072 -0.0181
  444W        W 1441   6.667   2.888   5.538  0.0953 -0.2567  0.0737
  445W        W 1442   0.173   1.454   5.596 -0.0933 -0.0450  0.0195
  446W        W 1443   3.584   3.105   0.704  0.1806  0.3330 -0.2092
  447W        W 1444   0.892   5.189   7.362  0.1044 -0.3029  0.1911
  448W        W 1445   5.270   6.096   0.867  0.0790  0.0611  0.1145
  449W        W 1446   4.529   0.443   4.207  0.2466  0.1405 -0.2325
  450W        W 1447   7.084   1.142   2.692 -0.2371 -0.1762  0.0519
  451W        W 1448   5.972   5.784   1.538 -0.1733 -0.5056 -0.4618
  452W        W 1449   5.034   5.908   2.852  0.2497  0.1022  0.2062
  453W        W 1450   4.432   5.804   3.558 -0.0658 -0.0424 -0.0912
  454W        W 1451   4.708   7.469   4.373 -0.1022 -0.4094  0.0244
  455W        W 1452   1.528   4.182   4.831 -0.4213  0.1719  0.1450
  456W        W 1453   4.824   6.135   4.497 -0.0719  0.0857  0.2159
  457W        W 1454   4.837   3.208   3.475  0.0774  0.2353 -0.0647
  458W        W 1455   0.212   3.387   1.547 -0.0333 -0.1447  0.2334
  459W        W 1456   2.839   4.175   0.414  0.1992  0.2420  0.2818
  460W        W 1457   0.049   5.711   4.782  0.0961  0.2495  0.0214
  461W        W 1458   5.560   2.617   1.571  0.0722 -0.1218 -0.0814
  462W        W 1459   5.527   2.477   0.781  0.3334  0.2833 -0.2557
  463W        W 1460   1.408   1.176   6.721 -0.1373 -0.3798  0.2872
  464W        W 1461   1.091   3.665   5.319  0.2453 -0.0460  0.3258
  465W        W 1462   4.329   4.355   0.263  0.0297 -0.1216  0.3359
  466W        W 1463   4.046   1.343   6.869  0.1416 -0.3556 -0.1331
  467W        W 1464   1.844   3.814   6.272 -0.2862 -0.1437  0.2368
  468W        W 1465   0.724   2.487   2.348 -0.1570 -0.0748  0.3604
  469W        W 1466   5.723   7.069   3.216 -0.1480  0.1084 -0.0948
  470W        W 1467   4.094   1.181   6.112  0.1412  0.2319 -0.0448
  471W        W 1468   4.537   1.472   7.490 -0.0544 -0.1524 -0.2883
  472W        W 1469   6.297   2.370   4.655  0.0666 -0.0367 -0.1148
  473W        W 1470   7.627   6.762   6.654  0.0702  0.2885 -0.0161
  474W        W 1471   4.948   0.272   0.008  0.1009  0.0977  0.2037
  475W        W 1472   0.156   5.947   3.085 -0.1755 -0.2295 -0.2254
  476W        W 1473   7.157   2.393   6.041  0.1975 -0.0253 -0.1850
  477W        W 1474   7.094   2.674   5.637 -0.0700  0.1171 -0.0454
  478W        W 1475   4.498   7.439   5.031 -0.1616  0.0703  0.2938
  479W        W 1476   3.664   1.132   5.046 -0.1361  0.1883 -0.2745
  480W        W 1477   2.954   6.918   5.814  0.2543 -0.1822 -0.1557
  481W        W 1478   7.506   5.292   0.201 -0.1353 -0.0406  0.2244
  482W        W 1479   1.455   7.551   6.789  0.0018 -0.0936 -0.0601
  483W        W 1480   4.830   4.431   0.417  0.0724  0.1545  0.0593
  484W        W 1481   0.830   0.425   1.136  0.2480  0.1346  0.0357
  485W        W 1482   1.435   2.486   7.032 -0.0010  0.1475 -0.3125
  486W        W 1483   4.511   4.631   2.370  0.1932 -0.0551 -0.2453
  487W        W 1484   3.758   0.271   4.846 -0.0026  0.1656 -0.2156
  488W        W 1485   0.043   3.683   0.031  0.1562  0.3308  0.0661
  489W        W 1486   1.070   0.147   1.514  0.1193  0.1491  0.0471
  490W        W 1487   1.679   3.755   4.403 -0.2737  0.0984  0.0890
  491W        W 1488   0.819   4.122   3.336  0.0532  0.0580 -0.0071
  492W        W 1489   7.343   4.693   2.749 -0.0225  0.2221 -0.0454
  493W        W 1490   7.481   1.106   3.020  0.1552 -0.1444  0.1160
  494W        W 1491   6.988   4.702   6.498 -0.0274  0.1140  0.0780
  495W        W 1492   2.173   6.265   0.995  0.1219 -0.1649  0.4317
  496W        W 1493   2.855   0.750   2.397 -0.3821  0.1654  0.0733
  497W        W 1494   3.530   3.944   1.759 -0.0800 -0.1309  0.0939
  498W        W 1495   0.588   4.775   3.474  0.1900 -0.3179  0.0381
  499W        W 1496   6.740   2.748   6.845 -0.1012  0.3246  0.2183
  500W        W 1497   1.708   6.838   5.241  0.1817 -0.0654  0.0588
  501W        W 1498   1.608   7.376   7.530 -0.0843  0.0328  0.1081
  502W        W 1499   4.249   6.172   0.133  0.4662 -0.3710 -0.0246
  503W        W 1500   4.524   6.701   0.225 -0.1276 -0.1283  0.2727
  504W        W 1501   0.800   6.141   2.000 -0.1151 -0.0048 -0.0027
  505W        W 1502   3.387   6.538   6.318  0.1229 -0.0116  0.2441
  506W        W 1503   6.600   5.719   5.980  0.0481 -0.2122  0.0411
  507W        W 1504   2.910   3.246   2.208 -0.3393 -0.0038  0.0883
  508W        W 1505   6.017   1.125   2.672  0.2182 -0.1779 -0.0980
  509W        W 1506   0.514   3.237   6.399 -0.2192  0.2753  0.1808
  510W        W 1507   5.221   3.560   4.145 -0.2148 -0.1908  0.2294
  511W        W 1508   7.373   6.947   0.904 -0.1437  0.0363 -0.1442
  512W        W 1509   5.271   6.957   0.322 -0.1409  0.0037 -0.3899
  513W        W 1510   0.141   6.109   4.538  0.0131  0.0488  0.2223
  514W        W 1511   5.243   6.560   6.730  0.0007  0.0056 -0.1640
  515W        W 1512   3.558   4.229   6.838  0.0539 -0.0940  0.2040
  516W        W 1513   4.152   3.379   6.162  0.0037 -0.1824  0.1880
  517W        W 1514   5.692   0.164   1.160 -0.0279  0.3219 -0.0765
  518W        W 1515   4.923   5.781   2.334  0.1358 -0.1535 -0.0825
  519W        W 1516   0.269   6.370   2.904  0.1565 -0.1144  0.0443
  520W        W 1517   6.439   3.327   7.499 -0.0452  0.0458  0.1866
  521W        W 1518   0.464   0.266   6.628 -0.0678  0.0481  0.0735
  522W        W 1519   6.810   0.543   4.187  0.1916  0.2490 -0.0354
  523W        W 1520   0.975   7.583   2.139 -0.0299 -0.1692  0.3078
  524W        W 1521   3.193   7.100   0.570 -0.0492 -0.0560 -0.0240
  525W        W 1522   1.267   3.693   3.662  0.3139  0.0099  0.0011
  526W        W 1523   3.531   1.018   1.326  0.1648  0.2522  0.0426
  527W        W 1524   1.115   4.863   1.483 -0.0308  0.1830 -0.2040
  528W        W 1525   0.390   1.890   3.636  0.1948  0.2759 -0.1565
  529W        W 1526   0.497   6.567   6.346  0.0691  0.0531 -0.2084
  530W        W 1527   3.387   7.430   7.532  0.0607 -0.0400 -0.3197
  531W        W 1528   2.110   0.554   0.246  0.3299 -0.0873 -0.0754
  532W        W 1529   6.424   0.121   2.004  0.1219  0.0058 -0.0967
  533W        W 1530   0.445   2.820   0.088  0.0802 -0.0475 -0.3572
  534W        W 1531   4.568   3.177   1.536  0.0629 -0.2287  0.2273
  535W        W 1532   1.255   2.044   3.909  0.2423 -0.3973  0.1691
  536W        W 1533   4.532   3.223   2.918 -0.0123  0.0593 -0.0942
  537W        W 1534   0.679   2.466   1.364  0.1120 -0.0553 -0.2245
  538W        W 1535   1.534   4.807   6.710 -0.2305  0.0809  0.0480
  539W        W 1536   6.954   4.992   2.014  0.2358  0.1718  0.3447
  540W        W 1537   1.913   1.464   6.620  0.1259  0.1979 -0.0075
  541W        W 1538   6.364   5.167   4.655  0.4568 -0.0372  0.1278
  542W        W 1539   0.554   0.285   7.180  0.0949 -0.2674  0.0474
  543W        W 1540   4.796   2.370   3.756  0.2117 -0.2817  0.1578
  544W        W 1541   0.967   0.769   5.544  0.0403 -0.1274  0.2149
  545W        W 1542   3.354   1.743   0.480 -0.2113 -0.0220  0.0291
  546W        W 1543   0.747   5.322   0.218  0.2500 -0.2496  0.3299
  547W        W 1544   0.879   2.984   2.417 -0.1706 -0.0543  0.1352
  548W        W 1545   4.950   3.275   5.913  0.2984  0.1680  0.0067
  549W        W 1546   4.426   2.384   1.497 -0.2002  0.1740 -0.1495
  550W        W 1547   7.460   7.068   4.867 -0.4238 -0.0143 -0.1215
  551W        W 1548   2.266   6.396   1.945 -0.3069 -0.1275 -0.0244
  552W        W 1549   1.656   3.818   2.291 -0.2439 -0.5016 -0.3048
  553W        W 1550   0.297   5.507   5.477  0.1086  0.1166  0.0754
  554W        W 1551   0.460   4.791   0.405  0.0488 -0.1262 -0.0815
  555W        W 1552   1.520   0.653   2.417  0.1240 -0.2228 -0.0384
  556W        W 1553   2.715   3.185   5.974  0.0703 -0.0678  0.0559
  557W        W 1554   6.161   4.778   4.876  0.4062  0.0361  0.2582
  558W        W 1555   3.055   5.888   7.041 -0.0635  0.0902  0.2486
  559W        W 1556   1.337   7.024   6.701  0.0763 -0.1386  0.2506
  560W        W 1557   6.226   0.288   1.030  0.0774  0.3100 -0.1052
  561W        W 1558   5.096   5.826   0.448 -0.1220 -0.0111  0.1258
  562W        W 1559   7.477   3.491   3.632 -0.0971 -0.0054  0.3875
  563W        W 1560   0.711   6.903   1.770 -0.0995  0.0684  0.1457
  564W        W 1561   4.418   3.725   2.748  0.3895 -0.1402  0.0036
  565W        W 1562   6.497   4.019   1.600  0.2002  0.3207  0.0881
  566W        W 1563   7.227   4.769   6.079 -0.0319 -0.3653 -0.2351
  567W        W 1564   3.969   1.887   6.940 -0.0366  0.1709  0.4617
  568W        W 1565   4.016   7.201   5.007 -0.1964 -0.0709 -0.0666
  569W        W 1566   6.855   6.822   7.342  0.0704  0.0710  0.1826
  570W        W 1567   1.150   3.562   6.397 -0.2441 -0.1479 -0.0963
  571W        W 1568   2.815   5.442   0.155 -0.0461 -0.0455 -0.0101
  572W        W 1569   1.235   4.527   1.183 -0.1361 -0.2390  0.0671
  573W        W 1570   3.305   1.902   6.960 -0.2269 -0.3149 -0.0081
  574W        W 1571   0.365   5.285   2.341 -0.2927 -0.0391  0.0832
  575W        W 1572   6.959   0.921   2.215  0.0647  0.1543  0.0188
  576W        W 1573   0.606   1.297   0.829 -0.2230 -0.0728  0.0177
  577W        W 1574   2.916   0.469   1.906  0.0764  0.1309  0.1097
  578W        W 1575   5.569   3.984   5.768  0.0090 -0.0722  0.0542
  579W        W 1576   0.977   1.082   6.990  0.2623 -0.2538 -0.1100
  580W        W 1577   0.134   0.972   4.811  0.0038 -0.0757  0.2663
  581W        W 1578   4.477   3.525   5.194 -0.3647 -0.1178 -0.1429
  582W        W 1579   0.722   5.833   5.341  0.0650  0.0621  0.0355
  583W        W 1580   1.847   6.715   4.314  0.1911  0.1947  0.3548
  584W        W 1581   1.380   0.987   4.935 -0.1195  0.0392  0.3457
  585W        W 1582   5.825   0.608   3.449 -0.0369  0.2782 -0.3074
  586W        W 1583   6.441   5.034   3.843  0.1190 -0.0396  0.2408
  587W        W 1584   6.935   5.403   7.421 -0.0751 -0.1566 -0.2958
  588W        W 1585   7.432   5.451   7.383  0.2360  0.1780 -0.2895
  589W        W 1586   0.804   7.374   7.519 -0.0015  0.1250 -0.1169
  590W        W 1587   5.802   3.736   2.073  0.3972 -0.1848 -0.1922
  591W        W 1588   6.820   3.069   0.728 -0.0573 -0.2496 -0.1691
  592W        W 1589   6.127   5.988   4.165 -0.0520  0.3101  0.0580
  593W        W 1590   7.515   2.436   6.619  0.1413  0.0600 -0.1197
  594W        W 1591   7.066   1.820   1.122  0.0196  0.1701 -0.0243
  595W        W 1592   1.707   0.185   2.477 -0.3011 -0.0364  0.1836
  596W        W 1593   0.768   6.205   6.111  0.1052 -0.0794  0.4621
  597W        W 1594   7.491   0.701   6.164 -0.0641 -0.2705 -0.4041
  598W        W 1595   3.205   0.569   5.587  0.1347 -0.1677  0.1599
  599W        W 1596   4.460   4.653   7.072 -0.3522  0.2435  0.2352
  600W        W 1597   3.473   2.472   7.069 -0.0980 -0.0851 -0.0455
  601W        W 1598   7.628   7.022   0.327  0.0626 -0.2275 -0.1624
  602W        W 1599   2.948   1.672   1.255 -0.0018  0.1655  0.2824
  603W        W 1600   2.922   7.204   2.402  0.2430 -0.0633  0.2101
  604W        W 1601   2.404   1.821   7.255 -0.0924  0.1655 -0.2535
  605W        W 1602   7.071   0.100   3.294 -0.1418 -0.1802 -0.0508
  606W        W 1603   3.568   5.306   7.263  0.1418  0.0745 -0.0776
  607W        W 1604   0.983   3.280   4.951 -0.0701 -0.1290 -0.2487
  608W        W 1605   0.034   1.643   2.118 -0.2671  0.0353 -0.2281
  609W        W 1606   1.716   0.620   3.437  0.2202 -0.1902 -0.1339
  610W        W 1607   5.666   4.280   5.393 -0.0918  0.0894 -0.1133
  611W        W 1608   5.924   6.328   5.500 -0.1105  0.0559  0.1229
  612W        W 1609   1.769   2.564   0.285 -0.1542  0.1007  0.2886
  613W        W 1610   2.683   2.672   2.150 -0.3353  0.0824 -0.1857
  614W        W 1611   3.880   4.217   0.027 -0.0724  0.1293 -0.2728
  615W        W 1612   2.468   2.785   7.251 -0.0080  0.0564 -0.0474
  616W        W 1613   3.623   5.590   0.558 -0.0705  0.0235 -0.1196
  617W        W 1614   3.183   0.735   7.509 -0.1207  0.0302  0.0035
  618W        W 1615   5.806   4.353   3.574 -0.2386  0.0129 -0.0085
  619W        W 1616   0.417   7.100   5.564  0.0369 -0.0201  0.1057
  620W        W 1617   5.354   6.291   3.619 -0.0556 -0.0584 -0.2961
  621W        W 1618   5.996   5.496   3.801 -0.0600 -0.1931  0.0929
  622W        W 1619   5.015   5.062   4.920 -0.0710  0.1382 -0.0083
  623W        W 1620   4.147   6.355   3.814  0.1300  0.1358  0.1026
  624W        W 1621   4.797   4.281   7.165  0.1111  0.1729  0.1635
  625W        W 1622   5.023   7.160   0.754 -0.3175  0.1720  0.2118
  626W        W 1623   1.840   5.889   3.392 -0.0738  0.4591  0.1559
  627W        W 1624   4.229   1.428   5.129 -0.3362 -0.3561  0.2192
  628W        W 1625   5.326   4.379   2.519  0.1181  0.0043  0.0644
  629W        W 1626   7.400   1.055   4.450  0.1888  0.5516 -0.1180
  630W        W 1627   2.381   1.522   4.680  0.0599 -0.2409 -0.1298
  631W        W 1628   1.643   4.005   0.147 -0.0778  0.1354 -0.1705
  632W        W 1629   1.055   0.747   2.665  0.0200 -0.0353 -0.2742
  633W        W 1630   4.317   1.998   2.932 -0.1244 -0.1598 -0.0828
  634W        W 1631   5.670   1.981   1.788  0.2157  0.0136  0.0086
  635W        W 1632   1.255   2.545   2.449  0.0408 -0.2274 -0.4083
  636W        W 1633   6.593   1.858   3.193 -0.3585  0.1783  0.3060
  637W        W 1634   3.905   2.861   1.079 -0.1138 -0.0837  0.0596
  638W        W 1635   2.711   0.731   5.564  0.1074 -0.1250 -0.2614
  639W        W 1636   4.637   4.539   1.697  0.1182  0.1824  0.0063
  640W        W 1637   2.211   1.099   0.173  0.2344  0.4309 -0.1404
  641W        W 1638   1.515   6.088   6.757  0.2523 -0.0435  0.2155
  642W        W 1639   0.343   4.895   2.010 -0.0007 -0.0448 -0.2691
  643W        W 1640   6.791   5.041   3.477  0.1308 -0.2729  0.0168
  644W        W 1641   2.276   2.084   5.549 -0.1600  0.0391 -0.0142
  645W        W 1642   2.178   1.150   0.691 -0.1715  0.3473  0.2599
  646W        W 1643   7.444   4.108   1.897  0.1936  0.0441  0.1666
  647W        W 1644   3.703   2.528   0.776 -0.1238 -0.4033 -0.0833
  648W        W 1645   0.854   1.602   2.599  0.0729 -0.0033 -0.1248
  649W        W 1646   4.073   1.225   7.372 -0.1411 -0.0184  0.0895
  650W        W 1647   4.925   0.172   4.040 -0.0117  0.0276 -0.1321
  651W        W 1648   0.437   7.296   6.050 -0.1009 -0.2355 -0.0722
  652W        W 1649   5.789   5.135   4.701 -0.1282 -0.0190 -0.0693
  653W        W 1650   4.213   2.239   6.486  0.1951 -0.2008 -0.2597
  654W        W 1651   2.118   6.829   6.046  0.3565 -0.2613  0.0661
  655W        W 1652   1.000   4.797   3.205  0.0907  0.0174 -0.0624
  656W        W 1653   3.332   1.811   7.619  0.0846  0.1885  0.0941
  657W        W 1654   2.781   4.470   6.557  0.2577  0.0421  0.0208
  658W        W 1655   1.901   0.931   5.883  0.3856  0.2196  0.3895
  659W        W 1656   1.030   7.032   3.158  0.1476  0.3014 -0.0936
  660W        W 1657   6.630   3.147   6.412 -0.2567 -0.0819 -0.4752
  661W        W 1658   5.920   6.791   1.913  0.3983 -0.0610  0.1592
  662W        W 1659   2.758   2.429   0.032  0.0532  0.0847  0.3401
  663W        W 1660   0.775   7.380   1.524  0.3763  0.2927 -0.2331
  664W        W 1661   1.412   1.894   6.123 -0.0688  0.0875  0.1665
  665W        W 1662   6.840   3.969   0.731 -0.0650 -0.1590 -0.1517
  666W        W 1663   7.492   4.867   6.628  0.2838  0.0912 -0.0880
  667W        W 1664   2.023   1.392   5.585  0.3938  0.0157  0.4397
  668W        W 1665   1.369   7.640   2.853 -0.0323 -0.1806 -0.3172
  669W        W 1666   0.051   7.311   5.327 -0.0836 -0.2429 -0.1993
  670W        W 1667   7.460   5.984   1.220  0.1039 -0.1446  0.2195
  671W        W 1668   7.291   6.920   5.926  0.0180 -0.0506 -0.3538
  672W        W 1669   6.801   6.634   2.244 -0.1927 -0.1506 -0.3464
  673W        W 1670   3.270   0.247   2.147 -0.2022 -0.0610  0.1901
  674W        W 1671   7.188   1.136   1.381 -0.1091  0.1105 -0.1210
  675W        W 1672   5.203   3.380   1.497 -0.3170 -0.2647  0.0149
  676W        W 1673   7.360   6.334   4.453 -0.0751 -0.0548 -0.1205
  677W        W 1674   1.547   5.387   5.014 -0.1859  0.1867 -0.1871
  678W        W 1675   6.924   2.762   5.176  0.1604  0.1906  0.4541
  679W        W 1676   0.534   0.506   5.364  0.3488 -0.2887  0.0629
  680W        W 1677   0.934   5.226   1.148 -0.0793  0.2768 -0.0476
  681W        W 1678   4.050   2.329   6.952 -0.1139 -0.0767 -0.0521
  682W        W 1679   6.466   1.921   4.308  0.4519 -0.2342  0.1411
  683W        W 1680   1.005   6.367   4.182  0.3339  0.0143 -0.1002
  684W        W 1681   3.364   0.070   6.341  0.1619 -0.0161  0.0466
  685W        W 1682   1.785   1.068   7.008 -0.0195 -0.2322 -0.1515
  686W        W 1683   4.664   4.589   5.588  0.2266 -0.0920 -0.0489
  687W        W 1684   4.736   2.784   0.635 -0.3748  0.0685  0.0107
  688W        W 1685   6.466   5.583   2.534 -0.1293 -0.2387  0.0094
  689W        W 1686   0.623   2.651   0.658 -0.0885 -0.1835 -0.0987
  690W        W 1687   2.387   3.939   0.310  0.0416  0.2683  0.1380
  691W        W 1688   4.463   2.486   7.217  0.2049 -0.0323  0.3357
  692W        W 1689   4.232   4.300   5.501  0.2249 -0.1202 -0.2622
  693W        W 1690   6.805   3.263   5.917  0.0256  0.2403  0.0737
  694W        W 1691   1.786   2.156   6.428 -0.1051 -0.0495  0.1320
  695W        W 1692   0.265   5.139   6.605 -0.0069  0.2246  0.2046
  696W        W 1693   0.522   2.176   0.526  0.1378 -0.0153  0.2953
  697W        W 1694   4.711   6.113   0.751  0.0138  0.0556  0.0409
  698W        W 1695   1.424   2.123   4.935 -0.1107 -0.2240  0.0631
  699W        W 1696   4.902   7.109   3.848  0.1116  0.0389 -0.2864
  700W        W 1697   0.510   3.269   4.658 -0.1481  0.0158 -0.0327
  701W        W 1698   5.100   6.299   5.915 -0.3197 -0.1202 -0.0251
  702W        W 1699   1.941   2.813   7.312  0.1165  0.2757 -0.5908
  703W        W 1700   6.318   5.340   0.325 -0.0027  0.1664  0.0085
  704W        W 1701   3.518   2.364   2.241  0.2751 -0.2942 -0.2722
  705W        W 1702   2.566   3.917   6.632  0.0480  0.2386 -0.2207
  706W        W 1703   3.034   6.190   1.450  0.0507  0.2218 -0.0893
  707W        W 1704   5.109   4.531   5.850  0.0247  0.1079 -0.0510
  708W        W 1705   5.546   6.576   0.112 -0.1190  0.0116 -0.1580
  709W        W 1706   4.673   3.003   6.939  0.0542  0.1241 -0.1080
  710W        W 1707   5.800   4.625   0.597 -0.1340  0.2001  0.0517
  711W        W 1708   1.776   5.743   1.579 -0.3213 -0.2250 -0.3026
  712W        W 1709   6.655   0.690   0.393 -0.3436  0.0326  0.3214
  713W        W 1710   7.162   2.321   5.237 -0.1284 -0.0548  0.0360
  714W        W 1711   1.451   2.554   5.484  0.2366 -0.1780  0.0603
  715W        W 1712   4.158   0.259   5.728  0.2474 -0.5470 -0.0073
  716W        W 1713   0.245   1.123   4.291  0.0587  0.3397  0.1075
  717W        W 1714   0.569   5.089   0.772  0.1916 -0.3724  0.2948
  718W        W 1715   6.861   6.230   1.790  0.0380  0.1445  0.0643
  719W        W 1716   1.903   3.630   7.086 -0.0300 -0.4527  0.1191
  720W        W 1717   2.510   4.893   0.964 -0.0903  0.0079 -0.1517
  721W        W 1718   2.162   1.864   6.318  0.2395 -0.0760  0.0633
  722W        W 1719   6.472   4.822   3.113 -0.0005  0.0734 -0.0415
  723W        W 1720   5.685   4.382   0.137  0.1627 -0.1668 -0.2767
  724W        W 1721   7.504   6.731   3.610 -0.1005 -0.1369 -0.1424
  725W        W 1722   2.307   5.953   7.163 -0.1521  0.0762 -0.1930
  726W        W 1723   7.020   1.880   4.487 -0.0724  0.1499  0.0297
  727W        W 1724   7.029   1.991   2.930  0.1546 -0.1085  0.0141
  728W        W 1725   4.380   7.393   1.648  0.3777  0.0398  0.1237
  729W        W 1726   4.503   4.121   1.960  0.3242  0.1310  0.0664
  730W        W 1727   2.843   7.663   5.080 -0.0010  0.3779 -0.0601
  731W        W 1728   0.025   3.136   4.645 -0.0507  0.1924  0.2651
  732W        W 1729   6.064   3.739   1.626 -0.1057 -0.1350 -0.4981
  733W        W 1730   5.229   5.663   0.006  0.0242 -0.1398  0.1215
  734W        W 1731   7.621   0.664   0.555 -0.1354 -0.1493  0.0360
  735W        W 1732   4.298   5.774   5.183 -0.0733  0.1856 -0.1034
  736W        W 1733   1.528   0.574   2.960  0.2414  0.2340  0.1413
  737W        W 1734   2.955   3.562   6.789 -0.0046  0.0469 -0.1312
  738W        W 1735   3.835   4.061   5.746  0.1763 -0.1322 -0.0415
  739W        W 1736   4.430   6.631   5.687 -0.1160 -0.0475  0.1378
  740W        W 1737   1.784   1.852   1.055  0.0419 -0.0058  0.2816
  741W        W 1738   1.100   3.288   1.858 -0.3264 -0.0483 -0.2207
  742W        W 1739   5.025   3.502   2.593  0.6514 -0.1648  0.0104
  743W        W 1740   5.402   4.363   7.320  0.0176  0.1551  0.3430
  744W        W 1741   6.991   6.379   4.789  0.0402 -0.1434 -0.2397
  745W        W 1742   1.656   6.675   1.654 -0.1932 -0.1505  0.0809
  746W        W 1743   0.291   4.356   3.362  0.0355  0.0146 -0.0488
  747W        W 1744   2.000   7.627   1.482 -0.0311 -0.1841  0.0299
  748W        W 1745   2.698   2.167   1.111 -0.1003  0.0009  0.0551
  749W        W 1746   6.974   3.260   2.217  0.3592  0.0928 -0.3878
  750W        W 1747   1.977   2.591   6.898  0.0702  0.0858  0.0200
  751W        W 1748   3.349   4.294   0.412  0.0724 -0.1406 -0.1355
  752W        W 1749   6.297   3.337   1.492 -0.3014  0.0466  0.3902
  753W        W 1750   0.305   2.373   5.614  0.0914 -0.2463  0.1414
  754W        W 1751   2.515   0.769   0.581  0.4314  0.3025 -0.4557
  755W        W 1752   2.323   1.741   1.883 -0.0691  0.0021  0.0345
  756W        W 1753   0.814   4.468   0.005  0.1831 -0.0728 -0.0472
  757W        W 1754   0.547   0.037   1.207  0.3369  0.0786  0.0514
  758W        W 1755   4.645   2.753   1.807  0.5632 -0.1481 -0.0501
  759W        W 1756   3.569   5.914   3.443  0.0039  0.1850 -0.0295
  760W        W 1757   1.005   4.810   2.721  0.3184  0.0271  0.0626
  761W        W 1758   1.525   6.906   1.212 -0.1605  0.3119 -0.1021
  762W        W 1759   4.391   6.907   1.549 -0.2514 -0.3058  0.0220
  763W        W 1760   6.268   3.233   3.933  0.3911  0.1127  0.2120
  764W        W 1761   7.422   7.606   5.002  0.0835  0.0216  0.0090
  765W        W 1762   1.203   7.427   7.210  0.0049 -0.2183  0.1712
  766W        W 1763   4.583   4.436   2.865  0.1519  0.0768  0.0904
  767W        W 1764   5.925   2.984   1.392 -0.1273  0.0655 -0.0140
  768W        W 1765   3.766   5.255   6.246 -0.1020 -0.0852  0.2539
  769W        W 1766   0.986   3.380   2.796 -0.0440 -0.2641 -0.0990
  770W        W 1767   2.856   6.830   7.471  0.0723  0.1834 -0.2211
  771W        W 1768   5.448   0.998   1.092 -0.0156  0.0993  0.0393
  772W        W 1769   7.105   6.141   5.325  0.4284 -0.2706  0.1817
  773W        W 1770   6.501   6.952   3.523  0.1670  0.0684  0.0490
  774W        W 1771   1.430   0.715   1.683  0.1316 -0.1383 -0.1627
  775W        W 1772   7.450   6.966   7.106 -0.5412  0.1862  0.0204
  776W        W 1773   0.064   2.343   0.750 -0.2475  0.1409  0.3987
  777W        W 1774   1.121   6.868   5.920  0.2080  0.1036  0.2057
  778W        W 1775   7.423   7.030   1.771  0.1527  0.0456 -0.2800
  779W        W 1776   3.228   4.220   6.224 -0.1058  0.1289 -0.0532
  780W        W 1777   7.284   3.099   1.724  0.0146  0.0384  0.0367
  781W        W 1778   2.160   3.724   5.351  0.1455 -0.1008 -0.0688
  782W        W 1779   7.276   4.878   5.577  0.0325  0.1365 -0.0869
  783W        W 1780   2.463   6.738   1.633 -0.3504  0.0020  0.1440
  784W        W 1781   7.073   3.736   5.852 -0.2121 -0.3231  0.2959
  785W        W 1782   5.203   5.350   0.542  0.0961  0.1345 -0.1596
  786W        W 1783   1.755   0.091   0.930 -0.1239 -0.1272  0.0473
  787W        W 1784   1.361   3.196   0.411 -0.2851  0.0487 -0.3051
  788W        W 1785   3.664   7.037   0.224  0.1488 -0.4535 -0.3356
  789W        W 1786   6.935   5.484   0.317  0.2300 -0.1957  0.0539
  790W        W 1787   6.110   7.577   3.934  0.1742 -0.1078  0.0954
  791W        W 1788   0.376   0.012   5.087  0.2303 -0.1676 -0.0831
  792W        W 1789   4.314   1.539   1.684 -0.1249 -0.2334 -0.2383
  793W        W 1790   4.883   2.840   5.085 -0.1669  0.0435 -0.1220
  794W        W 1791   1.776   4.821   1.472  0.2219 -0.2822 -0.0674
  795W        W 1792   2.347   6.176   0.026 -0.0103  0.1986 -0.2594
  796W        W 1793   4.213   7.389   7.421  0.0146  0.1223 -0.3031
  797W        W 1794   2.286   2.697   0.071 -0.3852  0.2114  0.1598
  798W        W 1795   4.400   6.381   1.424 -0.1060 -0.0293 -0.1910
  799W        W 1796   2.521   7.243   1.223  0.0390 -0.0729  0.1070
  800W        W 1797   0.215   6.301   6.699 -0.1853 -0.0805  0.0563
  801W        W 1798   2.160   6.658   2.439  0.3266 -0.0994  0.0769
  802W        W 1799   0.503   6.802   2.204  0.2071  0.2200 -0.0519
  803W        W 1800   4.139   5.085   7.137 -0.4642 -0.0042 -0.2489
  804W        W 1801   1.090   1.478   3.895  0.0047 -0.1710 -0.0659
  805W        W 1802   0.947   0.297   2.951 -0.4232 -0.0500  0.0154
  806W        W 1803   3.435   3.921   7.245  0.1322 -0.0074 -0.2834
  807W        W 1804   0.953   3.550   0.274 -0.1657  0.0836  0.0636
  808W        W 1805   7.136   1.789   2.002  0.1743  0.0700  0.2135
  809W        W 1806   2.650   7.662   7.289 -0.1392  0.1498  0.0639
  810W        W 1807   6.566   1.749   1.337  0.0017  0.1958  0.1477
  811W        W 1808   1.947   5.742   5.752  0.2083 -0.5926 -0.0427
  812W        W 1809   0.443   1.452   0.389  0.2088 -0.0073  0.0693
  813W        W 1810   1.612   6.037   7.592  0.0983  0.4677 -0.0830
  814W        W 1811   2.211   2.599   2.331  0.0605  0.1713  0.0548
  815W        W 1812   1.799   4.994   4.946  0.0492  0.1520  0.5628
  816W        W 1813   1.558   2.382   5.922 -0.2263  0.3880 -0.0796
  817W        W 1814   1.309   5.581   6.648  0.0377  0.0939 -0.0045
  818W        W 1815   5.444   6.742   0.740  0.2142 -0.2193 -0.0577
  819W        W 1816   3.052   2.050   0.263  0.1616 -0.0930  0.0286
  820W        W 1817   1.317   3.792   1.924  0.1864  0.1432 -0.2238
  821W        W 1818   4.627   4.573   6.087 -0.1764 -0.0118  0.0999
  822W        W 1819   3.011   6.334   0.657  0.3595 -0.1285 -0.1382
  823W        W 1820   1.085   3.892   2.347  0.2350 -0.0122  0.1636
  824W        W 1821   0.208   1.940   5.793  0.2472 -0.1700 -0.1048
  825W        W 1822   7.499   1.882   4.477 -0.0400  0.0466  0.0765
  826W        W 1823   7.294   0.133   3.747  0.0019 -0.1120  0.2081
  827W        W 1824   4.203   3.797   2.291 -0.0527  0.3354 -0.2872
  828W        W 1825   5.876   6.967   4.861 -0.1674 -0.2520  0.1032
  829W        W 1826   6.347   0.091   3.024 -0.2661 -0.0307  0.1580
  830W        W 1827   0.681   5.077   5.401  0.0706  0.0520 -0.1797
  831W        W 1828   3.333   3.524   0.782 -0.1084  0.2077 -0.0182
  832W        W 1829   3.982   0.910   4.226  0.0585  0.4433  0.0267
  833W        W 1830   4.499   6.157   4.851  0.2492  0.2426 -0.1227
  834W        W 1831   5.331   7.438   1.548 -0.0806 -0.0106  0.2465
  835W        W 1832   2.917   6.401   6.307  0.1629  0.3815 -0.0479
  836W        W 1833   1.611   2.433   2.145 -0.0475  0.0720 -0.0984
  837W        W 1834   5.959   2.858   3.118  0.1678 -0.1470 -0.1136
  838W        W 1835   5.861   6.417   4.172  0.0601 -0.0301  0.0800
  839W        W 1836   4.072   7.430   6.604 -0.1728  0.1418 -0.0526
  840W        W 1837   4.063   5.936   0.575  0.1945  0.2858  0.0335
  841W        W 1838   4.546   7.036   0.649  0.0637  0.0312  0.1158
  842W        W 1839   0.080   7.013   2.267  0.1294 -0.1661 -0.0074
  843W        W 1840   3.321   6.935   7.394 -0.0058 -0.2203  0.2536
  844W        W 1841   7.641   5.953   3.711 -0.1456 -0.0714 -0.5018
  845W        W 1842   0.092   7.365   1.825 -0.2593  0.0343  0.1006
  846W        W 1843   1.901   0.502   2.079  0.0686  0.1346 -0.1310
  847W        W 1844   4.460   3.176   6.556  0.0238  0.1161  0.0119
  848W        W 1845   0.303   0.137   6.009  0.0277  0.0300  0.3158
  849W        W 1846   2.353   3.051   2.267 -0.2147 -0.2251  0.1138
  850W        W 1847   4.177   5.164   2.097  0.1249  0.2480  0.1221
  851W        W 1848   6.913   3.594   1.535  0.3779  0.0992  0.2747
  852W        W 1849   3.742   0.744   4.657  0.3643 -0.0467  0.0612
  853W        W 1850   1.122   6.028   1.022 -0.2050 -0.0992 -0.0730
  854W        W 1851   0.109   6.932   6.179 -0.1474 -0.0909  0.0795
  855W        W 1852   6.796   5.378   4.714  0.1379 -0.0811 -0.1079
  856W        W 1853   2.126   4.232   7.640  0.1277 -0.0779 -0.2043
  857W        W 1854   4.445   1.886   0.163 -0.1002 -0.0874  0.1946
  858W        W 1855   4.170   4.869   0.687 -0.1927  0.0649  0.1622
  859W        W 1856   4.737   7.572   7.478 -0.1413  0.1453  0.2289
  860W        W 1857   3.702   6.325   1.971  0.1747 -0.0744 -0.0426
  861W        W 1858   2.740   1.817   4.850  0.2617 -0.0435  0.0126
  862W        W 1859   7.491   2.543   3.269 -0.1090 -0.3273  0.2528
  863W        W 1860   0.827   6.031   7.104  0.1443  0.0275 -0.0356
  864W        W 1861   0.692   4.343   3.768 -0.0904  0.2894  0.0632
  865W        W 1862   1.524   1.494   7.077 -0.2785  0.1116 -0.2260
  866W        W 1863   5.020   6.717   2.082 -0.1869  0.1615 -0.0055
  867W        W 1864   2.974   0.484   0.755 -0.3485 -0.1291 -0.3638
  868W        W 1865   6.558   3.111   2.477 -0.0001 -0.0258 -0.2757
  869W        W 1866   1.806   5.630   6.639 -0.1883 -0.0057  0.0880
  870W        W 1867   4.832   1.288   2.514 -0.0284  0.0501 -0.0752
  871W        W 1868   2.692   3.034   1.782 -0.1805 -0.1970 -0.0484
  872W        W 1869   4.358   5.722   4.656  0.4485  0.1502  0.1076
  873W        W 1870   3.320   4.744   6.221 -0.0397  0.0945  0.2437
  874W        W 1871   4.816   1.452   1.579  0.0201 -0.2694 -0.1033
  875W        W 1872   2.903   1.167   5.419  0.0522  0.2987  0.0625
  876W        W 1873   1.423   1.027   7.361 -0.0828 -0.4393  0.0858
  877W        W 1874   5.258   5.508   3.089 -0.1908  0.2711  0.1434
  878W        W 1875   1.794   5.328   7.393 -0.2799  0.1091 -0.0387
  879W        W 1876   7.185   6.340   0.962  0.0339  0.0033  0.2031
  880W        W 1877   1.811   0.986   6.445 -0.1031  0.3213 -0.3069
  881W        W 1878   5.770   2.901   2.628  0.0384  0.0245 -0.1623
  882W        W 1879   0.933   3.619   4.557 -0.1144  0.1276 -0.3122
  883W        W 1880   2.877   5.519   5.527  0.3327 -0.1075 -0.0356
  884W        W 1881   0.476   4.250   4.198  0.3694 -0.0975 -0.3723
  885W        W 1882   0.057   3.197   6.200 -0.1336  0.0326  0.1936
  886W        W 1883   0.212   5.456   7.082  0.0604 -0.3951  0.1427
  887W        W 1884   4.955   6.604   3.914  0.1858  0.2831 -0.0881
  888W        W 1885   5.434   5.606   6.335  0.0389  0.0645  0.4976
  889W        W 1886   1.205   7.642   0.135  0.1203  0.0825  0.2118
  890W        W 1887   5.221   4.657   1.096  0.2019  0.0752  0.2067
  891W        W 1888   1.305   1.579   1.848 -0.0131  0.0731  0.2063
  892W        W 1889   5.433   0.049   2.156 -0.0623  0.0129 -0.1349
  893W        W 1890   3.737   1.662   4.862  0.2704 -0.1602  0.0377
  894W        W 1891   5.371   6.436   4.131 -0.0337 -0.2076 -0.0277
  895W        W 1892   3.966   2.104   6.079  0.0983  0.0268 -0.3140
  896W        W 1893   1.262   2.658   0.265 -0.5320  0.3548  0.2177
  897W        W 1894   0.602   1.649   4.837  0.3177  0.0084  0.2085
  898W        W 1895   1.363   6.698   2.457 -0.1591 -0.0258 -0.1424
  899W        W 1896   5.656   1.602   1.437  0.1003 -0.1228 -0.0532
  900W        W 1897   6.522   2.768   2.058 -0.1081  0.0159 -0.2367
  901W        W 1898   5.179   6.870   4.310 -0.1873 -0.1861  0.0044
  902W        W 1899   6.180   3.634   3.147 -0.1138 -0.1612 -0.0784
  903W        W 1900   2.678   5.557   7.057  0.0278  0.1490 -0.3159
  904W        W 1901   0.917   6.469   1.628 -0.1358  0.0128  0.2084
  905W        W 1902   6.017   3.973   5.020 -0.1771  0.0407 -0.3688
  906W        W 1903   1.417   0.220   7.280  0.0450  0.0103  0.1772
  907W        W 1904   2.887   2.432   0.687 -0.0114 -0.0101 -0.0838
  908W        W 1905   0.450   2.493   2.946 -0.1040 -0.1389 -0.0877
  909W        W 1906   0.416   4.857   2.606 -0.1172 -0.0414 -0.1574
  910W        W 1907   1.609   1.192   1.472  0.3228  0.1192 -0.0798
  911W        W 1908   5.988   2.805   5.169 -0.3279 -0.2524 -0.0891
  912W        W 1909   0.896   6.529   2.302 -0.0561 -0.0031  0.0730
  913W        W 1910   7.346   3.572   5.442  0.1577  0.0420 -0.0050
  914W        W 1911   4.023   1.747   6.446  0.0974 -0.1234 -0.1697
  915W        W 1912   3.700   6.548   5.894 -0.1623 -0.2023  0.1006
  916W        W 1913   3.079   4.223   7.583  0.1200  0.0314  0.2754
  917W        W 1914   5.835   1.548   3.769 -0.0222  0.1281 -0.0814
  918W        W 1915   0.984   1.364   0.266  0.3030 -0.0033  0.2231
  919W        W 1916   4.733   2.096   3.302  0.1559  0.1013  0.1709
  920W        W 1917   3.504   5.658   6.901  0.1883  0.0818  0.2205
  921W        W 1918   1.209   0.266   2.501  0.2186 -0.2949  0.0120
  922W        W 1919   2.268   0.629   4.764 -0.0399  0.0535  0.2011
  923W        W 1920   2.952   4.938   5.425 -0.0271 -0.0770 -0.3576
  924W        W 1921   0.023   2.294   5.110  0.3273 -0.1771 -0.0721
  925W        W 1922   0.492   3.043   5.869 -0.1580 -0.0458 -0.2073
  926W        W 1923   6.049   6.203   1.839  0.1997  0.2567  0.2971
  927W        W 1924   1.702   7.189   5.824 -0.2461 -0.0175  0.0305
  928W        W 1925   7.061   3.311   3.370  0.0368  0.1134 -0.2618
  929W        W 1926   0.361   6.857   7.016 -0.1565  0.0495 -0.0154
  930W        W 1927   1.136   0.507   5.942  0.0086 -0.2496  0.0738
  931W        W 1928   4.038   4.764   5.578 -0.4347  0.0626  0.3501
  932W        W 1929   0.916   6.847   5.433  0.2112 -0.3741  0.2733
  933W        W 1930   3.690   6.470   1.463  0.0880 -0.0263 -0.0693
  934W        W 1931   1.368   4.519   3.401 -0.1390  0.1289  0.1681
  935W        W 1932   4.513   2.009   7.335  0.0354 -0.2700  0.1541
  936W        W 1933   6.567   5.781   0.585  0.1610 -0.2572  0.2530
  937W        W 1934   6.539   2.244   7.321 -0.0135 -0.2150 -0.2269
  938W        W 1935   6.473   6.532   7.237 -0.2186  0.4720  0.2162
  939W        W 1936   4.051   6.881   3.652 -0.1476 -0.2436  0.2577
  940W        W 1937   1.970   6.566   6.532 -0.0403  0.1691  0.0839
  941W        W 1938   3.089   7.461   1.448 -0.0611  0.0748 -0.0954
  942W        W 1939   1.962   0.962   3.064  0.1738  0.2347 -0.3174
  943W        W 1940   3.015   3.128   5.333 -0.0113  0.1176 -0.0041
  944W        W 1941   1.679   6.820   3.015  0.0469  0.0287  0.2070
  945W        W 1942   2.078   5.262   1.653 -0.2391 -0.0525 -0.1995
  946W        W 1943   7.487   7.397   4.534  0.0957 -0.0632  0.1012
  947W        W 1944   1.205   4.503   6.593  0.0406 -0.3253  0.0107
  948W        W 1945   6.756   3.482   5.461 -0.4443 -0.2281  0.2387
  949W        W 1946   2.097   7.103   3.008  0.0808 -0.1465 -0.0503
  950W        W 1947   6.539   2.652   6.394  0.2364 -0.2805  0.2261
  951W        W 1948   3.056   4.849   1.111  0.0657 -0.0607  0.2870
  952W        W 1949   3.047   4.113   1.763  0.0905  0.0796 -0.0058
  953W        W 1950   4.075   1.120   1.733 -0.4034  0.1731 -0.0396
  954W        W 1951   5.365   0.706   3.839  0.1413 -0.0549 -0.3359
  955W        W 1952   4.145   6.450   7.125  0.0318  0.0330  0.3435
  956W        W 1953   4.942   7.525   2.953 -0.0538 -0.1829 -0.0905
  957W        W 1954   6.835   3.026   0.087 -0.0111  0.1355  0.0067
  958W        W 1955   1.370   3.557   1.459 -0.2180  0.3429 -0.1132
  959W        W 1956   3.169   6.463   5.835 -0.0560  0.0188 -0.3893
  960W        W 1957   3.509   6.104   1.232 -0.0400 -0.1278  0.0120
  961W        W 1958   0.793   4.696   6.325 -0.0282  0.1276 -0.2725
  962W        W 1959   6.909   1.668   0.497 -0.2736 -0.1735 -0.0032
  963W        W 1960   0.986   2.254   0.539  0.2003 -0.1597 -0.3429
  964W        W 1961   1.343   0.613   0.791 -0.3434  0.0548  0.2275
  965W        W 1962   4.023   5.960   2.550 -0.1607 -0.0635 -0.2168
  966W        W 1963   0.754   5.405   2.661 -0.1006  0.2773  0.0659
  967W        W 1964   4.956   4.530   4.804 -0.0768  0.4016 -0.0535
  968W        W 1965   7.418   1.459   5.116 -0.1830  0.1792 -0.0531
  969W        W 1966   3.232   3.031   7.646 -0.2093 -0.0609  0.0548
  970W        W 1967   7.663   5.677   2.530 -0.2624 -0.1055 -0.1143
  971W        W 1968   6.894   3.537   0.488  0.1725 -0.2114 -0.0257
  972W        W 1969   0.502   2.403   5.144 -0.1767  0.2204  0.4140
  973W        W 1970   2.401   6.692   7.616 -0.0002  0.0113  0.2597
  974W        W 1971   3.690   2.944   1.929  0.1069 -0.0063  0.2369
  975W        W 1972   6.488   1.883   2.612  0.1652 -0.1016 -0.2867
  976W        W 1973   1.775   0.177   7.655  0.1868 -0.0610  0.4024
  977W        W 1974   2.266   1.065   6.798  0.3074  0.2345  0.2096
  978W        W 1975   3.624   3.510   1.620  0.0579 -0.0868 -0.2848
  979W        W 1976   0.014   2.744   5.911  0.2195  0.1379  0.1818
  980W        W 1977   0.173   4.016   5.957  0.1978 -0.2465 -0.0695
  981W        W 1978   4.475   0.873   0.977 -0.1682  0.2762 -0.0267
  982W        W 1979   0.317   2.834   1.458 -0.1056 -0.2393 -0.2454
  983W        W 1980   5.591   2.143   1.288  0.0373 -0.0976  0.2728
  984W        W 1981   2.516   0.716   7.648 -0.2048 -0.2832  0.1654
  985W        W 1982   7.483   4.241   2.886 -0.0119 -0.0132  0.3460
  986W        W 1983   7.201   6.895   3.041  0.0510  0.2037 -0.1712
  987W        W 1984   6.683   4.032   3.632  0.0237 -0.2021  0.1576
  988W        W 1985   5.052   2.591   0.216 -0.1832 -0.0621  0.0896
  989W        W 1986   4.152   3.844   0.805  0.0000  0.2587  0.2033
  990W        W 1987   3.726   3.755   7.662  0.0469 -0.1725 -0.0673
  991W        W 1988   5.262   4.194   1.298 -0.0456  0.1932 -0.0054
  992W        W 1989   2.990   6.906   6.965  0.6052 -0.0464 -0.2349
  993W        W 1990   4.273   2.735   6.776 -0.0401 -0.4351 -0.3656
  994W        W 1991   2.697   2.145   5.216  0.2313 -0.0637  0.2397
  995W        W 1992   4.080   3.297   1.394 -0.2416  0.0315  0.3597
  996W        W 1993   0.745   0.092   0.242 -0.0460  0.0845  0.3282
  997W        W 1994   3.030   2.835   5.710 -0.2501 -0.2192 -0.2125
  998W        W 1995   1.208   4.981   7.065 -0.3939  0.1070  0.1317
  999W        W 1996   5.157   0.873   2.724  0.0365  0.0893 -0.0838
 1000W        W 1997   5.927   1.621   2.398 -0.0454  0.1233  0.0373
 1001W        W 1998   5.312   6.252   4.631 -0.0043 -0.0267 -0.3743
 1002W        W 1999   7.530   0.227   0.857 -0.2551  0.1497 -0.1470
 1003W        W 2000   3.581   5.445   5.348  0.1107  0.0724  0.0640
 1004W        W 2001   2.860   6.842   5.343 -0.2555  0.0242 -0.2388
 1005W        W 2002   1.789   6.956   2.510 -0.1417  0.1139 -0.3604
 1006W        W 2003   3.883   4.721   1.230 -0.1127 -0.2337  0.1054
 1007W        W 2004   3.821   4.826   2.262  0.1687 -0.0716  0.0405
 1008W        W 2005   4.685   4.151   5.193 -0.3553  0.1731 -0.2369
 1009W        W 2006   5.227   5.582   5.169 -0.3804 -0.1514 -0.0486
 1010W        W 2007   3.638   6.872   2.068 -0.1346 -0.0341 -0.0448
 1011W        W 2008   1.839   7.462   2.733 -0.0788  0.1016  0.2851
 1012W        W 2009   5.087   0.149   4.552 -0.0328  0.0827 -0.1083
 1013W        W 2010   5.086   5.893   1.356 -0.0015 -0.0086 -0.0100
 1014W        W 2011   2.166   2.953   5.752 -0.0190  0.0009 -0.2909
 1015W        W 2012   0.070   0.091   6.936  0.2736  0.2712 -0.0725
 1016W        W 2013   2.115   4.915   6.805 -0.2897 -0.0017 -0.0001
 1017W        W 2014   0.918   3.877   5.787 -0.0781  0.3111  0.1197
 1018W        W 2015   7.545   2.754   7.321  0.2626 -0.1279 -0.0193
 1019W        W 2016   1.639   1.233   5.291  0.2940  0.0602  0.2795
 1020W        W 2017   1.333   1.823   1.339 -0.0702 -0.2997  0.2222
 1021W        W 2018   4.141   2.758   0.058  0.4287 -0.1071 -0.2267
 1022W        W 2019   0.493   1.917   2.127 -0.0088 -0.2068 -0.1321
 1023W        W 2020   5.976   5.146   7.571 -0.3841  0.3055 -0.0447
 1024W        W 2021   1.399   4.344   1.703 -0.1423  0.0214  0.3735
 1025W        W 2022   3.394   7.360   2.297 -0.0407 -0.0697  0.1780
 1026W        W 2023   1.832   1.692   2.700 -0.1143  0.0318  0.2088
 1027W        W 2024   3.141   6.388   6.855 -0.1887 -0.1380  0.1191
 1028W        W 2025   6.703   3.539   4.935  0.2486 -0.1540 -0.1258
 1029W        W 2026   4.118   0.501   1.031  0.0720 -0.1825  0.0927
 1030W        W 2027   7.167   1.910   4.965 -0.2844  0.1343  0.0862
 1031W        W 2028   4.082   2.249   7.523  0.2611 -0.4204 -0.4025
 1032W        W 2029   4.794   6.347   6.455 -0.1516 -0.1003  0.3536
 1033W        W 2030   0.550   7.520   3.457  0.1361  0.0755  0.1535
 1034W        W 2031   0.525   1.073   5.652 -0.1879  0.1771 -0.2518
 1035W        W 2032   2.433   2.294   6.507  0.0976 -0.1769  0.0701
 1036W        W 2033   6.417   0.685   3.869  0.2893 -0.3095 -0.0471
 1037W        W 2034   4.134   2.022   1.735 -0.2907 -0.3326  0.4559
 1038W        W 2035   2.276   5.357   0.978 -0.0275 -0.0286  0.2138
 1039W        W 2036   6.502   5.523   7.135 -0.0200 -0.0658 -0.0395
 1040W        W 2037   0.383   3.508   5.946  0.0325 -0.0631 -0.2076
 1041W        W 2038   2.048   1.168   4.916  0.2345  0.3373 -0.1039
 1042W        W 2039   4.432   4.649   4.459 -0.2809  0.0133 -0.0290
 1043W        W 2040   1.058   1.138   1.807 -0.0445  0.0497 -0.2662
 1044W        W 2041   2.093   4.346   5.669 -0.1023  0.1285 -0.0352
 1045W        W 2042   1.248   3.299   5.616  0.1144  0.0352  0.1388
 1046W        W 2043   1.444   1.696   3.561 -0.1324  0.0565 -0.0579
 1047W        W 2044   0.432   3.225   3.761 -0.2301 -0.2805 -0.1848
 1048W        W 2045   0.213   4.859   5.251 -0.1290 -0.2317  0.1355
 1049W        W 2046   7.164   6.497   6.589  0.2016 -0.2421  0.0538
 1050W        W 2047   7.243   3.811   1.113  0.0082 -0.0997  0.2003
 1051W        W 2048   0.561   0.009   5.566 -0.0369  0.0508 -0.0994
 1052W        W 2049   5.830   4.160   2.311 -0.3632 -0.2394 -0.1440
 1053W        W 2050   4.032   2.060   2.241 -0.1876 -0.2981  0.0890
 1054W        W 2051   5.964   4.565   2.626 -0.0899 -0.2043 -0.1146
 1055W        W 2052   1.472   7.324   0.856 -0.2870  0.0230 -0.0503
 1056W        W 2053   5.404   6.522   5.620 -0.3116 -0.0740  0.1905
 1057W        W 2054   5.327   4.463   4.394 -0.3867  0.2860 -0.0683
 1058W        W 2055   3.103   2.201   7.424 -0.2415 -0.2088  0.3869
 1059W        W 2056   5.155   1.517   2.874 -0.1299 -0.1195 -0.2175
 1060W        W 2057   1.069   7.623   1.082 -0.0136  0.0987  0.3520
 1061W        W 2058   4.861   1.977   2.842  0.1518  0.2720  0.4065
 1062W        W 2059   6.995   5.072   3.902 -0.3969 -0.1347  0.3462
 1063W        W 2060   5.367   5.546   5.692 -0.0421  0.1875 -0.1241
 1064W        W 2061   6.181   5.725   2.003 -0.1890  0.1733 -0.0302
 1065W        W 2062   1.697   6.523   0.916 -0.1763  0.0633 -0.1475
 1066W        W 2063   3.903   5.482   3.474  0.1032  0.2827  0.1193
 1067W        W 2064   6.533   7.018   5.252  0.0814 -0.1108 -0.1805
 1068W        W 2065   7.154   3.208   3.849 -0.2658 -0.0689 -0.1680
 1069W        W 2066   1.446   4.974   1.056  0.1177  0.1170 -0.3392
 1070W        W 2067   1.168   6.511   6.938 -0.1159  0.0765 -0.0496
 1071W        W 2068   7.509   3.095   2.238 -0.1960  0.0616 -0.1330
 1072W        W 2069   2.099   7.388   4.989  0.1144  0.1625  0.0356
 1073W        W 2070   0.321   4.148   6.433  0.1810  0.0386 -0.1888
 1074W        W 2071   4.127   0.491   3.846  0.1797  0.1313 -0.0357
 1075W        W 2072   4.157   0.148   0.656 -0.3770 -0.1289  0.1041
 1076W        W 2073   6.819   2.629   2.468  0.2844 -0.0034 -0.0617
 1077W        W 2074   3.542   3.927   0.913 -0.0096 -0.3039 -0.1243
 1078W        W 2075   7.000   6.042   6.698 -0.0518  0.1622 -0.2333
 1079W        W 2076   1.124   2.376   2.022  0.0281  0.0523  0.1959
 1080W        W 2077   6.662   3.514   1.038  0.2519  0.0985 -0.1778
 1081W        W 2078   3.232   0.779   1.036  0.0014 -0.0718  0.0595
 1082W        W 2079   0.916   5.457   3.973  0.1867  0.0273  0.0594
 1083W        W 2080   6.858   0.276   0.208  0.2827 -0.0346  0.3622
 1084W        W 2081   0.291   3.900   5.465 -0.0450  0.1127  0.0672
 1085W        W 2082   6.337   2.810   1.602 -0.2938 -0.0492  0.1668
 1086W        W 2083   4.218   4.697   1.962  0.0371 -0.0239  0.1129
 1087W        W 2084   5.490   5.065   0.823  0.2891 -0.1167 -0.3816
 1088W        W 2085   1.195   2.294   7.522  0.2377  0.1250 -0.1050
 1089W        W 2086   2.566   0.579   6.945  0.0868  0.0409  0.3521
 1090W        W 2087   5.855   3.672   5.447  0.2592  0.0502  0.0733
 1091W        W 2088   4.382   3.060   5.203  0.0219  0.1129 -0.2113
 1092W        W 2089   7.469   4.239   1.054 -0.1189 -0.0184 -0.1411
 1093W        W 2090   4.823   5.709   1.021 -0.0605 -0.0097  0.1047
 1094W        W 2091   2.470   1.573   5.441  0.0259  0.0257  0.3206
 1095W        W 2092   3.208   4.803   6.796 -0.0056 -0.1900 -0.0782
 1096W        W 2093   1.334   6.758   4.472 -0.1359  0.0384 -0.1382
 1097W        W 2094   6.911   1.629   2.514  0.0743  0.2578  0.0340
 1098W        W 2095   6.270   6.536   2.276  0.0599  0.1849  0.1278
 1099W        W 2096   5.157   5.817   7.184  0.0993 -0.0347 -0.1171
 1100W        W 2097   0.817   2.924   2.970  0.2526  0.1961 -0.0356
 1101W        W 2098   3.677   5.172   6.775  0.0588 -0.0960 -0.0142
 1102W        W 2099   4.927   2.975   6.414  0.1783  0.1999 -0.1572
 1103W        W 2100   5.669   3.301   3.978  0.2950 -0.0520  0.1460
 1104W        W 2101   1.993   6.596   5.615 -0.0042 -0.2651 -0.1625
 1105W        W 2102   1.044   1.428   3.160 -0.2030 -0.0507  0.0038
 1106W        W 2103   6.457   4.388   1.958 -0.1399  0.2015 -0.2719
 1107W        W 2104   0.255   2.809   4.923  0.0672 -0.0467 -0.0447
 1108W        W 2105   0.946   0.980   7.473  0.1020  0.1780  0.0083
 1109W        W 2106   1.525   5.970   3.787 -0.4470 -0.0040  0.0171
 1110W        W 2107   1.525   4.457   4.354 -0.0423 -0.0084  0.4564
 1111W        W 2108   1.647   0.287   1.662  0.3890 -0.0045 -0.3000
 1112W        W 2109   0.532   1.489   7.549 -0.0624 -0.0746 -0.1629
 1113W        W 2110   1.819   6.132   7.164  0.2831 -0.3882 -0.0915
 1114W        W 2111   3.891   5.536   4.966 -0.1169  0.0859 -0.3372
 1115W        W 2112   4.436   2.567   5.405 -0.0299 -0.1776  0.1246
 1116W        W 2113   3.276   4.719   1.555  0.1460 -0.1176 -0.0896
 1117W        W 2114   5.604   0.220   1.713  0.1703 -0.1931 -0.0629
 1118W        W 2115   7.300   2.663   0.063 -0.1288 -0.1059  0.0717
 1119W        W 2116   2.440   5.451   7.493  0.0432  0.0314  0.2903
 1120W        W 2117   6.083   0.686   2.943  0.2369 -0.0597 -0.1906
 1121W        W 2118   2.588   1.322   0.449  0.0227  0.1153  0.3259
 1122W        W 2119   7.024   2.662   0.450  0.2835  0.2036 -0.2786
 1123W        W 2120   1.977   5.995   1.967  0.1162 -0.0935  0.0658
 1124W        W 2121   2.651   1.420   7.000  0.0857  0.0236  0.0037
 1125W        W 2122   4.135   6.725   4.152 -0.0193  0.2436  0.1043
 1126W        W 2123   7.271   4.443   4.693  0.0426  0.2468 -0.1441
 1127W        W 2124   6.241   0.926   1.666 -0.0694 -0.0365 -0.0792
 1128W        W 2125   5.990   6.889   0.847  0.1242 -0.0522 -0.0789
 1129W        W 2126   5.126   5.294   2.107  0.4523 -0.0768 -0.0991
 1130W        W 2127   6.112   2.920   2.288 -0.2964  0.0146  0.1754
 1131W        W 2128   4.506   2.739   4.749  0.1517 -0.0196  0.0139
 1132W        W 2129   0.306   5.342   1.837 -0.1254  0.2118 -0.2069
 1133W        W 2130   0.567   6.702   3.185 -0.2354  0.1757 -0.0818
 1134W        W 2131   3.246   5.811   5.332  0.0491 -0.2094 -0.2002
 1135W        W 2132   0.548   2.036   6.114 -0.0277 -0.0608 -0.0044
 1136W        W 2133   1.365   1.434   6.299  0.2354 -0.2518  0.1655
 1137W        W 2134   6.471   3.634   2.631 -0.0953 -0.2722 -0.4019
 1138W        W 2135   2.659   6.150   6.819 -0.0517 -0.1917 -0.1158
 1139W        W 2136   3.681   2.069   7.330 -0.1147 -0.1234  0.1595
 1140W        W 2137   0.567   0.772   4.453  0.1696 -0.0031  0.0995
 1141W        W 2138   5.123   7.130   3.277  0.0265  0.0373 -0.2484
 1142W        W 2139   4.184   6.203   1.000  0.0045 -0.1065 -0.0140
 1143W        W 2140   6.005   3.357   4.871  0.0298  0.1825 -0.1321
 1144W        W 2141   3.821   3.585   0.551  0.2494 -0.1325  0.1542
 1145W        W 2142   5.605   3.022   7.413 -0.1177  0.2197  0.0395
 1146W        W 2143   7.449   7.092   2.620 -0.1950  0.0104 -0.0044
 1147W        W 2144   5.803   3.495   1.302  0.1800 -0.0617 -0.1288
 1148W        W 2145   5.642   3.339   2.298  0.0916  0.0145 -0.0661
 1149W        W 2146   5.686   6.796   7.013 -0.1674  0.0493 -0.1207
 1150W        W 2147   3.956   6.021   1.457 -0.3315 -0.3980  0.2608
 1151W        W 2148   0.833   0.015   6.158 -0.0015 -0.1348 -0.1574
 1152W        W 2149   0.927   1.893   3.040 -0.0258 -0.4120 -0.0786
 1153W        W 2150   3.513   5.719   5.820 -0.2348  0.0471 -0.2209
 1154W        W 2151   2.281   1.238   3.900  0.2212  0.2607  0.0885
 1155W        W 2152   3.019   2.390   6.882 -0.1668  0.3076 -0.2717
 1156W        W 2153   7.012   1.348   0.913  0.0068 -0.1784 -0.1761
 1157W        W 2154   4.638   1.071   0.198  0.2168  0.2940  0.3719
 1158W        W 2155   1.847   6.301   5.265  0.3336  0.3533  0.0287
 1159W        W 2156   7.199   4.715   0.324 -0.0617 -0.0961  0.0874
 1160W        W 2157   0.562   1.998   1.553 -0.3559 -0.2385  0.3675
 1161W        W 2158   4.238   0.200   5.159 -0.2400  0.0566 -0.2095
 1162W        W 2159   7.506   5.853   4.280  0.0685 -0.0230 -0.0634
 1163W        W 2160   0.466   6.473   4.396 -0.1346 -0.2144 -0.0008
 1164W        W 2161   5.017   5.404   2.638  0.2204 -0.0900 -0.1697
 1165W        W 2162   5.077   4.456   2.959 -0.3734 -0.2581  0.0457
 1166W        W 2163   1.746   4.365   0.886 -0.1598 -0.0896 -0.3074
 1167W        W 2164   5.246   2.323   3.562 -0.2471  0.4070 -0.1318
 1168W        W 2165   0.514   0.808   1.877 -0.0008  0.1796 -0.0847
 1169W        W 2166   4.188   5.826   3.038 -0.3114  0.0663  0.1022
 1170W        W 2167   4.866   2.750   7.409  0.0660 -0.1720  0.0475
 1171W        W 2168   4.465   4.871   0.258 -0.1391 -0.1525  0.0827
 1172W        W 2169   0.668   4.532   2.997 -0.1103  0.2956  0.0648
 1173W        W 2170   4.183   1.639   4.675 -0.1779  0.0371 -0.0189
 1174W        W 2171   1.288   1.645   5.243 -0.1345  0.1764  0.1213
 1175W        W 2172   6.856   4.442   2.253 -0.3657  0.0164 -0.2939
 1176W        W 2173   2.801   6.066   1.005 -0.2784  0.1180 -0.3499
 1177W        W 2174   1.664   2.577   4.928 -0.2589 -0.0643  0.3700
 1178W        W 2175   5.921   3.376   0.378  0.0592 -0.0426 -0.0959
 1179W        W 2176   2.586   7.337   5.771 -0.0885  0.0235  0.0328
 1180W        W 2177   6.416   4.077   6.340 -0.1820  0.5265 -0.1569
 1181W        W 2178   1.368   3.010   6.208 -0.0899 -0.1162  0.1501
 1182W        W 2179   1.914   7.655   5.816 -0.3012  0.3022 -0.0746
 1183W        W 2180   0.603   4.636   4.916  0.1952  0.0127 -0.0993
 1184W        W 2181   4.643   1.978   4.179 -0.2396 -0.1733 -0.0107
 1185W        W 2182   1.626   5.263   6.896  0.1413 -0.0163  0.0998
 1186W        W 2183   0.994   1.369   4.903 -0.0074  0.1733 -0.1930
 1187W        W 2184   6.862   2.219   1.355  0.1533 -0.2320  0.0665
 1188W        W 2185   4.728   7.326   0.298 -0.0629 -0.0416 -0.3541
 1189W        W 2186   0.719   0.090   0.704 -0.2442  0.1888  0.0063
 1190W        W 2187   2.277   1.634   0.150 -0.0108  0.1162 -0.2320
 1191W        W 2188   2.330   0.962   2.639  0.0955  0.1326 -0.2597
 1192W        W 2189   7.568   4.311   3.642 -0.1622  0.2202 -0.2095
 1193W        W 2190   4.894   7.206   1.650  0.1598  0.2151  0.3138
 1194W        W 2191   0.386   4.089   6.932  0.0392  0.2795  0.0168
 1195W        W 2192   2.000   2.454   5.685  0.1075 -0.0696 -0.0551
 1196W        W 2193   5.958   0.203   2.677  0.0387 -0.1179  0.0365
 1197W        W 2194   4.353   5.863   5.680  0.0633 -0.1496 -0.2526
 1198W        W 2195   5.756   6.065   3.746 -0.1159  0.0452 -0.0046
 1199W        W 2196   6.831   3.613   7.638 -0.0787  0.1987 -0.0023
 1200W        W 2197   1.471   4.913   0.171 -0.2125  0.0478  0.0840
 1201W        W 2198   0.522   0.527   2.601 -0.2228  0.1329 -0.0070
 1202W        W 2199   0.056   5.041   0.641  0.2147  0.2144 -0.1757
 1203W        W 2200   1.972   0.201   5.045 -0.1565  0.2497 -0.0951
 1204W        W 2201   3.132   5.268   6.939 -0.0013  0.0706 -0.3475
 1205W        W 2202   4.202   5.052   1.553 -0.0435 -0.0103 -0.0670
 1206W        W 2203   7.323   0.021   5.540  0.0266 -0.0761 -0.3101
 1207W        W 2204   4.508   7.004   4.790  0.2326  0.0237 -0.0878
 1208W        W 2205   1.975   3.959   0.624  0.2725 -0.0908 -0.0792
 1209W        W 2206   4.970   6.262   1.694 -0.0951  0.0481  0.0098
 1210W        W 2207   3.495   0.605   5.121  0.4344  0.2571  0.2910
 1211W        W 2208   5.401   1.900   2.774  0.2676 -0.0705  0.3199
 1212W        W 2209   2.065   1.357   1.740  0.2794  0.2091 -0.2859
 1213W        W 2210   7.263   6.332   7.575 -0.3484 -0.1001 -0.0741
 1214W        W 2211   2.252   2.370   5.124 -0.2086  0.2134 -0.0735
 1215W        W 2212   0.817   0.561   4.028 -0.5411  0.1620  0.4386
 1216W        W 2213   6.945   5.985   3.071 -0.0376 -0.3044 -0.4233
 1217W        W 2214   5.229   4.043   0.356 -0.0416 -0.0235 -0.1284
 1218W        W 2215   4.719   1.510   1.051  0.2008  0.1768 -0.1675
 1219W        W 2216   1.849   1.728   1.524  0.3462 -0.0066  0.1616
 1220W        W 2217   1.687   2.917   0.631  0.0838  0.0721  0.1751
 1221W        W 2218   1.067   0.898   4.508 -0.0849 -0.0070  0.3343
 1222W        W 2219   1.315   4.326   7.102  0.2007 -0.1286  0.0521
 1223W        W 2220   4.431   2.355   2.008  0.1401 -0.1663  0.2287
 1224W        W 2221   0.134   3.489   2.350 -0.1927  0.1271 -0.3199
 1225W        W 2222   6.830   1.101   3.955 -0.0717 -0.1552  0.3432
 1226W        W 2223   1.953   2.182   1.592 -0.2680 -0.0130 -0.1174
 1227W        W 2224   3.790   1.878   1.332 -0.3975  0.2439 -0.2115
 1228W        W 2225   0.644   1.505   6.972  0.2484 -0.0775  0.0138
 1229W        W 2226   3.026   2.186   2.041 -0.0551  0.0402  0.0797
 1230W        W 2227   3.613   2.155   6.658  0.2783 -0.1075 -0.2927
 1231W        W 2228   1.671   4.287   5.391  0.1114 -0.0330  0.0966
 1232W        W 2229   3.850   7.634   0.127  0.2669  0.0194  0.1307
 1233W        W 2230   6.197   5.338   6.726  0.2854  0.1618 -0.1036
 1234W        W 2231   1.768   2.074   0.581 -0.0474  0.2554  0.0293
 1235W        W 2232   2.140   4.554   7.180 -0.0706 -0.1853 -0.2757
 1236W        W 2233   1.726   6.145   6.208  0.1287  0.1126  0.0427
 1237W        W 2234   2.990   1.173   2.078  0.0110  0.0854  0.0039
 1238W        W 2235   2.569   1.906   0.536 -0.1438  0.0128  0.1966
 1239W        W 2236   2.240   6.932   5.167  0.1026  0.1484 -0.0041
 1240W        W 2237   2.721   4.454   0.789 -0.2823  0.3314  0.0303
 1241W        W 2238   7.522   5.138   2.952  0.3125  0.0690  0.1760
 1242W        W 2239   7.033   6.690   1.794 -0.1371 -0.0471 -0.3022
 1243W        W 2240   6.832   0.876   1.710 -0.0365 -0.0632  0.1088
 1244W        W 2241   7.342   4.735   0.808  0.1852 -0.0158  0.2236
 1245W        W 2242   5.189   7.613   1.044 -0.1531  0.0640 -0.1026
 1246W        W 2243   6.095   4.492   3.174 -0.0529  0.2976  0.2133
 1247W        W 2244   1.971   5.785   1.033  0.0879 -0.0122 -0.0523
 1248W        W 2245   5.836   2.519   4.355  0.0569  0.1224  0.1711
 1249W        W 2246   5.017   2.658   6.882  0.5926 -0.2179  0.1384
 1250W        W 2247   5.943   1.424   0.717 -0.3689 -0.0353 -0.3116
 1251W        W 2248   0.969   5.777   2.935 -0.0919  0.2057 -0.1619
 1252W        W 2249   7.046   4.528   7.535 -0.2112  0.0454  0.0228
 1253W        W 2250   6.750   1.536   4.189 -0.0173 -0.0006 -0.4534
 1254W        W 2251   7.564   0.147   3.141  0.1826 -0.2347  0.1687
 1255W        W 2252   4.268   2.194   5.699 -0.0005  0.1091  0.0087
 1256W        W 2253   0.155   4.059   7.392  0.2890  0.1551 -0.6069
 1257W        W 2254   7.580   1.120   1.036 -0.1608 -0.3098  0.1621
 1258W        W 2255   7.473   4.592   1.402  0.0311 -0.3498  0.2320
 1259W        W 2256   4.321   4.248   4.760  0.2296  0.0408  0.1564
 1260W        W 2257   4.672   6.811   6.138  0.0672  0.0366  0.5138
 1261W        W 2258   5.073   1.308   2.040 -0.1222 -0.3649  0.1632
 1262W        W 2259   5.800   6.786   1.308 -0.1721 -0.3209 -0.2472
 1263W        W 2260   1.376   5.686   2.502  0.1066  0.7305  0.0395
 1264W        W 2261   1.039   6.595   6.414  0.1775 -0.1049 -0.1285
 1265W        W 2262   1.508   2.799   1.153 -0.2859 -0.0676  0.0338
 1266W        W 2263   3.424   0.285   0.678 -0.1349 -0.2696 -0.2973
 1267W        W 2264   0.351   1.826   4.416  0.3437 -0.2181  0.0402
 1268W        W 2265   1.033   2.389   1.038 -0.0265 -0.0002  0.2178
 1269W        W 2266   5.757   0.257   3.113 -0.2383  0.1446 -0.3173
 1270W        W 2267   5.146   6.749   2.946  0.2418  0.1268 -0.5104
 1271W        W 2268   4.829   3.915   6.826 -0.1025 -0.0830 -0.1731
 1272W        W 2269   6.186   4.082   3.399 -0.0765 -0.0517 -0.1394
 1273W        W 2270   3.754   0.083   3.921 -0.0117  0.1882  0.1343
 1274W        W 2271   4.366   5.318   4.953  0.3243  0.0047 -0.1978
 1275W        W 2272   5.034   2.485   1.642  0.0884  0.3286 -0.3845
 1276W        W 2273   5.778   0.598   0.885 -0.0153 -0.4766 -0.0732
 1277W        W 2274   2.503   1.097   2.123 -0.1022 -0.3126  0.4311
 1278W        W 2275   4.375   6.934   7.364  0.2740  0.0608 -0.0469
 1279W        W 2276   7.413   5.638   2.929 -0.1029  0.1910  0.2616
 1280W        W 2277   6.184   5.498   2.929  0.2762 -0.1142  0.0774
 1281W        W 2278   0.957   2.512   5.350  0.1006  0.0407 -0.3598
 1282W        W 2279   6.579   3.605   6.793  0.0948 -0.2806  0.0405
 1283W        W 2280   1.829   1.922   4.703 -0.0163 -0.0971 -0.2164
 1284W        W 2281   0.613   0.733   3.076  0.1589 -0.1872 -0.1168
 1285W        W 2282   2.650   7.169   6.237 -0.1273  0.1032  0.2996
 1286W        W 2283   2.006   7.003   7.501  0.0243  0.0027  0.1702
 1287W        W 2284   5.114   4.687   3.885  0.1425 -0.0998  0.0318
 1288W        W 2285   1.159   4.531   4.661 -0.2499 -0.1806  0.0388
 1289W        W 2286   5.384   2.754   4.302  0.1463 -0.0247  0.0440
 1290W        W 2287   7.100   5.833   5.729  0.1253  0.1765 -0.1579
 1291W        W 2288   1.944   1.742   3.441  0.1283 -0.1011 -0.1908
 1292W        W 2289   5.767   5.472   3.299 -0.0753 -0.0855 -0.3962
 1293W        W 2290   0.415   3.824   4.589 -0.0518 -0.0586 -0.2040
 1294W        W 2291   0.779   6.288   5.113 -0.1945  0.0012 -0.0796
 1295W        W 2292   1.500   3.198   3.692 -0.1613  0.0689 -0.1880
 1296W        W 2293   4.104   6.602   1.807 -0.0788 -0.1423 -0.1675
 1297W        W 2294   1.093   2.911   7.119  0.1691  0.3320  0.1989
 1298W        W 2295   1.611   5.554   4.107  0.1735 -0.0950 -0.1106
 1299W        W 2296   4.491   7.168   3.447  0.2399  0.3243  0.0988
 1300W        W 2297   3.819   4.758   6.117  0.0143 -0.0971 -0.1243
 1301W        W 2298   4.226   7.229   4.436 -0.0773 -0.0950  0.0729
 1302W        W 2299   2.233   4.781   1.570  0.0342  0.0943 -0.3220
 1303W        W 2300   7.325   2.294   1.074 -0.1150 -0.2426 -0.2813
 1304W        W 2301   3.616   6.604   7.150  0.3854  0.3401 -0.2110
 1305W        W 2302   1.481   7.426   2.339 -0.0494  0.2076 -0.3516
 1306W        W 2303   6.423   2.360   0.602  0.0936  0.1392  0.0803
 1307W        W 2304   0.309   6.847   2.787  0.1146 -0.0578  0.0862
 1308W        W 2305   6.122   4.692   5.759  0.2449  0.1639 -0.0085
 1309W        W 2306   0.755   4.032   5.368  0.2820  0.0689  0.0115
 1310W        W 2307   4.399   5.121   1.049 -0.0715  0.0698  0.0353
 1311W        W 2308   5.964   1.045   1.034 -0.1103 -0.1696  0.0595
 1312W        W 2309   7.290   3.518   4.847 -0.1656 -0.0256  0.0083
 1313W        W 2310   0.345   4.217   5.024 -0.1088 -0.0782  0.1779
 1314W        W 2311   3.448   6.108   0.649 -0.2032  0.0908 -0.0875
 1315W        W 2312   4.754   4.669   3.301 -0.2514 -0.0887 -0.0819
 1316W        W 2313   0.248   6.002   5.250 -0.1708  0.0727 -0.0914
 1317W        W 2314   4.710   5.906   7.614 -0.1141 -0.0117  0.4669
 1318W        W 2315   4.124   0.229   1.943  0.0271  0.0653  0.1510
 1319W        W 2316   4.044   4.536   5.075  0.0726  0.1461  0.3020
 1320W        W 2317   3.656   6.970   0.952  0.2069 -0.2496 -0.0883
 1321W        W 2318   7.329   1.884   2.473 -0.0209 -0.1402 -0.0313
 1322W        W 2319   0.518   6.824   1.179  0.1238  0.1777 -0.0133
 1323W        W 2320   5.258   7.497   7.499  0.0218  0.1086 -0.2569
 1324W        W 2321   7.569   1.554   0.795 -0.1148  0.1532  0.2697
 1325W        W 2322   6.139   6.735   6.823  0.1480  0.2979  0.4012
 1326W        W 2323   6.078   2.428   1.367  0.0182  0.2596  0.1156
 1327W        W 2324   7.399   6.594   4.931 -0.2288  0.0625  0.0065
 1328W        W 2325   3.416   2.912   2.431 -0.2113  0.0263  0.1146
 1329W        W 2326   2.729   7.638   1.055 -0.1051  0.0165  0.1910
 1330W        W 2327   3.444   2.215   0.493 -0.1066  0.0449 -0.1771
 1331W        W 2328   6.853   6.777   0.942 -0.0398 -0.2540 -0.1500
 1332W        W 2329   0.516   5.846   3.584 -0.1400  0.1041 -0.0263
 1333W        W 2330   3.894   2.421   1.404 -0.0226  0.2174  0.0237
 1334W        W 2331   6.246   5.976   7.329 -0.0425  0.0037 -0.2486
 1335W        W 2332   0.784   1.122   2.785 -0.0344 -0.0548  0.0323
 1336W        W 2333   3.074   4.448   5.348 -0.0667 -0.0217 -0.2300
 1337W        W 2334   3.525   4.949   0.934  0.1021 -0.1108  0.3040
 1338W        W 2335   1.780   7.596   4.659 -0.0565  0.1587  0.1690
 1339W        W 2336   0.388   3.649   7.256  0.0408 -0.0778 -0.0718
 1340W        W 2337   5.999   4.941   1.566 -0.0005 -0.0865 -0.0710
 1341W        W 2338   5.809   3.052   3.598  0.3206  0.1693 -0.0537
 1342W        W 2339   0.639   7.547   4.657  0.0204 -0.0312 -0.0795
 1343W        W 2340   3.464   6.846   6.751 -0.1468 -0.2348 -0.0905
 1344W        W 2341   1.511   3.824   6.685 -0.0590  0.1752  0.0543
 1345W        W 2342   0.711   2.274   3.854  0.0786  0.2676 -0.0495
 1346W        W 2343   5.273   4.769   2.134 -0.0094  0.0975 -0.1502
 1347W        W 2344   6.900   5.139   5.146  0.0858  0.0994 -0.1028
 1348W        W 2345   0.069   0.626   4.500 -0.3099  0.5237 -0.0101
 1349W        W 2346   4.343   0.736   0.518  0.0101  0.1247 -0.1151
 1350W        W 2347   7.232   6.384   1.446  0.2111 -0.0710  0.0908
 1351W        W 2348   4.865   4.978   5.851 -0.0725 -0.0279 -0.0757
 1352W        W 2349   3.915   3.966   6.616  0.2225 -0.1887 -0.2071
 1353W        W 2350   1.212   4.251   5.616  0.5048 -0.1777  0.0283
 1354W        W 2351   7.512   3.390   6.606 -0.3134  0.0262 -0.0200
 1355W        W 2352   6.363   1.458   3.394  0.0216  0.0602  0.0159
 1356W        W 2353   5.551   7.346   2.461 -0.2339  0.0525 -0.0349
 1357W        W 2354   5.695   7.337   1.835 -0.1152 -0.1660 -0.3840
 1358W        W 2355   6.366   2.788   4.168  0.0529  0.0238  0.0827
 1359W        W 2356   0.226   1.069   0.597  0.2648  0.0832 -0.2475
 1360W        W 2357   6.760   4.703   5.428 -0.4369  0.0247  0.1121
 1361W        W 2358   3.433   6.893   1.375  0.0882  0.1754 -0.0701
 1362W        W 2359   0.758   3.278   7.078 -0.0482 -0.1636 -0.0241
 1363W        W 2360   0.584   2.837   6.740 -0.0623 -0.0930  0.1042
 1364W        W 2361   5.021   7.550   2.459  0.0922 -0.0303 -0.2062
 1365W        W 2362   1.506   4.058   3.985 -0.3217  0.4799 -0.1429
 1366W        W 2363   6.090   7.234   4.298 -0.0109 -0.1463  0.0321
 1367W        W 2364   1.365   0.966   6.153  0.1179  0.0952 -0.2892
 1368W        W 2365   4.410   6.805   6.514 -0.0486  0.0567 -0.0860
 1369W        W 2366   1.005   5.813   3.530  0.2559  0.0178 -0.0719
 1370W        W 2367   3.927   6.149   6.350 -0.4041 -0.1274 -0.2278
 1371W        W 2368   1.599   7.332   3.842  0.2737 -0.0187  0.0487
 1372W        W 2369   5.235   6.155   2.165  0.4339  0.3472 -0.2118
 1373W        W 2370   6.963   2.045   6.945 -0.1827 -0.2023 -0.1137
 1374W        W 2371   0.981   1.877   0.129  0.1128  0.1784 -0.1872
 1375W        W 2372   6.511   4.417   5.761  0.3183  0.1622  0.1231
 1376W        W 2373   4.173   3.904   6.145 -0.0484 -0.2035  0.2527
 1377W        W 2374   7.525   0.863   2.474  0.0139 -0.0966  0.1151
 1378W        W 2375   0.043   6.790   7.520 -0.0313 -0.3201  0.2951
 1379W        W 2376   1.121   0.890   1.178  0.1420  0.0135 -0.3747
 1380W        W 2377   7.542   0.143   4.202 -0.2196  0.0516  0.0261
 1381W        W 2378   3.992   6.090   4.878  0.0631 -0.0854  0.2125
 1382W        W 2379   1.782   5.769   5.254 -0.1179  0.0221  0.1596
 1383W        W 2380   7.470   0.173   1.787 -0.2072 -0.2159  0.1782
 1384W        W 2381   3.255   1.453   5.045 -0.1249  0.4020 -0.1108
 1385W        W 2382   3.476   4.691   0.016  0.2079 -0.0569 -0.3399
 1386W        W 2383   6.450   0.192   2.508  0.0391  0.3218  0.0192
 1387W        W 2384   6.516   4.867   1.845  0.0330  0.3638  0.1711
 1388W        W 2385   1.662   5.229   2.440  0.2779  0.0755  0.0492
 1389W        W 2386   3.542   7.367   5.152  0.0920 -0.2057  0.1383
 1390W        W 2387   0.427   7.023   4.320  0.0481 -0.2497 -0.0138
 1391W        W 2388   6.342   3.863   0.648 -0.0826  0.0407 -0.2021
 1392W        W 2389   0.368   7.218   0.010 -0.0560  0.0675  0.0170
 1393W        W 2390   0.331   6.122   0.403  0.2199  0.2588  0.2152
 1394W        W 2391   4.570   6.406   7.476 -0.1288 -0.0278 -0.2910
 1395W        W 2392   6.965   4.007   4.862  0.0775  0.0821 -0.2826
 1396W        W 2393   4.707   2.374   2.421 -0.1031  0.3126 -0.2738
 1397W        W 2394   0.031   1.480   3.455  0.0214  0.0515  0.1589
 1398W        W 2395   1.955   7.456   3.433 -0.1970  0.0218  0.0568
 1399W        W 2396   0.645   3.708   5.035 -0.3407 -0.2581  0.1824
 1400W        W 2397   0.527   0.559   0.585 -0.1406 -0.0289  0.1575
 1401W        W 2398   7.251   6.315   3.654  0.0196  0.1477 -0.0079
 1402W        W 2399   3.417   7.297   1.773 -0.2688  0.4360 -0.2154
 1403W        W 2400   6.456   7.014   1.065 -0.1649 -0.0345 -0.0484
 1404W        W 2401   2.115   0.603   6.374 -0.0637  0.1477  0.0828
 1405W        W 2402   3.202   2.154   1.574 -0.1000  0.2418 -0.0416
 1406W        W 2403   0.576   3.803   0.768 -0.1263  0.0018  0.2266
 1407W        W 2404   7.340   1.562   3.079 -0.0102 -0.0553  0.3815
 1408W        W 2405   6.169   6.739   4.513 -0.0968  0.1253  0.1413
 1409W        W 2406   2.649   3.032   4.987 -0.0843  0.2396 -0.0902
 1410W        W 2407   4.366   1.229   1.330 -0.1637 -0.1333  0.1401
 1411W        W 2408   7.188   2.568   6.994  0.0841 -0.1059  0.3178
 1412W        W 2409   3.566   5.975   2.383  0.0254 -0.2139 -0.0092
 1413W        W 2410   0.306   6.299   3.478 -0.0868 -0.0335  0.0660
 1414W        W 2411   4.211   1.452   2.225 -0.0797  0.1227 -0.0139
 1415W        W 2412   6.814   0.334   2.944 -0.0625  0.0929 -0.1794
 1416W        W 2413   6.336   0.691   3.367  0.3619  0.1998  0.0848
 1417W        W 2414   4.567   3.105   4.318 -0.1100  0.0138 -0.1752
 1418W        W 2415   4.776   5.519   3.243 -0.0432 -0.0428  0.0979
 1419W        W 2416   0.139   2.390   1.456 -0.2990  0.1929  0.0838
 1420W        W 2417   2.681   0.880   1.067 -0.0483 -0.1796  0.0473
 1421W        W 2418   0.021   3.783   6.927 -0.2796  0.0903  0.2340
 1422W        W 2419   4.641   6.664   2.466 -0.1334 -0.0986  0.1787
 1423W        W 2420   7.482   1.539   1.290  0.0196 -0.3784  0.1115
 1424W        W 2421   0.928   6.471   0.991  0.1263 -0.0214 -0.0184
 1425W        W 2422   0.002   5.174   4.797  0.0703  0.2533 -0.1606
 1426W        W 2423   4.822   0.560   1.218  0.0949 -0.0825 -0.1703
 1427W        W 2424   4.372   3.695   6.573  0.1174 -0.1159  0.3900
 1428W        W 2425   6.158   2.532   0.028  0.0149 -0.0181 -0.0647
 1429W        W 2426   0.041   6.728   4.598 -0.1736  0.1333 -0.2335
 1430W        W 2427   0.197   7.496   0.934 -0.4638  0.1064 -0.0049
 1431W        W 2428   3.479   1.210   4.606 -0.0387  0.1629 -0.4325
 1432W        W 2429   5.509   6.100   6.809 -0.0183 -0.0176 -0.0426
 1433W        W 2430   2.505   4.889   2.034  0.0908  0.1306 -0.0089
 1434W        W 2431   7.593   4.523   7.454 -0.0683 -0.0142  0.2759
 1435W        W 2432   3.961   5.982   6.839  0.0968  0.2144 -0.0678
 1436W        W 2433   6.560   0.158   3.932 -0.2128 -0.2862  0.1016
 1437W        W 2434   2.386   1.538   6.629 -0.1133  0.1311  0.0975
 1438W        W 2435   7.208   6.656   5.412  0.0229 -0.2750 -0.0394
 1439W        W 2436   7.573   6.341   5.333 -0.1768  0.0680 -0.0332
 1440W        W 2437   0.440   3.228   1.980  0.1285  0.0869 -0.3902
 1441W        W 2438   6.459   3.251   4.575 -0.2059  0.1016 -0.1487
 1442W        W 2439   0.407   1.610   6.482 -0.0945 -0.2563 -0.0748
 1443W        W 2440   0.853   4.134   1.984 -0.0893 -0.0362 -0.1981
 1444W        W 2441   2.736   1.418   2.465  0.2015 -0.1530 -0.2382
 1445W        W 2442   0.976   4.065   0.390 -0.0089 -0.1490 -0.1372
 1446W        W 2443   1.259   6.350   0.640 -0.0396  0.0648  0.1952
 1447W        W 2444   6.735   6.114   0.896 -0.3109  0.2136  0.0624
 1448W        W 2445   5.401   3.044   6.070  0.2060 -0.0433 -0.1237
 1449W        W 2446   2.582   7.472   0.279  0.0690  0.1049  0.2487
 1450W        W 2447   4.937   4.147   1.709 -0.1997  0.2685  0.1729
 1451W        W 2448   6.834   6.025   7.350 -0.1360  0.1189 -0.0470
 1452W        W 2449   0.742   3.606   3.657 -0.0372 -0.0954  0.3502
 1453W        W 2450   3.885   7.026   1.600  0.0556 -0.6668 -0.0587
 1454W        W 2451   1.319   6.180   3.333 -0.0838  0.3686 -0.1877
 1455W        W 2452   0.553   2.497   6.029  0.0307 -0.5153  0.0784
 1456W        W 2453   4.939   3.524   6.502 -0.1362  0.4655 -0.4545
 1457W        W 2454   1.286   2.997   2.760 -0.0781  0.0758  0.3106
 1458W        W 2455   6.636   5.727   0.021  0.0321 -0.1471  0.1749
 1459W        W 2456   5.068   3.641   0.755 -0.0197  0.0516  0.1131
 1460W        W 2457   2.580   0.892   6.260  0.2210  0.1890 -0.2521
 1461W        W 2458   1.485   2.573   6.424  0.4584  0.0733 -0.1394
 1462W        W 2459   1.765   2.908   3.302 -0.3991 -0.1338  0.0992
 1463W        W 2460   0.397   6.451   0.902 -0.0519  0.2700  0.3415
 1464W        W 2461   0.034   1.991   1.110 -0.0229  0.1011 -0.1532
 1465W        W 2462   6.299   7.166   7.576  0.1657  0.2902 -0.0223
 1466W        W 2463   4.768   6.258   0.309  0.0404 -0.3161 -0.1480
 1467W        W 2464   0.855   1.790   0.620 -0.0506 -0.0202  0.2368
 1468W        W 2465   2.170   7.160   0.307 -0.1970  0.3076 -0.0927
 1469W        W 2466   5.343   6.191   6.311 -0.0860  0.1043 -0.2323
 1470W        W 2467   5.753   5.985   2.145 -0.0666  0.0695  0.2965
 1471W        W 2468   0.020   4.134   4.609  0.1642 -0.1109 -0.2281
 1472W        W 2469   1.480   0.075   5.019 -0.1110  0.1027 -0.0055
 1473W        W 2470   0.336   4.522   1.485  0.1366  0.1447  0.1589
 1474W        W 2471   6.382   1.324   3.914  0.1526 -0.1052 -0.0442
 1475W        W 2472   2.855   5.979   7.577 -0.3243  0.1222 -0.0585
 1476W        W 2473   0.884   1.815   3.606 -0.2089 -0.2544 -0.1980
 1477W        W 2474   1.494   4.905   4.573  0.1893  0.0232 -0.3000
 1478W        W 2475   1.671   2.565   3.645  0.0109 -0.3174 -0.0009
 1479W        W 2476   4.880   6.346   1.177 -0.0766  0.0138 -0.2880
 1480W        W 2477   7.227   4.681   7.078  0.1147 -0.0305  0.0517
 1481W        W 2478   6.835   0.251   4.648 -0.4034 -0.2274 -0.0002
 1482W        W 2479   3.623   1.576   7.183  0.0733  0.2875  0.2036
 1483W        W 2480   1.833   5.344   1.261 -0.0150  0.0454  0.0898
 1484W        W 2481   4.956   3.663   4.952 -0.1173 -0.3070 -0.1948
 1485W        W 2482   1.312   6.370   5.126  0.2817  0.0106  0.0357
 1486W        W 2483   7.267   2.625   1.484 -0.1282  0.1183  0.0830
 1487W        W 2484   2.456   6.829   5.627  0.1964  0.0800 -0.1538
 1488W        W 2485   2.229   2.197   0.916  0.0594 -0.0228 -0.0778
 1489W        W 2486   4.646   0.168   2.678 -0.0100  0.3306  0.1531
 1490W        W 2487   4.223   5.595   1.747 -0.2570 -0.3267  0.0159
 1491W        W 2488   4.452   2.537   4.155  0.0289  0.1194 -0.0088
 1492W        W 2489   4.760   5.514   3.798 -0.1608  0.4185  0.1637
 1493W        W 2490   0.284   0.087   7.571 -0.3477 -0.1499 -0.1404
 1494W        W 2491   7.229   5.184   0.651 -0.2382  0.2771  0.1126
 1495W        W 2492   5.392   3.619   3.049 -0.0291 -0.0612 -0.1937
 1496W        W 2493   2.290   5.789   1.637 -0.1714 -0.1557 -0.0163
 1497W        W 2494   3.986   0.428   4.315  0.0191 -0.0360 -0.0695
 1498W        W 2495   4.388   7.652   0.202  0.1163 -0.1233  0.2010
 1499W        W 2496   6.150   4.461   6.585 -0.2211  0.0627  0.0268
 1500W        W 2497   0.191   1.528   2.987 -0.0144 -0.3228  0.2607
 1501W        W 2498   1.506   3.122   1.673 -0.0088 -0.0208  0.1461
 1502W        W 2499   0.655   4.337   2.464  0.1461 -0.1275  0.0093
 1503W        W 2500   1.659   3.744   0.987  0.3184 -0.4394 -0.1995
 1504W        W 2501   1.828   7.635   7.143  0.2462  0.0833 -0.0222
 1505W        W 2502   6.117   6.760   3.248 -0.1619  0.0811 -0.2801
 1506W        W 2503   6.467   4.507   2.714  0.1049  0.2093 -0.0774
 1507W        W 2504   5.625   3.212   5.298  0.1926 -0.2509  0.3353
 1508W        W 2505   4.863   0.706   3.290 -0.0045 -0.0884 -0.3623
 1509W        W 2506   3.850   1.556   5.832 -0.0167 -0.2267 -0.1207
 1510W        W 2507   1.587   1.301   5.768 -0.1284  0.2301  0.0347
 1511W        W 2508   4.323   6.347   6.629 -0.0946 -0.2641 -0.0317
 1512W        W 2509   3.594   7.410   1.334 -0.0717  0.2218  0.3018
 1513W        W 2510   5.565   5.145   2.294  0.3743 -0.1212 -0.0538
 1514W        W 2511   0.195   2.798   0.974  0.1521 -0.1945  0.1945
 1515W        W 2512   5.150   7.558   0.306 -0.1700  0.3655  0.1213
 1516W        W 2513   1.192   2.039   6.983 -0.1430 -0.0759 -0.1375
 1517W        W 2514   5.303   0.462   1.010 -0.1399  0.0080 -0.2892
 1518W        W 2515   4.685   4.902   1.363 -0.1750  0.1850 -0.2382
 1519W        W 2516   0.644   0.966   2.333  0.1490 -0.0732  0.1203
 1520W        W 2517   2.293   2.450   1.366  0.0081 -0.0546 -0.2588
 1521W        W 2518   7.060   7.270   4.198  0.0109  0.1698 -0.1147
 1522W        W 2519   3.770   6.685   2.982  0.0947  0.0866 -0.0323
 1523W        W 2520   4.716   6.200   2.184  0.0354  0.0595  0.1720
 1524W        W 2521   3.079   5.511   7.344 -0.0447  0.2087  0.0837
 1525W        W 2522   5.425   3.796   1.039 -0.0521  0.0540 -0.0096
 1526W        W 2523   5.065   1.929   3.798  0.2176 -0.1089  0.1754
 1527W        W 2524   3.211   3.042   1.667  0.0434 -0.0804  0.0287
 1528W        W 2525   1.279   3.370   6.978 -0.0455 -0.2881  0.1864
 1529W        W 2526   4.720   3.678   1.712 -0.0213  0.1229 -0.1255
 1530W        W 2527   6.395   2.929   5.990 -0.1908 -0.0541 -0.0400
 1531W        W 2528   4.692   0.277   4.884 -0.1072  0.2544  0.1750
 1532W        W 2529   6.060   4.061   7.533  0.0476  0.1241  0.0253
 1533W        W 2530   3.325   3.993   5.222 -0.1712 -0.0088 -0.0856
 1534W        W 2531   3.004   1.005   0.633  0.0451  0.0339 -0.1005
 1535W        W 2532   6.889   2.145   2.369 -0.1987 -0.0371 -0.2954
 1536W        W 2533   7.160   1.225   3.402 -0.0915  0.0070  0.0105
 1537W        W 2534   4.513   5.455   6.419 -0.3372 -0.0069 -0.4119
 1538W        W 2535   0.810   6.961   0.218 -0.1996 -0.1615 -0.0064
 1539W        W 2536   3.164   5.218   1.444  0.0397 -0.1017  0.0044
 1540W        W 2537   6.534   7.507   4.373  0.0698 -0.2042 -0.0054
 1541W        W 2538   5.842   2.927   0.875 -0.0991 -0.1139  0.2298
 1542W        W 2539   1.116   5.589   7.165 -0.0904  0.0645  0.0415
 1543W        W 2540   3.758   3.548   5.772  0.4498 -0.0734 -0.2180
 1544W        W 2541   1.476   5.266   1.589  0.1537  0.3204 -0.1066
 1545W        W 2542   4.957   0.820   2.240  0.1064  0.1210 -0.0374
 1546W        W 2543   0.369   1.722   0.854  0.0700  0.0681  0.1169
 1547W        W 2544   7.611   6.902   4.144 -0.0555 -0.2401  0.3204
 1548W        W 2545   4.804   1.547   0.350 -0.1383  0.1399 -0.0211
 1549W        W 2546   0.876   4.130   1.054 -0.0398  0.2716 -0.0168
 1550W        W 2547   6.418   6.021   6.864 -0.0906  0.1558 -0.0281
 1551W        W 2548   4.634   4.580   7.544 -0.1231  0.1568  0.1108
 1552W        W 2549   4.268   7.536   3.142  0.0198 -0.2529  0.1411
 1553W        W 2550   0.165   4.508   2.333 -0.3671 -0.0811 -0.2372
 1554W        W 2551   6.468   7.221   4.789 -0.0095 -0.0045  0.0047
 1555W        W 2552   4.431   3.493   1.105 -0.0080 -0.0269 -0.3956
 1556W        W 2553   2.406   0.396   5.164  0.0233 -0.1793 -0.1210
 1557W        W 2554   7.365   5.953   3.308  0.0711 -0.1944  0.1830
 1558W        W 2555   5.511   1.070   3.530 -0.0822  0.0214  0.3480
 1559W        W 2556   6.560   3.493   1.926  0.2156  0.0709 -0.0722
 1560W        W 2557   6.224   0.249   3.554  0.2519 -0.1315 -0.0972
 1561W        W 2558   7.391   1.118   3.924  0.1371  0.1293 -0.1086
 1562W        W 2559   6.362   2.337   2.295 -0.1378 -0.2446 -0.2758
 1563W        W 2560   4.875   7.485   3.544  0.0965 -0.3583  0.1844
 1564W        W 2561   3.091   6.752   0.284 -0.1505  0.0196 -0.0139
 1565W        W 2562   0.864   4.977   2.256 -0.1635  0.0184 -0.2533
 1566W        W 2563   0.448   5.785   2.684 -0.2036 -0.1877 -0.3322
 1567W        W 2564   1.406   4.036   1.287 -0.2184  0.0913  0.1316
 1568W        W 2565   5.098   4.015   5.890  0.0062  0.2758  0.0076
 1569W        W 2566   3.741   5.212   5.751 -0.2584  0.0953 -0.0990
 1570W        W 2567   2.667   0.115   2.205 -0.0970 -0.1487  0.2498
 1571W        W 2568   5.277   3.760   5.430 -0.2213  0.0682  0.1241
 1572W        W 2569   3.460   4.467   5.773  0.0116  0.0119 -0.1603
 1573W        W 2570   7.233   6.859   7.631 -0.1084 -0.0568  0.2519
 1574W        W 2571   6.798   1.434   3.002 -0.0180  0.2975 -0.2982
 1575W        W 2572   0.373   2.434   7.447  0.2644 -0.0759  0.0685
 1576W        W 2573   7.251   1.986   1.551 -0.2526  0.1472 -0.0358
 1577W        W 2574   7.170   5.441   1.765  0.0707 -0.4554 -0.0289
 1578W        W 2575   4.803   3.567   4.421  0.0029  0.2549  0.0319
 1579W        W 2576   5.494   5.742   4.804 -0.0647 -0.1221  0.1571
 1580W        W 2577   7.355   2.761   3.987 -0.0528 -0.3151  0.1446
 1581W        W 2578   6.136   0.846   4.322  0.1416  0.3024  0.2254
 1582W        W 2579   3.486   3.171   6.652 -0.0116  0.0434  0.0994
 1583W        W 2580   5.467   0.233   0.139  0.5498  0.2179  0.0830
 1584W        W 2581   6.060   5.561   7.278  0.3679 -0.0951  0.0933
 1585W        W 2582   0.146   2.378   0.213  0.0940 -0.2358 -0.0616
 1586W        W 2583   0.325   0.325   0.942 -0.5560 -0.0081 -0.0583
 1587W        W 2584   5.025   0.215   0.610 -0.1824  0.0258 -0.0724
 1588W        W 2585   1.855   0.393   4.540  0.2953  0.1588  0.0927
 1589W        W 2586   5.774   4.761   6.912  0.2917  0.1426 -0.1082
 1590W        W 2587   1.509   4.737   2.449  0.1549 -0.2585 -0.2793
 1591W        W 2588   7.572   2.680   1.847 -0.0503  0.0819 -0.0933
 1592W        W 2589   4.973   4.912   0.389  0.0454  0.1224 -0.0651
 1593W        W 2590   7.017   0.706   4.669 -0.1101 -0.0753  0.4062
 1594W        W 2591   7.304   2.970   3.048 -0.1786 -0.3058 -0.2610
 1595W        W 2592   5.003   2.759   3.351 -0.2888  0.1711 -0.0206
 1596W        W 2593   0.536   2.577   4.453 -0.0242  0.0993  0.0461
 1597W        W 2594   3.672   3.394   1.144  0.1357 -0.3270 -0.1427
 1598W        W 2595   7.601   5.950   5.826  0.2103  0.1488 -0.1162
 1599W        W 2596   0.755   2.348   0.100  0.1735 -0.2299 -0.0189
 1600W        W 2597   2.825   2.502   1.688 -0.1199 -0.1209 -0.0304
 1601W        W 2598   7.017   7.430   4.654 -0.0564 -0.1158  0.1711
 1602W        W 2599   4.683   1.811   4.688  0.0492 -0.1782 -0.0852
 1603W        W 2600   5.824   4.648   4.459  0.0601 -0.1705  0.3963
 1604W        W 2601   0.911   3.626   7.380  0.0188 -0.3164 -0.1101
 1605W        W 2602   1.764   2.762   2.468 -0.1311  0.1258 -0.1895
 1606W        W 2603   2.950   6.004   5.838 -0.4096  0.0834  0.3738
 1607W        W 2604   3.306   0.166   5.307  0.0041 -0.1474  0.0169
 1608W        W 2605   6.876   4.883   2.486 -0.0577 -0.2842 -0.3244
 1609W        W 2606   6.507   6.311   3.243 -0.0610 -0.2484 -0.1384
 1610W        W 2607   5.611   6.649   4.527  0.2095 -0.1655 -0.0920
 1611W        W 2608   4.582   4.143   5.877 -0.0387 -0.0680 -0.2119
 1612W        W 2609   1.310   0.503   5.213 -0.5207  0.0546 -0.0725
 1613W        W 2610   2.204   3.190   5.232  0.0823 -0.1506  0.0470
 1614W        W 2611   3.940   2.840   5.349  0.0214  0.1465 -0.0584
 1615W        W 2612   1.126   1.417   7.428  0.1687  0.0587  0.0222
 1616W        W 2613   6.718   4.937   4.324 -0.2108 -0.0455 -0.2008
 1617W        W 2614   5.766   1.092   1.650  0.1726  0.0553  0.3261
 1618W        W 2615   2.593   7.257   6.800 -0.0444  0.0611 -0.1374
 1619W        W 2616   4.873   6.717   1.501  0.0884 -0.0201 -0.1802
 1620W        W 2617   2.962   0.351   1.440  0.1759  0.3615  0.0075
 1621W        W 2618   3.668   4.718   6.605 -0.0568 -0.4100  0.1034
 1622W        W 2619   4.768   3.800   5.546 -0.0988  0.0918 -0.2523
 1623W        W 2620   2.787   4.011   5.366  0.0980 -0.0830 -0.0884
 1624W        W 2621   3.141   5.603   6.117 -0.0657  0.0109 -0.4507
 1625W        W 2622   4.836   7.093   5.163 -0.1063 -0.1766  0.3156
 1626W        W 2623   3.113   1.840   6.054  0.0244 -0.1443  0.0532
 1627W        W 2624   5.727   4.676   6.298 -0.1046 -0.1222  0.2802
 1628W        W 2625   5.251   4.100   3.235  0.2020  0.1660 -0.5108
 1629W        W 2626   4.410   0.304   7.491 -0.1143  0.1324 -0.1464
 1630W        W 2627   4.954   2.714   4.588  0.0944 -0.1176 -0.1410
 1631W        W 2628   1.514   1.810   6.646  0.2551  0.1073 -0.3600
 1632W        W 2629   7.480   2.041   6.934 -0.0552  0.0207  0.1269
 1633W        W 2630   6.169   3.694   4.151 -0.1761 -0.2091  0.0234
 1634W        W 2631   4.543   3.502   0.109  0.0529  0.0611  0.0580
 1635W        W 2632   2.399   0.854   1.678  0.1770  0.0048  0.1431
 1636W        W 2633   5.532   7.217   0.823  0.2474  0.1263  0.1028
 1637W        W 2634   6.746   7.438   2.951 -0.0011  0.1808 -0.1551
 1638W        W 2635   5.006   5.396   6.175 -0.1518  0.1302  0.1871
 1639W        W 2636   3.342   6.915   5.464  0.0295  0.2342 -0.0369
 1640W        W 2637   0.049   1.625   6.835  0.0282  0.1004  0.2199
 1641W        W 2638   4.370   2.239   4.605  0.2371  0.1228  0.1594
 1642W        W 2639   4.454   0.084   3.683  0.0455 -0.1123 -0.0612
 1643W        W 2640   4.367   1.444   2.679 -0.0021 -0.1808 -0.1997
 1644W        W 2641   4.105   1.084   4.770 -0.3080 -0.1869 -0.1713
 1645W        W 2642   5.458   0.097   2.714  0.1254  0.1665  0.1708
 1646W        W 2643   2.849   6.315   1.972  0.2024  0.0436 -0.1180
 1647W        W 2644   5.729   4.270   4.131  0.0129 -0.2045 -0.1843
 1648W        W 2645   3.191   3.900   1.313 -0.5319  0.0977  0.0390
 1649W        W 2646   4.196   5.299   0.472 -0.1823 -0.4126 -0.1269
 1650W        W 2647   7.233   3.618   2.040  0.1521 -0.1552  0.0459
 1651W        W 2648   5.442   4.846   2.727 -0.2556  0.0053  0.1174
 1652W        W 2649   4.925   3.730   1.259 -0.1995  0.1598  0.1328
 1653W        W 2650   4.380   3.322   2.438 -0.1035 -0.1748  0.1549
 1654W        W 2651   6.892   5.511   4.226  0.0568 -0.4719 -0.0566
 1655W        W 2652   6.239   4.877   7.100 -0.0428  0.4052 -0.1402
 1656W        W 2653   1.201   0.947   3.960 -0.3262 -0.1722 -0.1157
 1657W        W 2654   7.463   2.301   5.639  0.1950 -0.1599  0.1925
 1658W        W 2655   3.169   2.691   2.033 -0.0592  0.0885 -0.3635
 1659W        W 2656   7.263   5.432   4.891 -0.0052 -0.0006  0.0212
 1660W        W 2657   6.808   2.828   2.952 -0.1033 -0.0339  0.2785
 1661W        W 2658   1.732   4.844   7.202 -0.3755  0.2470  0.1685
 1662W        W 2659   6.465   1.019   3.062 -0.1174  0.0796 -0.0073
 1663W        W 2660   6.811   2.019   0.793  0.1466 -0.1112  0.2647
 1664W        W 2661   1.185   4.965   6.361 -0.2712 -0.3556  0.2536
 1665W        W 2662   1.366   5.060   5.370 -0.0863 -0.0892  0.0041
 1666W        W 2663   2.958   6.736   2.514 -0.1627 -0.2297  0.3098
 1667W        W 2664   7.064   0.003   2.048  0.0827  0.1546  0.0278
 1668W        W 2665   7.339   0.325   4.704  0.1975  0.1736 -0.0767
 1669W        W 2666   7.387   3.792   6.349  0.0775 -0.3070 -0.1030
 1670W        W 2667   0.057   6.766   5.608 -0.0590 -0.1044  0.0274
 1671W        W 2668   7.341   3.735   0.502  0.1167  0.0073 -0.2377
 1672W        W 2669   2.115   4.210   6.166 -0.3610 -0.2305 -0.0080
 1673W        W 2670   6.235   0.670   0.720  0.0532  0.0288  0.3947
 1674W        W 2671   1.560   7.005   2.073  0.0029 -0.1675  0.2087
 1675W        W 2672   7.111   5.410   5.487 -0.3103 -0.1183  0.1878
 1676W        W 2673   3.685   1.400   7.653 -0.0255 -0.0507  0.3452
 1677W        W 2674   1.981   0.584   2.661 -0.0583 -0.1430 -0.0922
 1678W        W 2675   2.546   7.326   2.086 -0.1677  0.1667  0.0342
 1679W        W 2676   2.402   5.037   5.508  0.0733  0.1429 -0.0922
 1680W        W 2677   4.863   6.760   5.618 -0.0962 -0.1296 -0.3779
 1681W        W 2678   5.564   1.911   2.258  0.3464 -0.1643 -0.1182
 1682W        W 2679   1.770   0.734   5.070 -0.2401 -0.0141  0.1185
 1683W        W 2680   0.863   0.872   0.737 -0.4560 -0.0266 -0.1342
 1684W        W 2681   7.056   0.655   3.698  0.0072 -0.0896 -0.0174
 1685W        W 2682   1.123   2.889   0.747 -0.2838 -0.1412  0.3496
 1686W        W 2683   0.851   4.547   5.399  0.0591  0.1377 -0.2651
 1687W        W 2684   4.035   4.969   3.549 -0.1122 -0.1674 -0.0949
 1688W        W 2685   2.534   1.457   0.957  0.0271  0.1336  0.3190
 1689W        W 2686   0.332   6.687   3.824  0.2925  0.0097  0.1206
 1690W        W 2687   0.741   3.570   1.323  0.0955  0.0397  0.0024
 1691W        W 2688   3.885   6.378   0.409 -0.2866  0.0248  0.1294
 1692W        W 2689   4.031   6.716   7.617 -0.2829 -0.0914 -0.3272
 1693W        W 2690   7.171   5.015   1.551  0.1818 -0.1655  0.0846
 1694W        W 2691   0.957   0.561   7.251  0.0511 -0.0902 -0.1248
 1695W        W 2692   5.775   6.503   6.594  0.1518  0.4530  0.3675
 1696W        W 2693   3.434   1.910   5.145 -0.1472  0.2399 -0.1651
 1697W        W 2694   2.406   2.659   0.920  0.2405  0.2979 -0.0582
 1698W        W 2695   3.216   5.146   5.848  0.0165 -0.1579 -0.1645
 1699W        W 2696   2.564   7.295   5.250  0.2071  0.1180  0.0028
 1700W        W 2697   4.918   3.322   5.295 -0.1085  0.1184 -0.0649
 1701W        W 2698   0.866   0.882   6.178  0.1815 -0.0171  0.0826
 1702W        W 2699   4.171   2.779   1.608  0.1267  0.0861 -0.1485
 1703W        W 2700   5.805   7.478   2.930 -0.0922  0.0901  0.0314
 1704W        W 2701   2.049   4.775   2.315  0.1773  0.4623 -0.0371
 1705W        W 2702   1.524   6.176   1.798 -0.1000  0.1464 -0.1014
 1706W        W 2703   4.103   5.401   2.525 -0.0429  0.2338  0.3011
 1707W        W 2704   2.919   4.295   1.271 -0.2923 -0.2163 -0.1207
 1708W        W 2705   7.149   4.149   1.483  0.0227 -0.0091 -0.3085
 1709W        W 2706   0.222   2.433   6.993 -0.0906  0.0805  0.1549
 1710W        W 2707   4.933   1.597   3.455 -0.1605  0.0649 -0.4899
 1711W        W 2708   4.489   3.503   0.626 -0.0991  0.1613 -0.1855
 1712W        W 2709   0.123   0.054   2.605  0.6796 -0.4106  0.0841
 1713W        W 2710   3.669   5.994   0.194  0.3074 -0.2036  0.1529
 1714W        W 2711   1.621   7.219   4.324 -0.2281  0.2678 -0.0675
 1715W        W 2712   5.662   2.122   3.162 -0.1158  0.2114 -0.0876
 1716W        W 2713   2.215   3.228   1.814 -0.0140 -0.1825 -0.0777
 1717W        W 2714   4.092   4.311   2.467  0.0196  0.1385 -0.1969
 1718W        W 2715   0.883   7.003   6.855  0.0844  0.2484 -0.0034
 1719W        W 2716   5.356   2.230   0.380  0.0064 -0.0470  0.1605
 1720W        W 2717   0.706   3.172   1.541 -0.0830  0.2461  0.0010
 1721W        W 2718   0.681   5.701   6.277  0.1828 -0.1498 -0.0142
 1722W        W 2719   0.004   3.920   3.297  0.2106 -0.0118  0.2764
 1723W        W 2720   4.430   3.980   1.399 -0.3859 -0.0137 -0.1527
 1724W        W 2721   0.711   5.597   6.814 -0.2375  0.1314  0.0759
 1725W        W 2722   6.518   7.497   0.807 -0.3357 -0.1010 -0.0554
 1726W        W 2723   6.978   3.179   6.750  0.1490  0.1841 -0.1182
 1727W        W 2724   4.390   1.925   1.211 -0.3149  0.2235  0.1112
 1728W        W 2725   1.099   2.814   5.821  0.0102  0.0864  0.3358
 1729W        W 2726   7.218   1.476   5.624 -0.2353  0.0280 -0.0965
 1730W        W 2727   3.251   6.336   2.223 -0.2863  0.0794 -0.0406
 1731W        W 2728   6.110   4.676   3.962 -0.0569 -0.0257  0.1099
 1732W        W 2729   6.049   2.206   3.603 -0.2340 -0.2356  0.2106
 1733W        W 2730   1.759   3.512   1.860 -0.0521  0.0438 -0.0577
 1734W        W 2731   3.446   0.097   1.709  0.0393 -0.1357 -0.4664
 1735W        W 2732   0.229   4.767   1.007 -0.0886  0.0620 -0.0254
 1736W        W 2733   6.851   3.518   4.490  0.0862 -0.2920  0.0923
 1737W        W 2734   3.384   2.786   5.272  0.1054 -0.1697  0.0497
 1738W        W 2735   0.969   7.546   3.194 -0.2941 -0.1378  0.0405
 1739W        W 2736   1.292   4.620   3.881  0.2812 -0.0192  0.1625
 1740W        W 2737   4.402   0.905   3.960  0.5199  0.0453  0.2415
 1741W        W 2738   2.543   5.413   6.295  0.0689  0.0156 -0.0075
 1742W        W 2739   6.525   4.033   0.145  0.5008 -0.1064  0.0171
 1743W        W 2740   6.253   6.620   1.447  0.1265  0.1275  0.2025
 1744W        W 2741   1.753   5.013   1.957 -0.2015  0.1542 -0.3658
 1745W        W 2742   7.259   1.503   4.225  0.0790  0.0944  0.0846
 1746W        W 2743   2.293   7.594   3.006 -0.0796 -0.1382 -0.2390
 1747W        W 2744   4.661   7.104   2.071 -0.0209 -0.1031  0.2207
 1748W        W 2745   0.402   1.418   2.414 -0.1333  0.3054  0.0757
 1749W        W 2746   5.010   7.045   2.529 -0.2274  0.1404 -0.4627
 1750W        W 2747   4.058   3.348   0.218 -0.1833  0.2176 -0.1936
 1751W        W 2748   2.603   3.563   7.655  0.0731  0.1617  0.0708
 1752W        W 2749   1.679   3.217   7.204 -0.3950 -0.2508 -0.0302
 1753W        W 2750   2.258   6.046   5.288 -0.1094 -0.2730 -0.0401
 1754W        W 2751   5.207   5.772   4.399  0.1217 -0.0483  0.0743
 1755W        W 2752   5.465   1.860   4.177  0.2102  0.2052 -0.1644
 1756W        W 2753   5.358   0.715   1.470 -0.0920 -0.4062 -0.2107
 1757W        W 2754   5.774   3.978   7.105  0.2175 -0.0682  0.4871
 1758W        W 2755   6.761   4.125   6.632 -0.0275 -0.0902 -0.1952
 1759W        W 2756   1.302   2.195   3.389 -0.1872 -0.1903  0.1169
 1760W        W 2757   7.376   1.359   1.769  0.0716  0.0625 -0.2763
 1761W        W 2758   4.495   2.060   5.114  0.0940 -0.1376  0.0777
 1762W        W 2759   0.821   2.846   6.253 -0.3293  0.0161 -0.2832
 1763W        W 2760   5.552   3.011   0.420 -0.0109  0.1021  0.3361
 1764W        W 2761   1.421   2.165   4.439 -0.2867 -0.0918  0.0655
 1765W        W 2762   2.233   4.437   0.679 -0.0791 -0.2704  0.2490
 1766W        W 2763   0.123   1.061   1.578 -0.0503  0.3999  0.1631
 1767W        W 2764   0.420   0.235   3.877 -0.4265  0.0839  0.0863
 1768W        W 2765   2.879   0.827   1.523  0.0698  0.2357  0.1220
 1769W        W 2766   1.726   7.459   5.370  0.1793 -0.2395 -0.0461
 1770W        W 2767   2.568   5.021   5.946 -0.1567  0.2994 -0.1166
 1771W        W 2768   1.735   6.486   2.168 -0.1078  0.3765  0.0026
 1772W        W 2769   4.063   2.253   0.963 -0.2276 -0.1581 -0.0245
 1773W        W 2770   3.203   1.386   6.980  0.2941 -0.2260  0.3996
 1774W        W 2771   5.238   4.632   3.421  0.1856  0.0660  0.0355
 1775W        W 2772   7.054   6.086   4.073  0.1232  0.0940  0.2418
 1776W        W 2773   0.327   1.249   3.774  0.1607  0.2886 -0.0541
 1777W        W 2774   3.988   5.883   3.808 -0.2035  0.0174 -0.0080
 1778W        W 2775   2.968   5.295   2.293 -0.0344 -0.0082 -0.2593
 1779W        W 2776   7.385   3.552   1.527 -0.1611 -0.3176  0.0654
 1780W        W 2777   5.437   4.989   0.290  0.3260  0.2436  0.1114
 1781W        W 2778   6.281   5.399   1.549 -0.1323 -0.1762 -0.2240
 1782W        W 2779   4.635   1.642   2.079 -0.0261 -0.0649  0.0894
 1783W        W 2780   3.061   7.209   5.021  0.0481 -0.0818  0.1587
 1784W        W 2781   7.379   6.366   5.769  0.2029 -0.2666 -0.1825
 1785W        W 2782   5.659   2.967   4.759 -0.2017  0.0973  0.3070
 1786W        W 2783   6.636   6.910   3.028  0.3332  0.0781 -0.4399
 1787W        W 2784   1.950   3.844   5.777 -0.0738  0.1661  0.0786
 1788W        W 2785   6.658   2.796   4.664 -0.2933 -0.1192 -0.2402
 1789W        W 2786   0.833   3.067   0.338 -0.2650  0.3579 -0.1651
 1790W        W 2787   4.684   0.223   3.227  0.0140  0.1943 -0.1533
 1791W        W 2788   5.167   0.488   1.959 -0.1305  0.1620  0.0560
 1792W        W 2789   3.614   1.138   5.921 -0.1350  0.1513 -0.1416
 1793W        W 2790   4.742   1.956   1.631 -0.0373 -0.1711 -0.3738
 1794W        W 2791   5.694   5.546   1.936 -0.1219  0.1088  0.0887
 1795W        W 2792   5.860   3.864   0.363 -0.1607  0.0435 -0.0732
 1796W        W 2793   2.639   3.157   6.966 -0.1304 -0.1416  0.0496
 1797W        W 2794   1.186   7.062   1.663 -0.2560  0.0891  0.0063
 1798W        W 2795   0.521   5.886   1.631 -0.1310  0.0465 -0.3019
 1799W        W 2796   2.535   3.657   7.155  0.0122  0.3332  0.0242
 1800W        W 2797   6.327   4.310   4.839  0.0845  0.0430 -0.1461
 1801W        W 2798   3.203   3.619   7.636 -0.0651 -0.0960 -0.0355
 1802W        W 2799   7.004   3.089   4.828 -0.0926 -0.1299  0.1055
 1803W        W 2800   4.724   0.615   2.823 -0.3368  0.2570  0.1465
 1804W        W 2801   2.108   0.479   0.759 -0.1538 -0.4415  0.0646
 1805W        W 2802   4.401   4.424   0.752 -0.0190  0.2680 -0.0322
 1806W        W 2803   7.351   3.526   2.545  0.2198  0.0679 -0.0947
 1807W        W 2804   7.166   4.016   2.357  0.1383 -0.3079 -0.1061
 1808W        W 2805   2.088   0.924   5.395  0.1462  0.0594  0.1944
 1809W        W 2806   3.836   7.113   2.486  0.0273 -0.0702  0.1011
 1810W        W 2807   0.518   4.914   7.611  0.1437  0.2319  0.0589
 1811W        W 2808   5.181   2.565   1.181 -0.1126  0.0740  0.0032
 1812W        W 2809   1.912   3.366   0.524 -0.1962  0.2647 -0.0992
 1813W        W 2810   2.824   7.661   6.258  0.0119  0.1354 -0.3670
 1814W        W 2811   5.846   1.078   2.140 -0.3140  0.2931  0.1956
 1815W        W 2812   0.035   2.865   6.851  0.1403 -0.0198  0.1779
 1816W        W 2813   2.445   2.399   0.458 -0.0446 -0.0915 -0.0845
 1817W        W 2814   1.550   1.957   2.366 -0.1252  0.2135 -0.2047
 1818W        W 2815   5.112   5.056   7.604  0.0507 -0.1417  0.3304
 1819W        W 2816   3.495   6.211   5.042 -0.4833 -0.2570  0.3396
 1820W        W 2817   6.055   1.822   3.325  0.2193 -0.0658 -0.2078
 1821W        W 2818   0.981   7.135   4.639  0.1244  0.3506  0.1790
 1822W        W 2819   0.652   3.504   5.516  0.1471  0.3163  0.1938
 1823W        W 2820   1.149   0.797   3.218 -0.0876  0.0138 -0.1479
 1824W        W 2821   5.847   2.467   4.892  0.1532 -0.0946 -0.1256
 1825W        W 2822   5.993   2.695   0.460 -0.1987  0.0798 -0.1308
 1826W        W 2823   7.457   0.389   2.243  0.1265  0.1593  0.0910
 1827W        W 2824   1.872   7.609   2.029  0.0579 -0.0476 -0.2642
 1828W        W 2825   2.749   2.007   5.694 -0.0258  0.1754 -0.1793
 1829W        W 2826   3.175   1.293   7.482  0.0665  0.2505  0.0713
 1830W        W 2827   1.499   6.595   6.510  0.1987 -0.0452  0.0396
 1831W        W 2828   5.706   4.325   6.728  0.1736  0.0109  0.0353
 1832W        W 2829   0.595   2.364   6.514 -0.2629 -0.0415 -0.1628
 1833W        W 2830   3.264   6.600   1.006 -0.2819 -0.1903 -0.0810
 1834W        W 2831   0.106   4.959   1.561  0.2741  0.2739  0.0949
 1835W        W 2832   3.499   4.873   5.339 -0.0753  0.0729  0.2071
 1836W        W 2833   0.338   6.674   0.441  0.1853  0.1019 -0.0280
 1837W        W 2834   4.883   6.684   3.428 -0.1702  0.0239  0.0251
 1838W        W 2835   6.600   5.768   1.693  0.1534  0.2666  0.0214
 1839W        W 2836   7.023   2.352   7.387 -0.1416 -0.0774  0.1025
 1840W        W 2837   1.021   0.426   0.425 -0.1011 -0.2218  0.1500
 1841W        W 2838   0.301   5.971   7.039 -0.0699 -0.0132  0.2870
 1842W        W 2839   2.757   3.236   6.459 -0.1822  0.0512 -0.0871
 1843W        W 2840   7.029   7.199   0.609 -0.1847  0.2122  0.1920
 1844W        W 2841   1.450   4.733   2.964  0.3138  0.0336  0.2113
 1845W        W 2842   5.441   2.799   3.071 -0.0821 -0.2580  0.0066
 1846W        W 2843   4.195   5.051   6.075 -0.1953 -0.1316  0.0245
 1847W        W 2844   5.714   5.445   0.257 -0.0797  0.0209  0.1248
 1848W        W 2845   5.402   3.607   0.380  0.0443  0.0596  0.1909
 1849W        W 2846   4.654   1.602   3.036 -0.0398 -0.2990 -0.1722
 1850W        W 2847   5.848   2.318   2.286  0.0281 -0.2701 -0.1596
 1851W        W 2848   1.977   7.642   4.090 -0.0081  0.1715  0.0393
 1852W        W 2849   4.616   3.017   0.176  0.3615  0.0944 -0.0053
 1853W        W 2850   3.484   5.744   4.864  0.0664  0.1047 -0.1027
 1854W        W 2851   2.020   6.936   2.010 -0.2359  0.1395  0.3655
 1855W        W 2852   2.886   0.164   6.875  0.1950 -0.0884 -0.2249
 1856W        W 2853   4.779   6.191   6.925  0.0313 -0.1605 -0.1061
 1857W        W 2854   7.265   4.172   6.765 -0.0002  0.1419  0.2754
 1858W        W 2855   5.953   6.235   0.014  0.1165 -0.1081  0.0726
 1859W        W 2856   5.471   0.105   0.686  0.0282 -0.4222 -0.1374
 1860W        W 2857   1.035   2.330   6.036  0.3495 -0.1935  0.4943
 1861W        W 2858   0.732   5.098   4.561  0.0273 -0.2328 -0.3161
 1862W        W 2859   4.950   7.123   7.601  0.0702 -0.1575 -0.1275
 1863W        W 2860   5.319   3.242   6.569 -0.3066  0.1366  0.0145
 1864W        W 2861   2.641   2.482   5.632  0.2678  0.2913 -0.1887
 1865W        W 2862   3.081   0.630   6.997  0.0577 -0.2984 -0.1172
 1866W        W 2863   6.340   4.046   6.883 -0.0082 -0.0375  0.1052
 1867W        W 2864   4.516   5.105   7.479  0.0859 -0.1859 -0.2803
 1868W        W 2865   3.726   3.637   2.107  0.2168 -0.0419 -0.1752
 1869W        W 2866   0.285   0.157   0.423 -0.0851 -0.2287  0.1178
 1870W        W 2867   3.186   3.584   6.318 -0.1827  0.1389 -0.1136
 1871W        W 2868   1.281   6.085   7.225  0.4160  0.0316  0.0606
 1872W        W 2869   4.436   3.403   5.702  0.1078  0.4873 -0.1378
 1873W        W 2870   1.565   3.861   7.308  0.0913 -0.1409 -0.1660
 1874W        W 2871   3.956   3.044   5.853 -0.2080 -0.0491  0.0602
 1875W        W 2872   3.938   7.333   0.668  0.3384  0.1162 -0.1980
 1876W        W 2873   6.141   6.488   5.075 -0.2336 -0.2472 -0.2099
 1877W        W 2874   4.566   6.684   6.960  0.0868 -0.0279 -0.1454
 1878W        W 2875   5.052   2.631   2.156 -0.0013 -0.3134  0.2968
 1879W        W 2876   0.329   3.996   3.702  0.0303 -0.0450  0.1563
 1880W        W 2877   5.981   0.573   1.874  0.4054 -0.1646  0.2018
 1881W        W 2878   5.207   4.656   5.249  0.2274 -0.0129 -0.4115
 1882W        W 2879   2.740   2.823   0.350  0.1080  0.2312 -0.0507
 1883W        W 2880   5.204   0.717   0.011 -0.1770 -0.2088 -0.0623
 1884W        W 2881   6.047   3.151   1.828 -0.1922 -0.1030  0.0759
 1885W        W 2882   3.489   2.264   5.972  0.0049  0.0411 -0.0691
 1886W        W 2883   2.284   0.201   6.035  0.1559 -0.0267  0.1262
 1887W        W 2884   5.659   5.343   2.826 -0.2421 -0.3150  0.0033
 1888W        W 2885   2.388   2.165   6.015 -0.2645  0.3143 -0.4067
 1889W        W 2886   3.739   4.302   6.254  0.1066  0.0015 -0.1180
 1890W        W 2887   7.315   3.181   5.809 -0.2803 -0.1118  0.3088
 1891W        W 2888   4.985   3.988   6.358 -0.1965 -0.2085 -0.0167
 1892W        W 2889   5.076   3.975   2.247  0.0072  0.2063  0.2362
 1893W        W 2890   6.741   5.325   1.436  0.0731  0.0844  0.0732
 1894W        W 2891   7.340   1.056   5.425  0.3220  0.1505 -0.0397
 1895W        W 2892   0.751   5.446   5.793 -0.0599  0.1677 -0.0750
 1896W        W 2893   2.387   1.056   4.390  0.0151 -0.1527  0.2349
 1897W        W 2894   2.566   1.297   1.427 -0.1070  0.0419  0.1809
 1898W        W 2895   6.941   2.837   6.088 -0.1744 -0.0142  0.2607
 1899W        W 2896   2.531   0.246   0.101 -0.0208 -0.1472 -0.1546
 1900W        W 2897   6.524   6.479   2.701  0.0162  0.1666  0.0632
 1901W        W 2898   4.768   3.223   2.023  0.1626  0.4563 -0.0807
 1902W        W 2899   5.376   3.912   4.510 -0.0866 -0.2330 -0.1579
 1903W        W 2900   3.693   0.579   5.596  0.2544  0.1135 -0.2007
 1904W        W 2901   6.601   6.535   0.577  0.0431 -0.0016 -0.0788
 1905W        W 2902   7.545   3.623   5.947 -0.0038  0.0746 -0.0423
 1906W        W 2903   4.502   3.908   3.710  0.0351  0.0543 -0.2079
 1907W        W 2904   2.361   7.523   6.480 -0.0909 -0.0109 -0.1316
 1908W        W 2905   4.047   7.246   1.152 -0.1475 -0.3178 -0.0466
 1909W        W 2906   0.345   5.587   3.955 -0.0630 -0.0220 -0.0329
 1910W        W 2907   0.400   0.188   3.019 -0.2321 -0.1610  0.0364
 1911W        W 2908   1.340   1.581   0.503 -0.3694  0.1454 -0.1569
 1912W        W 2909   4.364   7.073   5.362 -0.0738  0.0759  0.0176
 1913W        W 2910   0.937   1.939   1.850  0.1866 -0.2227 -0.1837
 1914W        W 2911   2.559   6.386   2.420  0.2942  0.4095 -0.1771
 1915W        W 2912   7.067   3.706   6.702 -0.0352 -0.0455  0.0743
 1916W        W 2913   5.344   2.769   3.742 -0.1826  0.0836 -0.0549
 1917W        W 2914   5.099   0.359   2.977  0.0027  0.0664 -0.3559
 1918W        W 2915   5.411   3.643   3.578 -0.0747  0.1634  0.1735
 1919W        W 2916   1.106   5.951   1.520  0.0333 -0.1532  0.0262
 1920W        W 2917   2.026   4.383   2.624  0.1138  0.1879 -0.0832
 1921W        W 2918   3.996   7.383   5.474 -0.0703  0.3848  0.2863
 1922W        W 2919   4.038   0.710   7.118  0.0357 -0.2301 -0.2116
 1923W        W 2920   3.815   0.102   1.000  0.1293  0.1686  0.0419
 1924W        W 2921   4.334   5.636   0.885  0.0855 -0.3541 -0.2126
 1925W        W 2922   2.320   3.500   6.669  0.3335  0.0831  0.1847
 1926W        W 2923   3.250   2.730   0.768 -0.0024  0.2290 -0.2152
 1927W        W 2924   0.353   3.293   1.060 -0.1900  0.1652  0.4101
 1928W        W 2925   4.149   7.190   0.235 -0.0756 -0.1161 -0.1359
 1929W        W 2926   2.787   4.947   0.520  0.2986 -0.0877 -0.0389
 1930W        W 2927   5.419   3.872   1.667 -0.1051  0.1540 -0.0040
 1931W        W 2928   6.754   2.557   0.962 -0.0574 -0.0292 -0.0176
 1932W        W 2929   7.541   5.469   5.740 -0.0194  0.2185  0.2480
 1933W        W 2930   3.426   6.992   2.692 -0.1633 -0.0646 -0.3196
 1934W        W 2931   4.269   0.816   7.564  0.0718  0.0291 -0.3028
 1935W        W 2932   5.725   3.935   3.309  0.1268 -0.0222 -0.2138
 1936W        W 2933   5.551   5.016   1.801 -0.0163 -0.0174 -0.2200
 1937W        W 2934   5.444   7.324   3.623  0.1650 -0.2011 -0.1630
 1938W        W 2935   2.859   5.632   6.593 -0.0055 -0.0248 -0.4711
 1939W        W 2936   4.394   1.652   6.958 -0.0061 -0.0449  0.2300
 1940W        W 2937   4.049   7.275   2.048  0.0152 -0.2226 -0.0607
 1941W        W 2938   5.432   1.336   2.506 -0.0110  0.2820 -0.1286
 1942W        W 2939   4.461   0.837   4.461  0.1935 -0.3622 -0.0146
 1943W        W 2940   7.212   3.137   0.411 -0.1690  0.1581 -0.0587
 1944W        W 2941   7.165   5.510   1.282 -0.2631  0.4391  0.1625
 1945W        W 2942   5.606   6.071   5.821  0.0352  0.0817 -0.1292
 1946W        W 2943   3.841   5.887   5.394 -0.1387 -0.3954 -0.0008
 1947W        W 2944   2.540   5.387   0.563  0.1748  0.1163  0.0862
 1948W        W 2945   1.127   1.748   4.669  0.1058 -0.0002  0.0365
 1949W        W 2946   0.376   1.105   3.243 -0.0514  0.3071 -0.1406
 1950W        W 2947   1.457   6.776   3.485  0.2295 -0.2793  0.0086
 1951W        W 2948   5.274   6.341   0.475  0.0480  0.1030 -0.0322
 1952W        W 2949   6.088   5.755   0.106 -0.0366 -0.0700  0.2189
 1953W        W 2950   7.241   2.773   0.939 -0.1919  0.0854 -0.0218
 1954W        W 2951   2.142   2.824   0.536 -0.0154 -0.2024  0.2856
 1955W        W 2952   6.135   1.364   1.363  0.1048 -0.2657  0.3095
 1956W        W 2953   6.691   2.351   4.353 -0.0544 -0.2816  0.1405
 1957W        W 2954   7.586   4.436   6.362 -0.0377 -0.0441 -0.1197
 1958W        W 2955   7.118   2.800   3.511  0.3689 -0.2675  0.3417
 1959W        W 2956   6.474   4.585   3.548  0.1371 -0.0323  0.3167
 1960W        W 2957   0.576   5.085   3.066 -0.1161 -0.0748 -0.1603
 1961W        W 2958   5.278   1.246   1.543 -0.0934 -0.0539 -0.2125
 1962W        W 2959   4.712   3.473   3.915 -0.0383 -0.0553 -0.0401
 1963W        W 2960   4.010   3.797   1.276  0.0199  0.0512  0.1256
 1964W        W 2961   3.792   6.394   3.464  0.0465  0.0931 -0.0524
 1965W        W 2962   5.791   4.373   4.846  0.4381 -0.1449 -0.0592
 1966W        W 2963   2.151   7.342   6.121  0.0623  0.0402  0.2564
 1967W        W 2964   6.169   5.621   5.457  0.2249 -0.0340  0.1468
 1968W        W 2965   6.001   4.600   7.509  0.0847 -0.2369 -0.0808
 1969W        W 2966   1.780   2.213   5.313 -0.0408  0.0378  0.2376
 1970W        W 2967   1.869   2.529   1.002  0.2677  0.2062 -0.1211
 1971W        W 2968   6.457   6.691   6.151 -0.0825  0.0784  0.3084
 1972W        W 2969   6.163   2.757   6.785  0.1430 -0.0530  0.0883
 1973W        W 2970   2.734   5.943   5.371 -0.0225  0.2375  0.0530
 1974W        W 2971   6.309   5.741   6.483  0.0998 -0.0602 -0.1809
 1975W        W 2972   0.045   3.332   7.332 -0.0700  0.1418 -0.3224
 1976W        W 2973   7.537   6.444   6.252 -0.2873 -0.1767 -0.1539
 1977W        W 2974   5.872   0.518   3.956 -0.2518 -0.0286 -0.0213
 1978W        W 2975   3.152   2.982   6.304  0.0733  0.0721  0.2017
 1979W        W 2976   3.751   6.152   3.031 -0.2611  0.1288  0.0287
 1980W        W 2977   7.630   2.640   4.407 -0.2124 -0.1950  0.0817
 1981W        W 2978   6.749   5.923   3.611 -0.1023  0.0041  0.0894
 1982W        W 2979   1.837   7.072   0.648 -0.1904  0.1639 -0.0130
 1983W        W 2980   0.067   3.744   2.801  0.0691  0.1153  0.2425
 1984W        W 2981   6.909   7.159   2.014 -0.4222 -0.3824 -0.3619
 1985W        W 2982   4.338   6.087   1.855  0.0683  0.0279  0.0117
 1986W        W 2983   3.496   3.321   0.290  0.0123 -0.0564  0.0874
 1987W        W 2984   0.806   1.210   3.522  0.0362 -0.2541 -0.5223
 1988W        W 2985   2.810   7.099   1.659  0.0486  0.0177 -0.1650
 1989W        W 2986   1.378   3.228   4.623 -0.2436  0.1334  0.2406
 1990W        W 2987   4.890   4.146   7.641 -0.1242  0.0986 -0.2185
 1991W        W 2988   2.645   3.530   1.817  0.2219 -0.1318 -0.1994
 1992W        W 2989   7.152   3.368   6.257 -0.1207 -0.0592 -0.3148
 1993W        W 2990   0.738   6.867   0.708 -0.0807  0.2060  0.2439
 1994W        W 2991   1.479   0.059   4.217  0.0630 -0.1644 -0.2720
 1995W        W 2992   1.328   4.402   0.250  0.2452 -0.2253  0.1686
 1996W        W 2993   5.974   5.112   2.530 -0.1557 -0.2212  0.1729
 1997W        W 2994   4.125   4.933   4.119  0.4912  0.3928  0.1420
 1998W        W 2995   4.359   4.155   6.998  0.1923  0.1516 -0.1016
 1999W        W 2996   2.121   1.450   7.068 -0.0984 -0.0017 -0.0480
 2000W        W 2997   4.429   5.998   7.217  0.3851  0.3815  0.1308
 2001W        W 2998   1.316   5.564   1.220 -0.0338  0.1031  0.0873
 2002W        W 2999   7.517   5.227   5.304 -0.1668 -0.0821  0.4322
 2003W        W 3000   5.480   3.801   2.504  0.0102 -0.4590 -0.1990
 2004W        W 3001   1.134   1.681   5.716 -0.3616 -0.0313 -0.0397
 2005W        W 3002   1.300   0.562   7.611 -0.1393  0.0580 -0.0835
 2006W        W 3003   5.990   6.564   0.478  0.0229 -0.2276  0.3565
 2007W        W 3004   2.509   6.861   7.154  0.0232 -0.2888 -0.0063
 2008W        W 3005   5.971   1.030   3.736  0.2674 -0.0829 -0.0327
 2009W        W 3006   0.507   5.753   4.901 -0.0215  0.2470 -0.1013
 2010W        W 3007   0.871   3.890   4.069 -0.1238 -0.1074 -0.3215
 2011W        W 3008   3.292   1.399   6.145  0.2516  0.2773 -0.1741
 2012W        W 3009   2.944   3.915   7.166  0.1589 -0.2519  0.0255
 2013W        W 3010   0.265   5.335   2.793  0.3753  0.1646 -0.0353
 2014W        W 3011   0.713   0.639   6.854  0.2483 -0.1349  0.0198
 2015W        W 3012   6.960   4.695   3.143  0.1949 -0.2384  0.1588
 2016W        W 3013   6.027   4.398   7.087  0.0042  0.3248  0.2006
 2017W        W 3014   4.636   6.481   3.041  0.2228  0.0343 -0.1261
 2018W        W 3015   6.016   4.992   2.996  0.0073  0.2693  0.0472
 2019W        W 3016   1.081   0.724   2.137  0.1622 -0.3593 -0.2615
 2020W        W 3017   3.161   2.557   0.266  0.1766 -0.3494 -0.2186
 2021W        W 3018   7.081   4.646   4.206  0.1377 -0.0649  0.1434
 2022W        W 3019   6.011   6.390   2.802 -0.2524 -0.1652  0.2138
 2023W        W 3020   4.649   3.257   4.770  0.4004  0.2305 -0.2301
 2024W        W 3021   4.215   6.537   6.193  0.2381  0.1680  0.0137
 2025W        W 3022   3.522   7.282   7.012 -0.0260  0.0486 -0.2846
 2026W        W 3023   4.363   5.969   6.241  0.1937 -0.0654 -0.1754
 2027W        W 3024   1.999   6.259   1.454 -0.1327 -0.2803  0.1911
 2028W        W 3025   7.592   2.722   2.581 -0.2831 -0.0329  0.1651
 2029W        W 3026   0.803   3.453   2.248 -0.1203  0.2270 -0.0072
 2030W        W 3027   4.859   4.419   4.287  0.1574  0.0416  0.0880
 2031W        W 3028   4.566   2.868   3.206 -0.1411 -0.2355  0.1325
 2032W        W 3029   7.560   1.997   3.371  0.0393 -0.1493  0.0223
 2033W        W 3030   6.499   5.173   7.452  0.4282  0.0600  0.1384
 2034W        W 3031   3.276   5.567   2.572  0.1137 -0.1153  0.2022
 2035W        W 3032   2.191   1.283   6.221  0.0478 -0.0723  0.0224
 2036W        W 3033   0.272   3.326   6.864  0.0233 -0.0474  0.0448
 2037W        W 3034   0.106   1.152   0.110 -0.2508 -0.0759  0.2542
 2038W        W 3035   0.601   0.778   3.590 -0.1904 -0.0124 -0.1747
 2039W        W 3036   4.975   1.565   4.303 -0.1042  0.0489  0.0787
 2040W        W 3037   1.124   6.182   0.116  0.3062 -0.1411 -0.0210
 2041W        W 3038   0.469   4.515   7.254 -0.0523 -0.0500  0.1638
 2042W        W 3039   3.473   5.494   1.016  0.2727  0.0282 -0.1633
 2043W        W 3040   2.083   6.110   0.465  0.1161  0.0094 -0.0823
 2044W        W 3041   2.674   3.502   5.380 -0.1482  0.0488  0.1864
 2045W        W 3042   1.924   2.893   1.475 -0.0944  0.0336  0.2810
 2046W        W 3043   0.824   5.677   1.233  0.3885 -0.1352 -0.3075
 2047W        W 3044   3.365   2.569   6.499  0.0715 -0.3026  0.1215
 2048W        W 3045   6.784   6.441   1.254  0.3764  0.0943  0.1518
 2049W        W 3046   2.134   3.910   1.230 -0.4014  0.0340  0.1086
 2050W        W 3047   6.437   7.445   3.509 -0.1520 -0.2045 -0.2347
 2051W        W 3048   6.268   6.323   6.548 -0.0850  0.1638  0.1520
 2052W        W 3049   6.776   3.140   1.725  0.1775  0.0677 -0.0483
 2053W        W 3050   2.519   0.954   5.162  0.1531 -0.3264 -0.1077
 2054W        W 3051   4.941   7.232   4.685 -0.0737  0.1384 -0.2816
 2055W        W 3052   0.329   4.382   0.091 -0.2169 -0.1869  0.1103
 2056W        W 3053   7.538   5.963   6.790  0.0124  0.0083 -0.0226
 2057W        W 3054   6.835   2.151   0.322  0.0327  0.3303  0.1610
 2058W        W 3055   3.648   2.389   5.227  0.2291 -0.2885  0.0120
 2059W        W 3056   7.526   6.612   2.717 -0.2461 -0.1930  0.1876
 2060W        W 3057   6.628   4.921   5.892  0.1873 -0.0375 -0.0841
 2061W        W 3058   5.109   1.169   3.255 -0.0699  0.0938 -0.1766
 2062W        W 3059   5.903   3.204   5.854 -0.5792  0.0072  0.2801
 2063W        W 3060   0.494   2.195   1.011 -0.3749  0.0062  0.1197
 2064W        W 3061   3.761   6.436   0.943  0.1899  0.3321  0.3474
 2065W        W 3062   6.341   6.658   5.587  0.1031  0.2272 -0.3507
 2066W        W 3063   7.575   1.386   2.614 -0.0567 -0.1419 -0.2055
 2067W        W 3064   2.833   3.693   5.811 -0.3230  0.2337 -0.0884
 2068W        W 3065   0.916   6.362   5.586  0.1559 -0.1808  0.0800
 2069W        W 3066   5.116   6.273   3.197  0.0500 -0.1677 -0.0838
 2070W        W 3067   6.972   5.150   2.959  0.1798  0.3654  0.0180
 2071W        W 3068   1.863   2.934   6.427  0.1304  0.1952  0.2123
 2072W        W 3069   3.382   1.650   1.487 -0.0938 -0.1562  0.2315
 2073W        W 3070   5.431   0.261   4.068 -0.0658 -0.1955  0.2678
 2074W        W 3071   7.565   6.429   7.066 -0.0973 -0.2653 -0.0913
 2075W        W 3072   5.243   2.796   2.583 -0.2331  0.3583 -0.0611
 2076W        W 3073   6.638   5.031   6.599  0.0877 -0.2705  0.0539
 2077W        W 3074   4.171   4.583   6.518 -0.0916  0.0378 -0.1594
 2078W        W 3075   0.933   2.017   5.091  0.0551  0.1309  0.0220
 2079W        W 3076   0.468   3.502   0.328 -0.0062  0.1354  0.2404
 2080W        W 3077   7.171   6.859   4.530  0.0610  0.2457  0.0706
 2081W        W 3078   6.870   2.025   3.948  0.4158 -0.0870  0.1344
 2082W        W 3079   6.700   4.392   0.520 -0.1045 -0.0044 -0.2675
 2083W        W 3080   7.023   2.270   1.879  0.2090  0.0407  0.1347
 2084W        W 3081   1.431   4.658   0.649 -0.2063 -0.3293 -0.0815
 2085W        W 3082   7.382   2.235   4.137  0.1476  0.3561 -0.0130
 2086W        W 3083   3.439   0.370   0.077 -0.3157 -0.1315  0.0573
 2087W        W 3084   1.357   6.889   0.609  0.0778  0.0267 -0.0181
 2088W        W 3085   0.119   0.555   1.812  0.0542  0.1004 -0.1014
 2089W        W 3086   5.087   4.204   5.441 -0.0879 -0.2230 -0.0073
 2090W        W 3087   0.397   6.334   1.734  0.1097  0.4451  0.1810
 2091W        W 3088   5.742   5.142   6.055 -0.4107  0.2284  0.0458
 2092W        W 3089   5.215   1.942   3.255 -0.3644 -0.0008  0.1528
 2093W        W 3090   1.438   2.783   7.465  0.0019  0.0730  0.0744
 2094W        W 3091   7.334   4.572   2.304 -0.1694  0.4180  0.0085
 2095W        W 3092   3.076   0.994   5.894 -0.0616  0.0383  0.0384
 2096W        W 3093   4.227   5.315   4.375  0.3506  0.0021  0.0856
 2097W        W 3094   6.355   3.490   5.826 -0.0288 -0.0844 -0.0970
 2098W        W 3095   5.186   1.389   3.833 -0.1334 -0.0274 -0.2826
 2099W        W 3096   3.587   1.774   6.185 -0.0078 -0.2518  0.2441
 2100W        W 3097   0.965   5.864   5.761  0.3186  0.0841  0.3158
 2101W        W 3098   6.858   7.295   1.079 -0.3500 -0.1447 -0.1289
 2102W        W 3099   5.504   6.797   3.695 -0.1413 -0.0971  0.2071
 2103W        W 3100   6.186   7.108   1.587  0.2156 -0.0663  0.3133
 2104W        W 3101   1.098   2.309   1.554 -0.2102  0.0674  0.3330
 2105W        W 3102   5.838   4.638   2.049  0.4073 -0.1266  0.1174
 2106W        W 3103   5.709   2.932   6.885  0.1186  0.0825 -0.0716
 2107W        W 3104   2.851   1.542   1.750  0.0122 -0.0510  0.1097
 2108W        W 3105   4.839   4.411   1.240  0.3097 -0.0077 -0.2032
 2109W        W 3106   5.991   5.302   1.154  0.4258  0.0669  0.2137
 2110W        W 3107   1.359   0.197   3.281 -0.2544 -0.1765  0.0721
 2111W        W 3108   4.830   1.116   4.134 -0.2465 -0.3989 -0.2458
 2112W        W 3109   1.074   3.658   0.968 -0.0989  0.0221 -0.0761
 2113W        W 3110   5.438   3.228   2.761  0.2457  0.1498  0.0055
 2114W        W 3111   0.124   6.305   1.283  0.1848 -0.1742 -0.1508
 2115W        W 3112   3.713   0.013   2.109 -0.1012 -0.1324  0.0626
 2116W        W 3113   4.641   1.189   0.685 -0.1846  0.2001  0.0318
 2117W        W 3114   7.650   5.473   1.487  0.2964  0.0660 -0.0772
 2118W        W 3115   0.164   2.696   6.383  0.0170 -0.4369 -0.0121
 2119W        W 3116   6.264   3.142   3.406  0.0774  0.2148 -0.0370
 2120W        W 3117   0.591   6.773   5.918  0.1720  0.1504  0.0951
 2121W        W 3118   1.683   0.890   3.823 -0.0181  0.0018 -0.1702
 2122W        W 3119   1.681   3.775   5.210 -0.1373  0.0284  0.0168
 2123W        W 3120   6.615   3.961   4.145 -0.0129  0.1971  0.1569
 2124W        W 3121   7.453   6.108   4.869 -0.3378  0.0676 -0.5803
 2125W        W 3122   0.739   6.348   0.483 -0.0323  0.1060  0.0245
 2126W        W 3123   1.821   3.364   6.038  0.0979 -0.1574  0.2420
 2127W        W 3124   3.946   4.048   7.191  0.4806  0.0316 -0.0044
 2128W        W 3125   3.205   4.897   7.289  0.2256 -0.0252 -0.0167
 2129W        W 3126   1.351   6.462   1.244 -0.5561 -0.1285  0.2919
 2130W        W 3127   2.305   6.342   6.286 -0.1552 -0.0162  0.1744
 2131W        W 3128   4.580   6.292   5.962  0.0322 -0.2288  0.3020
 2132W        W 3129   5.646   5.566   0.750 -0.1232  0.1006  0.0787
 2133W        W 3130   5.340   6.521   1.241  0.1098  0.2525  0.1891
 2134W        W 3131   6.513   2.809   7.329 -0.1799 -0.3567  0.0821
 2135W        W 3132   7.050   3.728   3.616  0.0690 -0.1555 -0.1454
 2136W        W 3133   5.543   5.960   0.328 -0.1243  0.0505  0.0969
 2137W        W 3134   3.093   5.698   0.731 -0.0838  0.0208 -0.1359
 2138W        W 3135   1.537   0.582   6.476  0.0226 -0.1325  0.2824
 2139W        W 3136   6.489   3.203   2.990  0.1859  0.1614 -0.0657
 2140W        W 3137   1.236   6.189   2.583  0.2715 -0.0780 -0.1271
 2141W        W 3138   2.487   0.435   1.321 -0.0411 -0.1296 -0.0516
 2142W        W 3139   0.714   1.530   5.357  0.1722  0.1919 -0.1219
 2143W        W 3140   5.967   1.116   3.235 -0.0833 -0.2777  0.4612
 2144W        W 3141   2.646   2.342   7.194  0.0365  0.2445  0.0637
 2145W        W 3142   3.240   5.291   0.514 -0.1682 -0.0390 -0.2893
 2146W        W 3143   0.694   7.301   5.126  0.0066 -0.0184  0.2166
 2147W        W 3144   1.405   1.834   7.428 -0.1787  0.0008  0.1389
 2148W        W 3145   3.465   3.182   5.516  0.0899 -0.2648  0.2567
 2149W        W 3146   1.925   0.807   1.656 -0.1785  0.1431 -0.1063
 2150W        W 3147   1.970   4.023   4.823 -0.4621  0.0283 -0.0356
 2151W        W 3148   1.949   2.084   2.080 -0.0405 -0.1077 -0.1159
 2152W        W 3149   3.570   1.087   0.797  0.1031  0.1170  0.1115
 2153W        W 3150   5.219   3.120   7.078 -0.1521 -0.0655 -0.0855
 2154W        W 3151   6.630   4.083   2.500  0.0300 -0.3384  0.1936
 2155W        W 3152   7.362   0.835   4.987 -0.0416  0.2194  0.1297
 2156W        W 3153   4.227   6.875   2.764 -0.2632 -0.0901 -0.0578
 2157W        W 3154   3.732   0.243   5.998 -0.2611  0.1088  0.1970
 2158W        W 3155   4.487   6.733   3.760 -0.5531  0.2612  0.0882
 2159W        W 3156   3.458   4.540   1.988  0.2231  0.2049  0.2882
 2160W        W 3157   0.238   6.862   1.743  0.0983  0.3748  0.2794
 2161W        W 3158   6.078   2.999   7.229  0.0511  0.0254  0.3973
 2162W        W 3159   2.152   1.639   0.726 -0.1398  0.1674  0.0997
 2163W        W 3160   4.487   5.879   4.068  0.1320 -0.0431  0.1190
 2164W        W 3161   5.488   3.687   6.716  0.1722  0.0876  0.2475
 2165W        W 3162   7.607   4.484   5.337 -0.1296 -0.0510  0.1821
 2166W        W 3163   5.403   0.953   1.940  0.1952  0.1165  0.1706
 2167W        W 3164   4.118   1.609   0.985  0.1506  0.0598 -0.0655
 2168W        W 3165   7.630   3.648   4.442 -0.2651 -0.1266  0.1593
 2169W        W 3166   5.112   2.221   4.187 -0.0492  0.0117 -0.2047
 2170W        W 3167   0.316   5.066   4.033 -0.1729  0.1658 -0.0471
 2171W        W 3168   6.311   6.698   4.014 -0.3709  0.0005 -0.1592
 2172W        W 3169   3.022   7.347   5.514  0.0202 -0.0808  0.2258
 2173W        W 3170   3.772   6.445   6.703  0.1843  0.3410  0.0676
 2174W        W 3171   2.378   3.737   6.218 -0.1176 -0.0284 -0.0819
 2175W        W 3172   3.937   3.476   6.627 -0.0599  0.0088 -0.1213
 2176W        W 3173   3.405   6.903   5.981 -0.1499  0.1615  0.0052
 2177W        W 3174   0.732   6.077   4.561 -0.1108 -0.4099  0.3451
 2178W        W 3175   1.306   0.076   0.667  0.1440 -0.2258 -0.0734
 2179W        W 3176   2.269   1.473   2.328 -0.0065  0.0621 -0.1514
 2180W        W 3177   3.997   4.885   4.645 -0.2164  0.0401  0.0137
 2181W        W 3178   6.563   6.097   4.990  0.1295  0.0885  0.1253
 2182W        W 3179   6.630   5.467   5.510  0.1074  0.0936  0.2190
 2183W        W 3180   3.702   5.181   1.407  0.0642 -0.3462  0.1525
 2184W        W 3181   2.254   6.995   6.542 -0.0741  0.3042 -0.2980
 2185W        W 3182   3.579   0.958   6.943 -0.1619 -0.2395  0.1958
 2186W        W 3183   2.042   4.842   5.900  0.0837 -0.1538  0.3076
 2187W        W 3184   4.871   3.306   7.385  0.1409 -0.0215  0.2140
 2188W        W 3185   0.208   0.610   2.279 -0.1106  0.1919  0.1222
 2189W        W 3186   6.158   6.082   1.001 -0.2202  0.0836  0.0632
 2190W        W 3187   6.985   1.577   1.546  0.2770  0.0502  0.3314
 2191W        W 3188   6.826   7.010   0.139  0.2040  0.2327  0.0058
 2192W        W 3189   0.090   3.282   5.599 -0.1122 -0.2060 -0.2916
 2193W        W 3190   7.652   0.306   6.464  0.3285  0.1183 -0.0164
 2194W        W 3191   1.883   5.910   4.375 -0.0982  0.1653  0.0337
 2195W        W 3192   2.804   1.007   6.688  0.3008  0.0089 -0.1269
 2196W        W 3193   3.890   5.305   0.885  0.2525  0.2760  0.1504
 2197W        W 3194   6.145   7.484   0.301  0.3455 -0.2901 -0.1721
 2198W        W 3195   0.064   6.249   0.008  0.0359 -0.2493 -0.1434
 2199W        W 3196   6.602   5.945   4.076  0.0038 -0.1836 -0.4746
 2200W        W 3197   5.836   4.170   2.883  0.1022  0.1693 -0.0052
 2201W        W 3198   1.343   2.871   2.104 -0.1857  0.2754 -0.1666
 2202W        W 3199   0.610   3.280   7.552  0.3570 -0.2443 -0.0086
 2203W        W 3200   4.686   5.319   0.673 -0.1546 -0.0364 -0.0630
 2204W        W 3201   5.856   6.283   1.383 -0.1181  0.0210 -0.1630
 2205W        W 3202   0.979   0.276   5.523 -0.1309  0.2588  0.0295
 2206W        W 3203   5.039   3.997   2.782 -0.0209  0.2334  0.1400
 2207W        W 3204   0.125   0.859   5.309  0.0473  0.1018  0.2799
 2208W        W 3205   2.126   5.260   2.199 -0.0302 -0.0986 -0.2933
 2209W        W 3206   4.462   7.557   2.117  0.1966 -0.2540  0.0490
 2210W        W 3207   5.947   7.534   0.791 -0.0515  0.2161 -0.1621
 2211W        W 3208   5.817   6.007   6.379  0.0606 -0.1147 -0.1335
 2212W        W 3209   5.755   4.787   5.318 -0.0453  0.2189 -0.0635
 2213W        W 3210   0.504   2.367   1.857 -0.0092  0.1893  0.0872
 2214W        W 3211   7.203   3.410   0.850 -0.0965 -0.1389 -0.5326
 2215W        W 3212   3.930   2.517   2.016 -0.0202  0.0717 -0.1820
 2216W        W 3213   6.441   5.981   2.889  0.2519 -0.4865 -0.2527
 2217W        W 3214   0.530   5.597   3.163  0.1633  0.0093  0.2773
 2218W        W 3215   7.304   0.252   1.305 -0.0755  0.2831  0.1881
 2219W        W 3216   1.372   5.544   5.650  0.3168  0.2726 -0.2792
 2220W        W 3217   3.953   2.961   6.419 -0.2710  0.1171 -0.0355
 2221W        W 3218   3.637   6.854   5.016 -0.1970 -0.2104  0.2881
 2222W        W 3219   0.043   5.981   1.683 -0.1553  0.1293  0.2640
 2223W        W 3220   3.282   5.140   0.035 -0.1242 -0.1127  0.1671
 2224W        W 3221   3.983   0.966   2.260 -0.3330  0.3512  0.3059
 2225W        W 3222   3.405   7.413   0.908  0.1036 -0.2241  0.1535
 2226W        W 3223   1.246   6.624   1.933  0.0244  0.0101 -0.1820
 2227W        W 3224   4.314   1.617   6.025 -0.1083  0.0038 -0.3197
 2228W        W 3225   0.313   4.201   2.796  0.1686  0.0344 -0.1538
 2229W        W 3226   3.487   2.333   1.209 -0.1347 -0.2558 -0.1047
 2230W        W 3227   2.075   1.775   5.132  0.0340 -0.1324 -0.1180
 2231W        W 3228   1.636   4.270   5.971  0.0923  0.1641  0.1984
 2232W        W 3229   3.800   0.179   5.369  0.2487 -0.2710  0.0836
 2233W        W 3230   3.780   2.698   6.788  0.0518 -0.1689  0.1594
 2234W        W 3231   0.281   1.042   2.753  0.1087 -0.0196  0.1932
 2235W        W 3232   0.904   5.468   0.724 -0.2365  0.0216 -0.0761
 2236W        W 3233   0.848   4.213   6.709  0.2265 -0.4607  0.2194
 2237W        W 3234   4.150   0.249   1.468 -0.2131  0.0659 -0.1185
 2238W        W 3235   7.654   4.954   2.434  0.0065 -0.4072 -0.0720
 2239W        W 3236   1.689   5.535   2.040 -0.1724 -0.2894  0.3064
 2240W        W 3237   0.382   4.411   5.512 -0.3857  0.2080 -0.1141
 2241W        W 3238   4.074   5.458   5.519 -0.0414 -0.1578 -0.0307
 2242W        W 3239   2.477   3.997   0.824 -0.1931  0.3046  0.0595
 2243W        W 3240   6.371   0.821   1.215  0.0530  0.1192  0.1519
 2244W        W 3241   2.019   5.728   7.579 -0.1556  0.0472 -0.1462
 2245W        W 3242   2.529   2.765   6.095  0.0935 -0.1831 -0.0282
 2246W        W 3243   2.718   4.718   1.495  0.0675 -0.1058 -0.1451
 2247W        W 3244   4.376   5.791   2.279  0.0141  0.1501 -0.0167
 2248W        W 3245   4.828   2.843   1.301  0.2036  0.0486  0.0989
 2249W        W 3246   1.649   6.337   0.351 -0.2897 -0.0440 -0.2339
 2250W        W 3247   1.413   3.707   0.515 -0.0696  0.1764  0.2651
 2251W        W 3248   2.482   1.145   5.817 -0.0856  0.2869  0.4696
 2252W        W 3249   4.828   2.284   4.685 -0.3432  0.0083 -0.0935
 2253W        W 3250   6.655   1.263   1.278 -0.0002 -0.2810  0.3991
 2254W        W 3251   1.830   3.351   5.496  0.0613 -0.0332  0.1848
 2255W        W 3252   5.635   4.448   5.877  0.1605 -0.3339  0.2279
 2256W        W 3253   5.331   2.650   7.235 -0.3342  0.0085 -0.1863
 2257W        W 3254   1.618   5.717   7.106 -0.0643 -0.1635  0.3394
 2258W        W 3255   5.563   3.927   7.615 -0.1851  0.2130  0.0346
 2259W        W 3256   0.867   3.369   6.016 -0.1265  0.1126  0.1108
 2260W        W 3257   2.940   4.673   5.863 -0.1081 -0.0119 -0.0672
 2261W        W 3258   1.802   5.401   4.560  0.2067 -0.1130 -0.2472
 2262W        W 3259   6.698   6.952   1.529 -0.0298  0.0053 -0.2817
 2263W        W 3260   6.262   5.057   5.343  0.0620 -0.0868  0.0133
 2264W        W 3261   6.937   4.227   7.105 -0.2354 -0.0022 -0.2335
 2265W        W 3262   0.397   0.877   0.985  0.0485 -0.2674 -0.0929
 2266W        W 3263   2.938   6.691   1.425  0.0417  0.2171 -0.5061
 2267W        W 3264   5.894   5.719   5.908 -0.0474  0.2999 -0.2651
 2268W        W 3265   6.597   5.978   5.506  0.2745 -0.2241  0.2767
 2269W        W 3266   0.713   4.754   1.120  0.2410  0.2098 -0.1279
 2270W        W 3267   3.005   7.200   0.078 -0.0567  0.0076 -0.2319
 2271W        W 3268   5.221   1.741   1.794  0.1549  0.1735 -0.3276
 2272W        W 3269   4.902   2.025   0.330 -0.1596  0.0141  0.0252
 2273W        W 3270   0.113   1.861   4.927  0.2048  0.1108 -0.1388
 2274W        W 3271   7.254   6.598   4.056 -0.1177  0.1334  0.0558
 2275W        W 3272   2.708   3.854   1.439 -0.1362 -0.0877  0.1222
 2276W        W 3273   2.732   0.817   4.766  0.4157 -0.0355  0.3485
 2277W        W 3274   6.474   4.343   7.351  0.0443  0.0962 -0.0724
 2278W        W 3275   4.777   4.508   6.735  0.1535 -0.2045 -0.0243
 2279W        W 3276   3.546   2.506   1.720  0.1823 -0.0810 -0.1422
 2280W        W 3277   7.097   3.152   5.394 -0.1698 -0.1476  0.1364
 2281W        W 3278   0.642   0.966   0.266  0.0700 -0.0804 -0.0030
 2282W        W 3279   6.941   6.857   6.242 -0.0259 -0.2021  0.0307
 2283W        W 3280   2.594   6.693   6.108  0.2826  0.0226 -0.0350
 2284W        W 3281   3.595   5.663   6.387  0.1046  0.0163 -0.1851
 2285W        W 3282   4.923   5.604   6.852  0.5498  0.1847  0.0702
 2286W        W 3283   6.340   2.819   1.011 -0.0619  0.0230  0.2033
 2287W        W 3284   7.599   2.181   2.902 -0.0370 -0.1608 -0.0669
 2288W        W 3285   2.791   2.629   5.225 -0.0740 -0.0670  0.1864
 2289W        W 3286   4.499   5.763   0.437 -0.1497 -0.2239  0.0467
 2290W        W 3287   2.042   3.126   6.912 -0.1180  0.1663 -0.0400
 2291W        W 3288   4.729   2.974   5.602  0.3975 -0.0520  0.2128
 2292W        W 3289   0.226   2.326   2.332  0.0483  0.2334 -0.0503
 2293W        W 3290   4.109   2.392   5.087  0.0615 -0.1215 -0.1335
 2294W        W 3291   0.345   7.239   1.368 -0.1578  0.1693  0.2307
 2295W        W 3292   4.305   2.567   6.091 -0.1603 -0.1034  0.1365
 2296W        W 3293   5.247   3.623   6.133  0.1353 -0.0933  0.2813
 2297W        W 3294   1.005   2.001   2.360  0.0077 -0.1145  0.1644
 2298W        W 3295   5.384   3.454   7.499 -0.1243 -0.0897 -0.0553
 2299W        W 3296   4.875   3.544   3.087 -0.1205 -0.0498 -0.1957
 2300W        W 3297   3.051   2.672   7.298  0.0892 -0.3167 -0.2492
 2301W        W 3298   5.425   2.388   2.003  0.0143 -0.0249 -0.0768
 2302W        W 3299   1.562   2.493   4.116 -0.1228  0.2601  0.1115
 2303W        W 3300   2.109   6.161   2.480 -0.1596  0.2282 -0.0500
 2304W        W 3301   5.152   7.394   4.197  0.0466  0.0823  0.3214
 2305W        W 3302   0.735   5.478   2.108 -0.0668 -0.1296 -0.0264
 2306W        W 3303   1.915   6.901   3.469 -0.1595  0.2228 -0.0710
 2307W        W 3304   7.358   2.168   0.223  0.0075  0.1389  0.3339
 2308W        W 3305   0.951   3.145   6.634  0.1634 -0.2904 -0.0431
 2309W        W 3306   1.632   6.004   2.320  0.1465 -0.1126 -0.0674
 2310W        W 3307   1.638   4.276   6.462  0.0641 -0.0998  0.1853
 2311W        W 3308   2.753   4.111   6.217 -0.0473  0.3003  0.3843
 2312W        W 3309   5.778   6.455   2.369 -0.1275  0.0033 -0.2746
 2313W        W 3310   6.011   4.305   6.143 -0.0435  0.2550  0.0578
 2314W        W 3311   6.217   5.304   5.838 -0.0406 -0.0047  0.1041
 2315W        W 3312   1.156   7.133   3.703 -0.0243  0.1926  0.1534
 2316W        W 3313   2.567   5.193   1.387 -0.2157 -0.0661 -0.1352
 2317W        W 3314   4.082   5.090   0.014 -0.0749 -0.4445  0.1199
 2318W        W 3315   7.238   6.322   2.109  0.0757  0.3485  0.2238
 2319W        W 3316   3.677   4.310   5.347 -0.1332 -0.3438  0.0299
 2320W        W 3317   3.827   4.242   2.057  0.1128 -0.0507 -0.2784
 2321W        W 3318   3.723   1.499   5.344 -0.3440 -0.1244  0.1025
 2322W        W 3319   0.238   0.649   5.770 -0.2181 -0.1769 -0.0616
 2323W        W 3320   3.291   7.622   4.816 -0.3469 -0.2781  0.2396
 2324W        W 3321   1.328   5.460   3.679  0.3998 -0.1820 -0.0762
 2325W        W 3322   1.294   4.780   1.974 -0.0898 -0.3118 -0.1330
 2326W        W 3323   4.832   7.586   1.358  0.0922  0.0239 -0.2601
 2327W        W 3324   6.453   6.180   0.219 -0.0100 -0.0489 -0.2734
 2328W        W 3325   4.914   4.426   2.161 -0.2535  0.0039  0.3177
 2329W        W 3326   6.134   4.455   1.362  0.0804 -0.3128 -0.1319
 2330W        W 3327   5.901   7.013   0.201 -0.0294  0.0844 -0.0435
 2331W        W 3328   7.296   1.623   0.221  0.2248  0.1091  0.2517
 2332W        W 3329   0.008   3.185   2.739  0.1227 -0.1726  0.1913
 2333W        W 3330   3.540   0.574   6.654  0.1601 -0.0849  0.1776
 2334W        W 3331   6.945   5.950   1.291  0.1789 -0.1089 -0.1234
 2335W        W 3332   0.476   5.019   7.130 -0.1202  0.0974 -0.0132
 2336W        W 3333   6.770   4.737   4.813 -0.1397  0.0840  0.0969
 2337W        W 3334   6.564   2.198   3.571  0.0553  0.1938  0.1400
 2338W        W 3335   2.160   6.560   2.960  0.0371  0.2449  0.0359
 2339W        W 3336   3.495   0.098   6.838  0.0139 -0.0143 -0.0773
 2340W        W 3337   5.911   5.115   0.640  0.1062  0.0397  0.1039
 2341W        W 3338   6.969   5.235   5.919 -0.0064  0.1574 -0.1729
 2342W        W 3339   5.010   2.350   0.718  0.0118 -0.2008 -0.1092
 2343W        W 3340   7.459   7.475   2.262  0.1079  0.3084  0.0635
 2344W        W 3341   1.256   2.125   5.516 -0.0689  0.0018 -0.0780
 2345W        W 3342   5.469   4.755   4.849 -0.0097  0.0994  0.3284
 2346W        W 3343   0.165   7.123   3.652 -0.2413 -0.2093 -0.2443
 2347W        W 3344   6.315   0.350   4.319  0.1225  0.0807  0.0534
 2348W        W 3345   1.826   2.282   2.584  0.0523 -0.0386  0.1129
 2349W        W 3346   5.513   6.298   2.819 -0.1434  0.0035 -0.0677
 2350W        W 3347   6.126   4.286   0.336  0.0202 -0.0272  0.1415
 2351W        W 3348   2.657   1.997   1.605 -0.1077 -0.0248  0.2370
 2352W        W 3349   4.084   4.612   7.468 -0.0888  0.3857 -0.1948
 2353W        W 3350   1.214   6.295   4.611  0.0518 -0.1538  0.1401
 2354W        W 3351   1.245   5.359   0.391 -0.0842 -0.0224  0.0555
 2355W        W 3352   1.884   5.200   6.360  0.0392 -0.2061  0.0839
 2356W        W 3353   1.587   0.359   0.398  0.0336 -0.2438  0.0945
 2357W        W 3354   1.614   1.737   5.571  0.0609 -0.3406  0.0528
 2358W        W 3355   4.318   0.714   1.939 -0.0128  0.1947 -0.2102
 2359W        W 3356   6.400   7.020   2.025 -0.2030 -0.2949  0.1185
 2360W        W 3357   1.102   6.779   5.000  0.2059  0.1434 -0.0437
 2361W        W 3358   6.771   0.888   0.905 -0.1793 -0.1202  0.1353
 2362W        W 3359   5.581   1.221   4.058 -0.1157  0.1497 -0.0200
 2363W        W 3360   0.378   4.698   4.471 -0.1772  0.0352  0.0406
 2364W        W 3361   0.578   2.763   3.448 -0.0451  0.0687  0.4491
 2365W        W 3362   1.929   1.827   7.408 -0.1972 -0.2591  0.1623
 2366W        W 3363   6.771   3.990   1.214  0.1216  0.1118 -0.0379
 2367W        W 3364   1.605   6.005   2.906  0.0727 -0.0542  0.3570
 2368W        W 3365   6.785   2.700   1.478 -0.1328 -0.1715 -0.4799
 2369W        W 3366   6.255   3.626   0.109  0.0710  0.1571 -0.0219
 2370W        W 3367   7.331   0.181   2.698  0.1236 -0.0443  0.0969
 2371W        W 3368   0.503   0.200   1.695  0.1114 -0.0767 -0.2369
 2372W        W 3369   6.911   6.106   0.427 -0.0307  0.0617  0.2147
 2373W        W 3370   1.755   4.247   6.967 -0.0050  0.0212 -0.2183
 2374W        W 3371   4.672   3.673   6.079  0.1681 -0.0596 -0.0666
 2375W        W 3372   6.414   0.254   0.513 -0.2122  0.1809  0.2034
 2376W        W 3373   6.612   0.347   5.136 -0.0085 -0.0401  0.0731
 2377W        W 3374   6.356   5.531   4.219 -0.1128  0.0227 -0.0738
 2378W        W 3375   4.354   2.809   2.229 -0.2487 -0.0941  0.3539
 2379W        W 3376   7.016   6.505   3.257  0.1947  0.1403  0.0394
 2380W        W 3377   3.378   0.644   1.709  0.1168  0.2795 -0.1851
 2381W        W 3378   0.343   2.748   2.132 -0.0743  0.1054  0.1079
 2382W        W 3379   1.557   2.554   1.586 -0.0150  0.2457 -0.2146
 2383W        W 3380   4.685   6.989   2.976  0.0286  0.1314  0.1754
 2384W        W 3381   2.651   6.402   2.940  0.3456 -0.0786 -0.0404
 2385W        W 3382   0.095   3.967   0.666  0.0678  0.0518 -0.3244
 2386W        W 3383   5.294   4.594   0.624  0.1219  0.1956 -0.0007
 2387W        W 3384   1.255   4.027   4.421  0.3177  0.1074 -0.1291
 2388W        W 3385   1.507   5.450   0.819 -0.3269 -0.2327  0.0147
 2389W        W 3386   1.076   4.302   2.749 -0.5772 -0.0580  0.0107
 2390W        W 3387   2.543   6.897   2.686 -0.0376 -0.0614 -0.0989
 2391W        W 3388   0.232   2.088   6.582  0.0873 -0.1906 -0.3371
 2392W        W 3389   1.318   1.117   0.733  0.0480 -0.4336 -0.1484
 2393W        W 3390   4.940   0.789   0.786  0.1592 -0.0137  0.2116
 2394W        W 3391   2.027   6.103   6.665  0.1622 -0.0168 -0.2545
 2395W        W 3392   7.059   0.092   4.177  0.0778  0.3337  0.1596
 2396W        W 3393   6.002   6.154   3.277  0.2768  0.1391 -0.0873
 2397W        W 3394   2.729   7.235   0.705 -0.0701  0.0035 -0.1411
 2398W        W 3395   7.493   5.724   5.250  0.2254  0.1018  0.0846
 2399W        W 3396   4.034   5.528   1.337 -0.2110 -0.1393  0.0172
 2400W        W 3397   1.184   7.597   4.627 -0.1690 -0.1872  0.1965
 2401W        W 3398   7.033   4.560   3.626  0.1875  0.1970  0.0980
 2402W        W 3399   1.380   6.600   5.557  0.3057  0.3725 -0.0521
 2403W        W 3400   4.617   5.427   1.951  0.3107  0.0840 -0.0529
 2404W        W 3401   0.728   2.381   7.064 -0.0972  0.2916  0.0516
 2405W        W 3402   4.220   5.386   3.905  0.1037  0.0749  0.3379
 2406W        W 3403   1.555   5.064   3.936 -0.0398 -0.0977  0.0863
 2407W        W 3404   1.581   6.031   1.261  0.0736  0.2218  0.1850
 2408W        W 3405   4.005   1.942   5.240  0.1539  0.3601  0.0273
 2409W        W 3406   1.237   5.275   2.089 -0.0761 -0.0216 -0.2188
 2410W        W 3407   3.799   4.768   1.739  0.0560  0.0077  0.1276
 2411W        W 3408   4.103   1.752   7.450 -0.1108  0.2517  0.0355
 2412W        W 3409   5.910   7.504   3.413 -0.0801 -0.0227  0.1379
 2413W        W 3410   4.535   6.105   2.651  0.0746 -0.0064 -0.0965
 2414W        W 3411   0.458   7.044   6.558 -0.1376  0.0719 -0.0914
 2415W        W 3412   1.328   3.441   2.335  0.2215 -0.0429  0.0200
 2416W        W 3413   4.763   0.576   0.308 -0.0515 -0.1357 -0.1553
 2417W        W 3414   0.319   5.775   2.121 -0.0896 -0.0251 -0.2923
 2418W        W 3415   6.399   5.494   5.040  0.1732 -0.2527 -0.0149
 2419W        W 3416   1.749   0.846   0.594 -0.1022  0.1547  0.0014
 2420W        W 3417   7.526   5.073   1.975  0.2392  0.0607  0.0582
 2421W        W 3418   5.544   4.976   1.333  0.0853  0.3129  0.0273
 2422W        W 3419   2.233   4.906   0.503 -0.0340  0.2597 -0.2738
 2423W        W 3420   5.209   5.952   5.488  0.1561 -0.2143  0.1911
 2424W        W 3421   7.083   0.311   5.098  0.0797 -0.3688 -0.0498
 2425W        W 3422   4.661   3.956   0.423  0.0879  0.0620  0.0866
 2426W        W 3423   1.596   2.581   2.944 -0.3007  0.0224  0.1580
 2427W        W 3424   5.465   7.052   7.486  0.1439 -0.1405 -0.1965
 2428W        W 3425   2.091   2.184   0.208 -0.0746  0.0394  0.2318
 2429W        W 3426   7.126   4.136   3.927  0.0512 -0.1121 -0.1932
 2430W        W 3427   2.285   0.147   4.615  0.2660 -0.2205 -0.1475
 2431W        W 3428   1.249   6.432   3.759 -0.1965  0.1398 -0.0763
 2432W        W 3429   5.924   2.095   4.094 -0.5238  0.1134  0.0537
 2433W        W 3430   6.485   6.122   2.100  0.0152  0.4825  0.1607
 2434W        W 3431   0.083   1.552   6.083 -0.1099 -0.0457  0.0254
 2435W        W 3432   7.084   2.674   4.401  0.0605  0.1828 -0.0586
 2436W        W 3433   0.065   4.133   1.504  0.1094  0.0896  0.1329
 2437W        W 3434   6.135   1.947   2.097  0.2447  0.1989 -0.0417
 2438W        W 3435   5.658   3.786   4.009  0.5222  0.1984  0.2027
 2439W        W 3436   5.431   3.063   1.236 -0.0552  0.1402  0.2730
 2440W        W 3437   3.083   3.359   7.245  0.3000  0.0008  0.1990
 2441W        W 3438   6.958   0.381   1.761  0.0498 -0.0449  0.0765
 2442W        W 3439   4.602   5.019   2.983  0.1048  0.1333 -0.0961
 2443W        W 3440   3.265   0.123   5.825 -0.3724  0.1476 -0.1326
 2444W        W 3441   1.325   5.271   2.795  0.0751 -0.5346 -0.2447
 2445W        W 3442   2.034   4.734   0.024  0.3431  0.1141  0.2546
 2446W        W 3443   2.644   6.376   5.086 -0.1029  0.1617 -0.0106
 2447W        W 3444   5.173   4.870   6.229 -0.0596 -0.1944 -0.2790
 2448W        W 3445   3.110   2.953   6.872  0.0702 -0.0834  0.1031
 2449W        W 3446   2.336   1.677   5.888 -0.4113 -0.2157 -0.2267
 2450W        W 3447   1.333   3.715   4.864  0.2774  0.2437 -0.0872
 2451W        W 3448   7.373   0.567   4.205  0.0580  0.0048  0.0731
 2452W        W 3449   7.305   5.301   2.457  0.1066  0.0083  0.1541
 2453W        W 3450   6.144   7.436   2.555 -0.0375  0.0385 -0.3810
 2454W        W 3451   6.612   1.247   2.538  0.1158 -0.0993 -0.0243
 2455W        W 3452   5.378   5.746   3.839 -0.1573 -0.0392  0.0597
 2456W        W 3453   1.561   5.912   4.795  0.2588 -0.1534  0.1318
 2457W        W 3454   4.140   7.509   2.618  0.1625 -0.1326  0.0959
 2458W        W 3455   3.845   5.862   0.986 -0.1487 -0.2154  0.1040
 2459W        W 3456   0.377   2.848   5.425  0.3582  0.0973  0.4029
 2460W        W 3457   6.559   2.306   2.916 -0.1416  0.2730  0.1878
 2461W        W 3458   5.950   5.576   2.414  0.3365 -0.2126 -0.4667
 2462W        W 3459   0.682   7.033   3.531 -0.2871 -0.1588  0.1489
 2463W        W 3460   1.519   7.545   1.344 -0.1238  0.2077 -0.0164
 2464W        W 3461   7.128   5.813   0.857 -0.1101  0.1503 -0.0109
 2465W        W 3462   6.712   4.348   4.467  0.0655  0.2131  0.0012
 2466W        W 3463   1.643   6.872   0.070  0.3322 -0.0047 -0.0624
 2467W        W 3464   3.532   7.295   5.708 -0.1175 -0.0093  0.0176
 2468W        W 3465   0.287   5.637   6.604 -0.0091 -0.0791 -0.1839
 2469W        W 3466   0.616   6.250   1.291  0.0100 -0.0550 -0.2066
 2470W        W 3467   3.239   5.719   0.248 -0.1870  0.0539 -0.0689
 2471W        W 3468   6.553   1.374   1.716 -0.1768 -0.0542 -0.2393
 2472W        W 3469   5.959   1.795   1.070 -0.1051 -0.0806 -0.0137
 2473W        W 3470   5.639   2.834   2.072  0.0943 -0.0406 -0.1622
 2474W        W 3471   5.139   3.568   1.999  0.0019  0.0532  0.0281
 2475W        W 3472   1.734   2.057   7.011  0.0898 -0.0721  0.0075
 2476W        W 3473   4.826   5.434   0.200  0.0193  0.0943 -0.1559
 2477W        W 3474   5.208   5.732   1.829 -0.1265 -0.2645 -0.1574
 2478W        W 3475   5.669   5.901   1.110  0.2715 -0.0212 -0.0556
 2479W        W 3476   6.067   5.954   5.082  0.0019  0.2004 -0.0045
 2480W        W 3477   7.465   5.415   6.758  0.1229 -0.0770  0.2831
 2481W        W 3478   0.578   1.585   5.873 -0.1300 -0.0556  0.1768
 2482W        W 3479   5.277   6.317   7.168  0.0854  0.1720 -0.0572
 2483W        W 3480   2.309   4.412   6.694  0.2812  0.1413  0.1030
 2484W        W 3481   1.247   3.215   3.242  0.1992  0.0774 -0.1421
 2485W        W 3482   1.105   4.950   4.287 -0.0589  0.0598 -0.0944
 2486W        W 3483   0.838   3.349   4.103  0.5332  0.0433  0.0327
 2487W        W 3484   5.586   3.282   1.834  0.0534  0.0053 -0.1827
 2488W        W 3485   6.314   6.182   3.693  0.3424  0.1407  0.0861
 2489W        W 3486   6.693   3.470   3.994  0.2520  0.1012  0.1472
 2490W        W 3487   0.331   4.257   1.068 -0.1743  0.1132 -0.0760
 2491W        W 3488   7.159   2.476   2.807  0.0323 -0.1054  0.0073
 2492W        W 3489   7.268   4.981   3.382  0.1042  0.0097 -0.0664
 2493W        W 3490   5.009   3.667   0.077 -0.2522  0.0350 -0.3846
 2494W        W 3491   4.178   4.912   2.619 -0.3827 -0.1482  0.2655
 2495W        W 3492   6.420   0.445   1.568 -0.1039  0.0877 -0.0546
 2496W        W 3493   4.377   2.412   3.290 -0.1214 -0.2511 -0.4049
 2497W        W 3494   3.544   2.996   7.130 -0.0856  0.1014 -0.0737
 2498W        W 3495   2.671   1.395   6.260  0.1734  0.1478 -0.3114
 2499W        W 3496   4.797   5.465   4.390 -0.0065 -0.0565 -0.0268
 2500W        W 3497   0.295   5.435   0.388 -0.3415 -0.0279 -0.4357
 2501W        W 3498   6.216   4.208   4.343 -0.2524 -0.1662 -0.4274
 2502W        W 3499   1.297   3.615   4.153 -0.2005  0.0223 -0.0272
 2503W        W 3500   2.004   0.469   5.573  0.1210 -0.0591  0.3959
 2504W        W 3501   3.342   3.822   5.869 -0.3611 -0.1871  0.2525
 2505W        W 3502   1.860   5.265   5.511 -0.0560 -0.4439  0.0689
 2506W        W 3503   3.742   2.066   5.621  0.1220 -0.1268  0.1634
 2507W        W 3504   4.676   3.679   2.245  0.0957  0.1465 -0.0926
 2508W        W 3505   1.118   7.487   5.298  0.1583 -0.1793 -0.2843
 2509W        W 3506   3.654   5.295   2.305 -0.2599  0.4124  0.3354
 2510W        W 3507   3.474   6.619   0.553 -0.2347  0.0181  0.0697
 2511W        W 3508   2.289   7.235   1.644  0.3507  0.1017  0.2489
 2512W        W 3509   0.829   6.846   2.705 -0.0596 -0.2565 -0.2237
 2513W        W 3510   0.122   7.408   3.070 -0.2219  0.0304 -0.1420
 2514W        W 3511   1.654   0.249   3.820 -0.0238 -0.0173 -0.2111
 2515W        W 3512   3.380   1.211   0.334  0.0303 -0.2007  0.0764
 2516W        W 3513   0.209   5.263   7.551 -0.0422  0.0464 -0.1289
 2517W        W 3514   4.935   5.404   7.330  0.1720 -0.3592 -0.3435
 2518W        W 3515   0.494   0.302   4.326 -0.1848 -0.2312  0.0348
 2519W        W 3516   0.274   1.950   7.131 -0.0820  0.0340  0.2140
 2520W        W 3517   1.036   0.228   6.893  0.0133  0.2403 -0.0029
 2521W        W 3518   0.275   7.252   4.837  0.2584 -0.1039  0.0764
 2522W        W 3519   1.194   6.631   0.197  0.0196  0.3530  0.0519
 2523W        W 3520   6.165   2.856   4.694 -0.0669  0.0030 -0.0042
 2524W        W 3521   0.719   7.324   3.975 -0.0092 -0.1141  0.2120
 2525W        W 3522   1.634   5.597   0.218  0.2675 -0.0358  0.1352
 2526W        W 3523   0.660   3.855   6.185 -0.1583 -0.2025  0.0141
 2527W        W 3524   7.324   1.194   0.489 -0.0156  0.0312 -0.2923
 2528W        W 3525   2.207   1.982   6.853 -0.0079 -0.0906 -0.1238
 2529W        W 3526   2.307   6.847   0.823 -0.1813  0.0401  0.3770
 2530W        W 3527   2.994   0.049   0.089 -0.0440 -0.1207  0.0053
 2531W        W 3528   3.908   7.544   1.641 -0.0224  0.0419 -0.2146
 2532W        W 3529   4.635   2.479   2.874  0.1839 -0.0331 -0.0803
 2533W        W 3530   1.002   5.786   4.848 -0.0561 -0.0598  0.1354
 2534W        W 3531   7.652   3.234   4.128 -0.2235  0.2170 -0.3220
 2535W        W 3532   6.009   6.085   0.527  0.1433  0.0522 -0.0119
 2536W        W 3533   0.408   1.195   6.160 -0.0849  0.0094  0.0676
 2537W        W 3534   5.361   4.992   5.750 -0.0821  0.0350 -0.1491
 2538W        W 3535   0.882   2.774   7.533 -0.1656  0.0550 -0.3226
 2539W        W 3536   6.816   1.540   3.680  0.3200 -0.0043  0.0194
 2540W        W 3537   1.881   0.226   3.126  0.4184  0.3116 -0.1685
 2541W        W 3538   2.951   5.054   1.839 -0.0930  0.3072  0.0115
 2542W        W 3539   2.845   3.721   0.413  0.3130 -0.0304  0.2098
 2543W        W 3540   2.090   6.748   1.313  0.3057 -0.6353 -0.0466
 2544W        W 3541   1.455   3.649   2.797  0.0421 -0.1273 -0.0775
 2545W        W 3542   5.372   0.598   0.524 -0.1916 -0.0887  0.0620
 2546W        W 3543   6.905   4.020   1.871 -0.3800 -0.0608  0.1188
 2547W        W 3544   6.823   2.266   4.823  0.4373 -0.0008  0.1630
 2548W        W 3545   1.083   7.072   2.248  0.1426 -0.0122  0.0298
 2549W        W 3546   0.206   3.667   6.387 -0.1297 -0.1804 -0.1118
 2550W        W 3547   0.474   5.920   5.817  0.2274 -0.1846 -0.2013
 2551W        W 3548   4.236   7.661   4.156  0.0440  0.0855 -0.3090
 2552W        W 3549   1.048   4.156   6.222  0.0057  0.3137 -0.0095
 2553W        W 3550   6.558   3.932   5.815 -0.2393  0.0736 -0.1035
 2554W        W 3551   2.634   6.668   6.649 -0.2927 -0.0494 -0.2252
 2555W        W 3552   3.262   5.238   6.421 -0.2948 -0.0171 -0.1103
 2556W        W 3553   6.785   3.726   2.248 -0.1065 -0.0719  0.0882
 2557W        W 3554   3.276   4.794   0.513 -0.1400  0.1298  0.0035
 2558W        W 3555   0.004   2.294   6.138 -0.0650 -0.0197 -0.0200
 2559W        W 3556   7.510   2.694   5.304 -0.0345  0.3768 -0.1138
 2560W        W 3557   2.487   0.425   2.698 -0.0476  0.0645  0.0689
 2561W        W 3558   7.238   2.307   3.694 -0.1397 -0.0971 -0.1040
 2562W        W 3559   2.869   6.765   0.769  0.0625  0.1535  0.1053
 2563W        W 3560   1.493   2.069   1.794  0.1377 -0.0656  0.2627
 2564W        W 3561   6.314   6.670   0.130  0.2089  0.4120 -0.1187
 2565W        W 3562   5.243   4.403   6.351 -0.0092  0.0050  0.2060
 2566W        W 3563   3.322   6.009   1.794 -0.0617 -0.0785  0.0031
 2567W        W 3564   0.003   7.394   5.835  0.3798 -0.2113  0.1135
 2568W        W 3565   5.264   6.904   1.694  0.0289  0.1496 -0.2375
 2569W        W 3566   3.630   2.017   1.809 -0.2477 -0.0174  0.1269
 2570W        W 3567   2.153   3.714   7.573  0.2720  0.1247  0.1869
 2571W        W 3568   3.653   4.846   7.156 -0.2045  0.0952  0.2353
 2572W        W 3569   6.505   5.248   2.215  0.1556  0.4308  0.0439
 2573W        W 3570   2.813   2.923   0.855 -0.3635  0.1045  0.2277
 2574W        W 3571   0.009   7.379   7.334 -0.4965 -0.0050  0.3008
 2575W        W 3572   1.251   2.826   5.097  0.1379  0.0511 -0.0133
 2576W        W 3573   0.043   5.473   0.925 -0.2846  0.0258  0.0696
 2577W        W 3574   7.074   1.903   3.408 -0.2923 -0.1603  0.1481
 2578W        W 3575   7.411   0.631   3.259 -0.2338  0.2622  0.0359
 2579W        W 3576   1.593   4.323   2.188 -0.0279  0.0929  0.0015
 2580W        W 3577   1.676   6.579   6.973  0.0701 -0.3015 -0.0372
 2581W        W 3578   6.396   1.094   2.157  0.2812  0.0550 -0.0116
 2582W        W 3579   0.083   1.844   1.624  0.3485  0.1089 -0.2205
 2583W        W 3580   7.142   0.633   0.458 -0.0969  0.0283 -0.0420
 2584W        W 3581   3.146   2.090   6.492  0.0645 -0.3451  0.1140
 2585W        W 3582   0.692   4.331   5.944  0.5257  0.3238  0.0991
 2586W        W 3583   5.162   1.651   1.251 -0.3019 -0.1789  0.0394
 2587W        W 3584   2.039   0.621   6.929  0.0073 -0.0036  0.0854
 2588W        W 3585   5.189   2.939   1.758  0.1230 -0.3699 -0.2435
 2589W        W 3586   5.590   4.074   6.283  0.2077  0.1785  0.1879
 2590W        W 3587   4.272   3.514   4.166 -0.1758 -0.1259  0.0509
 2591W        W 3588   5.081   1.085   0.419 -0.0490 -0.0533 -0.1681
 2592W        W 3589   0.111   0.204   5.577 -0.1714 -0.3382 -0.0825
 2593W        W 3590   3.972   0.477   0.092  0.1604  0.1485  0.0346
 2594W        W 3591   7.064   0.053   0.677  0.0242  0.0365  0.0306
 2595W        W 3592   5.646   3.406   7.100 -0.0737 -0.1611 -0.2559
 2596W        W 3593   2.676   6.373   7.326 -0.1134  0.1528  0.0759
 2597W        W 3594   5.097   0.380   2.492 -0.0482 -0.3975 -0.3456
 2598W        W 3595   1.864   3.033   0.111  0.0564  0.0856 -0.0412
 2599W        W 3596   7.055   4.066   0.171 -0.0930 -0.0327  0.0682
 2600W        W 3597   1.663   1.358   0.968 -0.1605 -0.1689 -0.0286
 2601W        W 3598   0.093   7.642   3.553  0.1189 -0.0729 -0.2008
 2602W        W 3599   7.361   4.140   6.032  0.1920 -0.3274 -0.2167
 2603W        W 3600   1.819   3.290   2.315 -0.0330  0.1452 -0.1442
 2604W        W 3601   1.617   6.706   6.009 -0.0582  0.0490 -0.2072
 2605W        W 3602   1.915   4.376   1.367 -0.1136  0.3595 -0.1119
 2606W        W 3603   7.102   7.444   1.592 -0.1384  0.0765  0.0519
 2607W        W 3604   1.398   7.188   4.990 -0.1368  0.1936 -0.1996
 2608W        W 3605   2.461   1.291   7.462 -0.0356 -0.1766  0.2424
 2609W        W 3606   4.766   2.990   2.496 -0.1042  0.0339  0.0247
 2610W        W 3607   0.915   1.554   1.529 -0.2092  0.1957 -0.0719
 2611W        W 3608   0.640   5.551   4.434  0.0470 -0.2387 -0.2158
 2612W        W 3609   5.527   5.951   3.242  0.0414  0.1690  0.2374
 2613W        W 3610   0.131   3.795   1.159  0.1596  0.0926 -0.0212
 2614W        W 3611   3.984   5.552   7.103 -0.1904 -0.2247 -0.0681
 2615W        W 3612   1.693   0.424   6.041 -0.0655  0.1700 -0.2025
 2616W        W 3613   0.926   0.442   4.568  0.1323  0.0770  0.0925
 2617W        W 3614   6.340   1.124   0.721 -0.0952 -0.0549 -0.1987
 2618W        W 3615   1.549   4.737   5.756  0.1587  0.1796 -0.0968
 2619W        W 3616   7.341   2.297   4.714 -0.0632  0.1366 -0.1043
 2620W        W 3617   3.074   5.704   1.262 -0.0355 -0.3501 -0.0767
 2621W        W 3618   2.410   5.877   2.080  0.0114 -0.0280 -0.3139
 2622W        W 3619   1.189   6.899   7.268 -0.0526 -0.0545  0.3111
 2623W        W 3620   5.964   2.277   0.854  0.0418 -0.2369  0.0998
 2624W        W 3621   2.376   3.604   3.476  0.2041  0.1595  0.1261
 2625W        W 3622   1.942   2.025   5.939  0.3162  0.0843  0.3633
 2626W        W 3623   2.239   7.186   2.412 -0.1161  0.2498  0.3008
 2627W        W 3624   2.647   4.594   7.433  0.2148  0.1596  0.5386
 2628W        W 3625   3.322   0.148   1.175  0.1177 -0.0480 -0.1187
 2629W        W 3626   7.608   4.512   5.839 -0.0065 -0.0902 -0.4762
 2630W        W 3627   3.335   0.770   2.227 -0.0731  0.0629 -0.0678
 2631W        W 3628   1.247   2.719   3.242  0.2491  0.0429  0.2767
 2632W        W 3629   6.586   7.391   2.300 -0.0788  0.0814  0.5723
 2633W        W 3630   3.301   0.569   6.082 -0.0379  0.1110  0.1710
 2634W        W 3631   5.531   3.296   0.803 -0.3047  0.0870  0.3745
 2635W        W 3632   1.006   5.300   3.251 -0.2740 -0.3073 -0.1098
 2636W        W 3633   0.546   3.941   0.084 -0.0653 -0.2727  0.1017
 2637W        W 3634   1.227   4.692   7.436  0.0868 -0.0918 -0.0606
 2638W        W 3635   0.767   6.096   6.606  0.2825 -0.0177 -0.0896
 2639W        W 3636   4.726   5.822   1.675 -0.2260  0.0802  0.1259
 2640W        W 3637   2.121   5.873   4.852  0.2347 -0.6816  0.0079
 2641W        W 3638   6.008   4.812   1.037 -0.2173  0.2728  0.0139
 2642W        W 3639   3.963   4.531   6.954 -0.1782 -0.0784  0.2139
 2643W        W 3640   3.160   4.372   7.058  0.0361 -0.0863  0.0949
 2644W        W 3641   1.943   4.505   1.863  0.3377  0.1777 -0.1494
 2645W        W 3642   6.598   0.710   2.633 -0.0248  0.1248 -0.1356
 2646W        W 3643   2.904   6.124   2.657  0.0802 -0.1274 -0.3615
 2647W        W 3644   1.138   7.622   3.726  0.0657  0.0879  0.0989
 2648W        W 3645   6.166   3.417   2.266 -0.1421  0.1910 -0.0362
 2649W        W 3646   6.005   3.317   4.390  0.2501  0.1708 -0.1625
 2650W        W 3647   7.029   7.008   6.770 -0.0169  0.4042  0.1644
 2651W        W 3648   0.340   1.988   3.082  0.0095  0.1032  0.0421
 2652W        W 3649   4.207   6.285   5.271  0.0724 -0.0651  0.2515
 2653W        W 3650   0.980   1.292   5.951  0.0667  0.1451 -0.2700
 2654W        W 3651   5.054   4.183   0.823 -0.0304 -0.4331 -0.2119
 2655W        W 3652   0.966   2.436   2.916 -0.2479  0.0578  0.0596
 2656W        W 3653   2.631   1.658   4.251 -0.0418  0.2370 -0.1728
 2657W        W 3654   5.103   4.674   1.637  0.1147 -0.2993 -0.1042
 2658W        W 3655   5.679   6.751   2.762  0.3646 -0.0256 -0.0396
 2659W        W 3656   7.124   5.190   6.424  0.1724  0.4177  0.1391
 2660W        W 3657   2.836   3.587   0.993 -0.1664  0.1039 -0.2201
 2661W        W 3658   2.556   2.003   0.015  0.1631 -0.1333 -0.2633
 2662W        W 3659   5.523   1.510   0.952  0.1485 -0.0204 -0.3139
 2663W        W 3660   4.638   0.307   1.690  0.1367  0.1570  0.3867
 2664W        W 3661   7.345   2.467   2.253 -0.1383 -0.2606 -0.1802
 2665W        W 3662   1.661   2.929   5.758  0.1428  0.0382 -0.1328
 2666W        W 3663   3.223   0.188   7.288 -0.1235  0.0565 -0.1171
 2667W        W 3664   0.807   2.858   1.930  0.0788 -0.1875 -0.4703
 2668W        W 3665   7.662   7.503   0.220 -0.1220 -0.1932  0.1032
 2669W        W 3666   6.682   4.500   1.487  0.2727  0.5136 -0.1454
 2670W        W 3667   0.529   7.373   7.044  0.1715 -0.2618 -0.0000
 2671W        W 3668   1.734   0.907   1.081  0.1714  0.1405 -0.0369
 2672W        W 3669   7.516   2.231   7.430  0.1379 -0.2506  0.1371
 2673W        W 3670   4.409   5.079   5.407 -0.1237  0.0105  0.2188
 2674W        W 3671   1.810   1.542   2.149  0.2142 -0.1165  0.0783
 2675W        W 3672   1.130   3.837   6.979 -0.0971 -0.4127  0.0752
 2676W        W 3673   2.121   6.059   2.998  0.1118  0.0107 -0.1648
 2677W        W 3674   0.890   0.150   5.011 -0.2378 -0.1818 -0.0439
 2678W        W 3675   2.659   5.976   6.258 -0.0692 -0.1712 -0.0376
 2679W        W 3676   4.985   6.334   2.643  0.2602 -0.1659  0.0739
 2680W        W 3677   0.025   6.954   3.214 -0.2860 -0.0690  0.0084
 2681W        W 3678   3.094   7.333   6.642  0.1277 -0.0690  0.0132
 2682W        W 3679   0.467   0.878   7.217 -0.1317  0.0902 -0.0139
 2683W        W 3680   1.317   0.132   6.388 -0.1334 -0.2568  0.1217
 2684W        W 3681   3.152   6.929   2.086 -0.2148  0.1022 -0.2057
 2685W        W 3682   4.699   6.205   5.445  0.1363 -0.1937  0.0152
 2686W        W 3683   0.177   2.252   4.637  0.1564  0.1271 -0.0046
 2687W        W 3684   4.958   5.967   4.996  0.0903 -0.3574 -0.4050
 2688W        W 3685   2.172   5.354   5.952  0.0008 -0.3557  0.0709
 2689W        W 3686   0.073   4.043   2.318  0.1177  0.2251 -0.0259
 2690W        W 3687   6.639   6.102   6.317 -0.1832  0.3961  0.1268
 2691W        W 3688   5.932   3.758   0.838  0.3750 -0.0992  0.1312
 2692W        W 3689   4.941   4.840   2.559 -0.0014  0.0284 -0.1313
 2693W        W 3690   3.904   2.506   5.756  0.1325  0.0143 -0.0649
 2694W        W 3691   5.136   3.097   0.140  0.1363 -0.1052 -0.0178
 2695W        W 3692   5.034   5.119   3.585 -0.3188  0.3652 -0.1993
 2696W        W 3693   4.674   5.054   4.133 -0.1015 -0.0767  0.1710
 2697W        W 3694   0.791   3.255   0.783 -0.0585 -0.0347  0.0659
 2698W        W 3695   5.775   5.281   5.544 -0.0846  0.0078  0.0869
 2699W        W 3696   4.181   3.239   6.991  0.1127  0.0067 -0.1729
 2700W        W 3697   1.835   1.588   6.056  0.0120 -0.1604 -0.0176
 2701W        W 3698   0.446   1.973   0.091 -0.0583  0.1643  0.0177
 2702W        W 3699   5.888   2.017   2.699 -0.0411 -0.0343 -0.0354
 2703W        W 3700   4.366   4.353   3.482  0.1108  0.1992  0.0419
 2704W        W 3701   7.522   6.390   3.161 -0.1151 -0.2807  0.0372
 2705W        W 3702   1.125   5.440   6.099 -0.0483 -0.0686 -0.2330
 2706W        W 3703   5.240   1.929   0.837 -0.0267  0.3281 -0.0023
 2707W        W 3704   6.967   3.331   2.837 -0.4065 -0.2213  0.1165
 2708W        W 3705   3.765   1.504   1.886 -0.0628  0.1500 -0.0713
 2709W        W 3706   7.067   5.868   4.633 -0.0793 -0.1036  0.0662
 2710W        W 3707   1.914   2.806   5.296  0.0622 -0.0517  0.1342
 2711W        W 3708   4.058   6.155   4.324  0.1366 -0.1200  0.2955
 2712W        W 3709   6.026   0.044   1.582 -0.1845 -0.0916 -0.2588
 2713W        W 3710   3.691   6.493   4.678  0.1949 -0.4361  0.1253
 2714W        W 3711   2.291   3.207   6.243 -0.1364 -0.0966  0.0073
 2715W        W 3712   1.141   3.143   1.255  0.1566 -0.1343  0.1739
 2716W        W 3713   5.375   4.196   3.740 -0.0200 -0.1947  0.3093
 2717W        W 3714   7.141   4.165   3.348  0.0139  0.0785  0.1728
 2718W        W 3715   1.860   2.281   3.228  0.0433  0.0113 -0.2108
 2719W        W 3716   1.208   6.534   2.935 -0.0525 -0.2367 -0.1282
 2720W        W 3717   1.173   2.578   3.739 -0.2778  0.0704 -0.2324
 2721W        W 3718   0.599   1.585   3.233 -0.0036  0.1427 -0.1069
 2722W        W 3719   4.330   2.833   2.698  0.0112 -0.1896  0.4623
 2723W        W 3720   0.473   0.449   4.863 -0.0279  0.1193 -0.1392
 2724W        W 3721   4.412   3.752   4.727  0.1395 -0.0418  0.1891
 2725W        W 3722   2.578   3.018   5.507  0.0079 -0.0292  0.2982
 2726W        W 3723   4.578   7.291   2.615 -0.1121  0.0786 -0.1417
 2727W        W 3724   7.430   4.075   5.045 -0.0671  0.0605 -0.0513
 2728W        W 3725   7.659   3.505   0.828 -0.1044 -0.0158 -0.1229
 2729W        W 3726   5.621   1.399   4.520 -0.0588 -0.1439 -0.1375
 2730W        W 3727   0.407   2.918   7.216  0.0331 -0.0308 -0.1959
 2731W        W 3728   2.593   4.766   6.906  0.0908  0.1226  0.0109
 2732W        W 3729   6.420   2.648   3.281  0.5619  0.3241 -0.0589
 2733W        W 3730   5.930   6.207   4.650  0.1493 -0.0341  0.0667
 2734W        W 3731   5.488   5.162   5.165 -0.0828 -0.3438  0.2885
 2735W        W 3732   4.526   4.669   5.109 -0.0575 -0.1609  0.0697
 2736W        W 3733   5.527   4.948   4.263 -0.0089 -0.0487 -0.1043
 2737W        W 3734   3.464   6.083   6.122 -0.0074 -0.1352  0.0516
 2738W        W 3735   7.410   7.383   1.203 -0.2300 -0.1643 -0.0319
 2739W        W 3736   7.209   5.818   0.051  0.1598 -0.3813  0.2290
 2740W        W 3737   3.508   2.806   5.956  0.1609  0.0216 -0.1307
 2741W        W 3738   3.864   0.686   6.167 -0.0765 -0.0553 -0.0410
 2742W        W 3739   4.389   7.203   3.915  0.2323 -0.2568  0.1459
 2743W        W 3740   3.924   3.249   2.388  0.1925 -0.1909  0.1271
 2744W        W 3741   1.779   6.398   3.284 -0.0233  0.0780  0.0331
 2745W        W 3742   4.944   2.118   1.218 -0.1067 -0.0790 -0.2190
 2746W        W 3743   7.556   3.029   3.561 -0.2456  0.0182  0.3825
 2747W        W 3744   5.049   6.747   7.225 -0.0705 -0.0384  0.1741
 2748W        W 3745   1.377   3.641   5.959 -0.1101  0.1885  0.0407
 2749W        W 3746   6.957   4.348   2.792  0.1760 -0.2876  0.3265
 2750W        W 3747   2.521   4.513   6.058  0.1729  0.1221  0.4197
 2751W        W 3748   0.547   1.212   4.694  0.1678 -0.0759  0.2730
 2752W        W 3749   1.184   7.350   4.213 -0.0636  0.1796 -0.0457
 2753W        W 3750   5.830   5.859   2.877 -0.0591  0.0833  0.1294
 2754W        W 3751   5.710   6.332   0.865 -0.0891 -0.1684 -0.2210
 2755W        W 3752   2.154   4.079   2.097 -0.1663  0.1607 -0.1783
 2756W        W 3753   0.736   2.754   3.982 -0.1965 -0.0938 -0.0697
 2757W        W 3754   7.385   6.129   2.800  0.1742  0.3308 -0.1922
 2758W        W 3755   2.076   2.576   6.145  0.1775  0.0577  0.1221
 2759W        W 3756   1.407   2.941   6.740 -0.0186 -0.1928  0.1171
 2760W        W 3757   1.690   3.473   0.015 -0.1287  0.1739  0.0210
 2761W        W 3758   6.853   5.629   2.118  0.3694 -0.1014 -0.1545
 2762W        W 3759   5.564   5.388   7.443  0.1413 -0.3577  0.2016
 2763W        W 3760   3.623   5.485   0.041  0.1601 -0.0590 -0.0493
 2764W        W 3761   0.161   5.025   5.717  0.2750 -0.0645 -0.1132
 2765W        W 3762   2.052   6.912   6.977 -0.0500 -0.0511 -0.1436
 2766W        W 3763   3.071   4.050   6.641 -0.1382  0.1915 -0.0270
 2767W        W 3764   0.840   3.000   5.449  0.0171  0.1518  0.2033
 2768W        W 3765   0.732   5.838   0.383  0.0230  0.0869 -0.2806
 2769W        W 3766   1.348   0.350   2.024  0.0377 -0.3089  0.0066
 2770W        W 3767   1.913   0.472   1.297 -0.1719 -0.3481 -0.2346
 2771W        W 3768   3.628   1.075   6.460  0.2486 -0.3113 -0.1101
 2772W        W 3769   7.218   5.872   2.317  0.0445 -0.0923  0.1650
 2773W        W 3770   0.598   0.069   2.427  0.0338  0.2219  0.3695
 2774W        W 3771   2.156   2.318   7.295  0.0677  0.1730 -0.0435
 2775W        W 3772   1.645   6.024   0.714  0.2327  0.1284 -0.1405
 2776W        W 3773   4.310   6.727   3.288 -0.2430  0.0624 -0.0794
 2777W        W 3774   1.469   6.856   3.986  0.2359 -0.1777  0.1899
 2778W        W 3775   1.756   6.460   2.691  0.1691 -0.0246  0.1842
 2779W        W 3776   6.380   4.800   0.159  0.2368  0.1273 -0.0130
 2780W        W 3777   4.027   3.322   5.449 -0.4317 -0.0858  0.0079
 2781W        W 3778   5.663   0.206   3.607 -0.1263 -0.0266  0.2380
 2782W        W 3779   3.186   1.166   1.609 -0.1116 -0.1529  0.1504
 2783W        W 3780   0.611   5.611   7.297  0.0032 -0.1322  0.0318
 2784W        W 3781   5.577   5.127   6.592 -0.2523 -0.1734 -0.0122
 2785W        W 3782   4.482   1.912   2.506 -0.1070  0.0460 -0.0231
 2786W        W 3783   1.174   5.428   4.487 -0.0218  0.0375  0.4351
 2787W        W 3784   1.331   5.330   7.546  0.0550 -0.1981  0.0112
 2788W        W 3785   3.517   6.155   7.004 -0.0296 -0.0330  0.0856
 2789W        W 3786   7.164   5.520   3.380 -0.0001  0.0030  0.0686
 2790W        W 3787   2.299   6.222   3.503 -0.0518 -0.0130 -0.5159
 2791W        W 3788   2.409   2.911   1.363  0.2262 -0.2117 -0.0029
 2792W        W 3789   1.302   1.940   0.851  0.0355  0.2526 -0.1791
 2793W        W 3790   6.261   3.496   6.353 -0.0050  0.1992  0.1994
 2794W        W 3791   1.753   4.000   1.648  0.0010 -0.1215  0.0882
 2795W        W 3792   7.442   0.249   5.973  0.0840  0.2858 -0.1273
 2796W        W 3793   7.055   5.144   6.926 -0.0240 -0.1017 -0.1435
 2797W        W 3794   5.637   7.466   0.338  0.0991 -0.2368 -0.0963
 2798W        W 3795   0.805   4.161   4.694  0.0825  0.2127 -0.0369
 2799W        W 3796   5.232   3.098   2.239  0.0744  0.1905  0.0450
 2800W        W 3797   5.678   5.921   5.347 -0.0924  0.4488  0.4495
 2801W        W 3798   2.344   3.561   2.266  0.0192 -0.3317  0.1049
 2802W        W 3799   6.644   0.060   1.285 -0.1257  0.1596  0.1972
 2803W        W 3800   4.645   4.119   2.481  0.0218 -0.1040 -0.0959
 2804W        W 3801   6.615   5.490   3.731  0.1974  0.1400 -0.1345
 2805W        W 3802   5.702   3.392   6.323  0.0659 -0.1814 -0.1524
 2806W        W 3803   2.057   6.660   0.388  0.0621  0.1825 -0.0625
 2807W        W 3804   3.300   1.721   2.014  0.0886  0.2035  0.0352
 2808W        W 3805   2.931   1.721   7.292  0.1327 -0.2892  0.1794
 2809W        W 3806   0.103   1.461   4.658 -0.0123 -0.2085  0.2261
 2810W        W 3807   1.135   2.800   1.550 -0.0936 -0.2073 -0.1474
 2811W        W 3808   3.971   4.257   1.068 -0.0026  0.1317  0.1632
 2812W        W 3809   4.130   1.109   0.717  0.0749  0.1450  0.0526
 2813W        W 3810   2.484   4.256   1.757 -0.1050  0.0097  0.1974
 2814W        W 3811   1.362   1.018   2.871 -0.1910  0.1430  0.2441
 2815W        W 3812   0.214   2.879   3.088  0.0382 -0.0679  0.1118
 2816W        W 3813   5.666   5.880   7.361 -0.0070  0.0900  0.3387
 2817W        W 3814   6.646   4.472   4.027 -0.2420 -0.0237 -0.4154
 2818W        W 3815   5.951   3.549   3.632 -0.1123  0.1046 -0.0544
 2819W        W 3816   4.279   1.385   0.310  0.0030 -0.0055 -0.1509
 2820W        W 3817   2.269   0.121   1.068 -0.1514  0.1750  0.2919
 2821W        W 3818   7.597   0.649   1.262 -0.0462  0.1757 -0.2159
 2822W        W 3819   0.068   0.539   2.801  0.0414 -0.4043 -0.2161
 2823W        W 3820   1.458   6.505   7.453  0.1711  0.1921 -0.0385
 2824W        W 3821   1.840   7.038   4.741  0.0005 -0.0925 -0.2385
 2825W        W 3822   3.773   6.811   6.330  0.0078 -0.1764  0.1814
 2826W        W 3823   7.062   4.416   5.721  0.0916 -0.2135  0.0291
 2827W        W 3824   4.181   5.101   6.551 -0.1746 -0.0523 -0.0738
 2828W        W 3825   2.240   0.360   7.334 -0.1824 -0.0488 -0.2635
 2829W        W 3826   2.814   2.641   6.489 -0.1705  0.1356  0.1083
 2830W        W 3827   6.151   6.044   2.445  0.2719 -0.2101 -0.0748
 2831W        W 3828   0.117   1.355   7.250 -0.1679  0.0584  0.1369
 2832W        W 3829   6.300   5.244   3.383 -0.3846 -0.0583 -0.0365
 2833W        W 3830   0.853   1.881   1.110  0.0161 -0.3713 -0.0504
 2834W        W 3831   1.209   3.193   7.570 -0.0443  0.0228 -0.0355
 2835W        W 3832   0.603   4.985   1.548  0.1788  0.0172  0.0958
 2836W        W 3833   0.329   1.425   1.257 -0.0489 -0.1944  0.0718
 2837W        W 3834   5.670   4.455   1.101 -0.0164  0.0865  0.0026
 2838W        W 3835   0.008   7.266   6.781  0.2450 -0.1704  0.1005
 2839W        W 3836   0.201   0.072   2.057  0.1571  0.2014 -0.3084
 2840W        W 3837   2.236   7.658   5.432 -0.1401 -0.2565 -0.0581
 2841W        W 3838   3.637   0.911   7.488  0.2478 -0.0131 -0.0353
 2842W        W 3839   1.340   1.536   2.719 -0.3879 -0.0013  0.1083
 2843W        W 3840   6.299   6.540   0.949  0.3264  0.1017 -0.1659
 2844W        W 3841   2.752   0.328   4.675  0.0407  0.2042 -0.0915
 2845W        W 3842   3.416   1.538   0.993  0.0778  0.0732 -0.0479
 2846W        W 3843   4.991   6.095   4.008 -0.0496  0.1641  0.0989
 2847W        W 3844   7.280   1.591   3.695 -0.2643  0.0052 -0.0121
 2848W        W 3845   6.321   1.765   3.825  0.1732 -0.2236 -0.1300
 2849W        W 3846   6.523   6.548   1.832 -0.0361 -0.1104  0.0675
 2850W        W 3847   5.552   3.377   4.526 -0.0301 -0.1273 -0.2705
 2851W        W 3848   4.606   6.907   4.308  0.1220  0.3114 -0.1496
 2852W        W 3849   6.996   5.697   6.315 -0.3248  0.0500  0.3968
 2853W        W 3850   1.479   6.384   4.179 -0.1022  0.4962 -0.0647
 2854W        W 3851   3.352   4.471   0.952  0.0336  0.0400 -0.0131
 2855W        W 3852   0.504   5.300   3.589  0.0864 -0.1569  0.1094
 2856W        W 3853   3.687   1.979   0.892 -0.0031  0.0358  0.3292
 2857W        W 3854   6.291   3.554   5.221 -0.0765  0.0607  0.1320
 2858W        W 3855   5.276   5.527   1.067  0.1443  0.3181  0.0066
 2859W        W 3856   5.543   2.385   3.965 -0.0742 -0.3996  0.0212
 2860W        W 3857   4.232   1.933   0.589  0.0183 -0.0482  0.1551
 2861W        W 3858   1.960   1.230   3.461 -0.1038 -0.1192 -0.0843
 2862W        W 3859   2.047   3.969   6.670  0.0415 -0.0413  0.0365
 2863W        W 3860   0.138   5.470   4.381  0.0168 -0.1706 -0.3635
 2864W        W 3861   0.728   7.272   0.965  0.2909  0.1381 -0.1010
 2865W        W 3862   2.824   5.964   0.393 -0.0446  0.0651 -0.0638
 2866W        W 3863   3.641   2.643   7.526  0.1859 -0.0295 -0.0729
 2867W        W 3864   5.299   6.179   7.606 -0.0128  0.0454 -0.1057
 2868W        W 3865   4.210   3.835   0.186 -0.0273 -0.1016 -0.3041
 2869W        W 3866   0.060   4.582   4.841 -0.3014  0.3343  0.0719
 2870W        W 3867   3.783   4.591   0.734  0.1571 -0.0856 -0.2022
 2871W        W 3868   0.907   1.960   4.260  0.1085 -0.1215 -0.1950
 2872W        W 3869   0.148   3.400   3.251 -0.1968  0.1075 -0.0192
 2873W        W 3870   6.215   1.896   0.612 -0.1384  0.0701 -0.2399
 2874W        W 3871   2.996   7.343   7.195 -0.0143 -0.0807 -0.1283
 2875W        W 3872   6.458   2.886   0.427 -0.0953 -0.1947  0.0289
 2876W        W 3873   5.160   5.320   4.077 -0.3552  0.4092  0.0223
 2877W        W 3874   0.850   7.142   6.286 -0.0851  0.0795  0.3186
 2878W        W 3875   0.949   0.147   7.450 -0.2227 -0.1220 -0.0678
 2879W        W 3876   5.214   4.492   0.097  0.0791  0.0122  0.0767
 2880W        W 3877   7.192   4.295   0.605  0.0235  0.0057  0.1103
 2881W        W 3878   0.679   6.881   7.358 -0.1734 -0.2903  0.1616
 2882W        W 3879   6.704   0.398   0.869 -0.0157  0.3396 -0.1565
 2883W        W 3880   1.033   5.749   7.667  0.1232  0.1402  0.2625
 2884W        W 3881   0.546   7.380   1.993 -0.0745  0.2717 -0.0973
 2885W        W 3882   5.091   5.023   3.061  0.0682 -0.3939  0.1135
 2886W        W 3883   6.843   6.381   5.934  0.1536  0.1229  0.0049
 2887W        W 3884   3.589   4.341   1.467 -0.3109 -0.2904  0.1335
 2888W        W 3885   4.761   4.765   0.864  0.0364  0.1780  0.2401
 2889W        W 3886   2.326   3.430   1.360  0.0125  0.2457  0.2852
 2890W        W 3887   1.251   6.375   5.991 -0.3081 -0.1538  0.1873
 2891W        W 3888   4.391   0.696   1.463 -0.1997 -0.2511 -0.4403
 2892W        W 3889   7.594   5.202   6.187 -0.2617  0.1261 -0.1094
 2893W        W 3890   3.007   1.222   1.110 -0.3998  0.2526  0.1494
 2894W        W 3891   0.161   3.760   1.846  0.1743  0.0123 -0.1969
 2895W        W 3892   2.964   1.495   0.660 -0.0901 -0.1162 -0.3820
 2896W        W 3893   5.145   2.399   3.075  0.2906 -0.2216  0.1079
 2897W        W 3894   0.769   3.642   1.801 -0.0815 -0.1680  0.0513
 2898W        W 3895   2.550   5.031   0.107 -0.1744  0.0231  0.3098
 2899W        W 3896   7.577   5.251   3.831 -0.1399  0.0373 -0.1931
 2900W        W 3897   5.969   3.810   5.981  0.1250 -0.0637 -0.2039
 2901W        W 3898   0.384   1.886   5.315  0.1225 -0.0486  0.2145
 2902W        W 3899   6.157   2.691   3.703  0.1299 -0.2895  0.0969
 2903W        W 3900   4.367   7.167   6.920  0.0150  0.0127  0.3630
 2904W        W 3901   0.969   6.605   3.434  0.1336 -0.1255  0.0359
 2905W        W 3902   3.758   6.453   5.331 -0.0505 -0.2270 -0.1014
 2906W        W 3903   4.329   1.679   5.548  0.1195  0.0431 -0.1482
 2907W        W 3904   1.048   5.037   3.693 -0.1863 -0.0237  0.1589
 2908W        W 3905   6.962   2.365   3.277 -0.0333 -0.0625  0.1047
 2909W        W 3906   2.781   5.118   7.300 -0.0841  0.2918 -0.0766
 2910W        W 3907   0.503   7.348   0.498  0.0384  0.2559 -0.1055
 2911W        W 3908   4.958   7.667   1.891 -0.0043  0.1316 -0.2193
 2912W        W 3909   3.953   4.658   0.271 -0.2276 -0.2300  0.0301
 2913W        W 3910   2.094   5.425   5.048 -0.0133 -0.1072  0.1186
 2914W        W 3911   2.143   1.900   3.009 -0.0333  0.0970  0.1668
 2915W        W 3912   2.470   5.706   5.878 -0.0801 -0.3559  0.1695
 2916W        W 3913   1.076   4.478   2.272 -0.2973 -0.0376 -0.0612
 2917W        W 3914   0.859   4.424   1.493  0.1364 -0.1439  0.2307
 2918W        W 3915   6.243   3.773   1.204  0.2977  0.1966  0.3305
 2919W        W 3916   6.101   4.272   0.852 -0.0212 -0.0390 -0.0684
 2920W        W 3917   4.724   1.948   0.764  0.0382 -0.1874 -0.1361
 2921W        W 3918   6.409   5.156   0.855  0.0055  0.0254 -0.0674
 2922W        W 3919   5.988   5.854   6.812  0.0499 -0.1010 -0.1716
 2923W        W 3920   4.239   0.004   4.673  0.0954  0.0568 -0.0865
 2924W        W 3921   6.693   6.511   5.275 -0.1714  0.2849  0.0002
 2925W        W 3922   4.913   3.256   1.024  0.1331  0.0064 -0.0864
 2926W        W 3923   4.990   0.635   4.219 -0.0400 -0.2318  0.1152
 2927W        W 3924   1.004   2.454   4.821  0.0459 -0.0843 -0.0962
 2928W        W 3925   6.511   1.577   0.844  0.5206 -0.0489 -0.0420
 2929W        W 3926   6.177   3.652   7.211 -0.2088 -0.0601 -0.0093
 2930W        W 3927   4.997   3.078   2.931 -0.1859  0.0505 -0.1748
 2931W        W 3928   1.156   2.160   6.513  0.0257  0.1088 -0.2027
 2932W        W 3929   4.118   6.397   2.757  0.1313 -0.0646 -0.1639
 2933W        W 3930   6.314   4.688   4.399 -0.1767 -0.0571 -0.3302
 2934W        W 3931   6.899   0.591   1.338  0.1316 -0.0227  0.2343
 2935W        W 3932   0.049   4.825   0.154  0.0749  0.2258  0.0130
 2936W        W 3933   2.025   5.544   0.526  0.2185  0.2137 -0.2100
 2937W        W 3934   7.659   5.005   7.134 -0.1582 -0.0761  0.2108
 2938W        W 3935   1.936   7.235   1.165  0.1112  0.1508 -0.1929
 2939W        W 3936   0.047   6.317   4.081 -0.0320  0.0807 -0.0943
 2940W        W 3937   3.992   0.942   1.155  0.0131  0.1138 -0.0041
 2941W        W 3938   1.685   0.910   0.086 -0.5047  0.0425  0.1112
 2942W        W 3939   1.088   1.570   6.761 -0.1242 -0.3290 -0.4872
 2943W        W 3940   2.377   5.732   0.229 -0.3306 -0.1452 -0.0429
 2944W        W 3941   1.239   5.759   1.963 -0.0783 -0.1410 -0.2289
 2945W        W 3942   3.255   6.499   1.763 -0.0049 -0.0995  0.1526
 2946W        W 3943   1.336   7.083   5.495  0.0653 -0.1722 -0.1406
 2947W        W 3944   7.662   1.104   5.868 -0.0731  0.1292  0.2144
 2948W        W 3945   0.298   7.520   4.231  0.0215  0.1082 -0.3960
 2949W        W 3946   1.093   5.082   5.782  0.0824 -0.4638  0.2075
 2950W        W 3947   4.605   1.132   2.960  0.0469 -0.1310  0.0355
 2951W        W 3948   4.624   0.401   0.798  0.5073 -0.2849 -0.0414
 2952W        W 3949   2.457   4.426   1.213  0.1072  0.1769  0.2034
 2953W        W 3950   6.044   3.278   2.750  0.0478 -0.0995 -0.0685
 2954W        W 3951   5.879   2.173   0.282 -0.1606 -0.1438 -0.0646
 2955W        W 3952   1.206   5.847   0.555 -0.1959  0.0111 -0.0626
 2956W        W 3953   3.740   0.507   2.083 -0.0441 -0.0952 -0.0929
 2957W        W 3954   7.078   4.388   5.232 -0.1313  0.1085  0.3875
 2958W        W 3955   5.869   5.513   5.066  0.0711  0.0615 -0.3168
 2959W        W 3956   3.461   7.506   0.436 -0.3196  0.1078  0.1291
 2960W        W 3957   2.208   0.835   1.155 -0.1363 -0.1134  0.0460
 2961W        W 3958   2.906   1.056   0.119  0.0944  0.0824  0.3183
 2962W        W 3959   7.281   3.229   7.112  0.0642 -0.2435  0.1508
 2963W        W 3960   2.179   7.569   7.608  0.0987  0.2625 -0.0858
 2964W        W 3961   3.918   5.867   2.029  0.0159 -0.2078  0.0260
 2965W        W 3962   0.607   6.799   4.767 -0.0879  0.0923  0.2292
 2966W        W 3963   5.094   4.010   4.117 -0.1054 -0.0105 -0.2698
 2967W        W 3964   6.048   5.670   4.596  0.1052  0.0525 -0.0387
 2968W        W 3965   5.499   1.511   3.336  0.1774  0.0425 -0.0979
 2969W        W 3966   7.257   6.088   6.135  0.3490  0.1043  0.2313
 2970W        W 3967   2.591   6.501   1.104 -0.2678  0.1327 -0.4220
 2971W        W 3968   2.235   7.354   0.788 -0.0966 -0.2365  0.1395
 2972W        W 3969   1.541   0.281   5.582 -0.0089  0.0595  0.2910
 2973W        W 3970   0.671   6.506   6.868 -0.0764  0.1413 -0.1125
 2974W        W 3971   1.498   2.261   1.232 -0.2847 -0.0593 -0.4285
 2975W        W 3972   3.176   2.005   0.945  0.4021  0.0134  0.0741
 2976W        W 3973   1.249   7.150   0.099  0.0378 -0.2210 -0.0784
 2977W        W 3974   5.482   3.437   5.758 -0.0306 -0.0588 -0.0553
 2978W        W 3975   5.298   1.554   0.509 -0.0343 -0.0583  0.1914
 2979W        W 3976   7.447   7.415   0.684 -0.2006 -0.0151  0.3628
 2980W        W 3977   3.816   7.437   4.580  0.0651 -0.1291 -0.1889
 2981W        W 3978   5.638   2.609   0.121  0.1759  0.3186  0.0423
 2982W        W 3979   1.344   3.030   4.161 -0.2474  0.1000  0.0301
 2983W        W 3980   2.631   4.294   7.023  0.0225  0.0252 -0.1655
 2984W        W 3981   2.811   3.286   1.365  0.3406  0.3878 -0.1000
 2985W        W 3982   6.934   0.795   3.167  0.0105 -0.2673  0.0928
 2986W        W 3983   7.261   3.415   7.590  0.3588  0.3284 -0.3609
 2987W        W 3984   2.122   7.238   5.561  0.2242 -0.0713 -0.0437
 2988W        W 3985   2.276   5.036   7.303  0.0521 -0.0980  0.0467
 2989W        W 3986   5.136   1.260   0.865  0.0962 -0.0364 -0.0102
 2990W        W 3987   7.124   5.721   7.074 -0.3324  0.3017  0.4476
 2991W        W 3988   6.683   7.506   0.297 -0.1982 -0.0250 -0.2513
 2992W        W 3989   3.773   7.125   7.406 -0.3667  0.0121 -0.3139
 2993W        W 3990   7.182   0.614   2.765 -0.1162  0.2086 -0.1451
 2994W        W 3991   7.640   3.128   0.137  0.2117 -0.1480  0.0267
 2995W        W 3992   4.237   2.372   2.545  0.1800  0.2783 -0.2774
 2996W        W 3993   1.648   1.507   4.829  0.1220  0.0572 -0.0121
 2997W        W 3994   6.102   2.291   3.076  0.2072 -0.2143  0.1897
 2998W        W 3995   2.556   0.338   6.484 -0.0837  0.0595  0.2204
 2999W        W 3996   7.371   0.213   0.272 -0.0272 -0.0711  0.1948
 3000W        W 3997   7.581   0.547   3.769 -0.0996  0.0662  0.0608
 3001W        W 3998   0.567   3.881   2.376  0.2792 -0.2720  0.2472
 3002W        W 3999   4.603   2.831   3.699 -0.0983 -0.0729  0.4101
 3003W        W 4000   2.241   4.010   7.118  0.2110 -0.0447 -0.1986
 3004W        W 4001   3.270   5.566   1.937  0.1005 -0.2624 -0.3367
 3005W        W 4002   3.700   5.444   3.985 -0.2691 -0.4037  0.0618
 3006W        W 4003   7.660   6.848   1.332 -0.1538  0.0647 -0.0333
 3007W        W 4004   5.661   0.591   2.775  0.0130 -0.0825  0.4426
 3008W        W 4005   2.567   5.668   1.236  0.0983  0.1658  0.0282
 3009W        W 4006   6.087   4.150   5.659 -0.2971 -0.0415 -0.1181
 3010W        W 4007   1.674   1.201   2.491 -0.1972  0.1359  0.0126
 3011W        W 4008   7.211   5.927   1.761  0.1910  0.1184 -0.1680
 3012W        W 4009   2.828   1.488   5.800  0.0803 -0.0166  0.0911
 3013W        W 4010   5.214   2.273   2.495  0.4361  0.0375  0.3723
 3014W        W 4011   7.425   4.775   3.865  0.2667  0.0100  0.1345
 3015W        W 4012   0.266   5.822   1.187 -0.5069  0.0764 -0.0208
 3016W        W 4013   5.004   2.113   2.060  0.1972 -0.2635 -0.1365
 3017W        W 4014   3.176   3.319   5.910 -0.0921 -0.0616 -0.0145
 3018W        W 4015   0.569   7.218   3.044 -0.0528 -0.0069 -0.1776
 3019W        W 4016   6.783   3.014   4.207 -0.0168  0.0090  0.3506
 3020W        W 4017   1.519   3.252   5.098 -0.2400 -0.2400  0.4257
 3021W        W 4018   5.061   5.217   6.630  0.0359  0.1360  0.1196
 3022W        W 4019   5.959   4.192   1.785 -0.2032 -0.0718  0.2343
 3023W        W 4020   5.910   2.889   4.060  0.2896 -0.0692 -0.0593
 3024W        W 4021   2.704   1.830   2.169  0.1776 -0.0591  0.2389
 3025W        W 4022   2.255   0.211   1.852  0.1468  0.1750  0.2754
 3026W        W 4023   6.804   6.481   0.037  0.4150 -0.1012 -0.1286
 3027W        W 4024   0.256   2.265   4.131 -0.1559  0.0599 -0.0351
 3028W        W 4025   5.310   3.180   3.406 -0.4452  0.0841  0.0415
 3029W        W 4026   5.545   1.966   3.668 -0.1782  0.1690  0.0117
 3030W        W 4027   2.451   5.872   0.749  0.1448 -0.0354  0.2969
 3031W        W 4028   2.364   5.712   6.685  0.1532  0.1040 -0.0656
 3032W        W 4029   0.676   3.622   6.638  0.0855 -0.1367 -0.2272
 3033W        W 4030   2.237   3.825   1.688 -0.1675  0.5870  0.0063
 3034W        W 4031   5.934   0.353   0.426 -0.3431 -0.0765 -0.1583
 3035W        W 4032   4.654   7.557   0.734  0.0702  0.1416  0.1032
 3036W        W 4033   3.434   5.093   1.899  0.0608  0.1827 -0.2580
 3037W        W 4034   2.213   2.162   3.637  0.2166 -0.0829  0.0058
 3038W        W 4035   5.625   4.150   0.697 -0.2988  0.1271 -0.0289
 3039W        W 4036   3.024   7.512   1.966 -0.1631  0.1498 -0.0758
 3040W        W 4037   5.992   6.804   7.406  0.2414  0.3492 -0.0892
 3041W        W 4038   3.746   3.484   7.214  0.1265  0.0989  0.0094
 3042W        W 4039   0.281   5.503   6.058 -0.0913  0.0095  0.0677
 3043W        W 4040   3.954   6.898   6.854 -0.1925 -0.0452 -0.3989
 3044W        W 4041   0.484   1.340   1.817 -0.2039 -0.1667 -0.0133
 3045W        W 4042   1.674   2.375   7.473  0.0770  0.2009 -0.3013
 3046W        W 4043   0.691   1.053   4.061  0.0321  0.0221  0.1409
 3047W        W 4044   0.912   4.610   6.966  0.1428  0.0335  0.2352
 3048W        W 4045   1.557   5.178   5.930 -0.1523  0.1964  0.2461
 3049W        W 4046   1.395   0.561   4.167  0.1055  0.2887 -0.3796
 3050W        W 4047   1.429   7.508   1.833 -0.1788  0.1834 -0.1506
 3051W        W 4048   6.213   4.165   3.849  0.1470  0.0981 -0.2740
 3052W        W 4049   1.742   1.800   0.158  0.0828  0.0168 -0.8325
 3053W        W 4050   4.850   5.840   5.868  0.0871 -0.2102 -0.0200
 3054W        W 4051   7.238   7.422   2.971 -0.0122  0.0011  0.1007
 3055W        W 4052   1.744   2.095   3.746 -0.0742 -0.2986 -0.2409
 3056W        W 4053   0.600   6.489   0.018 -0.0037  0.0015  0.0390
 3057W        W 4054   1.762   7.057   6.411  0.1431  0.2872  0.3774
 3058W        W 4055   2.596   4.469   5.561  0.1084 -0.3030 -0.0969
 3059W        W 4056   2.215   6.139   5.860  0.0976  0.4344 -0.0305
 3060W        W 4057   1.057   2.585   6.667  0.0630  0.0086  0.1942
 3061W        W 4058   4.160   4.414   6.028  0.2606 -0.0258  0.0120
 3062W        W 4059   4.619   5.101   6.952 -0.0253 -0.0077 -0.0328
 3063W        W 4060   2.145   0.931   7.284 -0.2517  0.4038 -0.2244
 3064W        W 4061   5.625   1.041   0.626 -0.0961 -0.1430 -0.0564
 3065W        W 4062   1.442   1.318   0.131 -0.0896 -0.1333  0.1953
 3066W        W 4063   7.434   4.048   5.570  0.4457 -0.0184 -0.0376
 3067W        W 4064   6.952   3.955   5.433  0.1171 -0.1144  0.1397
 3068W        W 4065   0.957   3.106   3.632 -0.3907 -0.2481 -0.0759
 3069W        W 4066   6.950   5.597   2.678  0.2095 -0.0569  0.0693
 3070W        W 4067   2.796   0.451   7.361  0.1279 -0.0767  0.1690
 3071W        W 4068   6.869   1.365   2.032  0.0087 -0.2375 -0.1479
 3072W        W 4069   1.794   7.567   6.281  0.0786  0.1130  0.0477
 3073W        W 4070   4.867   0.830   1.691 -0.0599  0.2651 -0.1470
 3074W        W 4071   5.381   7.180   2.843  0.0284 -0.2897 -0.3108
 3075W        W 4072   5.277   5.163   7.073  0.2006  0.1144 -0.1448
 3076W        W 4073   1.659   4.389   7.462  0.1066 -0.1864 -0.0388
 3077W        W 4074   0.849   1.507   2.130  0.2606 -0.1837  0.0379
 3078W        W 4075   1.384   2.107   0.299 -0.0107  0.1138  0.0872
 3079W        W 4076   4.531   2.309   0.478 -0.3745 -0.0482 -0.0171
 3080W        W 4077   6.791   6.951   5.667 -0.2225 -0.1848  0.0148
 3081W        W 4078   5.187   0.259   1.533  0.1073  0.0529  0.4479
 3082W        W 4079   6.806   4.833   7.261  0.4185  0.2695  0.3877
 3083W        W 4080   2.748   1.955   6.818  0.1553 -0.1583 -0.2570
 3084W        W 4081   6.031   7.078   3.672  0.1787 -0.1653 -0.0862
 3085W        W 4082   4.544   6.546   1.886 -0.1184  0.3084  0.0976
 3086W        W 4083   1.016   3.664   3.230 -0.2548  0.2301  0.0500
 3087W        W 4084   3.652   2.973   1.453  0.1481 -0.0637  0.2122
 3088W        W 4085   4.919   4.065   4.670  0.0757  0.0428 -0.2220
 3089W        W 4086   3.822   4.123   0.520  0.0590 -0.0688  0.0601
 3090W        W 4087   5.217   2.903   0.781 -0.1097  0.3602 -0.0689
 3091W        W 4088   2.241   3.186   7.438  0.1622 -0.1908 -0.0685
 3092W        W 4089   2.466   4.035   5.762 -0.1929 -0.0319  0.0389
 3093W        W 4090   0.243   7.014   0.778  0.1050  0.0185 -0.1710
 3094W        W 4091   6.711   0.309   3.520 -0.0622 -0.0775 -0.3666
 3095W        W 4092   6.020   4.822   3.510 -0.0468 -0.1007  0.0876
 3096W        W 4093   7.261   7.123   5.455  0.1221 -0.2437  0.0920
 3097W        W 4094   1.554   1.180   4.313 -0.0365 -0.3409  0.1528
 3098W        W 4095   3.991   0.722   5.122  0.0352  0.0246 -0.0840
 3099W        W 4096   6.699   6.583   6.609 -0.2801  0.0393  0.1423
 3100W        W 4097   0.280   6.419   4.900 -0.0694 -0.0073 -0.1989
 3101W        W 4098   1.506   4.638   5.136 -0.0629 -0.1275  0.3579
 3102W        W 4099   5.044   6.609   0.032  0.0777 -0.1031  0.1118
 3103W        W 4100   1.403   2.680   4.551 -0.0091  0.2443  0.2111
 3104W        W 4101   1.958   6.467   7.569 -0.1118  0.0416  0.1433
 3105W        W 4102   4.015   5.637   6.030  0.1069  0.1043  0.0878
 3106W        W 4103   0.757   6.291   2.746 -0.2148 -0.1083  0.0386
 3107W        W 4104   0.417   6.427   5.464 -0.1358  0.0405 -0.2488
 3108W        W 4105   4.445   5.862   6.707 -0.0402  0.1650 -0.1749
 3109W        W 4106   2.584   5.415   1.990  0.0876 -0.1716  0.2305
 3110W        W 4107   2.050   5.217   0.176 -0.0911 -0.0121 -0.1265
 3111W        W 4108   4.646   2.376   0.007  0.1376  0.3036 -0.2953
 3112W        W 4109   5.482   5.241   3.728 -0.0956  0.1458  0.0072
 3113W        W 4110   3.886   0.676   1.639 -0.0780 -0.3119  0.0983
 3114W        W 4111   0.807   3.899   2.806 -0.0963 -0.3158  0.0458
 3115W        W 4112   2.835   5.772   1.710 -0.2079 -0.0660 -0.1193
 3116W        W 4113   7.163   7.406   0.181 -0.1345 -0.0692 -0.0046
 3117W        W 4114   6.538   0.617   2.039 -0.1542 -0.2276 -0.3436
 3118W        W 4115   5.922   5.484   6.308 -0.0059 -0.0553 -0.1266
 3119W        W 4116   0.402   3.032   4.264  0.1552 -0.1109 -0.4404
 3120W        W 4117   4.883   4.277   3.619  0.2439  0.2431  0.0939
 3121W        W 4118   3.448   0.979   5.448 -0.0985 -0.1695  0.0352
 3122W        W 4119   6.661   1.856   1.847 -0.1001  0.0201 -0.2272
 3123W        W 4120   5.766   3.332   3.218 -0.1027 -0.1206  0.2428
 3124W        W 4121   4.944   3.755   3.541  0.1831  0.0859 -0.0839
 3125W        W 4122   2.318   2.698   1.799 -0.1411  0.0603 -0.0626
 3126W        W 4123   0.234   2.775   3.829 -0.1583 -0.3328 -0.1879
 3127W        W 4124   1.683   1.436   3.908 -0.3534 -0.0922  0.0370
 3128W        W 4125   0.530   4.020   1.500 -0.1045 -0.2485 -0.0152
 3129W        W 4126   6.994   3.130   1.249 -0.4279  0.2505 -0.1089
 3130W        W 4127   0.572   6.017   7.590 -0.0111 -0.5257  0.1383
 3131W        W 4128   0.286   7.501   6.455 -0.0640 -0.0691 -0.3679
 3132W        W 4129   1.309   5.819   5.261  0.0866 -0.0141 -0.0159
 3133W        W 4130   3.371   6.365   2.730 -0.2436  0.2070  0.1705
 3134W        W 4131   1.087   1.462   0.958  0.0400 -0.1914  0.2364
 3135W        W 4132   3.599   3.282   6.153 -0.0638  0.2944 -0.0660
 3136W        W 4133   5.487   6.040   1.580  0.3756  0.1731 -0.1143
 3137W        W 4134   0.752   6.141   3.241 -0.0095  0.3112  0.1451
 3138W        W 4135   3.029   6.873   6.342 -0.0438 -0.1099 -0.0999
 3139W        W 4136   2.821   0.951   7.243  0.1275  0.0180  0.1456
 3140W        W 4137   0.278   2.355   3.483 -0.3621  0.1171  0.0516
 3141W        W 4138   3.145   2.387   5.492  0.1018 -0.1513  0.0637
 3142W        W 4139   5.748   7.323   1.265 -0.2343  0.0015 -0.1423
 3143W        W 4140   1.588   5.654   6.189 -0.3243 -0.0522  0.3147
 3144W        W 4141   1.000   5.388   5.249  0.1214  0.0239  0.1772
 3145W        W 4142   6.614   4.544   6.870  0.2172  0.0943  0.0982
 3146W        W 4143   0.406   3.050   2.547 -0.0548 -0.1284  0.0289
 3147W        W 4144   3.831   6.181   7.376 -0.1579 -0.1650 -0.2383
 3148W        W 4145   5.484   4.275   1.970  0.0028 -0.1230  0.2285
 3149W        W 4146   6.406   3.764   4.597  0.4521  0.0473 -0.0045
 3150W        W 4147   2.801   0.176   5.592 -0.1022 -0.1418  0.0346
 3151W        W 4148   4.150   4.187   2.946 -0.3492 -0.1181  0.2749
 3152W        W 4149   3.666   0.533   1.233  0.3195 -0.2440 -0.0838
 3153W        W 4150   6.146   7.390   2.061  0.2813  0.0349 -0.0390
 3154W        W 4151   4.485   5.523   7.090  0.2279  0.3066 -0.0862
 3155W        W 4152   1.143   5.048   4.828  0.1829 -0.0034 -0.4232
 3156W        W 4153   1.006   3.959   1.531  0.0888 -0.0518 -0.0680
 3157W        W 4154   0.480   6.067   4.067 -0.1517 -0.0225  0.4555
 3158W        W 4155   6.021   3.002   6.371  0.1355  0.1237 -0.0116
 3159W        W 4156   0.669   2.101   4.679  0.2815 -0.3196 -0.0314
 3160W        W 4157   1.888   4.490   4.810 -0.0554 -0.2047  0.1053
 3161W        W 4158   4.628   5.395   1.421 -0.2128  0.1350 -0.1050
 3162W        W 4159   5.806   5.216   7.036  0.1216  0.0611 -0.2839
 3163W        W 4160   3.583   1.539   6.665  0.0741  0.1837  0.0037
 3164W        W 4161   1.614   6.110   5.699  0.0957 -0.0230  0.1366
 3165W        W 4162   0.937   0.728   4.987 -0.1803  0.0970  0.1121
 3166W        W 4163   0.083   1.680   4.031  0.2905  0.0302  0.0328
 3167W        W 4164   2.586   7.467   2.603  0.1679 -0.2799  0.0826
 3168W        W 4165   6.261   5.785   3.409  0.4455  0.1920 -0.1367
 3169W        W 4166   6.062   4.982   6.456  0.0742  0.0430 -0.2805
 3170W        W 4167   0.747   1.919   7.351 -0.1338  0.2865 -0.0131
 3171W        W 4168   5.496   5.582   6.885  0.4081 -0.2440 -0.1021
 3172W        W 4169   2.861   4.924   6.352 -0.0845  0.2588 -0.0201
 3173W        W 4170   5.960   3.867   6.520 -0.3008  0.0065 -0.0266
 3174W        W 4171   4.003   2.806   7.184 -0.1082 -0.2120 -0.0911
 3175W        W 4172   4.409   5.879   1.280 -0.2302 -0.0267 -0.1233
 3176W        W 4173   6.901   0.403   2.304  0.0916  0.1178  0.2662
 3177W        W 4174   0.973   7.508   6.613 -0.0784 -0.0794  0.0235
 3178W        W 4175   0.461   0.712   6.357 -0.3725 -0.2551 -0.3859
 3179W        W 4176   7.639   6.133   2.387 -0.0034 -0.0442 -0.2204
 3180W        W 4177   6.447   2.603   5.085  0.2214 -0.0790 -0.1171
 3181W        W 4178   1.852   5.544   2.963 -0.0475 -0.2215 -0.0804
 3182W        W 4179   3.754   3.110   7.577 -0.1765 -0.0686 -0.3769
 3183W        W 4180   1.658   1.416   3.110  0.3065 -0.2803  0.1290
 3184W        W 4181   2.204   0.109   2.383 -0.2168  0.0224  0.0371
 3185W        W 4182   4.776   4.928   1.994 -0.1326 -0.1978  0.1946
 3186W        W 4183   3.297   1.905   5.608  0.2679  0.2805 -0.0858
 3187W        W 4184   7.536   4.388   4.203 -0.1698 -0.0758  0.0053
 3188W        W 4185   1.964   1.490   4.330 -0.1653  0.2494  0.0188
 3189W        W 4186   1.406   4.077   3.171  0.1758 -0.0138  0.2588
 3190W        W 4187   2.389   4.035   2.600 -0.0888 -0.0597 -0.0350
 3191W        W 4188   2.108   5.389   6.996  0.2320  0.0679  0.2948
 3192W        W 4189   3.750   1.887   0.129 -0.1375 -0.0638 -0.0222
 3193W        W 4190   4.701   5.007   6.357 -0.0327 -0.0608  0.0492
 3194W        W 4191   5.205   3.880   7.217  0.1207 -0.3081  0.1223
 3195W        W 4192   7.330   0.824   1.743 -0.0250  0.0821 -0.2805
 3196W        W 4193   4.554   3.002   6.074  0.2057  0.4028  0.1278
 3197W        W 4194   7.153   2.943   2.588 -0.2358  0.3100 -0.0606
 3198W        W 4195   0.050   4.422   6.911  0.1907 -0.0035  0.0353
 3199W        W 4196   1.145   1.187   2.377 -0.0014 -0.1365  0.2727
 3200W        W 4197   0.156   4.685   3.007 -0.1632 -0.0790 -0.0908
 3201W        W 4198   6.154   3.137   5.457 -0.0167  0.0965 -0.0184
 3202W        W 4199   1.420   1.643   4.239  0.1530  0.0083  0.0401
 3203W        W 4200   7.597   4.876   4.335 -0.3458 -0.0127  0.0001
 3204W        W 4201   4.535   1.152   1.889  0.0577  0.0826 -0.0495
 3205W        W 4202   2.495   6.427   0.593  0.0769  0.4772  0.1230
 3206W        W 4203   4.646   3.498   6.956 -0.1115 -0.0429 -0.2164
 3207W        W 4204   6.643   3.736   3.122 -0.1865  0.0757 -0.2882
 3208W        W 4205   3.615   4.412   7.326  0.2697  0.1188  0.0965
 3209W        W 4206   6.666   4.321   3.189  0.1733 -0.0580 -0.1131
 3210W        W 4207   7.655   0.992   3.514  0.2407  0.2586  0.0595
 3211W        W 4208   2.564   6.205   1.549 -0.1703 -0.0505  0.0899
 3212W        W 4209   7.296   1.987   0.686 -0.1579 -0.0239 -0.0984
 3213W        W 4210   0.926   0.463   6.424  0.3875 -0.1059  0.3944
 3214W        W 4211   0.746   0.396   2.062 -0.2746  0.0869 -0.4061
 3215W        W 4212   0.404   4.288   1.938  0.1530 -0.1278 -0.0653
 3216W        W 4213   4.989   5.215   5.437 -0.0639  0.1966  0.1267
 3217W        W 4214   0.700   1.933   6.813  0.0277 -0.3318  0.1329
 3218W        W 4215   4.324   1.355   4.247  0.0117 -0.1570  0.0753
 3219W        W 4216   4.516   5.559   2.761  0.0757 -0.1427  0.2790
 3220W        W 4217   4.542   6.390   4.154  0.2860 -0.0858 -0.2790
 3221W        W 4218   6.065   1.452   1.914  0.2718 -0.2931 -0.0125
 3222W        W 4219   6.935   6.936   3.793  0.0921 -0.2143 -0.0801
 3223W        W 4220   4.327   4.552   1.219 -0.2949 -0.0922  0.2840
 3224W        W 4221   0.603   1.663   4.023 -0.0997 -0.0121  0.2753
 3225W        W 4222   2.085   1.336   1.192 -0.0834  0.3640  0.1220
   7.66745   7.66745   7.66745
