Martini system from ../2_Creating_coordinates/TYR-PRO-TYR_aa.pdb
 4272
    1TYR     BB    1   4.765   7.823   0.982
    1TYR    SC1    2   4.958   0.020   0.846
    1TYR    SC2    3   5.177   0.057   0.693
    1TYR    SC3    4   4.953   0.200   0.645
    2PRO     BB    5   4.922   7.536   0.776
    2PRO    SC1    6   4.842   7.632   0.503
    3TYR     BB    7   5.274   7.580   0.808
    3TYR    SC1    8   5.340   7.658   0.511
    3TYR    SC2    9   5.316   7.571   0.257
    3TYR    SC3   10   5.297   7.835   0.312
    1TYR     BB   11   4.164   2.431   2.077
    1TYR    SC1   12   4.095   2.580   2.326
    1TYR    SC2   13   4.176   2.580   2.583
    1TYR    SC3   14   4.173   2.810   2.442
    2PRO     BB   15   4.523   2.390   2.133
    2PRO    SC1   16   4.614   2.615   2.306
    3TYR     BB   17   4.619   2.122   2.319
    3TYR    SC1   18   4.623   2.229   2.607
    3TYR    SC2   19   4.462   2.301   2.812
    3TYR    SC3   20   4.723   2.369   2.815
    1TYR     BB   21   5.060   6.939   7.220
    1TYR    SC1   22   5.013   6.885   7.524
    1TYR    SC2   23   5.127   6.768   7.740
    1TYR    SC3   24   4.882   6.880   7.760
    2PRO     BB   25   5.346   7.103   7.249
    2PRO    SC1   26   5.280   7.362   7.113
    3TYR     BB   27   5.542   6.966   7.469
    3TYR    SC1   28   5.489   7.069   7.760
    3TYR    SC2   29   5.371   7.060   0.002
    3TYR    SC3   30   5.542   7.260   7.943
    1TYR     BB   31   4.278   1.541   6.105
    1TYR    SC1   32   4.407   1.741   5.922
    1TYR    SC2   33   4.648   1.858   5.887
    1TYR    SC3   34   4.444   1.915   5.719
    2PRO     BB   35   4.021   1.429   5.938
    2PRO    SC1   36   3.834   1.658   5.935
    3TYR     BB   37   4.129   1.231   5.707
    3TYR    SC1   38   4.395   1.369   5.605
    3TYR    SC2   39   4.643   1.470   5.637
    3TYR    SC3   40   4.590   1.307   5.428
    1TYR     BB   41   1.807   7.380   5.747
    1TYR    SC1   42   2.103   7.317   5.792
    1TYR    SC2   43   2.223   7.111   5.918
    1TYR    SC3   44   2.369   7.324   5.840
    2PRO     BB   45   1.686   7.306   6.076
    2PRO    SC1   46   1.390   7.348   6.030
    3TYR     BB   47   1.880   7.113   6.297
    3TYR    SC1   48   1.904   6.848   6.133
    3TYR    SC2   49   1.807   6.601   6.083
    3TYR    SC3   50   1.972   6.719   5.905
    1TYR     BB   51   4.604   6.351   2.985
    1TYR    SC1   52   4.503   6.640   3.048
    1TYR    SC2   53   4.520   6.881   3.170
    1TYR    SC3   54   4.280   6.785   3.091
    2PRO     BB   55   4.335   6.144   2.977
    2PRO    SC1   56   4.121   6.325   2.865
    3TYR     BB   57   4.283   5.860   2.765
    3TYR    SC1   58   4.427   5.981   2.515
    3TYR    SC2   59   4.515   6.233   2.477
    3TYR    SC3   60   4.475   6.070   2.265
    1TYR     BB   61   6.236   5.798   7.795
    1TYR    SC1   62   6.100   5.865   7.524
    1TYR    SC2   63   6.029   5.804   7.270
    1TYR    SC3   64   6.052   6.062   7.346
    2PRO     BB   65   5.998   5.920   0.017
    2PRO    SC1   66   5.952   6.200   7.902
    3TYR     BB   67   5.686   5.767   7.997
    3TYR    SC1   68   5.579   5.888   7.738
    3TYR    SC2   69   5.535   6.120   7.607
    3TYR    SC3   70   5.622   5.904   7.472
    1TYR     BB   71   1.996   6.915   3.307
    1TYR    SC1   72   1.853   6.768   3.549
    1TYR    SC2   73   1.868   6.760   3.818
    1TYR    SC3   74   1.852   6.531   3.677
    2PRO     BB   75   2.325   6.769   3.437
    2PRO    SC1   76   2.418   7.035   3.549
    3TYR     BB   77   2.357   6.557   3.708
    3TYR    SC1   78   2.366   6.750   3.959
    3TYR    SC2   79   2.476   6.781   4.203
    3TYR    SC3   80   2.404   6.998   4.059
    1TYR     BB   81   2.597   6.564   0.446
    1TYR    SC1   82   2.655   6.600   0.758
    1TYR    SC2   83   2.583   6.737   0.979
    1TYR    SC3   84   2.653   6.477   0.998
    2PRO     BB   85   2.277   6.706   0.478
    2PRO    SC1   86   2.165   6.541   0.706
    3TYR     BB   87   2.332   7.015   0.622
    3TYR    SC1   88   2.294   7.083   0.923
    3TYR    SC2   89   2.254   7.303   1.075
    3TYR    SC3   90   2.353   7.077   1.186
    1TYR     BB   91   7.524   6.859   3.483
    1TYR    SC1   92   7.769   6.682   3.423
    1TYR    SC2   93   0.034   6.632   3.417
    1TYR    SC3   94   7.858   6.427   3.428
    2PRO     BB   95   7.433   6.722   3.786
    2PRO    SC1   96   7.451   6.425   3.739
    3TYR     BB   97   7.479   6.958   4.002
    3TYR    SC1   98   7.723   6.953   4.203
    3TYR    SC2   99   7.833   7.060   4.425
    3TYR    SC3  100   7.964   6.867   4.289
    1TYR     BB  101   1.295   6.382   7.468
    1TYR    SC1  102   1.230   6.349   7.171
    1TYR    SC2  103   1.159   6.451   6.931
    1TYR    SC3  104   1.114   6.190   6.985
    2PRO     BB  105   1.520   6.140   7.505
    2PRO    SC1  106   1.394   5.892   7.386
    3TYR     BB  107   1.772   6.204   7.313
    3TYR    SC1  108   1.667   6.150   7.036
    3TYR    SC2  109   1.543   6.230   6.810
    3TYR    SC3  110   1.517   5.975   6.896
    1TYR     BB  111   2.232   5.172   3.155
    1TYR    SC1  112   2.047   5.020   3.358
    1TYR    SC2  113   1.904   4.791   3.371
    1TYR    SC3  114   1.981   4.915   3.598
    2PRO     BB  115   2.493   4.953   3.133
    2PRO    SC1  116   2.758   5.093   3.160
    3TYR     BB  117   2.380   4.673   3.234
    3TYR    SC1  118   2.383   4.693   3.546
    3TYR    SC2  119   2.324   4.666   3.808
    3TYR    SC3  120   2.555   4.784   3.734
    1TYR     BB  121   0.931   2.339   6.893
    1TYR    SC1  122   0.970   2.028   6.947
    1TYR    SC2  123   1.120   1.811   6.893
    1TYR    SC3  124   0.868   1.781   6.983
    2PRO     BB  125   1.170   2.452   7.132
    2PRO    SC1  126   1.015   2.390   7.383
    3TYR     BB  127   1.459   2.297   7.163
    3TYR    SC1  128   1.371   2.013   7.262
    3TYR    SC2  129   1.405   1.821   7.448
    3TYR    SC3  130   1.158   1.873   7.351
    1TYR     BB  131   4.604   5.107   3.266
    1TYR    SC1  132   4.858   5.253   3.369
    1TYR    SC2  133   5.039   5.429   3.463
    1TYR    SC3  134   5.054   5.169   3.534
    2PRO     BB  135   4.551   4.954   3.586
    2PRO    SC1  136   4.772   4.754   3.577
    3TYR     BB  137   4.544   5.142   3.843
    3TYR    SC1  138   4.828   5.227   3.919
    3TYR    SC2  139   5.004   5.431   3.931
    3TYR    SC3  140   5.080   5.182   4.004
    1TYR     BB  141   6.623   0.881   4.870
    1TYR    SC1  142   6.650   1.187   4.843
    1TYR    SC2  143   6.653   1.392   4.669
    1TYR    SC3  144   6.690   1.438   4.932
    2PRO     BB  145   6.620   0.836   5.196
    2PRO    SC1  146   6.831   1.018   5.307
    3TYR     BB  147   6.321   0.880   5.315
    3TYR    SC1  148   6.208   1.099   5.126
    3TYR    SC2  149   6.230   1.306   4.954
    3TYR    SC3  150   6.041   1.311   5.148
    1TYR     BB  151   5.883   2.224   4.596
    1TYR    SC1  152   6.074   2.166   4.828
    1TYR    SC2  153   6.047   2.180   5.096
    1TYR    SC3  154   6.289   2.219   4.982
    2PRO     BB  155   5.606   2.316   4.806
    2PRO    SC1  156   5.573   2.052   4.953
    3TYR     BB  157   5.580   2.540   5.050
    3TYR    SC1  158   5.716   2.422   5.293
    3TYR    SC2  159   5.800   2.405   5.549
    3TYR    SC3  160   5.694   2.189   5.426
    1TYR     BB  161   5.470   7.281   2.060
    1TYR    SC1  162   5.621   7.088   2.255
    1TYR    SC2  163   5.859   7.037   2.373
    1TYR    SC3  164   5.630   6.939   2.480
    2PRO     BB  165   5.722   7.518   2.029
    2PRO    SC1  166   5.669   7.724   1.823
    3TYR     BB  167   6.036   7.426   1.991
    3TYR    SC1  168   6.151   7.361   2.253
    3TYR    SC2  169   6.289   7.223   2.440
    3TYR    SC3  170   6.226   7.482   2.483
    1TYR     BB  171   7.603   2.969   3.468
    1TYR    SC1  172   7.797   3.212   3.408
    1TYR    SC2  173   0.057   3.253   3.349
    1TYR    SC3  174   7.865   3.368   3.198
    2PRO     BB  175   7.833   2.725   3.347
    2PRO    SC1  176   7.856   2.817   3.058
    3TYR     BB  177   0.128   2.796   3.484
    3TYR    SC1  178   0.393   2.662   3.478
    3TYR    SC2  179   0.489   2.433   3.584
    3TYR    SC3  180   0.659   2.616   3.483
    1TYR     BB  181   0.511   1.282   0.584
    1TYR    SC1  182   0.569   1.273   0.282
    1TYR    SC2  183   0.614   1.385   0.040
    1TYR    SC3  184   0.548   1.124   0.057
    2PRO     BB  185   0.369   1.550   0.716
    2PRO    SC1  186   0.380   1.558   1.018
    3TYR     BB  187   0.054   1.598   0.612
    3TYR    SC1  188   0.046   1.441   0.343
    3TYR    SC2  189   7.904   1.314   0.152
    3TYR    SC3  190   0.157   1.392   0.101
    1TYR     BB  191   2.244   0.486   4.350
    1TYR    SC1  192   2.042   0.666   4.189
    1TYR    SC2  193   1.986   0.815   3.971
    1TYR    SC3  194   1.799   0.780   4.163
    2PRO     BB  195   2.125   0.185   4.247
    2PRO    SC1  196   1.829   0.214   4.316
    3TYR     BB  197   2.126   0.153   3.902
    3TYR    SC1  198   1.915   0.378   3.823
    3TYR    SC2  199   1.773   0.538   3.658
    3TYR    SC3  200   1.662   0.448   3.887
    1TYR     BB  201   5.483   7.190   4.872
    1TYR    SC1  202   5.601   7.023   4.637
    1TYR    SC2  203   5.641   6.807   4.480
    1TYR    SC3  204   5.531   7.030   4.376
    2PRO     BB  205   5.170   7.081   4.866
    2PRO    SC1  206   4.983   7.297   4.960
    3TYR     BB  207   5.147   6.767   4.793
    3TYR    SC1  208   5.186   6.737   4.494
    3TYR    SC2  209   5.292   6.545   4.336
    3TYR    SC3  210   5.174   6.760   4.225
    1TYR     BB  211   4.730   0.221   3.680
    1TYR    SC1  212   4.794   7.971   3.507
    1TYR    SC2  213   4.799   7.705   3.459
    1TYR    SC3  214   5.002   7.862   3.375
    2PRO     BB  215   4.610   0.443   3.458
    2PRO    SC1  216   4.484   0.674   3.595
    3TYR     BB  217   4.587   0.391   3.166
    3TYR    SC1  218   4.714   0.130   3.070
    3TYR    SC2  219   4.712   7.869   3.001
    3TYR    SC3  220   4.932   0.019   2.957
    1TYR     BB  221   6.021   1.392   0.094
    1TYR    SC1  222   6.029   1.507   0.380
    1TYR    SC2  223   6.030   1.438   0.641
    1TYR    SC3  224   5.991   1.695   0.570
    2PRO     BB  225   6.244   1.531   7.859
    2PRO    SC1  226   6.279   1.315   7.650
    3TYR     BB  227   6.539   1.578   7.997
    3TYR    SC1  228   6.487   1.563   0.304
    3TYR    SC2  229   6.490   1.447   0.548
    3TYR    SC3  230   6.439   1.712   0.525
    1TYR     BB  231   4.704   5.965   7.751
    1TYR    SC1  232   4.915   5.854   7.560
    1TYR    SC2  233   5.180   5.839   7.514
    1TYR    SC3  234   5.014   5.660   7.399
    2PRO     BB  235   4.806   6.304   7.772
    2PRO    SC1  236   5.100   6.279   7.837
    3TYR     BB  237   4.729   6.473   7.473
    3TYR    SC1  238   5.020   6.459   7.362
    3TYR    SC2  239   5.198   6.257   7.338
    3TYR    SC3  240   5.285   6.511   7.369
    1TYR     BB  241   4.262   1.855   0.022
    1TYR    SC1  242   4.257   1.960   0.317
    1TYR    SC2  243   4.336   2.045   0.561
    1TYR    SC3  244   4.084   1.957   0.524
    2PRO     BB  245   4.406   2.083   7.809
    2PRO    SC1  246   4.268   2.338   7.890
    3TYR     BB  247   4.743   2.014   7.866
    3TYR    SC1  248   4.729   2.091   0.173
    3TYR    SC2  249   4.582   2.289   0.283
    3TYR    SC3  250   4.791   2.185   0.418
    1TYR     BB  251   7.371   6.831   1.587
    1TYR    SC1  252   7.625   6.917   1.736
    1TYR    SC2  253   7.672   7.112   1.916
    1TYR    SC3  254   7.878   6.991   1.792
    2PRO     BB  255   7.183   7.123   1.590
    2PRO    SC1  256   7.063   7.235   1.836
    3TYR     BB  257   7.116   7.349   1.321
    3TYR    SC1  258   7.137   7.617   1.481
    3TYR    SC2  259   7.297   7.710   1.678
    3TYR    SC3  260   7.092   7.861   1.588
    1TYR     BB  261   0.690   5.836   5.838
    1TYR    SC1  262   0.561   5.688   5.584
    1TYR    SC2  263   0.370   5.679   5.393
    1TYR    SC3  264   0.629   5.643   5.326
    2PRO     BB  265   1.000   5.858   5.730
    2PRO    SC1  266   1.075   5.613   5.585
    3TYR     BB  267   1.199   6.136   5.647
    3TYR    SC1  268   1.209   6.078   5.347
    3TYR    SC2  269   1.296   5.909   5.155
    3TYR    SC3  270   1.031   5.944   5.195
    1TYR     BB  271   4.279   0.003   5.114
    1TYR    SC1  272   4.494   7.775   5.129
    1TYR    SC2  273   4.596   7.552   5.243
    1TYR    SC3  274   4.760   7.730   5.122
    2PRO     BB  275   4.042   7.824   4.946
    2PRO    SC1  276   4.137   7.847   4.665
    3TYR     BB  277   4.000   7.531   5.086
    3TYR    SC1  278   4.228   7.322   5.074
    3TYR    SC2  279   4.252   7.078   5.188
    3TYR    SC3  280   4.457   7.182   5.046
    1TYR     BB  281   7.436   4.681   5.687
    1TYR    SC1  282   7.564   4.963   5.637
    1TYR    SC2  283   7.787   5.114   5.647
    1TYR    SC3  284   7.544   5.232   5.638
    2PRO     BB  285   7.617   4.468   5.521
    2PRO    SC1  286   7.681   4.202   5.639
    3TYR     BB  287   7.773   4.537   5.245
    3TYR    SC1  288   7.762   4.847   5.233
    3TYR    SC2  289   7.835   5.104   5.193
    3TYR    SC3  290   7.575   5.033   5.177
    1TYR     BB  291   0.952   1.337   5.354
    1TYR    SC1  292   0.924   1.069   5.200
    1TYR    SC2  293   1.043   0.854   5.087
    1TYR    SC3  294   0.806   0.827   5.212
    2PRO     BB  295   1.014   1.161   5.676
    2PRO    SC1  296   0.758   1.003   5.682
    3TYR     BB  297   1.255   0.935   5.577
    3TYR    SC1  298   1.109   0.675   5.527
    3TYR    SC2  299   1.049   0.462   5.373
    3TYR    SC3  300   0.902   0.515   5.594
    1TYR     BB  301   4.874   3.884   6.115
    1TYR    SC1  302   4.907   3.607   5.987
    1TYR    SC2  303   4.855   3.343   6.005
    1TYR    SC3  304   4.950   3.446   5.774
    2PRO     BB  305   4.620   4.008   5.968
    2PRO    SC1  306   4.667   4.284   5.870
    3TYR     BB  307   4.412   3.838   5.865
    3TYR    SC1  308   4.501   3.586   5.710
    3TYR    SC2  309   4.511   3.317   5.730
    3TYR    SC3  310   4.401   3.432   5.512
    1TYR     BB  311   2.634   3.399   6.234
    1TYR    SC1  312   2.461   3.356   6.488
    1TYR    SC2  313   2.302   3.216   6.655
    1TYR    SC3  314   2.401   3.455   6.732
    2PRO     BB  315   2.927   3.330   6.316
    2PRO    SC1  316   3.100   3.444   6.105
    3TYR     BB  317   2.982   3.085   6.509
    3TYR    SC1  318   2.747   3.062   6.711
    3TYR    SC2  319   2.567   2.905   6.836
    3TYR    SC3  320   2.664   3.124   6.961
    1TYR     BB  321   7.365   1.060   6.153
    1TYR    SC1  322   7.451   1.234   6.397
    1TYR    SC2  323   7.666   1.279   6.555
    1TYR    SC3  324   7.434   1.411   6.601
    2PRO     BB  325   7.474   0.750   6.291
    2PRO    SC1  326   7.761   0.792   6.369
    3TYR     BB  327   7.285   0.750   6.567
    3TYR    SC1  328   7.453   0.917   6.761
    3TYR    SC2  329   7.486   1.107   6.950
    3TYR    SC3  330   7.696   0.956   6.871
    1TYR     BB  331   6.560   2.991   0.671
    1TYR    SC1  332   6.586   2.683   0.738
    1TYR    SC2  333   6.745   2.501   0.857
    1TYR    SC3  334   6.479   2.497   0.901
    2PRO     BB  335   6.413   3.062   1.002
    2PRO    SC1  336   6.165   2.909   0.946
    3TYR     BB  337   6.580   2.912   1.255
    3TYR    SC1  338   6.393   2.663   1.325
    3TYR    SC2  339   6.293   2.412   1.318
    3TYR    SC3  340   6.139   2.616   1.405
    1TYR     BB  341   0.663   5.534   3.198
    1TYR    SC1  342   0.576   5.440   2.914
    1TYR    SC2  343   0.378   5.284   2.818
    1TYR    SC3  344   0.406   5.536   2.728
    2PRO     BB  345   0.289   5.644   3.249
    2PRO    SC1  346   0.322   5.917   3.360
    3TYR     BB  347   7.997   5.480   3.103
    3TYR    SC1  348   7.950   5.484   2.794
    3TYR    SC2  349   0.002   5.433   2.534
    3TYR    SC3  350   7.826   5.626   2.601
    1TYR     BB  351   5.697   2.319   6.975
    1TYR    SC1  352   5.606   2.110   6.780
    1TYR    SC2  353   5.432   1.944   6.658
    1TYR    SC3  354   5.692   1.946   6.584
    2PRO     BB  355   5.459   2.550   7.029
    2PRO    SC1  356   5.517   2.621   7.315
    3TYR     BB  357   5.258   2.555   6.777
    3TYR    SC1  358   5.411   2.438   6.533
    3TYR    SC2  359   5.444   2.265   6.329
    3TYR    SC3  360   5.658   2.389   6.437
    1TYR     BB  361   1.326   6.484   2.835
    1TYR    SC1  362   1.548   6.437   3.046
    1TYR    SC2  363   1.791   6.507   3.141
    1TYR    SC3  364   1.616   6.378   3.301
    2PRO     BB  365   1.038   6.483   3.005
    2PRO    SC1  366   0.817   6.570   2.827
    3TYR     BB  367   1.061   6.479   3.315
    3TYR    SC1  368   0.913   6.237   3.435
    3TYR    SC2  369   0.751   6.128   3.621
    3TYR    SC3  370   0.833   5.980   3.411
    1TYR     BB  371   6.015   6.095   4.551
    1TYR    SC1  372   6.275   5.940   4.557
    1TYR    SC2  373   6.375   5.715   4.669
    1TYR    SC3  374   6.542   5.902   4.569
    2PRO     BB  375   5.885   6.010   4.254
    2PRO    SC1  376   5.641   6.174   4.233
    3TYR     BB  377   6.112   5.974   4.032
    3TYR    SC1  378   6.371   6.100   4.110
    3TYR    SC2  379   6.634   6.058   4.156
    3TYR    SC3  380   6.553   6.283   4.030
    1TYR     BB  381   6.027   3.948   3.177
    1TYR    SC1  382   5.759   3.802   3.267
    1TYR    SC2  383   5.690   3.561   3.367
    1TYR    SC3  384   5.581   3.786   3.469
    2PRO     BB  385   6.200   3.876   3.450
    2PRO    SC1  386   6.015   3.967   3.673
    3TYR     BB  387   6.196   3.549   3.487
    3TYR    SC1  388   5.993   3.461   3.701
    3TYR    SC2  389   5.916   3.344   3.932
    3TYR    SC3  390   5.761   3.534   3.820
    1TYR     BB  391   5.353   1.458   4.133
    1TYR    SC1  392   5.263   1.757   4.135
    1TYR    SC2  393   5.322   1.986   4.005
    1TYR    SC3  394   5.072   1.944   4.097
    2PRO     BB  395   5.445   1.456   3.796
    2PRO    SC1  396   5.222   1.596   3.657
    3TYR     BB  397   5.708   1.662   3.792
    3TYR    SC1  398   5.621   1.921   3.671
    3TYR    SC2  399   5.615   2.188   3.716
    3TYR    SC3  400   5.433   2.074   3.552
    1TYR     BB  401   2.753   0.979   4.903
    1TYR    SC1  402   2.546   1.136   5.070
    1TYR    SC2  403   2.327   1.053   5.203
    1TYR    SC3  404   2.345   1.309   5.120
    2PRO     BB  405   2.741   0.689   5.072
    2PRO    SC1  406   2.843   0.752   5.346
    3TYR     BB  407   2.501   0.480   5.050
    3TYR    SC1  408   2.447   0.406   5.355
    3TYR    SC2  409   2.295   0.344   5.569
    3TYR    SC3  410   2.558   0.398   5.601
    1TYR     BB  411   0.786   3.374   1.528
    1TYR    SC1  412   0.949   3.375   1.278
    1TYR    SC2  413   1.159   3.266   1.148
    1TYR    SC3  414   0.916   3.270   1.032
    2PRO     BB  415   0.641   3.044   1.446
    2PRO    SC1  416   0.440   3.131   1.250
    3TYR     BB  417   0.844   2.794   1.376
    3TYR    SC1  418   1.053   2.832   1.155
    3TYR    SC2  419   1.314   2.845   1.090
    3TYR    SC3  420   1.127   2.876   0.899
    1TYR     BB  421   2.820   2.537   5.369
    1TYR    SC1  422   2.654   2.635   5.122
    1TYR    SC2  423   2.605   2.745   4.881
    1TYR    SC3  424   2.400   2.680   5.044
    2PRO     BB  425   3.125   2.481   5.272
    2PRO    SC1  426   3.203   2.215   5.378
    3TYR     BB  427   3.184   2.620   5.025
    3TYR    SC1  428   3.019   2.536   4.775
    3TYR    SC2  429   2.810   2.400   4.672
    3TYR    SC3  430   3.042   2.416   4.534
    1TYR     BB  431   3.635   3.584   5.598
    1TYR    SC1  432   3.338   3.679   5.596
    1TYR    SC2  433   3.075   3.642   5.644
    1TYR    SC3  434   3.159   3.866   5.518
    2PRO     BB  435   3.738   3.456   5.880
    2PRO    SC1  436   4.034   3.489   5.878
    3TYR     BB  437   3.606   3.566   6.150
    3TYR    SC1  438   3.455   3.812   6.078
    3TYR    SC2  439   3.217   3.911   5.999
    3TYR    SC3  440   3.445   4.003   5.888
    1TYR     BB  441   7.740   4.095   1.931
    1TYR    SC1  442   7.941   4.331   1.924
    1TYR    SC2  443   0.124   4.481   1.795
    1TYR    SC3  444   0.102   4.497   2.063
    2PRO     BB  445   7.452   4.231   1.793
    2PRO    SC1  446   7.245   4.246   2.010
    3TYR     BB  447   7.461   4.498   1.622
    3TYR    SC1  448   7.715   4.667   1.659
    3TYR    SC2  449   7.920   4.776   1.522
    3TYR    SC3  450   7.841   4.885   1.756
    1TYR     BB  451   3.412   1.929   3.570
    1TYR    SC1  452   3.548   2.188   3.461
    1TYR    SC2  453   3.662   2.431   3.431
    1TYR    SC3  454   3.710   2.236   3.250
    2PRO     BB  455   3.744   1.787   3.630
    2PRO    SC1  456   3.810   1.738   3.351
    3TYR     BB  457   3.860   1.967   3.884
    3TYR    SC1  458   4.069   2.143   3.751
    3TYR    SC2  459   4.290   2.286   3.694
    3TYR    SC3  460   4.103   2.246   3.504
    1TYR     BB  461   1.924   4.550   5.622
    1TYR    SC1  462   1.733   4.653   5.412
    1TYR    SC2  463   1.464   4.661   5.385
    1TYR    SC3  464   1.622   4.690   5.168
    2PRO     BB  465   2.212   4.663   5.649
    2PRO    SC1  466   2.342   4.598   5.388
    3TYR     BB  467   2.165   5.010   5.705
    3TYR    SC1  468   1.985   5.032   5.441
    3TYR    SC2  469   1.819   5.096   5.238
    3TYR    SC3  470   2.020   4.921   5.197
    1TYR     BB  471   1.199   6.582   4.537
    1TYR    SC1  472   1.318   6.740   4.293
    1TYR    SC2  473   1.466   6.876   4.112
    1TYR    SC3  474   1.198   6.865   4.086
    2PRO     BB  475   0.946   6.439   4.337
    2PRO    SC1  476   0.772   6.681   4.299
    3TYR     BB  477   1.042   6.327   4.022
    3TYR    SC1  478   0.898   6.518   3.828
    3TYR    SC2  479   0.701   6.591   3.659
    3TYR    SC3  480   0.870   6.777   3.757
    1TYR     BB  481   6.120   7.605   0.497
    1TYR    SC1  482   6.025   7.621   0.795
    1TYR    SC2  483   5.972   7.634   1.059
    1TYR    SC3  484   5.771   7.597   0.882
    2PRO     BB  485   5.821   7.769   0.364
    2PRO    SC1  486   5.810   7.652   0.095
    3TYR     BB  487   5.707   0.030   0.546
    3TYR    SC1  488   5.959   0.080   0.723
    3TYR    SC2  489   6.223   0.048   0.771
    3TYR    SC3  490   6.052   0.087   0.976
    1TYR     BB  491   6.930   4.484   3.777
    1TYR    SC1  492   7.233   4.496   3.839
    1TYR    SC2  493   7.498   4.524   3.796
    1TYR    SC3  494   7.405   4.309   3.931
    2PRO     BB  495   6.845   4.272   4.027
    2PRO    SC1  496   6.968   4.033   3.916
    3TYR     BB  497   6.918   4.382   4.309
    3TYR    SC1  498   7.217   4.453   4.312
    3TYR    SC2  499   7.427   4.619   4.274
    3TYR    SC3  500   7.466   4.375   4.383
    1TYR     BB  501   6.120   6.695   4.739
    1TYR    SC1  502   5.850   6.541   4.781
    1TYR    SC2  503   5.639   6.402   4.687
    1TYR    SC3  504   5.604   6.585   4.882
    2PRO     BB  505   6.134   6.768   4.414
    2PRO    SC1  506   6.067   6.502   4.295
    3TYR     BB  507   6.015   7.018   4.184
    3TYR    SC1  508   5.788   6.862   4.054
    3TYR    SC2  509   5.539   6.853   3.949
    3TYR    SC3  510   5.646   6.633   4.064
    1TYR     BB  511   1.655   0.698   7.282
    1TYR    SC1  512   1.458   0.503   7.138
    1TYR    SC2  513   1.403   0.426   6.885
    1TYR    SC3  514   1.386   0.248   7.087
    2PRO     BB  515   1.745   0.865   6.971
    2PRO    SC1  516   1.868   0.632   6.822
    3TYR     BB  517   1.461   0.971   6.823
    3TYR    SC1  518   1.450   0.770   6.581
    3TYR    SC2  519   1.323   0.589   6.426
    3TYR    SC3  520   1.584   0.645   6.382
    1TYR     BB  521   0.401   3.119   4.285
    1TYR    SC1  522   0.364   2.865   4.103
    1TYR    SC2  523   0.289   2.658   3.947
    1TYR    SC3  524   0.523   2.783   3.901
    2PRO     BB  525   0.530   3.330   4.056
    2PRO    SC1  526   0.790   3.188   4.005
    3TYR     BB  527   0.290   3.274   3.803
    3TYR    SC1  528   0.461   3.148   3.593
    3TYR    SC2  529   0.532   3.132   3.333
    3TYR    SC3  530   0.706   3.058   3.525
    1TYR     BB  531   4.474   5.472   6.321
    1TYR    SC1  532   4.196   5.602   6.276
    1TYR    SC2  533   3.990   5.770   6.230
    1TYR    SC3  534   3.950   5.543   6.371
    2PRO     BB  535   4.335   5.147   6.355
    2PRO    SC1  536   4.203   5.167   6.621
    3TYR     BB  537   4.075   5.102   6.141
    3TYR    SC1  538   3.811   5.113   6.317
    3TYR    SC2  539   3.593   5.232   6.423
    3TYR    SC3  540   3.702   5.017   6.545
    1TYR     BB  541   1.395   0.745   1.298
    1TYR    SC1  542   1.456   0.843   1.005
    1TYR    SC2  543   1.392   1.043   0.836
    1TYR    SC3  544   1.576   0.859   0.763
    2PRO     BB  545   1.607   0.931   1.478
    2PRO    SC1  546   1.873   0.798   1.431
    3TYR     BB  547   1.573   1.223   1.338
    3TYR    SC1  548   1.746   1.198   1.088
    3TYR    SC2  549   1.832   1.261   0.840
    3TYR    SC3  550   1.947   1.057   0.975
    1TYR     BB  551   3.253   3.023   0.589
    1TYR    SC1  552   3.151   2.740   0.672
    1TYR    SC2  553   2.917   2.605   0.669
    1TYR    SC3  554   3.147   2.479   0.605
    2PRO     BB  555   2.964   3.079   0.368
    2PRO    SC1  556   3.080   2.950   0.123
    3TYR     BB  557   2.640   3.019   0.379
    3TYR    SC1  558   2.632   2.725   0.282
    3TYR    SC2  559   2.801   2.521   0.230
    3TYR    SC3  560   2.538   2.496   0.174
    1TYR     BB  561   1.406   4.502   7.722
    1TYR    SC1  562   1.482   4.348   7.472
    1TYR    SC2  563   1.683   4.330   7.294
    1TYR    SC3  564   1.441   4.225   7.235
    2PRO     BB  565   1.570   4.309   7.955
    2PRO    SC1  566   1.447   4.033   7.919
    3TYR     BB  567   1.884   4.282   7.862
    3TYR    SC1  568   1.868   4.076   7.622
    3TYR    SC2  569   1.975   3.875   7.477
    3TYR    SC3  570   1.707   3.902   7.493
    1TYR     BB  571   0.154   1.245   1.373
    1TYR    SC1  572   7.906   1.339   1.537
    1TYR    SC2  573   7.636   1.337   1.537
    1TYR    SC3  574   7.769   1.524   1.678
    2PRO     BB  575   0.385   1.201   1.600
    2PRO    SC1  576   0.360   1.449   1.763
    3TYR     BB  577   0.352   0.954   1.829
    3TYR    SC1  578   0.082   1.070   1.956
    3TYR    SC2  579   7.816   1.099   1.919
    3TYR    SC3  580   7.960   1.298   2.032
    1TYR     BB  581   7.127   1.996   3.359
    1TYR    SC1  582   6.992   2.265   3.350
    1TYR    SC2  583   6.740   2.348   3.302
    1TYR    SC3  584   6.883   2.460   3.502
    2PRO     BB  585   6.828   1.848   3.535
    2PRO    SC1  586   6.958   1.670   3.722
    3TYR     BB  587   6.596   2.000   3.619
    3TYR    SC1  588   6.586   2.251   3.794
    3TYR    SC2  589   6.521   2.512   3.819
    3TYR    SC3  590   6.577   2.365   4.038
    1TYR     BB  591   5.923   3.331   0.906
    1TYR    SC1  592   5.905   3.542   1.125
    1TYR    SC2  593   5.879   3.810   1.098
    1TYR    SC3  594   5.702   3.672   1.247
    2PRO     BB  595   5.594   3.437   0.782
    2PRO    SC1  596   5.434   3.305   0.986
    3TYR     BB  597   5.490   3.736   0.717
    3TYR    SC1  598   5.463   3.932   0.961
    3TYR    SC2  599   5.456   4.186   1.051
    3TYR    SC3  600   5.339   3.989   1.193
    1TYR     BB  601   3.178   1.192   1.877
    1TYR    SC1  602   3.343   0.945   1.921
    1TYR    SC2  603   3.434   0.753   2.088
    1TYR    SC3  604   3.430   0.709   1.821
    2PRO     BB  605   2.866   1.230   1.850
    2PRO    SC1  606   2.739   1.105   1.608
    3TYR     BB  607   2.672   1.096   2.097
    3TYR    SC1  608   2.749   0.793   2.026
    3TYR    SC2  609   2.788   0.526   2.030
    3TYR    SC3  610   2.974   0.688   1.920
    1TYR     BB  611   5.561   4.493   6.876
    1TYR    SC1  612   5.827   4.351   6.957
    1TYR    SC2  613   5.967   4.218   7.147
    1TYR    SC3  614   6.076   4.260   6.903
    2PRO     BB  615   5.370   4.190   6.925
    2PRO    SC1  616   5.448   4.104   7.202
    3TYR     BB  617   5.504   3.987   6.713
    3TYR    SC1  618   5.773   3.892   6.814
    3TYR    SC2  619   5.947   3.784   6.989
    3TYR    SC3  620   6.023   3.828   6.733
    1TYR     BB  621   5.856   3.643   4.641
    1TYR    SC1  622   5.644   3.523   4.836
    1TYR    SC2  623   5.400   3.417   4.791
    1TYR    SC3  624   5.540   3.344   5.009
    2PRO     BB  625   5.700   3.587   4.347
    2PRO    SC1  626   5.659   3.287   4.363
    3TYR     BB  627   5.413   3.791   4.414
    3TYR    SC1  628   5.214   3.555   4.393
    3TYR    SC2  629   4.958   3.484   4.346
    3TYR    SC3  630   5.148   3.294   4.369
    1TYR     BB  631   3.251   7.695   1.395
    1TYR    SC1  632   3.245   7.388   1.348
    1TYR    SC2  633   3.059   7.203   1.410
    1TYR    SC3  634   3.240   7.153   1.217
    2PRO     BB  635   2.962   7.777   1.257
    2PRO    SC1  636   3.010   7.737   0.963
    3TYR     BB  637   2.712   7.577   1.358
    3TYR    SC1  638   2.718   7.356   1.141
    3TYR    SC2  639   2.687   7.323   0.875
    3TYR    SC3  640   2.797   7.126   1.023
    1TYR     BB  641   2.088   3.099   1.610
    1TYR    SC1  642   2.184   3.006   1.890
    1TYR    SC2  643   2.378   3.008   2.078
    1TYR    SC3  644   2.120   3.035   2.151
    2PRO     BB  645   1.815   3.299   1.768
    2PRO    SC1  646   1.660   3.075   1.880
    3TYR     BB  647   1.907   3.490   2.013
    3TYR    SC1  648   1.796   3.347   2.276
    3TYR    SC2  649   1.860   3.216   2.503
    3TYR    SC3  650   1.621   3.174   2.386
    1TYR     BB  651   3.132   7.906   3.974
    1TYR    SC1  652   2.872   0.041   4.071
    1TYR    SC2  653   2.605   0.058   4.108
    1TYR    SC3  654   2.766   0.256   4.196
    2PRO     BB  655   3.384   7.812   4.145
    2PRO    SC1  656   3.484   7.991   4.361
    3TYR     BB  657   3.296   7.515   4.365
    3TYR    SC1  658   3.019   7.649   4.425
    3TYR    SC2  659   2.763   7.732   4.406
    3TYR    SC3  660   2.954   7.904   4.487
    1TYR     BB  661   3.551   5.547   6.056
    1TYR    SC1  662   3.534   5.603   5.757
    1TYR    SC2  663   3.403   5.529   5.533
    1TYR    SC3  664   3.410   5.789   5.605
    2PRO     BB  665   3.223   5.665   6.131
    2PRO    SC1  666   3.124   5.512   6.367
    3TYR     BB  667   3.008   5.595   5.868
    3TYR    SC1  668   2.777   5.774   5.949
    3TYR    SC2  669   2.580   5.941   5.871
    3TYR    SC3  670   2.768   6.026   6.046
    1TYR     BB  671   5.516   0.883   6.086
    1TYR    SC1  672   5.633   0.963   6.373
    1TYR    SC2  673   5.846   1.065   6.504
    1TYR    SC3  674   5.709   0.858   6.610
    2PRO     BB  675   5.785   0.661   6.021
    2PRO    SC1  676   6.006   0.867   6.039
    3TYR     BB  677   5.821   0.461   6.303
    3TYR    SC1  678   6.056   0.603   6.452
    3TYR    SC2  679   6.305   0.556   6.547
    3TYR    SC3  680   6.218   0.810   6.516
    1TYR     BB  681   5.113   5.299   5.778
    1TYR    SC1  682   5.010   5.352   5.487
    1TYR    SC2  683   4.878   5.485   5.292
    1TYR    SC3  684   5.116   5.368   5.239
    2PRO     BB  685   5.378   5.093   5.685
    2PRO    SC1  686   5.380   4.911   5.919
    3TYR     BB  687   5.585   5.202   5.446
    3TYR    SC1  688   5.509   5.072   5.185
    3TYR    SC2  689   5.385   5.082   4.946
    3TYR    SC3  690   5.507   4.854   5.025
    1TYR     BB  691   3.592   5.091   0.775
    1TYR    SC1  692   3.491   4.941   1.030
    1TYR    SC2  693   3.477   4.987   1.296
    1TYR    SC3  694   3.273   4.863   1.169
    2PRO     BB  695   3.618   5.413   0.936
    2PRO    SC1  696   3.354   5.435   1.078
    3TYR     BB  697   3.823   5.382   1.187
    3TYR    SC1  698   3.722   5.527   1.432
    3TYR    SC2  699   3.738   5.731   1.609
    3TYR    SC3  700   3.500   5.616   1.558
    1TYR     BB  701   5.007   1.475   1.928
    1TYR    SC1  702   4.919   1.775   1.907
    1TYR    SC2  703   4.992   1.990   2.052
    1TYR    SC3  704   4.830   2.020   1.838
    2PRO     BB  705   5.085   1.478   2.261
    2PRO    SC1  706   5.321   1.654   2.282
    3TYR     BB  707   4.874   1.527   2.510
    3TYR    SC1  708   4.932   1.824   2.583
    3TYR    SC2  709   4.982   2.000   2.781
    3TYR    SC3  710   5.082   2.043   2.535
    1TYR     BB  711   6.815   6.008   0.710
    1TYR    SC1  712   6.558   5.841   0.638
    1TYR    SC2  713   6.324   5.876   0.509
    1TYR    SC3  714   6.345   5.689   0.702
    2PRO     BB  715   6.638   6.308   0.749
    2PRO    SC1  716   6.641   6.388   0.458
    3TYR     BB  717   6.327   6.257   0.876
    3TYR    SC1  718   6.145   6.280   0.622
    3TYR    SC2  719   5.949   6.181   0.466
    3TYR    SC3  720   6.168   6.291   0.354
    1TYR     BB  721   1.154   5.456   0.561
    1TYR    SC1  722   0.942   5.585   0.368
    1TYR    SC2  723   0.874   5.790   0.206
    1TYR    SC3  724   0.705   5.583   0.239
    2PRO     BB  725   1.363   5.323   0.349
    2PRO    SC1  726   1.497   5.088   0.474
    3TYR     BB  727   1.398   5.378   0.048
    3TYR    SC1  728   1.170   5.513   7.881
    3TYR    SC2  729   1.110   5.539   7.619
    3TYR    SC3  730   0.919   5.577   7.806
    1TYR     BB  731   6.810   4.341   0.456
    1TYR    SC1  732   6.597   4.332   0.226
    1TYR    SC2  733   6.419   4.461   0.070
    1TYR    SC3  734   6.461   4.197   0.036
    2PRO     BB  735   7.057   4.516   0.312
    2PRO    SC1  736   7.189   4.299   0.142
    3TYR     BB  737   6.952   4.732   0.066
    3TYR    SC1  738   6.816   4.546   7.868
    3TYR    SC2  739   6.648   4.483   7.665
    3TYR    SC3  740   6.820   4.298   7.761
    1TYR     BB  741   1.537   3.520   3.985
    1TYR    SC1  742   1.744   3.423   4.195
    1TYR    SC2  743   1.969   3.350   4.324
    1TYR    SC3  744   1.830   3.566   4.407
    2PRO     BB  745   1.555   3.850   4.074
    2PRO    SC1  746   1.419   3.932   4.315
    3TYR     BB  747   1.859   4.016   4.103
    3TYR    SC1  748   1.941   4.010   4.399
    3TYR    SC2  749   1.843   4.109   4.630
    3TYR    SC3  750   2.078   3.976   4.630
    1TYR     BB  751   6.587   5.769   5.998
    1TYR    SC1  752   6.283   5.790   5.992
    1TYR    SC2  753   6.063   5.694   6.114
    1TYR    SC3  754   6.040   5.835   5.885
    2PRO     BB  755   6.667   5.612   6.272
    2PRO    SC1  756   6.431   5.634   6.455
    3TYR     BB  757   6.765   5.302   6.230
    3TYR    SC1  758   6.533   5.140   6.340
    3TYR    SC2  759   6.347   4.943   6.339
    3TYR    SC3  760   6.332   5.142   6.521
    1TYR     BB  761   7.467   5.987   4.139
    1TYR    SC1  762   7.738   6.043   3.990
    1TYR    SC2  763   7.866   6.102   3.760
    1TYR    SC3  764   0.002   5.992   3.966
    2PRO     BB  765   7.485   6.212   4.374
    2PRO    SC1  766   7.750   6.149   4.501
    3TYR     BB  767   7.470   6.505   4.244
    3TYR    SC1  768   7.758   6.508   4.114
    3TYR    SC2  769   7.917   6.544   3.899
    3TYR    SC3  770   0.012   6.418   4.117
    1TYR     BB  771   1.079   2.369   2.301
    1TYR    SC1  772   0.806   2.276   2.189
    1TYR    SC2  773   0.634   2.238   1.984
    1TYR    SC3  774   0.540   2.265   2.236
    2PRO     BB  775   1.343   2.284   2.071
    2PRO    SC1  776   1.487   2.050   2.164
    3TYR     BB  777   1.491   2.385   1.789
    3TYR    SC1  778   1.363   2.328   1.518
    3TYR    SC2  779   1.220   2.429   1.313
    3TYR    SC3  780   1.212   2.164   1.366
    1TYR     BB  781   1.216   4.804   2.873
    1TYR    SC1  782   1.127   4.546   3.033
    1TYR    SC2  783   1.106   4.322   3.182
    1TYR    SC3  784   0.887   4.472   3.133
    2PRO     BB  785   1.530   4.785   2.834
    2PRO    SC1  786   1.634   4.887   2.573
    3TYR     BB  787   1.670   4.528   2.909
    3TYR    SC1  788   1.563   4.393   3.146
    3TYR    SC2  789   1.521   4.162   3.279
    3TYR    SC3  790   1.529   4.395   3.414
    1TYR     BB  791   6.837   4.910   5.019
    1TYR    SC1  792   6.657   5.164   5.002
    1TYR    SC2  793   6.439   5.298   5.089
    1TYR    SC3  794   6.577   5.389   4.876
    2PRO     BB  795   7.115   4.978   4.879
    2PRO    SC1  796   7.117   4.837   4.618
    3TYR     BB  797   7.198   5.274   4.907
    3TYR    SC1  798   7.010   5.462   4.754
    3TYR    SC2  799   6.888   5.701   4.785
    3TYR    SC3  800   6.880   5.576   4.546
    1TYR     BB  801   1.965   1.736   2.618
    1TYR    SC1  802   1.879   2.010   2.546
    1TYR    SC2  803   1.878   2.258   2.653
    1TYR    SC3  804   1.910   2.226   2.387
    2PRO     BB  805   2.211   1.746   2.835
    2PRO    SC1  806   2.375   1.503   2.913
    3TYR     BB  807   2.355   1.991   2.878
    3TYR    SC1  808   2.331   2.243   2.722
    3TYR    SC2  809   2.429   2.495   2.721
    3TYR    SC3  810   2.369   2.372   2.488
    1TYR     BB  811   4.868   0.562   6.643
    1TYR    SC1  812   4.579   0.472   6.726
    1TYR    SC2  813   4.321   0.440   6.653
    1TYR    SC3  814   4.438   0.262   6.819
    2PRO     BB  815   5.083   0.322   6.792
    2PRO    SC1  816   4.916   0.165   6.985
    3TYR     BB  817   5.176   0.069   6.553
    3TYR    SC1  818   4.879   0.007   6.483
    3TYR    SC2  819   4.650   0.140   6.431
    3TYR    SC3  820   4.645   7.917   6.582
    1TYR     BB  821   3.030   0.568   6.234
    1TYR    SC1  822   3.092   0.837   6.375
    1TYR    SC2  823   3.037   1.023   6.562
    1TYR    SC3  824   3.265   1.040   6.418
    2PRO     BB  825   3.173   0.330   6.429
    2PRO    SC1  826   3.054   0.071   6.342
    3TYR     BB  827   3.349   0.401   6.673
    3TYR    SC1  828   3.316   0.696   6.760
    3TYR    SC2  829   3.198   0.838   6.957
    3TYR    SC3  830   3.417   0.936   6.832
    1TYR     BB  831   1.622   2.620   4.101
    1TYR    SC1  832   1.642   2.646   4.408
    1TYR    SC2  833   1.578   2.524   4.640
    1TYR    SC3  834   1.829   2.616   4.601
    2PRO     BB  835   1.774   2.307   4.080
    2PRO    SC1  836   2.054   2.373   4.167
    3TYR     BB  837   1.639   2.136   4.320
    3TYR    SC1  838   1.842   2.141   4.558
    3TYR    SC2  839   1.977   2.229   4.775
    3TYR    SC3  840   2.089   2.045   4.612
    1TYR     BB  841   4.296   2.924   4.662
    1TYR    SC1  842   4.513   2.715   4.607
    1TYR    SC2  843   4.629   2.480   4.674
    1TYR    SC3  844   4.610   2.552   4.415
    2PRO     BB  845   4.023   2.692   4.617
    2PRO    SC1  846   4.004   2.705   4.320
    3TYR     BB  847   4.135   2.386   4.679
    3TYR    SC1  848   4.231   2.263   4.418
    3TYR    SC2  849   4.193   2.050   4.257
    3TYR    SC3  850   4.261   2.288   4.151
    1TYR     BB  851   0.157   7.093   6.806
    1TYR    SC1  852   0.455   7.088   6.898
    1TYR    SC2  853   0.661   7.042   7.066
    1TYR    SC3  854   0.702   7.179   6.837
    2PRO     BB  855   0.100   6.798   6.640
    2PRO    SC1  856   7.871   6.680   6.791
    3TYR     BB  857   0.335   6.600   6.533
    3TYR    SC1  858   0.584   6.696   6.696
    3TYR    SC2  859   0.738   6.626   6.907
    3TYR    SC3  860   0.844   6.768   6.703
    1TYR     BB  861   6.987   4.503   5.912
    1TYR    SC1  862   7.067   4.320   5.693
    1TYR    SC2  863   7.188   4.091   5.615
    1TYR    SC3  864   7.011   4.213   5.451
    2PRO     BB  865   6.832   4.285   6.144
    2PRO    SC1  866   6.617   4.463   6.241
    3TYR     BB  867   6.676   3.983   6.065
    3TYR    SC1  868   6.787   3.904   5.783
    3TYR    SC2  869   6.899   3.732   5.608
    3TYR    SC3  870   6.699   3.894   5.528
    1TYR     BB  871   3.513   5.553   5.049
    1TYR    SC1  872   3.297   5.358   4.965
    1TYR    SC2  873   3.190   5.131   4.867
    1TYR    SC3  874   3.044   5.290   5.030
    2PRO     BB  875   3.795   5.400   5.076
    2PRO    SC1  876   3.832   5.318   5.370
    3TYR     BB  877   3.805   5.079   4.939
    3TYR    SC1  878   3.559   4.981   5.086
    3TYR    SC2  879   3.360   4.822   5.177
    3TYR    SC3  880   3.400   5.065   5.288
    1TYR     BB  881   7.369   4.817   7.197
    1TYR    SC1  882   7.677   4.880   7.156
    1TYR    SC2  883   7.904   4.835   7.016
    1TYR    SC3  884   7.917   4.919   7.273
    2PRO     BB  885   7.205   5.108   7.127
    2PRO    SC1  886   7.285   5.271   7.371
    3TYR     BB  887   7.317   5.301   6.877
    3TYR    SC1  888   7.620   5.316   6.956
    3TYR    SC2  889   7.884   5.277   6.916
    3TYR    SC3  890   7.793   5.346   7.161
    1TYR     BB  891   4.668   4.439   0.754
    1TYR    SC1  892   4.934   4.543   0.873
    1TYR    SC2  893   5.098   4.757   0.893
    1TYR    SC3  894   5.144   4.536   1.042
    2PRO     BB  895   4.546   4.740   0.632
    2PRO    SC1  896   4.539   4.929   0.863
    3TYR     BB  897   4.779   4.856   0.415
    3TYR    SC1  898   4.938   5.053   0.583
    3TYR    SC2  899   5.150   5.194   0.674
    3TYR    SC3  900   4.899   5.276   0.730
    1TYR     BB  901   3.290   4.557   2.951
    1TYR    SC1  902   3.567   4.690   3.002
    1TYR    SC2  903   3.835   4.674   3.033
    1TYR    SC3  904   3.721   4.909   2.965
    2PRO     BB  905   3.127   4.787   2.781
    2PRO    SC1  906   2.833   4.772   2.779
    3TYR     BB  907   3.320   4.940   2.618
    3TYR    SC1  908   3.422   5.208   2.744
    3TYR    SC2  909   3.630   5.355   2.833
    3TYR    SC3  910   3.427   5.474   2.701
    1TYR     BB  911   4.055   1.273   3.525
    1TYR    SC1  912   3.765   1.271   3.511
    1TYR    SC2  913   3.570   1.086   3.540
    1TYR    SC3  914   3.530   1.339   3.626
    2PRO     BB  915   4.059   0.998   3.799
    2PRO    SC1  916   3.995   0.772   3.619
    3TYR     BB  917   3.744   0.972   3.979
    3TYR    SC1  918   3.783   0.790   4.216
    3TYR    SC2  919   3.745   0.558   4.349
    3TYR    SC3  920   3.840   0.775   4.480
    1TYR     BB  921   2.188   4.253   7.163
    1TYR    SC1  922   2.306   3.968   7.172
    1TYR    SC2  923   2.247   3.728   7.064
    1TYR    SC3  924   2.501   3.819   7.062
    2PRO     BB  925   2.183   4.230   6.786
    2PRO    SC1  926   2.465   4.185   6.712
    3TYR     BB  927   1.995   4.069   6.557
    3TYR    SC1  928   2.038   3.769   6.603
    3TYR    SC2  929   1.952   3.553   6.740
    3TYR    SC3  930   2.021   3.530   6.480
    1TYR     BB  931   0.457   5.775   1.958
    1TYR    SC1  932   0.238   5.874   2.136
    1TYR    SC2  933   7.988   5.843   2.232
    1TYR    SC3  934   0.199   5.835   2.400
    2PRO     BB  935   0.603   5.567   2.225
    2PRO    SC1  936   0.719   5.754   2.421
    3TYR     BB  937   0.455   5.270   2.297
    3TYR    SC1  938   0.669   5.175   2.504
    3TYR    SC2  939   0.810   5.079   2.713
    3TYR    SC3  940   0.890   5.304   2.588
    1TYR     BB  941   0.803   4.735   4.525
    1TYR    SC1  942   0.938   5.018   4.536
    1TYR    SC2  943   0.874   5.251   4.656
    1TYR    SC3  944   1.132   5.171   4.643
    2PRO     BB  945   0.546   4.856   4.826
    2PRO    SC1  946   0.784   4.895   4.993
    3TYR     BB  947   0.337   4.927   5.181
    3TYR    SC1  948   0.341   5.225   5.093
    3TYR    SC2  949   0.272   5.465   4.990
    3TYR    SC3  950   0.525   5.374   4.964
    1TYR     BB  951   1.027   0.341   2.858
    1TYR    SC1  952   1.242   0.558   2.871
    1TYR    SC2  953   1.447   0.676   2.741
    1TYR    SC3  954   1.346   0.789   2.964
    2PRO     BB  955   0.734   0.516   2.941
    2PRO    SC1  956   0.832   0.768   3.066
    3TYR     BB  957   0.594   0.590   2.635
    3TYR    SC1  958   0.860   0.696   2.502
    3TYR    SC2  959   1.108   0.657   2.403
    3TYR    SC3  960   1.059   0.868   2.565
    1TYR     BB  961   2.916   4.493   0.306
    1TYR    SC1  962   2.940   4.184   0.305
    1TYR    SC2  963   2.977   3.994   0.494
    1TYR    SC3  964   2.901   3.924   0.245
    2PRO     BB  965   2.780   4.516   0.646
    2PRO    SC1  966   2.564   4.314   0.640
    3TYR     BB  967   2.913   4.508   0.958
    3TYR    SC1  968   2.946   4.205   1.002
    3TYR    SC2  969   2.932   4.014   1.193
    3TYR    SC3  970   2.862   3.957   0.938
    1TYR     BB  971   4.364   3.733   0.377
    1TYR    SC1  972   4.484   3.642   0.103
    1TYR    SC2  973   4.394   3.538   7.871
    1TYR    SC3  974   4.659   3.544   7.922
    2PRO     BB  975   4.283   4.047   0.275
    2PRO    SC1  976   4.548   4.179   0.325
    3TYR     BB  977   4.154   4.038   7.974
    3TYR    SC1  978   4.407   4.026   7.803
    3TYR    SC2  979   4.578   4.146   7.632
    3TYR    SC3  980   4.673   4.014   7.848
    1TYR     BB  981   2.650   3.432   7.362
    1TYR    SC1  982   2.772   3.327   7.630
    1TYR    SC2  983   2.935   3.368   7.842
    1TYR    SC3  984   2.718   3.209   7.867
    2PRO     BB  985   2.434   3.661   7.548
    2PRO    SC1  986   2.248   3.452   7.655
    3TYR     BB  987   2.637   3.806   7.777
    3TYR    SC1  988   2.588   3.637   0.029
    3TYR    SC2  989   2.690   3.496   0.236
    3TYR    SC3  990   2.436   3.451   0.153
    1TYR     BB  991   1.325   3.340   1.630
    1TYR    SC1  992   1.318   3.481   1.907
    1TYR    SC2  993   1.168   3.653   2.052
    1TYR    SC3  994   1.426   3.608   2.120
    2PRO     BB  995   1.175   3.065   1.642
    2PRO    SC1  996   1.345   2.835   1.585
    3TYR     BB  997   0.936   3.035   1.846
    3TYR    SC1  998   0.988   3.209   2.091
    3TYR    SC2  999   0.907   3.334   2.316
    3TYR    SC3 1000   1.166   3.262   2.287
    4W        W 1001   0.549   1.776   2.160
    5W        W 1002   4.069   5.901   1.944
    6W        W 1003   4.958   7.356   2.138
    7W        W 1004   3.814   4.257   0.288
    8W        W 1005   5.751   0.444   4.089
    9W        W 1006   3.543   7.496   2.366
   10W        W 1007   2.477   3.226   3.153
   11W        W 1008   3.181   5.972   3.417
   12W        W 1009   3.865   6.804   2.821
   13W        W 1010   3.514   2.882   5.375
   14W        W 1011   6.517   2.783   3.415
   15W        W 1012   0.753   6.664   6.216
   16W        W 1013   2.703   6.901   4.679
   17W        W 1014   7.304   3.379   3.550
   18W        W 1015   5.905   6.199   3.366
   19W        W 1016   7.246   3.201   1.876
   20W        W 1017   4.493   7.041   6.397
   21W        W 1018   3.501   2.412   1.001
   22W        W 1019   4.427   4.164   4.158
   23W        W 1020   4.203   3.781   1.029
   24W        W 1021   3.383   5.854   3.873
   25W        W 1022   2.787   6.316   3.523
   26W        W 1023   5.167   4.529   0.425
   27W        W 1024   2.144   5.879   5.068
   28W        W 1025   5.203   2.306   5.328
   29W        W 1026   0.501   6.384   3.198
   30W        W 1027   1.194   7.152   5.430
   31W        W 1028   7.961   1.217   3.186
   32W        W 1029   6.778   4.574   2.220
   33W        W 1030   7.725   6.432   5.665
   34W        W 1031   3.226   2.071   1.360
   35W        W 1032   4.130   0.362   4.629
   36W        W 1033   3.969   6.167   1.522
   37W        W 1034   3.331   4.008   2.796
   38W        W 1035   3.582   3.432   0.520
   39W        W 1036   2.943   7.211   3.050
   40W        W 1037   1.596   6.921   5.189
   41W        W 1038   5.396   0.389   3.728
   42W        W 1039   7.303   6.811   2.092
   43W        W 1040   2.444   0.531   3.888
   44W        W 1041   3.652   4.507   6.609
   45W        W 1042   7.883   2.946   3.894
   46W        W 1043   4.531   2.301   6.120
   47W        W 1044   5.718   4.348   5.182
   48W        W 1045   5.320   1.604   2.805
   49W        W 1046   4.879   5.784   6.243
   50W        W 1047   0.973   2.110   6.001
   51W        W 1048   1.030   5.294   2.078
   52W        W 1049   3.498   7.995   1.706
   53W        W 1050   6.390   1.581   3.791
   54W        W 1051   1.832   1.077   3.544
   55W        W 1052   2.006   2.642   3.764
   56W        W 1053   4.172   7.287   3.201
   57W        W 1054   1.418   7.066   1.636
   58W        W 1055   1.933   6.055   3.829
   59W        W 1056   5.089   5.716   0.587
   60W        W 1057   4.160   5.168   2.839
   61W        W 1058   2.419   4.463   2.759
   62W        W 1059   6.423   1.837   4.669
   63W        W 1060   0.435   1.212   7.542
   64W        W 1061   1.443   6.317   0.525
   65W        W 1062   2.526   7.222   1.670
   66W        W 1063   6.434   3.440   3.940
   67W        W 1064   3.291   3.604   4.323
   68W        W 1065   3.369   4.317   0.534
   69W        W 1066   4.634   0.327   2.159
   70W        W 1067   3.398   3.830   5.036
   71W        W 1068   6.481   5.963   2.753
   72W        W 1069   7.232   1.192   0.447
   73W        W 1070   6.194   0.571   0.812
   74W        W 1071   7.004   2.921   0.932
   75W        W 1072   5.912   5.325   7.112
   76W        W 1073   2.260   2.426   1.523
   77W        W 1074   6.155   5.337   7.968
   78W        W 1075   1.566   1.885   1.694
   79W        W 1076   0.096   0.945   7.844
   80W        W 1077   5.936   2.219   2.279
   81W        W 1078   5.426   5.707   4.167
   82W        W 1079   1.948   2.202   7.103
   83W        W 1080   5.286   2.764   1.802
   84W        W 1081   0.122   6.840   4.858
   85W        W 1082   0.947   0.720   1.025
   86W        W 1083   0.772   1.683   4.054
   87W        W 1084   3.900   3.998   4.128
   88W        W 1085   0.240   6.514   1.166
   89W        W 1086   5.423   7.041   2.941
   90W        W 1087   5.887   5.653   5.434
   91W        W 1088   5.463   3.971   4.923
   92W        W 1089   7.890   3.674   5.461
   93W        W 1090   5.261   4.932   4.428
   94W        W 1091   1.864   0.523   1.010
   95W        W 1092   5.843   4.189   1.379
   96W        W 1093   2.307   2.512   2.022
   97W        W 1094   6.314   0.220   2.081
   98W        W 1095   0.562   4.386   4.005
   99W        W 1096   2.240   4.263   6.187
  100W        W 1097   6.229   4.978   1.407
  101W        W 1098   0.067   5.392   2.011
  102W        W 1099   7.289   4.161   1.281
  103W        W 1100   3.465   4.793   4.640
  104W        W 1101   0.410   3.649   3.284
  105W        W 1102   5.913   6.749   1.476
  106W        W 1103   2.528   4.289   5.779
  107W        W 1104   7.635   0.416   6.716
  108W        W 1105   4.236   0.925   6.742
  109W        W 1106   0.227   2.622   5.565
  110W        W 1107   5.393   6.944   5.315
  111W        W 1108   1.700   0.392   3.093
  112W        W 1109   1.325   6.863   1.173
  113W        W 1110   1.841   0.684   5.890
  114W        W 1111   5.651   7.920   6.405
  115W        W 1112   0.993   1.113   0.567
  116W        W 1113   2.553   6.590   6.885
  117W        W 1114   3.552   4.621   7.366
  118W        W 1115   3.072   4.432   1.947
  119W        W 1116   6.903   3.007   4.817
  120W        W 1117   4.188   4.801   5.171
  121W        W 1118   2.752   2.701   2.228
  122W        W 1119   4.720   2.528   7.852
  123W        W 1120   7.400   5.941   3.636
  124W        W 1121   4.344   7.540   6.414
  125W        W 1122   4.210   2.993   5.976
  126W        W 1123   7.130   5.359   2.282
  127W        W 1124   6.731   7.783   5.999
  128W        W 1125   2.550   2.702   1.192
  129W        W 1126   6.291   6.455   6.613
  130W        W 1127   4.563   5.449   2.630
  131W        W 1128   3.645   7.128   0.916
  132W        W 1129   3.997   6.651   4.669
  133W        W 1130   4.724   1.993   0.886
  134W        W 1131   1.065   1.691   5.719
  135W        W 1132   5.904   6.798   3.133
  136W        W 1133   2.654   3.792   1.548
  137W        W 1134   4.294   5.084   2.350
  138W        W 1135   2.879   1.109   4.434
  139W        W 1136   7.256   5.436   1.278
  140W        W 1137   4.916   3.032   1.550
  141W        W 1138   4.049   3.290   1.232
  142W        W 1139   3.720   5.887   0.742
  143W        W 1140   6.078   5.852   3.059
  144W        W 1141   0.565   4.859   5.788
  145W        W 1142   0.990   4.704   1.249
  146W        W 1143   0.141   1.115   0.882
  147W        W 1144   0.316   4.928   1.904
  148W        W 1145   3.895   7.922   3.978
  149W        W 1146   6.412   2.525   7.583
  150W        W 1147   4.325   3.332   2.175
  151W        W 1148   5.529   5.510   0.761
  152W        W 1149   0.595   1.010   6.688
  153W        W 1150   0.186   3.605   5.049
  154W        W 1151   7.039   1.726   5.818
  155W        W 1152   2.763   4.784   1.370
  156W        W 1153   0.530   5.768   6.410
  157W        W 1154   6.700   0.690   1.483
  158W        W 1155   0.740   6.464   1.301
  159W        W 1156   4.044   7.511   2.301
  160W        W 1157   5.952   4.131   7.886
  161W        W 1158   1.595   5.204   6.817
  162W        W 1159   6.213   1.008   0.481
  163W        W 1160   2.801   5.933   1.836
  164W        W 1161   2.390   5.990   2.815
  165W        W 1162   6.793   6.514   6.683
  166W        W 1163   3.589   1.287   4.323
  167W        W 1164   3.536   3.492   7.869
  168W        W 1165   3.727   3.577   0.973
  169W        W 1166   0.168   0.949   0.385
  170W        W 1167   1.750   6.110   5.276
  171W        W 1168   2.890   6.895   1.821
  172W        W 1169   6.436   5.346   1.124
  173W        W 1170   6.326   2.603   2.988
  174W        W 1171   6.782   4.828   7.040
  175W        W 1172   3.078   4.203   3.229
  176W        W 1173   6.731   5.114   4.483
  177W        W 1174   5.174   2.256   0.031
  178W        W 1175   4.505   3.913   6.476
  179W        W 1176   2.913   4.847   4.556
  180W        W 1177   2.332   3.757   1.952
  181W        W 1178   1.171   1.702   5.020
  182W        W 1179   3.019   7.561   2.483
  183W        W 1180   1.696   6.672   1.470
  184W        W 1181   0.868   2.129   3.521
  185W        W 1182   3.509   4.538   3.946
  186W        W 1183   3.104   1.479   1.470
  187W        W 1184   1.572   4.037   2.347
  188W        W 1185   5.918   4.241   0.854
  189W        W 1186   4.260   0.611   1.970
  190W        W 1187   2.927   3.522   0.668
  191W        W 1188   1.125   2.860   2.574
  192W        W 1189   0.570   2.515   4.837
  193W        W 1190   7.978   2.180   2.273
  194W        W 1191   5.594   6.069   2.950
  195W        W 1192   6.395   2.880   0.141
  196W        W 1193   3.396   4.069   4.140
  197W        W 1194   2.407   4.724   0.952
  198W        W 1195   3.141   2.483   7.365
  199W        W 1196   0.985   4.743   0.392
  200W        W 1197   3.665   2.628   1.963
  201W        W 1198   1.141   3.697   2.566
  202W        W 1199   2.435   5.079   7.098
  203W        W 1200   4.448   6.511   6.391
  204W        W 1201   6.406   1.067   5.812
  205W        W 1202   5.726   7.318   3.823
  206W        W 1203   7.336   6.264   4.830
  207W        W 1204   5.350   7.506   6.551
  208W        W 1205   1.231   6.605   1.843
  209W        W 1206   0.700   4.687   0.843
  210W        W 1207   2.414   6.315   5.002
  211W        W 1208   2.459   2.691   4.016
  212W        W 1209   0.999   7.150   0.527
  213W        W 1210   7.944   7.013   3.758
  214W        W 1211   1.548   3.815   6.524
  215W        W 1212   3.631   0.736   1.370
  216W        W 1213   7.120   5.195   3.270
  217W        W 1214   6.464   2.039   7.783
  218W        W 1215   3.432   1.810   5.673
  219W        W 1216   5.987   7.190   7.669
  220W        W 1217   1.414   4.885   3.330
  221W        W 1218   1.612   4.484   2.032
  222W        W 1219   0.897   1.252   4.305
  223W        W 1220   6.058   7.167   0.180
  224W        W 1221   5.717   2.986   0.580
  225W        W 1222   3.051   5.749   4.787
  226W        W 1223   1.776   5.246   1.777
  227W        W 1224   3.702   4.141   3.690
  228W        W 1225   2.729   2.201   2.157
  229W        W 1226   2.895   6.150   5.028
  230W        W 1227   7.082   6.848   1.172
  231W        W 1228   3.038   1.766   6.049
  232W        W 1229   5.750   3.567   6.357
  233W        W 1230   7.341   1.825   6.891
  234W        W 1231   1.510   4.251   4.949
  235W        W 1232   1.976   4.952   1.222
  236W        W 1233   4.793   5.879   2.823
  237W        W 1234   2.222   1.409   4.178
  238W        W 1235   1.401   2.262   7.697
  239W        W 1236   1.785   4.058   0.348
  240W        W 1237   2.366   4.926   4.446
  241W        W 1238   2.974   0.145   3.265
  242W        W 1239   6.600   3.420   4.862
  243W        W 1240   4.918   0.864   5.327
  244W        W 1241   2.518   6.879   5.607
  245W        W 1242   1.500   2.850   3.688
  246W        W 1243   2.036   2.875   4.215
  247W        W 1244   1.749   3.909   3.624
  248W        W 1245   1.361   4.862   0.058
  249W        W 1246   5.942   1.112   5.608
  250W        W 1247   6.462   4.175   3.010
  251W        W 1248   1.925   4.395   3.735
  252W        W 1249   1.880   3.046   7.487
  253W        W 1250   7.076   7.373   2.770
  254W        W 1251   1.675   7.712   2.346
  255W        W 1252   3.805   4.589   1.272
  256W        W 1253   2.883   4.150   4.116
  257W        W 1254   4.796   6.297   1.452
  258W        W 1255   1.453   1.823   5.417
  259W        W 1256   2.969   7.486   1.798
  260W        W 1257   1.998   4.428   1.085
  261W        W 1258   2.485   3.208   5.046
  262W        W 1259   2.636   1.388   3.454
  263W        W 1260   5.274   7.147   1.529
  264W        W 1261   5.959   4.629   4.844
  265W        W 1262   5.786   3.366   2.465
  266W        W 1263   3.559   6.477   6.321
  267W        W 1264   5.460   4.616   2.963
  268W        W 1265   7.478   5.620   3.041
  269W        W 1266   5.359   0.864   3.508
  270W        W 1267   5.918   4.966   6.750
  271W        W 1268   1.623   5.660   0.670
  272W        W 1269   0.164   0.991   3.614
  273W        W 1270   1.088   4.525   2.058
  274W        W 1271   6.778   5.317   3.997
  275W        W 1272   4.018   5.347   4.098
  276W        W 1273   4.260   5.891   3.432
  277W        W 1274   5.204   4.598   7.224
  278W        W 1275   1.479   3.611   1.195
  279W        W 1276   1.655   4.185   5.431
  280W        W 1277   6.769   7.323   2.343
  281W        W 1278   1.553   5.705   3.865
  282W        W 1279   4.904   3.756   0.358
  283W        W 1280   6.539   5.854   5.119
  284W        W 1281   3.050   4.547   7.201
  285W        W 1282   4.362   3.788   1.518
  286W        W 1283   2.863   4.645   3.331
  287W        W 1284   4.205   0.580   4.090
  288W        W 1285   3.858   3.738   1.418
  289W        W 1286   1.255   5.618   1.040
  290W        W 1287   2.485   2.734   3.130
  291W        W 1288   3.880   7.435   0.580
  292W        W 1289   5.686   6.087   5.619
  293W        W 1290   0.606   6.417   0.792
  294W        W 1291   1.774   1.661   1.261
  295W        W 1292   1.873   1.699   7.271
  296W        W 1293   7.928   4.964   2.260
  297W        W 1294   6.673   5.356   3.453
  298W        W 1295   2.932   4.098   6.894
  299W        W 1296   0.601   5.327   1.793
  300W        W 1297   4.720   7.010   4.640
  301W        W 1298   7.573   4.176   2.432
  302W        W 1299   4.948   0.372   6.139
  303W        W 1300   2.860   2.043   3.589
  304W        W 1301   6.430   0.348   1.215
  305W        W 1302   0.809   4.129   3.617
  306W        W 1303   2.334   2.434   6.195
  307W        W 1304   3.113   3.990   1.683
  308W        W 1305   4.513   6.879   1.157
  309W        W 1306   4.759   2.904   0.665
  310W        W 1307   6.812   4.256   1.055
  311W        W 1308   2.629   2.577   5.820
  312W        W 1309   1.368   3.742   7.010
  313W        W 1310   0.684   6.761   4.797
  314W        W 1311   6.008   6.921   7.242
  315W        W 1312   7.013   6.531   4.514
  316W        W 1313   4.480   4.375   6.750
  317W        W 1314   2.900   4.292   2.767
  318W        W 1315   5.411   3.751   2.419
  319W        W 1316   6.582   4.540   3.342
  320W        W 1317   4.763   5.308   1.632
  321W        W 1318   7.008   1.635   0.549
  322W        W 1319   2.468   5.091   2.655
  323W        W 1320   2.710   0.627   4.539
  324W        W 1321   4.105   0.456   3.260
  325W        W 1322   6.905   7.128   4.802
  326W        W 1323   6.116   1.695   7.348
  327W        W 1324   5.677   4.719   4.195
  328W        W 1325   2.824   0.795   1.047
  329W        W 1326   6.902   5.452   5.779
  330W        W 1327   3.184   5.578   7.311
  331W        W 1328   6.391   6.747   0.717
  332W        W 1329   4.693   1.042   6.531
  333W        W 1330   6.738   6.120   1.221
  334W        W 1331   0.750   4.875   2.133
  335W        W 1332   5.042   2.311   3.234
  336W        W 1333   3.475   6.162   2.377
  337W        W 1334   6.298   4.175   6.459
  338W        W 1335   2.212   6.273   5.948
  339W        W 1336   1.065   2.191   5.504
  340W        W 1337   1.370   4.476   2.487
  341W        W 1338   2.484   1.784   4.801
  342W        W 1339   6.218   1.280   6.247
  343W        W 1340   1.853   6.409   2.649
  344W        W 1341   0.822   1.904   1.185
  345W        W 1342   2.588   1.577   6.287
  346W        W 1343   3.610   1.862   2.923
  347W        W 1344   7.234   4.624   5.220
  348W        W 1345   2.978   3.806   7.351
  349W        W 1346   7.211   3.538   1.451
  350W        W 1347   6.303   7.228   6.939
  351W        W 1348   5.791   6.516   7.480
  352W        W 1349   1.826   1.283   2.295
  353W        W 1350   2.473   5.169   1.220
  354W        W 1351   5.807   2.886   1.734
  355W        W 1352   5.735   3.272   2.965
  356W        W 1353   0.008   3.318   4.497
  357W        W 1354   4.652   3.104   4.318
  358W        W 1355   0.932   4.971   1.667
  359W        W 1356   4.787   7.098   6.815
  360W        W 1357   2.779   5.846   6.516
  361W        W 1358   6.379   1.560   1.901
  362W        W 1359   5.642   5.585   1.246
  363W        W 1360   5.574   1.656   3.248
  364W        W 1361   6.186   2.989   3.748
  365W        W 1362   4.624   5.224   6.900
  366W        W 1363   4.160   2.876   0.637
  367W        W 1364   0.967   5.595   6.239
  368W        W 1365   4.423   1.653   2.277
  369W        W 1366   0.380   2.414   4.369
  370W        W 1367   7.418   3.180   4.784
  371W        W 1368   4.191   5.064   5.642
  372W        W 1369   5.182   1.243   1.165
  373W        W 1370   4.452   3.800   2.024
  374W        W 1371   2.586   7.778   5.663
  375W        W 1372   6.360   2.166   2.717
  376W        W 1373   2.562   5.559   5.081
  377W        W 1374   2.447   3.349   0.725
  378W        W 1375   3.047   3.546   4.775
  379W        W 1376   7.907   4.045   5.091
  380W        W 1377   7.475   5.845   1.701
  381W        W 1378   5.078   1.243   4.808
  382W        W 1379   4.994   3.722   2.672
  383W        W 1380   6.983   4.430   7.281
  384W        W 1381   4.321   4.510   3.572
  385W        W 1382   4.758   7.841   1.585
  386W        W 1383   1.167   2.054   3.116
  387W        W 1384   6.369   4.778   5.098
  388W        W 1385   4.169   0.719   5.818
  389W        W 1386   1.071   5.950   0.690
  390W        W 1387   2.038   5.304   0.872
  391W        W 1388   2.314   4.196   2.300
  392W        W 1389   7.537   1.601   0.343
  393W        W 1390   5.686   7.141   6.438
  394W        W 1391   1.441   4.278   3.880
  395W        W 1392   7.109   6.362   0.961
  396W        W 1393   3.556   5.286   4.529
  397W        W 1394   6.751   1.686   1.518
  398W        W 1395   6.217   3.858   2.128
  399W        W 1396   3.299   1.575   3.234
  400W        W 1397   0.073   3.598   2.061
  401W        W 1398   5.159   4.563   2.055
  402W        W 1399   1.868   2.923   3.343
  403W        W 1400   0.058   2.352   4.782
  404W        W 1401   2.697   4.227   7.326
  405W        W 1402   1.390   6.872   3.214
  406W        W 1403   2.783   7.030   6.024
  407W        W 1404   3.584   2.413   5.615
  408W        W 1405   1.147   6.021   7.830
  409W        W 1406   0.524   1.993   5.758
  410W        W 1407   3.289   6.848   3.503
  411W        W 1408   7.524   2.391   5.093
  412W        W 1409   6.452   3.943   7.007
  413W        W 1410   4.814   1.203   1.542
  414W        W 1411   3.932   1.673   4.968
  415W        W 1412   0.488   5.821   3.919
  416W        W 1413   3.595   2.127   0.580
  417W        W 1414   6.615   5.144   5.517
  418W        W 1415   0.453   6.056   7.185
  419W        W 1416   1.151   2.009   4.184
  420W        W 1417   7.143   1.713   2.234
  421W        W 1418   2.898   2.223   6.984
  422W        W 1419   2.624   0.880   3.121
  423W        W 1420   0.580   3.847   4.016
  424W        W 1421   6.115   1.329   3.017
  425W        W 1422   3.525   2.544   4.629
  426W        W 1423   4.550   3.218   7.043
  427W        W 1424   2.906   4.960   6.975
  428W        W 1425   5.174   3.400   1.864
  429W        W 1426   0.305   6.477   5.692
  430W        W 1427   3.735   6.595   3.267
  431W        W 1428   6.920   7.876   6.978
  432W        W 1429   0.850   4.070   1.886
  433W        W 1430   6.999   1.159   6.637
  434W        W 1431   0.726   2.307   1.480
  435W        W 1432   6.809   4.797   6.534
  436W        W 1433   1.623   4.939   5.796
  437W        W 1434   5.229   2.897   5.109
  438W        W 1435   2.307   5.118   7.622
  439W        W 1436   6.274   6.263   4.960
  440W        W 1437   0.824   2.393   0.994
  441W        W 1438   7.623   4.624   1.151
  442W        W 1439   6.014   4.319   4.024
  443W        W 1440   4.377   6.248   4.248
  444W        W 1441   4.306   6.659   2.578
  445W        W 1442   4.922   3.906   5.583
  446W        W 1443   0.719   0.929   7.200
  447W        W 1444   1.210   1.180   1.690
  448W        W 1445   3.125   4.698   7.690
  449W        W 1446   5.429   5.095   1.079
  450W        W 1447   1.614   5.216   4.785
  451W        W 1448   2.705   0.591   1.507
  452W        W 1449   6.772   1.976   0.218
  453W        W 1450   5.192   7.129   1.024
  454W        W 1451   1.555   5.765   5.581
  455W        W 1452   3.412   4.270   6.994
  456W        W 1453   6.037   3.317   5.526
  457W        W 1454   4.928   3.302   3.885
  458W        W 1455   2.343   1.968   1.281
  459W        W 1456   5.736   7.238   6.953
  460W        W 1457   0.395   3.451   2.431
  461W        W 1458   5.196   1.279   3.216
  462W        W 1459   0.223   0.916   7.136
  463W        W 1460   3.129   1.936   2.283
  464W        W 1461   1.796   2.527   7.485
  465W        W 1462   5.645   1.922   0.857
  466W        W 1463   6.865   3.618   3.697
  467W        W 1464   6.625   6.345   5.331
  468W        W 1465   4.222   1.464   3.080
  469W        W 1466   6.779   5.648   2.486
  470W        W 1467   1.198   6.748   0.200
  471W        W 1468   3.075   3.735   3.894
  472W        W 1469   2.637   4.571   4.222
  473W        W 1470   7.943   7.178   6.345
  474W        W 1471   1.667   7.192   2.413
  475W        W 1472   1.619   3.053   5.431
  476W        W 1473   2.981   1.907   4.084
  477W        W 1474   0.107   1.840   1.918
  478W        W 1475   6.106   7.689   2.932
  479W        W 1476   2.388   3.431   2.325
  480W        W 1477   6.064   7.132   0.735
  481W        W 1478   6.823   2.707   5.768
  482W        W 1479   2.970   2.858   3.881
  483W        W 1480   2.556   3.694   4.826
  484W        W 1481   6.804   2.936   5.314
  485W        W 1482   1.563   3.237   0.835
  486W        W 1483   1.496   1.639   2.452
  487W        W 1484   7.493   1.779   4.546
  488W        W 1485   7.660   3.589   4.979
  489W        W 1486   0.339   4.522   4.488
  490W        W 1487   4.131   7.226   6.062
  491W        W 1488   4.042   4.352   5.474
  492W        W 1489   4.064   2.768   7.344
  493W        W 1490   1.226   5.682   2.364
  494W        W 1491   4.655   3.425   1.743
  495W        W 1492   2.824   7.315   5.595
  496W        W 1493   4.286   4.311   5.011
  497W        W 1494   4.607   3.980   2.461
  498W        W 1495   7.066   7.406   6.065
  499W        W 1496   5.164   2.660   1.250
  500W        W 1497   2.109   5.436   1.440
  501W        W 1498   0.903   4.227   1.404
  502W        W 1499   6.358   6.743   0.182
  503W        W 1500   6.602   3.681   3.193
  504W        W 1501   2.500   2.957   5.496
  505W        W 1502   1.925   2.071   3.127
  506W        W 1503   2.797   5.256   7.389
  507W        W 1504   2.036   2.377   5.767
  508W        W 1505   5.961   3.159   4.779
  509W        W 1506   5.620   1.939   2.559
  510W        W 1507   3.229   7.388   3.886
  511W        W 1508   4.566   0.936   4.017
  512W        W 1509   3.537   3.444   4.727
  513W        W 1510   2.935   1.290   3.036
  514W        W 1511   5.004   6.753   3.087
  515W        W 1512   0.008   6.764   5.375
  516W        W 1513   0.647   6.065   7.813
  517W        W 1514   5.004   6.201   2.453
  518W        W 1515   7.615   2.207   3.376
  519W        W 1516   3.322   3.423   2.164
  520W        W 1517   4.803   3.288   7.497
  521W        W 1518   1.538   4.600   1.185
  522W        W 1519   3.183   7.313   0.744
  523W        W 1520   6.884   7.724   3.125
  524W        W 1521   0.589   3.582   6.718
  525W        W 1522   7.108   4.829   2.883
  526W        W 1523   5.134   4.684   3.934
  527W        W 1524   4.905   2.942   6.807
  528W        W 1525   1.352   2.981   4.988
  529W        W 1526   6.615   7.350   6.256
  530W        W 1527   4.618   3.918   0.771
  531W        W 1528   5.197   7.149   0.509
  532W        W 1529   6.636   7.488   7.245
  533W        W 1530   0.102   6.167   0.800
  534W        W 1531   7.286   7.862   6.060
  535W        W 1532   5.999   5.815   4.975
  536W        W 1533   0.871   0.397   4.331
  537W        W 1534   5.512   5.954   0.436
  538W        W 1535   4.394   3.031   1.501
  539W        W 1536   2.642   3.463   2.746
  540W        W 1537   4.660   2.698   1.194
  541W        W 1538   7.368   7.526   6.462
  542W        W 1539   5.808   0.785   1.649
  543W        W 1540   0.425   3.249   4.778
  544W        W 1541   6.482   4.889   4.113
  545W        W 1542   4.357   1.065   1.762
  546W        W 1543   5.669   4.517   7.439
  547W        W 1544   1.404   4.776   6.226
  548W        W 1545   3.903   1.623   5.462
  549W        W 1546   4.095   4.188   1.369
  550W        W 1547   6.683   5.553   1.503
  551W        W 1548   7.553   5.197   2.522
  552W        W 1549   0.291   3.831   2.804
  553W        W 1550   0.140   3.948   1.106
  554W        W 1551   2.189   5.982   7.156
  555W        W 1552   0.524   3.599   1.068
  556W        W 1553   6.317   2.061   3.215
  557W        W 1554   3.963   1.417   6.889
  558W        W 1555   3.061   1.218   5.213
  559W        W 1556   0.805   4.033   6.621
  560W        W 1557   3.500   6.861   5.993
  561W        W 1558   0.038   5.771   7.256
  562W        W 1559   5.621   4.641   1.287
  563W        W 1560   6.275   5.381   7.456
  564W        W 1561   5.281   5.404   7.779
  565W        W 1562   6.885   1.953   7.098
  566W        W 1563   0.106   2.341   3.177
  567W        W 1564   3.405   4.405   1.017
  568W        W 1565   3.308   5.461   3.548
  569W        W 1566   0.439   4.330   5.705
  570W        W 1567   2.680   1.733   2.571
  571W        W 1568   7.129   5.836   2.115
  572W        W 1569   5.670   0.476   0.847
  573W        W 1570   7.542   1.492   7.248
  574W        W 1571   5.191   3.501   1.367
  575W        W 1572   2.889   7.167   4.207
  576W        W 1573   2.175   2.856   5.909
  577W        W 1574   2.276   0.820   4.746
  578W        W 1575   4.438   0.850   2.956
  579W        W 1576   3.992   2.362   0.833
  580W        W 1577   4.922   5.278   6.469
  581W        W 1578   0.544   0.873   4.306
  582W        W 1579   4.632   5.882   5.098
  583W        W 1580   2.758   0.793   5.875
  584W        W 1581   0.129   5.410   6.453
  585W        W 1582   4.228   7.091   0.765
  586W        W 1583   0.801   5.757   4.789
  587W        W 1584   2.395   1.172   6.016
  588W        W 1585   2.375   6.802   5.111
  589W        W 1586   6.946   0.284   1.290
  590W        W 1587   2.105   3.027   2.907
  591W        W 1588   1.949   5.190   7.236
  592W        W 1589   5.354   3.868   6.231
  593W        W 1590   7.156   3.022   1.402
  594W        W 1591   2.996   6.116   5.588
  595W        W 1592   1.221   1.633   1.428
  596W        W 1593   3.492   7.467   1.798
  597W        W 1594   4.296   4.050   7.088
  598W        W 1595   1.367   7.332   4.964
  599W        W 1596   3.508   4.748   6.149
  600W        W 1597   5.815   1.213   1.330
  601W        W 1598   2.902   1.233   6.089
  602W        W 1599   5.044   1.134   5.740
  603W        W 1600   4.968   6.771   1.330
  604W        W 1601   2.384   3.220   4.059
  605W        W 1602   1.287   5.308   5.956
  606W        W 1603   5.247   6.177   6.374
  607W        W 1604   2.968   4.552   6.646
  608W        W 1605   6.095   1.079   6.956
  609W        W 1606   6.138   0.690   4.844
  610W        W 1607   4.949   3.257   4.871
  611W        W 1608   5.413   1.776   1.774
  612W        W 1609   6.123   3.217   6.045
  613W        W 1610   6.625   4.643   4.626
  614W        W 1611   2.540   7.104   6.922
  615W        W 1612   2.903   5.952   3.856
  616W        W 1613   3.160   2.462   3.564
  617W        W 1614   7.703   1.224   0.659
  618W        W 1615   6.151   3.221   0.465
  619W        W 1616   5.170   4.786   1.502
  620W        W 1617   0.299   1.940   6.231
  621W        W 1618   7.388   4.081   2.929
  622W        W 1619   2.163   1.356   6.473
  623W        W 1620   5.316   7.742   2.239
  624W        W 1621   3.380   2.715   6.574
  625W        W 1622   4.234   1.056   6.244
  626W        W 1623   0.799   5.453   7.188
  627W        W 1624   6.362   4.068   7.528
  628W        W 1625   5.590   1.196   6.969
  629W        W 1626   4.933   5.170   4.811
  630W        W 1627   1.545   6.943   5.743
  631W        W 1628   3.794   3.953   7.061
  632W        W 1629   6.134   3.523   5.073
  633W        W 1630   1.376   5.021   1.411
  634W        W 1631   5.295   6.322   3.888
  635W        W 1632   6.500   6.400   4.518
  636W        W 1633   1.920   1.579   3.253
  637W        W 1634   7.260   1.071   7.403
  638W        W 1635   6.599   3.333   6.293
  639W        W 1636   4.819   4.576   7.552
  640W        W 1637   5.442   5.253   3.231
  641W        W 1638   2.809   3.709   4.352
  642W        W 1639   3.249   4.784   5.676
  643W        W 1640   7.132   2.421   7.095
  644W        W 1641   3.673   5.121   5.825
  645W        W 1642   6.957   1.011   3.224
  646W        W 1643   0.980   3.356   3.217
  647W        W 1644   3.761   2.281   4.277
  648W        W 1645   2.676   6.343   4.559
  649W        W 1646   5.580   6.912   0.766
  650W        W 1647   5.110   2.911   7.279
  651W        W 1648   6.497   1.232   6.681
  652W        W 1649   4.758   4.966   4.352
  653W        W 1650   7.489   7.354   5.699
  654W        W 1651   6.421   5.615   5.544
  655W        W 1652   3.139   0.887   1.453
  656W        W 1653   4.346   7.298   6.945
  657W        W 1654   7.031   6.997   3.593
  658W        W 1655   5.567   4.761   1.815
  659W        W 1656   4.024   5.582   3.099
  660W        W 1657   1.101   1.175   1.193
  661W        W 1658   3.870   0.935   1.813
  662W        W 1659   3.840   6.149   4.970
  663W        W 1660   2.657   1.608   4.335
  664W        W 1661   7.124   1.080   4.914
  665W        W 1662   1.019   7.073   4.539
  666W        W 1663   0.046   6.441   2.946
  667W        W 1664   2.111   3.822   7.984
  668W        W 1665   4.557   7.372   1.100
  669W        W 1666   3.483   6.590   4.443
  670W        W 1667   5.270   5.681   6.547
  671W        W 1668   1.063   4.118   2.332
  672W        W 1669   0.839   1.470   1.887
  673W        W 1670   6.899   4.352   1.577
  674W        W 1671   7.259   6.210   5.729
  675W        W 1672   5.261   1.312   6.157
  676W        W 1673   1.759   5.227   3.932
  677W        W 1674   1.809   3.952   7.001
  678W        W 1675   1.266   3.542   6.096
  679W        W 1676   5.094   4.703   2.611
  680W        W 1677   5.674   7.298   0.464
  681W        W 1678   1.643   2.775   0.670
  682W        W 1679   1.218   5.578   6.884
  683W        W 1680   0.010   6.516   1.643
  684W        W 1681   1.904   4.799   4.716
  685W        W 1682   5.115   4.191   4.628
  686W        W 1683   2.973   4.726   6.123
  687W        W 1684   2.067   5.512   3.619
  688W        W 1685   7.003   0.689   6.096
  689W        W 1686   4.433   6.699   4.905
  690W        W 1687   3.080   2.671   2.621
  691W        W 1688   3.095   0.464   2.468
  692W        W 1689   6.147   0.807   2.084
  693W        W 1690   2.334   5.923   6.302
  694W        W 1691   3.794   1.080   6.515
  695W        W 1692   1.302   5.965   4.274
  696W        W 1693   4.149   4.676   2.633
  697W        W 1694   5.451   5.485   3.714
  698W        W 1695   3.933   2.985   5.038
  699W        W 1696   3.284   3.345   0.967
  700W        W 1697   3.604   6.355   2.835
  701W        W 1698   7.215   2.611   4.697
  702W        W 1699   2.819   6.126   0.184
  703W        W 1700   4.254   0.334   5.503
  704W        W 1701   3.762   4.268   6.197
  705W        W 1702   4.618   3.068   2.483
  706W        W 1703   1.505   1.441   3.619
  707W        W 1704   7.193   3.937   4.327
  708W        W 1705   0.354   4.036   1.928
  709W        W 1706   4.285   2.629   5.081
  710W        W 1707   6.055   5.127   4.217
  711W        W 1708   2.999   3.875   6.430
  712W        W 1709   6.229   0.484   1.665
  713W        W 1710   4.497   2.754   0.264
  714W        W 1711   3.940   1.093   2.655
  715W        W 1712   4.887   0.835   3.264
  716W        W 1713   6.480   3.957   3.844
  717W        W 1714   5.470   6.558   3.115
  718W        W 1715   4.484   4.983   0.006
  719W        W 1716   1.435   4.450   5.836
  720W        W 1717   7.071   3.061   2.715
  721W        W 1718   4.822   6.429   4.061
  722W        W 1719   5.622   4.474   3.759
  723W        W 1720   7.559   3.256   1.196
  724W        W 1721   7.753   1.348   3.667
  725W        W 1722   0.359   2.130   1.152
  726W        W 1723   3.299   4.391   2.445
  727W        W 1724   7.049   2.927   3.495
  728W        W 1725   4.997   5.369   2.891
  729W        W 1726   2.748   6.867   6.510
  730W        W 1727   0.721   1.818   3.093
  731W        W 1728   0.487   5.662   7.534
  732W        W 1729   3.585   0.492   7.132
  733W        W 1730   6.190   6.074   5.441
  734W        W 1731   3.720   1.377   3.016
  735W        W 1732   0.126   1.219   6.726
  736W        W 1733   7.683   6.635   4.664
  737W        W 1734   4.996   6.869   1.856
  738W        W 1735   4.288   7.624   2.820
  739W        W 1736   2.709   2.493   6.569
  740W        W 1737   0.416   4.784   1.385
  741W        W 1738   5.914   5.542   4.510
  742W        W 1739   2.709   1.618   5.287
  743W        W 1740   6.184   6.394   1.897
  744W        W 1741   5.434   2.100   2.990
  745W        W 1742   5.138   5.584   1.942
  746W        W 1743   0.837   2.637   5.257
  747W        W 1744   2.932   1.868   1.755
  748W        W 1745   7.222   3.037   5.625
  749W        W 1746   0.616   2.554   2.641
  750W        W 1747   2.251   4.012   3.575
  751W        W 1748   3.718   7.026   1.981
  752W        W 1749   6.406   2.984   5.631
  753W        W 1750   3.921   4.451   7.050
  754W        W 1751   5.369   4.078   2.842
  755W        W 1752   2.351   5.180   2.159
  756W        W 1753   6.233   7.404   3.779
  757W        W 1754   3.134   6.303   1.168
  758W        W 1755   3.998   4.184   7.493
  759W        W 1756   2.669   6.347   4.049
  760W        W 1757   4.310   7.894   2.060
  761W        W 1758   5.354   2.612   2.975
  762W        W 1759   5.521   7.591   1.339
  763W        W 1760   4.781   2.052   7.339
  764W        W 1761   3.388   3.518   3.023
  765W        W 1762   1.033   1.844   2.291
  766W        W 1763   3.192   6.112   7.234
  767W        W 1764   1.556   6.370   4.058
  768W        W 1765   1.564   1.742   2.946
  769W        W 1766   7.150   1.339   1.495
  770W        W 1767   2.355   3.967   2.781
  771W        W 1768   2.108   4.031   0.765
  772W        W 1769   4.168   0.045   6.392
  773W        W 1770   7.343   2.117   5.908
  774W        W 1771   7.092   2.232   4.343
  775W        W 1772   6.493   3.895   5.073
  776W        W 1773   2.515   1.799   0.794
  777W        W 1774   6.630   6.620   1.175
  778W        W 1775   3.124   7.785   5.804
  779W        W 1776   5.938   1.678   4.757
  780W        W 1777   7.109   5.609   6.518
  781W        W 1778   1.134   6.866   4.996
  782W        W 1779   1.656   3.759   1.637
  783W        W 1780   4.643   5.628   3.647
  784W        W 1781   4.016   4.647   5.926
  785W        W 1782   5.047   1.042   4.128
  786W        W 1783   3.766   7.902   2.126
  787W        W 1784   3.286   0.397   2.933
  788W        W 1785   1.865   2.149   1.386
  789W        W 1786   3.753   5.742   4.657
  790W        W 1787   1.071   5.445   1.501
  791W        W 1788   6.106   4.836   0.078
  792W        W 1789   2.737   5.783   7.123
  793W        W 1790   3.640   2.004   5.247
  794W        W 1791   3.795   5.033   2.465
  795W        W 1792   3.186   4.194   3.709
  796W        W 1793   3.330   1.266   2.699
  797W        W 1794   4.654   1.189   2.178
  798W        W 1795   0.525   4.552   3.494
  799W        W 1796   6.131   2.153   6.427
  800W        W 1797   4.556   6.947   7.283
  801W        W 1798   6.473   0.547   2.431
  802W        W 1799   6.500   0.059   3.077
  803W        W 1800   1.614   6.652   7.090
  804W        W 1801   2.332   5.789   3.294
  805W        W 1802   5.904   1.690   1.617
  806W        W 1803   1.006   1.227   6.921
  807W        W 1804   6.480   7.704   5.554
  808W        W 1805   4.208   6.399   3.405
  809W        W 1806   0.909   5.930   7.376
  810W        W 1807   4.005   0.583   2.759
  811W        W 1808   7.845   7.616   6.621
  812W        W 1809   1.715   6.642   6.580
  813W        W 1810   6.118   5.986   6.749
  814W        W 1811   4.305   2.533   1.606
  815W        W 1812   4.318   4.651   2.085
  816W        W 1813   3.768   4.519   5.076
  817W        W 1814   4.190   4.198   2.256
  818W        W 1815   7.666   6.474   5.143
  819W        W 1816   6.384   7.839   1.292
  820W        W 1817   6.608   0.213   6.733
  821W        W 1818   3.763   2.086   4.748
  822W        W 1819   7.205   1.752   4.138
  823W        W 1820   1.296   2.412   0.789
  824W        W 1821   6.162   7.325   6.466
  825W        W 1822   3.514   7.018   2.518
  826W        W 1823   0.562   5.938   0.605
  827W        W 1824   1.685   2.433   3.449
  828W        W 1825   6.556   2.638   4.973
  829W        W 1826   6.952   5.942   1.665
  830W        W 1827   6.157   2.050   5.558
  831W        W 1828   6.826   6.195   4.881
  832W        W 1829   1.868   5.601   6.946
  833W        W 1830   0.746   5.164   0.605
  834W        W 1831   0.395   6.844   1.522
  835W        W 1832   3.861   6.226   7.146
  836W        W 1833   1.401   2.250   5.126
  837W        W 1834   7.136   6.388   5.279
  838W        W 1835   3.924   5.397   1.926
  839W        W 1836   2.833   6.986   5.195
  840W        W 1837   3.507   6.393   1.544
  841W        W 1838   5.747   3.683   2.058
  842W        W 1839   2.359   5.572   2.495
  843W        W 1840   1.363   6.639   3.671
  844W        W 1841   2.127   6.242   3.371
  845W        W 1842   6.327   5.839   1.194
  846W        W 1843   3.250   7.032   4.577
  847W        W 1844   6.818   7.803   2.567
  848W        W 1845   7.046   2.188   6.644
  849W        W 1846   4.116   1.247   2.187
  850W        W 1847   3.828   2.664   6.859
  851W        W 1848   2.855   3.500   1.182
  852W        W 1849   6.665   3.819   6.546
  853W        W 1850   3.385   1.639   1.078
  854W        W 1851   5.047   1.682   1.431
  855W        W 1852   5.812   1.732   5.263
  856W        W 1853   3.867   1.481   1.212
  857W        W 1854   4.110   2.018   6.216
  858W        W 1855   6.715   3.470   2.726
  859W        W 1856   2.275   5.533   5.953
  860W        W 1857   5.411   4.323   1.613
  861W        W 1858   7.841   2.761   5.253
  862W        W 1859   5.388   3.658   5.751
  863W        W 1860   4.852   6.855   5.179
  864W        W 1861   3.158   0.662   4.800
  865W        W 1862   4.643   7.389   3.108
  866W        W 1863   2.869   3.577   6.809
  867W        W 1864   2.866   7.395   6.577
  868W        W 1865   7.011   7.575   5.590
  869W        W 1866   5.712   5.893   6.408
  870W        W 1867   1.901   4.473   2.445
  871W        W 1868   1.964   2.074   3.670
  872W        W 1869   3.689   5.354   7.356
  873W        W 1870   5.689   2.873   1.061
  874W        W 1871   5.859   3.311   6.787
  875W        W 1872   6.573   2.378   1.726
  876W        W 1873   6.222   7.382   1.508
  877W        W 1874   1.315   2.808   2.102
  878W        W 1875   5.338   2.099   1.232
  879W        W 1876   6.116   2.671   0.510
  880W        W 1877   3.707   1.062   0.973
  881W        W 1878   1.449   1.352   0.461
  882W        W 1879   6.979   2.914   2.238
  883W        W 1880   7.059   3.544   4.647
  884W        W 1881   4.059   3.109   6.960
  885W        W 1882   1.529   1.256   3.146
  886W        W 1883   0.972   0.735   6.064
  887W        W 1884   1.818   1.361   6.857
  888W        W 1885   2.291   1.137   3.758
  889W        W 1886   3.349   3.854   0.781
  890W        W 1887   5.461   2.642   7.855
  891W        W 1888   1.569   4.823   7.176
  892W        W 1889   5.427   0.229   6.046
  893W        W 1890   6.667   3.710   2.288
  894W        W 1891   4.755   4.523   0.047
  895W        W 1892   6.862   6.768   1.829
  896W        W 1893   3.944   4.425   1.810
  897W        W 1894   4.136   1.266   5.191
  898W        W 1895   0.789   5.393   6.684
  899W        W 1896   3.690   0.213   1.285
  900W        W 1897   0.764   3.664   6.220
  901W        W 1898   2.842   7.005   0.503
  902W        W 1899   6.595   6.460   2.682
  903W        W 1900   3.426   1.842   6.393
  904W        W 1901   5.044   4.784   6.272
  905W        W 1902   1.366   3.266   7.417
  906W        W 1903   1.292   0.695   1.825
  907W        W 1904   5.611   7.485   7.451
  908W        W 1905   4.393   0.844   5.381
  909W        W 1906   3.391   4.795   2.148
  910W        W 1907   5.619   2.527   1.417
  911W        W 1908   5.288   2.117   0.532
  912W        W 1909   4.354   1.739   5.256
  913W        W 1910   7.060   0.416   1.786
  914W        W 1911   0.113   1.647   2.399
  915W        W 1912   6.209   4.401   2.556
  916W        W 1913   3.341   6.911   4.041
  917W        W 1914   3.068   7.036   6.875
  918W        W 1915   0.866   0.461   7.789
  919W        W 1916   0.570   3.197   6.340
  920W        W 1917   3.059   6.616   6.151
  921W        W 1918   4.566   5.508   4.760
  922W        W 1919   5.566   4.625   0.763
  923W        W 1920   6.945   6.390   6.136
  924W        W 1921   4.537   2.451   3.291
  925W        W 1922   3.116   6.191   4.268
  926W        W 1923   3.010   6.605   7.149
  927W        W 1924   3.818   2.869   1.497
  928W        W 1925   1.824   1.498   5.270
  929W        W 1926   6.264   6.989   1.185
  930W        W 1927   4.968   3.144   1.056
  931W        W 1928   6.464   3.958   0.551
  932W        W 1929   7.726   6.713   6.302
  933W        W 1930   4.949   4.987   7.826
  934W        W 1931   2.846   6.784   3.828
  935W        W 1932   1.561   5.641   6.500
  936W        W 1933   1.503   0.161   2.651
  937W        W 1934   2.141   3.512   2.809
  938W        W 1935   6.293   6.708   5.220
  939W        W 1936   5.137   4.947   6.818
  940W        W 1937   3.946   5.975   6.706
  941W        W 1938   4.542   5.723   1.873
  942W        W 1939   7.899   4.442   4.089
  943W        W 1940   1.863   2.548   6.229
  944W        W 1941   4.549   5.619   7.235
  945W        W 1942   6.720   6.248   3.137
  946W        W 1943   5.636   4.078   5.850
  947W        W 1944   6.706   1.186   1.322
  948W        W 1945   0.431   3.688   5.524
  949W        W 1946   4.128   3.580   7.121
  950W        W 1947   6.371   7.816   6.951
  951W        W 1948   0.266   4.425   5.181
  952W        W 1949   4.391   2.370   7.372
  953W        W 1950   4.470   4.579   3.081
  954W        W 1951   2.871   5.402   0.197
  955W        W 1952   3.296   3.037   3.196
  956W        W 1953   3.613   0.311   2.451
  957W        W 1954   6.916   1.795   4.561
  958W        W 1955   2.537   1.710   3.847
  959W        W 1956   5.670   5.713   3.321
  960W        W 1957   4.633   5.526   1.161
  961W        W 1958   6.834   3.126   3.913
  962W        W 1959   0.649   3.591   1.973
  963W        W 1960   5.344   1.831   5.435
  964W        W 1961   3.865   3.361   3.048
  965W        W 1962   1.432   5.290   5.464
  966W        W 1963   6.795   3.858   1.389
  967W        W 1964   2.673   2.546   3.580
  968W        W 1965   1.168   2.534   3.360
  969W        W 1966   2.876   4.821   5.135
  970W        W 1967   6.902   6.101   3.589
  971W        W 1968   1.355   5.907   1.498
  972W        W 1969   4.229   0.128   1.211
  973W        W 1970   3.618   0.818   4.956
  974W        W 1971   4.049   5.736   7.223
  975W        W 1972   5.019   7.519   1.277
  976W        W 1973   6.894   5.124   1.085
  977W        W 1974   6.332   5.826   2.281
  978W        W 1975   2.869   4.416   4.811
  979W        W 1976   3.422   3.083   6.227
  980W        W 1977   5.259   2.860   0.737
  981W        W 1978   6.696   1.884   4.117
  982W        W 1979   0.100   4.724   5.598
  983W        W 1980   5.934   0.491   1.259
  984W        W 1981   3.475   2.598   2.982
  985W        W 1982   1.446   0.912   4.780
  986W        W 1983   2.976   5.082   3.633
  987W        W 1984   5.644   2.875   2.587
  988W        W 1985   2.401   2.738   0.721
  989W        W 1986   2.860   3.847   2.959
  990W        W 1987   6.973   1.508   5.369
  991W        W 1988   5.473   7.818   6.929
  992W        W 1989   4.633   7.302   5.996
  993W        W 1990   3.374   2.705   4.170
  994W        W 1991   4.603   2.959   1.961
  995W        W 1992   4.216   4.035   3.719
  996W        W 1993   2.270   5.918   1.485
  997W        W 1994   4.437   2.909   5.469
  998W        W 1995   1.897   5.376   0.329
  999W        W 1996   0.127   4.484   1.052
 1000W        W 1997   6.829   3.378   1.102
 1001W        W 1998   7.075   5.888   6.074
 1002W        W 1999   4.567   4.097   3.341
 1003W        W 2000   4.265   3.237   7.463
 1004W        W 2001   1.140   6.131   4.725
 1005W        W 2002   6.058   6.425   3.818
 1006W        W 2003   3.862   0.127   6.823
 1007W        W 2004   6.736   1.916   1.988
 1008W        W 2005   7.115   4.391   2.576
 1009W        W 2006   2.297   1.412   2.431
 1010W        W 2007   6.694   7.477   6.732
 1011W        W 2008   3.255   5.971   2.825
 1012W        W 2009   6.232   3.686   6.295
 1013W        W 2010   4.751   7.184   1.539
 1014W        W 2011   2.147   5.284   4.888
 1015W        W 2012   4.916   6.775   0.281
 1016W        W 2013   5.265   4.977   0.215
 1017W        W 2014   1.364   5.868   0.278
 1018W        W 2015   5.822   0.062   2.705
 1019W        W 2016   5.125   6.079   4.312
 1020W        W 2017   5.423   2.415   2.538
 1021W        W 2018   5.087   4.110   0.696
 1022W        W 2019   5.804   1.738   2.108
 1023W        W 2020   2.823   3.851   3.480
 1024W        W 2021   3.670   0.151   6.348
 1025W        W 2022   5.303   3.087   3.112
 1026W        W 2023   6.180   4.620   3.018
 1027W        W 2024   5.563   5.217   4.149
 1028W        W 2025   7.890   5.750   6.744
 1029W        W 2026   6.096   5.483   1.486
 1030W        W 2027   0.711   7.523   7.213
 1031W        W 2028   7.557   2.143   4.037
 1032W        W 2029   4.013   6.031   5.778
 1033W        W 2030   2.471   4.702   6.080
 1034W        W 2031   1.703   5.600   5.106
 1035W        W 2032   4.758   4.280   3.782
 1036W        W 2033   3.231   6.488   5.301
 1037W        W 2034   1.830   3.704   5.567
 1038W        W 2035   1.710   3.110   4.656
 1039W        W 2036   4.708   4.657   1.287
 1040W        W 2037   5.624   5.662   1.743
 1041W        W 2038   7.752   3.404   1.672
 1042W        W 2039   6.629   0.773   3.592
 1043W        W 2040   6.663   2.446   0.034
 1044W        W 2041   6.718   4.374   5.071
 1045W        W 2042   2.010   6.819   2.393
 1046W        W 2043   2.635   4.960   6.528
 1047W        W 2044   2.567   4.120   4.518
 1048W        W 2045   0.244   1.654   4.007
 1049W        W 2046   1.632   3.642   2.666
 1050W        W 2047   4.314   7.831   3.332
 1051W        W 2048   6.567   5.737   3.778
 1052W        W 2049   5.208   5.920   6.983
 1053W        W 2050   2.891   0.267   1.138
 1054W        W 2051   0.999   4.229   7.596
 1055W        W 2052   4.831   0.743   2.398
 1056W        W 2053   1.272   4.183   6.737
 1057W        W 2054   4.463   0.235   1.679
 1058W        W 2055   2.619   6.401   7.763
 1059W        W 2056   5.407   5.458   0.283
 1060W        W 2057   3.610   4.719   0.288
 1061W        W 2058   3.491   5.170   1.778
 1062W        W 2059   4.734   1.518   1.059
 1063W        W 2060   1.925   6.186   7.808
 1064W        W 2061   2.922   6.223   6.823
 1065W        W 2062   4.766   6.360   5.086
 1066W        W 2063   1.184   2.545   5.880
 1067W        W 2064   2.779   7.530   6.087
 1068W        W 2065   1.271   0.397   0.115
 1069W        W 2066   1.348   2.086   2.631
 1070W        W 2067   2.435   2.979   7.490
 1071W        W 2068   5.798   1.475   2.566
 1072W        W 2069   5.180   1.716   0.908
 1073W        W 2070   3.078   4.888   1.754
 1074W        W 2071   1.970   7.995   2.925
 1075W        W 2072   6.282   7.190   5.401
 1076W        W 2073   4.622   4.485   2.583
 1077W        W 2074   1.240   3.820   3.634
 1078W        W 2075   5.222   6.439   6.840
 1079W        W 2076   5.755   1.329   6.039
 1080W        W 2077   7.339   2.617   3.190
 1081W        W 2078   6.108   2.061   3.723
 1082W        W 2079   2.196   2.649   6.631
 1083W        W 2080   0.328   4.056   4.809
 1084W        W 2081   0.596   1.483   5.691
 1085W        W 2082   0.073   4.492   3.035
 1086W        W 2083   5.229   6.451   1.635
 1087W        W 2084   4.175   1.877   6.710
 1088W        W 2085   0.763   3.570   3.637
 1089W        W 2086   0.908   3.850   3.218
 1090W        W 2087   4.932   6.576   5.599
 1091W        W 2088   1.147   4.300   4.566
 1092W        W 2089   1.186   1.417   6.128
 1093W        W 2090   5.231   4.584   3.440
 1094W        W 2091   4.593   0.092   4.716
 1095W        W 2092   4.452   0.499   5.007
 1096W        W 2093   0.448   1.997   4.869
 1097W        W 2094   2.060   7.115   0.197
 1098W        W 2095   6.530   3.690   1.783
 1099W        W 2096   3.379   2.235   3.956
 1100W        W 2097   0.616   0.772   0.587
 1101W        W 2098   4.868   2.245   1.320
 1102W        W 2099   7.654   0.891   0.276
 1103W        W 2100   1.378   4.933   1.916
 1104W        W 2101   0.156   5.239   1.524
 1105W        W 2102   2.488   5.092   5.312
 1106W        W 2103   3.348   7.924   2.664
 1107W        W 2104   6.271   0.547   3.908
 1108W        W 2105   5.733   1.847   4.280
 1109W        W 2106   1.562   3.306   6.439
 1110W        W 2107   5.942   1.824   2.928
 1111W        W 2108   0.221   7.286   4.087
 1112W        W 2109   0.940   3.666   5.371
 1113W        W 2110   1.293   2.073   4.667
 1114W        W 2111   6.000   1.628   1.088
 1115W        W 2112   4.348   1.408   1.353
 1116W        W 2113   7.717   0.054   6.336
 1117W        W 2114   2.196   1.388   5.591
 1118W        W 2115   7.530   1.497   3.226
 1119W        W 2116   4.853   5.746   2.326
 1120W        W 2117   0.993   6.267   0.289
 1121W        W 2118   6.718   0.542   3.140
 1122W        W 2119   0.716   1.598   3.556
 1123W        W 2120   6.447   4.893   7.460
 1124W        W 2121   1.535   2.387   2.985
 1125W        W 2122   3.156   5.309   0.610
 1126W        W 2123   3.065   1.451   2.303
 1127W        W 2124   5.575   6.088   5.115
 1128W        W 2125   1.223   5.647   3.437
 1129W        W 2126   6.251   4.323   5.272
 1130W        W 2127   5.858   7.738   3.494
 1131W        W 2128   3.937   0.428   5.117
 1132W        W 2129   2.617   1.296   6.706
 1133W        W 2130   4.876   3.226   2.889
 1134W        W 2131   7.261   2.518   5.567
 1135W        W 2132   7.396   7.954   6.727
 1136W        W 2133   2.957   0.009   1.712
 1137W        W 2134   0.948   6.192   1.676
 1138W        W 2135   5.939   2.842   4.364
 1139W        W 2136   3.850   0.956   7.082
 1140W        W 2137   3.735   0.198   2.974
 1141W        W 2138   3.294   2.917   2.184
 1142W        W 2139   6.436   4.482   3.824
 1143W        W 2140   2.342   5.532   7.331
 1144W        W 2141   3.812   4.566   0.740
 1145W        W 2142   3.598   6.200   3.574
 1146W        W 2143   0.571   1.867   1.647
 1147W        W 2144   5.341   1.168   2.559
 1148W        W 2145   6.109   2.507   7.172
 1149W        W 2146   3.222   6.571   2.573
 1150W        W 2147   1.880   6.430   0.288
 1151W        W 2148   6.401   2.250   0.451
 1152W        W 2149   3.517   6.629   7.045
 1153W        W 2150   7.300   6.952   4.486
 1154W        W 2151   7.064   2.452   6.190
 1155W        W 2152   3.100   1.429   5.665
 1156W        W 2153   4.204   7.140   4.584
 1157W        W 2154   4.767   6.476   4.573
 1158W        W 2155   7.370   1.299   1.978
 1159W        W 2156   5.698   5.144   0.020
 1160W        W 2157   1.337   2.765   7.597
 1161W        W 2158   2.986   3.018   5.388
 1162W        W 2159   0.815   2.832   6.070
 1163W        W 2160   4.116   2.164   5.149
 1164W        W 2161   4.388   2.697   6.949
 1165W        W 2162   3.366   6.878   1.636
 1166W        W 2163   3.465   2.982   4.878
 1167W        W 2164   7.696   4.158   0.939
 1168W        W 2165   6.216   2.024   4.235
 1169W        W 2166   3.591   2.628   2.476
 1170W        W 2167   4.706   1.539   4.967
 1171W        W 2168   2.960   3.068   4.901
 1172W        W 2169   3.256   4.322   6.278
 1173W        W 2170   2.427   2.205   3.845
 1174W        W 2171   5.098   2.438   7.528
 1175W        W 2172   6.889   5.508   5.273
 1176W        W 2173   3.866   6.074   3.182
 1177W        W 2174   7.154   5.903   5.146
 1178W        W 2175   0.521   6.299   4.101
 1179W        W 2176   7.142   3.025   4.367
 1180W        W 2177   4.584   5.345   5.835
 1181W        W 2178   5.336   0.812   3.004
 1182W        W 2179   2.132   6.619   1.199
 1183W        W 2180   3.571   1.330   5.165
 1184W        W 2181   6.589   2.303   5.384
 1185W        W 2182   7.309   2.856   5.151
 1186W        W 2183   3.879   3.061   3.882
 1187W        W 2184   5.844   4.072   2.386
 1188W        W 2185   4.474   7.876   5.613
 1189W        W 2186   1.176   1.013   3.403
 1190W        W 2187   1.459   2.259   6.185
 1191W        W 2188   3.737   5.247   3.353
 1192W        W 2189   1.059   5.505   4.275
 1193W        W 2190   2.234   4.092   1.568
 1194W        W 2191   5.862   4.917   5.798
 1195W        W 2192   4.116   7.092   4.015
 1196W        W 2193   4.262   1.749   3.509
 1197W        W 2194   6.787   2.673   4.438
 1198W        W 2195   7.454   1.929   2.976
 1199W        W 2196   0.203   4.086   4.265
 1200W        W 2197   4.685   3.663   5.179
 1201W        W 2198   2.436   0.946   4.228
 1202W        W 2199   5.934   4.410   5.644
 1203W        W 2200   2.980   6.672   4.307
 1204W        W 2201   1.048   4.026   4.985
 1205W        W 2202   0.735   1.688   6.119
 1206W        W 2203   1.676   2.524   1.114
 1207W        W 2204   3.840   2.906   2.811
 1208W        W 2205   6.796   3.251   5.806
 1209W        W 2206   7.463   5.082   2.016
 1210W        W 2207   1.269   6.047   3.125
 1211W        W 2208   3.698   6.286   5.440
 1212W        W 2209   5.944   4.985   7.589
 1213W        W 2210   1.673   1.863   4.944
 1214W        W 2211   4.367   2.250   1.173
 1215W        W 2212   1.388   1.064   4.314
 1216W        W 2213   6.832   5.648   1.042
 1217W        W 2214   4.275   0.620   1.025
 1218W        W 2215   7.679   5.380   1.661
 1219W        W 2216   5.291   2.021   4.554
 1220W        W 2217   5.569   6.938   5.984
 1221W        W 2218   4.389   2.411   5.619
 1222W        W 2219   0.688   6.588   1.858
 1223W        W 2220   0.983   6.145   2.600
 1224W        W 2221   2.083   6.870   7.186
 1225W        W 2222   1.304   4.717   6.736
 1226W        W 2223   5.744   5.115   1.495
 1227W        W 2224   6.736   5.286   7.274
 1228W        W 2225   4.117   3.775   2.533
 1229W        W 2226   6.309   3.053   5.136
 1230W        W 2227   6.988   6.137   2.508
 1231W        W 2228   4.496   4.123   5.436
 1232W        W 2229   6.211   3.040   6.516
 1233W        W 2230   2.967   6.242   0.673
 1234W        W 2231   6.046   2.648   6.232
 1235W        W 2232   1.805   6.854   0.574
 1236W        W 2233   4.244   7.060   1.947
 1237W        W 2234   3.749   4.907   4.215
 1238W        W 2235   6.031   5.518   2.006
 1239W        W 2236   1.515   2.540   2.481
 1240W        W 2237   2.568   5.985   2.290
 1241W        W 2238   3.724   2.917   5.855
 1242W        W 2239   6.433   2.879   4.153
 1243W        W 2240   2.137   3.591   1.500
 1244W        W 2241   0.346   0.876   3.100
 1245W        W 2242   0.983   7.158   6.398
 1246W        W 2243   5.973   5.486   6.598
 1247W        W 2244   2.343   4.199   7.669
 1248W        W 2245   2.738   4.761   5.648
 1249W        W 2246   5.222   3.428   3.483
 1250W        W 2247   3.786   0.382   1.946
 1251W        W 2248   4.451   4.624   5.587
 1252W        W 2249   6.803   0.177   2.196
 1253W        W 2250   5.255   5.776   2.644
 1254W        W 2251   4.277   3.764   3.052
 1255W        W 2252   1.479   6.060   2.628
 1256W        W 2253   2.516   3.823   0.565
 1257W        W 2254   6.995   0.848   7.024
 1258W        W 2255   3.094   0.960   2.350
 1259W        W 2256   4.242   5.804   4.454
 1260W        W 2257   4.511   2.203   6.882
 1261W        W 2258   0.468   6.050   1.127
 1262W        W 2259   4.334   5.112   1.834
 1263W        W 2260   5.756   2.191   1.766
 1264W        W 2261   3.745   0.414   3.857
 1265W        W 2262   3.483   2.563   6.110
 1266W        W 2263   1.705   6.474   4.545
 1267W        W 2264   5.992   1.226   1.815
 1268W        W 2265   4.477   2.489   0.737
 1269W        W 2266   0.296   4.088   3.658
 1270W        W 2267   2.425   1.279   4.620
 1271W        W 2268   4.681   2.054   4.373
 1272W        W 2269   6.826   2.031   2.497
 1273W        W 2270   6.304   5.035   2.757
 1274W        W 2271   5.400   0.236   7.216
 1275W        W 2272   4.701   1.730   6.887
 1276W        W 2273   1.009   1.208   2.956
 1277W        W 2274   0.550   5.190   6.295
 1278W        W 2275   4.721   6.522   2.120
 1279W        W 2276   0.743   3.792   0.636
 1280W        W 2277   2.184   4.454   4.486
 1281W        W 2278   3.979   1.430   1.712
 1282W        W 2279   5.838   2.180   3.273
 1283W        W 2280   2.184   7.280   2.231
 1284W        W 2281   2.379   5.644   1.050
 1285W        W 2282   3.181   3.223   6.959
 1286W        W 2283   0.600   1.092   2.684
 1287W        W 2284   3.593   4.437   5.743
 1288W        W 2285   6.530   4.334   5.718
 1289W        W 2286   3.590   1.274   5.656
 1290W        W 2287   3.206   2.423   2.214
 1291W        W 2288   0.250   6.374   2.079
 1292W        W 2289   6.195   2.604   2.492
 1293W        W 2290   6.753   4.107   1.983
 1294W        W 2291   2.046   4.302   3.207
 1295W        W 2292   5.870   5.228   2.428
 1296W        W 2293   3.845   7.477   6.969
 1297W        W 2294   3.817   3.604   6.693
 1298W        W 2295   3.783   1.001   6.022
 1299W        W 2296   4.895   4.834   5.776
 1300W        W 2297   0.653   7.587   6.273
 1301W        W 2298   5.107   5.058   1.944
 1302W        W 2299   3.138   1.737   2.768
 1303W        W 2300   4.277   5.307   5.140
 1304W        W 2301   2.563   6.382   1.947
 1305W        W 2302   5.566   4.946   7.138
 1306W        W 2303   3.654   2.660   0.571
 1307W        W 2304   0.919   4.470   5.871
 1308W        W 2305   0.862   7.676   6.740
 1309W        W 2306   4.089   5.340   4.620
 1310W        W 2307   2.033   0.642   5.194
 1311W        W 2308   4.222   6.576   7.243
 1312W        W 2309   1.386   0.550   4.346
 1313W        W 2310   1.470   6.364   7.983
 1314W        W 2311   6.023   6.922   3.649
 1315W        W 2312   1.274   3.278   2.802
 1316W        W 2313   0.504   4.679   6.266
 1317W        W 2314   3.391   4.321   4.832
 1318W        W 2315   3.819   2.116   0.081
 1319W        W 2316   2.143   7.673   2.569
 1320W        W 2317   5.505   4.425   2.494
 1321W        W 2318   1.804   1.020   5.484
 1322W        W 2319   1.165   7.331   6.993
 1323W        W 2320   3.415   6.955   0.472
 1324W        W 2321   5.742   7.567   2.530
 1325W        W 2322   4.229   0.226   3.720
 1326W        W 2323   1.259   5.270   3.844
 1327W        W 2324   7.124   5.003   5.923
 1328W        W 2325   2.807   2.036   5.603
 1329W        W 2326   1.575   0.561   2.257
 1330W        W 2327   4.358   6.616   3.842
 1331W        W 2328   6.459   2.261   2.230
 1332W        W 2329   3.030   2.714   6.920
 1333W        W 2330   6.473   0.969   3.114
 1334W        W 2331   6.261   3.886   2.643
 1335W        W 2332   4.757   1.404   6.151
 1336W        W 2333   4.030   7.424   1.079
 1337W        W 2334   4.879   7.137   2.736
 1338W        W 2335   0.279   1.723   5.340
 1339W        W 2336   4.118   0.267   2.355
 1340W        W 2337   4.790   7.396   7.249
 1341W        W 2338   5.215   0.421   1.043
 1342W        W 2339   3.411   2.001   7.295
 1343W        W 2340   0.734   4.599   5.385
 1344W        W 2341   7.426   6.795   5.446
 1345W        W 2342   2.213   4.958   0.537
 1346W        W 2343   5.607   0.300   6.749
 1347W        W 2344   2.609   3.397   3.620
 1348W        W 2345   5.162   3.331   0.557
 1349W        W 2346   5.835   1.353   4.351
 1350W        W 2347   6.739   0.244   6.243
 1351W        W 2348   7.265   4.420   0.807
 1352W        W 2349   6.014   4.810   3.822
 1353W        W 2350   5.892   3.650   5.877
 1354W        W 2351   7.836   1.651   6.841
 1355W        W 2352   7.876   1.214   6.109
 1356W        W 2353   4.000   7.493   1.803
 1357W        W 2354   6.712   7.403   5.203
 1358W        W 2355   4.901   2.787   3.157
 1359W        W 2356   1.829   2.680   1.564
 1360W        W 2357   3.917   0.189   5.898
 1361W        W 2358   7.579   4.603   2.147
 1362W        W 2359   4.722   0.206   5.315
 1363W        W 2360   2.287   2.530   7.671
 1364W        W 2361   1.400   3.811   5.259
 1365W        W 2362   4.085   1.878   1.456
 1366W        W 2363   3.017   7.074   2.566
 1367W        W 2364   2.796   1.957   6.562
 1368W        W 2365   1.907   4.037   1.978
 1369W        W 2366   1.325   6.511   5.953
 1370W        W 2367   1.101   6.842   7.221
 1371W        W 2368   3.747   3.071   0.869
 1372W        W 2369   4.585   1.870   6.401
 1373W        W 2370   3.342   5.304   6.888
 1374W        W 2371   5.161   5.318   2.388
 1375W        W 2372   3.764   5.856   2.727
 1376W        W 2373   2.421   6.025   3.730
 1377W        W 2374   3.903   6.196   4.471
 1378W        W 2375   5.206   7.198   3.878
 1379W        W 2376   2.135   6.392   6.424
 1380W        W 2377   0.248   7.365   5.991
 1381W        W 2378   5.966   6.645   0.968
 1382W        W 2379   6.641   4.609   2.746
 1383W        W 2380   2.094   3.487   4.815
 1384W        W 2381   5.710   6.349   1.720
 1385W        W 2382   2.056   4.724   7.019
 1386W        W 2383   3.483   2.893   7.172
 1387W        W 2384   5.867   5.256   3.527
 1388W        W 2385   2.992   5.700   5.309
 1389W        W 2386   2.193   6.697   2.877
 1390W        W 2387   5.063   4.197   2.451
 1391W        W 2388   3.297   5.973   0.390
 1392W        W 2389   4.690   2.347   5.221
 1393W        W 2390   6.728   2.251   4.700
 1394W        W 2391   5.773   6.351   6.615
 1395W        W 2392   0.738   1.456   1.388
 1396W        W 2393   5.353   3.013   0.207
 1397W        W 2394   4.462   5.249   0.448
 1398W        W 2395   0.998   3.833   1.075
 1399W        W 2396   5.768   0.592   2.800
 1400W        W 2397   4.941   4.411   5.484
 1401W        W 2398   0.234   5.602   1.170
 1402W        W 2399   7.242   1.270   3.584
 1403W        W 2400   3.847   2.162   1.798
 1404W        W 2401   7.135   5.341   2.789
 1405W        W 2402   3.917   6.506   6.715
 1406W        W 2403   1.827   5.797   1.685
 1407W        W 2404   7.621   2.915   1.591
 1408W        W 2405   1.305   5.646   4.725
 1409W        W 2406   5.524   5.282   6.743
 1410W        W 2407   7.643   3.038   4.330
 1411W        W 2408   3.851   5.807   5.361
 1412W        W 2409   3.966   6.695   1.643
 1413W        W 2410   6.812   6.589   7.278
 1414W        W 2411   7.898   4.301   4.635
 1415W        W 2412   1.020   5.805   3.875
 1416W        W 2413   1.536   4.774   3.817
 1417W        W 2414   5.832   6.753   7.945
 1418W        W 2415   0.048   5.879   6.269
 1419W        W 2416   1.432   0.882   0.250
 1420W        W 2417   0.845   4.088   2.787
 1421W        W 2418   5.564   4.183   0.488
 1422W        W 2419   3.512   3.783   7.438
 1423W        W 2420   1.096   3.595   6.606
 1424W        W 2421   1.360   1.271   7.634
 1425W        W 2422   3.015   4.640   3.880
 1426W        W 2423   4.620   1.969   3.196
 1427W        W 2424   0.879   0.984   7.684
 1428W        W 2425   5.083   6.223   0.614
 1429W        W 2426   5.873   4.564   2.178
 1430W        W 2427   2.610   2.579   7.219
 1431W        W 2428   5.089   7.044   5.741
 1432W        W 2429   5.370   7.527   3.496
 1433W        W 2430   2.199   6.428   7.442
 1434W        W 2431   3.317   3.199   5.731
 1435W        W 2432   6.563   5.023   7.935
 1436W        W 2433   6.319   4.350   2.066
 1437W        W 2434   5.286   0.768   1.698
 1438W        W 2435   0.105   0.652   6.718
 1439W        W 2436   0.055   3.827   1.595
 1440W        W 2437   1.412   6.907   6.256
 1441W        W 2438   6.112   3.036   2.734
 1442W        W 2439   4.706   2.550   6.547
 1443W        W 2440   3.539   0.638   6.260
 1444W        W 2441   7.365   0.848   0.793
 1445W        W 2442   5.489   1.367   5.610
 1446W        W 2443   3.636   7.747   5.975
 1447W        W 2444   4.684   1.209   4.449
 1448W        W 2445   0.589   4.384   2.211
 1449W        W 2446   1.919   4.654   6.106
 1450W        W 2447   4.083   2.547   3.091
 1451W        W 2448   6.730   0.259   3.556
 1452W        W 2449   2.670   5.599   1.456
 1453W        W 2450   5.668   5.973   3.771
 1454W        W 2451   6.406   3.580   5.832
 1455W        W 2452   2.536   1.558   1.562
 1456W        W 2453   7.854   1.685   6.329
 1457W        W 2454   1.969   3.019   6.349
 1458W        W 2455   6.679   4.971   3.112
 1459W        W 2456   1.606   1.827   0.567
 1460W        W 2457   7.264   4.633   6.301
 1461W        W 2458   0.772   6.428   7.354
 1462W        W 2459   2.087   5.911   5.616
 1463W        W 2460   0.606   1.603   2.631
 1464W        W 2461   0.371   6.781   3.993
 1465W        W 2462   6.149   4.630   4.386
 1466W        W 2463   7.016   2.151   1.632
 1467W        W 2464   0.929   0.801   0.160
 1468W        W 2465   0.671   4.140   4.445
 1469W        W 2466   4.962   0.486   4.964
 1470W        W 2467   2.566   4.211   3.188
 1471W        W 2468   5.965   7.902   2.236
 1472W        W 2469   3.275   0.936   5.906
 1473W        W 2470   1.060   3.117   5.375
 1474W        W 2471   3.506   0.782   2.630
 1475W        W 2472   3.359   0.181   3.610
 1476W        W 2473   5.142   4.003   3.282
 1477W        W 2474   1.489   1.379   5.679
 1478W        W 2475   5.451   1.788   6.163
 1479W        W 2476   6.768   4.094   3.458
 1480W        W 2477   1.712   5.627   2.560
 1481W        W 2478   4.922   7.755   7.954
 1482W        W 2479   7.452   7.117   6.167
 1483W        W 2480   7.553   7.071   6.666
 1484W        W 2481   4.367   7.134   2.738
 1485W        W 2482   5.626   6.310   6.081
 1486W        W 2483   4.375   1.428   6.583
 1487W        W 2484   6.850   2.263   7.515
 1488W        W 2485   1.224   0.448   4.842
 1489W        W 2486   5.091   5.987   5.290
 1490W        W 2487   2.317   4.210   4.057
 1491W        W 2488   4.488   7.283   0.365
 1492W        W 2489   2.842   5.757   0.561
 1493W        W 2490   6.527   2.737   2.123
 1494W        W 2491   5.572   6.396   0.728
 1495W        W 2492   0.772   5.325   5.857
 1496W        W 2493   4.819   6.222   6.624
 1497W        W 2494   6.516   7.045   3.552
 1498W        W 2495   6.472   1.659   6.968
 1499W        W 2496   7.441   0.621   7.167
 1500W        W 2497   1.483   5.405   7.285
 1501W        W 2498   5.159   1.004   2.116
 1502W        W 2499   6.492   7.742   2.154
 1503W        W 2500   5.107   0.376   3.311
 1504W        W 2501   7.375   3.688   5.400
 1505W        W 2502   7.116   6.127   6.536
 1506W        W 2503   1.374   2.243   6.679
 1507W        W 2504   1.891   5.764   1.092
 1508W        W 2505   1.757   1.683   6.409
 1509W        W 2506   4.341   0.846   2.420
 1510W        W 2507   1.902   3.145   3.815
 1511W        W 2508   4.764   6.084   7.127
 1512W        W 2509   1.967   7.072   7.661
 1513W        W 2510   5.401   5.955   0.939
 1514W        W 2511   7.558   5.089   3.023
 1515W        W 2512   1.271   7.017   2.136
 1516W        W 2513   6.236   5.395   3.205
 1517W        W 2514   2.407   3.731   1.080
 1518W        W 2515   1.596   3.425   3.504
 1519W        W 2516   7.450   0.889   1.619
 1520W        W 2517   4.582   7.253   4.197
 1521W        W 2518   7.020   1.706   1.081
 1522W        W 2519   7.878   2.486   1.363
 1523W        W 2520   1.867   1.741   2.111
 1524W        W 2521   7.736   1.658   4.097
 1525W        W 2522   4.186   5.590   2.324
 1526W        W 2523   1.264   4.786   0.805
 1527W        W 2524   0.613   1.097   1.047
 1528W        W 2525   7.382   2.088   2.492
 1529W        W 2526   2.741   4.284   6.260
 1530W        W 2527   3.482   1.428   6.694
 1531W        W 2528   6.762   1.928   3.011
 1532W        W 2529   7.266   7.399   3.339
 1533W        W 2530   4.071   4.941   3.803
 1534W        W 2531   5.972   0.430   2.378
 1535W        W 2532   5.512   0.208   2.328
 1536W        W 2533   0.706   1.167   6.140
 1537W        W 2534   6.350   4.656   6.739
 1538W        W 2535   3.440   2.862   3.672
 1539W        W 2536   5.385   5.288   6.238
 1540W        W 2537   0.639   5.966   2.937
 1541W        W 2538   2.758   0.404   2.886
 1542W        W 2539   3.244   4.993   4.184
 1543W        W 2540   2.871   4.955   2.246
 1544W        W 2541   6.531   1.638   1.032
 1545W        W 2542   2.005   2.724   2.522
 1546W        W 2543   6.187   7.848   1.764
 1547W        W 2544   2.550   5.434   6.361
 1548W        W 2545   7.378   3.812   3.803
 1549W        W 2546   2.820   0.576   6.720
 1550W        W 2547   6.675   2.820   6.589
 1551W        W 2548   2.247   1.488   1.093
 1552W        W 2549   0.369   4.783   2.450
 1553W        W 2550   0.529   1.378   7.039
 1554W        W 2551   6.782   5.295   6.762
 1555W        W 2552   2.117   0.207   3.384
 1556W        W 2553   6.991   2.966   6.195
 1557W        W 2554   7.540   5.825   6.349
 1558W        W 2555   0.416   6.185   1.625
 1559W        W 2556   6.394   7.096   4.896
 1560W        W 2557   3.519   4.218   1.968
 1561W        W 2558   6.865   1.409   1.927
 1562W        W 2559   0.744   7.144   4.092
 1563W        W 2560   1.574   5.516   4.330
 1564W        W 2561   3.147   2.052   0.868
 1565W        W 2562   3.215   4.785   0.633
 1566W        W 2563   1.708   1.372   1.793
 1567W        W 2564   4.863   2.498   7.076
 1568W        W 2565   0.645   4.087   5.294
 1569W        W 2566   5.015   2.851   4.583
 1570W        W 2567   6.034   1.526   6.699
 1571W        W 2568   4.927   7.268   0.101
 1572W        W 2569   6.785   0.973   4.390
 1573W        W 2570   0.615   6.147   5.430
 1574W        W 2571   0.035   4.761   4.824
 1575W        W 2572   1.766   3.477   7.196
 1576W        W 2573   5.036   3.384   7.042
 1577W        W 2574   5.932   7.201   2.821
 1578W        W 2575   1.755   5.180   2.998
 1579W        W 2576   7.541   4.648   4.808
 1580W        W 2577   6.536   3.103   3.013
 1581W        W 2578   2.931   3.433   3.203
 1582W        W 2579   5.537   5.581   5.061
 1583W        W 2580   1.155   4.624   4.158
 1584W        W 2581   5.376   2.212   5.827
 1585W        W 2582   0.313   1.428   6.296
 1586W        W 2583   2.520   2.901   6.287
 1587W        W 2584   0.552   2.385   6.186
 1588W        W 2585   4.922   7.658   2.587
 1589W        W 2586   4.500   4.740   6.093
 1590W        W 2587   5.200   6.171   5.765
 1591W        W 2588   6.165   4.524   1.183
 1592W        W 2589   2.561   3.441   5.684
 1593W        W 2590   5.423   4.929   7.635
 1594W        W 2591   5.430   3.826   1.678
 1595W        W 2592   6.393   4.912   0.889
 1596W        W 2593   1.822   5.400   5.792
 1597W        W 2594   3.291   2.139   4.901
 1598W        W 2595   4.417   0.230   5.984
 1599W        W 2596   1.841   0.870   2.563
 1600W        W 2597   6.170   3.861   5.478
 1601W        W 2598   5.244   4.147   3.748
 1602W        W 2599   6.618   0.605   1.962
 1603W        W 2600   0.870   4.468   6.895
 1604W        W 2601   2.746   5.009   7.874
 1605W        W 2602   5.483   2.430   0.884
 1606W        W 2603   4.627   5.059   5.383
 1607W        W 2604   2.760   2.191   6.129
 1608W        W 2605   1.919   6.387   2.159
 1609W        W 2606   2.327   3.666   4.344
 1610W        W 2607   5.676   5.553   2.826
 1611W        W 2608   1.051   1.290   3.817
 1612W        W 2609   7.291   7.316   2.272
 1613W        W 2610   4.068   4.214   3.246
 1614W        W 2611   3.419   0.969   3.102
 1615W        W 2612   5.449   5.436   7.281
 1616W        W 2613   2.065   2.644   0.346
 1617W        W 2614   3.034   5.471   3.980
 1618W        W 2615   0.620   5.243   1.296
 1619W        W 2616   2.622   5.148   4.813
 1620W        W 2617   2.163   6.658   7.915
 1621W        W 2618   1.602   6.270   1.781
 1622W        W 2619   6.339   4.816   2.293
 1623W        W 2620   3.329   3.497   6.552
 1624W        W 2621   2.293   0.993   2.762
 1625W        W 2622   2.064   1.733   1.649
 1626W        W 2623   2.884   2.394   4.043
 1627W        W 2624   2.825   5.401   6.785
 1628W        W 2625   5.591   5.656   2.285
 1629W        W 2626   2.778   2.822   4.382
 1630W        W 2627   7.803   5.945   3.278
 1631W        W 2628   3.722   7.445   4.089
 1632W        W 2629   3.692   6.654   3.768
 1633W        W 2630   2.789   2.105   5.086
 1634W        W 2631   0.554   0.055   6.524
 1635W        W 2632   4.264   4.807   6.936
 1636W        W 2633   1.743   6.623   7.582
 1637W        W 2634   7.843   1.510   1.063
 1638W        W 2635   3.987   4.935   0.007
 1639W        W 2636   5.461   1.542   4.618
 1640W        W 2637   4.905   5.368   0.192
 1641W        W 2638   5.289   3.264   2.588
 1642W        W 2639   1.690   2.635   6.701
 1643W        W 2640   0.263   0.913   6.308
 1644W        W 2641   4.026   4.478   4.016
 1645W        W 2642   5.716   2.767   3.866
 1646W        W 2643   4.372   4.493   7.313
 1647W        W 2644   2.066   5.573   2.913
 1648W        W 2645   1.392   4.104   1.285
 1649W        W 2646   4.662   6.151   5.559
 1650W        W 2647   3.559   3.314   1.390
 1651W        W 2648   3.879   0.892   5.402
 1652W        W 2649   2.191   0.722   3.471
 1653W        W 2650   7.216   6.753   4.953
 1654W        W 2651   2.964   6.735   1.329
 1655W        W 2652   1.848   3.091   6.840
 1656W        W 2653   5.538   2.911   4.721
 1657W        W 2654   3.316   0.838   4.351
 1658W        W 2655   1.998   7.035   4.874
 1659W        W 2656   0.491   0.636   5.938
 1660W        W 2657   2.812   5.795   4.325
 1661W        W 2658   1.132   4.227   5.459
 1662W        W 2659   1.158   1.787   3.740
 1663W        W 2660   4.986   0.783   1.297
 1664W        W 2661   3.985   2.675   5.487
 1665W        W 2662   5.879   0.768   3.666
 1666W        W 2663   5.814   0.260   1.885
 1667W        W 2664   5.257   6.497   2.134
 1668W        W 2665   2.235   2.384   3.402
 1669W        W 2666   4.378   2.759   4.028
 1670W        W 2667   2.620   1.599   5.793
 1671W        W 2668   4.535   0.646   6.240
 1672W        W 2669   0.541   0.505   6.948
 1673W        W 2670   2.737   5.077   4.111
 1674W        W 2671   5.541   5.899   4.642
 1675W        W 2672   5.878   5.118   3.006
 1676W        W 2673   3.806   5.808   4.153
 1677W        W 2674   1.820   7.013   1.090
 1678W        W 2675   1.109   1.941   0.758
 1679W        W 2676   2.319   1.978   6.390
 1680W        W 2677   6.414   4.417   0.756
 1681W        W 2678   7.637   2.394   2.839
 1682W        W 2679   1.110   2.562   4.803
 1683W        W 2680   2.541   5.998   5.379
 1684W        W 2681   2.122   5.142   6.727
 1685W        W 2682   7.175   4.858   2.367
 1686W        W 2683   5.365   7.835   2.735
 1687W        W 2684   4.154   5.306   7.675
 1688W        W 2685   2.875   3.038   2.893
 1689W        W 2686   2.027   6.947   5.458
 1690W        W 2687   2.041   5.610   4.110
 1691W        W 2688   6.403   6.769   3.982
 1692W        W 2689   6.980   2.652   3.967
 1693W        W 2690   6.971   4.361   3.066
 1694W        W 2691   2.394   2.213   6.850
 1695W        W 2692   0.606   3.903   2.379
 1696W        W 2693   5.361   4.088   5.430
 1697W        W 2694   7.859   0.718   0.733
 1698W        W 2695   3.836   0.063   3.457
 1699W        W 2696   4.750   7.040   0.738
 1700W        W 2697   5.612   6.212   7.082
 1701W        W 2698   2.257   6.155   1.051
 1702W        W 2699   2.981   5.203   5.527
 1703W        W 2700   7.963   2.941   1.151
 1704W        W 2701   2.937   5.263   2.659
 1705W        W 2702   7.233   6.682   6.448
 1706W        W 2703   0.698   0.513   4.822
 1707W        W 2704   3.826   2.285   2.752
 1708W        W 2705   1.018   0.441   1.453
 1709W        W 2706   4.779   4.348   6.332
 1710W        W 2707   5.245   2.273   1.692
 1711W        W 2708   4.787   6.016   3.327
 1712W        W 2709   1.022   7.928   7.244
 1713W        W 2710   1.444   7.620   7.325
 1714W        W 2711   4.325   6.438   1.299
 1715W        W 2712   1.082   3.149   6.351
 1716W        W 2713   2.924   3.974   5.053
 1717W        W 2714   4.837   7.859   2.095
 1718W        W 2715   0.650   6.261   4.703
 1719W        W 2716   6.004   2.169   7.581
 1720W        W 2717   3.803   6.705   0.691
 1721W        W 2718   4.268   4.271   6.190
 1722W        W 2719   4.578   1.855   1.418
 1723W        W 2720   3.054   1.582   3.698
 1724W        W 2721   1.359   4.086   1.878
 1725W        W 2722   1.706   3.209   5.937
 1726W        W 2723   1.378   1.067   2.169
 1727W        W 2724   6.593   3.259   3.489
 1728W        W 2725   4.654   3.413   0.649
 1729W        W 2726   4.031   6.197   3.846
 1730W        W 2727   4.564   3.477   4.645
 1731W        W 2728   5.032   3.657   0.917
 1732W        W 2729   2.348   5.985   4.240
 1733W        W 2730   4.096   2.923   1.934
 1734W        W 2731   3.789   7.480   4.605
 1735W        W 2732   4.276   4.549   1.061
 1736W        W 2733   4.741   4.754   7.080
 1737W        W 2734   0.537   2.680   1.778
 1738W        W 2735   4.413   5.092   1.313
 1739W        W 2736   2.460   5.740   0.215
 1740W        W 2737   1.126   3.445   4.942
 1741W        W 2738   2.133   5.478   5.375
 1742W        W 2739   4.029   4.145   6.642
 1743W        W 2740   6.863   1.241   0.845
 1744W        W 2741   4.960   1.240   0.699
 1745W        W 2742   0.449   6.263   2.574
 1746W        W 2743   4.769   5.734   6.736
 1747W        W 2744   0.193   5.976   5.780
 1748W        W 2745   6.816   7.498   3.618
 1749W        W 2746   6.238   7.588   6.002
 1750W        W 2747   3.790   4.513   2.292
 1751W        W 2748   5.372   0.304   2.869
 1752W        W 2749   5.870   2.336   2.786
 1753W        W 2750   3.950   0.938   3.147
 1754W        W 2751   7.586   6.030   5.367
 1755W        W 2752   2.219   1.344   1.945
 1756W        W 2753   0.026   1.199   4.083
 1757W        W 2754   0.951   6.496   7.828
 1758W        W 2755   2.523   5.360   0.639
 1759W        W 2756   1.348   0.356   0.975
 1760W        W 2757   4.719   5.971   4.601
 1761W        W 2758   0.921   1.406   7.387
 1762W        W 2759   1.294   0.232   7.595
 1763W        W 2760   5.857   2.976   7.194
 1764W        W 2761   3.958   3.273   6.332
 1765W        W 2762   2.506   6.727   1.528
 1766W        W 2763   7.240   5.955   1.249
 1767W        W 2764   3.876   1.584   6.415
 1768W        W 2765   4.479   4.533   4.571
 1769W        W 2766   6.916   6.632   2.348
 1770W        W 2767   3.034   2.534   1.168
 1771W        W 2768   3.194   6.417   3.809
 1772W        W 2769   3.318   3.759   6.974
 1773W        W 2770   3.833   3.064   0.283
 1774W        W 2771   4.752   6.590   6.970
 1775W        W 2772   4.021   7.018   2.384
 1776W        W 2773   1.400   1.439   7.142
 1777W        W 2774   6.678   5.489   7.742
 1778W        W 2775   1.107   4.646   7.304
 1779W        W 2776   3.629   3.122   6.702
 1780W        W 2777   0.822   4.896   6.632
 1781W        W 2778   0.756   6.257   6.567
 1782W        W 2779   1.498   1.801   5.962
 1783W        W 2780   6.382   3.494   1.334
 1784W        W 2781   2.568   3.796   3.916
 1785W        W 2782   5.601   6.726   7.003
 1786W        W 2783   3.173   3.936   2.208
 1787W        W 2784   7.247   2.177   1.139
 1788W        W 2785   7.938   6.129   1.313
 1789W        W 2786   5.146   2.969   5.894
 1790W        W 2787   4.371   5.684   5.479
 1791W        W 2788   1.025   2.746   3.836
 1792W        W 2789   5.592   1.267   2.114
 1793W        W 2790   2.642   1.736   6.984
 1794W        W 2791   7.343   0.111   7.214
 1795W        W 2792   6.769   4.035   4.655
 1796W        W 2793   3.324   6.978   5.101
 1797W        W 2794   3.151   1.523   4.383
 1798W        W 2795   4.695   0.550   5.704
 1799W        W 2796   2.935   1.922   4.622
 1800W        W 2797   6.031   6.914   1.944
 1801W        W 2798   0.298   3.391   1.653
 1802W        W 2799   1.099   1.268   0.078
 1803W        W 2800   6.712   4.913   3.661
 1804W        W 2801   2.436   6.118   6.760
 1805W        W 2802   3.885   4.899   1.993
 1806W        W 2803   6.612   1.824   5.565
 1807W        W 2804   2.347   1.862   3.388
 1808W        W 2805   3.362   4.783   6.890
 1809W        W 2806   6.385   4.198   1.575
 1810W        W 2807   4.514   3.704   7.420
 1811W        W 2808   0.276   6.523   7.055
 1812W        W 2809   6.377   1.988   6.007
 1813W        W 2810   5.793   6.491   2.714
 1814W        W 2811   1.467   6.064   1.001
 1815W        W 2812   4.193   4.210   0.721
 1816W        W 2813   0.096   3.625   4.111
 1817W        W 2814   7.438   1.764   3.676
 1818W        W 2815   5.638   1.206   2.960
 1819W        W 2816   2.269   0.849   5.643
 1820W        W 2817   7.010   3.863   5.072
 1821W        W 2818   1.337   3.424   4.458
 1822W        W 2819   4.595   4.158   1.223
 1823W        W 2820   1.196   2.774   6.730
 1824W        W 2821   4.847   3.205   5.357
 1825W        W 2822   3.331   6.632   2.077
 1826W        W 2823   0.286   1.110   5.826
 1827W        W 2824   3.167   6.138   6.357
 1828W        W 2825   5.508   4.519   4.650
 1829W        W 2826   5.080   5.712   4.858
 1830W        W 2827   7.592   6.089   0.905
 1831W        W 2828   0.859   4.576   2.588
 1832W        W 2829   1.352   4.091   2.808
 1833W        W 2830   3.980   2.091   5.644
 1834W        W 2831   6.141   3.382   1.913
 1835W        W 2832   0.435   1.403   4.432
 1836W        W 2833   3.206   5.162   6.011
 1837W        W 2834   2.186   3.357   6.037
 1838W        W 2835   5.472   6.758   1.251
 1839W        W 2836   1.293   4.519   1.609
 1840W        W 2837   0.954   5.760   1.913
 1841W        W 2838   0.131   5.952   2.878
 1842W        W 2839   4.188   5.251   7.167
 1843W        W 2840   5.870   0.951   0.889
 1844W        W 2841   3.537   1.683   2.455
 1845W        W 2842   6.850   4.707   0.807
 1846W        W 2843   5.269   0.592   4.204
 1847W        W 2844   7.291   4.196   3.446
 1848W        W 2845   5.258   2.908   6.417
 1849W        W 2846   2.368   2.026   5.858
 1850W        W 2847   1.350   3.013   3.242
 1851W        W 2848   6.908   6.752   0.691
 1852W        W 2849   5.881   2.204   0.506
 1853W        W 2850   0.994   0.820   4.041
 1854W        W 2851   5.566   5.248   1.985
 1855W        W 2852   0.279   6.110   6.697
 1856W        W 2853   4.306   7.676   1.434
 1857W        W 2854   0.535   7.982   7.028
 1858W        W 2855   4.772   3.002   6.322
 1859W        W 2856   1.994   5.213   2.533
 1860W        W 2857   5.234   2.110   7.115
 1861W        W 2858   5.276   5.317   1.530
 1862W        W 2859   4.119   1.993   3.050
 1863W        W 2860   2.363   5.613   6.815
 1864W        W 2861   7.940   6.279   2.474
 1865W        W 2862   3.382   2.887   1.158
 1866W        W 2863   0.875   2.867   3.068
 1867W        W 2864   6.783   0.830   2.721
 1868W        W 2865   5.785   0.836   5.215
 1869W        W 2866   1.950   4.761   4.134
 1870W        W 2867   1.641   6.022   4.790
 1871W        W 2868   3.176   2.271   6.440
 1872W        W 2869   7.896   2.423   3.760
 1873W        W 2870   2.674   6.370   6.395
 1874W        W 2871   3.181   3.490   0.232
 1875W        W 2872   6.557   2.110   6.726
 1876W        W 2873   5.838   4.277   2.859
 1877W        W 2874   1.884   5.913   0.243
 1878W        W 2875   2.005   2.559   3.007
 1879W        W 2876   6.292   5.276   5.937
 1880W        W 2877   0.672   3.696   4.927
 1881W        W 2878   5.686   3.416   0.294
 1882W        W 2879   6.719   0.689   5.666
 1883W        W 2880   1.395   4.728   4.698
 1884W        W 2881   2.317   0.867   1.750
 1885W        W 2882   1.895   4.903   2.130
 1886W        W 2883   4.975   2.137   6.667
 1887W        W 2884   6.052   3.774   1.601
 1888W        W 2885   5.358   0.459   0.452
 1889W        W 2886   4.531   1.894   3.908
 1890W        W 2887   4.437   1.283   2.648
 1891W        W 2888   6.303   5.270   3.787
 1892W        W 2889   3.406   7.889   6.702
 1893W        W 2890   3.328   5.723   4.360
 1894W        W 2891   6.482   1.067   1.772
 1895W        W 2892   3.779   3.515   4.286
 1896W        W 2893   0.644   5.736   1.484
 1897W        W 2894   3.291   5.284   2.241
 1898W        W 2895   6.347   5.575   6.952
 1899W        W 2896   0.067   6.183   5.340
 1900W        W 2897   1.044   1.981   1.800
 1901W        W 2898   2.867   5.497   0.998
 1902W        W 2899   2.078   6.415   4.170
 1903W        W 2900   1.391   3.930   5.787
 1904W        W 2901   6.822   7.049   6.988
 1905W        W 2902   4.896   7.555   5.646
 1906W        W 2903   5.895   6.014   2.065
 1907W        W 2904   3.776   4.083   0.997
 1908W        W 2905   4.157   1.140   4.294
 1909W        W 2906   3.711   7.106   3.192
 1910W        W 2907   0.752   5.152   5.395
 1911W        W 2908   0.304   5.263   7.272
 1912W        W 2909   3.150   5.315   7.765
 1913W        W 2910   6.726   2.534   2.580
 1914W        W 2911   6.638   1.660   7.465
 1915W        W 2912   7.586   2.281   4.560
 1916W        W 2913   0.619   2.317   3.087
 1917W        W 2914   3.654   7.157   3.693
 1918W        W 2915   2.087   3.620   3.885
 1919W        W 2916   6.628   4.686   1.282
 1920W        W 2917   6.585   1.205   7.191
 1921W        W 2918   3.345   3.763   1.282
 1922W        W 2919   6.962   5.833   2.915
 1923W        W 2920   2.820   6.254   2.672
 1924W        W 2921   2.533   3.331   1.707
 1925W        W 2922   5.000   4.472   6.758
 1926W        W 2923   3.110   4.019   4.574
 1927W        W 2924   4.835   3.157   0.219
 1928W        W 2925   5.635   0.491   3.283
 1929W        W 2926   2.532   5.576   3.945
 1930W        W 2927   6.341   0.040   2.577
 1931W        W 2928   4.271   4.675   1.549
 1932W        W 2929   6.739   1.311   2.835
 1933W        W 2930   3.532   5.390   4.020
 1934W        W 2931   5.597   2.345   4.200
 1935W        W 2932   2.527   6.397   3.100
 1936W        W 2933   3.049   1.335   6.972
 1937W        W 2934   2.878   1.466   4.818
 1938W        W 2935   1.535   5.632   3.026
 1939W        W 2936   5.505   0.820   1.235
 1940W        W 2937   2.328   4.719   2.334
 1941W        W 2938   2.075   3.244   5.557
 1942W        W 2939   7.000   0.660   2.293
 1943W        W 2940   3.254   7.611   6.286
 1944W        W 2941   4.420   4.234   1.743
 1945W        W 2942   1.933   6.891   4.316
 1946W        W 2943   1.593   5.472   1.376
 1947W        W 2944   6.300   6.609   3.380
 1948W        W 2945   2.826   3.576   2.059
 1949W        W 2946   4.317   1.864   7.226
 1950W        W 2947   5.533   0.987   3.970
 1951W        W 2948   5.174   6.721   3.602
 1952W        W 2949   1.017   4.118   4.083
 1953W        W 2950   7.781   4.097   3.689
 1954W        W 2951   0.874   1.503   0.874
 1955W        W 2952   5.944   6.686   6.244
 1956W        W 2953   1.553   7.102   7.313
 1957W        W 2954   2.567   6.776   7.369
 1958W        W 2955   3.242   7.796   2.102
 1959W        W 2956   4.457   5.870   5.949
 1960W        W 2957   3.121   3.587   2.598
 1961W        W 2958   5.504   4.834   6.476
 1962W        W 2959   1.147   0.619   0.580
 1963W        W 2960   1.957   5.204   4.409
 1964W        W 2961   1.343   1.455   6.633
 1965W        W 2962   1.002   0.714   6.826
 1966W        W 2963   0.927   5.144   0.094
 1967W        W 2964   6.628   6.222   2.162
 1968W        W 2965   3.968   6.603   4.173
 1969W        W 2966   7.399   1.280   4.059
 1970W        W 2967   5.045   4.894   3.085
 1971W        W 2968   3.250   3.356   7.450
 1972W        W 2969   2.747   3.844   5.965
 1973W        W 2970   0.354   5.609   6.890
 1974W        W 2971   1.107   3.777   1.560
 1975W        W 2972   1.624   1.823   3.934
 1976W        W 2973   0.748   5.604   0.949
 1977W        W 2974   4.044   3.366   4.709
 1978W        W 2975   5.775   6.537   2.196
 1979W        W 2976   1.412   5.573   1.874
 1980W        W 2977   6.907   6.583   5.681
 1981W        W 2978   5.815   1.080   4.764
 1982W        W 2979   4.327   1.893   4.741
 1983W        W 2980   7.459   1.785   0.808
 1984W        W 2981   3.711   2.495   5.091
 1985W        W 2982   1.518   0.681   5.220
 1986W        W 2983   1.728   6.809   1.961
 1987W        W 2984   6.028   4.586   1.668
 1988W        W 2985   5.501   1.646   0.437
 1989W        W 2986   5.525   6.817   1.835
 1990W        W 2987   4.516   0.693   1.464
 1991W        W 2988   4.324   1.994   1.892
 1992W        W 2989   5.970   2.456   0.946
 1993W        W 2990   7.336   1.856   6.367
 1994W        W 2991   5.671   0.625   4.573
 1995W        W 2992   0.702   2.476   5.718
 1996W        W 2993   0.078   0.091   6.726
 1997W        W 2994   2.046   5.525   6.434
 1998W        W 2995   1.552   5.269   2.245
 1999W        W 2996   0.911   2.156   5.011
 2000W        W 2997   6.813   7.228   3.187
 2001W        W 2998   7.020   1.520   3.209
 2002W        W 2999   2.518   7.903   1.010
 2003W        W 3000   7.201   2.099   4.842
 2004W        W 3001   7.109   6.329   1.993
 2005W        W 3002   5.413   1.053   4.464
 2006W        W 3003   1.841   7.374   5.236
 2007W        W 3004   6.044   1.652   3.418
 2008W        W 3005   1.313   1.569   1.996
 2009W        W 3006   6.577   3.016   2.530
 2010W        W 3007   7.540   4.694   2.672
 2011W        W 3008   1.420   0.976   6.034
 2012W        W 3009   7.622   7.323   1.438
 2013W        W 3010   7.791   6.233   6.569
 2014W        W 3011   5.078   4.865   5.295
 2015W        W 3012   3.836   1.711   7.286
 2016W        W 3013   4.320   6.223   4.786
 2017W        W 3014   6.414   5.238   1.791
 2018W        W 3015   2.610   5.521   7.774
 2019W        W 3016   1.078   1.049   6.452
 2020W        W 3017   2.729   1.309   1.146
 2021W        W 3018   7.427   4.155   5.174
 2022W        W 3019   3.370   6.017   5.160
 2023W        W 3020   5.856   4.765   2.646
 2024W        W 3021   2.670   1.168   5.553
 2025W        W 3022   5.821   2.760   6.737
 2026W        W 3023   4.853   0.695   0.803
 2027W        W 3024   3.502   4.992   3.722
 2028W        W 3025   2.840   2.202   2.685
 2029W        W 3026   3.377   7.417   2.850
 2030W        W 3027   1.219   5.202   6.479
 2031W        W 3028   2.086   4.458   0.495
 2032W        W 3029   6.179   1.301   2.287
 2033W        W 3030   4.005   4.700   4.672
 2034W        W 3031   3.827   5.433   6.841
 2035W        W 3032   0.784   5.856   6.861
 2036W        W 3033   4.105   3.817   5.400
 2037W        W 3034   3.965   3.184   5.497
 2038W        W 3035   0.675   1.089   3.458
 2039W        W 3036   2.586   0.890   6.381
 2040W        W 3037   0.533   1.238   3.926
 2041W        W 3038   2.277   3.623   5.277
 2042W        W 3039   6.262   0.483   2.882
 2043W        W 3040   2.708   4.082   1.990
 2044W        W 3041   2.040   1.575   3.730
 2045W        W 3042   2.372   5.240   0.144
 2046W        W 3043   6.670   5.292   0.669
 2047W        W 3044   3.988   3.669   7.608
 2048W        W 3045   7.099   3.770   3.262
 2049W        W 3046   0.123   1.620   5.856
 2050W        W 3047   4.876   3.786   3.657
 2051W        W 3048   6.776   3.285   1.600
 2052W        W 3049   5.029   2.921   7.796
 2053W        W 3050   6.142   2.434   0.035
 2054W        W 3051   2.477   6.972   2.534
 2055W        W 3052   1.348   6.126   3.650
 2056W        W 3053   0.447   0.629   0.079
 2057W        W 3054   6.634   6.883   4.435
 2058W        W 3055   6.368   3.454   6.769
 2059W        W 3056   2.470   2.973   2.574
 2060W        W 3057   4.113   3.407   1.724
 2061W        W 3058   6.497   7.180   1.932
 2062W        W 3059   2.731   4.957   0.408
 2063W        W 3060   4.145   2.065   2.438
 2064W        W 3061   5.861   2.879   0.107
 2065W        W 3062   6.766   5.075   2.571
 2066W        W 3063   2.838   2.978   3.409
 2067W        W 3064   4.877   3.849   1.535
 2068W        W 3065   6.044   6.427   5.793
 2069W        W 3066   1.770   4.764   1.634
 2070W        W 3067   1.786   4.777   0.766
 2071W        W 3068   3.778   2.897   3.305
 2072W        W 3069   0.600   4.164   0.994
 2073W        W 3070   4.236   7.787   6.847
 2074W        W 3071   6.667   1.543   2.371
 2075W        W 3072   1.957   5.982   6.641
 2076W        W 3073   1.000   3.787   4.545
 2077W        W 3074   3.856   2.785   6.363
 2078W        W 3075   4.126   0.860   4.900
 2079W        W 3076   6.043   2.981   2.201
 2080W        W 3077   3.145   5.024   6.502
 2081W        W 3078   7.542   6.541   3.006
 2082W        W 3079   7.008   0.946   3.911
 2083W        W 3080   7.824   2.044   1.099
 2084W        W 3081   6.954   7.833   6.463
 2085W        W 3082   3.076   5.524   3.074
 2086W        W 3083   6.519   6.944   6.541
 2087W        W 3084   5.338   4.349   6.409
 2088W        W 3085   0.844   2.989   4.891
 2089W        W 3086   3.862   7.853   2.628
 2090W        W 3087   3.463   1.650   4.768
 2091W        W 3088   5.647   2.610   2.128
 2092W        W 3089   0.411   4.317   2.682
 2093W        W 3090   6.838   1.946   6.242
 2094W        W 3091   3.686   1.888   6.833
 2095W        W 3092   7.150   3.470   4.110
 2096W        W 3093   0.767   2.770   2.223
 2097W        W 3094   6.845   5.938   5.567
 2098W        W 3095   3.398   7.874   3.186
 2099W        W 3096   5.236   4.429   5.075
 2100W        W 3097   4.114   3.395   0.699
 2101W        W 3098   4.223   0.111   2.908
 2102W        W 3099   6.081   0.128   6.642
 2103W        W 3100   1.980   5.547   2.133
 2104W        W 3101   5.418   5.410   4.595
 2105W        W 3102   5.455   6.681   6.438
 2106W        W 3103   2.917   0.385   3.725
 2107W        W 3104   4.008   0.018   1.676
 2108W        W 3105   1.083   7.279   7.494
 2109W        W 3106   6.659   7.601   1.683
 2110W        W 3107   1.902   3.794   3.164
 2111W        W 3108   1.801   1.192   7.352
 2112W        W 3109   4.491   5.403   4.266
 2113W        W 3110   5.655   3.983   4.005
 2114W        W 3111   5.988   0.129   3.166
 2115W        W 3112   5.729   3.059   6.343
 2116W        W 3113   1.032   2.452   6.369
 2117W        W 3114   6.736   6.742   3.167
 2118W        W 3115   0.956   0.202   6.800
 2119W        W 3116   6.946   2.564   1.316
 2120W        W 3117   3.925   5.040   1.520
 2121W        W 3118   5.854   4.146   4.492
 2122W        W 3119   6.473   7.029   7.420
 2123W        W 3120   3.354   2.123   1.849
 2124W        W 3121   2.896   0.755   4.069
 2125W        W 3122   5.550   2.676   6.041
 2126W        W 3123   1.001   0.824   4.562
 2127W        W 3124   1.292   6.395   1.369
 2128W        W 3125   6.638   0.785   0.987
 2129W        W 3126   7.643   3.780   1.301
 2130W        W 3127   0.872   0.969   2.042
 2131W        W 3128   7.774   0.987   7.389
 2132W        W 3129   5.523   2.553   0.373
 2133W        W 3130   5.925   6.726   0.454
 2134W        W 3131   1.621   0.422   0.516
 2135W        W 3132   1.313   2.657   5.413
 2136W        W 3133   7.660   7.000   5.032
 2137W        W 3134   1.878   1.079   4.983
 2138W        W 3135   2.370   6.439   2.453
 2139W        W 3136   6.630   7.256   5.762
 2140W        W 3137   0.857   3.940   5.787
 2141W        W 3138   4.222   5.404   0.882
 2142W        W 3139   6.557   0.205   5.756
 2143W        W 3140   5.077   7.254   4.385
 2144W        W 3141   6.349   7.053   3.069
 2145W        W 3142   5.085   1.650   5.816
 2146W        W 3143   5.124   7.367   7.637
 2147W        W 3144   4.848   1.498   4.032
 2148W        W 3145   4.724   2.371   3.956
 2149W        W 3146   1.370   0.467   5.908
 2150W        W 3147   1.035   2.935   7.204
 2151W        W 3148   2.724   3.893   2.456
 2152W        W 3149   1.480   6.583   2.351
 2153W        W 3150   0.794   0.334   0.322
 2154W        W 3151   6.386   3.534   0.829
 2155W        W 3152   2.472   6.108   0.606
 2156W        W 3153   7.733   2.632   2.361
 2157W        W 3154   4.964   5.500   4.412
 2158W        W 3155   5.354   3.514   6.671
 2159W        W 3156   2.992   2.683   6.198
 2160W        W 3157   1.728   3.322   3.039
 2161W        W 3158   4.819   4.148   2.907
 2162W        W 3159   7.165   2.693   6.640
 2163W        W 3160   4.507   1.574   0.593
 2164W        W 3161   6.284   1.075   4.524
 2165W        W 3162   4.510   1.148   3.380
 2166W        W 3163   1.792   5.999   4.301
 2167W        W 3164   0.476   1.380   3.092
 2168W        W 3165   6.708   5.593   1.999
 2169W        W 3166   4.767   0.774   1.886
 2170W        W 3167   6.429   6.741   6.998
 2171W        W 3168   5.141   5.825   0.046
 2172W        W 3169   1.823   0.900   1.943
 2173W        W 3170   1.012   2.538   1.806
 2174W        W 3171   4.825   3.469   2.247
 2175W        W 3172   4.335   0.089   4.230
 2176W        W 3173   6.402   2.968   4.644
 2177W        W 3174   4.506   1.534   1.806
 2178W        W 3175   3.409   6.138   4.674
 2179W        W 3176   5.931   5.935   2.583
 2180W        W 3177   3.727   7.170   1.437
 2181W        W 3178   0.297   6.306   3.666
 2182W        W 3179   0.016   4.905   6.501
 2183W        W 3180   1.585   4.305   6.326
 2184W        W 3181   5.304   6.588   2.646
 2185W        W 3182   7.943   3.154   4.958
 2186W        W 3183   6.433   1.057   3.997
 2187W        W 3184   6.151   4.523   7.639
 2188W        W 3185   4.750   1.476   3.028
 2189W        W 3186   3.510   6.700   1.156
 2190W        W 3187   5.158   7.998   1.336
 2191W        W 3188   5.653   4.532   6.061
 2192W        W 3189   6.110   5.737   3.565
 2193W        W 3190   7.368   5.002   1.516
 2194W        W 3191   7.403   2.455   1.555
 2195W        W 3192   7.347   1.320   1.016
 2196W        W 3193   4.109   0.514   7.109
 2197W        W 3194   0.197   2.823   4.631
 2198W        W 3195   3.104   6.570   0.326
 2199W        W 3196   4.404   1.380   3.852
 2200W        W 3197   1.328   2.291   3.796
 2201W        W 3198   2.737   2.258   1.465
 2202W        W 3199   7.463   2.716   1.121
 2203W        W 3200   3.832   2.558   3.867
 2204W        W 3201   4.093   3.256   3.475
 2205W        W 3202   4.037   0.536   6.256
 2206W        W 3203   2.726   1.213   2.596
 2207W        W 3204   6.440   6.760   5.691
 2208W        W 3205   4.808   2.551   1.723
 2209W        W 3206   5.653   6.567   3.570
 2210W        W 3207   3.671   4.006   7.849
 2211W        W 3208   6.006   5.005   1.955
 2212W        W 3209   1.541   1.412   4.733
 2213W        W 3210   3.228   7.155   2.107
 2214W        W 3211   0.040   3.452   1.223
 2215W        W 3212   6.641   4.864   5.947
 2216W        W 3213   3.763   3.154   7.553
 2217W        W 3214   2.131   1.898   4.121
 2218W        W 3215   4.724   5.839   4.113
 2219W        W 3216   5.880   5.110   6.260
 2220W        W 3217   6.192   5.523   2.703
 2221W        W 3218   6.222   0.188   6.147
 2222W        W 3219   2.053   5.984   2.456
 2223W        W 3220   6.076   2.472   4.034
 2224W        W 3221   6.319   2.474   4.490
 2225W        W 3222   7.084   7.062   5.696
 2226W        W 3223   4.077   6.910   3.533
 2227W        W 3224   3.267   5.046   7.329
 2228W        W 3225   1.614   2.877   2.832
 2229W        W 3226   7.325   5.445   6.068
 2230W        W 3227   6.980   3.296   3.154
 2231W        W 3228   7.980   2.057   4.323
 2232W        W 3229   2.491   5.241   3.563
 2233W        W 3230   6.368   5.548   4.215
 2234W        W 3231   4.486   7.256   3.621
 2235W        W 3232   4.845   7.457   6.436
 2236W        W 3233   1.386   1.536   0.947
 2237W        W 3234   2.358   5.963   7.645
 2238W        W 3235   1.551   2.242   5.676
 2239W        W 3236   6.201   6.785   2.663
 2240W        W 3237   7.177   5.117   6.427
 2241W        W 3238   0.260   6.025   4.449
 2242W        W 3239   5.991   5.410   0.915
 2243W        W 3240   5.488   4.970   3.717
 2244W        W 3241   5.096   5.877   3.742
 2245W        W 3242   6.564   7.455   2.825
 2246W        W 3243   6.339   4.003   1.094
 2247W        W 3244   1.713   2.646   5.092
 2248W        W 3245   2.689   6.468   5.840
 2249W        W 3246   4.353   7.637   0.722
 2250W        W 3247   6.238   1.816   2.341
 2251W        W 3248   4.080   3.565   3.886
 2252W        W 3249   3.586   6.042   6.057
 2253W        W 3250   4.191   1.264   0.878
 2254W        W 3251   5.875   4.153   1.877
 2255W        W 3252   4.310   3.471   6.671
 2256W        W 3253   7.334   5.747   2.559
 2257W        W 3254   4.121   3.276   2.628
 2258W        W 3255   0.923   1.718   4.554
 2259W        W 3256   4.347   6.106   7.403
 2260W        W 3257   6.563   3.427   5.369
 2261W        W 3258   5.757   7.221   1.635
 2262W        W 3259   3.187   1.826   6.864
 2263W        W 3260   2.818   6.780   3.319
 2264W        W 3261   5.333   3.592   3.013
 2265W        W 3262   2.418   4.681   4.901
 2266W        W 3263   5.414   3.059   1.425
 2267W        W 3264   2.983   5.346   4.479
 2268W        W 3265   4.840   1.868   5.373
 2269W        W 3266   7.214   6.946   3.090
 2270W        W 3267   5.977   3.980   4.986
 2271W        W 3268   1.180   4.929   2.386
 2272W        W 3269   2.576   0.432   3.364
 2273W        W 3270   2.094   3.397   3.420
 2274W        W 3271   1.886   3.887   5.086
 2275W        W 3272   5.918   4.535   6.495
 2276W        W 3273   7.074   3.349   5.162
 2277W        W 3274   3.536   5.703   3.173
 2278W        W 3275   3.512   1.329   7.187
 2279W        W 3276   0.708   7.494   4.487
 2280W        W 3277   7.125   4.711   3.387
 2281W        W 3278   7.028   7.147   6.519
 2282W        W 3279   2.162   2.387   1.026
 2283W        W 3280   5.378   5.992   1.451
 2284W        W 3281   3.240   7.285   5.887
 2285W        W 3282   3.007   6.241   2.197
 2286W        W 3283   1.824   0.607   4.661
 2287W        W 3284   1.444   0.923   3.826
 2288W        W 3285   2.643   6.247   1.449
 2289W        W 3286   1.496   3.780   4.766
 2290W        W 3287   5.082   5.426   6.950
 2291W        W 3288   6.468   4.442   7.193
 2292W        W 3289   5.879   6.970   5.098
 2293W        W 3290   4.296   1.371   4.732
 2294W        W 3291   2.048   2.889   1.089
 2295W        W 3292   5.413   7.781   7.807
 2296W        W 3293   0.410   6.512   5.148
 2297W        W 3294   5.393   5.673   5.549
 2298W        W 3295   4.016   4.964   1.016
 2299W        W 3296   5.199   6.358   1.130
 2300W        W 3297   5.729   1.219   3.456
 2301W        W 3298   2.510   0.153   4.632
 2302W        W 3299   1.223   3.775   7.502
 2303W        W 3300   3.376   2.004   4.411
 2304W        W 3301   1.690   5.209   6.252
 2305W        W 3302   1.307   1.541   4.212
 2306W        W 3303   3.851   7.670   3.131
 2307W        W 3304   3.654   0.597   5.746
 2308W        W 3305   7.412   5.771   4.706
 2309W        W 3306   0.829   2.229   4.516
 2310W        W 3307   3.087   5.513   1.821
 2311W        W 3308   3.887   3.840   0.566
 2312W        W 3309   0.611   2.966   5.609
 2313W        W 3310   6.712   2.128   1.226
 2314W        W 3311   2.403   5.593   1.874
 2315W        W 3312   5.216   2.458   3.827
 2316W        W 3313   3.875   0.746   2.285
 2317W        W 3314   2.182   6.023   1.967
 2318W        W 3315   2.068   1.246   1.481
 2319W        W 3316   5.758   4.766   3.344
 2320W        W 3317   1.248   5.007   5.105
 2321W        W 3318   2.636   0.716   2.503
 2322W        W 3319   6.269   2.542   6.693
 2323W        W 3320   7.668   3.414   3.938
 2324W        W 3321   3.573   4.216   3.212
 2325W        W 3322   4.792   6.262   6.083
 2326W        W 3323   2.460   7.081   3.060
 2327W        W 3324   0.478   1.276   2.222
 2328W        W 3325   6.498   1.357   5.418
 2329W        W 3326   3.455   3.892   0.280
 2330W        W 3327   5.452   4.597   5.542
 2331W        W 3328   4.569   3.645   4.042
 2332W        W 3329   1.212   6.936   2.649
 2333W        W 3330   1.379   3.689   3.122
 2334W        W 3331   6.398   5.314   2.302
 2335W        W 3332   6.497   7.181   0.460
 2336W        W 3333   4.956   2.825   4.059
 2337W        W 3334   4.927   2.046   3.633
 2338W        W 3335   4.964   0.665   3.771
 2339W        W 3336   3.643   3.506   2.591
 2340W        W 3337   3.966   7.859   5.502
 2341W        W 3338   1.548   5.199   0.953
 2342W        W 3339   4.442   7.756   3.835
 2343W        W 3340   0.382   5.962   4.994
 2344W        W 3341   7.632   6.070   2.802
 2345W        W 3342   6.175   4.067   5.955
 2346W        W 3343   0.112   2.503   2.673
 2347W        W 3344   4.617   2.822   7.394
 2348W        W 3345   1.788   1.652   4.382
 2349W        W 3346   2.192   6.852   6.631
 2350W        W 3347   2.698   4.306   1.549
 2351W        W 3348   7.840   2.948   5.740
 2352W        W 3349   6.772   1.918   5.071
 2353W        W 3350   6.258   4.932   3.402
 2354W        W 3351   0.009   3.657   3.616
 2355W        W 3352   7.413   6.443   2.481
 2356W        W 3353   6.032   3.130   1.366
 2357W        W 3354   1.344   7.803   6.838
 2358W        W 3355   3.534   5.764   6.518
 2359W        W 3356   3.520   3.990   6.559
 2360W        W 3357   3.114   6.397   3.103
 2361W        W 3358   2.804   5.617   3.493
 2362W        W 3359   7.255   6.919   2.594
 2363W        W 3360   1.537   2.033   1.023
 2364W        W 3361   4.502   0.437   2.654
 2365W        W 3362   7.416   2.197   2.002
 2366W        W 3363   1.711   4.408   6.817
 2367W        W 3364   1.910   2.058   6.110
 2368W        W 3365   7.877   3.042   2.055
 2369W        W 3366   4.966   4.669   4.727
 2370W        W 3367   5.523   1.336   5.091
 2371W        W 3368   5.936   5.275   4.997
 2372W        W 3369   3.170   2.110   3.143
 2373W        W 3370   6.540   5.514   0.234
 2374W        W 3371   3.648   7.278   6.229
 2375W        W 3372   4.013   2.236   7.036
 2376W        W 3373   7.460   3.072   2.363
 2377W        W 3374   6.181   3.332   4.362
 2378W        W 3375   5.929   5.957   1.492
 2379W        W 3376   5.108   2.440   4.852
 2380W        W 3377   3.672   5.710   2.233
 2381W        W 3378   2.648   4.743   7.447
 2382W        W 3379   6.852   5.061   1.571
 2383W        W 3380   7.565   6.084   2.166
 2384W        W 3381   3.120   6.742   0.842
 2385W        W 3382   1.043   3.608   4.071
 2386W        W 3383   2.778   1.763   3.123
 2387W        W 3384   5.927   6.884   5.611
 2388W        W 3385   3.763   1.968   1.057
 2389W        W 3386   2.594   5.519   5.575
 2390W        W 3387   1.440   7.361   6.544
 2391W        W 3388   2.317   2.235   0.564
 2392W        W 3389   0.309   2.831   6.028
 2393W        W 3390   2.020   1.906   0.887
 2394W        W 3391   1.218   0.939   7.273
 2395W        W 3392   6.628   2.500   7.057
 2396W        W 3393   2.776   2.706   7.757
 2397W        W 3394   0.360   2.798   3.008
 2398W        W 3395   6.261   0.493   3.392
 2399W        W 3396   7.108   4.728   1.869
 2400W        W 3397   7.292   6.105   3.170
 2401W        W 3398   2.603   4.686   1.882
 2402W        W 3399   2.570   5.496   2.971
 2403W        W 3400   4.653   2.752   5.906
 2404W        W 3401   4.955   0.371   1.619
 2405W        W 3402   0.798   0.918   1.516
 2406W        W 3403   6.321   1.517   4.283
 2407W        W 3404   0.772   2.327   4.005
 2408W        W 3405   2.846   4.274   7.819
 2409W        W 3406   5.180   7.595   1.752
 2410W        W 3407   0.177   7.814   6.270
 2411W        W 3408   3.757   6.311   1.966
 2412W        W 3409   6.319   1.191   0.956
 2413W        W 3410   4.717   0.317   1.172
 2414W        W 3411   6.034   6.452   7.036
 2415W        W 3412   4.868   4.445   4.277
 2416W        W 3413   4.050   0.509   1.518
 2417W        W 3414   6.611   1.027   2.262
 2418W        W 3415   1.095   5.245   3.132
 2419W        W 3416   1.938   6.528   5.019
 2420W        W 3417   6.689   7.135   0.948
 2421W        W 3418   5.640   3.198   5.865
 2422W        W 3419   0.825   6.477   5.746
 2423W        W 3420   5.543   0.017   1.026
 2424W        W 3421   5.979   1.269   3.894
 2425W        W 3422   1.770   7.322   1.925
 2426W        W 3423   2.732   6.505   5.344
 2427W        W 3424   1.733   5.868   3.415
 2428W        W 3425   0.502   4.764   2.952
 2429W        W 3426   7.828   2.514   1.870
 2430W        W 3427   5.703   3.698   5.343
 2431W        W 3428   1.888   3.928   1.201
 2432W        W 3429   6.279   3.418   2.424
 2433W        W 3430   7.957   3.794   4.610
 2434W        W 3431   7.978   6.341   6.089
 2435W        W 3432   3.295   0.599   1.026
 2436W        W 3433   1.914   1.843   5.648
 2437W        W 3434   6.849   6.902   6.110
 2438W        W 3435   0.598   1.042   4.792
 2439W        W 3436   5.774   3.758   2.780
 2440W        W 3437   4.460   6.613   5.418
 2441W        W 3438   1.613   1.842   6.866
 2442W        W 3439   3.270   5.054   3.203
 2443W        W 3440   3.672   3.206   1.861
 2444W        W 3441   0.736   2.026   6.509
 2445W        W 3442   6.076   7.530   7.265
 2446W        W 3443   0.666   2.729   6.567
 2447W        W 3444   2.078   7.192   2.739
 2448W        W 3445   0.842   3.150   6.787
 2449W        W 3446   4.402   3.224   5.058
 2450W        W 3447   1.154   7.729   7.741
 2451W        W 3448   2.713   7.237   2.174
 2452W        W 3449   0.091   4.036   2.357
 2453W        W 3450   5.686   1.127   0.427
 2454W        W 3451   3.758   7.686   1.401
 2455W        W 3452   7.893   5.621   5.521
 2456W        W 3453   6.788   5.066   2.071
 2457W        W 3454   3.334   3.351   5.212
 2458W        W 3455   0.422   7.053   4.483
 2459W        W 3456   4.161   5.759   4.961
 2460W        W 3457   7.708   5.680   1.242
 2461W        W 3458   3.089   1.127   3.485
 2462W        W 3459   2.037   3.788   2.398
 2463W        W 3460   0.814   2.079   2.664
 2464W        W 3461   4.256   5.753   3.935
 2465W        W 3462   3.650   3.400   7.127
 2466W        W 3463   4.030   5.824   1.146
 2467W        W 3464   4.620   1.019   4.941
 2468W        W 3465   4.287   6.588   0.784
 2469W        W 3466   1.881   6.130   0.713
 2470W        W 3467   3.713   2.287   6.500
 2471W        W 3468   1.679   6.830   0.041
 2472W        W 3469   0.471   7.106   6.392
 2473W        W 3470   3.918   1.735   2.109
 2474W        W 3471   0.953   0.471   7.278
 2475W        W 3472   3.793   4.802   5.479
 2476W        W 3473   1.886   1.194   5.953
 2477W        W 3474   6.308   1.911   1.403
 2478W        W 3475   7.394   2.542   3.693
 2479W        W 3476   5.682   1.701   7.047
 2480W        W 3477   3.175   4.946   0.145
 2481W        W 3478   4.903   1.059   2.791
 2482W        W 3479   1.830   6.198   1.336
 2483W        W 3480   5.683   5.082   0.541
 2484W        W 3481   2.958   7.723   2.975
 2485W        W 3482   3.108   3.456   1.636
 2486W        W 3483   5.658   4.636   0.235
 2487W        W 3484   0.314   0.771   1.304
 2488W        W 3485   0.347   1.725   6.710
 2489W        W 3486   4.895   6.092   1.928
 2490W        W 3487   5.066   1.392   5.313
 2491W        W 3488   4.594   1.035   1.092
 2492W        W 3489   6.042   4.706   0.574
 2493W        W 3490   1.236   3.040   5.852
 2494W        W 3491   0.301   2.148   3.933
 2495W        W 3492   5.145   5.547   1.096
 2496W        W 3493   0.360   7.571   6.704
 2497W        W 3494   4.334   6.797   6.795
 2498W        W 3495   5.085   2.407   4.326
 2499W        W 3496   3.601   0.553   3.344
 2500W        W 3497   2.092   5.586   7.879
 2501W        W 3498   6.994   2.458   5.132
 2502W        W 3499   1.961   0.380   2.581
 2503W        W 3500   5.190   3.638   5.240
 2504W        W 3501   3.162   3.837   7.831
 2505W        W 3502   2.231   0.971   6.800
 2506W        W 3503   7.050   5.023   0.466
 2507W        W 3504   2.000   4.396   5.038
 2508W        W 3505   4.922   5.103   1.197
 2509W        W 3506   2.579   7.446   2.734
 2510W        W 3507   2.426   3.713   3.205
 2511W        W 3508   2.347   0.545   6.055
 2512W        W 3509   2.058   6.431   6.928
 2513W        W 3510   5.628   7.536   3.047
 2514W        W 3511   7.186   5.438   0.754
 2515W        W 3512   4.025   5.512   5.811
 2516W        W 3513   6.715   3.751   4.241
 2517W        W 3514   4.145   2.746   1.131
 2518W        W 3515   3.190   7.070   6.352
 2519W        W 3516   6.824   2.208   5.816
 2520W        W 3517   6.467   0.643   6.099
 2521W        W 3518   7.028   3.682   1.902
 2522W        W 3519   3.600   1.209   2.255
 2523W        W 3520   2.187   5.087   6.217
 2524W        W 3521   1.646   3.415   5.083
 2525W        W 3522   3.274   4.221   7.517
 2526W        W 3523   4.806   6.640   2.623
 2527W        W 3524   3.897   1.685   4.448
 2528W        W 3525   4.408   1.610   4.307
 2529W        W 3526   4.006   6.629   5.196
 2530W        W 3527   6.162   1.556   5.743
 2531W        W 3528   1.662   3.130   1.320
 2532W        W 3529   2.992   2.598   3.111
 2533W        W 3530   1.116   4.899   5.645
 2534W        W 3531   5.531   7.043   3.435
 2535W        W 3532   5.867   6.461   5.297
 2536W        W 3533   5.906   5.918   0.898
 2537W        W 3534   3.987   3.938   1.858
 2538W        W 3535   3.898   2.361   1.341
 2539W        W 3536   5.746   5.018   4.600
 2540W        W 3537   0.788   4.288   0.521
 2541W        W 3538   0.467   1.914   4.375
 2542W        W 3539   4.240   7.166   1.467
 2543W        W 3540   2.377   0.938   1.241
 2544W        W 3541   1.117   4.530   5.061
 2545W        W 3542   1.072   7.216   0.010
 2546W        W 3543   7.197   1.599   4.935
 2547W        W 3544   1.363   5.285   2.706
 2548W        W 3545   5.828   2.756   3.068
 2549W        W 3546   4.954   3.962   4.176
 2550W        W 3547   7.081   0.192   3.165
 2551W        W 3548   0.371   5.115   6.789
 2552W        W 3549   5.185   1.740   4.976
 2553W        W 3550   0.915   0.038   4.709
 2554W        W 3551   2.822   1.814   1.206
 2555W        W 3552   6.199   5.189   0.479
 2556W        W 3553   2.110   6.453   1.691
 2557W        W 3554   0.214   6.800   6.083
 2558W        W 3555   4.091   2.457   0.348
 2559W        W 3556   3.599   3.335   3.494
 2560W        W 3557   1.766   4.279   1.559
 2561W        W 3558   6.086   4.401   3.467
 2562W        W 3559   2.840   3.497   5.238
 2563W        W 3560   0.322   5.532   5.996
 2564W        W 3561   6.119   3.103   3.271
 2565W        W 3562   2.662   2.260   0.953
 2566W        W 3563   7.495   0.965   3.262
 2567W        W 3564   1.527   7.309   7.796
 2568W        W 3565   7.249   3.569   2.795
 2569W        W 3566   2.730   7.571   3.915
 2570W        W 3567   0.373   1.975   3.437
 2571W        W 3568   5.199   5.760   3.146
 2572W        W 3569   3.472   6.204   6.771
 2573W        W 3570   5.127   7.495   3.034
 2574W        W 3571   3.771   4.509   7.827
 2575W        W 3572   2.759   4.461   2.333
 2576W        W 3573   4.229   7.418   5.581
 2577W        W 3574   1.433   1.192   2.657
 2578W        W 3575   4.343   6.414   5.882
 2579W        W 3576   2.675   4.294   3.681
 2580W        W 3577   0.646   0.567   6.442
 2581W        W 3578   3.544   1.222   1.510
 2582W        W 3579   1.949   2.185   1.883
 2583W        W 3580   7.512   5.537   5.189
 2584W        W 3581   3.415   1.620   1.964
 2585W        W 3582   6.393   6.769   1.628
 2586W        W 3583   5.171   4.291   5.926
 2587W        W 3584   2.794   5.964   3.111
 2588W        W 3585   3.454   6.334   0.770
 2589W        W 3586   5.362   4.319   4.212
 2590W        W 3587   2.031   3.098   0.601
 2591W        W 3588   4.020   6.255   6.270
 2592W        W 3589   4.927   5.778   1.513
 2593W        W 3590   4.639   4.965   2.762
 2594W        W 3591   4.222   3.728   4.392
 2595W        W 3592   2.387   2.288   5.403
 2596W        W 3593   3.760   4.305   2.739
 2597W        W 3594   1.182   2.493   4.278
 2598W        W 3595   2.682   5.186   1.763
 2599W        W 3596   5.662   3.089   3.482
 2600W        W 3597   4.018   7.186   6.575
 2601W        W 3598   6.180   0.567   5.683
 2602W        W 3599   5.902   0.035   7.118
 2603W        W 3600   7.541   4.884   6.675
 2604W        W 3601   0.611   3.305   5.240
 2605W        W 3602   3.553   4.984   7.756
 2606W        W 3603   3.169   5.770   2.281
 2607W        W 3604   2.162   4.121   5.459
 2608W        W 3605   3.340   3.796   3.431
 2609W        W 3606   4.197   2.764   3.551
 2610W        W 3607   0.054   6.322   4.843
 2611W        W 3608   6.306   1.749   5.162
 2612W        W 3609   7.055   5.676   3.382
 2613W        W 3610   6.433   1.706   6.443
 2614W        W 3611   5.325   0.566   6.422
 2615W        W 3612   2.640   3.905   5.473
 2616W        W 3613   6.948   2.397   2.113
 2617W        W 3614   2.745   5.980   1.040
 2618W        W 3615   2.905   3.175   2.404
 2619W        W 3616   2.823   3.051   0.889
 2620W        W 3617   5.096   1.797   3.222
 2621W        W 3618   6.490   6.223   7.040
 2622W        W 3619   3.082   6.575   4.808
 2623W        W 3620   1.314   6.906   6.758
 2624W        W 3621   4.871   5.971   1.032
 2625W        W 3622   4.983   7.160   3.412
 2626W        W 3623   7.135   4.346   4.792
 2627W        W 3624   4.141   4.933   3.295
 2628W        W 3625   6.722   4.312   6.744
 2629W        W 3626   7.017   6.172   7.043
 2630W        W 3627   5.905   5.598   0.422
 2631W        W 3628   4.378   6.098   0.908
 2632W        W 3629   4.721   0.467   4.186
 2633W        W 3630   7.469   1.743   1.311
 2634W        W 3631   3.581   5.801   7.073
 2635W        W 3632   4.250   1.775   0.988
 2636W        W 3633   5.427   6.679   0.317
 2637W        W 3634   2.435   2.023   1.797
 2638W        W 3635   0.945   4.930   6.128
 2639W        W 3636   3.335   4.603   3.457
 2640W        W 3637   6.335   2.470   5.818
 2641W        W 3638   0.953   3.488   7.146
 2642W        W 3639   1.484   5.005   4.291
 2643W        W 3640   4.456   4.994   4.779
 2644W        W 3641   5.436   2.729   5.552
 2645W        W 3642   5.047   2.531   6.148
 2646W        W 3643   0.957   4.018   7.122
 2647W        W 3644   2.268   1.379   7.111
 2648W        W 3645   1.410   1.221   5.188
 2649W        W 3646   1.621   5.335   3.458
 2650W        W 3647   6.523   4.718   1.783
 2651W        W 3648   3.586   6.261   4.087
 2652W        W 3649   4.804   2.030   4.854
 2653W        W 3650   7.168   4.563   6.810
 2654W        W 3651   2.739   1.259   3.960
 2655W        W 3652   7.415   5.849   6.855
 2656W        W 3653   1.874   5.715   7.437
 2657W        W 3654   5.582   1.374   0.867
 2658W        W 3655   4.717   4.338   2.114
 2659W        W 3656   5.805   0.967   2.471
 2660W        W 3657   0.735   5.152   7.595
 2661W        W 3658   6.771   6.916   5.321
 2662W        W 3659   1.804   2.300   0.655
 2663W        W 3660   4.265   4.193   2.784
 2664W        W 3661   3.600   6.900   6.609
 2665W        W 3662   7.703   2.746   4.749
 2666W        W 3663   1.781   7.096   6.833
 2667W        W 3664   2.139   1.618   6.046
 2668W        W 3665   3.403   2.333   6.909
 2669W        W 3666   2.835   5.752   2.646
 2670W        W 3667   6.443   6.737   2.200
 2671W        W 3668   4.953   1.160   3.655
 2672W        W 3669   3.317   6.864   2.980
 2673W        W 3670   2.457   4.230   1.114
 2674W        W 3671   1.300   6.848   7.697
 2675W        W 3672   1.351   3.240   6.897
 2676W        W 3673   0.757   2.764   4.408
 2677W        W 3674   6.361   2.971   1.717
 2678W        W 3675   4.951   0.066   5.747
 2679W        W 3676   4.739   2.824   5.027
 2680W        W 3677   3.066   6.827   5.649
 2681W        W 3678   5.893   5.542   3.975
 2682W        W 3679   3.430   7.372   6.694
 2683W        W 3680   3.741   7.021   4.378
 2684W        W 3681   2.811   2.092   0.484
 2685W        W 3682   1.846   4.149   5.902
 2686W        W 3683   1.664   2.722   5.802
 2687W        W 3684   5.328   0.665   2.516
 2688W        W 3685   6.993   7.704   2.075
 2689W        W 3686   1.437   2.804   6.269
 2690W        W 3687   4.699   2.773   3.635
 2691W        W 3688   5.922   2.681   7.629
 2692W        W 3689   0.674   4.901   7.141
 2693W        W 3690   0.371   2.623   1.283
 2694W        W 3691   1.052   5.687   2.856
 2695W        W 3692   7.561   4.536   3.162
 2696W        W 3693   3.795   3.849   2.934
 2697W        W 3694   3.449   2.493   1.509
 2698W        W 3695   6.118   2.533   1.917
 2699W        W 3696   7.036   5.649   7.118
 2700W        W 3697   5.016   0.174   2.485
 2701W        W 3698   7.367   2.710   1.996
 2702W        W 3699   3.950   3.579   0.137
 2703W        W 3700   3.037   4.322   5.790
 2704W        W 3701   0.674   4.539   1.743
 2705W        W 3702   0.621   4.179   6.173
 2706W        W 3703   3.991   6.159   2.395
 2707W        W 3704   3.322   7.362   3.353
 2708W        W 3705   5.473   4.886   2.304
 2709W        W 3706   4.540   5.582   3.137
 2710W        W 3707   1.097   1.663   2.772
 2711W        W 3708   1.038   5.169   1.033
 2712W        W 3709   4.224   6.166   5.307
 2713W        W 3710   7.028   5.776   3.988
 2714W        W 3711   4.412   6.248   1.790
 2715W        W 3712   4.975   1.710   0.441
 2716W        W 3713   0.991   1.342   2.385
 2717W        W 3714   3.453   1.683   4.019
 2718W        W 3715   7.062   1.209   2.392
 2719W        W 3716   0.363   2.865   5.131
 2720W        W 3717   2.521   5.888   4.720
 2721W        W 3718   4.540   7.528   4.673
 2722W        W 3719   1.234   2.944   4.488
 2723W        W 3720   1.751   1.282   4.029
 2724W        W 3721   3.807   7.052   4.923
 2725W        W 3722   3.035   6.407   1.715
 2726W        W 3723   1.067   2.462   2.848
 2727W        W 3724   4.787   3.663   3.139
 2728W        W 3725   1.047   5.450   5.109
 2729W        W 3726   4.780   6.905   3.876
 2730W        W 3727   2.233   0.923   2.255
 2731W        W 3728   3.667   3.972   2.376
 2732W        W 3729   6.199   6.339   2.967
 2733W        W 3730   6.415   7.534   3.306
 2734W        W 3731   6.904   2.928   7.039
 2735W        W 3732   5.358   6.164   3.408
 2736W        W 3733   1.376   5.829   6.054
 2737W        W 3734   4.516   4.985   7.475
 2738W        W 3735   4.909   5.757   5.737
 2739W        W 3736   2.227   1.177   3.244
 2740W        W 3737   6.088   2.006   6.912
 2741W        W 3738   0.966   6.590   2.317
 2742W        W 3739   7.122   2.038   5.412
 2743W        W 3740   5.443   2.126   2.138
 2744W        W 3741   0.315   2.041   2.691
 2745W        W 3742   1.808   2.641   2.074
 2746W        W 3743   7.630   5.355   6.475
 2747W        W 3744   6.349   2.951   7.001
 2748W        W 3745   7.497   3.984   4.713
 2749W        W 3746   5.972   7.286   3.320
 2750W        W 3747   3.153   4.449   1.439
 2751W        W 3748   1.777   4.819   6.559
 2752W        W 3749   1.151   4.022   6.232
 2753W        W 3750   6.877   2.799   1.759
 2754W        W 3751   2.038   1.547   4.803
 2755W        W 3752   4.113   4.678   6.458
 2756W        W 3753   6.175   4.576   6.059
 2757W        W 3754   6.990   0.937   1.836
 2758W        W 3755   1.492   7.194   0.335
 2759W        W 3756   1.066   1.272   4.779
 2760W        W 3757   4.523   7.479   1.869
 2761W        W 3758   3.925   6.954   7.028
 2762W        W 3759   4.824   4.139   5.055
 2763W        W 3760   0.500   5.542   4.440
 2764W        W 3761   2.123   4.492   1.915
 2765W        W 3762   2.128   1.767   6.807
 2766W        W 3763   6.732   5.851   6.773
 2767W        W 3764   2.313   6.219   0.137
 2768W        W 3765   2.151   5.718   0.616
 2769W        W 3766   3.153   5.780   6.831
 2770W        W 3767   4.047   3.792   6.279
 2771W        W 3768   5.102   6.246   2.963
 2772W        W 3769   7.825   5.471   6.016
 2773W        W 3770   2.612   7.536   3.305
 2774W        W 3771   3.230   0.385   1.503
 2775W        W 3772   1.680   1.175   6.408
 2776W        W 3773   5.792   2.959   5.246
 2777W        W 3774   4.469   1.789   2.751
 2778W        W 3775   1.539   1.925   3.432
 2779W        W 3776   6.694   7.123   1.457
 2780W        W 3777   7.093   0.367   6.842
 2781W        W 3778   4.913   4.339   1.633
 2782W        W 3779   3.031   7.726   3.526
 2783W        W 3780   6.649   5.431   2.921
 2784W        W 3781   4.528   7.961   2.518
 2785W        W 3782   3.558   6.002   1.226
 2786W        W 3783   0.656   3.063   2.646
 2787W        W 3784   2.638   1.616   2.075
 2788W        W 3785   3.273   0.287   2.039
 2789W        W 3786   3.222   5.860   0.886
 2790W        W 3787   6.550   4.813   0.406
 2791W        W 3788   3.198   1.723   5.207
 2792W        W 3789   1.207   0.099   0.540
 2793W        W 3790   1.700   7.525   2.832
 2794W        W 3791   1.102   6.414   0.905
 2795W        W 3792   0.467   6.225   6.143
 2796W        W 3793   1.891   2.206   5.284
 2797W        W 3794   3.009   2.551   1.774
 2798W        W 3795   0.055   5.757   1.645
 2799W        W 3796   7.736   2.049   1.629
 2800W        W 3797   3.363   0.866   5.403
 2801W        W 3798   0.223   2.646   2.171
 2802W        W 3799   6.566   2.391   6.284
 2803W        W 3800   5.278   7.026   6.748
 2804W        W 3801   6.797   4.684   5.471
 2805W        W 3802   7.206   7.212   5.225
 2806W        W 3803   4.725   6.524   3.481
 2807W        W 3804   2.646   3.279   4.547
 2808W        W 3805   4.104   4.186   4.561
 2809W        W 3806   5.508   6.568   5.650
 2810W        W 3807   1.206   6.487   6.452
 2811W        W 3808   2.572   2.787   1.681
 2812W        W 3809   1.478   4.511   0.419
 2813W        W 3810   1.655   5.931   2.153
 2814W        W 3811   4.684   6.786   5.995
 2815W        W 3812   7.846   4.247   1.423
 2816W        W 3813   5.426   4.134   2.088
 2817W        W 3814   3.790   4.962   7.043
 2818W        W 3815   2.460   3.841   6.375
 2819W        W 3816   1.766   3.690   6.081
 2820W        W 3817   3.940   3.993   5.830
 2821W        W 3818   4.073   0.995   1.335
 2822W        W 3819   6.397   1.668   2.784
 2823W        W 3820   4.350   6.252   6.871
 2824W        W 3821   4.388   3.272   3.075
 2825W        W 3822   2.252   5.146   3.991
 2826W        W 3823   1.371   3.456   5.604
 2827W        W 3824   7.046   1.421   7.080
 2828W        W 3825   2.304   1.923   2.284
 2829W        W 3826   3.362   0.230   5.954
 2830W        W 3827   2.886   3.300   4.086
 2831W        W 3828   3.326   4.346   0.024
 2832W        W 3829   5.388   1.268   1.637
 2833W        W 3830   6.190   2.607   5.341
 2834W        W 3831   3.841   6.508   5.868
 2835W        W 3832   5.167   7.764   6.131
 2836W        W 3833   2.396   0.438   1.107
 2837W        W 3834   4.940   0.545   2.849
 2838W        W 3835   0.271   5.238   5.583
 2839W        W 3836   4.021   4.998   0.513
 2840W        W 3837   4.428   6.760   4.320
 2841W        W 3838   3.347   6.407   5.798
 2842W        W 3839   5.132   0.474   2.088
 2843W        W 3840   5.302   3.363   6.194
 2844W        W 3841   7.872   5.851   4.975
 2845W        W 3842   2.254   6.650   4.627
 2846W        W 3843   6.512   1.550   3.264
 2847W        W 3844   1.220   6.170   2.133
 2848W        W 3845   1.105   4.320   0.923
 2849W        W 3846   4.796   4.213   7.152
 2850W        W 3847   4.594   5.696   0.672
 2851W        W 3848   7.541   6.476   1.238
 2852W        W 3849   6.783   0.680   6.554
 2853W        W 3850   0.553   0.121   6.020
 2854W        W 3851   0.458   0.685   7.556
 2855W        W 3852   2.430   5.448   4.436
 2856W        W 3853   6.430   7.807   6.434
 2857W        W 3854   4.147   7.735   5.985
 2858W        W 3855   6.552   5.798   3.254
 2859W        W 3856   5.154   7.793   7.349
 2860W        W 3857   4.219   5.510   1.521
 2861W        W 3858   3.586   4.171   1.475
 2862W        W 3859   3.871   3.554   2.153
 2863W        W 3860   3.628   3.919   4.564
 2864W        W 3861   5.859   0.632   0.411
 2865W        W 3862   1.665   3.747   0.748
 2866W        W 3863   5.493   0.363   1.472
 2867W        W 3864   5.411   2.808   4.260
 2868W        W 3865   3.660   2.453   7.338
 2869W        W 3866   4.440   0.759   4.515
 2870W        W 3867   5.557   1.460   6.536
 2871W        W 3868   1.916   7.337   0.667
 2872W        W 3869   5.856   2.092   1.281
 2873W        W 3870   7.535   6.352   1.722
 2874W        W 3871   2.249   3.831   5.870
 2875W        W 3872   1.876   6.030   2.964
 2876W        W 3873   5.888   0.238   3.651
 2877W        W 3874   5.542   3.127   2.099
 2878W        W 3875   3.899   6.330   1.036
 2879W        W 3876   4.945   1.642   4.516
 2880W        W 3877   4.718   4.785   1.773
 2881W        W 3878   4.186   7.567   4.252
 2882W        W 3879   6.352   5.087   7.010
 2883W        W 3880   1.907   1.305   2.820
 2884W        W 3881   2.674   5.166   5.953
 2885W        W 3882   7.866   6.870   1.287
 2886W        W 3883   1.167   3.249   3.694
 2887W        W 3884   3.898   3.744   3.425
 2888W        W 3885   6.490   2.868   6.114
 2889W        W 3886   7.923   1.904   3.679
 2890W        W 3887   6.220   6.351   1.360
 2891W        W 3888   0.443   1.200   5.297
 2892W        W 3889   1.192   3.549   0.702
 2893W        W 3890   2.794   6.726   2.829
 2894W        W 3891   4.737   1.590   3.526
 2895W        W 3892   3.338   2.211   2.666
 2896W        W 3893   0.129   1.768   1.413
 2897W        W 3894   2.071   4.808   2.837
 2898W        W 3895   4.610   6.982   2.289
 2899W        W 3896   4.538   3.535   2.672
 2900W        W 3897   0.968   6.012   1.191
 2901W        W 3898   5.177   2.918   3.583
 2902W        W 3899   7.066   6.302   4.019
 2903W        W 3900   3.810   5.707   3.627
 2904W        W 3901   2.888   7.212   3.571
 2905W        W 3902   5.968   0.872   4.207
 2906W        W 3903   0.799   5.949   4.323
 2907W        W 3904   7.460   6.286   6.186
 2908W        W 3905   2.224   6.437   5.468
 2909W        W 3906   2.378   7.291   5.317
 2910W        W 3907   0.430   3.111   2.053
 2911W        W 3908   6.949   4.903   7.540
 2912W        W 3909   5.208   1.061   6.610
 2913W        W 3910   6.313   7.967   3.556
 2914W        W 3911   4.019   2.484   5.986
 2915W        W 3912   6.190   6.324   2.412
 2916W        W 3913   7.745   5.148   1.203
 2917W        W 3914   4.446   3.198   3.817
 2918W        W 3915   6.701   3.270   4.380
 2919W        W 3916   7.588   3.767   3.334
 2920W        W 3917   6.492   0.743   6.967
 2921W        W 3918   2.584   7.986   3.608
 2922W        W 3919   4.188   6.572   2.101
 2923W        W 3920   7.092   2.282   2.873
 2924W        W 3921   3.548   7.701   3.659
 2925W        W 3922   5.419   3.185   3.933
 2926W        W 3923   3.179   4.482   4.351
 2927W        W 3924   5.027   5.106   7.336
 2928W        W 3925   5.310   0.073   1.848
 2929W        W 3926   2.338   2.530   4.527
 2930W        W 3927   4.208   5.380   3.546
 2931W        W 3928   2.417   7.231   6.360
 2932W        W 3929   6.632   6.332   1.670
 2933W        W 3930   3.684   4.405   4.402
 2934W        W 3931   4.004   6.833   1.152
 2935W        W 3932   6.395   6.160   3.560
 2936W        W 3933   4.323   3.222   0.280
 2937W        W 3934   6.027   2.667   4.862
 2938W        W 3935   6.869   2.730   3.033
 2939W        W 3936   6.931   1.180   5.790
 2940W        W 3937   7.788   6.932   5.825
 2941W        W 3938   3.968   2.115   7.556
 2942W        W 3939   5.529   1.637   1.289
 2943W        W 3940   7.612   4.987   6.131
 2944W        W 3941   0.235   2.268   1.664
 2945W        W 3942   1.173   5.964   6.530
 2946W        W 3943   0.585   3.824   1.510
 2947W        W 3944   7.612   3.228   5.341
 2948W        W 3945   3.858   4.036   4.985
 2949W        W 3946   5.998   0.559   6.953
 2950W        W 3947   6.734   6.575   3.659
 2951W        W 3948   3.823   1.231   4.744
 2952W        W 3949   7.096   1.663   2.726
 2953W        W 3950   2.216   5.009   1.706
 2954W        W 3951   2.003   3.063   5.080
 2955W        W 3952   5.347   3.225   5.471
 2956W        W 3953   3.693   3.046   4.434
 2957W        W 3954   4.005   6.776   6.272
 2958W        W 3955   0.794   1.490   6.563
 2959W        W 3956   4.202   2.427   6.531
 2960W        W 3957   3.824   4.601   3.523
 2961W        W 3958   1.667   6.531   0.963
 2962W        W 3959   5.480   7.991   3.249
 2963W        W 3960   3.186   3.119   4.463
 2964W        W 3961   2.246   0.519   2.983
 2965W        W 3962   5.971   1.737   6.211
 2966W        W 3963   5.005   2.646   0.303
 2967W        W 3964   0.124   2.909   1.635
 2968W        W 3965   6.625   3.249   2.075
 2969W        W 3966   4.737   6.463   0.964
 2970W        W 3967   3.923   1.470   3.978
 2971W        W 3968   1.148   1.570   3.281
 2972W        W 3969   2.551   2.109   4.336
 2973W        W 3970   3.228   1.178   3.989
 2974W        W 3971   6.353   7.310   4.419
 2975W        W 3972   6.311   6.518   7.463
 2976W        W 3973   5.204   0.627   5.757
 2977W        W 3974   4.668   3.733   6.934
 2978W        W 3975   4.694   5.319   2.136
 2979W        W 3976   3.574   6.569   4.944
 2980W        W 3977   1.897   2.185   6.596
 2981W        W 3978   5.387   6.037   1.970
 2982W        W 3979   5.250   6.470   5.225
 2983W        W 3980   0.931   4.712   7.801
 2984W        W 3981   5.927   7.657   6.757
 2985W        W 3982   3.026   0.836   2.825
 2986W        W 3983   6.646   4.173   2.477
 2987W        W 3984   7.963   4.495   2.534
 2988W        W 3985   6.108   3.799   4.147
 2989W        W 3986   4.511   4.663   4.010
 2990W        W 3987   7.130   0.623   3.493
 2991W        W 3988   5.371   5.777   6.043
 2992W        W 3989   1.324   0.744   7.737
 2993W        W 3990   6.988   6.795   4.068
 2994W        W 3991   2.768   4.368   5.329
 2995W        W 3992   3.293   1.165   4.749
 2996W        W 3993   1.133   5.095   7.031
 2997W        W 3994   7.084   6.423   1.474
 2998W        W 3995   6.271   0.962   2.659
 2999W        W 3996   0.011   4.014   3.221
 3000W        W 3997   7.584   5.563   2.138
 3001W        W 3998   4.579   1.010   5.877
 3002W        W 3999   0.999   0.237   6.269
 3003W        W 4000   7.152   5.434   1.777
 3004W        W 4001   4.013   4.834   7.482
 3005W        W 4002   3.320   0.723   3.756
 3006W        W 4003   4.008   1.603   2.624
 3007W        W 4004   5.705   6.299   1.209
 3008W        W 4005   1.090   4.332   0.109
 3009W        W 4006   3.817   0.612   6.694
 3010W        W 4007   1.616   4.243   0.826
 3011W        W 4008   4.528   6.734   1.667
 3012W        W 4009   4.980   3.898   2.032
 3013W        W 4010   6.994   4.860   4.113
 3014W        W 4011   6.763   2.026   0.743
 3015W        W 4012   3.040   1.513   6.488
 3016W        W 4013   7.035   6.035   4.447
 3017W        W 4014   6.360   5.894   1.757
 3018W        W 4015   0.730   3.561   2.818
 3019W        W 4016   7.065   6.504   2.855
 3020W        W 4017   7.119   5.087   5.411
 3021W        W 4018   6.112   5.216   5.469
 3022W        W 4019   7.994   4.959   2.775
 3023W        W 4020   0.488   2.258   5.303
 3024W        W 4021   3.429   1.409   6.122
 3025W        W 4022   5.152   7.097   6.250
 3026W        W 4023   1.994   3.433   1.020
 3027W        W 4024   0.175   0.367   6.293
 3028W        W 4025   5.731   1.802   5.757
 3029W        W 4026   4.292   5.622   6.786
 3030W        W 4027   0.051   1.389   7.224
 3031W        W 4028   3.178   6.607   6.639
 3032W        W 4029   2.105   6.174   4.645
 3033W        W 4030   4.451   5.940   1.395
 3034W        W 4031   7.437   6.736   0.807
 3035W        W 4032   1.862   0.864   3.074
 3036W        W 4033   6.065   2.559   3.508
 3037W        W 4034   4.873   2.267   5.722
 3038W        W 4035   3.589   5.230   0.269
 3039W        W 4036   5.730   5.420   5.873
 3040W        W 4037   6.577   5.809   7.337
 3041W        W 4038   4.428   3.444   6.197
 3042W        W 4039   1.696   6.866   2.806
 3043W        W 4040   0.131   5.042   6.029
 3044W        W 4041   5.694   3.387   1.662
 3045W        W 4042   5.349   0.842   4.942
 3046W        W 4043   3.174   2.704   5.726
 3047W        W 4044   5.064   2.470   2.175
 3048W        W 4045   7.261   1.194   2.864
 3049W        W 4046   6.237   0.889   1.348
 3050W        W 4047   3.128   3.310   3.639
 3051W        W 4048   1.226   6.630   5.460
 3052W        W 4049   7.143   1.352   4.487
 3053W        W 4050   7.735   7.576   6.101
 3054W        W 4051   6.520   6.234   5.827
 3055W        W 4052   3.791   1.581   0.719
 3056W        W 4053   6.245   1.150   3.505
 3057W        W 4054   5.976   0.861   3.165
 3058W        W 4055   3.652   2.103   6.029
 3059W        W 4056   7.308   5.697   5.623
 3060W        W 4057   3.274   0.375   4.120
 3061W        W 4058   0.649   1.526   4.943
 3062W        W 4059   7.250   2.596   2.514
 3063W        W 4060   3.212   1.162   1.042
 3064W        W 4061   3.609   6.797   5.492
 3065W        W 4062   0.918   6.420   5.107
 3066W        W 4063   3.346   6.005   1.860
 3067W        W 4064   1.540   6.939   4.679
 3068W        W 4065   0.451   3.658   4.473
 3069W        W 4066   4.422   5.993   6.439
 3070W        W 4067   7.700   3.960   4.189
 3071W        W 4068   7.201   0.651   2.949
 3072W        W 4069   2.062   6.993   1.606
 3073W        W 4070   5.676   5.743   6.918
 3074W        W 4071   3.530   4.666   1.683
 3075W        W 4072   5.011   2.030   6.168
 3076W        W 4073   4.980   7.677   6.870
 3077W        W 4074   6.450   6.594   6.167
 3078W        W 4075   5.979   3.770   0.602
 3079W        W 4076   2.654   2.246   3.167
 3080W        W 4077   4.213   4.567   0.310
 3081W        W 4078   4.447   3.115   0.990
 3082W        W 4079   6.686   6.668   4.900
 3083W        W 4080   4.643   3.521   1.206
 3084W        W 4081   4.431   3.618   3.512
 3085W        W 4082   5.901   4.796   5.311
 3086W        W 4083   3.475   7.143   7.158
 3087W        W 4084   2.212   3.254   7.152
 3088W        W 4085   5.947   2.822   5.748
 3089W        W 4086   5.132   6.701   0.761
 3090W        W 4087   1.433   6.444   5.017
 3091W        W 4088   7.412   2.606   4.211
 3092W        W 4089   2.909   3.031   1.386
 3093W        W 4090   5.514   6.165   2.439
 3094W        W 4091   3.525   3.717   1.799
 3095W        W 4092   5.347   0.891   0.764
 3096W        W 4093   5.001   3.741   4.784
 3097W        W 4094   4.115   6.896   5.667
 3098W        W 4095   2.770   5.467   2.213
 3099W        W 4096   4.931   2.719   5.489
 3100W        W 4097   5.771   7.164   1.149
 3101W        W 4098   2.112   2.733   7.128
 3102W        W 4099   2.060   2.725   5.433
 3103W        W 4100   6.675   7.202   4.016
 3104W        W 4101   7.350   3.015   3.905
 3105W        W 4102   0.687   4.387   4.883
 3106W        W 4103   1.082   4.571   3.627
 3107W        W 4104   6.896   1.673   6.666
 3108W        W 4105   3.597   1.773   1.530
 3109W        W 4106   2.980   1.570   0.770
 3110W        W 4107   6.428   4.197   4.291
 3111W        W 4108   4.647   4.825   6.580
 3112W        W 4109   5.816   4.075   6.322
 3113W        W 4110   6.424   2.096   7.273
 3114W        W 4111   2.905   3.079   1.915
 3115W        W 4112   5.877   2.222   5.996
 3116W        W 4113   5.053   3.001   2.193
 3117W        W 4114   1.544   2.825   7.143
 3118W        W 4115   5.129   6.933   2.335
 3119W        W 4116   5.805   5.460   7.623
 3120W        W 4117   5.528   2.577   3.435
 3121W        W 4118   1.040   6.940   5.883
 3122W        W 4119   6.230   7.058   6.039
 3123W        W 4120   4.610   7.085   5.549
 3124W        W 4121   3.873   7.327   2.755
 3125W        W 4122   1.880   5.829   6.088
 3126W        W 4123   3.268   4.362   5.327
 3127W        W 4124   4.515   3.028   7.844
 3128W        W 4125   6.194   3.498   2.956
 3129W        W 4126   4.176   3.207   4.254
 3130W        W 4127   3.834   7.674   6.482
 3131W        W 4128   4.614   4.022   4.600
 3132W        W 4129   7.080   2.154   3.848
 3133W        W 4130   4.276   3.785   4.915
 3134W        W 4131   7.340   4.966   0.903
 3135W        W 4132   2.065   0.867   6.324
 3136W        W 4133   6.302   4.759   5.598
 3137W        W 4134   0.225   1.489   3.532
 3138W        W 4135   2.557   4.590   6.963
 3139W        W 4136   5.689   2.195   0.022
 3140W        W 4137   5.170   6.605   6.041
 3141W        W 4138   2.639   6.252   7.262
 3142W        W 4139   3.743   6.596   2.380
 3143W        W 4140   1.323   6.795   0.676
 3144W        W 4141   2.830   3.058   5.889
 3145W        W 4142   7.535   0.878   3.766
 3146W        W 4143   6.241   2.035   0.892
 3147W        W 4144   2.846   5.006   0.907
 3148W        W 4145   3.820   3.515   5.132
 3149W        W 4146   6.628   0.133   1.682
 3150W        W 4147   7.240   0.285   6.358
 3151W        W 4148   4.919   6.707   6.486
 3152W        W 4149   1.865   4.092   2.768
 3153W        W 4150   0.388   4.610   6.770
 3154W        W 4151   4.657   7.793   6.078
 3155W        W 4152   6.262   5.041   4.671
 3156W        W 4153   6.283   1.403   1.432
 3157W        W 4154   0.615   2.855   0.886
 3158W        W 4155   3.315   2.944   1.664
 3159W        W 4156   1.722   6.551   5.489
 3160W        W 4157   1.616   4.436   4.337
 3161W        W 4158   2.288   2.963   7.989
 3162W        W 4159   4.661   4.626   5.113
 3163W        W 4160   0.711   6.163   2.142
 3164W        W 4161   2.233   3.014   4.642
 3165W        W 4162   0.140   2.999   2.526
 3166W        W 4163   2.345   2.961   3.580
 3167W        W 4164   4.850   3.478   6.512
 3168W        W 4165   7.766   6.588   2.110
 3169W        W 4166   0.494   4.155   3.169
 3170W        W 4167   7.998   4.523   3.544
 3171W        W 4168   2.691   0.867   3.618
 3172W        W 4169   1.254   5.056   7.587
 3173W        W 4170   7.292   4.551   7.684
 3174W        W 4171   7.910   2.578   4.273
 3175W        W 4172   0.316   6.558   4.483
 3176W        W 4173   7.688   5.948   5.873
 3177W        W 4174   7.540   3.539   4.438
 3178W        W 4175   2.813   6.696   2.282
 3179W        W 4176   1.694   6.190   5.813
 3180W        W 4177   4.315   2.960   6.523
 3181W        W 4178   7.283   1.752   1.764
 3182W        W 4179   5.905   4.935   1.007
 3183W        W 4180   2.428   3.211   1.223
 3184W        W 4181   0.756   6.835   5.373
 3185W        W 4182   7.063   3.403   2.333
 3186W        W 4183   1.610   6.199   6.322
 3187W        W 4184   3.579   3.679   3.861
 3188W        W 4185   4.687   5.416   7.713
 3189W        W 4186   3.661   2.161   2.270
 3190W        W 4187   2.245   4.647   6.534
 3191W        W 4188   2.233   1.812   5.245
 3192W        W 4189   7.334   6.690   5.934
 3193W        W 4190   6.593   6.119   6.368
 3194W        W 4191   4.996   0.873   6.169
 3195W        W 4192   6.331   3.776   4.604
 3196W        W 4193   0.853   6.859   0.967
 3197W        W 4194   4.523   7.468   2.377
 3198W        W 4195   5.056   1.632   6.507
 3199W        W 4196   6.010   6.866   6.717
 3200W        W 4197   6.729   6.965   2.709
 3201W        W 4198   7.721   1.001   1.165
 3202W        W 4199   0.862   3.387   5.793
 3203W        W 4200   0.370   4.264   1.444
 3204W        W 4201   6.808   1.395   4.106
 3205W        W 4202   6.886   3.929   2.833
 3206W        W 4203   7.123   3.916   2.378
 3207W        W 4204   3.741   7.272   5.715
 3208W        W 4205   0.770   1.814   5.337
 3209W        W 4206   2.402   6.731   6.164
 3210W        W 4207   6.046   4.728   7.170
 3211W        W 4208   6.734   1.259   3.605
 3212W        W 4209   4.026   7.513   3.649
 3213W        W 4210   7.493   1.545   5.984
 3214W        W 4211   4.542   6.142   3.757
 3215W        W 4212   0.144   3.218   5.427
 3216W        W 4213   1.198   1.863   6.386
 3217W        W 4214   2.876   5.930   7.614
 3218W        W 4215   6.817   0.298   2.709
 3219W        W 4216   1.000   4.480   6.387
 3220W        W 4217   2.291   4.595   1.447
 3221W        W 4218   5.169   6.229   4.792
 3222W        W 4219   5.850   7.997   1.429
 3223W        W 4220   2.490   7.990   3.074
 3224W        W 4221   6.600   1.524   5.989
 3225W        W 4222   2.367   6.843   2.020
 3226W        W 4223   3.529   7.624   0.959
 3227W        W 4224   6.310   4.278   4.766
 3228W        W 4225   3.033   5.241   1.395
 3229W        W 4226   4.957   0.795   4.567
 3230W        W 4227   3.361   3.094   2.680
 3231W        W 4228   3.058   0.650   3.309
 3232W        W 4229   0.357   3.330   5.886
 3233W        W 4230   0.942   6.880   1.511
 3234W        W 4231   5.420   3.046   6.885
 3235W        W 4232   2.444   4.161   0.175
 3236W        W 4233   0.292   3.307   2.914
 3237W        W 4234   5.005   3.969   6.614
 3238W        W 4235   2.163   7.546   3.087
 3239W        W 4236   7.145   6.529   3.376
 3240W        W 4237   7.108   0.888   1.233
 3241W        W 4238   1.985   5.672   4.626
 3242W        W 4239   3.761   3.078   2.329
 3243W        W 4240   2.064   3.603   0.470
 3244W        W 4241   6.691   1.077   6.238
 3245W        W 4242   3.186   2.225   5.884
 3246W        W 4243   1.926   1.131   4.490
 3247W        W 4244   5.284   3.667   3.924
 3248W        W 4245   4.293   4.533   7.809
 3249W        W 4246   6.133   1.933   0.144
 3250W        W 4247   4.767   3.222   3.405
 3251W        W 4248   3.092   5.862   1.408
 3252W        W 4249   6.071   4.248   0.370
 3253W        W 4250   6.104   6.189   6.240
 3254W        W 4251   3.640   4.049   5.423
 3255W        W 4252   1.260   4.033   0.514
 3256W        W 4253   0.977   6.166   6.118
 3257W        W 4254   4.474   2.814   2.894
 3258W        W 4255   7.124   4.659   1.249
 3259W        W 4256   0.842   3.305   4.490
 3260W        W 4257   5.007   2.764   2.641
 3261W        W 4258   4.247   4.950   4.309
 3262W        W 4259   2.430   4.142   5.017
 3263W        W 4260   2.947   2.964   7.351
 3264W        W 4261   4.762   4.847   2.268
 3265W        W 4262   5.601   4.262   3.304
 3266W        W 4263   5.307   7.343   2.560
 3267W        W 4264   5.431   5.092   2.757
 3268W        W 4265   7.039   1.454   6.233
 3269W        W 4266   3.422   3.218   4.029
 3270W        W 4267   7.653   1.749   2.135
 3271W        W 4268   1.428   7.261   0.848
 3272W        W 4269   1.601   5.783   7.844
 3273W        W 4270   4.975   2.439   0.826
 3274W        W 4271   6.210   2.028   1.873
 3275W        W 4272   5.607   0.690   2.097
   8.00000   8.00000   8.00000
